Built with Packmol
22236
    1LIG      O    1   1.977   1.970   0.066
    1LIG      C    2   2.042   2.020   0.217
    1LIG     C1    3   1.971   1.967   0.377
    1LIG     O1    4   2.035   2.017   0.530
    1LIG     C2    5   1.970   1.968   0.681
    1LIG     C3    6   2.041   2.023   0.838
    1LIG     O2    7   1.977   1.975   0.990
    1LIG     C4    8   2.040   2.025   1.142
    1LIG     C5    9   1.968   1.971   1.300
    1LIG     O3   10   2.031   2.020   1.452
    1LIG     C6   11   1.966   1.971   1.603
    1LIG     C7   12   2.038   2.027   1.760
    1LIG     O4   13   1.974   1.979   1.913
    1LIG     C8   14   2.038   2.029   2.065
    1LIG     C9   15   1.965   1.973   2.221
    1LIG     O5   16   2.029   2.023   2.373
    1LIG    C10   17   1.965   1.974   2.525
    1LIG    C11   18   2.037   2.030   2.682
    1LIG     O6   19   1.973   1.981   2.833
    1LIG    C12   20   2.036   2.030   2.985
    1LIG    C13   21   1.963   1.975   3.142
    1LIG     O7   22   2.027   2.024   3.294
    1LIG    C14   23   1.963   1.975   3.446
    1LIG    C15   24   2.035   2.030   3.604
    1LIG     O8   25   1.971   1.982   3.757
    1LIG    C16   26   2.035   2.031   3.908
    1LIG    C17   27   1.964   1.976   4.066
    1LIG     O9   28   2.027   2.025   4.219
    1LIG    C18   29   1.962   1.976   4.369
    1LIG    C19   30   2.034   2.031   4.526
    1LIG    O10   31   1.971   1.982   4.678
    1LIG    C20   32   2.035   2.032   4.830
    1LIG    C21   33   1.962   1.976   4.986
    1LIG    O11   34   2.026   2.025   5.138
    1LIG    C22   35   1.962   1.976   5.290
    1LIG    C23   36   2.034   2.032   5.447
    1LIG    O12   37   1.970   1.983   5.598
    1LIG    C24   38   2.034   2.032   5.751
    1LIG    C25   39   1.962   1.977   5.909
    1LIG    O13   40   2.025   2.026   6.061
    1LIG    C26   41   1.961   1.977   6.212
    1LIG    C27   42   2.033   2.032   6.369
    1LIG    O14   43   1.969   1.983   6.521
    1LIG    C28   44   2.034   2.032   6.673
    1LIG    C29   45   1.962   1.976   6.831
    1LIG    O15   46   2.026   2.026   6.983
    1LIG    C30   47   1.962   1.976   7.134
    1LIG    C31   48   2.034   2.031   7.291
    1LIG    O16   49   1.970   1.982   7.442
    1LIG    C32   50   2.034   2.031   7.594
    1LIG    C33   51   1.962   1.976   7.752
    1LIG    O17   52   2.026   2.025   7.904
    1LIG    C34   53   1.962   1.975   8.056
    1LIG    C35   54   2.034   2.030   8.213
    1LIG    O18   55   1.970   1.981   8.365
    1LIG    C36   56   2.034   2.031   8.516
    1LIG    C37   57   1.963   1.975   8.674
    1LIG    O19   58   2.027   2.024   8.827
    1LIG    C38   59   1.963   1.974   8.978
    1LIG    C39   60   2.034   2.029   9.136
    1LIG    O20   61   1.971   1.980   9.288
    1LIG    C40   62   2.035   2.029   9.439
    1LIG    C41   63   1.964   1.974   9.597
    1LIG    O21   64   2.027   2.023   9.749
    1LIG    C42   65   1.963   1.973   9.900
    1LIG    C43   66   2.035   2.028  10.057
    1LIG    O22   67   1.972   1.979  10.209
    1LIG    C44   68   2.036   2.028  10.361
    1LIG    C45   69   1.964   1.972  10.518
    1LIG    O23   70   2.028   2.021  10.670
    1LIG    C46   71   1.964   1.972  10.822
    1LIG    C47   72   2.037   2.028  10.979
    1LIG    O24   73   1.973   1.978  11.130
    1LIG    C48   74   2.036   2.027  11.282
    1LIG    C49   75   1.964   1.971  11.439
    1LIG    O25   76   2.028   2.020  11.591
    1LIG    C50   77   1.965   1.971  11.743
    1LIG    C51   78   2.037   2.027  11.900
    1LIG    O26   79   1.974   1.977  12.051
    1LIG    C52   80   2.037   2.026  12.204
    1LIG    C53   81   1.965   1.970  12.360
    1LIG    O27   82   2.029   2.019  12.512
    1LIG    C54   83   1.966   1.969  12.664
    1LIG    C55   84   2.038   2.025  12.822
    1LIG    O28   85   1.974   1.975  12.974
    1LIG    C56   86   2.038   2.024  13.127
    1LIG    C57   87   1.967   1.968  13.285
    1LIG    O29   88   2.031   2.017  13.438
    1LIG    C58   89   1.967   1.967  13.589
    1LIG    C59   90   2.038   2.022  13.747
    1LIG      H   91   2.039   2.130   0.214
    1LIG     H1   92   2.147   1.989   0.215
    1LIG     H2   93   1.974   1.858   0.377
    1LIG     H3   94   1.866   1.998   0.375
    1LIG     H4   95   1.973   1.858   0.683
    1LIG     H5   96   1.865   1.999   0.682
    1LIG     H6   97   2.039   2.133   0.836
    1LIG     H7   98   2.147   1.992   0.837
    1LIG     H8   99   2.038   2.134   1.143
    1LIG     H9  100   2.145   1.994   1.145
    1LIG    H10  101   1.971   1.861   1.299
    1LIG    H11  102   1.863   2.001   1.297
    1LIG    H12  103   1.969   1.862   1.606
    1LIG    H13  104   1.861   2.002   1.604
    1LIG    H14  105   2.035   2.137   1.758
    1LIG    H15  106   2.143   1.997   1.759
    1LIG    H16  107   2.035   2.138   2.066
    1LIG    H17  108   2.143   1.998   2.067
    1LIG    H18  109   1.968   1.864   2.219
    1LIG    H19  110   1.860   2.005   2.219
    1LIG    H20  111   1.967   1.865   2.527
    1LIG    H21  112   1.859   2.005   2.527
    1LIG    H22  113   2.034   2.139   2.679
    1LIG    H23  114   2.142   1.999   2.680
    1LIG    H24  115   2.033   2.140   2.987
    1LIG    H25  116   2.141   1.999   2.988
    1LIG    H26  117   1.966   1.865   3.141
    1LIG    H27  118   1.858   2.006   3.140
    1LIG    H28  119   1.966   1.865   3.448
    1LIG    H29  120   1.858   2.006   3.448
    1LIG    H30  121   2.032   2.140   3.602
    1LIG    H31  122   2.140   1.999   3.603
    1LIG    H32  123   2.032   2.141   3.909
    1LIG    H33  124   2.140   2.000   3.910
    1LIG    H34  125   1.966   1.867   4.064
    1LIG    H35  126   1.858   2.007   4.064
    1LIG    H36  127   1.965   1.866   4.371
    1LIG    H37  128   1.857   2.007   4.371
    1LIG    H38  129   2.031   2.141   4.524
    1LIG    H39  130   2.139   2.000   4.524
    1LIG    H40  131   2.032   2.141   4.832
    1LIG    H41  132   2.140   2.001   4.832
    1LIG    H42  133   1.965   1.867   4.985
    1LIG    H43  134   1.857   2.007   4.984
    1LIG    H44  135   1.965   1.867   5.292
    1LIG    H45  136   1.857   2.007   5.292
    1LIG    H46  137   2.031   2.142   5.445
    1LIG    H47  138   2.140   2.001   5.445
    1LIG    H48  139   2.031   2.142   5.753
    1LIG    H49  140   2.139   2.001   5.753
    1LIG    H50  141   1.965   1.867   5.907
    1LIG    H51  142   1.857   2.008   5.907
    1LIG    H52  143   1.964   1.867   6.214
    1LIG    H53  144   1.856   2.008   6.214
    1LIG    H54  145   2.030   2.142   6.368
    1LIG    H55  146   2.138   2.001   6.367
    1LIG    H56  147   2.031   2.141   6.675
    1LIG    H57  148   2.139   2.001   6.675
    1LIG    H58  149   1.965   1.867   6.829
    1LIG    H59  150   1.857   2.007   6.830
    1LIG    H60  151   1.965   1.866   7.136
    1LIG    H61  152   1.857   2.007   7.136
    1LIG    H62  153   2.031   2.141   7.289
    1LIG    H63  154   2.139   2.001   7.289
    1LIG    H64  155   2.031   2.141   7.596
    1LIG    H65  156   2.139   2.000   7.596
    1LIG    H66  157   1.965   1.866   7.750
    1LIG    H67  158   1.857   2.007   7.751
    1LIG    H68  159   1.965   1.866   8.057
    1LIG    H69  160   1.857   2.006   8.057
    1LIG    H70  161   2.031   2.140   8.212
    1LIG    H71  162   2.139   2.000   8.211
    1LIG    H72  163   2.031   2.140   8.518
    1LIG    H73  164   2.140   2.000   8.518
    1LIG    H74  165   1.966   1.866   8.673
    1LIG    H75  166   1.858   2.006   8.673
    1LIG    H76  167   1.966   1.865   8.979
    1LIG    H77  168   1.858   2.005   8.979
    1LIG    H78  169   2.031   2.139   9.134
    1LIG    H79  170   2.140   1.998   9.134
    1LIG    H80  171   2.032   2.139   9.441
    1LIG    H81  172   2.140   1.999   9.440
    1LIG    H82  173   1.967   1.864   9.595
    1LIG    H83  174   1.858   2.004   9.595
    1LIG    H84  175   1.967   1.863   9.902
    1LIG    H85  176   1.858   2.004   9.902
    1LIG    H86  177   2.032   2.138  10.055
    1LIG    H87  178   2.141   1.998  10.055
    1LIG    H88  179   2.033   2.138  10.363
    1LIG    H89  180   2.141   1.998  10.363
    1LIG    H90  181   1.967   1.863  10.516
    1LIG    H91  182   1.859   2.003  10.516
    1LIG    H92  183   1.968   1.862  10.824
    1LIG    H93  184   1.859   2.002  10.824
    1LIG    H94  185   2.033   2.137  10.977
    1LIG    H95  186   2.142   1.997  10.977
    1LIG    H96  187   2.033   2.136  11.285
    1LIG    H97  188   2.141   1.996  11.284
    1LIG    H98  189   1.968   1.861  11.437
    1LIG    H99  190   1.859   2.001  11.438
    1LIG   H100  191   1.968   1.861  11.745
    1LIG   H101  192   1.860   2.001  11.746
    1LIG   H102  193   2.034   2.136  11.898
    1LIG   H103  194   2.142   1.996  11.898
    1LIG   H104  195   2.034   2.135  12.206
    1LIG   H105  196   2.142   1.995  12.206
    1LIG   H106  197   1.969   1.860  12.358
    1LIG   H107  198   1.860   2.000  12.359
    1LIG   H108  199   1.970   1.860  12.666
    1LIG   H109  200   1.861   2.000  12.666
    1LIG   H110  201   2.034   2.134  12.821
    1LIG   H111  202   2.143   1.994  12.820
    1LIG   H112  203   2.035   2.134  13.128
    1LIG   H113  204   2.144   1.994  13.128
    1LIG   H114  205   1.971   1.859  13.283
    1LIG   H115  206   1.862   1.999  13.284
    1LIG   H116  207   1.971   1.858  13.589
    1LIG   H117  208   1.862   1.999  13.590
    1LIG   H118  209   2.143   1.992  13.747
    1LIG   H119  210   1.991   1.985  13.866
    1MOL     C1  211   1.447   1.997   6.462
    1MOL     H1  212   1.358   2.057   6.441
    1MOL     O1  213   1.473   1.924   6.344
    1MOL     C2  214   1.594   1.845   6.350
    1MOL     H2  215   1.679   1.909   6.375
    1MOL     C3  216   1.618   1.789   6.209
    1MOL     H3  217   1.522   1.786   6.156
    1MOL     H4  218   1.658   1.687   6.214
    1MOL     O2  219   1.707   1.871   6.134
    1MOL     H5  220   1.795   1.827   6.135
    1MOL     C4  221   1.425   1.901   6.580
    1MOL     H6  222   1.336   1.841   6.559
    1MOL     O3  223   1.400   1.969   6.702
    1MOL     H7  224   1.454   2.051   6.703
    1MOL     C5  225   1.546   1.809   6.593
    1MOL     H8  226   1.633   1.870   6.622
    1MOL     O4  227   1.524   1.708   6.692
    1MOL     H9  228   1.489   1.754   6.770
    1MOL     C6  229   1.580   1.740   6.462
    1MOL    H10  230   1.503   1.666   6.437
    1MOL     O5  231   1.706   1.675   6.484
    1MOL     C7  232   1.726   1.542   6.444
    1MOL    H11  233   1.631   1.493   6.419
    1MOL     O6  234   1.805   1.533   6.327
    1MOL     C8  235   1.934   1.598   6.338
    1MOL    H12  236   1.920   1.703   6.366
    1MOL     C9  237   1.997   1.593   6.201
    1MOL    H13  238   1.981   1.494   6.157
    1MOL    H14  239   2.105   1.612   6.209
    1MOL     O7  240   1.935   1.694   6.120
    1MOL    H15  241   1.958   1.679   6.027
    1MOL    C10  242   1.797   1.471   6.561
    1MOL    H16  243   1.807   1.365   6.535
    1MOL     O8  244   1.723   1.477   6.681
    1MOL    H17  245   1.677   1.563   6.687
    1MOL    C11  246   1.936   1.531   6.579
    1MOL    H18  247   1.925   1.635   6.610
    1MOL     O9  248   2.009   1.458   6.678
    1MOL    H19  249   1.948   1.448   6.753
    1MOL    C12  250   2.017   1.530   6.449
    1MOL    H20  251   2.041   1.426   6.421
    1MOL    O10  252   2.137   1.603   6.473
    1MOL    C13  253   2.264   1.543   6.454
    1MOL    H21  254   2.252   1.436   6.433
    1MOL    O11  255   2.330   1.597   6.342
    1MOL    C14  256   2.356   1.738   6.347
    1MOL    H22  257   2.260   1.793   6.346
    1MOL    C15  258   2.433   1.775   6.221
    1MOL    H23  259   2.437   1.885   6.215
    1MOL    H24  260   2.377   1.737   6.134
    1MOL    O12  261   2.563   1.719   6.228
    1MOL    H25  262   2.617   1.761   6.160
    1MOL    C16  263   2.346   1.567   6.581
    1MOL    H26  264   2.444   1.520   6.566
    1MOL    O13  265   2.291   1.509   6.697
    1MOL    H27  266   2.193   1.512   6.693
    1MOL    C17  267   2.366   1.717   6.599
    1MOL    H28  268   2.268   1.764   6.613
    1MOL    O14  269   2.449   1.744   6.712
    1MOL    H29  270   2.416   1.687   6.783
    1MOL    C18  271   2.432   1.778   6.476
    1MOL    H30  272   2.536   1.744   6.469
    1MOL    O15  273   2.426   1.920   6.491
    1MOL    C19  274   2.542   1.999   6.476
    1MOL    H31  275   2.631   1.936   6.462
    1MOL    O16  276   2.534   2.080   6.360
    1MOL    C20  277   2.419   2.167   6.356
    1MOL    H32  278   2.328   2.106   6.354
    1MOL    C21  279   2.426   2.246   6.226
    1MOL    H33  280   2.329   2.295   6.211
    1MOL    H34  281   2.443   2.175   6.144
    1MOL    O17  282   2.532   2.341   6.234
    1MOL    H35  283   2.524   2.400   6.158
    1MOL    C22  284   2.554   2.087   6.601
    1MOL    H36  285   2.643   2.150   6.591
    1MOL    O18  286   2.569   2.013   6.721
    1MOL    H37  287   2.512   1.934   6.718
    1MOL    C23  288   2.431   2.178   6.609
    1MOL    H38  289   2.342   2.115   6.623
    1MOL    O19  290   2.442   2.270   6.717
    1MOL    H39  291   2.471   2.218   6.793
    1MOL    C24  292   2.412   2.258   6.480
    1MOL    H40  293   2.489   2.335   6.474
    1MOL    O20  294   2.282   2.317   6.490
    1MOL    C25  295   2.261   2.450   6.449
    1MOL    H41  296   2.355   2.498   6.422
    1MOL    O21  297   2.179   2.456   6.334
    1MOL    C26  298   2.050   2.391   6.349
    1MOL    H42  299   2.068   2.287   6.378
    1MOL    C27  300   1.979   2.393   6.213
    1MOL    H43  301   1.922   2.301   6.200
    1MOL    H44  302   2.058   2.394   6.136
    1MOL    O22  303   1.896   2.507   6.192
    1MOL    H45  304   1.805   2.476   6.210
    1MOL    C28  305   2.193   2.522   6.567
    1MOL    H46  306   2.181   2.628   6.542
    1MOL    O23  307   2.270   2.518   6.686
    1MOL    H47  308   2.308   2.428   6.696
    1MOL    C29  309   2.054   2.461   6.590
    1MOL    H48  310   2.067   2.357   6.623
    1MOL    O24  311   1.982   2.535   6.689
    1MOL    H49  312   2.045   2.548   6.763
    1MOL    C30  313   1.973   2.462   6.462
    1MOL    H50  314   1.951   2.565   6.431
    1MOL    O25  315   1.851   2.393   6.491
    1MOL    C31  316   1.728   2.452   6.457
    1MOL    H51  317   1.741   2.558   6.432
    1MOL    O26  318   1.671   2.392   6.341
    1MOL    C32  319   1.650   2.249   6.351
    1MOL    H52  320   1.746   2.200   6.372
    1MOL    C33  321   1.600   2.201   6.214
    1MOL    H53  322   1.546   2.284   6.168
    1MOL    H54  323   1.531   2.118   6.228
    1MOL    O27  324   1.707   2.164   6.129
    1MOL    H55  325   1.712   2.066   6.129
    1MOL    C34  326   1.634   2.434   6.577
    1MOL    H56  327   1.539   2.485   6.554
    1MOL    O28  328   1.684   2.493   6.695
    1MOL    H57  329   1.782   2.485   6.696
    1MOL    C35  330   1.607   2.285   6.597
    1MOL    H58  331   1.702   2.237   6.624
    1MOL    O29  332   1.511   2.264   6.700
    1MOL    H59  333   1.538   2.321   6.774
    1MOL    C36  334   1.556   2.219   6.469
    1MOL    H60  335   1.453   2.254   6.448
    1MOL    O30  336   1.556   2.079   6.498
    1MOL     C1  337   2.553   1.997   7.438
    1MOL     H1  338   2.642   2.057   7.459
    1MOL     O1  339   2.527   1.924   7.556
    1MOL     C2  340   2.406   1.845   7.550
    1MOL     H2  341   2.321   1.909   7.525
    1MOL     C3  342   2.382   1.789   7.691
    1MOL     H3  343   2.478   1.786   7.744
    1MOL     H4  344   2.342   1.687   7.686
    1MOL     O2  345   2.293   1.871   7.766
    1MOL     H5  346   2.206   1.827   7.765
    1MOL     C4  347   2.575   1.901   7.320
    1MOL     H6  348   2.664   1.841   7.341
    1MOL     O3  349   2.600   1.969   7.198
    1MOL     H7  350   2.546   2.051   7.197
    1MOL     C5  351   2.454   1.809   7.307
    1MOL     H8  352   2.367   1.870   7.278
    1MOL     O4  353   2.476   1.708   7.208
    1MOL     H9  354   2.511   1.754   7.130
    1MOL     C6  355   2.420   1.740   7.438
    1MOL    H10  356   2.497   1.666   7.463
    1MOL     O5  357   2.294   1.675   7.416
    1MOL     C7  358   2.274   1.542   7.456
    1MOL    H11  359   2.369   1.493   7.481
    1MOL     O6  360   2.195   1.533   7.573
    1MOL     C8  361   2.066   1.598   7.562
    1MOL    H12  362   2.080   1.703   7.534
    1MOL     C9  363   2.003   1.593   7.699
    1MOL    H13  364   2.019   1.494   7.743
    1MOL    H14  365   1.895   1.612   7.691
    1MOL     O7  366   2.065   1.694   7.780
    1MOL    H15  367   2.042   1.679   7.872
    1MOL    C10  368   2.204   1.471   7.339
    1MOL    H16  369   2.193   1.365   7.365
    1MOL     O8  370   2.277   1.477   7.218
    1MOL    H17  371   2.323   1.563   7.213
    1MOL    C11  372   2.064   1.531   7.321
    1MOL    H18  373   2.075   1.635   7.290
    1MOL     O9  374   1.991   1.458   7.222
    1MOL    H19  375   2.052   1.448   7.147
    1MOL    C12  376   1.983   1.530   7.451
    1MOL    H20  377   1.960   1.426   7.479
    1MOL    O10  378   1.864   1.603   7.427
    1MOL    C13  379   1.736   1.543   7.446
    1MOL    H21  380   1.748   1.436   7.466
    1MOL    O11  381   1.670   1.597   7.558
    1MOL    C14  382   1.644   1.738   7.553
    1MOL    H22  383   1.740   1.793   7.554
    1MOL    C15  384   1.567   1.775   7.679
    1MOL    H23  385   1.563   1.885   7.685
    1MOL    H24  386   1.623   1.737   7.766
    1MOL    O12  387   1.437   1.719   7.672
    1MOL    H25  388   1.383   1.761   7.740
    1MOL    C16  389   1.654   1.567   7.319
    1MOL    H26  390   1.556   1.520   7.334
    1MOL    O13  391   1.709   1.509   7.202
    1MOL    H27  392   1.807   1.512   7.207
    1MOL    C17  393   1.634   1.717   7.301
    1MOL    H28  394   1.732   1.764   7.287
    1MOL    O14  395   1.551   1.744   7.188
    1MOL    H29  396   1.584   1.687   7.117
    1MOL    C18  397   1.568   1.778   7.424
    1MOL    H30  398   1.464   1.744   7.431
    1MOL    O15  399   1.574   1.920   7.408
    1MOL    C19  400   1.458   1.999   7.424
    1MOL    H31  401   1.369   1.936   7.438
    1MOL    O16  402   1.466   2.080   7.540
    1MOL    C20  403   1.581   2.167   7.544
    1MOL    H32  404   1.672   2.106   7.546
    1MOL    C21  405   1.574   2.246   7.674
    1MOL    H33  406   1.671   2.295   7.689
    1MOL    H34  407   1.557   2.175   7.756
    1MOL    O17  408   1.468   2.341   7.665
    1MOL    H35  409   1.476   2.400   7.742
    1MOL    C22  410   1.446   2.087   7.299
    1MOL    H36  411   1.357   2.150   7.309
    1MOL    O18  412   1.431   2.013   7.179
    1MOL    H37  413   1.488   1.934   7.182
    1MOL    C23  414   1.569   2.178   7.291
    1MOL    H38  415   1.658   2.115   7.277
    1MOL    O19  416   1.558   2.270   7.183
    1MOL    H39  417   1.529   2.218   7.107
    1MOL    C24  418   1.588   2.258   7.419
    1MOL    H40  419   1.511   2.335   7.426
    1MOL    O20  420   1.718   2.317   7.410
    1MOL    C25  421   1.740   2.450   7.451
    1MOL    H41  422   1.645   2.498   7.478
    1MOL    O21  423   1.821   2.456   7.566
    1MOL    C26  424   1.950   2.391   7.551
    1MOL    H42  425   1.932   2.287   7.522
    1MOL    C27  426   2.021   2.393   7.687
    1MOL    H43  427   2.078   2.301   7.700
    1MOL    H44  428   1.943   2.394   7.764
    1MOL    O22  429   2.104   2.507   7.708
    1MOL    H45  430   2.195   2.476   7.690
    1MOL    C28  431   1.807   2.522   7.332
    1MOL    H46  432   1.819   2.628   7.358
    1MOL    O23  433   1.730   2.518   7.214
    1MOL    H47  434   1.692   2.428   7.204
    1MOL    C29  435   1.946   2.461   7.310
    1MOL    H48  436   1.934   2.357   7.277
    1MOL    O24  437   2.018   2.535   7.210
    1MOL    H49  438   1.955   2.548   7.137
    1MOL    C30  439   2.027   2.462   7.438
    1MOL    H50  440   2.049   2.565   7.469
    1MOL    O25  441   2.149   2.393   7.409
    1MOL    C31  442   2.272   2.452   7.443
    1MOL    H51  443   2.259   2.558   7.468
    1MOL    O26  444   2.329   2.392   7.559
    1MOL    C32  445   2.350   2.249   7.549
    1MOL    H52  446   2.254   2.200   7.528
    1MOL    C33  447   2.400   2.201   7.686
    1MOL    H53  448   2.455   2.284   7.732
    1MOL    H54  449   2.470   2.118   7.672
    1MOL    O27  450   2.293   2.164   7.771
    1MOL    H55  451   2.288   2.066   7.770
    1MOL    C34  452   2.366   2.434   7.323
    1MOL    H56  453   2.461   2.485   7.346
    1MOL    O28  454   2.316   2.493   7.205
    1MOL    H57  455   2.218   2.485   7.204
    1MOL    C35  456   2.394   2.285   7.303
    1MOL    H58  457   2.299   2.237   7.276
    1MOL    O29  458   2.490   2.264   7.200
    1MOL    H59  459   2.462   2.321   7.126
    1MOL    C36  460   2.444   2.219   7.430
    1MOL    H60  461   2.547   2.254   7.452
    1MOL    O30  462   2.445   2.079   7.402
    2SOL     OW  463   0.230   0.628   0.113
    2SOL    HW1  464   0.137   0.626   0.150
    2SOL    HW2  465   0.231   0.589   0.021
    3SOL     OW  466   0.225   0.275   0.996
    3SOL    HW1  467   0.260   0.258   1.088
    3SOL    HW2  468   0.137   0.230   0.984
    4SOL     OW  469   0.019   0.368   0.647
    4SOL    HW1  470  -0.063   0.411   0.686
    4SOL    HW2  471  -0.009   0.295   0.584
    5SOL     OW  472   0.569   1.275   1.165
    5SOL    HW1  473   0.476   1.268   1.128
    5SOL    HW2  474   0.580   1.364   1.209
    6SOL     OW  475   1.555   1.511   0.703
    6SOL    HW1  476   1.498   1.495   0.784
    6SOL    HW2  477   1.496   1.521   0.623
    7SOL     OW  478   1.135   0.703   0.717
    7SOL    HW1  479   1.192   0.781   0.692
    7SOL    HW2  480   1.075   0.729   0.793
    8SOL     OW  481   1.755   0.607   0.231
    8SOL    HW1  482   1.743   0.594   0.132
    8SOL    HW2  483   1.725   0.526   0.280
    9SOL     OW  484   0.768   1.144   1.023
    9SOL    HW1  485   0.690   1.161   1.083
    9SOL    HW2  486   0.802   1.231   0.987
   10SOL     OW  487   0.850   0.798   1.823
   10SOL    HW1  488   0.846   0.874   1.888
   10SOL    HW2  489   0.872   0.834   1.732
   11SOL     OW  490   0.685   1.012   0.665
   11SOL    HW1  491   0.754   0.996   0.735
   11SOL    HW2  492   0.612   1.069   0.703
   12SOL     OW  493   0.686   1.161   1.803
   12SOL    HW1  494   0.746   1.240   1.817
   12SOL    HW2  495   0.600   1.192   1.762
   13SOL     OW  496   0.335   1.435   1.061
   13SOL    HW1  497   0.257   1.404   1.008
   13SOL    HW2  498   0.393   1.493   1.004
   14SOL     OW  499   1.460   1.505   1.339
   14SOL    HW1  500   1.484   1.599   1.365
   14SOL    HW2  501   1.444   1.451   1.421
   15SOL     OW  502   0.438   0.392   1.499
   15SOL    HW1  503   0.520   0.336   1.508
   15SOL    HW2  504   0.357   0.334   1.503
   16SOL     OW  505   1.603   0.447   0.737
   16SOL    HW1  506   1.529   0.493   0.687
   16SOL    HW2  507   1.654   0.515   0.790
   17SOL     OW  508   0.231   1.713   0.483
   17SOL    HW1  509   0.265   1.790   0.537
   17SOL    HW2  510   0.275   1.713   0.393
   18SOL     OW  511   1.127   1.341   1.690
   18SOL    HW1  512   1.174   1.341   1.778
   18SOL    HW2  513   1.079   1.254   1.679
   19SOL     OW  514   0.230   1.434   0.538
   19SOL    HW1  515   0.204   1.530   0.538
   19SOL    HW2  516   0.159   1.380   0.583
   20SOL     OW  517   0.240   1.091   0.886
   20SOL    HW1  518   0.254   1.007   0.938
   20SOL    HW2  519   0.185   1.155   0.941
   21SOL     OW  520   0.620   1.786   1.439
   21SOL    HW1  521   0.528   1.769   1.474
   21SOL    HW2  522   0.648   1.878   1.465
   22SOL     OW  523   0.606   0.964   0.123
   22SOL    HW1  524   0.613   1.048   0.069
   22SOL    HW2  525   0.652   0.977   0.211
   23SOL     OW  526   1.594   0.114   1.480
   23SOL    HW1  527   1.576   0.181   1.408
   23SOL    HW2  528   1.591   0.160   1.569
   24SOL     OW  529   0.122   0.643   0.563
   24SOL    HW1  530   0.077   0.555   0.580
   24SOL    HW2  531   0.121   0.697   0.647
   25SOL     OW  532   0.027   1.596   0.117
   25SOL    HW1  533   0.008   1.500   0.138
   25SOL    HW2  534  -0.006   1.654   0.192
   26SOL     OW  535   1.689   0.922   0.612
   26SOL    HW1  536   1.784   0.893   0.620
   26SOL    HW2  537   1.681   0.987   0.537
   27SOL     OW  538   1.641   1.108   0.432
   27SOL    HW1  539   1.727   1.110   0.380
   27SOL    HW2  540   1.655   1.155   0.520
   28SOL     OW  541   0.113   0.737   1.597
   28SOL    HW1  542   0.201   0.724   1.642
   28SOL    HW2  543   0.100   0.834   1.575
   29SOL     OW  544   0.613   1.365   0.726
   29SOL    HW1  545   0.564   1.278   0.735
   29SOL    HW2  546   0.590   1.408   0.639
   30SOL     OW  547   1.293   1.228   1.423
   30SOL    HW1  548   1.330   1.155   1.365
   30SOL    HW2  549   1.345   1.233   1.508
   31SOL     OW  550   0.809   0.004   0.502
   31SOL    HW1  551   0.849   0.095   0.493
   31SOL    HW2  552   0.709   0.012   0.508
   32SOL     OW  553   0.197   0.976   1.264
   32SOL    HW1  554   0.286   0.931   1.250
   32SOL    HW2  555   0.124   0.911   1.245
   33SOL     OW  556   1.525   0.999   0.190
   33SOL    HW1  557   1.462   0.923   0.203
   33SOL    HW2  558   1.573   1.017   0.276
   34SOL     OW  559   1.187   1.792   1.616
   34SOL    HW1  560   1.211   1.852   1.540
   34SOL    HW2  561   1.194   1.697   1.586
   35SOL     OW  562   0.317   0.251   1.801
   35SOL    HW1  563   0.388   0.322   1.807
   35SOL    HW2  564   0.229   0.290   1.829
   36SOL     OW  565   1.466   1.417   0.953
   36SOL    HW1  566   1.407   1.423   1.033
   36SOL    HW2  567   1.451   1.329   0.907
   37SOL     OW  568   1.667   1.714   0.572
   37SOL    HW1  569   1.626   1.691   0.484
   37SOL    HW2  570   1.649   1.640   0.637
   38SOL     OW  571   0.598   0.729   0.270
   38SOL    HW1  572   0.622   0.798   0.202
   38SOL    HW2  573   0.520   0.762   0.324
   39SOL     OW  574   1.281   0.345   0.944
   39SOL    HW1  575   1.195   0.295   0.931
   39SOL    HW2  576   1.343   0.291   1.000
   40SOL     OW  577   1.576   1.662   0.307
   40SOL    HW1  578   1.665   1.708   0.310
   40SOL    HW2  579   1.555   1.638   0.212
   41SOL     OW  580   0.807   0.605   1.465
   41SOL    HW1  581   0.760   0.602   1.554
   41SOL    HW2  582   0.756   0.550   1.399
   42SOL     OW  583   1.394   0.469   1.674
   42SOL    HW1  584   1.374   0.512   1.762
   42SOL    HW2  585   1.472   0.407   1.683
   43SOL     OW  586   0.973   0.890   1.572
   43SOL    HW1  587   1.019   0.806   1.543
   43SOL    HW2  588   0.917   0.924   1.497
   44SOL     OW  589   0.991   0.410   1.242
   44SOL    HW1  590   0.914   0.444   1.296
   44SOL    HW2  591   0.957   0.359   1.163
   45SOL     OW  592   1.041   0.701   0.429
   45SOL    HW1  593   1.067   0.697   0.525
   45SOL    HW2  594   0.956   0.650   0.415
   46SOL     OW  595   0.076   0.811   0.789
   46SOL    HW1  596   0.175   0.799   0.798
   46SOL    HW2  597   0.052   0.906   0.810
   47SOL     OW  598   0.130   1.821   1.571
   47SOL    HW1  599   0.120   1.806   1.670
   47SOL    HW2  600   0.044   1.857   1.535
   48SOL     OW  601   0.865   0.348   0.195
   48SOL    HW1  602   0.924   0.411   0.146
   48SOL    HW2  603   0.884   0.254   0.166
   49SOL     OW  604   1.719   0.585   1.831
   49SOL    HW1  605   1.693   0.674   1.795
   49SOL    HW2  606   1.717   0.517   1.758
   50SOL     OW  607   1.362   1.144   0.545
   50SOL    HW1  608   1.445   1.115   0.497
   50SOL    HW2  609   1.313   1.211   0.489
   51SOL     OW  610   0.550   0.196   0.885
   51SOL    HW1  611   0.545   0.191   0.985
   51SOL    HW2  612   0.552   0.292   0.856
   52SOL     OW  613   1.008   1.456   0.477
   52SOL    HW1  614   0.962   1.528   0.425
   52SOL    HW2  615   1.004   1.476   0.575
   53SOL     OW  616   0.351   1.801   0.853
   53SOL    HW1  617   0.401   1.715   0.859
   53SOL    HW2  618   0.416   1.878   0.850
   54SOL     OW  619   1.795   1.066   0.873
   54SOL    HW1  620   1.733   1.051   0.797
   54SOL    HW2  621   1.743   1.077   0.958
   55SOL     OW  622   1.227   1.550   1.506
   55SOL    HW1  623   1.233   1.473   1.570
   55SOL    HW2  624   1.175   1.524   1.426
   56SOL     OW  625   0.321   0.943   0.242
   56SOL    HW1  626   0.403   0.982   0.200
   56SOL    HW2  627   0.294   0.861   0.193
   57SOL     OW  628   1.458   0.735   0.728
   57SOL    HW1  629   1.453   0.670   0.803
   57SOL    HW2  630   1.538   0.794   0.741
   58SOL     OW  631   0.461   1.266   1.727
   58SOL    HW1  632   0.411   1.267   1.641
   58SOL    HW2  633   0.398   1.248   1.803
   59SOL     OW  634   1.111   1.776   0.237
   59SOL    HW1  635   1.051   1.714   0.287
   59SOL    HW2  636   1.142   1.732   0.152
   60SOL     OW  637   0.202   0.285   1.498
   60SOL    HW1  638   0.122   0.345   1.485
   60SOL    HW2  639   0.192   0.236   1.584
   61SOL     OW  640   1.632   1.377   0.081
   61SOL    HW1  641   1.600   1.471   0.071
   61SOL    HW2  642   1.556   1.314   0.069
   62SOL     OW  643   0.464   1.743   0.323
   62SOL    HW1  644   0.497   1.782   0.409
   62SOL    HW2  645   0.540   1.736   0.258
   63SOL     OW  646   1.400   0.107   0.426
   63SOL    HW1  647   1.376   0.070   0.336
   63SOL    HW2  648   1.499   0.123   0.430
   64SOL     OW  649   0.249   1.785   1.241
   64SOL    HW1  650   0.306   1.720   1.291
   64SOL    HW2  651   0.233   1.752   1.148
   65SOL     OW  652   0.940   1.698   0.904
   65SOL    HW1  653   1.020   1.641   0.925
   65SOL    HW2  654   0.891   1.658   0.827
   66SOL     OW  655   0.382   0.700   0.480
   66SOL    HW1  656   0.427   0.610   0.477
   66SOL    HW2  657   0.288   0.689   0.513
   67SOL     OW  658   1.547   0.222   1.729
   67SOL    HW1  659   1.542   0.259   1.821
   67SOL    HW2  660   1.475   0.153   1.717
   68SOL     OW  661   0.614   0.122   0.117
   68SOL    HW1  662   0.712   0.100   0.124
   68SOL    HW2  663   0.583   0.105   0.024
   69SOL     OW  664   0.781   0.264   1.749
   69SOL    HW1  665   0.848   0.203   1.792
   69SOL    HW2  666   0.708   0.283   1.814
   70SOL     OW  667   0.888   1.514   1.195
   70SOL    HW1  668   0.865   1.489   1.101
   70SOL    HW2  669   0.949   1.445   1.234
   71SOL     OW  670   1.351   0.590   1.433
   71SOL    HW1  671   1.379   0.547   1.518
   71SOL    HW2  672   1.376   0.686   1.434
   72SOL     OW  673   0.803   1.402   0.924
   72SOL    HW1  674   0.893   1.416   0.882
   72SOL    HW2  675   0.732   1.404   0.853
   73SOL     OW  676   0.922   0.503   0.899
   73SOL    HW1  677   0.897   0.494   0.803
   73SOL    HW2  678   0.970   0.421   0.930
   74SOL     OW  679   0.539   0.064   0.512
   74SOL    HW1  680   0.458   0.065   0.570
   74SOL    HW2  681   0.542   0.147   0.457
   75SOL     OW  682   1.434   1.188   0.041
   75SOL    HW1  683   1.466   1.112   0.098
   75SOL    HW2  684   1.342   1.215   0.071
   76SOL     OW  685   0.297   0.035   0.171
   76SOL    HW1  686   0.346   0.119   0.150
   76SOL    HW2  687   0.359  -0.030   0.216
   77SOL     OW  688   0.935   0.236   0.480
   77SOL    HW1  689   0.887   0.277   0.402
   77SOL    HW2  690   1.034   0.234   0.461
   78SOL     OW  691   1.076   0.683   1.464
   78SOL    HW1  692   0.996   0.622   1.467
   78SOL    HW2  693   1.157   0.630   1.440
   79SOL     OW  694   1.227   1.570   0.793
   79SOL    HW1  695   1.248   1.644   0.728
   79SOL    HW2  696   1.295   1.570   0.866
   80SOL     OW  697   0.459   1.152   0.741
   80SOL    HW1  698   0.388   1.125   0.806
   80SOL    HW2  699   0.433   1.124   0.648
   81SOL     OW  700   1.271   1.797   0.591
   81SOL    HW1  701   1.315   1.861   0.527
   81SOL    HW2  702   1.221   1.849   0.661
   82SOL     OW  703   1.032   0.549   0.016
   82SOL    HW1  704   0.991   0.631  -0.023
   82SOL    HW2  705   1.096   0.575   0.089
   83SOL     OW  706   0.078   0.556   1.386
   83SOL    HW1  707   0.170   0.555   1.345
   83SOL    HW2  708   0.072   0.630   1.453
   84SOL     OW  709   0.561   0.222   1.147
   84SOL    HW1  710   0.599   0.138   1.184
   84SOL    HW2  711   0.473   0.241   1.191
   85SOL     OW  712   0.866   0.454   0.642
   85SOL    HW1  713   0.834   0.526   0.580
   85SOL    HW2  714   0.890   0.373   0.589
   86SOL     OW  715   1.017   0.039   0.753
   86SOL    HW1  716   0.945   0.044   0.684
   86SOL    HW2  717   0.993  -0.030   0.822
   87SOL     OW  718   1.429   1.173   0.867
   87SOL    HW1  719   1.374   1.089   0.860
   87SOL    HW2  720   1.455   1.202   0.775
   88SOL     OW  721   1.466   0.590   0.992
   88SOL    HW1  722   1.436   0.495   0.999
   88SOL    HW2  723   1.539   0.606   1.058
   89SOL     OW  724   1.857   0.833   0.377
   89SOL    HW1  725   1.899   0.769   0.441
   89SOL    HW2  726   1.819   0.782   0.299
   90SOL     OW  727   0.488   1.385   0.174
   90SOL    HW1  728   0.401   1.370   0.221
   90SOL    HW2  729   0.471   1.411   0.079
   91SOL     OW  730   1.664   1.280   0.657
   91SOL    HW1  731   1.763   1.288   0.671
   91SOL    HW2  732   1.619   1.364   0.688
   92SOL     OW  733   1.390   0.575   0.078
   92SOL    HW1  734   1.336   0.554   0.159
   92SOL    HW2  735   1.481   0.534   0.087
   93SOL     OW  736   0.527   0.256   0.328
   93SOL    HW1  737   0.554   0.197   0.253
   93SOL    HW2  738   0.527   0.351   0.297
   94SOL     OW  739   1.754   1.223   1.588
   94SOL    HW1  740   1.845   1.184   1.575
   94SOL    HW2  741   1.762   1.319   1.612
   95SOL     OW  742   1.064   1.347   1.340
   95SOL    HW1  743   0.984   1.324   1.395
   95SOL    HW2  744   1.147   1.321   1.389
   96SOL     OW  745   1.592   1.629   1.625
   96SOL    HW1  746   1.619   1.663   1.535
   96SOL    HW2  747   1.671   1.591   1.671
   97SOL     OW  748   1.111   1.195   1.100
   97SOL    HW1  749   1.071   1.239   1.181
   97SOL    HW2  750   1.070   1.232   1.017
   98SOL     OW  751   1.638   1.099   1.079
   98SOL    HW1  752   1.643   1.180   1.138
   98SOL    HW2  753   1.552   1.101   1.028
   99SOL     OW  754   0.915   0.089   1.402
   99SOL    HW1  755   0.940   0.069   1.307
   99SOL    HW2  756   0.987   0.145   1.444
  100SOL     OW  757   0.980   1.116   1.719
  100SOL    HW1  758   0.881   1.122   1.729
  100SOL    HW2  759   1.003   1.036   1.663
  101SOL     OW  760   0.705   1.050   0.368
  101SOL    HW1  761   0.691   1.057   0.467
  101SOL    HW2  762   0.789   0.999   0.350
  102SOL     OW  763   0.410   0.813   1.251
  102SOL    HW1  764   0.496   0.825   1.301
  102SOL    HW2  765   0.368   0.726   1.278
  103SOL     OW  766   1.274   0.386   1.262
  103SOL    HW1  767   1.295   0.460   1.326
  103SOL    HW2  768   1.185   0.403   1.219
  104SOL     OW  769   0.064   1.564   1.331
  104SOL    HW1  770   0.018   1.646   1.297
  104SOL    HW2  771   0.162   1.583   1.340
  105SOL     OW  772   0.367   1.100   0.501
  105SOL    HW1  773   0.360   1.183   0.445
  105SOL    HW2  774   0.371   1.020   0.441
  106SOL     OW  775   0.566   0.537   0.865
  106SOL    HW1  776   0.578   0.603   0.791
  106SOL    HW2  777   0.612   0.571   0.948
  107SOL     OW  778   1.252   1.348   0.388
  107SOL    HW1  779   1.302   1.425   0.428
  107SOL    HW2  780   1.157   1.350   0.420
  108SOL     OW  781   1.272   1.445   1.142
  108SOL    HW1  782   1.319   1.458   1.229
  108SOL    HW2  783   1.206   1.371   1.151
  109SOL     OW  784   1.582   0.639   0.472
  109SOL    HW1  785   1.551   0.700   0.545
  109SOL    HW2  786   1.632   0.691   0.403
  110SOL     OW  787   0.354   1.510   1.329
  110SOL    HW1  788   0.333   1.466   1.242
  110SOL    HW2  789   0.451   1.536   1.332
  111SOL     OW  790   0.402   0.751   1.598
  111SOL    HW1  791   0.470   0.806   1.551
  111SOL    HW2  792   0.442   0.663   1.625
  112SOL     OW  793   1.587   0.779   1.670
  112SOL    HW1  794   1.495   0.817   1.665
  112SOL    HW2  795   1.647   0.826   1.605
  113SOL     OW  796   1.013   0.105   1.770
  113SOL    HW1  797   1.019   0.190   1.718
  113SOL    HW2  798   1.045   0.029   1.713
  114SOL     OW  799   0.504   0.050   1.740
  114SOL    HW1  800   0.462  -0.007   1.670
  114SOL    HW2  801   0.438   0.119   1.772
  115SOL     OW  802   0.573   0.870   1.029
  115SOL    HW1  803   0.617   0.959   1.020
  115SOL    HW2  804   0.510   0.870   1.106
  116SOL     OW  805   1.360   0.862   1.045
  116SOL    HW1  806   1.285   0.862   0.979
  116SOL    HW2  807   1.397   0.770   1.054
  117SOL     OW  808   1.209   0.525   0.275
  117SOL    HW1  809   1.222   0.441   0.329
  117SOL    HW2  810   1.180   0.599   0.335
  118SOL     OW  811   0.307   0.213   1.231
  118SOL    HW1  812   0.284   0.250   1.321
  118SOL    HW2  813   0.277   0.118   1.225
  119SOL     OW  814   0.037   1.310   1.282
  119SOL    HW1  815   0.090   1.261   1.350
  119SOL    HW2  816   0.059   1.408   1.287
  120SOL     OW  817   0.732   0.634   1.064
  120SOL    HW1  818   0.791   0.608   0.988
  120SOL    HW2  819   0.704   0.730   1.053
  121SOL     OW  820   1.728   0.935   1.854
  121SOL    HW1  821   1.682   0.928   1.765
  121SOL    HW2  822   1.666   0.979   1.920
  122SOL     OW  823   0.307   0.063   0.618
  122SOL    HW1  824   0.296   0.157   0.651
  122SOL    HW2  825   0.302   0.000   0.695
  123SOL     OW  826   1.622   0.367   0.374
  123SOL    HW1  827   1.624   0.291   0.438
  123SOL    HW2  828   1.574   0.444   0.414
  124SOL     OW  829   1.023   0.766   0.966
  124SOL    HW1  830   1.038   0.787   1.062
  124SOL    HW2  831   0.993   0.671   0.957
  125SOL     OW  832   0.980   1.573   1.700
  125SOL    HW1  833   0.960   1.617   1.612
  125SOL    HW2  834   1.019   1.482   1.684
  126SOL     OW  835   1.859   1.518   1.605
  126SOL    HW1  836   1.873   1.545   1.510
  126SOL    HW2  837   1.942   1.540   1.658
  127SOL     OW  838   0.350   0.898   1.804
  127SOL    HW1  839   0.426   0.942   1.852
  127SOL    HW2  840   0.385   0.851   1.722
  128SOL     OW  841   1.540   0.274   0.125
  128SOL    HW1  842   1.479   0.199   0.148
  128SOL    HW2  843   1.562   0.326   0.208
  129SOL     OW  844   1.303   0.838   0.042
  129SOL    HW1  845   1.337   0.745   0.057
  129SOL    HW2  846   1.321   0.865  -0.053
  130SOL     OW  847   1.068   1.333   0.849
  130SOL    HW1  848   1.075   1.249   0.794
  130SOL    HW2  849   1.130   1.402   0.813
  131SOL     OW  850   0.319   0.810   0.949
  131SOL    HW1  851   0.412   0.846   0.954
  131SOL    HW2  852   0.313   0.725   1.001
  132SOL     OW  853   0.339   0.509   1.006
  132SOL    HW1  854   0.287   0.426   0.989
  132SOL    HW2  855   0.416   0.514   0.942
  133SOL     OW  856   1.138   0.380   1.678
  133SOL    HW1  857   1.093   0.443   1.742
  133SOL    HW2  858   1.231   0.411   1.661
  134SOL     OW  859   1.160   0.207   1.477
  134SOL    HW1  860   1.160   0.271   1.554
  134SOL    HW2  861   1.188   0.255   1.394
  135SOL     OW  862   0.008   1.326   0.200
  135SOL    HW1  863  -0.085   1.347   0.169
  135SOL    HW2  864   0.018   1.227   0.213
  136SOL     OW  865   0.088   1.801   0.927
  136SOL    HW1  866   0.046   1.715   0.900
  136SOL    HW2  867   0.182   1.804   0.893
  137SOL     OW  868   0.504   1.568   0.910
  137SOL    HW1  869   0.570   1.642   0.919
  137SOL    HW2  870   0.548   1.489   0.868
  138SOL     OW  871   1.002   0.796   1.238
  138SOL    HW1  872   1.043   0.764   1.324
  138SOL    HW2  873   0.906   0.769   1.235
  139SOL     OW  874   0.040   0.544   1.114
  139SOL    HW1  875   0.125   0.511   1.073
  139SOL    HW2  876   0.053   0.559   1.212
  140SOL     OW  877   0.189   0.520   1.722
  140SOL    HW1  878   0.248   0.480   1.652
  140SOL    HW2  879   0.131   0.591   1.681
  141SOL     OW  880   1.369   0.950   1.660
  141SOL    HW1  881   1.408   1.039   1.680
  141SOL    HW2  882   1.379   0.930   1.563
  142SOL     OW  883   0.815   0.572   0.325
  142SOL    HW1  884   0.822   0.483   0.279
  142SOL    HW2  885   0.721   0.606   0.317
  143SOL     OW  886   1.657   0.604   1.206
  143SOL    HW1  887   1.619   0.535   1.268
  143SOL    HW2  888   1.739   0.568   1.162
  144SOL     OW  889   0.252   1.564   1.744
  144SOL    HW1  890   0.222   1.621   1.820
  144SOL    HW2  891   0.245   1.467   1.770
  145SOL     OW  892   0.671   0.464   1.269
  145SOL    HW1  893   0.637   0.375   1.239
  145SOL    HW2  894   0.697   0.518   1.189
  146SOL     OW  895   0.930   1.678   1.465
  146SOL    HW1  896   0.906   1.660   1.370
  146SOL    HW2  897   0.960   1.772   1.475
  147SOL     OW  898   0.473   0.500   0.191
  147SOL    HW1  899   0.534   0.580   0.195
  147SOL    HW2  900   0.378   0.531   0.198
  148SOL     OW  901   0.159   1.137   1.466
  148SOL    HW1  902   0.181   1.076   1.542
  148SOL    HW2  903   0.169   1.088   1.380
  149SOL     OW  904   1.347   1.059   1.234
  149SOL    HW1  905   1.371   0.996   1.160
  149SOL    HW2  906   1.257   1.099   1.216
  150SOL     OW  907   1.302   0.855   0.309
  150SOL    HW1  908   1.216   0.824   0.351
  150SOL    HW2  909   1.298   0.841   0.210
  151SOL     OW  910   1.759   1.747   1.154
  151SOL    HW1  911   1.820   1.777   1.081
  151SOL    HW2  912   1.721   1.658   1.132
  152SOL     OW  913   1.252   1.731   1.128
  152SOL    HW1  914   1.336   1.736   1.074
  152SOL    HW2  915   1.229   1.635   1.146
  153SOL     OW  916   0.083   1.258   1.022
  153SOL    HW1  917   0.078   1.257   1.122
  153SOL    HW2  918   0.000   1.217   0.984
  154SOL     OW  919   0.688   1.662   1.716
  154SOL    HW1  920   0.632   1.743   1.725
  154SOL    HW2  921   0.740   1.666   1.630
  155SOL     OW  922   0.903   0.086   0.133
  155SOL    HW1  923   0.954   0.087   0.047
  155SOL    HW2  924   0.959   0.044   0.204
  156SOL     OW  925   1.726   0.135   0.523
  156SOL    HW1  926   1.799   0.118   0.456
  156SOL    HW2  927   1.695   0.048   0.561
  157SOL     OW  928   1.388   1.573   0.477
  157SOL    HW1  929   1.455   1.585   0.403
  157SOL    HW2  930   1.348   1.662   0.500
  158SOL     OW  931   0.130   1.794   1.851
  158SOL    HW1  932   0.089   1.720   1.904
  158SOL    HW2  933   0.194   1.845   1.909
  159SOL     OW  934   1.280   0.927   0.672
  159SOL    HW1  935   1.340   0.846   0.674
  159SOL    HW2  936   1.320   0.996   0.612
  160SOL     OW  937   0.830   1.273   1.422
  160SOL    HW1  938   0.825   1.306   1.517
  160SOL    HW2  939   0.744   1.292   1.376
  161SOL     OW  940   0.672   1.616   0.154
  161SOL    HW1  941   0.681   1.626   0.055
  161SOL    HW2  942   0.632   1.527   0.175
  162SOL     OW  943   1.650   1.720   1.394
  162SOL    HW1  944   1.703   1.730   1.310
  162SOL    HW2  945   1.623   1.810   1.428
  163SOL     OW  946   1.841   0.175   0.963
  163SOL    HW1  947   1.880   0.090   0.927
  163SOL    HW2  948   1.743   0.177   0.944
  164SOL     OW  949   0.263   0.326   0.720
  164SOL    HW1  950   0.184   0.377   0.686
  164SOL    HW2  951   0.254   0.311   0.818
  165SOL     OW  952   1.194   1.612   0.031
  165SOL    HW1  953   1.200   1.519   0.068
  165SOL    HW2  954   1.135   1.612  -0.049
  166SOL     OW  955   0.822   1.002   1.372
  166SOL    HW1  956   0.862   1.001   1.280
  166SOL    HW2  957   0.832   1.094   1.412
  167SOL     OW  958   0.916   0.910   0.291
  167SOL    HW1  959   0.979   0.948   0.223
  167SOL    HW2  960   0.956   0.827   0.330
  168SOL     OW  961   1.504   1.607   0.044
  168SOL    HW1  962   1.412   1.644   0.051
  168SOL    HW2  963   1.542   1.627  -0.046
  169SOL     OW  964   0.372   1.288   1.490
  169SOL    HW1  965   0.359   1.381   1.456
  169SOL    HW2  966   0.288   1.236   1.477
  170SOL     OW  967   1.614   1.292   1.289
  170SOL    HW1  968   1.674   1.295   1.369
  170SOL    HW2  969   1.539   1.356   1.302
  171SOL     OW  970   1.039   1.098   0.696
  171SOL    HW1  971   0.969   1.051   0.750
  171SOL    HW2  972   1.098   1.030   0.653
  172SOL     OW  973   1.014   0.236   0.971
  172SOL    HW1  974   1.006   0.200   0.878
  172SOL    HW2  975   1.012   0.160   1.036
  173SOL     OW  976   0.590   1.487   0.491
  173SOL    HW1  977   0.632   1.429   0.421
  173SOL    HW2  978   0.546   1.566   0.447
  174SOL     OW  979   1.709   0.385   1.381
  174SOL    HW1  980   1.782   0.454   1.385
  174SOL    HW2  981   1.737   0.310   1.322
  175SOL     OW  982   0.255   1.348   0.290
  175SOL    HW1  983   0.159   1.349   0.263
  175SOL    HW2  984   0.267   1.401   0.374
  176SOL     OW  985   0.105   1.013   1.726
  176SOL    HW1  986   0.028   0.980   1.780
  176SOL    HW2  987   0.190   0.983   1.768
  177SOL     OW  988   0.672   0.203   1.489
  177SOL    HW1  989   0.762   0.187   1.449
  177SOL    HW2  990   0.680   0.208   1.588
  178SOL     OW  991   0.075   0.345   0.033
  178SOL    HW1  992  -0.017   0.317   0.004
  178SOL    HW2  993   0.106   0.422  -0.023
  179SOL     OW  994   1.440   0.856   1.398
  179SOL    HW1  995   1.383   0.908   1.335
  179SOL    HW2  996   1.536   0.868   1.374
  180SOL     OW  997   0.072   0.166   0.318
  180SOL    HW1  998   0.055   0.249   0.264
  180SOL    HW2  999   0.162   0.129   0.296
  181SOL     OW 1000   1.183   1.335   0.119
  181SOL    HW1 1001   1.084   1.324   0.121
  181SOL    HW2 1002   1.217   1.350   0.212
  182SOL     OW 1003   0.613   0.842   1.431
  182SOL    HW1 1004   0.669   0.923   1.414
  182SOL    HW2 1005   0.672   0.762   1.434
  183SOL     OW 1006   1.493   1.767   0.959
  183SOL    HW1 1007   1.526   1.831   0.890
  183SOL    HW2 1008   1.559   1.761   1.034
  184SOL     OW 1009   0.716   0.565   1.708
  184SOL    HW1 1010   0.735   0.630   1.782
  184SOL    HW2 1011   0.776   0.485   1.717
  185SOL     OW 1012   1.450   1.220   1.633
  185SOL    HW1 1013   1.441   1.210   1.732
  185SOL    HW2 1014   1.546   1.213   1.607
  186SOL     OW 1015   0.390   1.741   1.560
  186SOL    HW1 1016   0.299   1.782   1.558
  186SOL    HW2 1017   0.383   1.647   1.592
  187SOL     OW 1018   1.674   0.883   1.254
  187SOL    HW1 1019   1.647   0.794   1.217
  187SOL    HW2 1020   1.675   0.951   1.181
  188SOL     OW 1021   1.225   0.325   0.449
  188SOL    HW1 1022   1.290   0.251   0.438
  188SOL    HW2 1023   1.245   0.375   0.533
  189SOL     OW 1024   0.594   0.745   0.652
  189SOL    HW1 1025   0.644   0.830   0.633
  189SOL    HW2 1026   0.506   0.747   0.604
  190SOL     OW 1027   1.777   0.342   1.642
  190SOL    HW1 1028   1.760   0.373   1.548
  190SOL    HW2 1029   1.693   0.305   1.680
  191SOL     OW 1030   1.730   0.934   1.517
  191SOL    HW1 1031   1.768   1.025   1.532
  191SOL    HW2 1032   1.722   0.917   1.418
  192SOL     OW 1033   0.859   1.374   0.016
  192SOL    HW1 1034   0.813   1.389   0.104
  192SOL    HW2 1035   0.903   1.459  -0.014
  193SOL     OW 1036   0.661   1.790   0.953
  193SOL    HW1 1037   0.615   1.878   0.940
  193SOL    HW2 1038   0.760   1.802   0.946
  194SOL     OW 1039   0.859   0.956   0.861
  194SOL    HW1 1040   0.913   0.887   0.909
  194SOL    HW2 1041   0.827   1.025   0.927
  195SOL     OW 1042   1.083   0.984   0.087
  195SOL    HW1 1043   1.060   1.037   0.005
  195SOL    HW2 1044   1.164   0.928   0.068
  196SOL     OW 1045   1.861   1.569   0.851
  196SOL    HW1 1046   1.790   1.557   0.781
  196SOL    HW2 1047   1.862   1.490   0.911
  197SOL     OW 1048   0.221   1.314   1.844
  197SOL    HW1 1049   0.156   1.241   1.823
  197SOL    HW2 1050   0.225   1.328   1.942
  198SOL     OW 1051   0.079   1.240   0.653
  198SOL    HW1 1052   0.078   1.193   0.741
  198SOL    HW2 1053   0.161   1.212   0.602
  199SOL     OW 1054   0.672   1.391   1.624
  199SOL    HW1 1055   0.594   1.341   1.662
  199SOL    HW2 1056   0.669   1.486   1.655
  200SOL     OW 1057   1.824   0.192   1.227
  200SOL    HW1 1058   1.820   0.102   1.271
  200SOL    HW2 1059   1.827   0.181   1.128
  201SOL     OW 1060   0.428   0.424   0.520
  201SOL    HW1 1061   0.458   0.352   0.458
  201SOL    HW2 1062   0.389   0.384   0.603
  202SOL     OW 1063   1.705   1.487   1.104
  202SOL    HW1 1064   1.612   1.462   1.077
  202SOL    HW2 1065   1.731   1.437   1.186
  203SOL     OW 1066   0.317   0.547   1.280
  203SOL    HW1 1067   0.355   0.488   1.352
  203SOL    HW2 1068   0.357   0.521   1.192
  204SOL     OW 1069   0.812   1.586   0.687
  204SOL    HW1 1070   0.844   1.596   0.593
  204SOL    HW2 1071   0.733   1.524   0.689
  205SOL     OW 1072   1.424   0.214   1.112
  205SOL    HW1 1073   1.476   0.149   1.167
  205SOL    HW2 1074   1.375   0.277   1.173
  206SOL     OW 1075   1.001   0.034   1.154
  206SOL    HW1 1076   0.938  -0.038   1.123
  206SOL    HW2 1077   1.094  -0.002   1.154
  207SOL     OW 1078   0.770   1.330   0.301
  207SOL    HW1 1079   0.724   1.243   0.318
  207SOL    HW2 1080   0.861   1.327   0.342
  208SOL     OW 1081   0.618   1.567   1.284
  208SOL    HW1 1082   0.613   1.649   1.341
  208SOL    HW2 1083   0.707   1.564   1.239
  209SOL     OW 1084   1.352   0.052   0.168
  209SOL    HW1 1085   1.387   0.011   0.084
  209SOL    HW2 1086   1.262   0.014   0.188
  210SOL     OW 1087   1.300   0.453   0.691
  210SOL    HW1 1088   1.241   0.533   0.695
  210SOL    HW2 1089   1.315   0.418   0.784
  211SOL     OW 1090   1.593   0.221   0.882
  211SOL    HW1 1091   1.509   0.220   0.936
  211SOL    HW2 1092   1.595   0.304   0.826
  212SOL     OW 1093   0.039   1.077   0.300
  212SOL    HW1 1094   0.138   1.066   0.291
  212SOL    HW2 1095  -0.001   0.991   0.332
  213SOL     OW 1096   0.875   1.646   0.337
  213SOL    HW1 1097   0.798   1.611   0.283
  213SOL    HW2 1098   0.843   1.717   0.399
  214SOL     OW 1099   0.230   0.628   1.975
  214SOL    HW1 1100   0.137   0.626   2.012
  214SOL    HW2 1101   0.231   0.589   1.883
  215SOL     OW 1102   0.225   0.275   2.858
  215SOL    HW1 1103   0.260   0.258   2.950
  215SOL    HW2 1104   0.137   0.230   2.846
  216SOL     OW 1105   0.019   0.368   2.509
  216SOL    HW1 1106  -0.063   0.411   2.548
  216SOL    HW2 1107  -0.009   0.295   2.446
  217SOL     OW 1108   0.569   1.275   3.027
  217SOL    HW1 1109   0.476   1.268   2.990
  217SOL    HW2 1110   0.580   1.364   3.071
  218SOL     OW 1111   1.555   1.511   2.565
  218SOL    HW1 1112   1.498   1.495   2.646
  218SOL    HW2 1113   1.496   1.521   2.485
  219SOL     OW 1114   1.135   0.703   2.579
  219SOL    HW1 1115   1.192   0.781   2.554
  219SOL    HW2 1116   1.075   0.729   2.655
  220SOL     OW 1117   1.755   0.607   2.093
  220SOL    HW1 1118   1.743   0.594   1.994
  220SOL    HW2 1119   1.725   0.526   2.142
  221SOL     OW 1120   0.768   1.144   2.885
  221SOL    HW1 1121   0.690   1.161   2.945
  221SOL    HW2 1122   0.802   1.231   2.849
  222SOL     OW 1123   0.850   0.798   3.685
  222SOL    HW1 1124   0.846   0.874   3.750
  222SOL    HW2 1125   0.872   0.834   3.594
  223SOL     OW 1126   0.685   1.012   2.527
  223SOL    HW1 1127   0.754   0.996   2.597
  223SOL    HW2 1128   0.612   1.069   2.565
  224SOL     OW 1129   0.686   1.161   3.665
  224SOL    HW1 1130   0.746   1.240   3.679
  224SOL    HW2 1131   0.600   1.192   3.624
  225SOL     OW 1132   0.335   1.435   2.923
  225SOL    HW1 1133   0.257   1.404   2.870
  225SOL    HW2 1134   0.393   1.493   2.866
  226SOL     OW 1135   1.460   1.505   3.201
  226SOL    HW1 1136   1.484   1.599   3.227
  226SOL    HW2 1137   1.444   1.451   3.283
  227SOL     OW 1138   0.438   0.392   3.361
  227SOL    HW1 1139   0.520   0.336   3.370
  227SOL    HW2 1140   0.357   0.334   3.365
  228SOL     OW 1141   1.603   0.447   2.599
  228SOL    HW1 1142   1.529   0.493   2.549
  228SOL    HW2 1143   1.654   0.515   2.652
  229SOL     OW 1144   0.231   1.713   2.345
  229SOL    HW1 1145   0.265   1.790   2.399
  229SOL    HW2 1146   0.275   1.713   2.255
  230SOL     OW 1147   1.127   1.341   3.552
  230SOL    HW1 1148   1.174   1.341   3.640
  230SOL    HW2 1149   1.079   1.254   3.541
  231SOL     OW 1150   0.230   1.434   2.400
  231SOL    HW1 1151   0.204   1.530   2.400
  231SOL    HW2 1152   0.159   1.380   2.445
  232SOL     OW 1153   0.240   1.091   2.748
  232SOL    HW1 1154   0.254   1.007   2.800
  232SOL    HW2 1155   0.185   1.155   2.803
  233SOL     OW 1156   0.620   1.786   3.301
  233SOL    HW1 1157   0.528   1.769   3.336
  233SOL    HW2 1158   0.648   1.878   3.327
  234SOL     OW 1159   0.606   0.964   1.985
  234SOL    HW1 1160   0.613   1.048   1.931
  234SOL    HW2 1161   0.652   0.977   2.073
  235SOL     OW 1162   1.594   0.114   3.342
  235SOL    HW1 1163   1.576   0.181   3.270
  235SOL    HW2 1164   1.591   0.160   3.431
  236SOL     OW 1165   0.122   0.643   2.425
  236SOL    HW1 1166   0.077   0.555   2.442
  236SOL    HW2 1167   0.121   0.697   2.509
  237SOL     OW 1168   0.027   1.596   1.979
  237SOL    HW1 1169   0.008   1.500   2.000
  237SOL    HW2 1170  -0.006   1.654   2.054
  238SOL     OW 1171   1.689   0.922   2.474
  238SOL    HW1 1172   1.784   0.893   2.482
  238SOL    HW2 1173   1.681   0.987   2.399
  239SOL     OW 1174   1.641   1.108   2.294
  239SOL    HW1 1175   1.727   1.110   2.242
  239SOL    HW2 1176   1.655   1.155   2.382
  240SOL     OW 1177   0.113   0.737   3.459
  240SOL    HW1 1178   0.201   0.724   3.504
  240SOL    HW2 1179   0.100   0.834   3.437
  241SOL     OW 1180   0.613   1.365   2.588
  241SOL    HW1 1181   0.564   1.278   2.597
  241SOL    HW2 1182   0.590   1.408   2.501
  242SOL     OW 1183   1.293   1.228   3.285
  242SOL    HW1 1184   1.330   1.155   3.227
  242SOL    HW2 1185   1.345   1.233   3.370
  243SOL     OW 1186   0.809   0.004   2.364
  243SOL    HW1 1187   0.849   0.095   2.355
  243SOL    HW2 1188   0.709   0.012   2.370
  244SOL     OW 1189   0.197   0.976   3.126
  244SOL    HW1 1190   0.286   0.931   3.112
  244SOL    HW2 1191   0.124   0.911   3.107
  245SOL     OW 1192   1.525   0.999   2.052
  245SOL    HW1 1193   1.462   0.923   2.065
  245SOL    HW2 1194   1.573   1.017   2.138
  246SOL     OW 1195   1.187   1.792   3.478
  246SOL    HW1 1196   1.211   1.852   3.402
  246SOL    HW2 1197   1.194   1.697   3.448
  247SOL     OW 1198   0.317   0.251   3.663
  247SOL    HW1 1199   0.388   0.322   3.669
  247SOL    HW2 1200   0.229   0.290   3.691
  248SOL     OW 1201   1.466   1.417   2.815
  248SOL    HW1 1202   1.407   1.423   2.895
  248SOL    HW2 1203   1.451   1.329   2.769
  249SOL     OW 1204   1.667   1.714   2.434
  249SOL    HW1 1205   1.626   1.691   2.346
  249SOL    HW2 1206   1.649   1.640   2.499
  250SOL     OW 1207   0.598   0.729   2.132
  250SOL    HW1 1208   0.622   0.798   2.064
  250SOL    HW2 1209   0.520   0.762   2.186
  251SOL     OW 1210   1.281   0.345   2.806
  251SOL    HW1 1211   1.195   0.295   2.793
  251SOL    HW2 1212   1.343   0.291   2.862
  252SOL     OW 1213   1.576   1.662   2.169
  252SOL    HW1 1214   1.665   1.708   2.172
  252SOL    HW2 1215   1.555   1.638   2.074
  253SOL     OW 1216   0.807   0.605   3.327
  253SOL    HW1 1217   0.760   0.602   3.416
  253SOL    HW2 1218   0.756   0.550   3.261
  254SOL     OW 1219   1.394   0.469   3.536
  254SOL    HW1 1220   1.374   0.512   3.624
  254SOL    HW2 1221   1.472   0.407   3.545
  255SOL     OW 1222   0.973   0.890   3.434
  255SOL    HW1 1223   1.019   0.806   3.405
  255SOL    HW2 1224   0.917   0.924   3.359
  256SOL     OW 1225   0.991   0.410   3.104
  256SOL    HW1 1226   0.914   0.444   3.158
  256SOL    HW2 1227   0.957   0.359   3.025
  257SOL     OW 1228   1.041   0.701   2.291
  257SOL    HW1 1229   1.067   0.697   2.387
  257SOL    HW2 1230   0.956   0.650   2.277
  258SOL     OW 1231   0.076   0.811   2.651
  258SOL    HW1 1232   0.175   0.799   2.660
  258SOL    HW2 1233   0.052   0.906   2.672
  259SOL     OW 1234   0.130   1.821   3.433
  259SOL    HW1 1235   0.120   1.806   3.532
  259SOL    HW2 1236   0.044   1.857   3.397
  260SOL     OW 1237   0.865   0.348   2.057
  260SOL    HW1 1238   0.924   0.411   2.008
  260SOL    HW2 1239   0.884   0.254   2.028
  261SOL     OW 1240   1.719   0.585   3.693
  261SOL    HW1 1241   1.693   0.674   3.657
  261SOL    HW2 1242   1.717   0.517   3.620
  262SOL     OW 1243   1.362   1.144   2.407
  262SOL    HW1 1244   1.445   1.115   2.359
  262SOL    HW2 1245   1.313   1.211   2.351
  263SOL     OW 1246   0.550   0.196   2.747
  263SOL    HW1 1247   0.545   0.191   2.847
  263SOL    HW2 1248   0.552   0.292   2.718
  264SOL     OW 1249   1.008   1.456   2.339
  264SOL    HW1 1250   0.962   1.528   2.287
  264SOL    HW2 1251   1.004   1.476   2.437
  265SOL     OW 1252   0.351   1.801   2.715
  265SOL    HW1 1253   0.401   1.715   2.721
  265SOL    HW2 1254   0.416   1.878   2.712
  266SOL     OW 1255   1.795   1.066   2.735
  266SOL    HW1 1256   1.733   1.051   2.659
  266SOL    HW2 1257   1.743   1.077   2.820
  267SOL     OW 1258   1.227   1.550   3.368
  267SOL    HW1 1259   1.233   1.473   3.432
  267SOL    HW2 1260   1.175   1.524   3.288
  268SOL     OW 1261   0.321   0.943   2.104
  268SOL    HW1 1262   0.403   0.982   2.062
  268SOL    HW2 1263   0.294   0.861   2.055
  269SOL     OW 1264   1.458   0.735   2.590
  269SOL    HW1 1265   1.453   0.670   2.665
  269SOL    HW2 1266   1.538   0.794   2.603
  270SOL     OW 1267   0.461   1.266   3.589
  270SOL    HW1 1268   0.411   1.267   3.503
  270SOL    HW2 1269   0.398   1.248   3.665
  271SOL     OW 1270   1.111   1.776   2.099
  271SOL    HW1 1271   1.051   1.714   2.149
  271SOL    HW2 1272   1.142   1.732   2.014
  272SOL     OW 1273   0.202   0.285   3.360
  272SOL    HW1 1274   0.122   0.345   3.347
  272SOL    HW2 1275   0.192   0.236   3.446
  273SOL     OW 1276   1.632   1.377   1.943
  273SOL    HW1 1277   1.600   1.471   1.933
  273SOL    HW2 1278   1.556   1.314   1.931
  274SOL     OW 1279   0.464   1.743   2.185
  274SOL    HW1 1280   0.497   1.782   2.271
  274SOL    HW2 1281   0.540   1.736   2.120
  275SOL     OW 1282   1.400   0.107   2.288
  275SOL    HW1 1283   1.376   0.070   2.198
  275SOL    HW2 1284   1.499   0.123   2.292
  276SOL     OW 1285   0.249   1.785   3.103
  276SOL    HW1 1286   0.306   1.720   3.153
  276SOL    HW2 1287   0.233   1.752   3.010
  277SOL     OW 1288   0.940   1.698   2.766
  277SOL    HW1 1289   1.020   1.641   2.787
  277SOL    HW2 1290   0.891   1.658   2.689
  278SOL     OW 1291   0.382   0.700   2.342
  278SOL    HW1 1292   0.427   0.610   2.339
  278SOL    HW2 1293   0.288   0.689   2.375
  279SOL     OW 1294   1.547   0.222   3.591
  279SOL    HW1 1295   1.542   0.259   3.683
  279SOL    HW2 1296   1.475   0.153   3.579
  280SOL     OW 1297   0.614   0.122   1.979
  280SOL    HW1 1298   0.712   0.100   1.986
  280SOL    HW2 1299   0.583   0.105   1.886
  281SOL     OW 1300   0.781   0.264   3.611
  281SOL    HW1 1301   0.848   0.203   3.654
  281SOL    HW2 1302   0.708   0.283   3.676
  282SOL     OW 1303   0.888   1.514   3.057
  282SOL    HW1 1304   0.865   1.489   2.963
  282SOL    HW2 1305   0.949   1.445   3.096
  283SOL     OW 1306   1.351   0.590   3.295
  283SOL    HW1 1307   1.379   0.547   3.380
  283SOL    HW2 1308   1.376   0.686   3.296
  284SOL     OW 1309   0.803   1.402   2.786
  284SOL    HW1 1310   0.893   1.416   2.744
  284SOL    HW2 1311   0.732   1.404   2.715
  285SOL     OW 1312   0.922   0.503   2.761
  285SOL    HW1 1313   0.897   0.494   2.665
  285SOL    HW2 1314   0.970   0.421   2.792
  286SOL     OW 1315   0.539   0.064   2.374
  286SOL    HW1 1316   0.458   0.065   2.432
  286SOL    HW2 1317   0.542   0.147   2.319
  287SOL     OW 1318   1.434   1.188   1.903
  287SOL    HW1 1319   1.466   1.112   1.960
  287SOL    HW2 1320   1.342   1.215   1.933
  288SOL     OW 1321   0.297   0.035   2.033
  288SOL    HW1 1322   0.346   0.119   2.012
  288SOL    HW2 1323   0.359  -0.030   2.078
  289SOL     OW 1324   0.935   0.236   2.342
  289SOL    HW1 1325   0.887   0.277   2.264
  289SOL    HW2 1326   1.034   0.234   2.323
  290SOL     OW 1327   1.076   0.683   3.326
  290SOL    HW1 1328   0.996   0.622   3.329
  290SOL    HW2 1329   1.157   0.630   3.302
  291SOL     OW 1330   1.227   1.570   2.655
  291SOL    HW1 1331   1.248   1.644   2.590
  291SOL    HW2 1332   1.295   1.570   2.728
  292SOL     OW 1333   0.459   1.152   2.603
  292SOL    HW1 1334   0.388   1.125   2.668
  292SOL    HW2 1335   0.433   1.124   2.510
  293SOL     OW 1336   1.271   1.797   2.453
  293SOL    HW1 1337   1.315   1.861   2.389
  293SOL    HW2 1338   1.221   1.849   2.523
  294SOL     OW 1339   1.032   0.549   1.878
  294SOL    HW1 1340   0.991   0.631   1.839
  294SOL    HW2 1341   1.096   0.575   1.951
  295SOL     OW 1342   0.078   0.556   3.248
  295SOL    HW1 1343   0.170   0.555   3.207
  295SOL    HW2 1344   0.072   0.630   3.315
  296SOL     OW 1345   0.561   0.222   3.009
  296SOL    HW1 1346   0.599   0.138   3.046
  296SOL    HW2 1347   0.473   0.241   3.053
  297SOL     OW 1348   0.866   0.454   2.504
  297SOL    HW1 1349   0.834   0.526   2.442
  297SOL    HW2 1350   0.890   0.373   2.451
  298SOL     OW 1351   1.017   0.039   2.615
  298SOL    HW1 1352   0.945   0.044   2.546
  298SOL    HW2 1353   0.993  -0.030   2.684
  299SOL     OW 1354   1.429   1.173   2.729
  299SOL    HW1 1355   1.374   1.089   2.722
  299SOL    HW2 1356   1.455   1.202   2.637
  300SOL     OW 1357   1.466   0.590   2.854
  300SOL    HW1 1358   1.436   0.495   2.861
  300SOL    HW2 1359   1.539   0.606   2.920
  301SOL     OW 1360   1.857   0.833   2.239
  301SOL    HW1 1361   1.899   0.769   2.303
  301SOL    HW2 1362   1.819   0.782   2.161
  302SOL     OW 1363   0.488   1.385   2.036
  302SOL    HW1 1364   0.401   1.370   2.083
  302SOL    HW2 1365   0.471   1.411   1.941
  303SOL     OW 1366   1.664   1.280   2.519
  303SOL    HW1 1367   1.763   1.288   2.533
  303SOL    HW2 1368   1.619   1.364   2.550
  304SOL     OW 1369   1.390   0.575   1.940
  304SOL    HW1 1370   1.336   0.554   2.021
  304SOL    HW2 1371   1.481   0.534   1.949
  305SOL     OW 1372   0.527   0.256   2.190
  305SOL    HW1 1373   0.554   0.197   2.115
  305SOL    HW2 1374   0.527   0.351   2.159
  306SOL     OW 1375   1.754   1.223   3.450
  306SOL    HW1 1376   1.845   1.184   3.437
  306SOL    HW2 1377   1.762   1.319   3.474
  307SOL     OW 1378   1.064   1.347   3.202
  307SOL    HW1 1379   0.984   1.324   3.257
  307SOL    HW2 1380   1.147   1.321   3.251
  308SOL     OW 1381   1.592   1.629   3.487
  308SOL    HW1 1382   1.619   1.663   3.397
  308SOL    HW2 1383   1.671   1.591   3.533
  309SOL     OW 1384   1.111   1.195   2.962
  309SOL    HW1 1385   1.071   1.239   3.043
  309SOL    HW2 1386   1.070   1.232   2.879
  310SOL     OW 1387   1.638   1.099   2.941
  310SOL    HW1 1388   1.643   1.180   3.000
  310SOL    HW2 1389   1.552   1.101   2.890
  311SOL     OW 1390   0.915   0.089   3.264
  311SOL    HW1 1391   0.940   0.069   3.169
  311SOL    HW2 1392   0.987   0.145   3.306
  312SOL     OW 1393   0.980   1.116   3.581
  312SOL    HW1 1394   0.881   1.122   3.591
  312SOL    HW2 1395   1.003   1.036   3.525
  313SOL     OW 1396   0.705   1.050   2.230
  313SOL    HW1 1397   0.691   1.057   2.329
  313SOL    HW2 1398   0.789   0.999   2.212
  314SOL     OW 1399   0.410   0.813   3.113
  314SOL    HW1 1400   0.496   0.825   3.163
  314SOL    HW2 1401   0.368   0.726   3.140
  315SOL     OW 1402   1.274   0.386   3.124
  315SOL    HW1 1403   1.295   0.460   3.188
  315SOL    HW2 1404   1.185   0.403   3.081
  316SOL     OW 1405   0.064   1.564   3.193
  316SOL    HW1 1406   0.018   1.646   3.159
  316SOL    HW2 1407   0.162   1.583   3.202
  317SOL     OW 1408   0.367   1.100   2.363
  317SOL    HW1 1409   0.360   1.183   2.307
  317SOL    HW2 1410   0.371   1.020   2.303
  318SOL     OW 1411   0.566   0.537   2.727
  318SOL    HW1 1412   0.578   0.603   2.653
  318SOL    HW2 1413   0.612   0.571   2.810
  319SOL     OW 1414   1.252   1.348   2.250
  319SOL    HW1 1415   1.302   1.425   2.290
  319SOL    HW2 1416   1.157   1.350   2.282
  320SOL     OW 1417   1.272   1.445   3.004
  320SOL    HW1 1418   1.319   1.458   3.091
  320SOL    HW2 1419   1.206   1.371   3.013
  321SOL     OW 1420   1.582   0.639   2.334
  321SOL    HW1 1421   1.551   0.700   2.407
  321SOL    HW2 1422   1.632   0.691   2.265
  322SOL     OW 1423   0.354   1.510   3.191
  322SOL    HW1 1424   0.333   1.466   3.104
  322SOL    HW2 1425   0.451   1.536   3.194
  323SOL     OW 1426   0.402   0.751   3.460
  323SOL    HW1 1427   0.470   0.806   3.413
  323SOL    HW2 1428   0.442   0.663   3.487
  324SOL     OW 1429   1.587   0.779   3.532
  324SOL    HW1 1430   1.495   0.817   3.527
  324SOL    HW2 1431   1.647   0.826   3.467
  325SOL     OW 1432   1.013   0.105   3.632
  325SOL    HW1 1433   1.019   0.190   3.580
  325SOL    HW2 1434   1.045   0.029   3.575
  326SOL     OW 1435   0.504   0.050   3.602
  326SOL    HW1 1436   0.462  -0.007   3.532
  326SOL    HW2 1437   0.438   0.119   3.634
  327SOL     OW 1438   0.573   0.870   2.891
  327SOL    HW1 1439   0.617   0.959   2.882
  327SOL    HW2 1440   0.510   0.870   2.968
  328SOL     OW 1441   1.360   0.862   2.907
  328SOL    HW1 1442   1.285   0.862   2.841
  328SOL    HW2 1443   1.397   0.770   2.916
  329SOL     OW 1444   1.209   0.525   2.137
  329SOL    HW1 1445   1.222   0.441   2.191
  329SOL    HW2 1446   1.180   0.599   2.197
  330SOL     OW 1447   0.307   0.213   3.093
  330SOL    HW1 1448   0.284   0.250   3.183
  330SOL    HW2 1449   0.277   0.118   3.087
  331SOL     OW 1450   0.037   1.310   3.144
  331SOL    HW1 1451   0.090   1.261   3.212
  331SOL    HW2 1452   0.059   1.408   3.149
  332SOL     OW 1453   0.732   0.634   2.926
  332SOL    HW1 1454   0.791   0.608   2.850
  332SOL    HW2 1455   0.704   0.730   2.915
  333SOL     OW 1456   1.728   0.935   3.716
  333SOL    HW1 1457   1.682   0.928   3.627
  333SOL    HW2 1458   1.666   0.979   3.782
  334SOL     OW 1459   0.307   0.063   2.480
  334SOL    HW1 1460   0.296   0.157   2.513
  334SOL    HW2 1461   0.302   0.000   2.557
  335SOL     OW 1462   1.622   0.367   2.236
  335SOL    HW1 1463   1.624   0.291   2.300
  335SOL    HW2 1464   1.574   0.444   2.276
  336SOL     OW 1465   1.023   0.766   2.828
  336SOL    HW1 1466   1.038   0.787   2.924
  336SOL    HW2 1467   0.993   0.671   2.819
  337SOL     OW 1468   0.980   1.573   3.562
  337SOL    HW1 1469   0.960   1.617   3.474
  337SOL    HW2 1470   1.019   1.482   3.546
  338SOL     OW 1471   1.859   1.518   3.467
  338SOL    HW1 1472   1.873   1.545   3.372
  338SOL    HW2 1473   1.942   1.540   3.520
  339SOL     OW 1474   0.350   0.898   3.666
  339SOL    HW1 1475   0.426   0.942   3.714
  339SOL    HW2 1476   0.385   0.851   3.584
  340SOL     OW 1477   1.540   0.274   1.987
  340SOL    HW1 1478   1.479   0.199   2.010
  340SOL    HW2 1479   1.562   0.326   2.070
  341SOL     OW 1480   1.303   0.838   1.904
  341SOL    HW1 1481   1.337   0.745   1.919
  341SOL    HW2 1482   1.321   0.865   1.809
  342SOL     OW 1483   1.068   1.333   2.711
  342SOL    HW1 1484   1.075   1.249   2.656
  342SOL    HW2 1485   1.130   1.402   2.675
  343SOL     OW 1486   0.319   0.810   2.811
  343SOL    HW1 1487   0.412   0.846   2.816
  343SOL    HW2 1488   0.313   0.725   2.863
  344SOL     OW 1489   0.339   0.509   2.868
  344SOL    HW1 1490   0.287   0.426   2.851
  344SOL    HW2 1491   0.416   0.514   2.804
  345SOL     OW 1492   1.138   0.380   3.540
  345SOL    HW1 1493   1.093   0.443   3.604
  345SOL    HW2 1494   1.231   0.411   3.523
  346SOL     OW 1495   1.160   0.207   3.339
  346SOL    HW1 1496   1.160   0.271   3.416
  346SOL    HW2 1497   1.188   0.255   3.256
  347SOL     OW 1498   0.008   1.326   2.062
  347SOL    HW1 1499  -0.085   1.347   2.031
  347SOL    HW2 1500   0.018   1.227   2.075
  348SOL     OW 1501   0.088   1.801   2.789
  348SOL    HW1 1502   0.046   1.715   2.762
  348SOL    HW2 1503   0.182   1.804   2.755
  349SOL     OW 1504   0.504   1.568   2.772
  349SOL    HW1 1505   0.570   1.642   2.781
  349SOL    HW2 1506   0.548   1.489   2.730
  350SOL     OW 1507   1.002   0.796   3.100
  350SOL    HW1 1508   1.043   0.764   3.186
  350SOL    HW2 1509   0.906   0.769   3.097
  351SOL     OW 1510   0.040   0.544   2.976
  351SOL    HW1 1511   0.125   0.511   2.935
  351SOL    HW2 1512   0.053   0.559   3.074
  352SOL     OW 1513   0.189   0.520   3.584
  352SOL    HW1 1514   0.248   0.480   3.514
  352SOL    HW2 1515   0.131   0.591   3.543
  353SOL     OW 1516   1.369   0.950   3.522
  353SOL    HW1 1517   1.408   1.039   3.542
  353SOL    HW2 1518   1.379   0.930   3.425
  354SOL     OW 1519   0.815   0.572   2.187
  354SOL    HW1 1520   0.822   0.483   2.141
  354SOL    HW2 1521   0.721   0.606   2.179
  355SOL     OW 1522   1.657   0.604   3.068
  355SOL    HW1 1523   1.619   0.535   3.130
  355SOL    HW2 1524   1.739   0.568   3.024
  356SOL     OW 1525   0.252   1.564   3.606
  356SOL    HW1 1526   0.222   1.621   3.682
  356SOL    HW2 1527   0.245   1.467   3.632
  357SOL     OW 1528   0.671   0.464   3.131
  357SOL    HW1 1529   0.637   0.375   3.101
  357SOL    HW2 1530   0.697   0.518   3.051
  358SOL     OW 1531   0.930   1.678   3.327
  358SOL    HW1 1532   0.906   1.660   3.232
  358SOL    HW2 1533   0.960   1.772   3.337
  359SOL     OW 1534   0.473   0.500   2.053
  359SOL    HW1 1535   0.534   0.580   2.057
  359SOL    HW2 1536   0.378   0.531   2.060
  360SOL     OW 1537   0.159   1.137   3.328
  360SOL    HW1 1538   0.181   1.076   3.404
  360SOL    HW2 1539   0.169   1.088   3.242
  361SOL     OW 1540   1.347   1.059   3.096
  361SOL    HW1 1541   1.371   0.996   3.022
  361SOL    HW2 1542   1.257   1.099   3.078
  362SOL     OW 1543   1.302   0.855   2.171
  362SOL    HW1 1544   1.216   0.824   2.213
  362SOL    HW2 1545   1.298   0.841   2.072
  363SOL     OW 1546   1.759   1.747   3.016
  363SOL    HW1 1547   1.820   1.777   2.943
  363SOL    HW2 1548   1.721   1.658   2.994
  364SOL     OW 1549   1.252   1.731   2.990
  364SOL    HW1 1550   1.336   1.736   2.936
  364SOL    HW2 1551   1.229   1.635   3.008
  365SOL     OW 1552   0.083   1.258   2.884
  365SOL    HW1 1553   0.078   1.257   2.984
  365SOL    HW2 1554   0.000   1.217   2.846
  366SOL     OW 1555   0.688   1.662   3.578
  366SOL    HW1 1556   0.632   1.743   3.587
  366SOL    HW2 1557   0.740   1.666   3.492
  367SOL     OW 1558   1.726   0.135   2.385
  367SOL    HW1 1559   1.799   0.118   2.318
  367SOL    HW2 1560   1.695   0.048   2.423
  368SOL     OW 1561   1.388   1.573   2.339
  368SOL    HW1 1562   1.455   1.585   2.265
  368SOL    HW2 1563   1.348   1.662   2.362
  369SOL     OW 1564   0.130   1.794   3.713
  369SOL    HW1 1565   0.089   1.720   3.766
  369SOL    HW2 1566   0.194   1.845   3.771
  370SOL     OW 1567   1.280   0.927   2.534
  370SOL    HW1 1568   1.340   0.846   2.536
  370SOL    HW2 1569   1.320   0.996   2.474
  371SOL     OW 1570   0.830   1.273   3.284
  371SOL    HW1 1571   0.825   1.306   3.379
  371SOL    HW2 1572   0.744   1.292   3.238
  372SOL     OW 1573   0.672   1.616   2.016
  372SOL    HW1 1574   0.681   1.626   1.917
  372SOL    HW2 1575   0.632   1.527   2.037
  373SOL     OW 1576   1.650   1.720   3.256
  373SOL    HW1 1577   1.703   1.730   3.172
  373SOL    HW2 1578   1.623   1.810   3.290
  374SOL     OW 1579   1.841   0.175   2.825
  374SOL    HW1 1580   1.880   0.090   2.789
  374SOL    HW2 1581   1.743   0.177   2.806
  375SOL     OW 1582   0.263   0.326   2.582
  375SOL    HW1 1583   0.184   0.377   2.548
  375SOL    HW2 1584   0.254   0.311   2.680
  376SOL     OW 1585   1.194   1.612   1.893
  376SOL    HW1 1586   1.200   1.519   1.930
  376SOL    HW2 1587   1.135   1.612   1.813
  377SOL     OW 1588   0.822   1.002   3.234
  377SOL    HW1 1589   0.862   1.001   3.142
  377SOL    HW2 1590   0.832   1.094   3.274
  378SOL     OW 1591   0.916   0.910   2.153
  378SOL    HW1 1592   0.979   0.948   2.085
  378SOL    HW2 1593   0.956   0.827   2.192
  379SOL     OW 1594   1.504   1.607   1.906
  379SOL    HW1 1595   1.412   1.644   1.913
  379SOL    HW2 1596   1.542   1.627   1.816
  380SOL     OW 1597   0.372   1.288   3.352
  380SOL    HW1 1598   0.359   1.381   3.318
  380SOL    HW2 1599   0.288   1.236   3.339
  381SOL     OW 1600   1.614   1.292   3.151
  381SOL    HW1 1601   1.674   1.295   3.231
  381SOL    HW2 1602   1.539   1.356   3.164
  382SOL     OW 1603   1.039   1.098   2.558
  382SOL    HW1 1604   0.969   1.051   2.612
  382SOL    HW2 1605   1.098   1.030   2.515
  383SOL     OW 1606   1.014   0.236   2.833
  383SOL    HW1 1607   1.006   0.200   2.740
  383SOL    HW2 1608   1.012   0.160   2.898
  384SOL     OW 1609   0.590   1.487   2.353
  384SOL    HW1 1610   0.632   1.429   2.283
  384SOL    HW2 1611   0.546   1.566   2.309
  385SOL     OW 1612   1.709   0.385   3.243
  385SOL    HW1 1613   1.782   0.454   3.247
  385SOL    HW2 1614   1.737   0.310   3.184
  386SOL     OW 1615   0.255   1.348   2.152
  386SOL    HW1 1616   0.159   1.349   2.125
  386SOL    HW2 1617   0.267   1.401   2.236
  387SOL     OW 1618   0.105   1.013   3.588
  387SOL    HW1 1619   0.028   0.980   3.642
  387SOL    HW2 1620   0.190   0.983   3.630
  388SOL     OW 1621   0.672   0.203   3.351
  388SOL    HW1 1622   0.762   0.187   3.311
  388SOL    HW2 1623   0.680   0.208   3.450
  389SOL     OW 1624   0.075   0.345   1.895
  389SOL    HW1 1625  -0.017   0.317   1.866
  389SOL    HW2 1626   0.106   0.422   1.839
  390SOL     OW 1627   1.440   0.856   3.260
  390SOL    HW1 1628   1.383   0.908   3.197
  390SOL    HW2 1629   1.536   0.868   3.236
  391SOL     OW 1630   0.072   0.166   2.180
  391SOL    HW1 1631   0.055   0.249   2.126
  391SOL    HW2 1632   0.162   0.129   2.158
  392SOL     OW 1633   1.183   1.335   1.981
  392SOL    HW1 1634   1.084   1.324   1.983
  392SOL    HW2 1635   1.217   1.350   2.074
  393SOL     OW 1636   0.613   0.842   3.293
  393SOL    HW1 1637   0.669   0.923   3.276
  393SOL    HW2 1638   0.672   0.762   3.296
  394SOL     OW 1639   1.493   1.767   2.821
  394SOL    HW1 1640   1.526   1.831   2.752
  394SOL    HW2 1641   1.559   1.761   2.896
  395SOL     OW 1642   0.716   0.565   3.570
  395SOL    HW1 1643   0.735   0.630   3.644
  395SOL    HW2 1644   0.776   0.485   3.579
  396SOL     OW 1645   1.450   1.220   3.495
  396SOL    HW1 1646   1.441   1.210   3.594
  396SOL    HW2 1647   1.546   1.213   3.469
  397SOL     OW 1648   0.390   1.741   3.422
  397SOL    HW1 1649   0.299   1.782   3.420
  397SOL    HW2 1650   0.383   1.647   3.454
  398SOL     OW 1651   1.674   0.883   3.116
  398SOL    HW1 1652   1.647   0.794   3.079
  398SOL    HW2 1653   1.675   0.951   3.043
  399SOL     OW 1654   1.225   0.325   2.311
  399SOL    HW1 1655   1.290   0.251   2.300
  399SOL    HW2 1656   1.245   0.375   2.395
  400SOL     OW 1657   0.594   0.745   2.514
  400SOL    HW1 1658   0.644   0.830   2.495
  400SOL    HW2 1659   0.506   0.747   2.466
  401SOL     OW 1660   1.777   0.342   3.504
  401SOL    HW1 1661   1.760   0.373   3.410
  401SOL    HW2 1662   1.693   0.305   3.542
  402SOL     OW 1663   1.730   0.934   3.379
  402SOL    HW1 1664   1.768   1.025   3.394
  402SOL    HW2 1665   1.722   0.917   3.280
  403SOL     OW 1666   0.859   1.374   1.878
  403SOL    HW1 1667   0.813   1.389   1.966
  403SOL    HW2 1668   0.903   1.459   1.848
  404SOL     OW 1669   0.661   1.790   2.815
  404SOL    HW1 1670   0.615   1.878   2.802
  404SOL    HW2 1671   0.760   1.802   2.808
  405SOL     OW 1672   0.859   0.956   2.723
  405SOL    HW1 1673   0.913   0.887   2.771
  405SOL    HW2 1674   0.827   1.025   2.789
  406SOL     OW 1675   1.083   0.984   1.949
  406SOL    HW1 1676   1.060   1.037   1.867
  406SOL    HW2 1677   1.164   0.928   1.930
  407SOL     OW 1678   1.861   1.569   2.713
  407SOL    HW1 1679   1.790   1.557   2.643
  407SOL    HW2 1680   1.862   1.490   2.773
  408SOL     OW 1681   0.221   1.314   3.706
  408SOL    HW1 1682   0.156   1.241   3.685
  408SOL    HW2 1683   0.225   1.328   3.804
  409SOL     OW 1684   0.079   1.240   2.515
  409SOL    HW1 1685   0.078   1.193   2.603
  409SOL    HW2 1686   0.161   1.212   2.464
  410SOL     OW 1687   0.672   1.391   3.486
  410SOL    HW1 1688   0.594   1.341   3.524
  410SOL    HW2 1689   0.669   1.486   3.517
  411SOL     OW 1690   1.824   0.192   3.089
  411SOL    HW1 1691   1.820   0.102   3.133
  411SOL    HW2 1692   1.827   0.181   2.990
  412SOL     OW 1693   0.428   0.424   2.382
  412SOL    HW1 1694   0.458   0.352   2.320
  412SOL    HW2 1695   0.389   0.384   2.465
  413SOL     OW 1696   1.705   1.487   2.966
  413SOL    HW1 1697   1.612   1.462   2.939
  413SOL    HW2 1698   1.731   1.437   3.048
  414SOL     OW 1699   0.317   0.547   3.142
  414SOL    HW1 1700   0.355   0.488   3.214
  414SOL    HW2 1701   0.357   0.521   3.054
  415SOL     OW 1702   0.812   1.586   2.549
  415SOL    HW1 1703   0.844   1.596   2.455
  415SOL    HW2 1704   0.733   1.524   2.551
  416SOL     OW 1705   1.424   0.214   2.974
  416SOL    HW1 1706   1.476   0.149   3.029
  416SOL    HW2 1707   1.375   0.277   3.035
  417SOL     OW 1708   1.001   0.034   3.016
  417SOL    HW1 1709   0.938  -0.038   2.985
  417SOL    HW2 1710   1.094  -0.002   3.016
  418SOL     OW 1711   0.770   1.330   2.163
  418SOL    HW1 1712   0.724   1.243   2.180
  418SOL    HW2 1713   0.861   1.327   2.204
  419SOL     OW 1714   0.618   1.567   3.146
  419SOL    HW1 1715   0.613   1.649   3.203
  419SOL    HW2 1716   0.707   1.564   3.101
  420SOL     OW 1717   1.352   0.052   2.030
  420SOL    HW1 1718   1.387   0.011   1.946
  420SOL    HW2 1719   1.262   0.014   2.050
  421SOL     OW 1720   1.300   0.453   2.553
  421SOL    HW1 1721   1.241   0.533   2.557
  421SOL    HW2 1722   1.315   0.418   2.646
  422SOL     OW 1723   1.593   0.221   2.744
  422SOL    HW1 1724   1.509   0.220   2.798
  422SOL    HW2 1725   1.595   0.304   2.688
  423SOL     OW 1726   0.039   1.077   2.162
  423SOL    HW1 1727   0.138   1.066   2.153
  423SOL    HW2 1728  -0.001   0.991   2.194
  424SOL     OW 1729   0.875   1.646   2.199
  424SOL    HW1 1730   0.798   1.611   2.145
  424SOL    HW2 1731   0.843   1.717   2.261
  425SOL     OW 1732   0.230   0.628   3.837
  425SOL    HW1 1733   0.137   0.626   3.874
  425SOL    HW2 1734   0.231   0.589   3.745
  426SOL     OW 1735   0.225   0.275   4.720
  426SOL    HW1 1736   0.260   0.258   4.812
  426SOL    HW2 1737   0.137   0.230   4.708
  427SOL     OW 1738   0.019   0.368   4.371
  427SOL    HW1 1739  -0.063   0.411   4.410
  427SOL    HW2 1740  -0.009   0.295   4.308
  428SOL     OW 1741   0.569   1.275   4.889
  428SOL    HW1 1742   0.476   1.268   4.852
  428SOL    HW2 1743   0.580   1.364   4.933
  429SOL     OW 1744   1.555   1.511   4.427
  429SOL    HW1 1745   1.498   1.495   4.508
  429SOL    HW2 1746   1.496   1.521   4.347
  430SOL     OW 1747   1.135   0.703   4.441
  430SOL    HW1 1748   1.192   0.781   4.416
  430SOL    HW2 1749   1.075   0.729   4.517
  431SOL     OW 1750   1.755   0.607   3.955
  431SOL    HW1 1751   1.743   0.594   3.856
  431SOL    HW2 1752   1.725   0.526   4.004
  432SOL     OW 1753   0.768   1.144   4.747
  432SOL    HW1 1754   0.690   1.161   4.807
  432SOL    HW2 1755   0.802   1.231   4.711
  433SOL     OW 1756   0.850   0.798   5.547
  433SOL    HW1 1757   0.846   0.874   5.612
  433SOL    HW2 1758   0.872   0.834   5.456
  434SOL     OW 1759   0.685   1.012   4.389
  434SOL    HW1 1760   0.754   0.996   4.459
  434SOL    HW2 1761   0.612   1.069   4.427
  435SOL     OW 1762   0.686   1.161   5.527
  435SOL    HW1 1763   0.746   1.240   5.541
  435SOL    HW2 1764   0.600   1.192   5.486
  436SOL     OW 1765   0.335   1.435   4.785
  436SOL    HW1 1766   0.257   1.404   4.732
  436SOL    HW2 1767   0.393   1.493   4.728
  437SOL     OW 1768   1.460   1.505   5.063
  437SOL    HW1 1769   1.484   1.599   5.089
  437SOL    HW2 1770   1.444   1.451   5.145
  438SOL     OW 1771   0.438   0.392   5.223
  438SOL    HW1 1772   0.520   0.336   5.232
  438SOL    HW2 1773   0.357   0.334   5.227
  439SOL     OW 1774   1.603   0.447   4.461
  439SOL    HW1 1775   1.529   0.493   4.411
  439SOL    HW2 1776   1.654   0.515   4.514
  440SOL     OW 1777   0.231   1.713   4.207
  440SOL    HW1 1778   0.265   1.790   4.261
  440SOL    HW2 1779   0.275   1.713   4.117
  441SOL     OW 1780   1.127   1.341   5.414
  441SOL    HW1 1781   1.174   1.341   5.502
  441SOL    HW2 1782   1.079   1.254   5.403
  442SOL     OW 1783   0.230   1.434   4.262
  442SOL    HW1 1784   0.204   1.530   4.262
  442SOL    HW2 1785   0.159   1.380   4.307
  443SOL     OW 1786   0.240   1.091   4.610
  443SOL    HW1 1787   0.254   1.007   4.662
  443SOL    HW2 1788   0.185   1.155   4.665
  444SOL     OW 1789   0.620   1.786   5.163
  444SOL    HW1 1790   0.528   1.769   5.198
  444SOL    HW2 1791   0.648   1.878   5.189
  445SOL     OW 1792   0.606   0.964   3.847
  445SOL    HW1 1793   0.613   1.048   3.793
  445SOL    HW2 1794   0.652   0.977   3.935
  446SOL     OW 1795   1.594   0.114   5.204
  446SOL    HW1 1796   1.576   0.181   5.132
  446SOL    HW2 1797   1.591   0.160   5.293
  447SOL     OW 1798   0.122   0.643   4.287
  447SOL    HW1 1799   0.077   0.555   4.304
  447SOL    HW2 1800   0.121   0.697   4.371
  448SOL     OW 1801   0.027   1.596   3.841
  448SOL    HW1 1802   0.008   1.500   3.862
  448SOL    HW2 1803  -0.006   1.654   3.916
  449SOL     OW 1804   1.689   0.922   4.336
  449SOL    HW1 1805   1.784   0.893   4.344
  449SOL    HW2 1806   1.681   0.987   4.261
  450SOL     OW 1807   1.641   1.108   4.156
  450SOL    HW1 1808   1.727   1.110   4.104
  450SOL    HW2 1809   1.655   1.155   4.244
  451SOL     OW 1810   0.113   0.737   5.321
  451SOL    HW1 1811   0.201   0.724   5.366
  451SOL    HW2 1812   0.100   0.834   5.299
  452SOL     OW 1813   0.613   1.365   4.450
  452SOL    HW1 1814   0.564   1.278   4.459
  452SOL    HW2 1815   0.590   1.408   4.363
  453SOL     OW 1816   1.293   1.228   5.147
  453SOL    HW1 1817   1.330   1.155   5.089
  453SOL    HW2 1818   1.345   1.233   5.232
  454SOL     OW 1819   0.809   0.004   4.226
  454SOL    HW1 1820   0.849   0.095   4.217
  454SOL    HW2 1821   0.709   0.012   4.232
  455SOL     OW 1822   0.197   0.976   4.988
  455SOL    HW1 1823   0.286   0.931   4.974
  455SOL    HW2 1824   0.124   0.911   4.969
  456SOL     OW 1825   1.525   0.999   3.914
  456SOL    HW1 1826   1.462   0.923   3.927
  456SOL    HW2 1827   1.573   1.017   4.000
  457SOL     OW 1828   1.187   1.792   5.340
  457SOL    HW1 1829   1.211   1.852   5.264
  457SOL    HW2 1830   1.194   1.697   5.310
  458SOL     OW 1831   0.317   0.251   5.525
  458SOL    HW1 1832   0.388   0.322   5.531
  458SOL    HW2 1833   0.229   0.290   5.553
  459SOL     OW 1834   1.466   1.417   4.677
  459SOL    HW1 1835   1.407   1.423   4.757
  459SOL    HW2 1836   1.451   1.329   4.631
  460SOL     OW 1837   1.667   1.714   4.296
  460SOL    HW1 1838   1.626   1.691   4.208
  460SOL    HW2 1839   1.649   1.640   4.361
  461SOL     OW 1840   0.598   0.729   3.994
  461SOL    HW1 1841   0.622   0.798   3.926
  461SOL    HW2 1842   0.520   0.762   4.048
  462SOL     OW 1843   1.281   0.345   4.668
  462SOL    HW1 1844   1.195   0.295   4.655
  462SOL    HW2 1845   1.343   0.291   4.724
  463SOL     OW 1846   1.576   1.662   4.031
  463SOL    HW1 1847   1.665   1.708   4.034
  463SOL    HW2 1848   1.555   1.638   3.936
  464SOL     OW 1849   0.807   0.605   5.189
  464SOL    HW1 1850   0.760   0.602   5.278
  464SOL    HW2 1851   0.756   0.550   5.123
  465SOL     OW 1852   1.394   0.469   5.398
  465SOL    HW1 1853   1.374   0.512   5.486
  465SOL    HW2 1854   1.472   0.407   5.407
  466SOL     OW 1855   0.973   0.890   5.296
  466SOL    HW1 1856   1.019   0.806   5.267
  466SOL    HW2 1857   0.917   0.924   5.221
  467SOL     OW 1858   0.991   0.410   4.966
  467SOL    HW1 1859   0.914   0.444   5.020
  467SOL    HW2 1860   0.957   0.359   4.887
  468SOL     OW 1861   1.041   0.701   4.153
  468SOL    HW1 1862   1.067   0.697   4.249
  468SOL    HW2 1863   0.956   0.650   4.139
  469SOL     OW 1864   0.076   0.811   4.513
  469SOL    HW1 1865   0.175   0.799   4.522
  469SOL    HW2 1866   0.052   0.906   4.534
  470SOL     OW 1867   0.130   1.821   5.295
  470SOL    HW1 1868   0.120   1.806   5.394
  470SOL    HW2 1869   0.044   1.857   5.259
  471SOL     OW 1870   0.865   0.348   3.919
  471SOL    HW1 1871   0.924   0.411   3.870
  471SOL    HW2 1872   0.884   0.254   3.890
  472SOL     OW 1873   1.719   0.585   5.555
  472SOL    HW1 1874   1.693   0.674   5.519
  472SOL    HW2 1875   1.717   0.517   5.482
  473SOL     OW 1876   1.362   1.144   4.269
  473SOL    HW1 1877   1.445   1.115   4.221
  473SOL    HW2 1878   1.313   1.211   4.213
  474SOL     OW 1879   0.550   0.196   4.609
  474SOL    HW1 1880   0.545   0.191   4.709
  474SOL    HW2 1881   0.552   0.292   4.580
  475SOL     OW 1882   1.008   1.456   4.201
  475SOL    HW1 1883   0.962   1.528   4.149
  475SOL    HW2 1884   1.004   1.476   4.299
  476SOL     OW 1885   0.351   1.801   4.577
  476SOL    HW1 1886   0.401   1.715   4.583
  476SOL    HW2 1887   0.416   1.878   4.574
  477SOL     OW 1888   1.795   1.066   4.597
  477SOL    HW1 1889   1.733   1.051   4.521
  477SOL    HW2 1890   1.743   1.077   4.682
  478SOL     OW 1891   1.227   1.550   5.230
  478SOL    HW1 1892   1.233   1.473   5.294
  478SOL    HW2 1893   1.175   1.524   5.150
  479SOL     OW 1894   0.321   0.943   3.966
  479SOL    HW1 1895   0.403   0.982   3.924
  479SOL    HW2 1896   0.294   0.861   3.917
  480SOL     OW 1897   1.458   0.735   4.452
  480SOL    HW1 1898   1.453   0.670   4.527
  480SOL    HW2 1899   1.538   0.794   4.465
  481SOL     OW 1900   0.461   1.266   5.451
  481SOL    HW1 1901   0.411   1.267   5.365
  481SOL    HW2 1902   0.398   1.248   5.527
  482SOL     OW 1903   1.111   1.776   3.961
  482SOL    HW1 1904   1.051   1.714   4.011
  482SOL    HW2 1905   1.142   1.732   3.876
  483SOL     OW 1906   0.202   0.285   5.222
  483SOL    HW1 1907   0.122   0.345   5.209
  483SOL    HW2 1908   0.192   0.236   5.308
  484SOL     OW 1909   1.632   1.377   3.805
  484SOL    HW1 1910   1.600   1.471   3.795
  484SOL    HW2 1911   1.556   1.314   3.793
  485SOL     OW 1912   0.464   1.743   4.047
  485SOL    HW1 1913   0.497   1.782   4.133
  485SOL    HW2 1914   0.540   1.736   3.982
  486SOL     OW 1915   1.400   0.107   4.150
  486SOL    HW1 1916   1.376   0.070   4.060
  486SOL    HW2 1917   1.499   0.123   4.154
  487SOL     OW 1918   0.249   1.785   4.965
  487SOL    HW1 1919   0.306   1.720   5.015
  487SOL    HW2 1920   0.233   1.752   4.872
  488SOL     OW 1921   0.940   1.698   4.628
  488SOL    HW1 1922   1.020   1.641   4.649
  488SOL    HW2 1923   0.891   1.658   4.551
  489SOL     OW 1924   0.382   0.700   4.204
  489SOL    HW1 1925   0.427   0.610   4.201
  489SOL    HW2 1926   0.288   0.689   4.237
  490SOL     OW 1927   1.547   0.222   5.453
  490SOL    HW1 1928   1.542   0.259   5.545
  490SOL    HW2 1929   1.475   0.153   5.441
  491SOL     OW 1930   0.614   0.122   3.841
  491SOL    HW1 1931   0.712   0.100   3.848
  491SOL    HW2 1932   0.583   0.105   3.748
  492SOL     OW 1933   0.781   0.264   5.473
  492SOL    HW1 1934   0.848   0.203   5.516
  492SOL    HW2 1935   0.708   0.283   5.538
  493SOL     OW 1936   0.888   1.514   4.919
  493SOL    HW1 1937   0.865   1.489   4.825
  493SOL    HW2 1938   0.949   1.445   4.958
  494SOL     OW 1939   1.351   0.590   5.157
  494SOL    HW1 1940   1.379   0.547   5.242
  494SOL    HW2 1941   1.376   0.686   5.158
  495SOL     OW 1942   0.803   1.402   4.648
  495SOL    HW1 1943   0.893   1.416   4.606
  495SOL    HW2 1944   0.732   1.404   4.577
  496SOL     OW 1945   0.922   0.503   4.623
  496SOL    HW1 1946   0.897   0.494   4.527
  496SOL    HW2 1947   0.970   0.421   4.654
  497SOL     OW 1948   0.539   0.064   4.236
  497SOL    HW1 1949   0.458   0.065   4.294
  497SOL    HW2 1950   0.542   0.147   4.181
  498SOL     OW 1951   1.434   1.188   3.765
  498SOL    HW1 1952   1.466   1.112   3.822
  498SOL    HW2 1953   1.342   1.215   3.795
  499SOL     OW 1954   0.297   0.035   3.895
  499SOL    HW1 1955   0.346   0.119   3.874
  499SOL    HW2 1956   0.359  -0.030   3.940
  500SOL     OW 1957   0.935   0.236   4.204
  500SOL    HW1 1958   0.887   0.277   4.126
  500SOL    HW2 1959   1.034   0.234   4.185
  501SOL     OW 1960   1.076   0.683   5.188
  501SOL    HW1 1961   0.996   0.622   5.191
  501SOL    HW2 1962   1.157   0.630   5.164
  502SOL     OW 1963   1.227   1.570   4.517
  502SOL    HW1 1964   1.248   1.644   4.452
  502SOL    HW2 1965   1.295   1.570   4.590
  503SOL     OW 1966   0.459   1.152   4.465
  503SOL    HW1 1967   0.388   1.125   4.530
  503SOL    HW2 1968   0.433   1.124   4.372
  504SOL     OW 1969   1.271   1.797   4.315
  504SOL    HW1 1970   1.315   1.861   4.251
  504SOL    HW2 1971   1.221   1.849   4.385
  505SOL     OW 1972   1.032   0.549   3.740
  505SOL    HW1 1973   0.991   0.631   3.701
  505SOL    HW2 1974   1.096   0.575   3.813
  506SOL     OW 1975   0.078   0.556   5.110
  506SOL    HW1 1976   0.170   0.555   5.069
  506SOL    HW2 1977   0.072   0.630   5.177
  507SOL     OW 1978   0.561   0.222   4.871
  507SOL    HW1 1979   0.599   0.138   4.908
  507SOL    HW2 1980   0.473   0.241   4.915
  508SOL     OW 1981   0.866   0.454   4.366
  508SOL    HW1 1982   0.834   0.526   4.304
  508SOL    HW2 1983   0.890   0.373   4.313
  509SOL     OW 1984   1.017   0.039   4.477
  509SOL    HW1 1985   0.945   0.044   4.408
  509SOL    HW2 1986   0.993  -0.030   4.546
  510SOL     OW 1987   1.429   1.173   4.591
  510SOL    HW1 1988   1.374   1.089   4.584
  510SOL    HW2 1989   1.455   1.202   4.499
  511SOL     OW 1990   1.466   0.590   4.716
  511SOL    HW1 1991   1.436   0.495   4.723
  511SOL    HW2 1992   1.539   0.606   4.782
  512SOL     OW 1993   1.857   0.833   4.101
  512SOL    HW1 1994   1.899   0.769   4.165
  512SOL    HW2 1995   1.819   0.782   4.023
  513SOL     OW 1996   0.488   1.385   3.898
  513SOL    HW1 1997   0.401   1.370   3.945
  513SOL    HW2 1998   0.471   1.411   3.803
  514SOL     OW 1999   1.664   1.280   4.381
  514SOL    HW1 2000   1.763   1.288   4.395
  514SOL    HW2 2001   1.619   1.364   4.412
  515SOL     OW 2002   1.390   0.575   3.802
  515SOL    HW1 2003   1.336   0.554   3.883
  515SOL    HW2 2004   1.481   0.534   3.811
  516SOL     OW 2005   0.527   0.256   4.052
  516SOL    HW1 2006   0.554   0.197   3.977
  516SOL    HW2 2007   0.527   0.351   4.021
  517SOL     OW 2008   1.754   1.223   5.312
  517SOL    HW1 2009   1.845   1.184   5.299
  517SOL    HW2 2010   1.762   1.319   5.336
  518SOL     OW 2011   1.064   1.347   5.064
  518SOL    HW1 2012   0.984   1.324   5.119
  518SOL    HW2 2013   1.147   1.321   5.113
  519SOL     OW 2014   1.592   1.629   5.349
  519SOL    HW1 2015   1.619   1.663   5.259
  519SOL    HW2 2016   1.671   1.591   5.395
  520SOL     OW 2017   1.111   1.195   4.824
  520SOL    HW1 2018   1.071   1.239   4.905
  520SOL    HW2 2019   1.070   1.232   4.741
  521SOL     OW 2020   1.638   1.099   4.803
  521SOL    HW1 2021   1.643   1.180   4.862
  521SOL    HW2 2022   1.552   1.101   4.752
  522SOL     OW 2023   0.915   0.089   5.126
  522SOL    HW1 2024   0.940   0.069   5.031
  522SOL    HW2 2025   0.987   0.145   5.168
  523SOL     OW 2026   0.980   1.116   5.443
  523SOL    HW1 2027   0.881   1.122   5.453
  523SOL    HW2 2028   1.003   1.036   5.387
  524SOL     OW 2029   0.705   1.050   4.092
  524SOL    HW1 2030   0.691   1.057   4.191
  524SOL    HW2 2031   0.789   0.999   4.074
  525SOL     OW 2032   0.410   0.813   4.975
  525SOL    HW1 2033   0.496   0.825   5.025
  525SOL    HW2 2034   0.368   0.726   5.002
  526SOL     OW 2035   1.274   0.386   4.986
  526SOL    HW1 2036   1.295   0.460   5.050
  526SOL    HW2 2037   1.185   0.403   4.943
  527SOL     OW 2038   0.064   1.564   5.055
  527SOL    HW1 2039   0.018   1.646   5.021
  527SOL    HW2 2040   0.162   1.583   5.064
  528SOL     OW 2041   0.367   1.100   4.225
  528SOL    HW1 2042   0.360   1.183   4.169
  528SOL    HW2 2043   0.371   1.020   4.165
  529SOL     OW 2044   0.566   0.537   4.589
  529SOL    HW1 2045   0.578   0.603   4.515
  529SOL    HW2 2046   0.612   0.571   4.672
  530SOL     OW 2047   1.252   1.348   4.112
  530SOL    HW1 2048   1.302   1.425   4.152
  530SOL    HW2 2049   1.157   1.350   4.144
  531SOL     OW 2050   1.272   1.445   4.866
  531SOL    HW1 2051   1.319   1.458   4.953
  531SOL    HW2 2052   1.206   1.371   4.875
  532SOL     OW 2053   1.582   0.639   4.196
  532SOL    HW1 2054   1.551   0.700   4.269
  532SOL    HW2 2055   1.632   0.691   4.127
  533SOL     OW 2056   0.354   1.510   5.053
  533SOL    HW1 2057   0.333   1.466   4.966
  533SOL    HW2 2058   0.451   1.536   5.056
  534SOL     OW 2059   0.402   0.751   5.322
  534SOL    HW1 2060   0.470   0.806   5.275
  534SOL    HW2 2061   0.442   0.663   5.349
  535SOL     OW 2062   1.587   0.779   5.394
  535SOL    HW1 2063   1.495   0.817   5.389
  535SOL    HW2 2064   1.647   0.826   5.329
  536SOL     OW 2065   1.013   0.105   5.494
  536SOL    HW1 2066   1.019   0.190   5.442
  536SOL    HW2 2067   1.045   0.029   5.437
  537SOL     OW 2068   0.504   0.050   5.464
  537SOL    HW1 2069   0.462  -0.007   5.394
  537SOL    HW2 2070   0.438   0.119   5.496
  538SOL     OW 2071   0.573   0.870   4.753
  538SOL    HW1 2072   0.617   0.959   4.744
  538SOL    HW2 2073   0.510   0.870   4.830
  539SOL     OW 2074   1.360   0.862   4.769
  539SOL    HW1 2075   1.285   0.862   4.703
  539SOL    HW2 2076   1.397   0.770   4.778
  540SOL     OW 2077   1.209   0.525   3.999
  540SOL    HW1 2078   1.222   0.441   4.053
  540SOL    HW2 2079   1.180   0.599   4.059
  541SOL     OW 2080   0.307   0.213   4.955
  541SOL    HW1 2081   0.284   0.250   5.045
  541SOL    HW2 2082   0.277   0.118   4.949
  542SOL     OW 2083   0.037   1.310   5.006
  542SOL    HW1 2084   0.090   1.261   5.074
  542SOL    HW2 2085   0.059   1.408   5.011
  543SOL     OW 2086   0.732   0.634   4.788
  543SOL    HW1 2087   0.791   0.608   4.712
  543SOL    HW2 2088   0.704   0.730   4.777
  544SOL     OW 2089   1.728   0.935   5.578
  544SOL    HW1 2090   1.682   0.928   5.489
  544SOL    HW2 2091   1.666   0.979   5.644
  545SOL     OW 2092   0.307   0.063   4.342
  545SOL    HW1 2093   0.296   0.157   4.375
  545SOL    HW2 2094   0.302   0.000   4.419
  546SOL     OW 2095   1.622   0.367   4.098
  546SOL    HW1 2096   1.624   0.291   4.162
  546SOL    HW2 2097   1.574   0.444   4.138
  547SOL     OW 2098   1.023   0.766   4.690
  547SOL    HW1 2099   1.038   0.787   4.786
  547SOL    HW2 2100   0.993   0.671   4.681
  548SOL     OW 2101   0.980   1.573   5.424
  548SOL    HW1 2102   0.960   1.617   5.336
  548SOL    HW2 2103   1.019   1.482   5.408
  549SOL     OW 2104   1.859   1.518   5.329
  549SOL    HW1 2105   1.873   1.545   5.234
  549SOL    HW2 2106   1.942   1.540   5.382
  550SOL     OW 2107   0.350   0.898   5.528
  550SOL    HW1 2108   0.426   0.942   5.576
  550SOL    HW2 2109   0.385   0.851   5.446
  551SOL     OW 2110   1.540   0.274   3.849
  551SOL    HW1 2111   1.479   0.199   3.872
  551SOL    HW2 2112   1.562   0.326   3.932
  552SOL     OW 2113   1.303   0.838   3.766
  552SOL    HW1 2114   1.337   0.745   3.781
  552SOL    HW2 2115   1.321   0.865   3.671
  553SOL     OW 2116   1.068   1.333   4.573
  553SOL    HW1 2117   1.075   1.249   4.518
  553SOL    HW2 2118   1.130   1.402   4.537
  554SOL     OW 2119   0.319   0.810   4.673
  554SOL    HW1 2120   0.412   0.846   4.678
  554SOL    HW2 2121   0.313   0.725   4.725
  555SOL     OW 2122   0.339   0.509   4.730
  555SOL    HW1 2123   0.287   0.426   4.713
  555SOL    HW2 2124   0.416   0.514   4.666
  556SOL     OW 2125   1.138   0.380   5.402
  556SOL    HW1 2126   1.093   0.443   5.466
  556SOL    HW2 2127   1.231   0.411   5.385
  557SOL     OW 2128   1.160   0.207   5.201
  557SOL    HW1 2129   1.160   0.271   5.278
  557SOL    HW2 2130   1.188   0.255   5.118
  558SOL     OW 2131   0.008   1.326   3.924
  558SOL    HW1 2132  -0.085   1.347   3.893
  558SOL    HW2 2133   0.018   1.227   3.937
  559SOL     OW 2134   0.088   1.801   4.651
  559SOL    HW1 2135   0.046   1.715   4.624
  559SOL    HW2 2136   0.182   1.804   4.617
  560SOL     OW 2137   0.504   1.568   4.634
  560SOL    HW1 2138   0.570   1.642   4.643
  560SOL    HW2 2139   0.548   1.489   4.592
  561SOL     OW 2140   1.002   0.796   4.962
  561SOL    HW1 2141   1.043   0.764   5.048
  561SOL    HW2 2142   0.906   0.769   4.959
  562SOL     OW 2143   0.040   0.544   4.838
  562SOL    HW1 2144   0.125   0.511   4.797
  562SOL    HW2 2145   0.053   0.559   4.936
  563SOL     OW 2146   0.189   0.520   5.446
  563SOL    HW1 2147   0.248   0.480   5.376
  563SOL    HW2 2148   0.131   0.591   5.405
  564SOL     OW 2149   1.369   0.950   5.384
  564SOL    HW1 2150   1.408   1.039   5.404
  564SOL    HW2 2151   1.379   0.930   5.287
  565SOL     OW 2152   0.815   0.572   4.049
  565SOL    HW1 2153   0.822   0.483   4.003
  565SOL    HW2 2154   0.721   0.606   4.041
  566SOL     OW 2155   1.657   0.604   4.930
  566SOL    HW1 2156   1.619   0.535   4.992
  566SOL    HW2 2157   1.739   0.568   4.886
  567SOL     OW 2158   0.252   1.564   5.468
  567SOL    HW1 2159   0.222   1.621   5.544
  567SOL    HW2 2160   0.245   1.467   5.494
  568SOL     OW 2161   0.671   0.464   4.993
  568SOL    HW1 2162   0.637   0.375   4.963
  568SOL    HW2 2163   0.697   0.518   4.913
  569SOL     OW 2164   0.930   1.678   5.189
  569SOL    HW1 2165   0.906   1.660   5.094
  569SOL    HW2 2166   0.960   1.772   5.199
  570SOL     OW 2167   0.473   0.500   3.915
  570SOL    HW1 2168   0.534   0.580   3.919
  570SOL    HW2 2169   0.378   0.531   3.922
  571SOL     OW 2170   0.159   1.137   5.190
  571SOL    HW1 2171   0.181   1.076   5.266
  571SOL    HW2 2172   0.169   1.088   5.104
  572SOL     OW 2173   1.347   1.059   4.958
  572SOL    HW1 2174   1.371   0.996   4.884
  572SOL    HW2 2175   1.257   1.099   4.940
  573SOL     OW 2176   1.302   0.855   4.033
  573SOL    HW1 2177   1.216   0.824   4.075
  573SOL    HW2 2178   1.298   0.841   3.934
  574SOL     OW 2179   1.759   1.747   4.878
  574SOL    HW1 2180   1.820   1.777   4.805
  574SOL    HW2 2181   1.721   1.658   4.856
  575SOL     OW 2182   1.252   1.731   4.852
  575SOL    HW1 2183   1.336   1.736   4.798
  575SOL    HW2 2184   1.229   1.635   4.870
  576SOL     OW 2185   0.083   1.258   4.746
  576SOL    HW1 2186   0.078   1.257   4.846
  576SOL    HW2 2187   0.000   1.217   4.708
  577SOL     OW 2188   0.688   1.662   5.440
  577SOL    HW1 2189   0.632   1.743   5.449
  577SOL    HW2 2190   0.740   1.666   5.354
  578SOL     OW 2191   1.726   0.135   4.247
  578SOL    HW1 2192   1.799   0.118   4.180
  578SOL    HW2 2193   1.695   0.048   4.285
  579SOL     OW 2194   1.388   1.573   4.201
  579SOL    HW1 2195   1.455   1.585   4.127
  579SOL    HW2 2196   1.348   1.662   4.224
  580SOL     OW 2197   0.130   1.794   5.575
  580SOL    HW1 2198   0.089   1.720   5.628
  580SOL    HW2 2199   0.194   1.845   5.633
  581SOL     OW 2200   1.280   0.927   4.396
  581SOL    HW1 2201   1.340   0.846   4.398
  581SOL    HW2 2202   1.320   0.996   4.336
  582SOL     OW 2203   0.830   1.273   5.146
  582SOL    HW1 2204   0.825   1.306   5.241
  582SOL    HW2 2205   0.744   1.292   5.100
  583SOL     OW 2206   0.672   1.616   3.878
  583SOL    HW1 2207   0.681   1.626   3.779
  583SOL    HW2 2208   0.632   1.527   3.899
  584SOL     OW 2209   1.650   1.720   5.118
  584SOL    HW1 2210   1.703   1.730   5.034
  584SOL    HW2 2211   1.623   1.810   5.152
  585SOL     OW 2212   1.841   0.175   4.687
  585SOL    HW1 2213   1.880   0.090   4.651
  585SOL    HW2 2214   1.743   0.177   4.668
  586SOL     OW 2215   0.263   0.326   4.444
  586SOL    HW1 2216   0.184   0.377   4.410
  586SOL    HW2 2217   0.254   0.311   4.542
  587SOL     OW 2218   1.194   1.612   3.755
  587SOL    HW1 2219   1.200   1.519   3.792
  587SOL    HW2 2220   1.135   1.612   3.675
  588SOL     OW 2221   0.822   1.002   5.096
  588SOL    HW1 2222   0.862   1.001   5.004
  588SOL    HW2 2223   0.832   1.094   5.136
  589SOL     OW 2224   0.916   0.910   4.015
  589SOL    HW1 2225   0.979   0.948   3.947
  589SOL    HW2 2226   0.956   0.827   4.054
  590SOL     OW 2227   1.504   1.607   3.768
  590SOL    HW1 2228   1.412   1.644   3.775
  590SOL    HW2 2229   1.542   1.627   3.678
  591SOL     OW 2230   0.372   1.288   5.214
  591SOL    HW1 2231   0.359   1.381   5.180
  591SOL    HW2 2232   0.288   1.236   5.201
  592SOL     OW 2233   1.614   1.292   5.013
  592SOL    HW1 2234   1.674   1.295   5.093
  592SOL    HW2 2235   1.539   1.356   5.026
  593SOL     OW 2236   1.039   1.098   4.420
  593SOL    HW1 2237   0.969   1.051   4.474
  593SOL    HW2 2238   1.098   1.030   4.377
  594SOL     OW 2239   1.014   0.236   4.695
  594SOL    HW1 2240   1.006   0.200   4.602
  594SOL    HW2 2241   1.012   0.160   4.760
  595SOL     OW 2242   0.590   1.487   4.215
  595SOL    HW1 2243   0.632   1.429   4.145
  595SOL    HW2 2244   0.546   1.566   4.171
  596SOL     OW 2245   1.709   0.385   5.105
  596SOL    HW1 2246   1.782   0.454   5.109
  596SOL    HW2 2247   1.737   0.310   5.046
  597SOL     OW 2248   0.255   1.348   4.014
  597SOL    HW1 2249   0.159   1.349   3.987
  597SOL    HW2 2250   0.267   1.401   4.098
  598SOL     OW 2251   0.105   1.013   5.450
  598SOL    HW1 2252   0.028   0.980   5.504
  598SOL    HW2 2253   0.190   0.983   5.492
  599SOL     OW 2254   0.672   0.203   5.213
  599SOL    HW1 2255   0.762   0.187   5.173
  599SOL    HW2 2256   0.680   0.208   5.312
  600SOL     OW 2257   0.075   0.345   3.757
  600SOL    HW1 2258  -0.017   0.317   3.728
  600SOL    HW2 2259   0.106   0.422   3.701
  601SOL     OW 2260   1.440   0.856   5.122
  601SOL    HW1 2261   1.383   0.908   5.059
  601SOL    HW2 2262   1.536   0.868   5.098
  602SOL     OW 2263   0.072   0.166   4.042
  602SOL    HW1 2264   0.055   0.249   3.988
  602SOL    HW2 2265   0.162   0.129   4.020
  603SOL     OW 2266   1.183   1.335   3.843
  603SOL    HW1 2267   1.084   1.324   3.845
  603SOL    HW2 2268   1.217   1.350   3.936
  604SOL     OW 2269   0.613   0.842   5.155
  604SOL    HW1 2270   0.669   0.923   5.138
  604SOL    HW2 2271   0.672   0.762   5.158
  605SOL     OW 2272   1.493   1.767   4.683
  605SOL    HW1 2273   1.526   1.831   4.614
  605SOL    HW2 2274   1.559   1.761   4.758
  606SOL     OW 2275   0.716   0.565   5.432
  606SOL    HW1 2276   0.735   0.630   5.506
  606SOL    HW2 2277   0.776   0.485   5.441
  607SOL     OW 2278   1.450   1.220   5.357
  607SOL    HW1 2279   1.441   1.210   5.456
  607SOL    HW2 2280   1.546   1.213   5.331
  608SOL     OW 2281   0.390   1.741   5.284
  608SOL    HW1 2282   0.299   1.782   5.282
  608SOL    HW2 2283   0.383   1.647   5.316
  609SOL     OW 2284   1.674   0.883   4.978
  609SOL    HW1 2285   1.647   0.794   4.941
  609SOL    HW2 2286   1.675   0.951   4.905
  610SOL     OW 2287   1.225   0.325   4.173
  610SOL    HW1 2288   1.290   0.251   4.162
  610SOL    HW2 2289   1.245   0.375   4.257
  611SOL     OW 2290   0.594   0.745   4.376
  611SOL    HW1 2291   0.644   0.830   4.357
  611SOL    HW2 2292   0.506   0.747   4.328
  612SOL     OW 2293   1.777   0.342   5.366
  612SOL    HW1 2294   1.760   0.373   5.272
  612SOL    HW2 2295   1.693   0.305   5.404
  613SOL     OW 2296   1.730   0.934   5.241
  613SOL    HW1 2297   1.768   1.025   5.256
  613SOL    HW2 2298   1.722   0.917   5.142
  614SOL     OW 2299   0.859   1.374   3.740
  614SOL    HW1 2300   0.813   1.389   3.828
  614SOL    HW2 2301   0.903   1.459   3.710
  615SOL     OW 2302   0.661   1.790   4.677
  615SOL    HW1 2303   0.615   1.878   4.664
  615SOL    HW2 2304   0.760   1.802   4.670
  616SOL     OW 2305   0.859   0.956   4.585
  616SOL    HW1 2306   0.913   0.887   4.633
  616SOL    HW2 2307   0.827   1.025   4.651
  617SOL     OW 2308   1.083   0.984   3.811
  617SOL    HW1 2309   1.060   1.037   3.729
  617SOL    HW2 2310   1.164   0.928   3.792
  618SOL     OW 2311   1.861   1.569   4.575
  618SOL    HW1 2312   1.790   1.557   4.505
  618SOL    HW2 2313   1.862   1.490   4.635
  619SOL     OW 2314   0.221   1.314   5.568
  619SOL    HW1 2315   0.156   1.241   5.547
  619SOL    HW2 2316   0.225   1.328   5.666
  620SOL     OW 2317   0.079   1.240   4.377
  620SOL    HW1 2318   0.078   1.193   4.465
  620SOL    HW2 2319   0.161   1.212   4.326
  621SOL     OW 2320   0.672   1.391   5.348
  621SOL    HW1 2321   0.594   1.341   5.386
  621SOL    HW2 2322   0.669   1.486   5.379
  622SOL     OW 2323   1.824   0.192   4.951
  622SOL    HW1 2324   1.820   0.102   4.995
  622SOL    HW2 2325   1.827   0.181   4.852
  623SOL     OW 2326   0.428   0.424   4.244
  623SOL    HW1 2327   0.458   0.352   4.182
  623SOL    HW2 2328   0.389   0.384   4.327
  624SOL     OW 2329   1.705   1.487   4.828
  624SOL    HW1 2330   1.612   1.462   4.801
  624SOL    HW2 2331   1.731   1.437   4.910
  625SOL     OW 2332   0.317   0.547   5.004
  625SOL    HW1 2333   0.355   0.488   5.076
  625SOL    HW2 2334   0.357   0.521   4.916
  626SOL     OW 2335   0.812   1.586   4.411
  626SOL    HW1 2336   0.844   1.596   4.317
  626SOL    HW2 2337   0.733   1.524   4.413
  627SOL     OW 2338   1.424   0.214   4.836
  627SOL    HW1 2339   1.476   0.149   4.891
  627SOL    HW2 2340   1.375   0.277   4.897
  628SOL     OW 2341   1.001   0.034   4.878
  628SOL    HW1 2342   0.938  -0.038   4.847
  628SOL    HW2 2343   1.094  -0.002   4.878
  629SOL     OW 2344   0.770   1.330   4.025
  629SOL    HW1 2345   0.724   1.243   4.042
  629SOL    HW2 2346   0.861   1.327   4.066
  630SOL     OW 2347   0.618   1.567   5.008
  630SOL    HW1 2348   0.613   1.649   5.065
  630SOL    HW2 2349   0.707   1.564   4.963
  631SOL     OW 2350   1.352   0.052   3.892
  631SOL    HW1 2351   1.387   0.011   3.808
  631SOL    HW2 2352   1.262   0.014   3.912
  632SOL     OW 2353   1.300   0.453   4.415
  632SOL    HW1 2354   1.241   0.533   4.419
  632SOL    HW2 2355   1.315   0.418   4.508
  633SOL     OW 2356   1.593   0.221   4.606
  633SOL    HW1 2357   1.509   0.220   4.660
  633SOL    HW2 2358   1.595   0.304   4.550
  634SOL     OW 2359   0.039   1.077   4.024
  634SOL    HW1 2360   0.138   1.066   4.015
  634SOL    HW2 2361  -0.001   0.991   4.056
  635SOL     OW 2362   0.875   1.646   4.061
  635SOL    HW1 2363   0.798   1.611   4.007
  635SOL    HW2 2364   0.843   1.717   4.123
  636SOL     OW 2365   0.230   0.628   5.699
  636SOL    HW1 2366   0.137   0.626   5.736
  636SOL    HW2 2367   0.231   0.589   5.607
  637SOL     OW 2368   0.225   0.275   6.582
  637SOL    HW1 2369   0.260   0.258   6.674
  637SOL    HW2 2370   0.137   0.230   6.570
  638SOL     OW 2371   0.019   0.368   6.233
  638SOL    HW1 2372  -0.063   0.411   6.272
  638SOL    HW2 2373  -0.009   0.295   6.170
  639SOL     OW 2374   0.569   1.275   6.751
  639SOL    HW1 2375   0.476   1.268   6.714
  639SOL    HW2 2376   0.580   1.364   6.795
  640SOL     OW 2377   1.135   0.703   6.303
  640SOL    HW1 2378   1.192   0.781   6.278
  640SOL    HW2 2379   1.075   0.729   6.379
  641SOL     OW 2380   1.755   0.607   5.817
  641SOL    HW1 2381   1.743   0.594   5.718
  641SOL    HW2 2382   1.725   0.526   5.866
  642SOL     OW 2383   0.768   1.144   6.609
  642SOL    HW1 2384   0.690   1.161   6.669
  642SOL    HW2 2385   0.802   1.231   6.573
  643SOL     OW 2386   0.850   0.798   7.409
  643SOL    HW1 2387   0.846   0.874   7.474
  643SOL    HW2 2388   0.872   0.834   7.318
  644SOL     OW 2389   0.685   1.012   6.251
  644SOL    HW1 2390   0.754   0.996   6.321
  644SOL    HW2 2391   0.612   1.069   6.289
  645SOL     OW 2392   0.686   1.161   7.389
  645SOL    HW1 2393   0.746   1.240   7.403
  645SOL    HW2 2394   0.600   1.192   7.348
  646SOL     OW 2395   0.335   1.435   6.647
  646SOL    HW1 2396   0.257   1.404   6.594
  646SOL    HW2 2397   0.393   1.493   6.590
  647SOL     OW 2398   1.460   1.505   6.925
  647SOL    HW1 2399   1.484   1.599   6.951
  647SOL    HW2 2400   1.444   1.451   7.007
  648SOL     OW 2401   0.438   0.392   7.085
  648SOL    HW1 2402   0.520   0.336   7.094
  648SOL    HW2 2403   0.357   0.334   7.089
  649SOL     OW 2404   1.603   0.447   6.323
  649SOL    HW1 2405   1.529   0.493   6.273
  649SOL    HW2 2406   1.654   0.515   6.376
  650SOL     OW 2407   0.231   1.713   6.069
  650SOL    HW1 2408   0.265   1.790   6.123
  650SOL    HW2 2409   0.275   1.713   5.979
  651SOL     OW 2410   1.127   1.341   7.276
  651SOL    HW1 2411   1.174   1.341   7.364
  651SOL    HW2 2412   1.079   1.254   7.265
  652SOL     OW 2413   0.230   1.434   6.124
  652SOL    HW1 2414   0.204   1.530   6.124
  652SOL    HW2 2415   0.159   1.380   6.169
  653SOL     OW 2416   0.240   1.091   6.472
  653SOL    HW1 2417   0.254   1.007   6.524
  653SOL    HW2 2418   0.185   1.155   6.527
  654SOL     OW 2419   0.620   1.786   7.025
  654SOL    HW1 2420   0.528   1.769   7.060
  654SOL    HW2 2421   0.648   1.878   7.051
  655SOL     OW 2422   0.606   0.964   5.709
  655SOL    HW1 2423   0.613   1.048   5.655
  655SOL    HW2 2424   0.652   0.977   5.797
  656SOL     OW 2425   1.594   0.114   7.066
  656SOL    HW1 2426   1.576   0.181   6.994
  656SOL    HW2 2427   1.591   0.160   7.155
  657SOL     OW 2428   0.122   0.643   6.149
  657SOL    HW1 2429   0.077   0.555   6.166
  657SOL    HW2 2430   0.121   0.697   6.233
  658SOL     OW 2431   0.027   1.596   5.703
  658SOL    HW1 2432   0.008   1.500   5.724
  658SOL    HW2 2433  -0.006   1.654   5.778
  659SOL     OW 2434   1.689   0.922   6.198
  659SOL    HW1 2435   1.784   0.893   6.206
  659SOL    HW2 2436   1.681   0.987   6.123
  660SOL     OW 2437   1.641   1.108   6.018
  660SOL    HW1 2438   1.727   1.110   5.966
  660SOL    HW2 2439   1.655   1.155   6.106
  661SOL     OW 2440   0.113   0.737   7.183
  661SOL    HW1 2441   0.201   0.724   7.228
  661SOL    HW2 2442   0.100   0.834   7.161
  662SOL     OW 2443   0.613   1.365   6.312
  662SOL    HW1 2444   0.564   1.278   6.321
  662SOL    HW2 2445   0.590   1.408   6.225
  663SOL     OW 2446   1.293   1.228   7.009
  663SOL    HW1 2447   1.330   1.155   6.951
  663SOL    HW2 2448   1.345   1.233   7.094
  664SOL     OW 2449   0.809   0.004   6.088
  664SOL    HW1 2450   0.849   0.095   6.079
  664SOL    HW2 2451   0.709   0.012   6.094
  665SOL     OW 2452   0.197   0.976   6.850
  665SOL    HW1 2453   0.286   0.931   6.836
  665SOL    HW2 2454   0.124   0.911   6.831
  666SOL     OW 2455   1.525   0.999   5.776
  666SOL    HW1 2456   1.462   0.923   5.789
  666SOL    HW2 2457   1.573   1.017   5.862
  667SOL     OW 2458   1.187   1.792   7.202
  667SOL    HW1 2459   1.211   1.852   7.126
  667SOL    HW2 2460   1.194   1.697   7.172
  668SOL     OW 2461   0.317   0.251   7.387
  668SOL    HW1 2462   0.388   0.322   7.393
  668SOL    HW2 2463   0.229   0.290   7.415
  669SOL     OW 2464   1.466   1.417   6.539
  669SOL    HW1 2465   1.407   1.423   6.619
  669SOL    HW2 2466   1.451   1.329   6.493
  670SOL     OW 2467   0.598   0.729   5.856
  670SOL    HW1 2468   0.622   0.798   5.788
  670SOL    HW2 2469   0.520   0.762   5.910
  671SOL     OW 2470   1.281   0.345   6.530
  671SOL    HW1 2471   1.195   0.295   6.517
  671SOL    HW2 2472   1.343   0.291   6.586
  672SOL     OW 2473   1.576   1.662   5.893
  672SOL    HW1 2474   1.665   1.708   5.896
  672SOL    HW2 2475   1.555   1.638   5.798
  673SOL     OW 2476   0.807   0.605   7.051
  673SOL    HW1 2477   0.760   0.602   7.140
  673SOL    HW2 2478   0.756   0.550   6.985
  674SOL     OW 2479   1.394   0.469   7.260
  674SOL    HW1 2480   1.374   0.512   7.348
  674SOL    HW2 2481   1.472   0.407   7.269
  675SOL     OW 2482   0.973   0.890   7.158
  675SOL    HW1 2483   1.019   0.806   7.129
  675SOL    HW2 2484   0.917   0.924   7.083
  676SOL     OW 2485   0.991   0.410   6.828
  676SOL    HW1 2486   0.914   0.444   6.882
  676SOL    HW2 2487   0.957   0.359   6.749
  677SOL     OW 2488   1.041   0.701   6.015
  677SOL    HW1 2489   1.067   0.697   6.111
  677SOL    HW2 2490   0.956   0.650   6.001
  678SOL     OW 2491   0.076   0.811   6.375
  678SOL    HW1 2492   0.175   0.799   6.384
  678SOL    HW2 2493   0.052   0.906   6.396
  679SOL     OW 2494   0.130   1.821   7.157
  679SOL    HW1 2495   0.120   1.806   7.256
  679SOL    HW2 2496   0.044   1.857   7.121
  680SOL     OW 2497   0.865   0.348   5.781
  680SOL    HW1 2498   0.924   0.411   5.732
  680SOL    HW2 2499   0.884   0.254   5.752
  681SOL     OW 2500   1.719   0.585   7.417
  681SOL    HW1 2501   1.693   0.674   7.381
  681SOL    HW2 2502   1.717   0.517   7.344
  682SOL     OW 2503   1.362   1.144   6.131
  682SOL    HW1 2504   1.445   1.115   6.083
  682SOL    HW2 2505   1.313   1.211   6.075
  683SOL     OW 2506   0.550   0.196   6.471
  683SOL    HW1 2507   0.545   0.191   6.571
  683SOL    HW2 2508   0.552   0.292   6.442
  684SOL     OW 2509   1.008   1.456   6.063
  684SOL    HW1 2510   0.962   1.528   6.011
  684SOL    HW2 2511   1.004   1.476   6.161
  685SOL     OW 2512   0.351   1.801   6.439
  685SOL    HW1 2513   0.401   1.715   6.445
  685SOL    HW2 2514   0.416   1.878   6.436
  686SOL     OW 2515   1.795   1.066   6.459
  686SOL    HW1 2516   1.733   1.051   6.383
  686SOL    HW2 2517   1.743   1.077   6.544
  687SOL     OW 2518   1.227   1.550   7.092
  687SOL    HW1 2519   1.233   1.473   7.156
  687SOL    HW2 2520   1.175   1.524   7.012
  688SOL     OW 2521   0.321   0.943   5.828
  688SOL    HW1 2522   0.403   0.982   5.786
  688SOL    HW2 2523   0.294   0.861   5.779
  689SOL     OW 2524   1.458   0.735   6.314
  689SOL    HW1 2525   1.453   0.670   6.389
  689SOL    HW2 2526   1.538   0.794   6.327
  690SOL     OW 2527   0.461   1.266   7.313
  690SOL    HW1 2528   0.411   1.267   7.227
  690SOL    HW2 2529   0.398   1.248   7.389
  691SOL     OW 2530   1.111   1.776   5.823
  691SOL    HW1 2531   1.051   1.714   5.873
  691SOL    HW2 2532   1.142   1.732   5.738
  692SOL     OW 2533   0.202   0.285   7.084
  692SOL    HW1 2534   0.122   0.345   7.071
  692SOL    HW2 2535   0.192   0.236   7.170
  693SOL     OW 2536   1.632   1.377   5.667
  693SOL    HW1 2537   1.600   1.471   5.657
  693SOL    HW2 2538   1.556   1.314   5.655
  694SOL     OW 2539   0.464   1.743   5.909
  694SOL    HW1 2540   0.497   1.782   5.995
  694SOL    HW2 2541   0.540   1.736   5.844
  695SOL     OW 2542   1.400   0.107   6.012
  695SOL    HW1 2543   1.376   0.070   5.922
  695SOL    HW2 2544   1.499   0.123   6.016
  696SOL     OW 2545   0.249   1.785   6.827
  696SOL    HW1 2546   0.306   1.720   6.877
  696SOL    HW2 2547   0.233   1.752   6.734
  697SOL     OW 2548   0.940   1.698   6.490
  697SOL    HW1 2549   1.020   1.641   6.511
  697SOL    HW2 2550   0.891   1.658   6.413
  698SOL     OW 2551   0.382   0.700   6.066
  698SOL    HW1 2552   0.427   0.610   6.063
  698SOL    HW2 2553   0.288   0.689   6.099
  699SOL     OW 2554   1.547   0.222   7.315
  699SOL    HW1 2555   1.542   0.259   7.407
  699SOL    HW2 2556   1.475   0.153   7.303
  700SOL     OW 2557   0.614   0.122   5.703
  700SOL    HW1 2558   0.712   0.100   5.710
  700SOL    HW2 2559   0.583   0.105   5.610
  701SOL     OW 2560   0.781   0.264   7.335
  701SOL    HW1 2561   0.848   0.203   7.378
  701SOL    HW2 2562   0.708   0.283   7.400
  702SOL     OW 2563   0.888   1.514   6.781
  702SOL    HW1 2564   0.865   1.489   6.687
  702SOL    HW2 2565   0.949   1.445   6.820
  703SOL     OW 2566   1.351   0.590   7.019
  703SOL    HW1 2567   1.379   0.547   7.104
  703SOL    HW2 2568   1.376   0.686   7.020
  704SOL     OW 2569   0.803   1.402   6.510
  704SOL    HW1 2570   0.893   1.416   6.468
  704SOL    HW2 2571   0.732   1.404   6.439
  705SOL     OW 2572   0.922   0.503   6.485
  705SOL    HW1 2573   0.897   0.494   6.389
  705SOL    HW2 2574   0.970   0.421   6.516
  706SOL     OW 2575   0.539   0.064   6.098
  706SOL    HW1 2576   0.458   0.065   6.156
  706SOL    HW2 2577   0.542   0.147   6.043
  707SOL     OW 2578   1.434   1.188   5.627
  707SOL    HW1 2579   1.466   1.112   5.684
  707SOL    HW2 2580   1.342   1.215   5.657
  708SOL     OW 2581   0.297   0.035   5.757
  708SOL    HW1 2582   0.346   0.119   5.736
  708SOL    HW2 2583   0.359  -0.030   5.802
  709SOL     OW 2584   0.935   0.236   6.066
  709SOL    HW1 2585   0.887   0.277   5.988
  709SOL    HW2 2586   1.034   0.234   6.047
  710SOL     OW 2587   1.076   0.683   7.050
  710SOL    HW1 2588   0.996   0.622   7.053
  710SOL    HW2 2589   1.157   0.630   7.026
  711SOL     OW 2590   1.227   1.570   6.379
  711SOL    HW1 2591   1.248   1.644   6.314
  711SOL    HW2 2592   1.295   1.570   6.452
  712SOL     OW 2593   0.459   1.152   6.327
  712SOL    HW1 2594   0.388   1.125   6.392
  712SOL    HW2 2595   0.433   1.124   6.234
  713SOL     OW 2596   1.271   1.797   6.177
  713SOL    HW1 2597   1.315   1.861   6.113
  713SOL    HW2 2598   1.221   1.849   6.247
  714SOL     OW 2599   1.032   0.549   5.602
  714SOL    HW1 2600   0.991   0.631   5.563
  714SOL    HW2 2601   1.096   0.575   5.675
  715SOL     OW 2602   0.078   0.556   6.972
  715SOL    HW1 2603   0.170   0.555   6.931
  715SOL    HW2 2604   0.072   0.630   7.039
  716SOL     OW 2605   0.561   0.222   6.733
  716SOL    HW1 2606   0.599   0.138   6.770
  716SOL    HW2 2607   0.473   0.241   6.777
  717SOL     OW 2608   0.866   0.454   6.228
  717SOL    HW1 2609   0.834   0.526   6.166
  717SOL    HW2 2610   0.890   0.373   6.175
  718SOL     OW 2611   1.017   0.039   6.339
  718SOL    HW1 2612   0.945   0.044   6.270
  718SOL    HW2 2613   0.993  -0.030   6.408
  719SOL     OW 2614   1.429   1.173   6.453
  719SOL    HW1 2615   1.374   1.089   6.446
  719SOL    HW2 2616   1.455   1.202   6.361
  720SOL     OW 2617   1.466   0.590   6.578
  720SOL    HW1 2618   1.436   0.495   6.585
  720SOL    HW2 2619   1.539   0.606   6.644
  721SOL     OW 2620   1.857   0.833   5.963
  721SOL    HW1 2621   1.899   0.769   6.027
  721SOL    HW2 2622   1.819   0.782   5.885
  722SOL     OW 2623   0.488   1.385   5.760
  722SOL    HW1 2624   0.401   1.370   5.807
  722SOL    HW2 2625   0.471   1.411   5.665
  723SOL     OW 2626   1.664   1.280   6.243
  723SOL    HW1 2627   1.763   1.288   6.257
  723SOL    HW2 2628   1.619   1.364   6.274
  724SOL     OW 2629   1.390   0.575   5.664
  724SOL    HW1 2630   1.336   0.554   5.745
  724SOL    HW2 2631   1.481   0.534   5.673
  725SOL     OW 2632   0.527   0.256   5.914
  725SOL    HW1 2633   0.554   0.197   5.839
  725SOL    HW2 2634   0.527   0.351   5.883
  726SOL     OW 2635   1.754   1.223   7.174
  726SOL    HW1 2636   1.845   1.184   7.161
  726SOL    HW2 2637   1.762   1.319   7.198
  727SOL     OW 2638   1.064   1.347   6.926
  727SOL    HW1 2639   0.984   1.324   6.981
  727SOL    HW2 2640   1.147   1.321   6.975
  728SOL     OW 2641   1.111   1.195   6.686
  728SOL    HW1 2642   1.071   1.239   6.767
  728SOL    HW2 2643   1.070   1.232   6.603
  729SOL     OW 2644   1.638   1.099   6.665
  729SOL    HW1 2645   1.643   1.180   6.724
  729SOL    HW2 2646   1.552   1.101   6.614
  730SOL     OW 2647   0.915   0.089   6.988
  730SOL    HW1 2648   0.940   0.069   6.893
  730SOL    HW2 2649   0.987   0.145   7.030
  731SOL     OW 2650   0.980   1.116   7.305
  731SOL    HW1 2651   0.881   1.122   7.315
  731SOL    HW2 2652   1.003   1.036   7.249
  732SOL     OW 2653   0.705   1.050   5.954
  732SOL    HW1 2654   0.691   1.057   6.053
  732SOL    HW2 2655   0.789   0.999   5.936
  733SOL     OW 2656   0.410   0.813   6.837
  733SOL    HW1 2657   0.496   0.825   6.887
  733SOL    HW2 2658   0.368   0.726   6.864
  734SOL     OW 2659   1.274   0.386   6.848
  734SOL    HW1 2660   1.295   0.460   6.912
  734SOL    HW2 2661   1.185   0.403   6.805
  735SOL     OW 2662   0.064   1.564   6.917
  735SOL    HW1 2663   0.018   1.646   6.883
  735SOL    HW2 2664   0.162   1.583   6.926
  736SOL     OW 2665   0.367   1.100   6.087
  736SOL    HW1 2666   0.360   1.183   6.031
  736SOL    HW2 2667   0.371   1.020   6.027
  737SOL     OW 2668   0.566   0.537   6.451
  737SOL    HW1 2669   0.578   0.603   6.377
  737SOL    HW2 2670   0.612   0.571   6.534
  738SOL     OW 2671   1.252   1.348   5.974
  738SOL    HW1 2672   1.302   1.425   6.014
  738SOL    HW2 2673   1.157   1.350   6.006
  739SOL     OW 2674   1.272   1.445   6.728
  739SOL    HW1 2675   1.319   1.458   6.815
  739SOL    HW2 2676   1.206   1.371   6.737
  740SOL     OW 2677   1.582   0.639   6.058
  740SOL    HW1 2678   1.551   0.700   6.131
  740SOL    HW2 2679   1.632   0.691   5.989
  741SOL     OW 2680   0.354   1.510   6.915
  741SOL    HW1 2681   0.333   1.466   6.828
  741SOL    HW2 2682   0.451   1.536   6.918
  742SOL     OW 2683   0.402   0.751   7.184
  742SOL    HW1 2684   0.470   0.806   7.137
  742SOL    HW2 2685   0.442   0.663   7.211
  743SOL     OW 2686   1.587   0.779   7.256
  743SOL    HW1 2687   1.495   0.817   7.251
  743SOL    HW2 2688   1.647   0.826   7.191
  744SOL     OW 2689   1.013   0.105   7.356
  744SOL    HW1 2690   1.019   0.190   7.304
  744SOL    HW2 2691   1.045   0.029   7.299
  745SOL     OW 2692   0.504   0.050   7.326
  745SOL    HW1 2693   0.462  -0.007   7.256
  745SOL    HW2 2694   0.438   0.119   7.358
  746SOL     OW 2695   0.573   0.870   6.615
  746SOL    HW1 2696   0.617   0.959   6.606
  746SOL    HW2 2697   0.510   0.870   6.692
  747SOL     OW 2698   1.360   0.862   6.631
  747SOL    HW1 2699   1.285   0.862   6.565
  747SOL    HW2 2700   1.397   0.770   6.640
  748SOL     OW 2701   1.209   0.525   5.861
  748SOL    HW1 2702   1.222   0.441   5.915
  748SOL    HW2 2703   1.180   0.599   5.921
  749SOL     OW 2704   0.307   0.213   6.817
  749SOL    HW1 2705   0.284   0.250   6.907
  749SOL    HW2 2706   0.277   0.118   6.811
  750SOL     OW 2707   0.037   1.310   6.868
  750SOL    HW1 2708   0.090   1.261   6.936
  750SOL    HW2 2709   0.059   1.408   6.873
  751SOL     OW 2710   0.732   0.634   6.650
  751SOL    HW1 2711   0.791   0.608   6.574
  751SOL    HW2 2712   0.704   0.730   6.639
  752SOL     OW 2713   1.728   0.935   7.440
  752SOL    HW1 2714   1.682   0.928   7.351
  752SOL    HW2 2715   1.666   0.979   7.506
  753SOL     OW 2716   0.307   0.063   6.204
  753SOL    HW1 2717   0.296   0.157   6.237
  753SOL    HW2 2718   0.302   0.000   6.281
  754SOL     OW 2719   1.622   0.367   5.960
  754SOL    HW1 2720   1.624   0.291   6.024
  754SOL    HW2 2721   1.574   0.444   6.000
  755SOL     OW 2722   1.023   0.766   6.552
  755SOL    HW1 2723   1.038   0.787   6.648
  755SOL    HW2 2724   0.993   0.671   6.543
  756SOL     OW 2725   0.980   1.573   7.286
  756SOL    HW1 2726   0.960   1.617   7.198
  756SOL    HW2 2727   1.019   1.482   7.270
  757SOL     OW 2728   0.350   0.898   7.390
  757SOL    HW1 2729   0.426   0.942   7.438
  757SOL    HW2 2730   0.385   0.851   7.308
  758SOL     OW 2731   1.540   0.274   5.711
  758SOL    HW1 2732   1.479   0.199   5.734
  758SOL    HW2 2733   1.562   0.326   5.794
  759SOL     OW 2734   1.303   0.838   5.628
  759SOL    HW1 2735   1.337   0.745   5.643
  759SOL    HW2 2736   1.321   0.865   5.533
  760SOL     OW 2737   1.068   1.333   6.435
  760SOL    HW1 2738   1.075   1.249   6.380
  760SOL    HW2 2739   1.130   1.402   6.399
  761SOL     OW 2740   0.319   0.810   6.535
  761SOL    HW1 2741   0.412   0.846   6.540
  761SOL    HW2 2742   0.313   0.725   6.587
  762SOL     OW 2743   0.339   0.509   6.592
  762SOL    HW1 2744   0.287   0.426   6.575
  762SOL    HW2 2745   0.416   0.514   6.528
  763SOL     OW 2746   1.138   0.380   7.264
  763SOL    HW1 2747   1.093   0.443   7.328
  763SOL    HW2 2748   1.231   0.411   7.247
  764SOL     OW 2749   1.160   0.207   7.063
  764SOL    HW1 2750   1.160   0.271   7.140
  764SOL    HW2 2751   1.188   0.255   6.980
  765SOL     OW 2752   0.008   1.326   5.786
  765SOL    HW1 2753  -0.085   1.347   5.755
  765SOL    HW2 2754   0.018   1.227   5.799
  766SOL     OW 2755   0.088   1.801   6.513
  766SOL    HW1 2756   0.046   1.715   6.486
  766SOL    HW2 2757   0.182   1.804   6.479
  767SOL     OW 2758   0.504   1.568   6.496
  767SOL    HW1 2759   0.570   1.642   6.505
  767SOL    HW2 2760   0.548   1.489   6.454
  768SOL     OW 2761   1.002   0.796   6.824
  768SOL    HW1 2762   1.043   0.764   6.910
  768SOL    HW2 2763   0.906   0.769   6.821
  769SOL     OW 2764   0.040   0.544   6.700
  769SOL    HW1 2765   0.125   0.511   6.659
  769SOL    HW2 2766   0.053   0.559   6.798
  770SOL     OW 2767   0.189   0.520   7.308
  770SOL    HW1 2768   0.248   0.480   7.238
  770SOL    HW2 2769   0.131   0.591   7.267
  771SOL     OW 2770   1.369   0.950   7.246
  771SOL    HW1 2771   1.408   1.039   7.266
  771SOL    HW2 2772   1.379   0.930   7.149
  772SOL     OW 2773   0.815   0.572   5.911
  772SOL    HW1 2774   0.822   0.483   5.865
  772SOL    HW2 2775   0.721   0.606   5.903
  773SOL     OW 2776   1.657   0.604   6.792
  773SOL    HW1 2777   1.619   0.535   6.854
  773SOL    HW2 2778   1.739   0.568   6.748
  774SOL     OW 2779   0.252   1.564   7.330
  774SOL    HW1 2780   0.222   1.621   7.406
  774SOL    HW2 2781   0.245   1.467   7.356
  775SOL     OW 2782   0.671   0.464   6.855
  775SOL    HW1 2783   0.637   0.375   6.825
  775SOL    HW2 2784   0.697   0.518   6.775
  776SOL     OW 2785   0.930   1.678   7.051
  776SOL    HW1 2786   0.906   1.660   6.956
  776SOL    HW2 2787   0.960   1.772   7.061
  777SOL     OW 2788   0.473   0.500   5.777
  777SOL    HW1 2789   0.534   0.580   5.781
  777SOL    HW2 2790   0.378   0.531   5.784
  778SOL     OW 2791   0.159   1.137   7.052
  778SOL    HW1 2792   0.181   1.076   7.128
  778SOL    HW2 2793   0.169   1.088   6.966
  779SOL     OW 2794   1.347   1.059   6.820
  779SOL    HW1 2795   1.371   0.996   6.746
  779SOL    HW2 2796   1.257   1.099   6.802
  780SOL     OW 2797   1.302   0.855   5.895
  780SOL    HW1 2798   1.216   0.824   5.937
  780SOL    HW2 2799   1.298   0.841   5.796
  781SOL     OW 2800   1.252   1.731   6.714
  781SOL    HW1 2801   1.336   1.736   6.660
  781SOL    HW2 2802   1.229   1.635   6.732
  782SOL     OW 2803   0.083   1.258   6.608
  782SOL    HW1 2804   0.078   1.257   6.708
  782SOL    HW2 2805   0.000   1.217   6.570
  783SOL     OW 2806   0.688   1.662   7.302
  783SOL    HW1 2807   0.632   1.743   7.311
  783SOL    HW2 2808   0.740   1.666   7.216
  784SOL     OW 2809   1.726   0.135   6.109
  784SOL    HW1 2810   1.799   0.118   6.042
  784SOL    HW2 2811   1.695   0.048   6.147
  785SOL     OW 2812   1.388   1.573   6.063
  785SOL    HW1 2813   1.455   1.585   5.989
  785SOL    HW2 2814   1.348   1.662   6.086
  786SOL     OW 2815   0.130   1.794   7.437
  786SOL    HW1 2816   0.089   1.720   7.490
  786SOL    HW2 2817   0.194   1.845   7.495
  787SOL     OW 2818   1.280   0.927   6.258
  787SOL    HW1 2819   1.340   0.846   6.260
  787SOL    HW2 2820   1.320   0.996   6.198
  788SOL     OW 2821   0.830   1.273   7.008
  788SOL    HW1 2822   0.825   1.306   7.103
  788SOL    HW2 2823   0.744   1.292   6.962
  789SOL     OW 2824   0.672   1.616   5.740
  789SOL    HW1 2825   0.681   1.626   5.641
  789SOL    HW2 2826   0.632   1.527   5.761
  790SOL     OW 2827   1.650   1.720   6.980
  790SOL    HW1 2828   1.703   1.730   6.896
  790SOL    HW2 2829   1.623   1.810   7.014
  791SOL     OW 2830   1.841   0.175   6.549
  791SOL    HW1 2831   1.880   0.090   6.513
  791SOL    HW2 2832   1.743   0.177   6.530
  792SOL     OW 2833   0.263   0.326   6.306
  792SOL    HW1 2834   0.184   0.377   6.272
  792SOL    HW2 2835   0.254   0.311   6.404
  793SOL     OW 2836   1.194   1.612   5.617
  793SOL    HW1 2837   1.200   1.519   5.654
  793SOL    HW2 2838   1.135   1.612   5.537
  794SOL     OW 2839   0.822   1.002   6.958
  794SOL    HW1 2840   0.862   1.001   6.866
  794SOL    HW2 2841   0.832   1.094   6.998
  795SOL     OW 2842   0.916   0.910   5.877
  795SOL    HW1 2843   0.979   0.948   5.809
  795SOL    HW2 2844   0.956   0.827   5.916
  796SOL     OW 2845   1.504   1.607   5.630
  796SOL    HW1 2846   1.412   1.644   5.637
  796SOL    HW2 2847   1.542   1.627   5.540
  797SOL     OW 2848   0.372   1.288   7.076
  797SOL    HW1 2849   0.359   1.381   7.042
  797SOL    HW2 2850   0.288   1.236   7.063
  798SOL     OW 2851   1.614   1.292   6.875
  798SOL    HW1 2852   1.674   1.295   6.955
  798SOL    HW2 2853   1.539   1.356   6.888
  799SOL     OW 2854   1.039   1.098   6.282
  799SOL    HW1 2855   0.969   1.051   6.336
  799SOL    HW2 2856   1.098   1.030   6.239
  800SOL     OW 2857   1.014   0.236   6.557
  800SOL    HW1 2858   1.006   0.200   6.464
  800SOL    HW2 2859   1.012   0.160   6.622
  801SOL     OW 2860   0.590   1.487   6.077
  801SOL    HW1 2861   0.632   1.429   6.007
  801SOL    HW2 2862   0.546   1.566   6.033
  802SOL     OW 2863   1.709   0.385   6.967
  802SOL    HW1 2864   1.782   0.454   6.971
  802SOL    HW2 2865   1.737   0.310   6.908
  803SOL     OW 2866   0.255   1.348   5.876
  803SOL    HW1 2867   0.159   1.349   5.849
  803SOL    HW2 2868   0.267   1.401   5.960
  804SOL     OW 2869   0.105   1.013   7.312
  804SOL    HW1 2870   0.028   0.980   7.366
  804SOL    HW2 2871   0.190   0.983   7.354
  805SOL     OW 2872   0.672   0.203   7.075
  805SOL    HW1 2873   0.762   0.187   7.035
  805SOL    HW2 2874   0.680   0.208   7.174
  806SOL     OW 2875   0.075   0.345   5.619
  806SOL    HW1 2876  -0.017   0.317   5.590
  806SOL    HW2 2877   0.106   0.422   5.563
  807SOL     OW 2878   1.440   0.856   6.984
  807SOL    HW1 2879   1.383   0.908   6.921
  807SOL    HW2 2880   1.536   0.868   6.960
  808SOL     OW 2881   0.072   0.166   5.904
  808SOL    HW1 2882   0.055   0.249   5.850
  808SOL    HW2 2883   0.162   0.129   5.882
  809SOL     OW 2884   1.183   1.335   5.705
  809SOL    HW1 2885   1.084   1.324   5.707
  809SOL    HW2 2886   1.217   1.350   5.798
  810SOL     OW 2887   0.613   0.842   7.017
  810SOL    HW1 2888   0.669   0.923   7.000
  810SOL    HW2 2889   0.672   0.762   7.020
  811SOL     OW 2890   0.716   0.565   7.294
  811SOL    HW1 2891   0.735   0.630   7.368
  811SOL    HW2 2892   0.776   0.485   7.303
  812SOL     OW 2893   1.450   1.220   7.219
  812SOL    HW1 2894   1.441   1.210   7.318
  812SOL    HW2 2895   1.546   1.213   7.193
  813SOL     OW 2896   0.390   1.741   7.146
  813SOL    HW1 2897   0.299   1.782   7.144
  813SOL    HW2 2898   0.383   1.647   7.178
  814SOL     OW 2899   1.674   0.883   6.840
  814SOL    HW1 2900   1.647   0.794   6.803
  814SOL    HW2 2901   1.675   0.951   6.767
  815SOL     OW 2902   1.225   0.325   6.035
  815SOL    HW1 2903   1.290   0.251   6.024
  815SOL    HW2 2904   1.245   0.375   6.119
  816SOL     OW 2905   0.594   0.745   6.238
  816SOL    HW1 2906   0.644   0.830   6.219
  816SOL    HW2 2907   0.506   0.747   6.190
  817SOL     OW 2908   1.777   0.342   7.228
  817SOL    HW1 2909   1.760   0.373   7.134
  817SOL    HW2 2910   1.693   0.305   7.266
  818SOL     OW 2911   1.730   0.934   7.103
  818SOL    HW1 2912   1.768   1.025   7.118
  818SOL    HW2 2913   1.722   0.917   7.004
  819SOL     OW 2914   0.859   1.374   5.602
  819SOL    HW1 2915   0.813   1.389   5.690
  819SOL    HW2 2916   0.903   1.459   5.572
  820SOL     OW 2917   0.661   1.790   6.539
  820SOL    HW1 2918   0.615   1.878   6.526
  820SOL    HW2 2919   0.760   1.802   6.532
  821SOL     OW 2920   0.859   0.956   6.447
  821SOL    HW1 2921   0.913   0.887   6.495
  821SOL    HW2 2922   0.827   1.025   6.513
  822SOL     OW 2923   1.083   0.984   5.673
  822SOL    HW1 2924   1.060   1.037   5.591
  822SOL    HW2 2925   1.164   0.928   5.654
  823SOL     OW 2926   0.221   1.314   7.430
  823SOL    HW1 2927   0.156   1.241   7.409
  823SOL    HW2 2928   0.225   1.328   7.528
  824SOL     OW 2929   0.079   1.240   6.239
  824SOL    HW1 2930   0.078   1.193   6.327
  824SOL    HW2 2931   0.161   1.212   6.188
  825SOL     OW 2932   0.672   1.391   7.210
  825SOL    HW1 2933   0.594   1.341   7.248
  825SOL    HW2 2934   0.669   1.486   7.241
  826SOL     OW 2935   1.824   0.192   6.813
  826SOL    HW1 2936   1.820   0.102   6.857
  826SOL    HW2 2937   1.827   0.181   6.714
  827SOL     OW 2938   0.428   0.424   6.106
  827SOL    HW1 2939   0.458   0.352   6.044
  827SOL    HW2 2940   0.389   0.384   6.189
  828SOL     OW 2941   0.317   0.547   6.866
  828SOL    HW1 2942   0.355   0.488   6.938
  828SOL    HW2 2943   0.357   0.521   6.778
  829SOL     OW 2944   0.812   1.586   6.273
  829SOL    HW1 2945   0.844   1.596   6.179
  829SOL    HW2 2946   0.733   1.524   6.275
  830SOL     OW 2947   1.424   0.214   6.698
  830SOL    HW1 2948   1.476   0.149   6.753
  830SOL    HW2 2949   1.375   0.277   6.759
  831SOL     OW 2950   1.001   0.034   6.740
  831SOL    HW1 2951   0.938  -0.038   6.709
  831SOL    HW2 2952   1.094  -0.002   6.740
  832SOL     OW 2953   0.770   1.330   5.887
  832SOL    HW1 2954   0.724   1.243   5.904
  832SOL    HW2 2955   0.861   1.327   5.928
  833SOL     OW 2956   0.618   1.567   6.870
  833SOL    HW1 2957   0.613   1.649   6.927
  833SOL    HW2 2958   0.707   1.564   6.825
  834SOL     OW 2959   1.352   0.052   5.754
  834SOL    HW1 2960   1.387   0.011   5.670
  834SOL    HW2 2961   1.262   0.014   5.774
  835SOL     OW 2962   1.300   0.453   6.277
  835SOL    HW1 2963   1.241   0.533   6.281
  835SOL    HW2 2964   1.315   0.418   6.370
  836SOL     OW 2965   1.593   0.221   6.468
  836SOL    HW1 2966   1.509   0.220   6.522
  836SOL    HW2 2967   1.595   0.304   6.412
  837SOL     OW 2968   0.039   1.077   5.886
  837SOL    HW1 2969   0.138   1.066   5.877
  837SOL    HW2 2970  -0.001   0.991   5.918
  838SOL     OW 2971   0.875   1.646   5.923
  838SOL    HW1 2972   0.798   1.611   5.869
  838SOL    HW2 2973   0.843   1.717   5.985
  839SOL     OW 2974   0.230   0.628   7.561
  839SOL    HW1 2975   0.137   0.626   7.598
  839SOL    HW2 2976   0.231   0.589   7.469
  840SOL     OW 2977   0.225   0.275   8.444
  840SOL    HW1 2978   0.260   0.258   8.536
  840SOL    HW2 2979   0.137   0.230   8.432
  841SOL     OW 2980   0.019   0.368   8.095
  841SOL    HW1 2981  -0.063   0.411   8.134
  841SOL    HW2 2982  -0.009   0.295   8.032
  842SOL     OW 2983   0.569   1.275   8.613
  842SOL    HW1 2984   0.476   1.268   8.576
  842SOL    HW2 2985   0.580   1.364   8.657
  843SOL     OW 2986   1.555   1.511   8.151
  843SOL    HW1 2987   1.498   1.495   8.232
  843SOL    HW2 2988   1.496   1.521   8.071
  844SOL     OW 2989   1.135   0.703   8.165
  844SOL    HW1 2990   1.192   0.781   8.140
  844SOL    HW2 2991   1.075   0.729   8.241
  845SOL     OW 2992   1.755   0.607   7.679
  845SOL    HW1 2993   1.743   0.594   7.580
  845SOL    HW2 2994   1.725   0.526   7.728
  846SOL     OW 2995   0.768   1.144   8.471
  846SOL    HW1 2996   0.690   1.161   8.531
  846SOL    HW2 2997   0.802   1.231   8.435
  847SOL     OW 2998   0.850   0.798   9.271
  847SOL    HW1 2999   0.846   0.874   9.336
  847SOL    HW2 3000   0.872   0.834   9.180
  848SOL     OW 3001   0.685   1.012   8.113
  848SOL    HW1 3002   0.754   0.996   8.183
  848SOL    HW2 3003   0.612   1.069   8.151
  849SOL     OW 3004   0.686   1.161   9.251
  849SOL    HW1 3005   0.746   1.240   9.265
  849SOL    HW2 3006   0.600   1.192   9.210
  850SOL     OW 3007   0.335   1.435   8.509
  850SOL    HW1 3008   0.257   1.404   8.456
  850SOL    HW2 3009   0.393   1.493   8.452
  851SOL     OW 3010   1.460   1.505   8.787
  851SOL    HW1 3011   1.484   1.599   8.813
  851SOL    HW2 3012   1.444   1.451   8.869
  852SOL     OW 3013   0.438   0.392   8.947
  852SOL    HW1 3014   0.520   0.336   8.956
  852SOL    HW2 3015   0.357   0.334   8.951
  853SOL     OW 3016   1.603   0.447   8.185
  853SOL    HW1 3017   1.529   0.493   8.135
  853SOL    HW2 3018   1.654   0.515   8.238
  854SOL     OW 3019   0.231   1.713   7.931
  854SOL    HW1 3020   0.265   1.790   7.985
  854SOL    HW2 3021   0.275   1.713   7.841
  855SOL     OW 3022   1.127   1.341   9.138
  855SOL    HW1 3023   1.174   1.341   9.226
  855SOL    HW2 3024   1.079   1.254   9.127
  856SOL     OW 3025   0.230   1.434   7.986
  856SOL    HW1 3026   0.204   1.530   7.986
  856SOL    HW2 3027   0.159   1.380   8.031
  857SOL     OW 3028   0.240   1.091   8.334
  857SOL    HW1 3029   0.254   1.007   8.386
  857SOL    HW2 3030   0.185   1.155   8.389
  858SOL     OW 3031   0.620   1.786   8.887
  858SOL    HW1 3032   0.528   1.769   8.922
  858SOL    HW2 3033   0.648   1.878   8.913
  859SOL     OW 3034   0.606   0.964   7.571
  859SOL    HW1 3035   0.613   1.048   7.517
  859SOL    HW2 3036   0.652   0.977   7.659
  860SOL     OW 3037   1.594   0.114   8.928
  860SOL    HW1 3038   1.576   0.181   8.856
  860SOL    HW2 3039   1.591   0.160   9.017
  861SOL     OW 3040   0.122   0.643   8.011
  861SOL    HW1 3041   0.077   0.555   8.028
  861SOL    HW2 3042   0.121   0.697   8.095
  862SOL     OW 3043   0.027   1.596   7.565
  862SOL    HW1 3044   0.008   1.500   7.586
  862SOL    HW2 3045  -0.006   1.654   7.640
  863SOL     OW 3046   1.689   0.922   8.060
  863SOL    HW1 3047   1.784   0.893   8.068
  863SOL    HW2 3048   1.681   0.987   7.985
  864SOL     OW 3049   1.641   1.108   7.880
  864SOL    HW1 3050   1.727   1.110   7.828
  864SOL    HW2 3051   1.655   1.155   7.968
  865SOL     OW 3052   0.113   0.737   9.045
  865SOL    HW1 3053   0.201   0.724   9.090
  865SOL    HW2 3054   0.100   0.834   9.023
  866SOL     OW 3055   0.613   1.365   8.174
  866SOL    HW1 3056   0.564   1.278   8.183
  866SOL    HW2 3057   0.590   1.408   8.087
  867SOL     OW 3058   1.293   1.228   8.871
  867SOL    HW1 3059   1.330   1.155   8.813
  867SOL    HW2 3060   1.345   1.233   8.956
  868SOL     OW 3061   0.809   0.004   7.950
  868SOL    HW1 3062   0.849   0.095   7.941
  868SOL    HW2 3063   0.709   0.012   7.956
  869SOL     OW 3064   0.197   0.976   8.712
  869SOL    HW1 3065   0.286   0.931   8.698
  869SOL    HW2 3066   0.124   0.911   8.693
  870SOL     OW 3067   1.525   0.999   7.638
  870SOL    HW1 3068   1.462   0.923   7.651
  870SOL    HW2 3069   1.573   1.017   7.724
  871SOL     OW 3070   1.187   1.792   9.064
  871SOL    HW1 3071   1.211   1.852   8.988
  871SOL    HW2 3072   1.194   1.697   9.034
  872SOL     OW 3073   0.317   0.251   9.249
  872SOL    HW1 3074   0.388   0.322   9.255
  872SOL    HW2 3075   0.229   0.290   9.277
  873SOL     OW 3076   1.466   1.417   8.401
  873SOL    HW1 3077   1.407   1.423   8.481
  873SOL    HW2 3078   1.451   1.329   8.355
  874SOL     OW 3079   1.667   1.714   8.020
  874SOL    HW1 3080   1.626   1.691   7.932
  874SOL    HW2 3081   1.649   1.640   8.085
  875SOL     OW 3082   0.598   0.729   7.718
  875SOL    HW1 3083   0.622   0.798   7.650
  875SOL    HW2 3084   0.520   0.762   7.772
  876SOL     OW 3085   1.281   0.345   8.392
  876SOL    HW1 3086   1.195   0.295   8.379
  876SOL    HW2 3087   1.343   0.291   8.448
  877SOL     OW 3088   0.807   0.605   8.913
  877SOL    HW1 3089   0.760   0.602   9.002
  877SOL    HW2 3090   0.756   0.550   8.847
  878SOL     OW 3091   1.394   0.469   9.122
  878SOL    HW1 3092   1.374   0.512   9.210
  878SOL    HW2 3093   1.472   0.407   9.131
  879SOL     OW 3094   0.973   0.890   9.020
  879SOL    HW1 3095   1.019   0.806   8.991
  879SOL    HW2 3096   0.917   0.924   8.945
  880SOL     OW 3097   0.991   0.410   8.690
  880SOL    HW1 3098   0.914   0.444   8.744
  880SOL    HW2 3099   0.957   0.359   8.611
  881SOL     OW 3100   1.041   0.701   7.877
  881SOL    HW1 3101   1.067   0.697   7.973
  881SOL    HW2 3102   0.956   0.650   7.863
  882SOL     OW 3103   0.076   0.811   8.237
  882SOL    HW1 3104   0.175   0.799   8.246
  882SOL    HW2 3105   0.052   0.906   8.258
  883SOL     OW 3106   0.130   1.821   9.019
  883SOL    HW1 3107   0.120   1.806   9.118
  883SOL    HW2 3108   0.044   1.857   8.983
  884SOL     OW 3109   0.865   0.348   7.643
  884SOL    HW1 3110   0.924   0.411   7.594
  884SOL    HW2 3111   0.884   0.254   7.614
  885SOL     OW 3112   1.719   0.585   9.279
  885SOL    HW1 3113   1.693   0.674   9.243
  885SOL    HW2 3114   1.717   0.517   9.206
  886SOL     OW 3115   1.362   1.144   7.993
  886SOL    HW1 3116   1.445   1.115   7.945
  886SOL    HW2 3117   1.313   1.211   7.937
  887SOL     OW 3118   0.550   0.196   8.333
  887SOL    HW1 3119   0.545   0.191   8.433
  887SOL    HW2 3120   0.552   0.292   8.304
  888SOL     OW 3121   1.008   1.456   7.925
  888SOL    HW1 3122   0.962   1.528   7.873
  888SOL    HW2 3123   1.004   1.476   8.023
  889SOL     OW 3124   0.351   1.801   8.301
  889SOL    HW1 3125   0.401   1.715   8.307
  889SOL    HW2 3126   0.416   1.878   8.298
  890SOL     OW 3127   1.795   1.066   8.321
  890SOL    HW1 3128   1.733   1.051   8.245
  890SOL    HW2 3129   1.743   1.077   8.406
  891SOL     OW 3130   1.227   1.550   8.954
  891SOL    HW1 3131   1.233   1.473   9.018
  891SOL    HW2 3132   1.175   1.524   8.874
  892SOL     OW 3133   0.321   0.943   7.690
  892SOL    HW1 3134   0.403   0.982   7.648
  892SOL    HW2 3135   0.294   0.861   7.641
  893SOL     OW 3136   1.458   0.735   8.176
  893SOL    HW1 3137   1.453   0.670   8.251
  893SOL    HW2 3138   1.538   0.794   8.189
  894SOL     OW 3139   0.461   1.266   9.175
  894SOL    HW1 3140   0.411   1.267   9.089
  894SOL    HW2 3141   0.398   1.248   9.251
  895SOL     OW 3142   1.111   1.776   7.685
  895SOL    HW1 3143   1.051   1.714   7.735
  895SOL    HW2 3144   1.142   1.732   7.600
  896SOL     OW 3145   0.202   0.285   8.946
  896SOL    HW1 3146   0.122   0.345   8.933
  896SOL    HW2 3147   0.192   0.236   9.032
  897SOL     OW 3148   0.464   1.743   7.771
  897SOL    HW1 3149   0.497   1.782   7.857
  897SOL    HW2 3150   0.540   1.736   7.706
  898SOL     OW 3151   1.400   0.107   7.874
  898SOL    HW1 3152   1.376   0.070   7.784
  898SOL    HW2 3153   1.499   0.123   7.878
  899SOL     OW 3154   0.249   1.785   8.689
  899SOL    HW1 3155   0.306   1.720   8.739
  899SOL    HW2 3156   0.233   1.752   8.596
  900SOL     OW 3157   0.940   1.698   8.352
  900SOL    HW1 3158   1.020   1.641   8.373
  900SOL    HW2 3159   0.891   1.658   8.275
  901SOL     OW 3160   0.382   0.700   7.928
  901SOL    HW1 3161   0.427   0.610   7.925
  901SOL    HW2 3162   0.288   0.689   7.961
  902SOL     OW 3163   1.547   0.222   9.177
  902SOL    HW1 3164   1.542   0.259   9.269
  902SOL    HW2 3165   1.475   0.153   9.165
  903SOL     OW 3166   0.614   0.122   7.565
  903SOL    HW1 3167   0.712   0.100   7.572
  903SOL    HW2 3168   0.583   0.105   7.472
  904SOL     OW 3169   0.781   0.264   9.197
  904SOL    HW1 3170   0.848   0.203   9.240
  904SOL    HW2 3171   0.708   0.283   9.262
  905SOL     OW 3172   0.888   1.514   8.643
  905SOL    HW1 3173   0.865   1.489   8.549
  905SOL    HW2 3174   0.949   1.445   8.682
  906SOL     OW 3175   1.351   0.590   8.881
  906SOL    HW1 3176   1.379   0.547   8.966
  906SOL    HW2 3177   1.376   0.686   8.882
  907SOL     OW 3178   0.803   1.402   8.372
  907SOL    HW1 3179   0.893   1.416   8.330
  907SOL    HW2 3180   0.732   1.404   8.301
  908SOL     OW 3181   0.922   0.503   8.347
  908SOL    HW1 3182   0.897   0.494   8.251
  908SOL    HW2 3183   0.970   0.421   8.378
  909SOL     OW 3184   0.539   0.064   7.960
  909SOL    HW1 3185   0.458   0.065   8.018
  909SOL    HW2 3186   0.542   0.147   7.905
  910SOL     OW 3187   1.434   1.188   7.489
  910SOL    HW1 3188   1.466   1.112   7.546
  910SOL    HW2 3189   1.342   1.215   7.519
  911SOL     OW 3190   0.297   0.035   7.619
  911SOL    HW1 3191   0.346   0.119   7.598
  911SOL    HW2 3192   0.359  -0.030   7.664
  912SOL     OW 3193   0.935   0.236   7.928
  912SOL    HW1 3194   0.887   0.277   7.850
  912SOL    HW2 3195   1.034   0.234   7.909
  913SOL     OW 3196   1.076   0.683   8.912
  913SOL    HW1 3197   0.996   0.622   8.915
  913SOL    HW2 3198   1.157   0.630   8.888
  914SOL     OW 3199   1.227   1.570   8.241
  914SOL    HW1 3200   1.248   1.644   8.176
  914SOL    HW2 3201   1.295   1.570   8.314
  915SOL     OW 3202   0.459   1.152   8.189
  915SOL    HW1 3203   0.388   1.125   8.254
  915SOL    HW2 3204   0.433   1.124   8.096
  916SOL     OW 3205   1.271   1.797   8.039
  916SOL    HW1 3206   1.315   1.861   7.975
  916SOL    HW2 3207   1.221   1.849   8.109
  917SOL     OW 3208   1.032   0.549   7.464
  917SOL    HW1 3209   0.991   0.631   7.425
  917SOL    HW2 3210   1.096   0.575   7.537
  918SOL     OW 3211   0.078   0.556   8.834
  918SOL    HW1 3212   0.170   0.555   8.793
  918SOL    HW2 3213   0.072   0.630   8.901
  919SOL     OW 3214   0.561   0.222   8.595
  919SOL    HW1 3215   0.599   0.138   8.632
  919SOL    HW2 3216   0.473   0.241   8.639
  920SOL     OW 3217   0.866   0.454   8.090
  920SOL    HW1 3218   0.834   0.526   8.028
  920SOL    HW2 3219   0.890   0.373   8.037
  921SOL     OW 3220   1.017   0.039   8.201
  921SOL    HW1 3221   0.945   0.044   8.132
  921SOL    HW2 3222   0.993  -0.030   8.270
  922SOL     OW 3223   1.429   1.173   8.315
  922SOL    HW1 3224   1.374   1.089   8.308
  922SOL    HW2 3225   1.455   1.202   8.223
  923SOL     OW 3226   1.466   0.590   8.440
  923SOL    HW1 3227   1.436   0.495   8.447
  923SOL    HW2 3228   1.539   0.606   8.506
  924SOL     OW 3229   1.857   0.833   7.825
  924SOL    HW1 3230   1.899   0.769   7.889
  924SOL    HW2 3231   1.819   0.782   7.747
  925SOL     OW 3232   0.488   1.385   7.622
  925SOL    HW1 3233   0.401   1.370   7.669
  925SOL    HW2 3234   0.471   1.411   7.527
  926SOL     OW 3235   1.664   1.280   8.105
  926SOL    HW1 3236   1.763   1.288   8.119
  926SOL    HW2 3237   1.619   1.364   8.136
  927SOL     OW 3238   1.390   0.575   7.526
  927SOL    HW1 3239   1.336   0.554   7.607
  927SOL    HW2 3240   1.481   0.534   7.535
  928SOL     OW 3241   0.527   0.256   7.776
  928SOL    HW1 3242   0.554   0.197   7.701
  928SOL    HW2 3243   0.527   0.351   7.745
  929SOL     OW 3244   1.754   1.223   9.036
  929SOL    HW1 3245   1.845   1.184   9.023
  929SOL    HW2 3246   1.762   1.319   9.060
  930SOL     OW 3247   1.064   1.347   8.788
  930SOL    HW1 3248   0.984   1.324   8.843
  930SOL    HW2 3249   1.147   1.321   8.837
  931SOL     OW 3250   1.592   1.629   9.073
  931SOL    HW1 3251   1.619   1.663   8.983
  931SOL    HW2 3252   1.671   1.591   9.119
  932SOL     OW 3253   1.111   1.195   8.548
  932SOL    HW1 3254   1.071   1.239   8.629
  932SOL    HW2 3255   1.070   1.232   8.465
  933SOL     OW 3256   1.638   1.099   8.527
  933SOL    HW1 3257   1.643   1.180   8.586
  933SOL    HW2 3258   1.552   1.101   8.476
  934SOL     OW 3259   0.915   0.089   8.850
  934SOL    HW1 3260   0.940   0.069   8.755
  934SOL    HW2 3261   0.987   0.145   8.892
  935SOL     OW 3262   0.980   1.116   9.167
  935SOL    HW1 3263   0.881   1.122   9.177
  935SOL    HW2 3264   1.003   1.036   9.111
  936SOL     OW 3265   0.705   1.050   7.816
  936SOL    HW1 3266   0.691   1.057   7.915
  936SOL    HW2 3267   0.789   0.999   7.798
  937SOL     OW 3268   0.410   0.813   8.699
  937SOL    HW1 3269   0.496   0.825   8.749
  937SOL    HW2 3270   0.368   0.726   8.726
  938SOL     OW 3271   1.274   0.386   8.710
  938SOL    HW1 3272   1.295   0.460   8.774
  938SOL    HW2 3273   1.185   0.403   8.667
  939SOL     OW 3274   0.064   1.564   8.779
  939SOL    HW1 3275   0.018   1.646   8.745
  939SOL    HW2 3276   0.162   1.583   8.788
  940SOL     OW 3277   0.367   1.100   7.949
  940SOL    HW1 3278   0.360   1.183   7.893
  940SOL    HW2 3279   0.371   1.020   7.889
  941SOL     OW 3280   0.566   0.537   8.313
  941SOL    HW1 3281   0.578   0.603   8.239
  941SOL    HW2 3282   0.612   0.571   8.396
  942SOL     OW 3283   1.252   1.348   7.836
  942SOL    HW1 3284   1.302   1.425   7.876
  942SOL    HW2 3285   1.157   1.350   7.868
  943SOL     OW 3286   1.272   1.445   8.590
  943SOL    HW1 3287   1.319   1.458   8.677
  943SOL    HW2 3288   1.206   1.371   8.599
  944SOL     OW 3289   1.582   0.639   7.920
  944SOL    HW1 3290   1.551   0.700   7.993
  944SOL    HW2 3291   1.632   0.691   7.851
  945SOL     OW 3292   0.354   1.510   8.777
  945SOL    HW1 3293   0.333   1.466   8.690
  945SOL    HW2 3294   0.451   1.536   8.780
  946SOL     OW 3295   0.402   0.751   9.046
  946SOL    HW1 3296   0.470   0.806   8.999
  946SOL    HW2 3297   0.442   0.663   9.073
  947SOL     OW 3298   1.587   0.779   9.118
  947SOL    HW1 3299   1.495   0.817   9.113
  947SOL    HW2 3300   1.647   0.826   9.053
  948SOL     OW 3301   1.013   0.105   9.218
  948SOL    HW1 3302   1.019   0.190   9.166
  948SOL    HW2 3303   1.045   0.029   9.161
  949SOL     OW 3304   0.504   0.050   9.188
  949SOL    HW1 3305   0.462  -0.007   9.118
  949SOL    HW2 3306   0.438   0.119   9.220
  950SOL     OW 3307   0.573   0.870   8.477
  950SOL    HW1 3308   0.617   0.959   8.468
  950SOL    HW2 3309   0.510   0.870   8.554
  951SOL     OW 3310   1.360   0.862   8.493
  951SOL    HW1 3311   1.285   0.862   8.427
  951SOL    HW2 3312   1.397   0.770   8.502
  952SOL     OW 3313   1.209   0.525   7.723
  952SOL    HW1 3314   1.222   0.441   7.777
  952SOL    HW2 3315   1.180   0.599   7.783
  953SOL     OW 3316   0.307   0.213   8.679
  953SOL    HW1 3317   0.284   0.250   8.769
  953SOL    HW2 3318   0.277   0.118   8.673
  954SOL     OW 3319   0.037   1.310   8.730
  954SOL    HW1 3320   0.090   1.261   8.798
  954SOL    HW2 3321   0.059   1.408   8.735
  955SOL     OW 3322   0.732   0.634   8.512
  955SOL    HW1 3323   0.791   0.608   8.436
  955SOL    HW2 3324   0.704   0.730   8.501
  956SOL     OW 3325   1.728   0.935   9.302
  956SOL    HW1 3326   1.682   0.928   9.213
  956SOL    HW2 3327   1.666   0.979   9.368
  957SOL     OW 3328   0.307   0.063   8.066
  957SOL    HW1 3329   0.296   0.157   8.099
  957SOL    HW2 3330   0.302   0.000   8.143
  958SOL     OW 3331   1.622   0.367   7.822
  958SOL    HW1 3332   1.624   0.291   7.886
  958SOL    HW2 3333   1.574   0.444   7.862
  959SOL     OW 3334   1.023   0.766   8.414
  959SOL    HW1 3335   1.038   0.787   8.510
  959SOL    HW2 3336   0.993   0.671   8.405
  960SOL     OW 3337   0.980   1.573   9.148
  960SOL    HW1 3338   0.960   1.617   9.060
  960SOL    HW2 3339   1.019   1.482   9.132
  961SOL     OW 3340   1.859   1.518   9.053
  961SOL    HW1 3341   1.873   1.545   8.958
  961SOL    HW2 3342   1.942   1.540   9.106
  962SOL     OW 3343   0.350   0.898   9.252
  962SOL    HW1 3344   0.426   0.942   9.300
  962SOL    HW2 3345   0.385   0.851   9.170
  963SOL     OW 3346   1.540   0.274   7.573
  963SOL    HW1 3347   1.479   0.199   7.596
  963SOL    HW2 3348   1.562   0.326   7.656
  964SOL     OW 3349   1.303   0.838   7.490
  964SOL    HW1 3350   1.337   0.745   7.505
  964SOL    HW2 3351   1.321   0.865   7.395
  965SOL     OW 3352   1.068   1.333   8.297
  965SOL    HW1 3353   1.075   1.249   8.242
  965SOL    HW2 3354   1.130   1.402   8.261
  966SOL     OW 3355   0.319   0.810   8.397
  966SOL    HW1 3356   0.412   0.846   8.402
  966SOL    HW2 3357   0.313   0.725   8.449
  967SOL     OW 3358   0.339   0.509   8.454
  967SOL    HW1 3359   0.287   0.426   8.437
  967SOL    HW2 3360   0.416   0.514   8.390
  968SOL     OW 3361   1.138   0.380   9.126
  968SOL    HW1 3362   1.093   0.443   9.190
  968SOL    HW2 3363   1.231   0.411   9.109
  969SOL     OW 3364   1.160   0.207   8.925
  969SOL    HW1 3365   1.160   0.271   9.002
  969SOL    HW2 3366   1.188   0.255   8.842
  970SOL     OW 3367   0.008   1.326   7.648
  970SOL    HW1 3368  -0.085   1.347   7.617
  970SOL    HW2 3369   0.018   1.227   7.661
  971SOL     OW 3370   0.088   1.801   8.375
  971SOL    HW1 3371   0.046   1.715   8.348
  971SOL    HW2 3372   0.182   1.804   8.341
  972SOL     OW 3373   0.504   1.568   8.358
  972SOL    HW1 3374   0.570   1.642   8.367
  972SOL    HW2 3375   0.548   1.489   8.316
  973SOL     OW 3376   1.002   0.796   8.686
  973SOL    HW1 3377   1.043   0.764   8.772
  973SOL    HW2 3378   0.906   0.769   8.683
  974SOL     OW 3379   0.040   0.544   8.562
  974SOL    HW1 3380   0.125   0.511   8.521
  974SOL    HW2 3381   0.053   0.559   8.660
  975SOL     OW 3382   0.189   0.520   9.170
  975SOL    HW1 3383   0.248   0.480   9.100
  975SOL    HW2 3384   0.131   0.591   9.129
  976SOL     OW 3385   1.369   0.950   9.108
  976SOL    HW1 3386   1.408   1.039   9.128
  976SOL    HW2 3387   1.379   0.930   9.011
  977SOL     OW 3388   0.815   0.572   7.773
  977SOL    HW1 3389   0.822   0.483   7.727
  977SOL    HW2 3390   0.721   0.606   7.765
  978SOL     OW 3391   1.657   0.604   8.654
  978SOL    HW1 3392   1.619   0.535   8.716
  978SOL    HW2 3393   1.739   0.568   8.610
  979SOL     OW 3394   0.252   1.564   9.192
  979SOL    HW1 3395   0.222   1.621   9.268
  979SOL    HW2 3396   0.245   1.467   9.218
  980SOL     OW 3397   0.671   0.464   8.717
  980SOL    HW1 3398   0.637   0.375   8.687
  980SOL    HW2 3399   0.697   0.518   8.637
  981SOL     OW 3400   0.930   1.678   8.913
  981SOL    HW1 3401   0.906   1.660   8.818
  981SOL    HW2 3402   0.960   1.772   8.923
  982SOL     OW 3403   0.473   0.500   7.639
  982SOL    HW1 3404   0.534   0.580   7.643
  982SOL    HW2 3405   0.378   0.531   7.646
  983SOL     OW 3406   0.159   1.137   8.914
  983SOL    HW1 3407   0.181   1.076   8.990
  983SOL    HW2 3408   0.169   1.088   8.828
  984SOL     OW 3409   1.347   1.059   8.682
  984SOL    HW1 3410   1.371   0.996   8.608
  984SOL    HW2 3411   1.257   1.099   8.664
  985SOL     OW 3412   1.302   0.855   7.757
  985SOL    HW1 3413   1.216   0.824   7.799
  985SOL    HW2 3414   1.298   0.841   7.658
  986SOL     OW 3415   1.759   1.747   8.602
  986SOL    HW1 3416   1.820   1.777   8.529
  986SOL    HW2 3417   1.721   1.658   8.580
  987SOL     OW 3418   1.252   1.731   8.576
  987SOL    HW1 3419   1.336   1.736   8.522
  987SOL    HW2 3420   1.229   1.635   8.594
  988SOL     OW 3421   0.083   1.258   8.470
  988SOL    HW1 3422   0.078   1.257   8.570
  988SOL    HW2 3423   0.000   1.217   8.432
  989SOL     OW 3424   0.688   1.662   9.164
  989SOL    HW1 3425   0.632   1.743   9.173
  989SOL    HW2 3426   0.740   1.666   9.078
  990SOL     OW 3427   1.726   0.135   7.971
  990SOL    HW1 3428   1.799   0.118   7.904
  990SOL    HW2 3429   1.695   0.048   8.009
  991SOL     OW 3430   1.388   1.573   7.925
  991SOL    HW1 3431   1.455   1.585   7.851
  991SOL    HW2 3432   1.348   1.662   7.948
  992SOL     OW 3433   0.130   1.794   9.299
  992SOL    HW1 3434   0.089   1.720   9.352
  992SOL    HW2 3435   0.194   1.845   9.357
  993SOL     OW 3436   1.280   0.927   8.120
  993SOL    HW1 3437   1.340   0.846   8.122
  993SOL    HW2 3438   1.320   0.996   8.060
  994SOL     OW 3439   0.830   1.273   8.870
  994SOL    HW1 3440   0.825   1.306   8.965
  994SOL    HW2 3441   0.744   1.292   8.824
  995SOL     OW 3442   0.672   1.616   7.602
  995SOL    HW1 3443   0.681   1.626   7.503
  995SOL    HW2 3444   0.632   1.527   7.623
  996SOL     OW 3445   1.650   1.720   8.842
  996SOL    HW1 3446   1.703   1.730   8.758
  996SOL    HW2 3447   1.623   1.810   8.876
  997SOL     OW 3448   1.841   0.175   8.411
  997SOL    HW1 3449   1.880   0.090   8.375
  997SOL    HW2 3450   1.743   0.177   8.392
  998SOL     OW 3451   0.263   0.326   8.168
  998SOL    HW1 3452   0.184   0.377   8.134
  998SOL    HW2 3453   0.254   0.311   8.266
  999SOL     OW 3454   1.194   1.612   7.479
  999SOL    HW1 3455   1.200   1.519   7.516
  999SOL    HW2 3456   1.135   1.612   7.399
 1000SOL     OW 3457   0.822   1.002   8.820
 1000SOL    HW1 3458   0.862   1.001   8.728
 1000SOL    HW2 3459   0.832   1.094   8.860
 1001SOL     OW 3460   0.916   0.910   7.739
 1001SOL    HW1 3461   0.979   0.948   7.671
 1001SOL    HW2 3462   0.956   0.827   7.778
 1002SOL     OW 3463   0.372   1.288   8.938
 1002SOL    HW1 3464   0.359   1.381   8.904
 1002SOL    HW2 3465   0.288   1.236   8.925
 1003SOL     OW 3466   1.614   1.292   8.737
 1003SOL    HW1 3467   1.674   1.295   8.817
 1003SOL    HW2 3468   1.539   1.356   8.750
 1004SOL     OW 3469   1.039   1.098   8.144
 1004SOL    HW1 3470   0.969   1.051   8.198
 1004SOL    HW2 3471   1.098   1.030   8.101
 1005SOL     OW 3472   1.014   0.236   8.419
 1005SOL    HW1 3473   1.006   0.200   8.326
 1005SOL    HW2 3474   1.012   0.160   8.484
 1006SOL     OW 3475   0.590   1.487   7.939
 1006SOL    HW1 3476   0.632   1.429   7.869
 1006SOL    HW2 3477   0.546   1.566   7.895
 1007SOL     OW 3478   1.709   0.385   8.829
 1007SOL    HW1 3479   1.782   0.454   8.833
 1007SOL    HW2 3480   1.737   0.310   8.770
 1008SOL     OW 3481   0.255   1.348   7.738
 1008SOL    HW1 3482   0.159   1.349   7.711
 1008SOL    HW2 3483   0.267   1.401   7.822
 1009SOL     OW 3484   0.105   1.013   9.174
 1009SOL    HW1 3485   0.028   0.980   9.228
 1009SOL    HW2 3486   0.190   0.983   9.216
 1010SOL     OW 3487   0.672   0.203   8.937
 1010SOL    HW1 3488   0.762   0.187   8.897
 1010SOL    HW2 3489   0.680   0.208   9.036
 1011SOL     OW 3490   0.075   0.345   7.481
 1011SOL    HW1 3491  -0.017   0.317   7.452
 1011SOL    HW2 3492   0.106   0.422   7.425
 1012SOL     OW 3493   1.440   0.856   8.846
 1012SOL    HW1 3494   1.383   0.908   8.783
 1012SOL    HW2 3495   1.536   0.868   8.822
 1013SOL     OW 3496   0.072   0.166   7.766
 1013SOL    HW1 3497   0.055   0.249   7.712
 1013SOL    HW2 3498   0.162   0.129   7.744
 1014SOL     OW 3499   1.183   1.335   7.567
 1014SOL    HW1 3500   1.084   1.324   7.569
 1014SOL    HW2 3501   1.217   1.350   7.660
 1015SOL     OW 3502   0.613   0.842   8.879
 1015SOL    HW1 3503   0.669   0.923   8.862
 1015SOL    HW2 3504   0.672   0.762   8.882
 1016SOL     OW 3505   1.493   1.767   8.407
 1016SOL    HW1 3506   1.526   1.831   8.338
 1016SOL    HW2 3507   1.559   1.761   8.482
 1017SOL     OW 3508   0.716   0.565   9.156
 1017SOL    HW1 3509   0.735   0.630   9.230
 1017SOL    HW2 3510   0.776   0.485   9.165
 1018SOL     OW 3511   1.450   1.220   9.081
 1018SOL    HW1 3512   1.441   1.210   9.180
 1018SOL    HW2 3513   1.546   1.213   9.055
 1019SOL     OW 3514   0.390   1.741   9.008
 1019SOL    HW1 3515   0.299   1.782   9.006
 1019SOL    HW2 3516   0.383   1.647   9.040
 1020SOL     OW 3517   1.674   0.883   8.702
 1020SOL    HW1 3518   1.647   0.794   8.665
 1020SOL    HW2 3519   1.675   0.951   8.629
 1021SOL     OW 3520   1.225   0.325   7.897
 1021SOL    HW1 3521   1.290   0.251   7.886
 1021SOL    HW2 3522   1.245   0.375   7.981
 1022SOL     OW 3523   0.594   0.745   8.100
 1022SOL    HW1 3524   0.644   0.830   8.081
 1022SOL    HW2 3525   0.506   0.747   8.052
 1023SOL     OW 3526   1.777   0.342   9.090
 1023SOL    HW1 3527   1.760   0.373   8.996
 1023SOL    HW2 3528   1.693   0.305   9.128
 1024SOL     OW 3529   1.730   0.934   8.965
 1024SOL    HW1 3530   1.768   1.025   8.980
 1024SOL    HW2 3531   1.722   0.917   8.866
 1025SOL     OW 3532   0.859   1.374   7.464
 1025SOL    HW1 3533   0.813   1.389   7.552
 1025SOL    HW2 3534   0.903   1.459   7.434
 1026SOL     OW 3535   0.661   1.790   8.401
 1026SOL    HW1 3536   0.615   1.878   8.388
 1026SOL    HW2 3537   0.760   1.802   8.394
 1027SOL     OW 3538   0.859   0.956   8.309
 1027SOL    HW1 3539   0.913   0.887   8.357
 1027SOL    HW2 3540   0.827   1.025   8.375
 1028SOL     OW 3541   1.083   0.984   7.535
 1028SOL    HW1 3542   1.060   1.037   7.453
 1028SOL    HW2 3543   1.164   0.928   7.516
 1029SOL     OW 3544   1.861   1.569   8.299
 1029SOL    HW1 3545   1.790   1.557   8.229
 1029SOL    HW2 3546   1.862   1.490   8.359
 1030SOL     OW 3547   0.221   1.314   9.292
 1030SOL    HW1 3548   0.156   1.241   9.271
 1030SOL    HW2 3549   0.225   1.328   9.390
 1031SOL     OW 3550   0.079   1.240   8.101
 1031SOL    HW1 3551   0.078   1.193   8.189
 1031SOL    HW2 3552   0.161   1.212   8.050
 1032SOL     OW 3553   0.672   1.391   9.072
 1032SOL    HW1 3554   0.594   1.341   9.110
 1032SOL    HW2 3555   0.669   1.486   9.103
 1033SOL     OW 3556   1.824   0.192   8.675
 1033SOL    HW1 3557   1.820   0.102   8.719
 1033SOL    HW2 3558   1.827   0.181   8.576
 1034SOL     OW 3559   0.428   0.424   7.968
 1034SOL    HW1 3560   0.458   0.352   7.906
 1034SOL    HW2 3561   0.389   0.384   8.051
 1035SOL     OW 3562   1.705   1.487   8.552
 1035SOL    HW1 3563   1.612   1.462   8.525
 1035SOL    HW2 3564   1.731   1.437   8.634
 1036SOL     OW 3565   0.317   0.547   8.728
 1036SOL    HW1 3566   0.355   0.488   8.800
 1036SOL    HW2 3567   0.357   0.521   8.640
 1037SOL     OW 3568   0.812   1.586   8.135
 1037SOL    HW1 3569   0.844   1.596   8.041
 1037SOL    HW2 3570   0.733   1.524   8.137
 1038SOL     OW 3571   1.424   0.214   8.560
 1038SOL    HW1 3572   1.476   0.149   8.615
 1038SOL    HW2 3573   1.375   0.277   8.621
 1039SOL     OW 3574   1.001   0.034   8.602
 1039SOL    HW1 3575   0.938  -0.038   8.571
 1039SOL    HW2 3576   1.094  -0.002   8.602
 1040SOL     OW 3577   0.770   1.330   7.749
 1040SOL    HW1 3578   0.724   1.243   7.766
 1040SOL    HW2 3579   0.861   1.327   7.790
 1041SOL     OW 3580   0.618   1.567   8.732
 1041SOL    HW1 3581   0.613   1.649   8.789
 1041SOL    HW2 3582   0.707   1.564   8.687
 1042SOL     OW 3583   1.352   0.052   7.616
 1042SOL    HW1 3584   1.387   0.011   7.532
 1042SOL    HW2 3585   1.262   0.014   7.636
 1043SOL     OW 3586   1.300   0.453   8.139
 1043SOL    HW1 3587   1.241   0.533   8.143
 1043SOL    HW2 3588   1.315   0.418   8.232
 1044SOL     OW 3589   1.593   0.221   8.330
 1044SOL    HW1 3590   1.509   0.220   8.384
 1044SOL    HW2 3591   1.595   0.304   8.274
 1045SOL     OW 3592   0.039   1.077   7.748
 1045SOL    HW1 3593   0.138   1.066   7.739
 1045SOL    HW2 3594  -0.001   0.991   7.780
 1046SOL     OW 3595   0.875   1.646   7.785
 1046SOL    HW1 3596   0.798   1.611   7.731
 1046SOL    HW2 3597   0.843   1.717   7.847
 1047SOL     OW 3598   0.230   0.628   9.423
 1047SOL    HW1 3599   0.137   0.626   9.460
 1047SOL    HW2 3600   0.231   0.589   9.331
 1048SOL     OW 3601   0.225   0.275  10.306
 1048SOL    HW1 3602   0.260   0.258  10.398
 1048SOL    HW2 3603   0.137   0.230  10.294
 1049SOL     OW 3604   0.019   0.368   9.957
 1049SOL    HW1 3605  -0.063   0.411   9.996
 1049SOL    HW2 3606  -0.009   0.295   9.894
 1050SOL     OW 3607   0.569   1.275  10.475
 1050SOL    HW1 3608   0.476   1.268  10.438
 1050SOL    HW2 3609   0.580   1.364  10.519
 1051SOL     OW 3610   1.555   1.511  10.013
 1051SOL    HW1 3611   1.498   1.495  10.094
 1051SOL    HW2 3612   1.496   1.521   9.933
 1052SOL     OW 3613   1.135   0.703  10.027
 1052SOL    HW1 3614   1.192   0.781  10.002
 1052SOL    HW2 3615   1.075   0.729  10.103
 1053SOL     OW 3616   1.755   0.607   9.541
 1053SOL    HW1 3617   1.743   0.594   9.442
 1053SOL    HW2 3618   1.725   0.526   9.590
 1054SOL     OW 3619   0.768   1.144  10.333
 1054SOL    HW1 3620   0.690   1.161  10.393
 1054SOL    HW2 3621   0.802   1.231  10.297
 1055SOL     OW 3622   0.850   0.798  11.133
 1055SOL    HW1 3623   0.846   0.874  11.198
 1055SOL    HW2 3624   0.872   0.834  11.042
 1056SOL     OW 3625   0.685   1.012   9.975
 1056SOL    HW1 3626   0.754   0.996  10.045
 1056SOL    HW2 3627   0.612   1.069  10.013
 1057SOL     OW 3628   0.686   1.161  11.113
 1057SOL    HW1 3629   0.746   1.240  11.127
 1057SOL    HW2 3630   0.600   1.192  11.072
 1058SOL     OW 3631   0.335   1.435  10.371
 1058SOL    HW1 3632   0.257   1.404  10.318
 1058SOL    HW2 3633   0.393   1.493  10.314
 1059SOL     OW 3634   1.460   1.505  10.649
 1059SOL    HW1 3635   1.484   1.599  10.675
 1059SOL    HW2 3636   1.444   1.451  10.731
 1060SOL     OW 3637   0.438   0.392  10.809
 1060SOL    HW1 3638   0.520   0.336  10.818
 1060SOL    HW2 3639   0.357   0.334  10.813
 1061SOL     OW 3640   1.603   0.447  10.047
 1061SOL    HW1 3641   1.529   0.493   9.997
 1061SOL    HW2 3642   1.654   0.515  10.100
 1062SOL     OW 3643   0.231   1.713   9.793
 1062SOL    HW1 3644   0.265   1.790   9.847
 1062SOL    HW2 3645   0.275   1.713   9.703
 1063SOL     OW 3646   1.127   1.341  11.000
 1063SOL    HW1 3647   1.174   1.341  11.088
 1063SOL    HW2 3648   1.079   1.254  10.989
 1064SOL     OW 3649   0.230   1.434   9.848
 1064SOL    HW1 3650   0.204   1.530   9.848
 1064SOL    HW2 3651   0.159   1.380   9.893
 1065SOL     OW 3652   0.240   1.091  10.196
 1065SOL    HW1 3653   0.254   1.007  10.248
 1065SOL    HW2 3654   0.185   1.155  10.251
 1066SOL     OW 3655   0.620   1.786  10.749
 1066SOL    HW1 3656   0.528   1.769  10.784
 1066SOL    HW2 3657   0.648   1.878  10.775
 1067SOL     OW 3658   0.606   0.964   9.433
 1067SOL    HW1 3659   0.613   1.048   9.379
 1067SOL    HW2 3660   0.652   0.977   9.521
 1068SOL     OW 3661   1.594   0.114  10.790
 1068SOL    HW1 3662   1.576   0.181  10.718
 1068SOL    HW2 3663   1.591   0.160  10.879
 1069SOL     OW 3664   0.122   0.643   9.873
 1069SOL    HW1 3665   0.077   0.555   9.890
 1069SOL    HW2 3666   0.121   0.697   9.957
 1070SOL     OW 3667   0.027   1.596   9.427
 1070SOL    HW1 3668   0.008   1.500   9.448
 1070SOL    HW2 3669  -0.006   1.654   9.502
 1071SOL     OW 3670   1.689   0.922   9.922
 1071SOL    HW1 3671   1.784   0.893   9.930
 1071SOL    HW2 3672   1.681   0.987   9.847
 1072SOL     OW 3673   1.641   1.108   9.742
 1072SOL    HW1 3674   1.727   1.110   9.690
 1072SOL    HW2 3675   1.655   1.155   9.830
 1073SOL     OW 3676   0.113   0.737  10.907
 1073SOL    HW1 3677   0.201   0.724  10.952
 1073SOL    HW2 3678   0.100   0.834  10.885
 1074SOL     OW 3679   0.613   1.365  10.036
 1074SOL    HW1 3680   0.564   1.278  10.045
 1074SOL    HW2 3681   0.590   1.408   9.949
 1075SOL     OW 3682   1.293   1.228  10.733
 1075SOL    HW1 3683   1.330   1.155  10.675
 1075SOL    HW2 3684   1.345   1.233  10.818
 1076SOL     OW 3685   0.809   0.004   9.812
 1076SOL    HW1 3686   0.849   0.095   9.803
 1076SOL    HW2 3687   0.709   0.012   9.818
 1077SOL     OW 3688   0.197   0.976  10.574
 1077SOL    HW1 3689   0.286   0.931  10.560
 1077SOL    HW2 3690   0.124   0.911  10.555
 1078SOL     OW 3691   1.525   0.999   9.500
 1078SOL    HW1 3692   1.462   0.923   9.513
 1078SOL    HW2 3693   1.573   1.017   9.586
 1079SOL     OW 3694   1.187   1.792  10.926
 1079SOL    HW1 3695   1.211   1.852  10.850
 1079SOL    HW2 3696   1.194   1.697  10.896
 1080SOL     OW 3697   0.317   0.251  11.111
 1080SOL    HW1 3698   0.388   0.322  11.117
 1080SOL    HW2 3699   0.229   0.290  11.139
 1081SOL     OW 3700   1.466   1.417  10.263
 1081SOL    HW1 3701   1.407   1.423  10.343
 1081SOL    HW2 3702   1.451   1.329  10.217
 1082SOL     OW 3703   1.667   1.714   9.882
 1082SOL    HW1 3704   1.626   1.691   9.794
 1082SOL    HW2 3705   1.649   1.640   9.947
 1083SOL     OW 3706   0.598   0.729   9.580
 1083SOL    HW1 3707   0.622   0.798   9.512
 1083SOL    HW2 3708   0.520   0.762   9.634
 1084SOL     OW 3709   1.281   0.345  10.254
 1084SOL    HW1 3710   1.195   0.295  10.241
 1084SOL    HW2 3711   1.343   0.291  10.310
 1085SOL     OW 3712   1.576   1.662   9.617
 1085SOL    HW1 3713   1.665   1.708   9.620
 1085SOL    HW2 3714   1.555   1.638   9.522
 1086SOL     OW 3715   0.807   0.605  10.775
 1086SOL    HW1 3716   0.760   0.602  10.864
 1086SOL    HW2 3717   0.756   0.550  10.709
 1087SOL     OW 3718   1.394   0.469  10.984
 1087SOL    HW1 3719   1.374   0.512  11.072
 1087SOL    HW2 3720   1.472   0.407  10.993
 1088SOL     OW 3721   0.973   0.890  10.882
 1088SOL    HW1 3722   1.019   0.806  10.853
 1088SOL    HW2 3723   0.917   0.924  10.807
 1089SOL     OW 3724   0.991   0.410  10.552
 1089SOL    HW1 3725   0.914   0.444  10.606
 1089SOL    HW2 3726   0.957   0.359  10.473
 1090SOL     OW 3727   1.041   0.701   9.739
 1090SOL    HW1 3728   1.067   0.697   9.835
 1090SOL    HW2 3729   0.956   0.650   9.725
 1091SOL     OW 3730   0.076   0.811  10.099
 1091SOL    HW1 3731   0.175   0.799  10.108
 1091SOL    HW2 3732   0.052   0.906  10.120
 1092SOL     OW 3733   0.130   1.821  10.881
 1092SOL    HW1 3734   0.120   1.806  10.980
 1092SOL    HW2 3735   0.044   1.857  10.845
 1093SOL     OW 3736   0.865   0.348   9.505
 1093SOL    HW1 3737   0.924   0.411   9.456
 1093SOL    HW2 3738   0.884   0.254   9.476
 1094SOL     OW 3739   1.719   0.585  11.141
 1094SOL    HW1 3740   1.693   0.674  11.105
 1094SOL    HW2 3741   1.717   0.517  11.068
 1095SOL     OW 3742   1.362   1.144   9.855
 1095SOL    HW1 3743   1.445   1.115   9.807
 1095SOL    HW2 3744   1.313   1.211   9.799
 1096SOL     OW 3745   0.550   0.196  10.195
 1096SOL    HW1 3746   0.545   0.191  10.295
 1096SOL    HW2 3747   0.552   0.292  10.166
 1097SOL     OW 3748   1.008   1.456   9.787
 1097SOL    HW1 3749   0.962   1.528   9.735
 1097SOL    HW2 3750   1.004   1.476   9.885
 1098SOL     OW 3751   0.351   1.801  10.163
 1098SOL    HW1 3752   0.401   1.715  10.169
 1098SOL    HW2 3753   0.416   1.878  10.160
 1099SOL     OW 3754   1.795   1.066  10.183
 1099SOL    HW1 3755   1.733   1.051  10.107
 1099SOL    HW2 3756   1.743   1.077  10.268
 1100SOL     OW 3757   1.227   1.550  10.816
 1100SOL    HW1 3758   1.233   1.473  10.880
 1100SOL    HW2 3759   1.175   1.524  10.736
 1101SOL     OW 3760   0.321   0.943   9.552
 1101SOL    HW1 3761   0.403   0.982   9.510
 1101SOL    HW2 3762   0.294   0.861   9.503
 1102SOL     OW 3763   1.458   0.735  10.038
 1102SOL    HW1 3764   1.453   0.670  10.113
 1102SOL    HW2 3765   1.538   0.794  10.051
 1103SOL     OW 3766   0.461   1.266  11.037
 1103SOL    HW1 3767   0.411   1.267  10.951
 1103SOL    HW2 3768   0.398   1.248  11.113
 1104SOL     OW 3769   1.111   1.776   9.547
 1104SOL    HW1 3770   1.051   1.714   9.597
 1104SOL    HW2 3771   1.142   1.732   9.462
 1105SOL     OW 3772   0.202   0.285  10.808
 1105SOL    HW1 3773   0.122   0.345  10.795
 1105SOL    HW2 3774   0.192   0.236  10.894
 1106SOL     OW 3775   1.632   1.377   9.391
 1106SOL    HW1 3776   1.600   1.471   9.381
 1106SOL    HW2 3777   1.556   1.314   9.379
 1107SOL     OW 3778   0.464   1.743   9.633
 1107SOL    HW1 3779   0.497   1.782   9.719
 1107SOL    HW2 3780   0.540   1.736   9.568
 1108SOL     OW 3781   1.400   0.107   9.736
 1108SOL    HW1 3782   1.376   0.070   9.646
 1108SOL    HW2 3783   1.499   0.123   9.740
 1109SOL     OW 3784   0.249   1.785  10.551
 1109SOL    HW1 3785   0.306   1.720  10.601
 1109SOL    HW2 3786   0.233   1.752  10.458
 1110SOL     OW 3787   0.940   1.698  10.214
 1110SOL    HW1 3788   1.020   1.641  10.235
 1110SOL    HW2 3789   0.891   1.658  10.137
 1111SOL     OW 3790   0.382   0.700   9.790
 1111SOL    HW1 3791   0.427   0.610   9.787
 1111SOL    HW2 3792   0.288   0.689   9.823
 1112SOL     OW 3793   1.547   0.222  11.039
 1112SOL    HW1 3794   1.542   0.259  11.131
 1112SOL    HW2 3795   1.475   0.153  11.027
 1113SOL     OW 3796   0.614   0.122   9.427
 1113SOL    HW1 3797   0.712   0.100   9.434
 1113SOL    HW2 3798   0.583   0.105   9.334
 1114SOL     OW 3799   0.781   0.264  11.059
 1114SOL    HW1 3800   0.848   0.203  11.102
 1114SOL    HW2 3801   0.708   0.283  11.124
 1115SOL     OW 3802   0.888   1.514  10.505
 1115SOL    HW1 3803   0.865   1.489  10.411
 1115SOL    HW2 3804   0.949   1.445  10.544
 1116SOL     OW 3805   1.351   0.590  10.743
 1116SOL    HW1 3806   1.379   0.547  10.828
 1116SOL    HW2 3807   1.376   0.686  10.744
 1117SOL     OW 3808   0.803   1.402  10.234
 1117SOL    HW1 3809   0.893   1.416  10.192
 1117SOL    HW2 3810   0.732   1.404  10.163
 1118SOL     OW 3811   0.922   0.503  10.209
 1118SOL    HW1 3812   0.897   0.494  10.113
 1118SOL    HW2 3813   0.970   0.421  10.240
 1119SOL     OW 3814   0.539   0.064   9.822
 1119SOL    HW1 3815   0.458   0.065   9.880
 1119SOL    HW2 3816   0.542   0.147   9.767
 1120SOL     OW 3817   1.434   1.188   9.351
 1120SOL    HW1 3818   1.466   1.112   9.408
 1120SOL    HW2 3819   1.342   1.215   9.381
 1121SOL     OW 3820   0.297   0.035   9.481
 1121SOL    HW1 3821   0.346   0.119   9.460
 1121SOL    HW2 3822   0.359  -0.030   9.526
 1122SOL     OW 3823   0.935   0.236   9.790
 1122SOL    HW1 3824   0.887   0.277   9.712
 1122SOL    HW2 3825   1.034   0.234   9.771
 1123SOL     OW 3826   1.076   0.683  10.774
 1123SOL    HW1 3827   0.996   0.622  10.777
 1123SOL    HW2 3828   1.157   0.630  10.750
 1124SOL     OW 3829   1.227   1.570  10.103
 1124SOL    HW1 3830   1.248   1.644  10.038
 1124SOL    HW2 3831   1.295   1.570  10.176
 1125SOL     OW 3832   0.459   1.152  10.051
 1125SOL    HW1 3833   0.388   1.125  10.116
 1125SOL    HW2 3834   0.433   1.124   9.958
 1126SOL     OW 3835   1.271   1.797   9.901
 1126SOL    HW1 3836   1.315   1.861   9.837
 1126SOL    HW2 3837   1.221   1.849   9.971
 1127SOL     OW 3838   1.032   0.549   9.326
 1127SOL    HW1 3839   0.991   0.631   9.287
 1127SOL    HW2 3840   1.096   0.575   9.399
 1128SOL     OW 3841   0.078   0.556  10.696
 1128SOL    HW1 3842   0.170   0.555  10.655
 1128SOL    HW2 3843   0.072   0.630  10.763
 1129SOL     OW 3844   0.561   0.222  10.457
 1129SOL    HW1 3845   0.599   0.138  10.494
 1129SOL    HW2 3846   0.473   0.241  10.501
 1130SOL     OW 3847   0.866   0.454   9.952
 1130SOL    HW1 3848   0.834   0.526   9.890
 1130SOL    HW2 3849   0.890   0.373   9.899
 1131SOL     OW 3850   1.017   0.039  10.063
 1131SOL    HW1 3851   0.945   0.044   9.994
 1131SOL    HW2 3852   0.993  -0.030  10.132
 1132SOL     OW 3853   1.429   1.173  10.177
 1132SOL    HW1 3854   1.374   1.089  10.170
 1132SOL    HW2 3855   1.455   1.202  10.085
 1133SOL     OW 3856   1.466   0.590  10.302
 1133SOL    HW1 3857   1.436   0.495  10.309
 1133SOL    HW2 3858   1.539   0.606  10.368
 1134SOL     OW 3859   1.857   0.833   9.687
 1134SOL    HW1 3860   1.899   0.769   9.751
 1134SOL    HW2 3861   1.819   0.782   9.609
 1135SOL     OW 3862   0.488   1.385   9.484
 1135SOL    HW1 3863   0.401   1.370   9.531
 1135SOL    HW2 3864   0.471   1.411   9.389
 1136SOL     OW 3865   1.664   1.280   9.967
 1136SOL    HW1 3866   1.763   1.288   9.981
 1136SOL    HW2 3867   1.619   1.364   9.998
 1137SOL     OW 3868   1.390   0.575   9.388
 1137SOL    HW1 3869   1.336   0.554   9.469
 1137SOL    HW2 3870   1.481   0.534   9.397
 1138SOL     OW 3871   0.527   0.256   9.638
 1138SOL    HW1 3872   0.554   0.197   9.563
 1138SOL    HW2 3873   0.527   0.351   9.607
 1139SOL     OW 3874   1.754   1.223  10.898
 1139SOL    HW1 3875   1.845   1.184  10.885
 1139SOL    HW2 3876   1.762   1.319  10.922
 1140SOL     OW 3877   1.064   1.347  10.650
 1140SOL    HW1 3878   0.984   1.324  10.705
 1140SOL    HW2 3879   1.147   1.321  10.699
 1141SOL     OW 3880   1.592   1.629  10.935
 1141SOL    HW1 3881   1.619   1.663  10.845
 1141SOL    HW2 3882   1.671   1.591  10.981
 1142SOL     OW 3883   1.111   1.195  10.410
 1142SOL    HW1 3884   1.071   1.239  10.491
 1142SOL    HW2 3885   1.070   1.232  10.327
 1143SOL     OW 3886   1.638   1.099  10.389
 1143SOL    HW1 3887   1.643   1.180  10.448
 1143SOL    HW2 3888   1.552   1.101  10.338
 1144SOL     OW 3889   0.915   0.089  10.712
 1144SOL    HW1 3890   0.940   0.069  10.617
 1144SOL    HW2 3891   0.987   0.145  10.754
 1145SOL     OW 3892   0.980   1.116  11.029
 1145SOL    HW1 3893   0.881   1.122  11.039
 1145SOL    HW2 3894   1.003   1.036  10.973
 1146SOL     OW 3895   0.705   1.050   9.678
 1146SOL    HW1 3896   0.691   1.057   9.777
 1146SOL    HW2 3897   0.789   0.999   9.660
 1147SOL     OW 3898   0.410   0.813  10.561
 1147SOL    HW1 3899   0.496   0.825  10.611
 1147SOL    HW2 3900   0.368   0.726  10.588
 1148SOL     OW 3901   1.274   0.386  10.572
 1148SOL    HW1 3902   1.295   0.460  10.636
 1148SOL    HW2 3903   1.185   0.403  10.529
 1149SOL     OW 3904   0.064   1.564  10.641
 1149SOL    HW1 3905   0.018   1.646  10.607
 1149SOL    HW2 3906   0.162   1.583  10.650
 1150SOL     OW 3907   0.367   1.100   9.811
 1150SOL    HW1 3908   0.360   1.183   9.755
 1150SOL    HW2 3909   0.371   1.020   9.751
 1151SOL     OW 3910   0.566   0.537  10.175
 1151SOL    HW1 3911   0.578   0.603  10.101
 1151SOL    HW2 3912   0.612   0.571  10.258
 1152SOL     OW 3913   1.252   1.348   9.698
 1152SOL    HW1 3914   1.302   1.425   9.738
 1152SOL    HW2 3915   1.157   1.350   9.730
 1153SOL     OW 3916   1.272   1.445  10.452
 1153SOL    HW1 3917   1.319   1.458  10.539
 1153SOL    HW2 3918   1.206   1.371  10.461
 1154SOL     OW 3919   1.582   0.639   9.782
 1154SOL    HW1 3920   1.551   0.700   9.855
 1154SOL    HW2 3921   1.632   0.691   9.713
 1155SOL     OW 3922   0.354   1.510  10.639
 1155SOL    HW1 3923   0.333   1.466  10.552
 1155SOL    HW2 3924   0.451   1.536  10.642
 1156SOL     OW 3925   0.402   0.751  10.908
 1156SOL    HW1 3926   0.470   0.806  10.861
 1156SOL    HW2 3927   0.442   0.663  10.935
 1157SOL     OW 3928   1.587   0.779  10.980
 1157SOL    HW1 3929   1.495   0.817  10.975
 1157SOL    HW2 3930   1.647   0.826  10.915
 1158SOL     OW 3931   1.013   0.105  11.080
 1158SOL    HW1 3932   1.019   0.190  11.028
 1158SOL    HW2 3933   1.045   0.029  11.023
 1159SOL     OW 3934   0.504   0.050  11.050
 1159SOL    HW1 3935   0.462  -0.007  10.980
 1159SOL    HW2 3936   0.438   0.119  11.082
 1160SOL     OW 3937   0.573   0.870  10.339
 1160SOL    HW1 3938   0.617   0.959  10.330
 1160SOL    HW2 3939   0.510   0.870  10.416
 1161SOL     OW 3940   1.360   0.862  10.355
 1161SOL    HW1 3941   1.285   0.862  10.289
 1161SOL    HW2 3942   1.397   0.770  10.364
 1162SOL     OW 3943   1.209   0.525   9.585
 1162SOL    HW1 3944   1.222   0.441   9.639
 1162SOL    HW2 3945   1.180   0.599   9.645
 1163SOL     OW 3946   0.307   0.213  10.541
 1163SOL    HW1 3947   0.284   0.250  10.631
 1163SOL    HW2 3948   0.277   0.118  10.535
 1164SOL     OW 3949   0.037   1.310  10.592
 1164SOL    HW1 3950   0.090   1.261  10.660
 1164SOL    HW2 3951   0.059   1.408  10.597
 1165SOL     OW 3952   0.732   0.634  10.374
 1165SOL    HW1 3953   0.791   0.608  10.298
 1165SOL    HW2 3954   0.704   0.730  10.363
 1166SOL     OW 3955   1.728   0.935  11.164
 1166SOL    HW1 3956   1.682   0.928  11.075
 1166SOL    HW2 3957   1.666   0.979  11.230
 1167SOL     OW 3958   0.307   0.063   9.928
 1167SOL    HW1 3959   0.296   0.157   9.961
 1167SOL    HW2 3960   0.302   0.000  10.005
 1168SOL     OW 3961   1.622   0.367   9.684
 1168SOL    HW1 3962   1.624   0.291   9.748
 1168SOL    HW2 3963   1.574   0.444   9.724
 1169SOL     OW 3964   1.023   0.766  10.276
 1169SOL    HW1 3965   1.038   0.787  10.372
 1169SOL    HW2 3966   0.993   0.671  10.267
 1170SOL     OW 3967   0.980   1.573  11.010
 1170SOL    HW1 3968   0.960   1.617  10.922
 1170SOL    HW2 3969   1.019   1.482  10.994
 1171SOL     OW 3970   1.859   1.518  10.915
 1171SOL    HW1 3971   1.873   1.545  10.820
 1171SOL    HW2 3972   1.942   1.540  10.968
 1172SOL     OW 3973   0.350   0.898  11.114
 1172SOL    HW1 3974   0.426   0.942  11.162
 1172SOL    HW2 3975   0.385   0.851  11.032
 1173SOL     OW 3976   1.540   0.274   9.435
 1173SOL    HW1 3977   1.479   0.199   9.458
 1173SOL    HW2 3978   1.562   0.326   9.518
 1174SOL     OW 3979   1.303   0.838   9.352
 1174SOL    HW1 3980   1.337   0.745   9.367
 1174SOL    HW2 3981   1.321   0.865   9.257
 1175SOL     OW 3982   1.068   1.333  10.159
 1175SOL    HW1 3983   1.075   1.249  10.104
 1175SOL    HW2 3984   1.130   1.402  10.123
 1176SOL     OW 3985   0.319   0.810  10.259
 1176SOL    HW1 3986   0.412   0.846  10.264
 1176SOL    HW2 3987   0.313   0.725  10.311
 1177SOL     OW 3988   0.339   0.509  10.316
 1177SOL    HW1 3989   0.287   0.426  10.299
 1177SOL    HW2 3990   0.416   0.514  10.252
 1178SOL     OW 3991   1.138   0.380  10.988
 1178SOL    HW1 3992   1.093   0.443  11.052
 1178SOL    HW2 3993   1.231   0.411  10.971
 1179SOL     OW 3994   1.160   0.207  10.787
 1179SOL    HW1 3995   1.160   0.271  10.864
 1179SOL    HW2 3996   1.188   0.255  10.704
 1180SOL     OW 3997   0.008   1.326   9.510
 1180SOL    HW1 3998  -0.085   1.347   9.479
 1180SOL    HW2 3999   0.018   1.227   9.523
 1181SOL     OW 4000   0.088   1.801  10.237
 1181SOL    HW1 4001   0.046   1.715  10.210
 1181SOL    HW2 4002   0.182   1.804  10.203
 1182SOL     OW 4003   0.504   1.568  10.220
 1182SOL    HW1 4004   0.570   1.642  10.229
 1182SOL    HW2 4005   0.548   1.489  10.178
 1183SOL     OW 4006   1.002   0.796  10.548
 1183SOL    HW1 4007   1.043   0.764  10.634
 1183SOL    HW2 4008   0.906   0.769  10.545
 1184SOL     OW 4009   0.040   0.544  10.424
 1184SOL    HW1 4010   0.125   0.511  10.383
 1184SOL    HW2 4011   0.053   0.559  10.522
 1185SOL     OW 4012   0.189   0.520  11.032
 1185SOL    HW1 4013   0.248   0.480  10.962
 1185SOL    HW2 4014   0.131   0.591  10.991
 1186SOL     OW 4015   1.369   0.950  10.970
 1186SOL    HW1 4016   1.408   1.039  10.990
 1186SOL    HW2 4017   1.379   0.930  10.873
 1187SOL     OW 4018   0.815   0.572   9.635
 1187SOL    HW1 4019   0.822   0.483   9.589
 1187SOL    HW2 4020   0.721   0.606   9.627
 1188SOL     OW 4021   1.657   0.604  10.516
 1188SOL    HW1 4022   1.619   0.535  10.578
 1188SOL    HW2 4023   1.739   0.568  10.472
 1189SOL     OW 4024   0.252   1.564  11.054
 1189SOL    HW1 4025   0.222   1.621  11.130
 1189SOL    HW2 4026   0.245   1.467  11.080
 1190SOL     OW 4027   0.671   0.464  10.579
 1190SOL    HW1 4028   0.637   0.375  10.549
 1190SOL    HW2 4029   0.697   0.518  10.499
 1191SOL     OW 4030   0.930   1.678  10.775
 1191SOL    HW1 4031   0.906   1.660  10.680
 1191SOL    HW2 4032   0.960   1.772  10.785
 1192SOL     OW 4033   0.473   0.500   9.501
 1192SOL    HW1 4034   0.534   0.580   9.505
 1192SOL    HW2 4035   0.378   0.531   9.508
 1193SOL     OW 4036   0.159   1.137  10.776
 1193SOL    HW1 4037   0.181   1.076  10.852
 1193SOL    HW2 4038   0.169   1.088  10.690
 1194SOL     OW 4039   1.347   1.059  10.544
 1194SOL    HW1 4040   1.371   0.996  10.470
 1194SOL    HW2 4041   1.257   1.099  10.526
 1195SOL     OW 4042   1.302   0.855   9.619
 1195SOL    HW1 4043   1.216   0.824   9.661
 1195SOL    HW2 4044   1.298   0.841   9.520
 1196SOL     OW 4045   1.759   1.747  10.464
 1196SOL    HW1 4046   1.820   1.777  10.391
 1196SOL    HW2 4047   1.721   1.658  10.442
 1197SOL     OW 4048   1.252   1.731  10.438
 1197SOL    HW1 4049   1.336   1.736  10.384
 1197SOL    HW2 4050   1.229   1.635  10.456
 1198SOL     OW 4051   0.083   1.258  10.332
 1198SOL    HW1 4052   0.078   1.257  10.432
 1198SOL    HW2 4053   0.000   1.217  10.294
 1199SOL     OW 4054   0.688   1.662  11.026
 1199SOL    HW1 4055   0.632   1.743  11.035
 1199SOL    HW2 4056   0.740   1.666  10.940
 1200SOL     OW 4057   1.726   0.135   9.833
 1200SOL    HW1 4058   1.799   0.118   9.766
 1200SOL    HW2 4059   1.695   0.048   9.871
 1201SOL     OW 4060   1.388   1.573   9.787
 1201SOL    HW1 4061   1.455   1.585   9.713
 1201SOL    HW2 4062   1.348   1.662   9.810
 1202SOL     OW 4063   0.130   1.794  11.161
 1202SOL    HW1 4064   0.089   1.720  11.214
 1202SOL    HW2 4065   0.194   1.845  11.219
 1203SOL     OW 4066   1.280   0.927   9.982
 1203SOL    HW1 4067   1.340   0.846   9.984
 1203SOL    HW2 4068   1.320   0.996   9.922
 1204SOL     OW 4069   0.830   1.273  10.732
 1204SOL    HW1 4070   0.825   1.306  10.827
 1204SOL    HW2 4071   0.744   1.292  10.686
 1205SOL     OW 4072   0.672   1.616   9.464
 1205SOL    HW1 4073   0.681   1.626   9.365
 1205SOL    HW2 4074   0.632   1.527   9.485
 1206SOL     OW 4075   1.650   1.720  10.704
 1206SOL    HW1 4076   1.703   1.730  10.620
 1206SOL    HW2 4077   1.623   1.810  10.738
 1207SOL     OW 4078   1.841   0.175  10.273
 1207SOL    HW1 4079   1.880   0.090  10.237
 1207SOL    HW2 4080   1.743   0.177  10.254
 1208SOL     OW 4081   0.263   0.326  10.030
 1208SOL    HW1 4082   0.184   0.377   9.996
 1208SOL    HW2 4083   0.254   0.311  10.128
 1209SOL     OW 4084   1.194   1.612   9.341
 1209SOL    HW1 4085   1.200   1.519   9.378
 1209SOL    HW2 4086   1.135   1.612   9.261
 1210SOL     OW 4087   0.822   1.002  10.682
 1210SOL    HW1 4088   0.862   1.001  10.590
 1210SOL    HW2 4089   0.832   1.094  10.722
 1211SOL     OW 4090   0.916   0.910   9.601
 1211SOL    HW1 4091   0.979   0.948   9.533
 1211SOL    HW2 4092   0.956   0.827   9.640
 1212SOL     OW 4093   1.504   1.607   9.354
 1212SOL    HW1 4094   1.412   1.644   9.361
 1212SOL    HW2 4095   1.542   1.627   9.264
 1213SOL     OW 4096   0.372   1.288  10.800
 1213SOL    HW1 4097   0.359   1.381  10.766
 1213SOL    HW2 4098   0.288   1.236  10.787
 1214SOL     OW 4099   1.614   1.292  10.599
 1214SOL    HW1 4100   1.674   1.295  10.679
 1214SOL    HW2 4101   1.539   1.356  10.612
 1215SOL     OW 4102   1.039   1.098  10.006
 1215SOL    HW1 4103   0.969   1.051  10.060
 1215SOL    HW2 4104   1.098   1.030   9.963
 1216SOL     OW 4105   1.014   0.236  10.281
 1216SOL    HW1 4106   1.006   0.200  10.188
 1216SOL    HW2 4107   1.012   0.160  10.346
 1217SOL     OW 4108   0.590   1.487   9.801
 1217SOL    HW1 4109   0.632   1.429   9.731
 1217SOL    HW2 4110   0.546   1.566   9.757
 1218SOL     OW 4111   1.709   0.385  10.691
 1218SOL    HW1 4112   1.782   0.454  10.695
 1218SOL    HW2 4113   1.737   0.310  10.632
 1219SOL     OW 4114   0.255   1.348   9.600
 1219SOL    HW1 4115   0.159   1.349   9.573
 1219SOL    HW2 4116   0.267   1.401   9.684
 1220SOL     OW 4117   0.105   1.013  11.036
 1220SOL    HW1 4118   0.028   0.980  11.090
 1220SOL    HW2 4119   0.190   0.983  11.078
 1221SOL     OW 4120   0.672   0.203  10.799
 1221SOL    HW1 4121   0.762   0.187  10.759
 1221SOL    HW2 4122   0.680   0.208  10.898
 1222SOL     OW 4123   0.075   0.345   9.343
 1222SOL    HW1 4124  -0.017   0.317   9.314
 1222SOL    HW2 4125   0.106   0.422   9.287
 1223SOL     OW 4126   1.440   0.856  10.708
 1223SOL    HW1 4127   1.383   0.908  10.645
 1223SOL    HW2 4128   1.536   0.868  10.684
 1224SOL     OW 4129   0.072   0.166   9.628
 1224SOL    HW1 4130   0.055   0.249   9.574
 1224SOL    HW2 4131   0.162   0.129   9.606
 1225SOL     OW 4132   1.183   1.335   9.429
 1225SOL    HW1 4133   1.084   1.324   9.431
 1225SOL    HW2 4134   1.217   1.350   9.522
 1226SOL     OW 4135   0.613   0.842  10.741
 1226SOL    HW1 4136   0.669   0.923  10.724
 1226SOL    HW2 4137   0.672   0.762  10.744
 1227SOL     OW 4138   1.493   1.767  10.269
 1227SOL    HW1 4139   1.526   1.831  10.200
 1227SOL    HW2 4140   1.559   1.761  10.344
 1228SOL     OW 4141   0.716   0.565  11.018
 1228SOL    HW1 4142   0.735   0.630  11.092
 1228SOL    HW2 4143   0.776   0.485  11.027
 1229SOL     OW 4144   1.450   1.220  10.943
 1229SOL    HW1 4145   1.441   1.210  11.042
 1229SOL    HW2 4146   1.546   1.213  10.917
 1230SOL     OW 4147   0.390   1.741  10.870
 1230SOL    HW1 4148   0.299   1.782  10.868
 1230SOL    HW2 4149   0.383   1.647  10.902
 1231SOL     OW 4150   1.674   0.883  10.564
 1231SOL    HW1 4151   1.647   0.794  10.527
 1231SOL    HW2 4152   1.675   0.951  10.491
 1232SOL     OW 4153   1.225   0.325   9.759
 1232SOL    HW1 4154   1.290   0.251   9.748
 1232SOL    HW2 4155   1.245   0.375   9.843
 1233SOL     OW 4156   0.594   0.745   9.962
 1233SOL    HW1 4157   0.644   0.830   9.943
 1233SOL    HW2 4158   0.506   0.747   9.914
 1234SOL     OW 4159   1.777   0.342  10.952
 1234SOL    HW1 4160   1.760   0.373  10.858
 1234SOL    HW2 4161   1.693   0.305  10.990
 1235SOL     OW 4162   1.730   0.934  10.827
 1235SOL    HW1 4163   1.768   1.025  10.842
 1235SOL    HW2 4164   1.722   0.917  10.728
 1236SOL     OW 4165   0.859   1.374   9.326
 1236SOL    HW1 4166   0.813   1.389   9.414
 1236SOL    HW2 4167   0.903   1.459   9.296
 1237SOL     OW 4168   0.661   1.790  10.263
 1237SOL    HW1 4169   0.615   1.878  10.250
 1237SOL    HW2 4170   0.760   1.802  10.256
 1238SOL     OW 4171   0.859   0.956  10.171
 1238SOL    HW1 4172   0.913   0.887  10.219
 1238SOL    HW2 4173   0.827   1.025  10.237
 1239SOL     OW 4174   1.083   0.984   9.397
 1239SOL    HW1 4175   1.060   1.037   9.315
 1239SOL    HW2 4176   1.164   0.928   9.378
 1240SOL     OW 4177   1.861   1.569  10.161
 1240SOL    HW1 4178   1.790   1.557  10.091
 1240SOL    HW2 4179   1.862   1.490  10.221
 1241SOL     OW 4180   0.221   1.314  11.154
 1241SOL    HW1 4181   0.156   1.241  11.133
 1241SOL    HW2 4182   0.225   1.328  11.252
 1242SOL     OW 4183   0.079   1.240   9.963
 1242SOL    HW1 4184   0.078   1.193  10.051
 1242SOL    HW2 4185   0.161   1.212   9.912
 1243SOL     OW 4186   0.672   1.391  10.934
 1243SOL    HW1 4187   0.594   1.341  10.972
 1243SOL    HW2 4188   0.669   1.486  10.965
 1244SOL     OW 4189   1.824   0.192  10.537
 1244SOL    HW1 4190   1.820   0.102  10.581
 1244SOL    HW2 4191   1.827   0.181  10.438
 1245SOL     OW 4192   0.428   0.424   9.830
 1245SOL    HW1 4193   0.458   0.352   9.768
 1245SOL    HW2 4194   0.389   0.384   9.913
 1246SOL     OW 4195   1.705   1.487  10.414
 1246SOL    HW1 4196   1.612   1.462  10.387
 1246SOL    HW2 4197   1.731   1.437  10.496
 1247SOL     OW 4198   0.317   0.547  10.590
 1247SOL    HW1 4199   0.355   0.488  10.662
 1247SOL    HW2 4200   0.357   0.521  10.502
 1248SOL     OW 4201   0.812   1.586   9.997
 1248SOL    HW1 4202   0.844   1.596   9.903
 1248SOL    HW2 4203   0.733   1.524   9.999
 1249SOL     OW 4204   1.424   0.214  10.422
 1249SOL    HW1 4205   1.476   0.149  10.477
 1249SOL    HW2 4206   1.375   0.277  10.483
 1250SOL     OW 4207   1.001   0.034  10.464
 1250SOL    HW1 4208   0.938  -0.038  10.433
 1250SOL    HW2 4209   1.094  -0.002  10.464
 1251SOL     OW 4210   0.770   1.330   9.611
 1251SOL    HW1 4211   0.724   1.243   9.628
 1251SOL    HW2 4212   0.861   1.327   9.652
 1252SOL     OW 4213   0.618   1.567  10.594
 1252SOL    HW1 4214   0.613   1.649  10.651
 1252SOL    HW2 4215   0.707   1.564  10.549
 1253SOL     OW 4216   1.352   0.052   9.478
 1253SOL    HW1 4217   1.387   0.011   9.394
 1253SOL    HW2 4218   1.262   0.014   9.498
 1254SOL     OW 4219   1.300   0.453  10.001
 1254SOL    HW1 4220   1.241   0.533  10.005
 1254SOL    HW2 4221   1.315   0.418  10.094
 1255SOL     OW 4222   1.593   0.221  10.192
 1255SOL    HW1 4223   1.509   0.220  10.246
 1255SOL    HW2 4224   1.595   0.304  10.136
 1256SOL     OW 4225   0.039   1.077   9.610
 1256SOL    HW1 4226   0.138   1.066   9.601
 1256SOL    HW2 4227  -0.001   0.991   9.642
 1257SOL     OW 4228   0.875   1.646   9.647
 1257SOL    HW1 4229   0.798   1.611   9.593
 1257SOL    HW2 4230   0.843   1.717   9.709
 1258SOL     OW 4231   0.230   0.628  11.285
 1258SOL    HW1 4232   0.137   0.626  11.322
 1258SOL    HW2 4233   0.231   0.589  11.193
 1259SOL     OW 4234   0.225   0.275  12.168
 1259SOL    HW1 4235   0.260   0.258  12.260
 1259SOL    HW2 4236   0.137   0.230  12.156
 1260SOL     OW 4237   0.019   0.368  11.819
 1260SOL    HW1 4238  -0.063   0.411  11.858
 1260SOL    HW2 4239  -0.009   0.295  11.756
 1261SOL     OW 4240   0.569   1.275  12.337
 1261SOL    HW1 4241   0.476   1.268  12.300
 1261SOL    HW2 4242   0.580   1.364  12.381
 1262SOL     OW 4243   1.555   1.511  11.875
 1262SOL    HW1 4244   1.498   1.495  11.956
 1262SOL    HW2 4245   1.496   1.521  11.795
 1263SOL     OW 4246   1.135   0.703  11.889
 1263SOL    HW1 4247   1.192   0.781  11.864
 1263SOL    HW2 4248   1.075   0.729  11.965
 1264SOL     OW 4249   1.755   0.607  11.403
 1264SOL    HW1 4250   1.743   0.594  11.304
 1264SOL    HW2 4251   1.725   0.526  11.452
 1265SOL     OW 4252   0.768   1.144  12.195
 1265SOL    HW1 4253   0.690   1.161  12.255
 1265SOL    HW2 4254   0.802   1.231  12.159
 1266SOL     OW 4255   0.850   0.798  12.995
 1266SOL    HW1 4256   0.846   0.874  13.060
 1266SOL    HW2 4257   0.872   0.834  12.904
 1267SOL     OW 4258   0.685   1.012  11.837
 1267SOL    HW1 4259   0.754   0.996  11.907
 1267SOL    HW2 4260   0.612   1.069  11.875
 1268SOL     OW 4261   0.686   1.161  12.975
 1268SOL    HW1 4262   0.746   1.240  12.989
 1268SOL    HW2 4263   0.600   1.192  12.934
 1269SOL     OW 4264   0.335   1.435  12.233
 1269SOL    HW1 4265   0.257   1.404  12.180
 1269SOL    HW2 4266   0.393   1.493  12.176
 1270SOL     OW 4267   1.460   1.505  12.511
 1270SOL    HW1 4268   1.484   1.599  12.537
 1270SOL    HW2 4269   1.444   1.451  12.593
 1271SOL     OW 4270   0.438   0.392  12.671
 1271SOL    HW1 4271   0.520   0.336  12.680
 1271SOL    HW2 4272   0.357   0.334  12.675
 1272SOL     OW 4273   1.603   0.447  11.909
 1272SOL    HW1 4274   1.529   0.493  11.859
 1272SOL    HW2 4275   1.654   0.515  11.962
 1273SOL     OW 4276   0.231   1.713  11.655
 1273SOL    HW1 4277   0.265   1.790  11.709
 1273SOL    HW2 4278   0.275   1.713  11.565
 1274SOL     OW 4279   1.127   1.341  12.862
 1274SOL    HW1 4280   1.174   1.341  12.950
 1274SOL    HW2 4281   1.079   1.254  12.851
 1275SOL     OW 4282   0.230   1.434  11.710
 1275SOL    HW1 4283   0.204   1.530  11.710
 1275SOL    HW2 4284   0.159   1.380  11.755
 1276SOL     OW 4285   0.240   1.091  12.058
 1276SOL    HW1 4286   0.254   1.007  12.110
 1276SOL    HW2 4287   0.185   1.155  12.113
 1277SOL     OW 4288   0.620   1.786  12.611
 1277SOL    HW1 4289   0.528   1.769  12.646
 1277SOL    HW2 4290   0.648   1.878  12.637
 1278SOL     OW 4291   0.606   0.964  11.295
 1278SOL    HW1 4292   0.613   1.048  11.241
 1278SOL    HW2 4293   0.652   0.977  11.383
 1279SOL     OW 4294   1.594   0.114  12.652
 1279SOL    HW1 4295   1.576   0.181  12.580
 1279SOL    HW2 4296   1.591   0.160  12.741
 1280SOL     OW 4297   0.122   0.643  11.735
 1280SOL    HW1 4298   0.077   0.555  11.752
 1280SOL    HW2 4299   0.121   0.697  11.819
 1281SOL     OW 4300   0.027   1.596  11.289
 1281SOL    HW1 4301   0.008   1.500  11.310
 1281SOL    HW2 4302  -0.006   1.654  11.364
 1282SOL     OW 4303   1.689   0.922  11.784
 1282SOL    HW1 4304   1.784   0.893  11.792
 1282SOL    HW2 4305   1.681   0.987  11.709
 1283SOL     OW 4306   1.641   1.108  11.604
 1283SOL    HW1 4307   1.727   1.110  11.552
 1283SOL    HW2 4308   1.655   1.155  11.692
 1284SOL     OW 4309   0.113   0.737  12.769
 1284SOL    HW1 4310   0.201   0.724  12.814
 1284SOL    HW2 4311   0.100   0.834  12.747
 1285SOL     OW 4312   0.613   1.365  11.898
 1285SOL    HW1 4313   0.564   1.278  11.907
 1285SOL    HW2 4314   0.590   1.408  11.811
 1286SOL     OW 4315   1.293   1.228  12.595
 1286SOL    HW1 4316   1.330   1.155  12.537
 1286SOL    HW2 4317   1.345   1.233  12.680
 1287SOL     OW 4318   0.809   0.004  11.674
 1287SOL    HW1 4319   0.849   0.095  11.665
 1287SOL    HW2 4320   0.709   0.012  11.680
 1288SOL     OW 4321   0.197   0.976  12.436
 1288SOL    HW1 4322   0.286   0.931  12.422
 1288SOL    HW2 4323   0.124   0.911  12.417
 1289SOL     OW 4324   1.525   0.999  11.362
 1289SOL    HW1 4325   1.462   0.923  11.375
 1289SOL    HW2 4326   1.573   1.017  11.448
 1290SOL     OW 4327   1.187   1.792  12.788
 1290SOL    HW1 4328   1.211   1.852  12.712
 1290SOL    HW2 4329   1.194   1.697  12.758
 1291SOL     OW 4330   0.317   0.251  12.973
 1291SOL    HW1 4331   0.388   0.322  12.979
 1291SOL    HW2 4332   0.229   0.290  13.001
 1292SOL     OW 4333   1.466   1.417  12.125
 1292SOL    HW1 4334   1.407   1.423  12.205
 1292SOL    HW2 4335   1.451   1.329  12.079
 1293SOL     OW 4336   1.667   1.714  11.744
 1293SOL    HW1 4337   1.626   1.691  11.656
 1293SOL    HW2 4338   1.649   1.640  11.809
 1294SOL     OW 4339   0.598   0.729  11.442
 1294SOL    HW1 4340   0.622   0.798  11.374
 1294SOL    HW2 4341   0.520   0.762  11.496
 1295SOL     OW 4342   1.281   0.345  12.116
 1295SOL    HW1 4343   1.195   0.295  12.103
 1295SOL    HW2 4344   1.343   0.291  12.172
 1296SOL     OW 4345   1.576   1.662  11.479
 1296SOL    HW1 4346   1.665   1.708  11.482
 1296SOL    HW2 4347   1.555   1.638  11.384
 1297SOL     OW 4348   0.807   0.605  12.637
 1297SOL    HW1 4349   0.760   0.602  12.726
 1297SOL    HW2 4350   0.756   0.550  12.571
 1298SOL     OW 4351   1.394   0.469  12.846
 1298SOL    HW1 4352   1.374   0.512  12.934
 1298SOL    HW2 4353   1.472   0.407  12.855
 1299SOL     OW 4354   0.973   0.890  12.744
 1299SOL    HW1 4355   1.019   0.806  12.715
 1299SOL    HW2 4356   0.917   0.924  12.669
 1300SOL     OW 4357   0.991   0.410  12.414
 1300SOL    HW1 4358   0.914   0.444  12.468
 1300SOL    HW2 4359   0.957   0.359  12.335
 1301SOL     OW 4360   1.041   0.701  11.601
 1301SOL    HW1 4361   1.067   0.697  11.697
 1301SOL    HW2 4362   0.956   0.650  11.587
 1302SOL     OW 4363   0.076   0.811  11.961
 1302SOL    HW1 4364   0.175   0.799  11.970
 1302SOL    HW2 4365   0.052   0.906  11.982
 1303SOL     OW 4366   0.130   1.821  12.743
 1303SOL    HW1 4367   0.120   1.806  12.842
 1303SOL    HW2 4368   0.044   1.857  12.707
 1304SOL     OW 4369   0.865   0.348  11.367
 1304SOL    HW1 4370   0.924   0.411  11.318
 1304SOL    HW2 4371   0.884   0.254  11.338
 1305SOL     OW 4372   1.719   0.585  13.003
 1305SOL    HW1 4373   1.693   0.674  12.967
 1305SOL    HW2 4374   1.717   0.517  12.930
 1306SOL     OW 4375   1.362   1.144  11.717
 1306SOL    HW1 4376   1.445   1.115  11.669
 1306SOL    HW2 4377   1.313   1.211  11.661
 1307SOL     OW 4378   0.550   0.196  12.057
 1307SOL    HW1 4379   0.545   0.191  12.157
 1307SOL    HW2 4380   0.552   0.292  12.028
 1308SOL     OW 4381   1.008   1.456  11.649
 1308SOL    HW1 4382   0.962   1.528  11.597
 1308SOL    HW2 4383   1.004   1.476  11.747
 1309SOL     OW 4384   0.351   1.801  12.025
 1309SOL    HW1 4385   0.401   1.715  12.031
 1309SOL    HW2 4386   0.416   1.878  12.022
 1310SOL     OW 4387   1.795   1.066  12.045
 1310SOL    HW1 4388   1.733   1.051  11.969
 1310SOL    HW2 4389   1.743   1.077  12.130
 1311SOL     OW 4390   1.227   1.550  12.678
 1311SOL    HW1 4391   1.233   1.473  12.742
 1311SOL    HW2 4392   1.175   1.524  12.598
 1312SOL     OW 4393   0.321   0.943  11.414
 1312SOL    HW1 4394   0.403   0.982  11.372
 1312SOL    HW2 4395   0.294   0.861  11.365
 1313SOL     OW 4396   1.458   0.735  11.900
 1313SOL    HW1 4397   1.453   0.670  11.975
 1313SOL    HW2 4398   1.538   0.794  11.913
 1314SOL     OW 4399   0.461   1.266  12.899
 1314SOL    HW1 4400   0.411   1.267  12.813
 1314SOL    HW2 4401   0.398   1.248  12.975
 1315SOL     OW 4402   1.111   1.776  11.409
 1315SOL    HW1 4403   1.051   1.714  11.459
 1315SOL    HW2 4404   1.142   1.732  11.324
 1316SOL     OW 4405   0.202   0.285  12.670
 1316SOL    HW1 4406   0.122   0.345  12.657
 1316SOL    HW2 4407   0.192   0.236  12.756
 1317SOL     OW 4408   1.632   1.377  11.253
 1317SOL    HW1 4409   1.600   1.471  11.243
 1317SOL    HW2 4410   1.556   1.314  11.241
 1318SOL     OW 4411   0.464   1.743  11.495
 1318SOL    HW1 4412   0.497   1.782  11.581
 1318SOL    HW2 4413   0.540   1.736  11.430
 1319SOL     OW 4414   1.400   0.107  11.598
 1319SOL    HW1 4415   1.376   0.070  11.508
 1319SOL    HW2 4416   1.499   0.123  11.602
 1320SOL     OW 4417   0.249   1.785  12.413
 1320SOL    HW1 4418   0.306   1.720  12.463
 1320SOL    HW2 4419   0.233   1.752  12.320
 1321SOL     OW 4420   0.940   1.698  12.076
 1321SOL    HW1 4421   1.020   1.641  12.097
 1321SOL    HW2 4422   0.891   1.658  11.999
 1322SOL     OW 4423   0.382   0.700  11.652
 1322SOL    HW1 4424   0.427   0.610  11.649
 1322SOL    HW2 4425   0.288   0.689  11.685
 1323SOL     OW 4426   1.547   0.222  12.901
 1323SOL    HW1 4427   1.542   0.259  12.993
 1323SOL    HW2 4428   1.475   0.153  12.889
 1324SOL     OW 4429   0.614   0.122  11.289
 1324SOL    HW1 4430   0.712   0.100  11.296
 1324SOL    HW2 4431   0.583   0.105  11.196
 1325SOL     OW 4432   0.781   0.264  12.921
 1325SOL    HW1 4433   0.848   0.203  12.964
 1325SOL    HW2 4434   0.708   0.283  12.986
 1326SOL     OW 4435   0.888   1.514  12.367
 1326SOL    HW1 4436   0.865   1.489  12.273
 1326SOL    HW2 4437   0.949   1.445  12.406
 1327SOL     OW 4438   1.351   0.590  12.605
 1327SOL    HW1 4439   1.379   0.547  12.690
 1327SOL    HW2 4440   1.376   0.686  12.606
 1328SOL     OW 4441   0.803   1.402  12.096
 1328SOL    HW1 4442   0.893   1.416  12.054
 1328SOL    HW2 4443   0.732   1.404  12.025
 1329SOL     OW 4444   0.922   0.503  12.071
 1329SOL    HW1 4445   0.897   0.494  11.975
 1329SOL    HW2 4446   0.970   0.421  12.102
 1330SOL     OW 4447   0.539   0.064  11.684
 1330SOL    HW1 4448   0.458   0.065  11.742
 1330SOL    HW2 4449   0.542   0.147  11.629
 1331SOL     OW 4450   1.434   1.188  11.213
 1331SOL    HW1 4451   1.466   1.112  11.270
 1331SOL    HW2 4452   1.342   1.215  11.243
 1332SOL     OW 4453   0.297   0.035  11.343
 1332SOL    HW1 4454   0.346   0.119  11.322
 1332SOL    HW2 4455   0.359  -0.030  11.388
 1333SOL     OW 4456   0.935   0.236  11.652
 1333SOL    HW1 4457   0.887   0.277  11.574
 1333SOL    HW2 4458   1.034   0.234  11.633
 1334SOL     OW 4459   1.076   0.683  12.636
 1334SOL    HW1 4460   0.996   0.622  12.639
 1334SOL    HW2 4461   1.157   0.630  12.612
 1335SOL     OW 4462   1.227   1.570  11.965
 1335SOL    HW1 4463   1.248   1.644  11.900
 1335SOL    HW2 4464   1.295   1.570  12.038
 1336SOL     OW 4465   0.459   1.152  11.913
 1336SOL    HW1 4466   0.388   1.125  11.978
 1336SOL    HW2 4467   0.433   1.124  11.820
 1337SOL     OW 4468   1.271   1.797  11.763
 1337SOL    HW1 4469   1.315   1.861  11.699
 1337SOL    HW2 4470   1.221   1.849  11.833
 1338SOL     OW 4471   1.032   0.549  11.188
 1338SOL    HW1 4472   0.991   0.631  11.149
 1338SOL    HW2 4473   1.096   0.575  11.261
 1339SOL     OW 4474   0.078   0.556  12.558
 1339SOL    HW1 4475   0.170   0.555  12.517
 1339SOL    HW2 4476   0.072   0.630  12.625
 1340SOL     OW 4477   0.561   0.222  12.319
 1340SOL    HW1 4478   0.599   0.138  12.356
 1340SOL    HW2 4479   0.473   0.241  12.363
 1341SOL     OW 4480   0.866   0.454  11.814
 1341SOL    HW1 4481   0.834   0.526  11.752
 1341SOL    HW2 4482   0.890   0.373  11.761
 1342SOL     OW 4483   1.017   0.039  11.925
 1342SOL    HW1 4484   0.945   0.044  11.856
 1342SOL    HW2 4485   0.993  -0.030  11.994
 1343SOL     OW 4486   1.429   1.173  12.039
 1343SOL    HW1 4487   1.374   1.089  12.032
 1343SOL    HW2 4488   1.455   1.202  11.947
 1344SOL     OW 4489   1.466   0.590  12.164
 1344SOL    HW1 4490   1.436   0.495  12.171
 1344SOL    HW2 4491   1.539   0.606  12.230
 1345SOL     OW 4492   1.857   0.833  11.549
 1345SOL    HW1 4493   1.899   0.769  11.613
 1345SOL    HW2 4494   1.819   0.782  11.471
 1346SOL     OW 4495   0.488   1.385  11.346
 1346SOL    HW1 4496   0.401   1.370  11.393
 1346SOL    HW2 4497   0.471   1.411  11.251
 1347SOL     OW 4498   1.664   1.280  11.829
 1347SOL    HW1 4499   1.763   1.288  11.843
 1347SOL    HW2 4500   1.619   1.364  11.860
 1348SOL     OW 4501   1.390   0.575  11.250
 1348SOL    HW1 4502   1.336   0.554  11.331
 1348SOL    HW2 4503   1.481   0.534  11.259
 1349SOL     OW 4504   0.527   0.256  11.500
 1349SOL    HW1 4505   0.554   0.197  11.425
 1349SOL    HW2 4506   0.527   0.351  11.469
 1350SOL     OW 4507   1.754   1.223  12.760
 1350SOL    HW1 4508   1.845   1.184  12.747
 1350SOL    HW2 4509   1.762   1.319  12.784
 1351SOL     OW 4510   1.064   1.347  12.512
 1351SOL    HW1 4511   0.984   1.324  12.567
 1351SOL    HW2 4512   1.147   1.321  12.561
 1352SOL     OW 4513   1.592   1.629  12.797
 1352SOL    HW1 4514   1.619   1.663  12.707
 1352SOL    HW2 4515   1.671   1.591  12.843
 1353SOL     OW 4516   1.111   1.195  12.272
 1353SOL    HW1 4517   1.071   1.239  12.353
 1353SOL    HW2 4518   1.070   1.232  12.189
 1354SOL     OW 4519   1.638   1.099  12.251
 1354SOL    HW1 4520   1.643   1.180  12.310
 1354SOL    HW2 4521   1.552   1.101  12.200
 1355SOL     OW 4522   0.915   0.089  12.574
 1355SOL    HW1 4523   0.940   0.069  12.479
 1355SOL    HW2 4524   0.987   0.145  12.616
 1356SOL     OW 4525   0.980   1.116  12.891
 1356SOL    HW1 4526   0.881   1.122  12.901
 1356SOL    HW2 4527   1.003   1.036  12.835
 1357SOL     OW 4528   0.705   1.050  11.540
 1357SOL    HW1 4529   0.691   1.057  11.639
 1357SOL    HW2 4530   0.789   0.999  11.522
 1358SOL     OW 4531   0.410   0.813  12.423
 1358SOL    HW1 4532   0.496   0.825  12.473
 1358SOL    HW2 4533   0.368   0.726  12.450
 1359SOL     OW 4534   1.274   0.386  12.434
 1359SOL    HW1 4535   1.295   0.460  12.498
 1359SOL    HW2 4536   1.185   0.403  12.391
 1360SOL     OW 4537   0.064   1.564  12.503
 1360SOL    HW1 4538   0.018   1.646  12.469
 1360SOL    HW2 4539   0.162   1.583  12.512
 1361SOL     OW 4540   0.367   1.100  11.673
 1361SOL    HW1 4541   0.360   1.183  11.617
 1361SOL    HW2 4542   0.371   1.020  11.613
 1362SOL     OW 4543   0.566   0.537  12.037
 1362SOL    HW1 4544   0.578   0.603  11.963
 1362SOL    HW2 4545   0.612   0.571  12.120
 1363SOL     OW 4546   1.252   1.348  11.560
 1363SOL    HW1 4547   1.302   1.425  11.600
 1363SOL    HW2 4548   1.157   1.350  11.592
 1364SOL     OW 4549   1.272   1.445  12.314
 1364SOL    HW1 4550   1.319   1.458  12.401
 1364SOL    HW2 4551   1.206   1.371  12.323
 1365SOL     OW 4552   1.582   0.639  11.644
 1365SOL    HW1 4553   1.551   0.700  11.717
 1365SOL    HW2 4554   1.632   0.691  11.575
 1366SOL     OW 4555   0.354   1.510  12.501
 1366SOL    HW1 4556   0.333   1.466  12.414
 1366SOL    HW2 4557   0.451   1.536  12.504
 1367SOL     OW 4558   0.402   0.751  12.770
 1367SOL    HW1 4559   0.470   0.806  12.723
 1367SOL    HW2 4560   0.442   0.663  12.797
 1368SOL     OW 4561   1.587   0.779  12.842
 1368SOL    HW1 4562   1.495   0.817  12.837
 1368SOL    HW2 4563   1.647   0.826  12.777
 1369SOL     OW 4564   1.013   0.105  12.942
 1369SOL    HW1 4565   1.019   0.190  12.890
 1369SOL    HW2 4566   1.045   0.029  12.885
 1370SOL     OW 4567   0.504   0.050  12.912
 1370SOL    HW1 4568   0.462  -0.007  12.842
 1370SOL    HW2 4569   0.438   0.119  12.944
 1371SOL     OW 4570   0.573   0.870  12.201
 1371SOL    HW1 4571   0.617   0.959  12.192
 1371SOL    HW2 4572   0.510   0.870  12.278
 1372SOL     OW 4573   1.360   0.862  12.217
 1372SOL    HW1 4574   1.285   0.862  12.151
 1372SOL    HW2 4575   1.397   0.770  12.226
 1373SOL     OW 4576   1.209   0.525  11.447
 1373SOL    HW1 4577   1.222   0.441  11.501
 1373SOL    HW2 4578   1.180   0.599  11.507
 1374SOL     OW 4579   0.307   0.213  12.403
 1374SOL    HW1 4580   0.284   0.250  12.493
 1374SOL    HW2 4581   0.277   0.118  12.397
 1375SOL     OW 4582   0.037   1.310  12.454
 1375SOL    HW1 4583   0.090   1.261  12.522
 1375SOL    HW2 4584   0.059   1.408  12.459
 1376SOL     OW 4585   0.732   0.634  12.236
 1376SOL    HW1 4586   0.791   0.608  12.160
 1376SOL    HW2 4587   0.704   0.730  12.225
 1377SOL     OW 4588   1.728   0.935  13.026
 1377SOL    HW1 4589   1.682   0.928  12.937
 1377SOL    HW2 4590   1.666   0.979  13.092
 1378SOL     OW 4591   0.307   0.063  11.790
 1378SOL    HW1 4592   0.296   0.157  11.823
 1378SOL    HW2 4593   0.302   0.000  11.867
 1379SOL     OW 4594   1.622   0.367  11.546
 1379SOL    HW1 4595   1.624   0.291  11.610
 1379SOL    HW2 4596   1.574   0.444  11.586
 1380SOL     OW 4597   1.023   0.766  12.138
 1380SOL    HW1 4598   1.038   0.787  12.234
 1380SOL    HW2 4599   0.993   0.671  12.129
 1381SOL     OW 4600   0.980   1.573  12.872
 1381SOL    HW1 4601   0.960   1.617  12.784
 1381SOL    HW2 4602   1.019   1.482  12.856
 1382SOL     OW 4603   1.859   1.518  12.777
 1382SOL    HW1 4604   1.873   1.545  12.682
 1382SOL    HW2 4605   1.942   1.540  12.830
 1383SOL     OW 4606   0.350   0.898  12.976
 1383SOL    HW1 4607   0.426   0.942  13.024
 1383SOL    HW2 4608   0.385   0.851  12.894
 1384SOL     OW 4609   1.540   0.274  11.297
 1384SOL    HW1 4610   1.479   0.199  11.320
 1384SOL    HW2 4611   1.562   0.326  11.380
 1385SOL     OW 4612   1.303   0.838  11.214
 1385SOL    HW1 4613   1.337   0.745  11.229
 1385SOL    HW2 4614   1.321   0.865  11.119
 1386SOL     OW 4615   1.068   1.333  12.021
 1386SOL    HW1 4616   1.075   1.249  11.966
 1386SOL    HW2 4617   1.130   1.402  11.985
 1387SOL     OW 4618   0.319   0.810  12.121
 1387SOL    HW1 4619   0.412   0.846  12.126
 1387SOL    HW2 4620   0.313   0.725  12.173
 1388SOL     OW 4621   0.339   0.509  12.178
 1388SOL    HW1 4622   0.287   0.426  12.161
 1388SOL    HW2 4623   0.416   0.514  12.114
 1389SOL     OW 4624   1.138   0.380  12.850
 1389SOL    HW1 4625   1.093   0.443  12.914
 1389SOL    HW2 4626   1.231   0.411  12.833
 1390SOL     OW 4627   1.160   0.207  12.649
 1390SOL    HW1 4628   1.160   0.271  12.726
 1390SOL    HW2 4629   1.188   0.255  12.566
 1391SOL     OW 4630   0.008   1.326  11.372
 1391SOL    HW1 4631  -0.085   1.347  11.341
 1391SOL    HW2 4632   0.018   1.227  11.385
 1392SOL     OW 4633   0.088   1.801  12.099
 1392SOL    HW1 4634   0.046   1.715  12.072
 1392SOL    HW2 4635   0.182   1.804  12.065
 1393SOL     OW 4636   0.504   1.568  12.082
 1393SOL    HW1 4637   0.570   1.642  12.091
 1393SOL    HW2 4638   0.548   1.489  12.040
 1394SOL     OW 4639   1.002   0.796  12.410
 1394SOL    HW1 4640   1.043   0.764  12.496
 1394SOL    HW2 4641   0.906   0.769  12.407
 1395SOL     OW 4642   0.040   0.544  12.286
 1395SOL    HW1 4643   0.125   0.511  12.245
 1395SOL    HW2 4644   0.053   0.559  12.384
 1396SOL     OW 4645   0.189   0.520  12.894
 1396SOL    HW1 4646   0.248   0.480  12.824
 1396SOL    HW2 4647   0.131   0.591  12.853
 1397SOL     OW 4648   1.369   0.950  12.832
 1397SOL    HW1 4649   1.408   1.039  12.852
 1397SOL    HW2 4650   1.379   0.930  12.735
 1398SOL     OW 4651   0.815   0.572  11.497
 1398SOL    HW1 4652   0.822   0.483  11.451
 1398SOL    HW2 4653   0.721   0.606  11.489
 1399SOL     OW 4654   1.657   0.604  12.378
 1399SOL    HW1 4655   1.619   0.535  12.440
 1399SOL    HW2 4656   1.739   0.568  12.334
 1400SOL     OW 4657   0.252   1.564  12.916
 1400SOL    HW1 4658   0.222   1.621  12.992
 1400SOL    HW2 4659   0.245   1.467  12.942
 1401SOL     OW 4660   0.671   0.464  12.441
 1401SOL    HW1 4661   0.637   0.375  12.411
 1401SOL    HW2 4662   0.697   0.518  12.361
 1402SOL     OW 4663   0.930   1.678  12.637
 1402SOL    HW1 4664   0.906   1.660  12.542
 1402SOL    HW2 4665   0.960   1.772  12.647
 1403SOL     OW 4666   0.473   0.500  11.363
 1403SOL    HW1 4667   0.534   0.580  11.367
 1403SOL    HW2 4668   0.378   0.531  11.370
 1404SOL     OW 4669   0.159   1.137  12.638
 1404SOL    HW1 4670   0.181   1.076  12.714
 1404SOL    HW2 4671   0.169   1.088  12.552
 1405SOL     OW 4672   1.347   1.059  12.406
 1405SOL    HW1 4673   1.371   0.996  12.332
 1405SOL    HW2 4674   1.257   1.099  12.388
 1406SOL     OW 4675   1.302   0.855  11.481
 1406SOL    HW1 4676   1.216   0.824  11.523
 1406SOL    HW2 4677   1.298   0.841  11.382
 1407SOL     OW 4678   1.759   1.747  12.326
 1407SOL    HW1 4679   1.820   1.777  12.253
 1407SOL    HW2 4680   1.721   1.658  12.304
 1408SOL     OW 4681   1.252   1.731  12.300
 1408SOL    HW1 4682   1.336   1.736  12.246
 1408SOL    HW2 4683   1.229   1.635  12.318
 1409SOL     OW 4684   0.083   1.258  12.194
 1409SOL    HW1 4685   0.078   1.257  12.294
 1409SOL    HW2 4686   0.000   1.217  12.156
 1410SOL     OW 4687   0.688   1.662  12.888
 1410SOL    HW1 4688   0.632   1.743  12.897
 1410SOL    HW2 4689   0.740   1.666  12.802
 1411SOL     OW 4690   1.726   0.135  11.695
 1411SOL    HW1 4691   1.799   0.118  11.628
 1411SOL    HW2 4692   1.695   0.048  11.733
 1412SOL     OW 4693   1.388   1.573  11.649
 1412SOL    HW1 4694   1.455   1.585  11.575
 1412SOL    HW2 4695   1.348   1.662  11.672
 1413SOL     OW 4696   0.130   1.794  13.023
 1413SOL    HW1 4697   0.089   1.720  13.076
 1413SOL    HW2 4698   0.194   1.845  13.081
 1414SOL     OW 4699   1.280   0.927  11.844
 1414SOL    HW1 4700   1.340   0.846  11.846
 1414SOL    HW2 4701   1.320   0.996  11.784
 1415SOL     OW 4702   0.830   1.273  12.594
 1415SOL    HW1 4703   0.825   1.306  12.689
 1415SOL    HW2 4704   0.744   1.292  12.548
 1416SOL     OW 4705   0.672   1.616  11.326
 1416SOL    HW1 4706   0.681   1.626  11.227
 1416SOL    HW2 4707   0.632   1.527  11.347
 1417SOL     OW 4708   1.650   1.720  12.566
 1417SOL    HW1 4709   1.703   1.730  12.482
 1417SOL    HW2 4710   1.623   1.810  12.600
 1418SOL     OW 4711   1.841   0.175  12.135
 1418SOL    HW1 4712   1.880   0.090  12.099
 1418SOL    HW2 4713   1.743   0.177  12.116
 1419SOL     OW 4714   0.263   0.326  11.892
 1419SOL    HW1 4715   0.184   0.377  11.858
 1419SOL    HW2 4716   0.254   0.311  11.990
 1420SOL     OW 4717   1.194   1.612  11.203
 1420SOL    HW1 4718   1.200   1.519  11.240
 1420SOL    HW2 4719   1.135   1.612  11.123
 1421SOL     OW 4720   0.822   1.002  12.544
 1421SOL    HW1 4721   0.862   1.001  12.452
 1421SOL    HW2 4722   0.832   1.094  12.584
 1422SOL     OW 4723   0.916   0.910  11.463
 1422SOL    HW1 4724   0.979   0.948  11.395
 1422SOL    HW2 4725   0.956   0.827  11.502
 1423SOL     OW 4726   1.504   1.607  11.216
 1423SOL    HW1 4727   1.412   1.644  11.223
 1423SOL    HW2 4728   1.542   1.627  11.126
 1424SOL     OW 4729   0.372   1.288  12.662
 1424SOL    HW1 4730   0.359   1.381  12.628
 1424SOL    HW2 4731   0.288   1.236  12.649
 1425SOL     OW 4732   1.614   1.292  12.461
 1425SOL    HW1 4733   1.674   1.295  12.541
 1425SOL    HW2 4734   1.539   1.356  12.474
 1426SOL     OW 4735   1.039   1.098  11.868
 1426SOL    HW1 4736   0.969   1.051  11.922
 1426SOL    HW2 4737   1.098   1.030  11.825
 1427SOL     OW 4738   1.014   0.236  12.143
 1427SOL    HW1 4739   1.006   0.200  12.050
 1427SOL    HW2 4740   1.012   0.160  12.208
 1428SOL     OW 4741   0.590   1.487  11.663
 1428SOL    HW1 4742   0.632   1.429  11.593
 1428SOL    HW2 4743   0.546   1.566  11.619
 1429SOL     OW 4744   1.709   0.385  12.553
 1429SOL    HW1 4745   1.782   0.454  12.557
 1429SOL    HW2 4746   1.737   0.310  12.494
 1430SOL     OW 4747   0.255   1.348  11.462
 1430SOL    HW1 4748   0.159   1.349  11.435
 1430SOL    HW2 4749   0.267   1.401  11.546
 1431SOL     OW 4750   0.105   1.013  12.898
 1431SOL    HW1 4751   0.028   0.980  12.952
 1431SOL    HW2 4752   0.190   0.983  12.940
 1432SOL     OW 4753   0.672   0.203  12.661
 1432SOL    HW1 4754   0.762   0.187  12.621
 1432SOL    HW2 4755   0.680   0.208  12.760
 1433SOL     OW 4756   0.075   0.345  11.205
 1433SOL    HW1 4757  -0.017   0.317  11.176
 1433SOL    HW2 4758   0.106   0.422  11.149
 1434SOL     OW 4759   1.440   0.856  12.570
 1434SOL    HW1 4760   1.383   0.908  12.507
 1434SOL    HW2 4761   1.536   0.868  12.546
 1435SOL     OW 4762   0.072   0.166  11.490
 1435SOL    HW1 4763   0.055   0.249  11.436
 1435SOL    HW2 4764   0.162   0.129  11.468
 1436SOL     OW 4765   1.183   1.335  11.291
 1436SOL    HW1 4766   1.084   1.324  11.293
 1436SOL    HW2 4767   1.217   1.350  11.384
 1437SOL     OW 4768   0.613   0.842  12.603
 1437SOL    HW1 4769   0.669   0.923  12.586
 1437SOL    HW2 4770   0.672   0.762  12.606
 1438SOL     OW 4771   1.493   1.767  12.131
 1438SOL    HW1 4772   1.526   1.831  12.062
 1438SOL    HW2 4773   1.559   1.761  12.206
 1439SOL     OW 4774   0.716   0.565  12.880
 1439SOL    HW1 4775   0.735   0.630  12.954
 1439SOL    HW2 4776   0.776   0.485  12.889
 1440SOL     OW 4777   1.450   1.220  12.805
 1440SOL    HW1 4778   1.441   1.210  12.904
 1440SOL    HW2 4779   1.546   1.213  12.779
 1441SOL     OW 4780   0.390   1.741  12.732
 1441SOL    HW1 4781   0.299   1.782  12.730
 1441SOL    HW2 4782   0.383   1.647  12.764
 1442SOL     OW 4783   1.674   0.883  12.426
 1442SOL    HW1 4784   1.647   0.794  12.389
 1442SOL    HW2 4785   1.675   0.951  12.353
 1443SOL     OW 4786   1.225   0.325  11.621
 1443SOL    HW1 4787   1.290   0.251  11.610
 1443SOL    HW2 4788   1.245   0.375  11.705
 1444SOL     OW 4789   0.594   0.745  11.824
 1444SOL    HW1 4790   0.644   0.830  11.805
 1444SOL    HW2 4791   0.506   0.747  11.776
 1445SOL     OW 4792   1.777   0.342  12.814
 1445SOL    HW1 4793   1.760   0.373  12.720
 1445SOL    HW2 4794   1.693   0.305  12.852
 1446SOL     OW 4795   1.730   0.934  12.689
 1446SOL    HW1 4796   1.768   1.025  12.704
 1446SOL    HW2 4797   1.722   0.917  12.590
 1447SOL     OW 4798   0.859   1.374  11.188
 1447SOL    HW1 4799   0.813   1.389  11.276
 1447SOL    HW2 4800   0.903   1.459  11.158
 1448SOL     OW 4801   0.661   1.790  12.125
 1448SOL    HW1 4802   0.615   1.878  12.112
 1448SOL    HW2 4803   0.760   1.802  12.118
 1449SOL     OW 4804   0.859   0.956  12.033
 1449SOL    HW1 4805   0.913   0.887  12.081
 1449SOL    HW2 4806   0.827   1.025  12.099
 1450SOL     OW 4807   1.083   0.984  11.259
 1450SOL    HW1 4808   1.060   1.037  11.177
 1450SOL    HW2 4809   1.164   0.928  11.240
 1451SOL     OW 4810   1.861   1.569  12.023
 1451SOL    HW1 4811   1.790   1.557  11.953
 1451SOL    HW2 4812   1.862   1.490  12.083
 1452SOL     OW 4813   0.221   1.314  13.016
 1452SOL    HW1 4814   0.156   1.241  12.995
 1452SOL    HW2 4815   0.225   1.328  13.114
 1453SOL     OW 4816   0.079   1.240  11.825
 1453SOL    HW1 4817   0.078   1.193  11.913
 1453SOL    HW2 4818   0.161   1.212  11.774
 1454SOL     OW 4819   0.672   1.391  12.796
 1454SOL    HW1 4820   0.594   1.341  12.834
 1454SOL    HW2 4821   0.669   1.486  12.827
 1455SOL     OW 4822   1.824   0.192  12.399
 1455SOL    HW1 4823   1.820   0.102  12.443
 1455SOL    HW2 4824   1.827   0.181  12.300
 1456SOL     OW 4825   0.428   0.424  11.692
 1456SOL    HW1 4826   0.458   0.352  11.630
 1456SOL    HW2 4827   0.389   0.384  11.775
 1457SOL     OW 4828   1.705   1.487  12.276
 1457SOL    HW1 4829   1.612   1.462  12.249
 1457SOL    HW2 4830   1.731   1.437  12.358
 1458SOL     OW 4831   0.317   0.547  12.452
 1458SOL    HW1 4832   0.355   0.488  12.524
 1458SOL    HW2 4833   0.357   0.521  12.364
 1459SOL     OW 4834   0.812   1.586  11.859
 1459SOL    HW1 4835   0.844   1.596  11.765
 1459SOL    HW2 4836   0.733   1.524  11.861
 1460SOL     OW 4837   1.424   0.214  12.284
 1460SOL    HW1 4838   1.476   0.149  12.339
 1460SOL    HW2 4839   1.375   0.277  12.345
 1461SOL     OW 4840   1.001   0.034  12.326
 1461SOL    HW1 4841   0.938  -0.038  12.295
 1461SOL    HW2 4842   1.094  -0.002  12.326
 1462SOL     OW 4843   0.770   1.330  11.473
 1462SOL    HW1 4844   0.724   1.243  11.490
 1462SOL    HW2 4845   0.861   1.327  11.514
 1463SOL     OW 4846   0.618   1.567  12.456
 1463SOL    HW1 4847   0.613   1.649  12.513
 1463SOL    HW2 4848   0.707   1.564  12.411
 1464SOL     OW 4849   1.352   0.052  11.340
 1464SOL    HW1 4850   1.387   0.011  11.256
 1464SOL    HW2 4851   1.262   0.014  11.360
 1465SOL     OW 4852   1.300   0.453  11.863
 1465SOL    HW1 4853   1.241   0.533  11.867
 1465SOL    HW2 4854   1.315   0.418  11.956
 1466SOL     OW 4855   1.593   0.221  12.054
 1466SOL    HW1 4856   1.509   0.220  12.108
 1466SOL    HW2 4857   1.595   0.304  11.998
 1467SOL     OW 4858   0.039   1.077  11.472
 1467SOL    HW1 4859   0.138   1.066  11.463
 1467SOL    HW2 4860  -0.001   0.991  11.504
 1468SOL     OW 4861   0.875   1.646  11.509
 1468SOL    HW1 4862   0.798   1.611  11.455
 1468SOL    HW2 4863   0.843   1.717  11.571
 1469SOL     OW 4864   0.230   0.628  13.147
 1469SOL    HW1 4865   0.137   0.626  13.184
 1469SOL    HW2 4866   0.231   0.589  13.055
 1470SOL     OW 4867   0.225   0.275  14.030
 1470SOL    HW1 4868   0.260   0.258  14.122
 1470SOL    HW2 4869   0.137   0.230  14.018
 1471SOL     OW 4870   0.019   0.368  13.681
 1471SOL    HW1 4871  -0.063   0.411  13.720
 1471SOL    HW2 4872  -0.009   0.295  13.618
 1472SOL     OW 4873   1.555   1.511  13.737
 1472SOL    HW1 4874   1.498   1.495  13.818
 1472SOL    HW2 4875   1.496   1.521  13.657
 1473SOL     OW 4876   1.135   0.703  13.751
 1473SOL    HW1 4877   1.192   0.781  13.726
 1473SOL    HW2 4878   1.075   0.729  13.827
 1474SOL     OW 4879   1.755   0.607  13.265
 1474SOL    HW1 4880   1.743   0.594  13.166
 1474SOL    HW2 4881   1.725   0.526  13.314
 1475SOL     OW 4882   0.685   1.012  13.699
 1475SOL    HW1 4883   0.754   0.996  13.769
 1475SOL    HW2 4884   0.612   1.069  13.737
 1476SOL     OW 4885   1.603   0.447  13.771
 1476SOL    HW1 4886   1.529   0.493  13.721
 1476SOL    HW2 4887   1.654   0.515  13.824
 1477SOL     OW 4888   0.231   1.713  13.517
 1477SOL    HW1 4889   0.265   1.790  13.571
 1477SOL    HW2 4890   0.275   1.713  13.427
 1478SOL     OW 4891   0.230   1.434  13.572
 1478SOL    HW1 4892   0.204   1.530  13.572
 1478SOL    HW2 4893   0.159   1.380  13.617
 1479SOL     OW 4894   0.240   1.091  13.920
 1479SOL    HW1 4895   0.254   1.007  13.972
 1479SOL    HW2 4896   0.185   1.155  13.975
 1480SOL     OW 4897   0.606   0.964  13.157
 1480SOL    HW1 4898   0.613   1.048  13.103
 1480SOL    HW2 4899   0.652   0.977  13.245
 1481SOL     OW 4900   0.122   0.643  13.597
 1481SOL    HW1 4901   0.077   0.555  13.614
 1481SOL    HW2 4902   0.121   0.697  13.681
 1482SOL     OW 4903   0.027   1.596  13.151
 1482SOL    HW1 4904   0.008   1.500  13.172
 1482SOL    HW2 4905  -0.006   1.654  13.226
 1483SOL     OW 4906   1.689   0.922  13.646
 1483SOL    HW1 4907   1.784   0.893  13.654
 1483SOL    HW2 4908   1.681   0.987  13.571
 1484SOL     OW 4909   1.641   1.108  13.466
 1484SOL    HW1 4910   1.727   1.110  13.414
 1484SOL    HW2 4911   1.655   1.155  13.554
 1485SOL     OW 4912   0.613   1.365  13.760
 1485SOL    HW1 4913   0.564   1.278  13.769
 1485SOL    HW2 4914   0.590   1.408  13.673
 1486SOL     OW 4915   0.809   0.004  13.536
 1486SOL    HW1 4916   0.849   0.095  13.527
 1486SOL    HW2 4917   0.709   0.012  13.542
 1487SOL     OW 4918   1.525   0.999  13.224
 1487SOL    HW1 4919   1.462   0.923  13.237
 1487SOL    HW2 4920   1.573   1.017  13.310
 1488SOL     OW 4921   1.667   1.714  13.606
 1488SOL    HW1 4922   1.626   1.691  13.518
 1488SOL    HW2 4923   1.649   1.640  13.671
 1489SOL     OW 4924   0.598   0.729  13.304
 1489SOL    HW1 4925   0.622   0.798  13.236
 1489SOL    HW2 4926   0.520   0.762  13.358
 1490SOL     OW 4927   1.281   0.345  13.978
 1490SOL    HW1 4928   1.195   0.295  13.965
 1490SOL    HW2 4929   1.343   0.291  14.034
 1491SOL     OW 4930   1.576   1.662  13.341
 1491SOL    HW1 4931   1.665   1.708  13.344
 1491SOL    HW2 4932   1.555   1.638  13.246
 1492SOL     OW 4933   1.041   0.701  13.463
 1492SOL    HW1 4934   1.067   0.697  13.559
 1492SOL    HW2 4935   0.956   0.650  13.449
 1493SOL     OW 4936   0.076   0.811  13.823
 1493SOL    HW1 4937   0.175   0.799  13.832
 1493SOL    HW2 4938   0.052   0.906  13.844
 1494SOL     OW 4939   0.865   0.348  13.229
 1494SOL    HW1 4940   0.924   0.411  13.180
 1494SOL    HW2 4941   0.884   0.254  13.200
 1495SOL     OW 4942   1.362   1.144  13.579
 1495SOL    HW1 4943   1.445   1.115  13.531
 1495SOL    HW2 4944   1.313   1.211  13.523
 1496SOL     OW 4945   1.008   1.456  13.511
 1496SOL    HW1 4946   0.962   1.528  13.459
 1496SOL    HW2 4947   1.004   1.476  13.609
 1497SOL     OW 4948   0.351   1.801  13.887
 1497SOL    HW1 4949   0.401   1.715  13.893
 1497SOL    HW2 4950   0.416   1.878  13.884
 1498SOL     OW 4951   1.795   1.066  13.907
 1498SOL    HW1 4952   1.733   1.051  13.831
 1498SOL    HW2 4953   1.743   1.077  13.992
 1499SOL     OW 4954   0.321   0.943  13.276
 1499SOL    HW1 4955   0.403   0.982  13.234
 1499SOL    HW2 4956   0.294   0.861  13.227
 1500SOL     OW 4957   1.458   0.735  13.762
 1500SOL    HW1 4958   1.453   0.670  13.837
 1500SOL    HW2 4959   1.538   0.794  13.775
 1501SOL     OW 4960   1.111   1.776  13.271
 1501SOL    HW1 4961   1.051   1.714  13.321
 1501SOL    HW2 4962   1.142   1.732  13.186
 1502SOL     OW 4963   1.632   1.377  13.115
 1502SOL    HW1 4964   1.600   1.471  13.105
 1502SOL    HW2 4965   1.556   1.314  13.103
 1503SOL     OW 4966   0.464   1.743  13.357
 1503SOL    HW1 4967   0.497   1.782  13.443
 1503SOL    HW2 4968   0.540   1.736  13.292
 1504SOL     OW 4969   1.400   0.107  13.460
 1504SOL    HW1 4970   1.376   0.070  13.370
 1504SOL    HW2 4971   1.499   0.123  13.464
 1505SOL     OW 4972   0.940   1.698  13.938
 1505SOL    HW1 4973   1.020   1.641  13.959
 1505SOL    HW2 4974   0.891   1.658  13.861
 1506SOL     OW 4975   0.382   0.700  13.514
 1506SOL    HW1 4976   0.427   0.610  13.511
 1506SOL    HW2 4977   0.288   0.689  13.547
 1507SOL     OW 4978   0.614   0.122  13.151
 1507SOL    HW1 4979   0.712   0.100  13.158
 1507SOL    HW2 4980   0.583   0.105  13.058
 1508SOL     OW 4981   0.539   0.064  13.546
 1508SOL    HW1 4982   0.458   0.065  13.604
 1508SOL    HW2 4983   0.542   0.147  13.491
 1509SOL     OW 4984   1.434   1.188  13.075
 1509SOL    HW1 4985   1.466   1.112  13.132
 1509SOL    HW2 4986   1.342   1.215  13.105
 1510SOL     OW 4987   0.297   0.035  13.205
 1510SOL    HW1 4988   0.346   0.119  13.184
 1510SOL    HW2 4989   0.359  -0.030  13.250
 1511SOL     OW 4990   0.935   0.236  13.514
 1511SOL    HW1 4991   0.887   0.277  13.436
 1511SOL    HW2 4992   1.034   0.234  13.495
 1512SOL     OW 4993   0.459   1.152  13.775
 1512SOL    HW1 4994   0.388   1.125  13.840
 1512SOL    HW2 4995   0.433   1.124  13.682
 1513SOL     OW 4996   1.271   1.797  13.625
 1513SOL    HW1 4997   1.315   1.861  13.561
 1513SOL    HW2 4998   1.221   1.849  13.695
 1514SOL     OW 4999   1.032   0.549  13.050
 1514SOL    HW1 5000   0.991   0.631  13.011
 1514SOL    HW2 5001   1.096   0.575  13.123
 1515SOL     OW 5002   0.866   0.454  13.676
 1515SOL    HW1 5003   0.834   0.526  13.614
 1515SOL    HW2 5004   0.890   0.373  13.623
 1516SOL     OW 5005   1.017   0.039  13.787
 1516SOL    HW1 5006   0.945   0.044  13.718
 1516SOL    HW2 5007   0.993  -0.030  13.856
 1517SOL     OW 5008   1.857   0.833  13.411
 1517SOL    HW1 5009   1.899   0.769  13.475
 1517SOL    HW2 5010   1.819   0.782  13.333
 1518SOL     OW 5011   0.488   1.385  13.208
 1518SOL    HW1 5012   0.401   1.370  13.255
 1518SOL    HW2 5013   0.471   1.411  13.113
 1519SOL     OW 5014   1.664   1.280  13.691
 1519SOL    HW1 5015   1.763   1.288  13.705
 1519SOL    HW2 5016   1.619   1.364  13.722
 1520SOL     OW 5017   1.390   0.575  13.112
 1520SOL    HW1 5018   1.336   0.554  13.193
 1520SOL    HW2 5019   1.481   0.534  13.121
 1521SOL     OW 5020   0.527   0.256  13.362
 1521SOL    HW1 5021   0.554   0.197  13.287
 1521SOL    HW2 5022   0.527   0.351  13.331
 1522SOL     OW 5023   0.705   1.050  13.402
 1522SOL    HW1 5024   0.691   1.057  13.501
 1522SOL    HW2 5025   0.789   0.999  13.384
 1523SOL     OW 5026   0.367   1.100  13.535
 1523SOL    HW1 5027   0.360   1.183  13.479
 1523SOL    HW2 5028   0.371   1.020  13.475
 1524SOL     OW 5029   0.566   0.537  13.899
 1524SOL    HW1 5030   0.578   0.603  13.825
 1524SOL    HW2 5031   0.612   0.571  13.982
 1525SOL     OW 5032   1.252   1.348  13.422
 1525SOL    HW1 5033   1.302   1.425  13.462
 1525SOL    HW2 5034   1.157   1.350  13.454
 1526SOL     OW 5035   1.582   0.639  13.506
 1526SOL    HW1 5036   1.551   0.700  13.579
 1526SOL    HW2 5037   1.632   0.691  13.437
 1527SOL     OW 5038   1.209   0.525  13.309
 1527SOL    HW1 5039   1.222   0.441  13.363
 1527SOL    HW2 5040   1.180   0.599  13.369
 1528SOL     OW 5041   0.307   0.063  13.652
 1528SOL    HW1 5042   0.296   0.157  13.685
 1528SOL    HW2 5043   0.302   0.000  13.729
 1529SOL     OW 5044   1.622   0.367  13.408
 1529SOL    HW1 5045   1.624   0.291  13.472
 1529SOL    HW2 5046   1.574   0.444  13.448
 1530SOL     OW 5047   1.540   0.274  13.159
 1530SOL    HW1 5048   1.479   0.199  13.182
 1530SOL    HW2 5049   1.562   0.326  13.242
 1531SOL     OW 5050   1.303   0.838  13.076
 1531SOL    HW1 5051   1.337   0.745  13.091
 1531SOL    HW2 5052   1.321   0.865  12.981
 1532SOL     OW 5053   0.008   1.326  13.234
 1532SOL    HW1 5054  -0.085   1.347  13.203
 1532SOL    HW2 5055   0.018   1.227  13.247
 1533SOL     OW 5056   0.815   0.572  13.359
 1533SOL    HW1 5057   0.822   0.483  13.313
 1533SOL    HW2 5058   0.721   0.606  13.351
 1534SOL     OW 5059   0.473   0.500  13.225
 1534SOL    HW1 5060   0.534   0.580  13.229
 1534SOL    HW2 5061   0.378   0.531  13.232
 1535SOL     OW 5062   1.302   0.855  13.343
 1535SOL    HW1 5063   1.216   0.824  13.385
 1535SOL    HW2 5064   1.298   0.841  13.244
 1536SOL     OW 5065   1.726   0.135  13.557
 1536SOL    HW1 5066   1.799   0.118  13.490
 1536SOL    HW2 5067   1.695   0.048  13.595
 1537SOL     OW 5068   1.388   1.573  13.511
 1537SOL    HW1 5069   1.455   1.585  13.437
 1537SOL    HW2 5070   1.348   1.662  13.534
 1538SOL     OW 5071   1.280   0.927  13.706
 1538SOL    HW1 5072   1.340   0.846  13.708
 1538SOL    HW2 5073   1.320   0.996  13.646
 1539SOL     OW 5074   0.672   1.616  13.188
 1539SOL    HW1 5075   0.681   1.626  13.089
 1539SOL    HW2 5076   0.632   1.527  13.209
 1540SOL     OW 5077   1.841   0.175  13.997
 1540SOL    HW1 5078   1.880   0.090  13.961
 1540SOL    HW2 5079   1.743   0.177  13.978
 1541SOL     OW 5080   0.263   0.326  13.754
 1541SOL    HW1 5081   0.184   0.377  13.720
 1541SOL    HW2 5082   0.254   0.311  13.852
 1542SOL     OW 5083   1.194   1.612  13.065
 1542SOL    HW1 5084   1.200   1.519  13.102
 1542SOL    HW2 5085   1.135   1.612  12.985
 1543SOL     OW 5086   0.916   0.910  13.325
 1543SOL    HW1 5087   0.979   0.948  13.257
 1543SOL    HW2 5088   0.956   0.827  13.364
 1544SOL     OW 5089   1.504   1.607  13.078
 1544SOL    HW1 5090   1.412   1.644  13.085
 1544SOL    HW2 5091   1.542   1.627  12.988
 1545SOL     OW 5092   1.039   1.098  13.730
 1545SOL    HW1 5093   0.969   1.051  13.784
 1545SOL    HW2 5094   1.098   1.030  13.687
 1546SOL     OW 5095   0.590   1.487  13.525
 1546SOL    HW1 5096   0.632   1.429  13.455
 1546SOL    HW2 5097   0.546   1.566  13.481
 1547SOL     OW 5098   0.255   1.348  13.324
 1547SOL    HW1 5099   0.159   1.349  13.297
 1547SOL    HW2 5100   0.267   1.401  13.408
 1548SOL     OW 5101   0.075   0.345  13.067
 1548SOL    HW1 5102  -0.017   0.317  13.038
 1548SOL    HW2 5103   0.106   0.422  13.011
 1549SOL     OW 5104   0.072   0.166  13.352
 1549SOL    HW1 5105   0.055   0.249  13.298
 1549SOL    HW2 5106   0.162   0.129  13.330
 1550SOL     OW 5107   1.183   1.335  13.153
 1550SOL    HW1 5108   1.084   1.324  13.155
 1550SOL    HW2 5109   1.217   1.350  13.246
 1551SOL     OW 5110   1.225   0.325  13.483
 1551SOL    HW1 5111   1.290   0.251  13.472
 1551SOL    HW2 5112   1.245   0.375  13.567
 1552SOL     OW 5113   0.594   0.745  13.686
 1552SOL    HW1 5114   0.644   0.830  13.667
 1552SOL    HW2 5115   0.506   0.747  13.638
 1553SOL     OW 5116   0.859   1.374  13.050
 1553SOL    HW1 5117   0.813   1.389  13.138
 1553SOL    HW2 5118   0.903   1.459  13.020
 1554SOL     OW 5119   0.661   1.790  13.987
 1554SOL    HW1 5120   0.615   1.878  13.974
 1554SOL    HW2 5121   0.760   1.802  13.980
 1555SOL     OW 5122   0.859   0.956  13.895
 1555SOL    HW1 5123   0.913   0.887  13.943
 1555SOL    HW2 5124   0.827   1.025  13.961
 1556SOL     OW 5125   1.083   0.984  13.121
 1556SOL    HW1 5126   1.060   1.037  13.039
 1556SOL    HW2 5127   1.164   0.928  13.102
 1557SOL     OW 5128   0.079   1.240  13.687
 1557SOL    HW1 5129   0.078   1.193  13.775
 1557SOL    HW2 5130   0.161   1.212  13.636
 1558SOL     OW 5131   0.428   0.424  13.554
 1558SOL    HW1 5132   0.458   0.352  13.492
 1558SOL    HW2 5133   0.389   0.384  13.637
 1559SOL     OW 5134   1.705   1.487  14.138
 1559SOL    HW1 5135   1.612   1.462  14.111
 1559SOL    HW2 5136   1.731   1.437  14.220
 1560SOL     OW 5137   0.812   1.586  13.721
 1560SOL    HW1 5138   0.844   1.596  13.627
 1560SOL    HW2 5139   0.733   1.524  13.723
 1561SOL     OW 5140   0.770   1.330  13.335
 1561SOL    HW1 5141   0.724   1.243  13.352
 1561SOL    HW2 5142   0.861   1.327  13.376
 1562SOL     OW 5143   1.352   0.052  13.202
 1562SOL    HW1 5144   1.387   0.011  13.118
 1562SOL    HW2 5145   1.262   0.014  13.222
 1563SOL     OW 5146   1.300   0.453  13.725
 1563SOL    HW1 5147   1.241   0.533  13.729
 1563SOL    HW2 5148   1.315   0.418  13.818
 1564SOL     OW 5149   0.039   1.077  13.334
 1564SOL    HW1 5150   0.138   1.066  13.325
 1564SOL    HW2 5151  -0.001   0.991  13.366
 1565SOL     OW 5152   0.875   1.646  13.371
 1565SOL    HW1 5153   0.798   1.611  13.317
 1565SOL    HW2 5154   0.843   1.717  13.433
 1566SOL     OW 5155   0.230   2.490   0.113
 1566SOL    HW1 5156   0.137   2.488   0.150
 1566SOL    HW2 5157   0.231   2.451   0.021
 1567SOL     OW 5158   0.225   2.137   0.996
 1567SOL    HW1 5159   0.260   2.120   1.088
 1567SOL    HW2 5160   0.137   2.092   0.984
 1568SOL     OW 5161   0.019   2.230   0.647
 1568SOL    HW1 5162  -0.063   2.273   0.686
 1568SOL    HW2 5163  -0.009   2.157   0.584
 1569SOL     OW 5164   0.569   3.137   1.165
 1569SOL    HW1 5165   0.476   3.130   1.128
 1569SOL    HW2 5166   0.580   3.226   1.209
 1570SOL     OW 5167   1.555   3.373   0.703
 1570SOL    HW1 5168   1.498   3.357   0.784
 1570SOL    HW2 5169   1.496   3.383   0.623
 1571SOL     OW 5170   1.135   2.565   0.717
 1571SOL    HW1 5171   1.192   2.643   0.692
 1571SOL    HW2 5172   1.075   2.591   0.793
 1572SOL     OW 5173   1.755   2.469   0.231
 1572SOL    HW1 5174   1.743   2.456   0.132
 1572SOL    HW2 5175   1.725   2.388   0.280
 1573SOL     OW 5176   0.768   3.006   1.023
 1573SOL    HW1 5177   0.690   3.023   1.083
 1573SOL    HW2 5178   0.802   3.093   0.987
 1574SOL     OW 5179   0.850   2.660   1.823
 1574SOL    HW1 5180   0.846   2.736   1.888
 1574SOL    HW2 5181   0.872   2.696   1.732
 1575SOL     OW 5182   0.685   2.874   0.665
 1575SOL    HW1 5183   0.754   2.858   0.735
 1575SOL    HW2 5184   0.612   2.931   0.703
 1576SOL     OW 5185   0.686   3.023   1.803
 1576SOL    HW1 5186   0.746   3.102   1.817
 1576SOL    HW2 5187   0.600   3.054   1.762
 1577SOL     OW 5188   0.335   3.297   1.061
 1577SOL    HW1 5189   0.257   3.266   1.008
 1577SOL    HW2 5190   0.393   3.355   1.004
 1578SOL     OW 5191   1.460   3.367   1.339
 1578SOL    HW1 5192   1.484   3.461   1.365
 1578SOL    HW2 5193   1.444   3.313   1.421
 1579SOL     OW 5194   0.438   2.254   1.499
 1579SOL    HW1 5195   0.520   2.198   1.508
 1579SOL    HW2 5196   0.357   2.196   1.503
 1580SOL     OW 5197   1.603   2.309   0.737
 1580SOL    HW1 5198   1.529   2.355   0.687
 1580SOL    HW2 5199   1.654   2.377   0.790
 1581SOL     OW 5200   0.231   3.575   0.483
 1581SOL    HW1 5201   0.265   3.652   0.537
 1581SOL    HW2 5202   0.275   3.575   0.393
 1582SOL     OW 5203   1.127   3.203   1.690
 1582SOL    HW1 5204   1.174   3.203   1.778
 1582SOL    HW2 5205   1.079   3.116   1.679
 1583SOL     OW 5206   0.230   3.296   0.538
 1583SOL    HW1 5207   0.204   3.392   0.538
 1583SOL    HW2 5208   0.159   3.242   0.583
 1584SOL     OW 5209   0.240   2.953   0.886
 1584SOL    HW1 5210   0.254   2.869   0.938
 1584SOL    HW2 5211   0.185   3.017   0.941
 1585SOL     OW 5212   0.620   3.648   1.439
 1585SOL    HW1 5213   0.528   3.631   1.474
 1585SOL    HW2 5214   0.648   3.740   1.465
 1586SOL     OW 5215   0.606   2.826   0.123
 1586SOL    HW1 5216   0.613   2.910   0.069
 1586SOL    HW2 5217   0.652   2.839   0.211
 1587SOL     OW 5218   1.594   1.976   1.480
 1587SOL    HW1 5219   1.576   2.043   1.408
 1587SOL    HW2 5220   1.591   2.022   1.569
 1588SOL     OW 5221   0.122   2.505   0.563
 1588SOL    HW1 5222   0.077   2.417   0.580
 1588SOL    HW2 5223   0.121   2.559   0.647
 1589SOL     OW 5224   1.842   3.629   0.359
 1589SOL    HW1 5225   1.896   3.600   0.439
 1589SOL    HW2 5226   1.872   3.719   0.330
 1590SOL     OW 5227   0.027   3.458   0.117
 1590SOL    HW1 5228   0.008   3.362   0.138
 1590SOL    HW2 5229  -0.006   3.516   0.192
 1591SOL     OW 5230   1.689   2.784   0.612
 1591SOL    HW1 5231   1.784   2.755   0.620
 1591SOL    HW2 5232   1.681   2.849   0.537
 1592SOL     OW 5233   1.641   2.970   0.432
 1592SOL    HW1 5234   1.727   2.972   0.380
 1592SOL    HW2 5235   1.655   3.017   0.520
 1593SOL     OW 5236   0.113   2.599   1.597
 1593SOL    HW1 5237   0.201   2.586   1.642
 1593SOL    HW2 5238   0.100   2.696   1.575
 1594SOL     OW 5239   0.613   3.227   0.726
 1594SOL    HW1 5240   0.564   3.140   0.735
 1594SOL    HW2 5241   0.590   3.270   0.639
 1595SOL     OW 5242   1.293   3.090   1.423
 1595SOL    HW1 5243   1.330   3.017   1.365
 1595SOL    HW2 5244   1.345   3.095   1.508
 1596SOL     OW 5245   0.809   1.866   0.502
 1596SOL    HW1 5246   0.849   1.957   0.493
 1596SOL    HW2 5247   0.709   1.874   0.508
 1597SOL     OW 5248   0.197   2.838   1.264
 1597SOL    HW1 5249   0.286   2.793   1.250
 1597SOL    HW2 5250   0.124   2.773   1.245
 1598SOL     OW 5251   1.525   2.861   0.190
 1598SOL    HW1 5252   1.462   2.785   0.203
 1598SOL    HW2 5253   1.573   2.879   0.276
 1599SOL     OW 5254   1.187   3.654   1.616
 1599SOL    HW1 5255   1.211   3.714   1.540
 1599SOL    HW2 5256   1.194   3.559   1.586
 1600SOL     OW 5257   0.317   2.113   1.801
 1600SOL    HW1 5258   0.388   2.184   1.807
 1600SOL    HW2 5259   0.229   2.152   1.829
 1601SOL     OW 5260   1.466   3.279   0.953
 1601SOL    HW1 5261   1.407   3.285   1.033
 1601SOL    HW2 5262   1.451   3.191   0.907
 1602SOL     OW 5263   1.667   3.576   0.572
 1602SOL    HW1 5264   1.626   3.553   0.484
 1602SOL    HW2 5265   1.649   3.502   0.637
 1603SOL     OW 5266   0.598   2.591   0.270
 1603SOL    HW1 5267   0.622   2.660   0.202
 1603SOL    HW2 5268   0.520   2.624   0.324
 1604SOL     OW 5269   1.281   2.207   0.944
 1604SOL    HW1 5270   1.195   2.157   0.931
 1604SOL    HW2 5271   1.343   2.153   1.000
 1605SOL     OW 5272   1.576   3.524   0.307
 1605SOL    HW1 5273   1.665   3.570   0.310
 1605SOL    HW2 5274   1.555   3.500   0.212
 1606SOL     OW 5275   0.807   2.467   1.465
 1606SOL    HW1 5276   0.760   2.464   1.554
 1606SOL    HW2 5277   0.756   2.412   1.399
 1607SOL     OW 5278   1.394   2.331   1.674
 1607SOL    HW1 5279   1.374   2.374   1.762
 1607SOL    HW2 5280   1.472   2.269   1.683
 1608SOL     OW 5281   0.973   2.752   1.572
 1608SOL    HW1 5282   1.019   2.668   1.543
 1608SOL    HW2 5283   0.917   2.786   1.497
 1609SOL     OW 5284   0.991   2.272   1.242
 1609SOL    HW1 5285   0.914   2.306   1.296
 1609SOL    HW2 5286   0.957   2.221   1.163
 1610SOL     OW 5287   1.041   2.563   0.429
 1610SOL    HW1 5288   1.067   2.559   0.525
 1610SOL    HW2 5289   0.956   2.512   0.415
 1611SOL     OW 5290   0.076   2.673   0.789
 1611SOL    HW1 5291   0.175   2.661   0.798
 1611SOL    HW2 5292   0.052   2.768   0.810
 1612SOL     OW 5293   0.130   3.683   1.571
 1612SOL    HW1 5294   0.120   3.668   1.670
 1612SOL    HW2 5295   0.044   3.719   1.535
 1613SOL     OW 5296   0.865   2.210   0.195
 1613SOL    HW1 5297   0.924   2.273   0.146
 1613SOL    HW2 5298   0.884   2.116   0.166
 1614SOL     OW 5299   1.719   2.447   1.831
 1614SOL    HW1 5300   1.693   2.536   1.795
 1614SOL    HW2 5301   1.717   2.379   1.758
 1615SOL     OW 5302   1.362   3.006   0.545
 1615SOL    HW1 5303   1.445   2.977   0.497
 1615SOL    HW2 5304   1.313   3.073   0.489
 1616SOL     OW 5305   0.550   2.058   0.885
 1616SOL    HW1 5306   0.545   2.053   0.985
 1616SOL    HW2 5307   0.552   2.154   0.856
 1617SOL     OW 5308   1.008   3.318   0.477
 1617SOL    HW1 5309   0.962   3.390   0.425
 1617SOL    HW2 5310   1.004   3.338   0.575
 1618SOL     OW 5311   0.351   3.663   0.853
 1618SOL    HW1 5312   0.401   3.577   0.859
 1618SOL    HW2 5313   0.416   3.740   0.850
 1619SOL     OW 5314   1.795   2.928   0.873
 1619SOL    HW1 5315   1.733   2.913   0.797
 1619SOL    HW2 5316   1.743   2.939   0.958
 1620SOL     OW 5317   1.227   3.412   1.506
 1620SOL    HW1 5318   1.233   3.335   1.570
 1620SOL    HW2 5319   1.175   3.386   1.426
 1621SOL     OW 5320   0.321   2.805   0.242
 1621SOL    HW1 5321   0.403   2.844   0.200
 1621SOL    HW2 5322   0.294   2.723   0.193
 1622SOL     OW 5323   1.458   2.597   0.728
 1622SOL    HW1 5324   1.453   2.532   0.803
 1622SOL    HW2 5325   1.538   2.656   0.741
 1623SOL     OW 5326   0.461   3.128   1.727
 1623SOL    HW1 5327   0.411   3.129   1.641
 1623SOL    HW2 5328   0.398   3.110   1.803
 1624SOL     OW 5329   1.111   3.638   0.237
 1624SOL    HW1 5330   1.051   3.576   0.287
 1624SOL    HW2 5331   1.142   3.594   0.152
 1625SOL     OW 5332   0.202   2.147   1.498
 1625SOL    HW1 5333   0.122   2.207   1.485
 1625SOL    HW2 5334   0.192   2.098   1.584
 1626SOL     OW 5335   1.632   3.239   0.081
 1626SOL    HW1 5336   1.600   3.333   0.071
 1626SOL    HW2 5337   1.556   3.176   0.069
 1627SOL     OW 5338   0.464   3.605   0.323
 1627SOL    HW1 5339   0.497   3.644   0.409
 1627SOL    HW2 5340   0.540   3.598   0.258
 1628SOL     OW 5341   1.400   1.969   0.426
 1628SOL    HW1 5342   1.376   1.932   0.336
 1628SOL    HW2 5343   1.499   1.985   0.430
 1629SOL     OW 5344   0.249   3.647   1.241
 1629SOL    HW1 5345   0.306   3.582   1.291
 1629SOL    HW2 5346   0.233   3.614   1.148
 1630SOL     OW 5347   0.940   3.560   0.904
 1630SOL    HW1 5348   1.020   3.503   0.925
 1630SOL    HW2 5349   0.891   3.520   0.827
 1631SOL     OW 5350   0.382   2.562   0.480
 1631SOL    HW1 5351   0.427   2.472   0.477
 1631SOL    HW2 5352   0.288   2.551   0.513
 1632SOL     OW 5353   1.547   2.084   1.729
 1632SOL    HW1 5354   1.542   2.121   1.821
 1632SOL    HW2 5355   1.475   2.015   1.717
 1633SOL     OW 5356   0.781   2.126   1.749
 1633SOL    HW1 5357   0.848   2.065   1.792
 1633SOL    HW2 5358   0.708   2.145   1.814
 1634SOL     OW 5359   0.888   3.376   1.195
 1634SOL    HW1 5360   0.865   3.351   1.101
 1634SOL    HW2 5361   0.949   3.307   1.234
 1635SOL     OW 5362   1.351   2.452   1.433
 1635SOL    HW1 5363   1.379   2.409   1.518
 1635SOL    HW2 5364   1.376   2.548   1.434
 1636SOL     OW 5365   0.803   3.264   0.924
 1636SOL    HW1 5366   0.893   3.278   0.882
 1636SOL    HW2 5367   0.732   3.266   0.853
 1637SOL     OW 5368   0.922   2.365   0.899
 1637SOL    HW1 5369   0.897   2.356   0.803
 1637SOL    HW2 5370   0.970   2.283   0.930
 1638SOL     OW 5371   0.539   1.926   0.512
 1638SOL    HW1 5372   0.458   1.927   0.570
 1638SOL    HW2 5373   0.542   2.009   0.457
 1639SOL     OW 5374   1.434   3.050   0.041
 1639SOL    HW1 5375   1.466   2.974   0.098
 1639SOL    HW2 5376   1.342   3.077   0.071
 1640SOL     OW 5377   0.297   1.897   0.171
 1640SOL    HW1 5378   0.346   1.981   0.150
 1640SOL    HW2 5379   0.359   1.832   0.216
 1641SOL     OW 5380   0.935   2.098   0.480
 1641SOL    HW1 5381   0.887   2.139   0.402
 1641SOL    HW2 5382   1.034   2.096   0.461
 1642SOL     OW 5383   1.076   2.545   1.464
 1642SOL    HW1 5384   0.996   2.484   1.467
 1642SOL    HW2 5385   1.157   2.492   1.440
 1643SOL     OW 5386   1.227   3.432   0.793
 1643SOL    HW1 5387   1.248   3.506   0.728
 1643SOL    HW2 5388   1.295   3.432   0.866
 1644SOL     OW 5389   0.459   3.014   0.741
 1644SOL    HW1 5390   0.388   2.987   0.806
 1644SOL    HW2 5391   0.433   2.986   0.648
 1645SOL     OW 5392   1.271   3.659   0.591
 1645SOL    HW1 5393   1.315   3.723   0.527
 1645SOL    HW2 5394   1.221   3.711   0.661
 1646SOL     OW 5395   1.032   2.411   0.016
 1646SOL    HW1 5396   0.991   2.493  -0.023
 1646SOL    HW2 5397   1.096   2.437   0.089
 1647SOL     OW 5398   0.078   2.418   1.386
 1647SOL    HW1 5399   0.170   2.417   1.345
 1647SOL    HW2 5400   0.072   2.492   1.453
 1648SOL     OW 5401   0.561   2.084   1.147
 1648SOL    HW1 5402   0.599   2.000   1.184
 1648SOL    HW2 5403   0.473   2.103   1.191
 1649SOL     OW 5404   0.866   2.316   0.642
 1649SOL    HW1 5405   0.834   2.388   0.580
 1649SOL    HW2 5406   0.890   2.235   0.589
 1650SOL     OW 5407   1.017   1.901   0.753
 1650SOL    HW1 5408   0.945   1.906   0.684
 1650SOL    HW2 5409   0.993   1.832   0.822
 1651SOL     OW 5410   1.429   3.035   0.867
 1651SOL    HW1 5411   1.374   2.951   0.860
 1651SOL    HW2 5412   1.455   3.064   0.775
 1652SOL     OW 5413   1.466   2.452   0.992
 1652SOL    HW1 5414   1.436   2.357   0.999
 1652SOL    HW2 5415   1.539   2.468   1.058
 1653SOL     OW 5416   1.857   2.695   0.377
 1653SOL    HW1 5417   1.899   2.631   0.441
 1653SOL    HW2 5418   1.819   2.644   0.299
 1654SOL     OW 5419   0.488   3.247   0.174
 1654SOL    HW1 5420   0.401   3.232   0.221
 1654SOL    HW2 5421   0.471   3.273   0.079
 1655SOL     OW 5422   1.664   3.142   0.657
 1655SOL    HW1 5423   1.763   3.150   0.671
 1655SOL    HW2 5424   1.619   3.226   0.688
 1656SOL     OW 5425   1.390   2.437   0.078
 1656SOL    HW1 5426   1.336   2.416   0.159
 1656SOL    HW2 5427   1.481   2.396   0.087
 1657SOL     OW 5428   0.527   2.118   0.328
 1657SOL    HW1 5429   0.554   2.059   0.253
 1657SOL    HW2 5430   0.527   2.213   0.297
 1658SOL     OW 5431   1.754   3.085   1.588
 1658SOL    HW1 5432   1.845   3.046   1.575
 1658SOL    HW2 5433   1.762   3.181   1.612
 1659SOL     OW 5434   1.064   3.209   1.340
 1659SOL    HW1 5435   0.984   3.186   1.395
 1659SOL    HW2 5436   1.147   3.183   1.389
 1660SOL     OW 5437   1.592   3.491   1.625
 1660SOL    HW1 5438   1.619   3.525   1.535
 1660SOL    HW2 5439   1.671   3.453   1.671
 1661SOL     OW 5440   1.111   3.057   1.100
 1661SOL    HW1 5441   1.071   3.101   1.181
 1661SOL    HW2 5442   1.070   3.094   1.017
 1662SOL     OW 5443   1.638   2.961   1.079
 1662SOL    HW1 5444   1.643   3.042   1.138
 1662SOL    HW2 5445   1.552   2.963   1.028
 1663SOL     OW 5446   0.915   1.951   1.402
 1663SOL    HW1 5447   0.940   1.931   1.307
 1663SOL    HW2 5448   0.987   2.007   1.444
 1664SOL     OW 5449   0.980   2.978   1.719
 1664SOL    HW1 5450   0.881   2.984   1.729
 1664SOL    HW2 5451   1.003   2.898   1.663
 1665SOL     OW 5452   0.705   2.912   0.368
 1665SOL    HW1 5453   0.691   2.919   0.467
 1665SOL    HW2 5454   0.789   2.861   0.350
 1666SOL     OW 5455   0.410   2.675   1.251
 1666SOL    HW1 5456   0.496   2.687   1.301
 1666SOL    HW2 5457   0.368   2.588   1.278
 1667SOL     OW 5458   1.274   2.248   1.262
 1667SOL    HW1 5459   1.295   2.322   1.326
 1667SOL    HW2 5460   1.185   2.265   1.219
 1668SOL     OW 5461   0.064   3.426   1.331
 1668SOL    HW1 5462   0.018   3.508   1.297
 1668SOL    HW2 5463   0.162   3.445   1.340
 1669SOL     OW 5464   0.367   2.962   0.501
 1669SOL    HW1 5465   0.360   3.045   0.445
 1669SOL    HW2 5466   0.371   2.882   0.441
 1670SOL     OW 5467   0.566   2.399   0.865
 1670SOL    HW1 5468   0.578   2.465   0.791
 1670SOL    HW2 5469   0.612   2.433   0.948
 1671SOL     OW 5470   1.252   3.210   0.388
 1671SOL    HW1 5471   1.302   3.287   0.428
 1671SOL    HW2 5472   1.157   3.212   0.420
 1672SOL     OW 5473   1.272   3.307   1.142
 1672SOL    HW1 5474   1.319   3.320   1.229
 1672SOL    HW2 5475   1.206   3.233   1.151
 1673SOL     OW 5476   1.582   2.501   0.472
 1673SOL    HW1 5477   1.551   2.562   0.545
 1673SOL    HW2 5478   1.632   2.553   0.403
 1674SOL     OW 5479   0.354   3.372   1.329
 1674SOL    HW1 5480   0.333   3.328   1.242
 1674SOL    HW2 5481   0.451   3.398   1.332
 1675SOL     OW 5482   0.402   2.613   1.598
 1675SOL    HW1 5483   0.470   2.668   1.551
 1675SOL    HW2 5484   0.442   2.525   1.625
 1676SOL     OW 5485   1.587   2.641   1.670
 1676SOL    HW1 5486   1.495   2.679   1.665
 1676SOL    HW2 5487   1.647   2.688   1.605
 1677SOL     OW 5488   1.013   1.967   1.770
 1677SOL    HW1 5489   1.019   2.052   1.718
 1677SOL    HW2 5490   1.045   1.891   1.713
 1678SOL     OW 5491   0.504   1.912   1.740
 1678SOL    HW1 5492   0.462   1.855   1.670
 1678SOL    HW2 5493   0.438   1.981   1.772
 1679SOL     OW 5494   0.573   2.732   1.029
 1679SOL    HW1 5495   0.617   2.821   1.020
 1679SOL    HW2 5496   0.510   2.732   1.106
 1680SOL     OW 5497   1.360   2.724   1.045
 1680SOL    HW1 5498   1.285   2.724   0.979
 1680SOL    HW2 5499   1.397   2.632   1.054
 1681SOL     OW 5500   1.209   2.387   0.275
 1681SOL    HW1 5501   1.222   2.303   0.329
 1681SOL    HW2 5502   1.180   2.461   0.335
 1682SOL     OW 5503   0.307   2.075   1.231
 1682SOL    HW1 5504   0.284   2.112   1.321
 1682SOL    HW2 5505   0.277   1.980   1.225
 1683SOL     OW 5506   0.037   3.172   1.282
 1683SOL    HW1 5507   0.090   3.123   1.350
 1683SOL    HW2 5508   0.059   3.270   1.287
 1684SOL     OW 5509   0.732   2.496   1.064
 1684SOL    HW1 5510   0.791   2.470   0.988
 1684SOL    HW2 5511   0.704   2.592   1.053
 1685SOL     OW 5512   1.728   2.797   1.854
 1685SOL    HW1 5513   1.682   2.790   1.765
 1685SOL    HW2 5514   1.666   2.841   1.920
 1686SOL     OW 5515   0.307   1.925   0.618
 1686SOL    HW1 5516   0.296   2.019   0.651
 1686SOL    HW2 5517   0.302   1.862   0.695
 1687SOL     OW 5518   1.622   2.229   0.374
 1687SOL    HW1 5519   1.624   2.153   0.438
 1687SOL    HW2 5520   1.574   2.306   0.414
 1688SOL     OW 5521   1.023   2.628   0.966
 1688SOL    HW1 5522   1.038   2.649   1.062
 1688SOL    HW2 5523   0.993   2.533   0.957
 1689SOL     OW 5524   0.980   3.435   1.700
 1689SOL    HW1 5525   0.960   3.479   1.612
 1689SOL    HW2 5526   1.019   3.344   1.684
 1690SOL     OW 5527   1.859   3.380   1.605
 1690SOL    HW1 5528   1.873   3.407   1.510
 1690SOL    HW2 5529   1.942   3.402   1.658
 1691SOL     OW 5530   0.350   2.760   1.804
 1691SOL    HW1 5531   0.426   2.804   1.852
 1691SOL    HW2 5532   0.385   2.713   1.722
 1692SOL     OW 5533   1.540   2.136   0.125
 1692SOL    HW1 5534   1.479   2.061   0.148
 1692SOL    HW2 5535   1.562   2.188   0.208
 1693SOL     OW 5536   1.303   2.700   0.042
 1693SOL    HW1 5537   1.337   2.607   0.057
 1693SOL    HW2 5538   1.321   2.727  -0.053
 1694SOL     OW 5539   1.068   3.195   0.849
 1694SOL    HW1 5540   1.075   3.111   0.794
 1694SOL    HW2 5541   1.130   3.264   0.813
 1695SOL     OW 5542   0.319   2.672   0.949
 1695SOL    HW1 5543   0.412   2.708   0.954
 1695SOL    HW2 5544   0.313   2.587   1.001
 1696SOL     OW 5545   0.339   2.371   1.006
 1696SOL    HW1 5546   0.287   2.288   0.989
 1696SOL    HW2 5547   0.416   2.376   0.942
 1697SOL     OW 5548   1.138   2.242   1.678
 1697SOL    HW1 5549   1.093   2.305   1.742
 1697SOL    HW2 5550   1.231   2.273   1.661
 1698SOL     OW 5551   1.160   2.069   1.477
 1698SOL    HW1 5552   1.160   2.133   1.554
 1698SOL    HW2 5553   1.188   2.117   1.394
 1699SOL     OW 5554   0.008   3.188   0.200
 1699SOL    HW1 5555  -0.085   3.209   0.169
 1699SOL    HW2 5556   0.018   3.089   0.213
 1700SOL     OW 5557   0.088   3.663   0.927
 1700SOL    HW1 5558   0.046   3.577   0.900
 1700SOL    HW2 5559   0.182   3.666   0.893
 1701SOL     OW 5560   0.504   3.430   0.910
 1701SOL    HW1 5561   0.570   3.504   0.919
 1701SOL    HW2 5562   0.548   3.351   0.868
 1702SOL     OW 5563   1.002   2.658   1.238
 1702SOL    HW1 5564   1.043   2.626   1.324
 1702SOL    HW2 5565   0.906   2.631   1.235
 1703SOL     OW 5566   0.040   2.406   1.114
 1703SOL    HW1 5567   0.125   2.373   1.073
 1703SOL    HW2 5568   0.053   2.421   1.212
 1704SOL     OW 5569   0.189   2.382   1.722
 1704SOL    HW1 5570   0.248   2.342   1.652
 1704SOL    HW2 5571   0.131   2.453   1.681
 1705SOL     OW 5572   1.369   2.812   1.660
 1705SOL    HW1 5573   1.408   2.901   1.680
 1705SOL    HW2 5574   1.379   2.792   1.563
 1706SOL     OW 5575   0.815   2.434   0.325
 1706SOL    HW1 5576   0.822   2.345   0.279
 1706SOL    HW2 5577   0.721   2.468   0.317
 1707SOL     OW 5578   1.657   2.466   1.206
 1707SOL    HW1 5579   1.619   2.397   1.268
 1707SOL    HW2 5580   1.739   2.430   1.162
 1708SOL     OW 5581   0.252   3.426   1.744
 1708SOL    HW1 5582   0.222   3.483   1.820
 1708SOL    HW2 5583   0.245   3.329   1.770
 1709SOL     OW 5584   0.671   2.326   1.269
 1709SOL    HW1 5585   0.637   2.237   1.239
 1709SOL    HW2 5586   0.697   2.380   1.189
 1710SOL     OW 5587   0.930   3.540   1.465
 1710SOL    HW1 5588   0.906   3.522   1.370
 1710SOL    HW2 5589   0.960   3.634   1.475
 1711SOL     OW 5590   0.473   2.362   0.191
 1711SOL    HW1 5591   0.534   2.442   0.195
 1711SOL    HW2 5592   0.378   2.393   0.198
 1712SOL     OW 5593   0.159   2.999   1.466
 1712SOL    HW1 5594   0.181   2.938   1.542
 1712SOL    HW2 5595   0.169   2.950   1.380
 1713SOL     OW 5596   1.347   2.921   1.234
 1713SOL    HW1 5597   1.371   2.858   1.160
 1713SOL    HW2 5598   1.257   2.961   1.216
 1714SOL     OW 5599   1.302   2.717   0.309
 1714SOL    HW1 5600   1.216   2.686   0.351
 1714SOL    HW2 5601   1.298   2.703   0.210
 1715SOL     OW 5602   1.759   3.609   1.154
 1715SOL    HW1 5603   1.820   3.639   1.081
 1715SOL    HW2 5604   1.721   3.520   1.132
 1716SOL     OW 5605   1.252   3.593   1.128
 1716SOL    HW1 5606   1.336   3.598   1.074
 1716SOL    HW2 5607   1.229   3.497   1.146
 1717SOL     OW 5608   0.083   3.120   1.022
 1717SOL    HW1 5609   0.078   3.119   1.122
 1717SOL    HW2 5610   0.000   3.079   0.984
 1718SOL     OW 5611   0.688   3.524   1.716
 1718SOL    HW1 5612   0.632   3.605   1.725
 1718SOL    HW2 5613   0.740   3.528   1.630
 1719SOL     OW 5614   0.903   1.948   0.133
 1719SOL    HW1 5615   0.954   1.949   0.047
 1719SOL    HW2 5616   0.959   1.906   0.204
 1720SOL     OW 5617   1.388   3.435   0.477
 1720SOL    HW1 5618   1.455   3.447   0.403
 1720SOL    HW2 5619   1.348   3.524   0.500
 1721SOL     OW 5620   0.130   3.656   1.851
 1721SOL    HW1 5621   0.089   3.582   1.904
 1721SOL    HW2 5622   0.194   3.707   1.909
 1722SOL     OW 5623   1.280   2.789   0.672
 1722SOL    HW1 5624   1.340   2.708   0.674
 1722SOL    HW2 5625   1.320   2.858   0.612
 1723SOL     OW 5626   0.830   3.135   1.422
 1723SOL    HW1 5627   0.825   3.168   1.517
 1723SOL    HW2 5628   0.744   3.154   1.376
 1724SOL     OW 5629   0.672   3.478   0.154
 1724SOL    HW1 5630   0.681   3.488   0.055
 1724SOL    HW2 5631   0.632   3.389   0.175
 1725SOL     OW 5632   1.650   3.582   1.394
 1725SOL    HW1 5633   1.703   3.592   1.310
 1725SOL    HW2 5634   1.623   3.672   1.428
 1726SOL     OW 5635   0.263   2.188   0.720
 1726SOL    HW1 5636   0.184   2.239   0.686
 1726SOL    HW2 5637   0.254   2.173   0.818
 1727SOL     OW 5638   1.194   3.474   0.031
 1727SOL    HW1 5639   1.200   3.381   0.068
 1727SOL    HW2 5640   1.135   3.474  -0.049
 1728SOL     OW 5641   0.822   2.864   1.372
 1728SOL    HW1 5642   0.862   2.863   1.280
 1728SOL    HW2 5643   0.832   2.956   1.412
 1729SOL     OW 5644   0.916   2.772   0.291
 1729SOL    HW1 5645   0.979   2.810   0.223
 1729SOL    HW2 5646   0.956   2.689   0.330
 1730SOL     OW 5647   1.504   3.469   0.044
 1730SOL    HW1 5648   1.412   3.506   0.051
 1730SOL    HW2 5649   1.542   3.489  -0.046
 1731SOL     OW 5650   0.372   3.150   1.490
 1731SOL    HW1 5651   0.359   3.243   1.456
 1731SOL    HW2 5652   0.288   3.098   1.477
 1732SOL     OW 5653   1.614   3.154   1.289
 1732SOL    HW1 5654   1.674   3.157   1.369
 1732SOL    HW2 5655   1.539   3.218   1.302
 1733SOL     OW 5656   1.039   2.960   0.696
 1733SOL    HW1 5657   0.969   2.913   0.750
 1733SOL    HW2 5658   1.098   2.892   0.653
 1734SOL     OW 5659   1.014   2.098   0.971
 1734SOL    HW1 5660   1.006   2.062   0.878
 1734SOL    HW2 5661   1.012   2.022   1.036
 1735SOL     OW 5662   0.590   3.349   0.491
 1735SOL    HW1 5663   0.632   3.291   0.421
 1735SOL    HW2 5664   0.546   3.428   0.447
 1736SOL     OW 5665   1.709   2.247   1.381
 1736SOL    HW1 5666   1.782   2.316   1.385
 1736SOL    HW2 5667   1.737   2.172   1.322
 1737SOL     OW 5668   0.255   3.210   0.290
 1737SOL    HW1 5669   0.159   3.211   0.263
 1737SOL    HW2 5670   0.267   3.263   0.374
 1738SOL     OW 5671   0.105   2.875   1.726
 1738SOL    HW1 5672   0.028   2.842   1.780
 1738SOL    HW2 5673   0.190   2.845   1.768
 1739SOL     OW 5674   0.672   2.065   1.489
 1739SOL    HW1 5675   0.762   2.049   1.449
 1739SOL    HW2 5676   0.680   2.070   1.588
 1740SOL     OW 5677   0.075   2.207   0.033
 1740SOL    HW1 5678  -0.017   2.179   0.004
 1740SOL    HW2 5679   0.106   2.284  -0.023
 1741SOL     OW 5680   1.440   2.718   1.398
 1741SOL    HW1 5681   1.383   2.770   1.335
 1741SOL    HW2 5682   1.536   2.730   1.374
 1742SOL     OW 5683   0.072   2.028   0.318
 1742SOL    HW1 5684   0.055   2.111   0.264
 1742SOL    HW2 5685   0.162   1.991   0.296
 1743SOL     OW 5686   1.183   3.197   0.119
 1743SOL    HW1 5687   1.084   3.186   0.121
 1743SOL    HW2 5688   1.217   3.212   0.212
 1744SOL     OW 5689   0.613   2.704   1.431
 1744SOL    HW1 5690   0.669   2.785   1.414
 1744SOL    HW2 5691   0.672   2.624   1.434
 1745SOL     OW 5692   1.493   3.629   0.959
 1745SOL    HW1 5693   1.526   3.693   0.890
 1745SOL    HW2 5694   1.559   3.623   1.034
 1746SOL     OW 5695   0.716   2.427   1.708
 1746SOL    HW1 5696   0.735   2.492   1.782
 1746SOL    HW2 5697   0.776   2.347   1.717
 1747SOL     OW 5698   1.450   3.082   1.633
 1747SOL    HW1 5699   1.441   3.072   1.732
 1747SOL    HW2 5700   1.546   3.075   1.607
 1748SOL     OW 5701   0.390   3.603   1.560
 1748SOL    HW1 5702   0.299   3.644   1.558
 1748SOL    HW2 5703   0.383   3.509   1.592
 1749SOL     OW 5704   1.674   2.745   1.254
 1749SOL    HW1 5705   1.647   2.656   1.217
 1749SOL    HW2 5706   1.675   2.813   1.181
 1750SOL     OW 5707   1.225   2.187   0.449
 1750SOL    HW1 5708   1.290   2.113   0.438
 1750SOL    HW2 5709   1.245   2.237   0.533
 1751SOL     OW 5710   0.594   2.607   0.652
 1751SOL    HW1 5711   0.644   2.692   0.633
 1751SOL    HW2 5712   0.506   2.609   0.604
 1752SOL     OW 5713   1.777   2.204   1.642
 1752SOL    HW1 5714   1.760   2.235   1.548
 1752SOL    HW2 5715   1.693   2.167   1.680
 1753SOL     OW 5716   1.730   2.796   1.517
 1753SOL    HW1 5717   1.768   2.887   1.532
 1753SOL    HW2 5718   1.722   2.779   1.418
 1754SOL     OW 5719   0.859   3.236   0.016
 1754SOL    HW1 5720   0.813   3.251   0.104
 1754SOL    HW2 5721   0.903   3.321  -0.014
 1755SOL     OW 5722   0.661   3.652   0.953
 1755SOL    HW1 5723   0.615   3.740   0.940
 1755SOL    HW2 5724   0.760   3.664   0.946
 1756SOL     OW 5725   0.859   2.818   0.861
 1756SOL    HW1 5726   0.913   2.749   0.909
 1756SOL    HW2 5727   0.827   2.887   0.927
 1757SOL     OW 5728   1.083   2.846   0.087
 1757SOL    HW1 5729   1.060   2.899   0.005
 1757SOL    HW2 5730   1.164   2.790   0.068
 1758SOL     OW 5731   1.861   3.431   0.851
 1758SOL    HW1 5732   1.790   3.419   0.781
 1758SOL    HW2 5733   1.862   3.352   0.911
 1759SOL     OW 5734   0.221   3.176   1.844
 1759SOL    HW1 5735   0.156   3.103   1.823
 1759SOL    HW2 5736   0.225   3.190   1.942
 1760SOL     OW 5737   0.079   3.102   0.653
 1760SOL    HW1 5738   0.078   3.055   0.741
 1760SOL    HW2 5739   0.161   3.074   0.602
 1761SOL     OW 5740   0.672   3.253   1.624
 1761SOL    HW1 5741   0.594   3.203   1.662
 1761SOL    HW2 5742   0.669   3.348   1.655
 1762SOL     OW 5743   0.428   2.286   0.520
 1762SOL    HW1 5744   0.458   2.214   0.458
 1762SOL    HW2 5745   0.389   2.246   0.603
 1763SOL     OW 5746   1.705   3.349   1.104
 1763SOL    HW1 5747   1.612   3.324   1.077
 1763SOL    HW2 5748   1.731   3.299   1.186
 1764SOL     OW 5749   0.317   2.409   1.280
 1764SOL    HW1 5750   0.355   2.350   1.352
 1764SOL    HW2 5751   0.357   2.383   1.192
 1765SOL     OW 5752   0.812   3.448   0.687
 1765SOL    HW1 5753   0.844   3.458   0.593
 1765SOL    HW2 5754   0.733   3.386   0.689
 1766SOL     OW 5755   1.424   2.076   1.112
 1766SOL    HW1 5756   1.476   2.011   1.167
 1766SOL    HW2 5757   1.375   2.139   1.173
 1767SOL     OW 5758   1.001   1.896   1.154
 1767SOL    HW1 5759   0.938   1.824   1.123
 1767SOL    HW2 5760   1.094   1.860   1.154
 1768SOL     OW 5761   0.770   3.192   0.301
 1768SOL    HW1 5762   0.724   3.105   0.318
 1768SOL    HW2 5763   0.861   3.189   0.342
 1769SOL     OW 5764   0.618   3.429   1.284
 1769SOL    HW1 5765   0.613   3.511   1.341
 1769SOL    HW2 5766   0.707   3.426   1.239
 1770SOL     OW 5767   1.352   1.914   0.168
 1770SOL    HW1 5768   1.387   1.873   0.084
 1770SOL    HW2 5769   1.262   1.876   0.188
 1771SOL     OW 5770   1.300   2.315   0.691
 1771SOL    HW1 5771   1.241   2.395   0.695
 1771SOL    HW2 5772   1.315   2.280   0.784
 1772SOL     OW 5773   1.593   2.083   0.882
 1772SOL    HW1 5774   1.509   2.082   0.936
 1772SOL    HW2 5775   1.595   2.166   0.826
 1773SOL     OW 5776   0.039   2.939   0.300
 1773SOL    HW1 5777   0.138   2.928   0.291
 1773SOL    HW2 5778  -0.001   2.853   0.332
 1774SOL     OW 5779   0.875   3.508   0.337
 1774SOL    HW1 5780   0.798   3.473   0.283
 1774SOL    HW2 5781   0.843   3.579   0.399
 1775SOL     OW 5782   0.230   2.490   1.975
 1775SOL    HW1 5783   0.137   2.488   2.012
 1775SOL    HW2 5784   0.231   2.451   1.883
 1776SOL     OW 5785   0.225   2.137   2.858
 1776SOL    HW1 5786   0.260   2.120   2.950
 1776SOL    HW2 5787   0.137   2.092   2.846
 1777SOL     OW 5788   0.019   2.230   2.509
 1777SOL    HW1 5789  -0.063   2.273   2.548
 1777SOL    HW2 5790  -0.009   2.157   2.446
 1778SOL     OW 5791   0.569   3.137   3.027
 1778SOL    HW1 5792   0.476   3.130   2.990
 1778SOL    HW2 5793   0.580   3.226   3.071
 1779SOL     OW 5794   1.555   3.373   2.565
 1779SOL    HW1 5795   1.498   3.357   2.646
 1779SOL    HW2 5796   1.496   3.383   2.485
 1780SOL     OW 5797   1.135   2.565   2.579
 1780SOL    HW1 5798   1.192   2.643   2.554
 1780SOL    HW2 5799   1.075   2.591   2.655
 1781SOL     OW 5800   1.755   2.469   2.093
 1781SOL    HW1 5801   1.743   2.456   1.994
 1781SOL    HW2 5802   1.725   2.388   2.142
 1782SOL     OW 5803   0.768   3.006   2.885
 1782SOL    HW1 5804   0.690   3.023   2.945
 1782SOL    HW2 5805   0.802   3.093   2.849
 1783SOL     OW 5806   0.850   2.660   3.685
 1783SOL    HW1 5807   0.846   2.736   3.750
 1783SOL    HW2 5808   0.872   2.696   3.594
 1784SOL     OW 5809   0.685   2.874   2.527
 1784SOL    HW1 5810   0.754   2.858   2.597
 1784SOL    HW2 5811   0.612   2.931   2.565
 1785SOL     OW 5812   0.686   3.023   3.665
 1785SOL    HW1 5813   0.746   3.102   3.679
 1785SOL    HW2 5814   0.600   3.054   3.624
 1786SOL     OW 5815   0.335   3.297   2.923
 1786SOL    HW1 5816   0.257   3.266   2.870
 1786SOL    HW2 5817   0.393   3.355   2.866
 1787SOL     OW 5818   1.460   3.367   3.201
 1787SOL    HW1 5819   1.484   3.461   3.227
 1787SOL    HW2 5820   1.444   3.313   3.283
 1788SOL     OW 5821   0.438   2.254   3.361
 1788SOL    HW1 5822   0.520   2.198   3.370
 1788SOL    HW2 5823   0.357   2.196   3.365
 1789SOL     OW 5824   1.603   2.309   2.599
 1789SOL    HW1 5825   1.529   2.355   2.549
 1789SOL    HW2 5826   1.654   2.377   2.652
 1790SOL     OW 5827   0.231   3.575   2.345
 1790SOL    HW1 5828   0.265   3.652   2.399
 1790SOL    HW2 5829   0.275   3.575   2.255
 1791SOL     OW 5830   1.127   3.203   3.552
 1791SOL    HW1 5831   1.174   3.203   3.640
 1791SOL    HW2 5832   1.079   3.116   3.541
 1792SOL     OW 5833   0.230   3.296   2.400
 1792SOL    HW1 5834   0.204   3.392   2.400
 1792SOL    HW2 5835   0.159   3.242   2.445
 1793SOL     OW 5836   0.240   2.953   2.748
 1793SOL    HW1 5837   0.254   2.869   2.800
 1793SOL    HW2 5838   0.185   3.017   2.803
 1794SOL     OW 5839   0.620   3.648   3.301
 1794SOL    HW1 5840   0.528   3.631   3.336
 1794SOL    HW2 5841   0.648   3.740   3.327
 1795SOL     OW 5842   0.606   2.826   1.985
 1795SOL    HW1 5843   0.613   2.910   1.931
 1795SOL    HW2 5844   0.652   2.839   2.073
 1796SOL     OW 5845   1.594   1.976   3.342
 1796SOL    HW1 5846   1.576   2.043   3.270
 1796SOL    HW2 5847   1.591   2.022   3.431
 1797SOL     OW 5848   0.122   2.505   2.425
 1797SOL    HW1 5849   0.077   2.417   2.442
 1797SOL    HW2 5850   0.121   2.559   2.509
 1798SOL     OW 5851   1.842   3.629   2.221
 1798SOL    HW1 5852   1.896   3.600   2.301
 1798SOL    HW2 5853   1.872   3.719   2.192
 1799SOL     OW 5854   0.027   3.458   1.979
 1799SOL    HW1 5855   0.008   3.362   2.000
 1799SOL    HW2 5856  -0.006   3.516   2.054
 1800SOL     OW 5857   1.689   2.784   2.474
 1800SOL    HW1 5858   1.784   2.755   2.482
 1800SOL    HW2 5859   1.681   2.849   2.399
 1801SOL     OW 5860   1.641   2.970   2.294
 1801SOL    HW1 5861   1.727   2.972   2.242
 1801SOL    HW2 5862   1.655   3.017   2.382
 1802SOL     OW 5863   0.113   2.599   3.459
 1802SOL    HW1 5864   0.201   2.586   3.504
 1802SOL    HW2 5865   0.100   2.696   3.437
 1803SOL     OW 5866   0.613   3.227   2.588
 1803SOL    HW1 5867   0.564   3.140   2.597
 1803SOL    HW2 5868   0.590   3.270   2.501
 1804SOL     OW 5869   1.293   3.090   3.285
 1804SOL    HW1 5870   1.330   3.017   3.227
 1804SOL    HW2 5871   1.345   3.095   3.370
 1805SOL     OW 5872   0.809   1.866   2.364
 1805SOL    HW1 5873   0.849   1.957   2.355
 1805SOL    HW2 5874   0.709   1.874   2.370
 1806SOL     OW 5875   0.197   2.838   3.126
 1806SOL    HW1 5876   0.286   2.793   3.112
 1806SOL    HW2 5877   0.124   2.773   3.107
 1807SOL     OW 5878   1.525   2.861   2.052
 1807SOL    HW1 5879   1.462   2.785   2.065
 1807SOL    HW2 5880   1.573   2.879   2.138
 1808SOL     OW 5881   1.187   3.654   3.478
 1808SOL    HW1 5882   1.211   3.714   3.402
 1808SOL    HW2 5883   1.194   3.559   3.448
 1809SOL     OW 5884   0.317   2.113   3.663
 1809SOL    HW1 5885   0.388   2.184   3.669
 1809SOL    HW2 5886   0.229   2.152   3.691
 1810SOL     OW 5887   1.466   3.279   2.815
 1810SOL    HW1 5888   1.407   3.285   2.895
 1810SOL    HW2 5889   1.451   3.191   2.769
 1811SOL     OW 5890   1.667   3.576   2.434
 1811SOL    HW1 5891   1.626   3.553   2.346
 1811SOL    HW2 5892   1.649   3.502   2.499
 1812SOL     OW 5893   0.598   2.591   2.132
 1812SOL    HW1 5894   0.622   2.660   2.064
 1812SOL    HW2 5895   0.520   2.624   2.186
 1813SOL     OW 5896   1.281   2.207   2.806
 1813SOL    HW1 5897   1.195   2.157   2.793
 1813SOL    HW2 5898   1.343   2.153   2.862
 1814SOL     OW 5899   1.576   3.524   2.169
 1814SOL    HW1 5900   1.665   3.570   2.172
 1814SOL    HW2 5901   1.555   3.500   2.074
 1815SOL     OW 5902   0.807   2.467   3.327
 1815SOL    HW1 5903   0.760   2.464   3.416
 1815SOL    HW2 5904   0.756   2.412   3.261
 1816SOL     OW 5905   1.394   2.331   3.536
 1816SOL    HW1 5906   1.374   2.374   3.624
 1816SOL    HW2 5907   1.472   2.269   3.545
 1817SOL     OW 5908   0.973   2.752   3.434
 1817SOL    HW1 5909   1.019   2.668   3.405
 1817SOL    HW2 5910   0.917   2.786   3.359
 1818SOL     OW 5911   0.991   2.272   3.104
 1818SOL    HW1 5912   0.914   2.306   3.158
 1818SOL    HW2 5913   0.957   2.221   3.025
 1819SOL     OW 5914   1.041   2.563   2.291
 1819SOL    HW1 5915   1.067   2.559   2.387
 1819SOL    HW2 5916   0.956   2.512   2.277
 1820SOL     OW 5917   0.076   2.673   2.651
 1820SOL    HW1 5918   0.175   2.661   2.660
 1820SOL    HW2 5919   0.052   2.768   2.672
 1821SOL     OW 5920   0.130   3.683   3.433
 1821SOL    HW1 5921   0.120   3.668   3.532
 1821SOL    HW2 5922   0.044   3.719   3.397
 1822SOL     OW 5923   0.865   2.210   2.057
 1822SOL    HW1 5924   0.924   2.273   2.008
 1822SOL    HW2 5925   0.884   2.116   2.028
 1823SOL     OW 5926   1.719   2.447   3.693
 1823SOL    HW1 5927   1.693   2.536   3.657
 1823SOL    HW2 5928   1.717   2.379   3.620
 1824SOL     OW 5929   1.362   3.006   2.407
 1824SOL    HW1 5930   1.445   2.977   2.359
 1824SOL    HW2 5931   1.313   3.073   2.351
 1825SOL     OW 5932   0.550   2.058   2.747
 1825SOL    HW1 5933   0.545   2.053   2.847
 1825SOL    HW2 5934   0.552   2.154   2.718
 1826SOL     OW 5935   1.008   3.318   2.339
 1826SOL    HW1 5936   0.962   3.390   2.287
 1826SOL    HW2 5937   1.004   3.338   2.437
 1827SOL     OW 5938   0.351   3.663   2.715
 1827SOL    HW1 5939   0.401   3.577   2.721
 1827SOL    HW2 5940   0.416   3.740   2.712
 1828SOL     OW 5941   1.795   2.928   2.735
 1828SOL    HW1 5942   1.733   2.913   2.659
 1828SOL    HW2 5943   1.743   2.939   2.820
 1829SOL     OW 5944   1.227   3.412   3.368
 1829SOL    HW1 5945   1.233   3.335   3.432
 1829SOL    HW2 5946   1.175   3.386   3.288
 1830SOL     OW 5947   0.321   2.805   2.104
 1830SOL    HW1 5948   0.403   2.844   2.062
 1830SOL    HW2 5949   0.294   2.723   2.055
 1831SOL     OW 5950   1.458   2.597   2.590
 1831SOL    HW1 5951   1.453   2.532   2.665
 1831SOL    HW2 5952   1.538   2.656   2.603
 1832SOL     OW 5953   0.461   3.128   3.589
 1832SOL    HW1 5954   0.411   3.129   3.503
 1832SOL    HW2 5955   0.398   3.110   3.665
 1833SOL     OW 5956   1.111   3.638   2.099
 1833SOL    HW1 5957   1.051   3.576   2.149
 1833SOL    HW2 5958   1.142   3.594   2.014
 1834SOL     OW 5959   0.202   2.147   3.360
 1834SOL    HW1 5960   0.122   2.207   3.347
 1834SOL    HW2 5961   0.192   2.098   3.446
 1835SOL     OW 5962   1.632   3.239   1.943
 1835SOL    HW1 5963   1.600   3.333   1.933
 1835SOL    HW2 5964   1.556   3.176   1.931
 1836SOL     OW 5965   0.464   3.605   2.185
 1836SOL    HW1 5966   0.497   3.644   2.271
 1836SOL    HW2 5967   0.540   3.598   2.120
 1837SOL     OW 5968   1.400   1.969   2.288
 1837SOL    HW1 5969   1.376   1.932   2.198
 1837SOL    HW2 5970   1.499   1.985   2.292
 1838SOL     OW 5971   0.249   3.647   3.103
 1838SOL    HW1 5972   0.306   3.582   3.153
 1838SOL    HW2 5973   0.233   3.614   3.010
 1839SOL     OW 5974   0.940   3.560   2.766
 1839SOL    HW1 5975   1.020   3.503   2.787
 1839SOL    HW2 5976   0.891   3.520   2.689
 1840SOL     OW 5977   0.382   2.562   2.342
 1840SOL    HW1 5978   0.427   2.472   2.339
 1840SOL    HW2 5979   0.288   2.551   2.375
 1841SOL     OW 5980   1.547   2.084   3.591
 1841SOL    HW1 5981   1.542   2.121   3.683
 1841SOL    HW2 5982   1.475   2.015   3.579
 1842SOL     OW 5983   0.614   1.984   1.979
 1842SOL    HW1 5984   0.712   1.962   1.986
 1842SOL    HW2 5985   0.583   1.967   1.886
 1843SOL     OW 5986   0.781   2.126   3.611
 1843SOL    HW1 5987   0.848   2.065   3.654
 1843SOL    HW2 5988   0.708   2.145   3.676
 1844SOL     OW 5989   0.888   3.376   3.057
 1844SOL    HW1 5990   0.865   3.351   2.963
 1844SOL    HW2 5991   0.949   3.307   3.096
 1845SOL     OW 5992   1.351   2.452   3.295
 1845SOL    HW1 5993   1.379   2.409   3.380
 1845SOL    HW2 5994   1.376   2.548   3.296
 1846SOL     OW 5995   0.803   3.264   2.786
 1846SOL    HW1 5996   0.893   3.278   2.744
 1846SOL    HW2 5997   0.732   3.266   2.715
 1847SOL     OW 5998   0.922   2.365   2.761
 1847SOL    HW1 5999   0.897   2.356   2.665
 1847SOL    HW2 6000   0.970   2.283   2.792
 1848SOL     OW 6001   0.539   1.926   2.374
 1848SOL    HW1 6002   0.458   1.927   2.432
 1848SOL    HW2 6003   0.542   2.009   2.319
 1849SOL     OW 6004   1.434   3.050   1.903
 1849SOL    HW1 6005   1.466   2.974   1.960
 1849SOL    HW2 6006   1.342   3.077   1.933
 1850SOL     OW 6007   0.297   1.897   2.033
 1850SOL    HW1 6008   0.346   1.981   2.012
 1850SOL    HW2 6009   0.359   1.832   2.078
 1851SOL     OW 6010   0.935   2.098   2.342
 1851SOL    HW1 6011   0.887   2.139   2.264
 1851SOL    HW2 6012   1.034   2.096   2.323
 1852SOL     OW 6013   1.076   2.545   3.326
 1852SOL    HW1 6014   0.996   2.484   3.329
 1852SOL    HW2 6015   1.157   2.492   3.302
 1853SOL     OW 6016   1.227   3.432   2.655
 1853SOL    HW1 6017   1.248   3.506   2.590
 1853SOL    HW2 6018   1.295   3.432   2.728
 1854SOL     OW 6019   0.459   3.014   2.603
 1854SOL    HW1 6020   0.388   2.987   2.668
 1854SOL    HW2 6021   0.433   2.986   2.510
 1855SOL     OW 6022   1.271   3.659   2.453
 1855SOL    HW1 6023   1.315   3.723   2.389
 1855SOL    HW2 6024   1.221   3.711   2.523
 1856SOL     OW 6025   1.032   2.411   1.878
 1856SOL    HW1 6026   0.991   2.493   1.839
 1856SOL    HW2 6027   1.096   2.437   1.951
 1857SOL     OW 6028   0.078   2.418   3.248
 1857SOL    HW1 6029   0.170   2.417   3.207
 1857SOL    HW2 6030   0.072   2.492   3.315
 1858SOL     OW 6031   0.561   2.084   3.009
 1858SOL    HW1 6032   0.599   2.000   3.046
 1858SOL    HW2 6033   0.473   2.103   3.053
 1859SOL     OW 6034   0.866   2.316   2.504
 1859SOL    HW1 6035   0.834   2.388   2.442
 1859SOL    HW2 6036   0.890   2.235   2.451
 1860SOL     OW 6037   1.017   1.901   2.615
 1860SOL    HW1 6038   0.945   1.906   2.546
 1860SOL    HW2 6039   0.993   1.832   2.684
 1861SOL     OW 6040   1.429   3.035   2.729
 1861SOL    HW1 6041   1.374   2.951   2.722
 1861SOL    HW2 6042   1.455   3.064   2.637
 1862SOL     OW 6043   1.466   2.452   2.854
 1862SOL    HW1 6044   1.436   2.357   2.861
 1862SOL    HW2 6045   1.539   2.468   2.920
 1863SOL     OW 6046   1.857   2.695   2.239
 1863SOL    HW1 6047   1.899   2.631   2.303
 1863SOL    HW2 6048   1.819   2.644   2.161
 1864SOL     OW 6049   0.488   3.247   2.036
 1864SOL    HW1 6050   0.401   3.232   2.083
 1864SOL    HW2 6051   0.471   3.273   1.941
 1865SOL     OW 6052   1.664   3.142   2.519
 1865SOL    HW1 6053   1.763   3.150   2.533
 1865SOL    HW2 6054   1.619   3.226   2.550
 1866SOL     OW 6055   1.390   2.437   1.940
 1866SOL    HW1 6056   1.336   2.416   2.021
 1866SOL    HW2 6057   1.481   2.396   1.949
 1867SOL     OW 6058   0.527   2.118   2.190
 1867SOL    HW1 6059   0.554   2.059   2.115
 1867SOL    HW2 6060   0.527   2.213   2.159
 1868SOL     OW 6061   1.754   3.085   3.450
 1868SOL    HW1 6062   1.845   3.046   3.437
 1868SOL    HW2 6063   1.762   3.181   3.474
 1869SOL     OW 6064   1.064   3.209   3.202
 1869SOL    HW1 6065   0.984   3.186   3.257
 1869SOL    HW2 6066   1.147   3.183   3.251
 1870SOL     OW 6067   1.592   3.491   3.487
 1870SOL    HW1 6068   1.619   3.525   3.397
 1870SOL    HW2 6069   1.671   3.453   3.533
 1871SOL     OW 6070   1.111   3.057   2.962
 1871SOL    HW1 6071   1.071   3.101   3.043
 1871SOL    HW2 6072   1.070   3.094   2.879
 1872SOL     OW 6073   1.638   2.961   2.941
 1872SOL    HW1 6074   1.643   3.042   3.000
 1872SOL    HW2 6075   1.552   2.963   2.890
 1873SOL     OW 6076   0.915   1.951   3.264
 1873SOL    HW1 6077   0.940   1.931   3.169
 1873SOL    HW2 6078   0.987   2.007   3.306
 1874SOL     OW 6079   0.980   2.978   3.581
 1874SOL    HW1 6080   0.881   2.984   3.591
 1874SOL    HW2 6081   1.003   2.898   3.525
 1875SOL     OW 6082   0.705   2.912   2.230
 1875SOL    HW1 6083   0.691   2.919   2.329
 1875SOL    HW2 6084   0.789   2.861   2.212
 1876SOL     OW 6085   0.410   2.675   3.113
 1876SOL    HW1 6086   0.496   2.687   3.163
 1876SOL    HW2 6087   0.368   2.588   3.140
 1877SOL     OW 6088   1.274   2.248   3.124
 1877SOL    HW1 6089   1.295   2.322   3.188
 1877SOL    HW2 6090   1.185   2.265   3.081
 1878SOL     OW 6091   0.064   3.426   3.193
 1878SOL    HW1 6092   0.018   3.508   3.159
 1878SOL    HW2 6093   0.162   3.445   3.202
 1879SOL     OW 6094   0.367   2.962   2.363
 1879SOL    HW1 6095   0.360   3.045   2.307
 1879SOL    HW2 6096   0.371   2.882   2.303
 1880SOL     OW 6097   0.566   2.399   2.727
 1880SOL    HW1 6098   0.578   2.465   2.653
 1880SOL    HW2 6099   0.612   2.433   2.810
 1881SOL     OW 6100   1.252   3.210   2.250
 1881SOL    HW1 6101   1.302   3.287   2.290
 1881SOL    HW2 6102   1.157   3.212   2.282
 1882SOL     OW 6103   1.272   3.307   3.004
 1882SOL    HW1 6104   1.319   3.320   3.091
 1882SOL    HW2 6105   1.206   3.233   3.013
 1883SOL     OW 6106   1.582   2.501   2.334
 1883SOL    HW1 6107   1.551   2.562   2.407
 1883SOL    HW2 6108   1.632   2.553   2.265
 1884SOL     OW 6109   0.354   3.372   3.191
 1884SOL    HW1 6110   0.333   3.328   3.104
 1884SOL    HW2 6111   0.451   3.398   3.194
 1885SOL     OW 6112   0.402   2.613   3.460
 1885SOL    HW1 6113   0.470   2.668   3.413
 1885SOL    HW2 6114   0.442   2.525   3.487
 1886SOL     OW 6115   1.587   2.641   3.532
 1886SOL    HW1 6116   1.495   2.679   3.527
 1886SOL    HW2 6117   1.647   2.688   3.467
 1887SOL     OW 6118   1.013   1.967   3.632
 1887SOL    HW1 6119   1.019   2.052   3.580
 1887SOL    HW2 6120   1.045   1.891   3.575
 1888SOL     OW 6121   0.504   1.912   3.602
 1888SOL    HW1 6122   0.462   1.855   3.532
 1888SOL    HW2 6123   0.438   1.981   3.634
 1889SOL     OW 6124   0.573   2.732   2.891
 1889SOL    HW1 6125   0.617   2.821   2.882
 1889SOL    HW2 6126   0.510   2.732   2.968
 1890SOL     OW 6127   1.360   2.724   2.907
 1890SOL    HW1 6128   1.285   2.724   2.841
 1890SOL    HW2 6129   1.397   2.632   2.916
 1891SOL     OW 6130   1.209   2.387   2.137
 1891SOL    HW1 6131   1.222   2.303   2.191
 1891SOL    HW2 6132   1.180   2.461   2.197
 1892SOL     OW 6133   0.307   2.075   3.093
 1892SOL    HW1 6134   0.284   2.112   3.183
 1892SOL    HW2 6135   0.277   1.980   3.087
 1893SOL     OW 6136   0.037   3.172   3.144
 1893SOL    HW1 6137   0.090   3.123   3.212
 1893SOL    HW2 6138   0.059   3.270   3.149
 1894SOL     OW 6139   0.732   2.496   2.926
 1894SOL    HW1 6140   0.791   2.470   2.850
 1894SOL    HW2 6141   0.704   2.592   2.915
 1895SOL     OW 6142   1.728   2.797   3.716
 1895SOL    HW1 6143   1.682   2.790   3.627
 1895SOL    HW2 6144   1.666   2.841   3.782
 1896SOL     OW 6145   0.307   1.925   2.480
 1896SOL    HW1 6146   0.296   2.019   2.513
 1896SOL    HW2 6147   0.302   1.862   2.557
 1897SOL     OW 6148   1.622   2.229   2.236
 1897SOL    HW1 6149   1.624   2.153   2.300
 1897SOL    HW2 6150   1.574   2.306   2.276
 1898SOL     OW 6151   1.023   2.628   2.828
 1898SOL    HW1 6152   1.038   2.649   2.924
 1898SOL    HW2 6153   0.993   2.533   2.819
 1899SOL     OW 6154   0.980   3.435   3.562
 1899SOL    HW1 6155   0.960   3.479   3.474
 1899SOL    HW2 6156   1.019   3.344   3.546
 1900SOL     OW 6157   1.859   3.380   3.467
 1900SOL    HW1 6158   1.873   3.407   3.372
 1900SOL    HW2 6159   1.942   3.402   3.520
 1901SOL     OW 6160   0.350   2.760   3.666
 1901SOL    HW1 6161   0.426   2.804   3.714
 1901SOL    HW2 6162   0.385   2.713   3.584
 1902SOL     OW 6163   1.540   2.136   1.987
 1902SOL    HW1 6164   1.479   2.061   2.010
 1902SOL    HW2 6165   1.562   2.188   2.070
 1903SOL     OW 6166   1.303   2.700   1.904
 1903SOL    HW1 6167   1.337   2.607   1.919
 1903SOL    HW2 6168   1.321   2.727   1.809
 1904SOL     OW 6169   1.068   3.195   2.711
 1904SOL    HW1 6170   1.075   3.111   2.656
 1904SOL    HW2 6171   1.130   3.264   2.675
 1905SOL     OW 6172   0.319   2.672   2.811
 1905SOL    HW1 6173   0.412   2.708   2.816
 1905SOL    HW2 6174   0.313   2.587   2.863
 1906SOL     OW 6175   0.339   2.371   2.868
 1906SOL    HW1 6176   0.287   2.288   2.851
 1906SOL    HW2 6177   0.416   2.376   2.804
 1907SOL     OW 6178   1.138   2.242   3.540
 1907SOL    HW1 6179   1.093   2.305   3.604
 1907SOL    HW2 6180   1.231   2.273   3.523
 1908SOL     OW 6181   1.160   2.069   3.339
 1908SOL    HW1 6182   1.160   2.133   3.416
 1908SOL    HW2 6183   1.188   2.117   3.256
 1909SOL     OW 6184   0.008   3.188   2.062
 1909SOL    HW1 6185  -0.085   3.209   2.031
 1909SOL    HW2 6186   0.018   3.089   2.075
 1910SOL     OW 6187   0.088   3.663   2.789
 1910SOL    HW1 6188   0.046   3.577   2.762
 1910SOL    HW2 6189   0.182   3.666   2.755
 1911SOL     OW 6190   0.504   3.430   2.772
 1911SOL    HW1 6191   0.570   3.504   2.781
 1911SOL    HW2 6192   0.548   3.351   2.730
 1912SOL     OW 6193   1.002   2.658   3.100
 1912SOL    HW1 6194   1.043   2.626   3.186
 1912SOL    HW2 6195   0.906   2.631   3.097
 1913SOL     OW 6196   0.040   2.406   2.976
 1913SOL    HW1 6197   0.125   2.373   2.935
 1913SOL    HW2 6198   0.053   2.421   3.074
 1914SOL     OW 6199   0.189   2.382   3.584
 1914SOL    HW1 6200   0.248   2.342   3.514
 1914SOL    HW2 6201   0.131   2.453   3.543
 1915SOL     OW 6202   1.369   2.812   3.522
 1915SOL    HW1 6203   1.408   2.901   3.542
 1915SOL    HW2 6204   1.379   2.792   3.425
 1916SOL     OW 6205   0.815   2.434   2.187
 1916SOL    HW1 6206   0.822   2.345   2.141
 1916SOL    HW2 6207   0.721   2.468   2.179
 1917SOL     OW 6208   1.657   2.466   3.068
 1917SOL    HW1 6209   1.619   2.397   3.130
 1917SOL    HW2 6210   1.739   2.430   3.024
 1918SOL     OW 6211   0.252   3.426   3.606
 1918SOL    HW1 6212   0.222   3.483   3.682
 1918SOL    HW2 6213   0.245   3.329   3.632
 1919SOL     OW 6214   0.671   2.326   3.131
 1919SOL    HW1 6215   0.637   2.237   3.101
 1919SOL    HW2 6216   0.697   2.380   3.051
 1920SOL     OW 6217   0.930   3.540   3.327
 1920SOL    HW1 6218   0.906   3.522   3.232
 1920SOL    HW2 6219   0.960   3.634   3.337
 1921SOL     OW 6220   0.473   2.362   2.053
 1921SOL    HW1 6221   0.534   2.442   2.057
 1921SOL    HW2 6222   0.378   2.393   2.060
 1922SOL     OW 6223   0.159   2.999   3.328
 1922SOL    HW1 6224   0.181   2.938   3.404
 1922SOL    HW2 6225   0.169   2.950   3.242
 1923SOL     OW 6226   1.347   2.921   3.096
 1923SOL    HW1 6227   1.371   2.858   3.022
 1923SOL    HW2 6228   1.257   2.961   3.078
 1924SOL     OW 6229   1.302   2.717   2.171
 1924SOL    HW1 6230   1.216   2.686   2.213
 1924SOL    HW2 6231   1.298   2.703   2.072
 1925SOL     OW 6232   1.759   3.609   3.016
 1925SOL    HW1 6233   1.820   3.639   2.943
 1925SOL    HW2 6234   1.721   3.520   2.994
 1926SOL     OW 6235   1.252   3.593   2.990
 1926SOL    HW1 6236   1.336   3.598   2.936
 1926SOL    HW2 6237   1.229   3.497   3.008
 1927SOL     OW 6238   0.083   3.120   2.884
 1927SOL    HW1 6239   0.078   3.119   2.984
 1927SOL    HW2 6240   0.000   3.079   2.846
 1928SOL     OW 6241   0.688   3.524   3.578
 1928SOL    HW1 6242   0.632   3.605   3.587
 1928SOL    HW2 6243   0.740   3.528   3.492
 1929SOL     OW 6244   1.388   3.435   2.339
 1929SOL    HW1 6245   1.455   3.447   2.265
 1929SOL    HW2 6246   1.348   3.524   2.362
 1930SOL     OW 6247   0.130   3.656   3.713
 1930SOL    HW1 6248   0.089   3.582   3.766
 1930SOL    HW2 6249   0.194   3.707   3.771
 1931SOL     OW 6250   1.280   2.789   2.534
 1931SOL    HW1 6251   1.340   2.708   2.536
 1931SOL    HW2 6252   1.320   2.858   2.474
 1932SOL     OW 6253   0.830   3.135   3.284
 1932SOL    HW1 6254   0.825   3.168   3.379
 1932SOL    HW2 6255   0.744   3.154   3.238
 1933SOL     OW 6256   0.672   3.478   2.016
 1933SOL    HW1 6257   0.681   3.488   1.917
 1933SOL    HW2 6258   0.632   3.389   2.037
 1934SOL     OW 6259   1.650   3.582   3.256
 1934SOL    HW1 6260   1.703   3.592   3.172
 1934SOL    HW2 6261   1.623   3.672   3.290
 1935SOL     OW 6262   0.263   2.188   2.582
 1935SOL    HW1 6263   0.184   2.239   2.548
 1935SOL    HW2 6264   0.254   2.173   2.680
 1936SOL     OW 6265   1.194   3.474   1.893
 1936SOL    HW1 6266   1.200   3.381   1.930
 1936SOL    HW2 6267   1.135   3.474   1.813
 1937SOL     OW 6268   0.822   2.864   3.234
 1937SOL    HW1 6269   0.862   2.863   3.142
 1937SOL    HW2 6270   0.832   2.956   3.274
 1938SOL     OW 6271   0.916   2.772   2.153
 1938SOL    HW1 6272   0.979   2.810   2.085
 1938SOL    HW2 6273   0.956   2.689   2.192
 1939SOL     OW 6274   1.504   3.469   1.906
 1939SOL    HW1 6275   1.412   3.506   1.913
 1939SOL    HW2 6276   1.542   3.489   1.816
 1940SOL     OW 6277   0.372   3.150   3.352
 1940SOL    HW1 6278   0.359   3.243   3.318
 1940SOL    HW2 6279   0.288   3.098   3.339
 1941SOL     OW 6280   1.614   3.154   3.151
 1941SOL    HW1 6281   1.674   3.157   3.231
 1941SOL    HW2 6282   1.539   3.218   3.164
 1942SOL     OW 6283   1.039   2.960   2.558
 1942SOL    HW1 6284   0.969   2.913   2.612
 1942SOL    HW2 6285   1.098   2.892   2.515
 1943SOL     OW 6286   1.014   2.098   2.833
 1943SOL    HW1 6287   1.006   2.062   2.740
 1943SOL    HW2 6288   1.012   2.022   2.898
 1944SOL     OW 6289   0.590   3.349   2.353
 1944SOL    HW1 6290   0.632   3.291   2.283
 1944SOL    HW2 6291   0.546   3.428   2.309
 1945SOL     OW 6292   1.709   2.247   3.243
 1945SOL    HW1 6293   1.782   2.316   3.247
 1945SOL    HW2 6294   1.737   2.172   3.184
 1946SOL     OW 6295   0.255   3.210   2.152
 1946SOL    HW1 6296   0.159   3.211   2.125
 1946SOL    HW2 6297   0.267   3.263   2.236
 1947SOL     OW 6298   0.105   2.875   3.588
 1947SOL    HW1 6299   0.028   2.842   3.642
 1947SOL    HW2 6300   0.190   2.845   3.630
 1948SOL     OW 6301   0.672   2.065   3.351
 1948SOL    HW1 6302   0.762   2.049   3.311
 1948SOL    HW2 6303   0.680   2.070   3.450
 1949SOL     OW 6304   0.075   2.207   1.895
 1949SOL    HW1 6305  -0.017   2.179   1.866
 1949SOL    HW2 6306   0.106   2.284   1.839
 1950SOL     OW 6307   1.440   2.718   3.260
 1950SOL    HW1 6308   1.383   2.770   3.197
 1950SOL    HW2 6309   1.536   2.730   3.236
 1951SOL     OW 6310   0.072   2.028   2.180
 1951SOL    HW1 6311   0.055   2.111   2.126
 1951SOL    HW2 6312   0.162   1.991   2.158
 1952SOL     OW 6313   1.183   3.197   1.981
 1952SOL    HW1 6314   1.084   3.186   1.983
 1952SOL    HW2 6315   1.217   3.212   2.074
 1953SOL     OW 6316   0.613   2.704   3.293
 1953SOL    HW1 6317   0.669   2.785   3.276
 1953SOL    HW2 6318   0.672   2.624   3.296
 1954SOL     OW 6319   1.493   3.629   2.821
 1954SOL    HW1 6320   1.526   3.693   2.752
 1954SOL    HW2 6321   1.559   3.623   2.896
 1955SOL     OW 6322   0.716   2.427   3.570
 1955SOL    HW1 6323   0.735   2.492   3.644
 1955SOL    HW2 6324   0.776   2.347   3.579
 1956SOL     OW 6325   1.450   3.082   3.495
 1956SOL    HW1 6326   1.441   3.072   3.594
 1956SOL    HW2 6327   1.546   3.075   3.469
 1957SOL     OW 6328   0.390   3.603   3.422
 1957SOL    HW1 6329   0.299   3.644   3.420
 1957SOL    HW2 6330   0.383   3.509   3.454
 1958SOL     OW 6331   1.674   2.745   3.116
 1958SOL    HW1 6332   1.647   2.656   3.079
 1958SOL    HW2 6333   1.675   2.813   3.043
 1959SOL     OW 6334   1.225   2.187   2.311
 1959SOL    HW1 6335   1.290   2.113   2.300
 1959SOL    HW2 6336   1.245   2.237   2.395
 1960SOL     OW 6337   0.594   2.607   2.514
 1960SOL    HW1 6338   0.644   2.692   2.495
 1960SOL    HW2 6339   0.506   2.609   2.466
 1961SOL     OW 6340   1.777   2.204   3.504
 1961SOL    HW1 6341   1.760   2.235   3.410
 1961SOL    HW2 6342   1.693   2.167   3.542
 1962SOL     OW 6343   1.730   2.796   3.379
 1962SOL    HW1 6344   1.768   2.887   3.394
 1962SOL    HW2 6345   1.722   2.779   3.280
 1963SOL     OW 6346   0.859   3.236   1.878
 1963SOL    HW1 6347   0.813   3.251   1.966
 1963SOL    HW2 6348   0.903   3.321   1.848
 1964SOL     OW 6349   0.661   3.652   2.815
 1964SOL    HW1 6350   0.615   3.740   2.802
 1964SOL    HW2 6351   0.760   3.664   2.808
 1965SOL     OW 6352   0.859   2.818   2.723
 1965SOL    HW1 6353   0.913   2.749   2.771
 1965SOL    HW2 6354   0.827   2.887   2.789
 1966SOL     OW 6355   1.083   2.846   1.949
 1966SOL    HW1 6356   1.060   2.899   1.867
 1966SOL    HW2 6357   1.164   2.790   1.930
 1967SOL     OW 6358   1.861   3.431   2.713
 1967SOL    HW1 6359   1.790   3.419   2.643
 1967SOL    HW2 6360   1.862   3.352   2.773
 1968SOL     OW 6361   0.221   3.176   3.706
 1968SOL    HW1 6362   0.156   3.103   3.685
 1968SOL    HW2 6363   0.225   3.190   3.804
 1969SOL     OW 6364   0.079   3.102   2.515
 1969SOL    HW1 6365   0.078   3.055   2.603
 1969SOL    HW2 6366   0.161   3.074   2.464
 1970SOL     OW 6367   0.672   3.253   3.486
 1970SOL    HW1 6368   0.594   3.203   3.524
 1970SOL    HW2 6369   0.669   3.348   3.517
 1971SOL     OW 6370   0.428   2.286   2.382
 1971SOL    HW1 6371   0.458   2.214   2.320
 1971SOL    HW2 6372   0.389   2.246   2.465
 1972SOL     OW 6373   1.705   3.349   2.966
 1972SOL    HW1 6374   1.612   3.324   2.939
 1972SOL    HW2 6375   1.731   3.299   3.048
 1973SOL     OW 6376   0.317   2.409   3.142
 1973SOL    HW1 6377   0.355   2.350   3.214
 1973SOL    HW2 6378   0.357   2.383   3.054
 1974SOL     OW 6379   0.812   3.448   2.549
 1974SOL    HW1 6380   0.844   3.458   2.455
 1974SOL    HW2 6381   0.733   3.386   2.551
 1975SOL     OW 6382   1.424   2.076   2.974
 1975SOL    HW1 6383   1.476   2.011   3.029
 1975SOL    HW2 6384   1.375   2.139   3.035
 1976SOL     OW 6385   1.001   1.896   3.016
 1976SOL    HW1 6386   0.938   1.824   2.985
 1976SOL    HW2 6387   1.094   1.860   3.016
 1977SOL     OW 6388   0.770   3.192   2.163
 1977SOL    HW1 6389   0.724   3.105   2.180
 1977SOL    HW2 6390   0.861   3.189   2.204
 1978SOL     OW 6391   0.618   3.429   3.146
 1978SOL    HW1 6392   0.613   3.511   3.203
 1978SOL    HW2 6393   0.707   3.426   3.101
 1979SOL     OW 6394   1.352   1.914   2.030
 1979SOL    HW1 6395   1.387   1.873   1.946
 1979SOL    HW2 6396   1.262   1.876   2.050
 1980SOL     OW 6397   1.300   2.315   2.553
 1980SOL    HW1 6398   1.241   2.395   2.557
 1980SOL    HW2 6399   1.315   2.280   2.646
 1981SOL     OW 6400   1.593   2.083   2.744
 1981SOL    HW1 6401   1.509   2.082   2.798
 1981SOL    HW2 6402   1.595   2.166   2.688
 1982SOL     OW 6403   0.039   2.939   2.162
 1982SOL    HW1 6404   0.138   2.928   2.153
 1982SOL    HW2 6405  -0.001   2.853   2.194
 1983SOL     OW 6406   0.875   3.508   2.199
 1983SOL    HW1 6407   0.798   3.473   2.145
 1983SOL    HW2 6408   0.843   3.579   2.261
 1984SOL     OW 6409   0.230   2.490   3.837
 1984SOL    HW1 6410   0.137   2.488   3.874
 1984SOL    HW2 6411   0.231   2.451   3.745
 1985SOL     OW 6412   0.225   2.137   4.720
 1985SOL    HW1 6413   0.260   2.120   4.812
 1985SOL    HW2 6414   0.137   2.092   4.708
 1986SOL     OW 6415   0.019   2.230   4.371
 1986SOL    HW1 6416  -0.063   2.273   4.410
 1986SOL    HW2 6417  -0.009   2.157   4.308
 1987SOL     OW 6418   0.569   3.137   4.889
 1987SOL    HW1 6419   0.476   3.130   4.852
 1987SOL    HW2 6420   0.580   3.226   4.933
 1988SOL     OW 6421   1.555   3.373   4.427
 1988SOL    HW1 6422   1.498   3.357   4.508
 1988SOL    HW2 6423   1.496   3.383   4.347
 1989SOL     OW 6424   1.135   2.565   4.441
 1989SOL    HW1 6425   1.192   2.643   4.416
 1989SOL    HW2 6426   1.075   2.591   4.517
 1990SOL     OW 6427   1.755   2.469   3.955
 1990SOL    HW1 6428   1.743   2.456   3.856
 1990SOL    HW2 6429   1.725   2.388   4.004
 1991SOL     OW 6430   0.768   3.006   4.747
 1991SOL    HW1 6431   0.690   3.023   4.807
 1991SOL    HW2 6432   0.802   3.093   4.711
 1992SOL     OW 6433   0.850   2.660   5.547
 1992SOL    HW1 6434   0.846   2.736   5.612
 1992SOL    HW2 6435   0.872   2.696   5.456
 1993SOL     OW 6436   0.685   2.874   4.389
 1993SOL    HW1 6437   0.754   2.858   4.459
 1993SOL    HW2 6438   0.612   2.931   4.427
 1994SOL     OW 6439   0.686   3.023   5.527
 1994SOL    HW1 6440   0.746   3.102   5.541
 1994SOL    HW2 6441   0.600   3.054   5.486
 1995SOL     OW 6442   0.335   3.297   4.785
 1995SOL    HW1 6443   0.257   3.266   4.732
 1995SOL    HW2 6444   0.393   3.355   4.728
 1996SOL     OW 6445   1.460   3.367   5.063
 1996SOL    HW1 6446   1.484   3.461   5.089
 1996SOL    HW2 6447   1.444   3.313   5.145
 1997SOL     OW 6448   0.438   2.254   5.223
 1997SOL    HW1 6449   0.520   2.198   5.232
 1997SOL    HW2 6450   0.357   2.196   5.227
 1998SOL     OW 6451   1.603   2.309   4.461
 1998SOL    HW1 6452   1.529   2.355   4.411
 1998SOL    HW2 6453   1.654   2.377   4.514
 1999SOL     OW 6454   0.231   3.575   4.207
 1999SOL    HW1 6455   0.265   3.652   4.261
 1999SOL    HW2 6456   0.275   3.575   4.117
 2000SOL     OW 6457   1.127   3.203   5.414
 2000SOL    HW1 6458   1.174   3.203   5.502
 2000SOL    HW2 6459   1.079   3.116   5.403
 2001SOL     OW 6460   0.230   3.296   4.262
 2001SOL    HW1 6461   0.204   3.392   4.262
 2001SOL    HW2 6462   0.159   3.242   4.307
 2002SOL     OW 6463   0.240   2.953   4.610
 2002SOL    HW1 6464   0.254   2.869   4.662
 2002SOL    HW2 6465   0.185   3.017   4.665
 2003SOL     OW 6466   0.620   3.648   5.163
 2003SOL    HW1 6467   0.528   3.631   5.198
 2003SOL    HW2 6468   0.648   3.740   5.189
 2004SOL     OW 6469   0.606   2.826   3.847
 2004SOL    HW1 6470   0.613   2.910   3.793
 2004SOL    HW2 6471   0.652   2.839   3.935
 2005SOL     OW 6472   1.594   1.976   5.204
 2005SOL    HW1 6473   1.576   2.043   5.132
 2005SOL    HW2 6474   1.591   2.022   5.293
 2006SOL     OW 6475   0.122   2.505   4.287
 2006SOL    HW1 6476   0.077   2.417   4.304
 2006SOL    HW2 6477   0.121   2.559   4.371
 2007SOL     OW 6478   1.842   3.629   4.083
 2007SOL    HW1 6479   1.896   3.600   4.163
 2007SOL    HW2 6480   1.872   3.719   4.054
 2008SOL     OW 6481   0.027   3.458   3.841
 2008SOL    HW1 6482   0.008   3.362   3.862
 2008SOL    HW2 6483  -0.006   3.516   3.916
 2009SOL     OW 6484   1.689   2.784   4.336
 2009SOL    HW1 6485   1.784   2.755   4.344
 2009SOL    HW2 6486   1.681   2.849   4.261
 2010SOL     OW 6487   1.641   2.970   4.156
 2010SOL    HW1 6488   1.727   2.972   4.104
 2010SOL    HW2 6489   1.655   3.017   4.244
 2011SOL     OW 6490   0.113   2.599   5.321
 2011SOL    HW1 6491   0.201   2.586   5.366
 2011SOL    HW2 6492   0.100   2.696   5.299
 2012SOL     OW 6493   0.613   3.227   4.450
 2012SOL    HW1 6494   0.564   3.140   4.459
 2012SOL    HW2 6495   0.590   3.270   4.363
 2013SOL     OW 6496   1.293   3.090   5.147
 2013SOL    HW1 6497   1.330   3.017   5.089
 2013SOL    HW2 6498   1.345   3.095   5.232
 2014SOL     OW 6499   0.809   1.866   4.226
 2014SOL    HW1 6500   0.849   1.957   4.217
 2014SOL    HW2 6501   0.709   1.874   4.232
 2015SOL     OW 6502   0.197   2.838   4.988
 2015SOL    HW1 6503   0.286   2.793   4.974
 2015SOL    HW2 6504   0.124   2.773   4.969
 2016SOL     OW 6505   1.525   2.861   3.914
 2016SOL    HW1 6506   1.462   2.785   3.927
 2016SOL    HW2 6507   1.573   2.879   4.000
 2017SOL     OW 6508   1.187   3.654   5.340
 2017SOL    HW1 6509   1.211   3.714   5.264
 2017SOL    HW2 6510   1.194   3.559   5.310
 2018SOL     OW 6511   0.317   2.113   5.525
 2018SOL    HW1 6512   0.388   2.184   5.531
 2018SOL    HW2 6513   0.229   2.152   5.553
 2019SOL     OW 6514   1.466   3.279   4.677
 2019SOL    HW1 6515   1.407   3.285   4.757
 2019SOL    HW2 6516   1.451   3.191   4.631
 2020SOL     OW 6517   1.667   3.576   4.296
 2020SOL    HW1 6518   1.626   3.553   4.208
 2020SOL    HW2 6519   1.649   3.502   4.361
 2021SOL     OW 6520   0.598   2.591   3.994
 2021SOL    HW1 6521   0.622   2.660   3.926
 2021SOL    HW2 6522   0.520   2.624   4.048
 2022SOL     OW 6523   1.281   2.207   4.668
 2022SOL    HW1 6524   1.195   2.157   4.655
 2022SOL    HW2 6525   1.343   2.153   4.724
 2023SOL     OW 6526   1.576   3.524   4.031
 2023SOL    HW1 6527   1.665   3.570   4.034
 2023SOL    HW2 6528   1.555   3.500   3.936
 2024SOL     OW 6529   0.807   2.467   5.189
 2024SOL    HW1 6530   0.760   2.464   5.278
 2024SOL    HW2 6531   0.756   2.412   5.123
 2025SOL     OW 6532   1.394   2.331   5.398
 2025SOL    HW1 6533   1.374   2.374   5.486
 2025SOL    HW2 6534   1.472   2.269   5.407
 2026SOL     OW 6535   0.973   2.752   5.296
 2026SOL    HW1 6536   1.019   2.668   5.267
 2026SOL    HW2 6537   0.917   2.786   5.221
 2027SOL     OW 6538   0.991   2.272   4.966
 2027SOL    HW1 6539   0.914   2.306   5.020
 2027SOL    HW2 6540   0.957   2.221   4.887
 2028SOL     OW 6541   1.041   2.563   4.153
 2028SOL    HW1 6542   1.067   2.559   4.249
 2028SOL    HW2 6543   0.956   2.512   4.139
 2029SOL     OW 6544   0.076   2.673   4.513
 2029SOL    HW1 6545   0.175   2.661   4.522
 2029SOL    HW2 6546   0.052   2.768   4.534
 2030SOL     OW 6547   0.130   3.683   5.295
 2030SOL    HW1 6548   0.120   3.668   5.394
 2030SOL    HW2 6549   0.044   3.719   5.259
 2031SOL     OW 6550   0.865   2.210   3.919
 2031SOL    HW1 6551   0.924   2.273   3.870
 2031SOL    HW2 6552   0.884   2.116   3.890
 2032SOL     OW 6553   1.719   2.447   5.555
 2032SOL    HW1 6554   1.693   2.536   5.519
 2032SOL    HW2 6555   1.717   2.379   5.482
 2033SOL     OW 6556   1.362   3.006   4.269
 2033SOL    HW1 6557   1.445   2.977   4.221
 2033SOL    HW2 6558   1.313   3.073   4.213
 2034SOL     OW 6559   0.550   2.058   4.609
 2034SOL    HW1 6560   0.545   2.053   4.709
 2034SOL    HW2 6561   0.552   2.154   4.580
 2035SOL     OW 6562   1.008   3.318   4.201
 2035SOL    HW1 6563   0.962   3.390   4.149
 2035SOL    HW2 6564   1.004   3.338   4.299
 2036SOL     OW 6565   0.351   3.663   4.577
 2036SOL    HW1 6566   0.401   3.577   4.583
 2036SOL    HW2 6567   0.416   3.740   4.574
 2037SOL     OW 6568   1.795   2.928   4.597
 2037SOL    HW1 6569   1.733   2.913   4.521
 2037SOL    HW2 6570   1.743   2.939   4.682
 2038SOL     OW 6571   1.227   3.412   5.230
 2038SOL    HW1 6572   1.233   3.335   5.294
 2038SOL    HW2 6573   1.175   3.386   5.150
 2039SOL     OW 6574   0.321   2.805   3.966
 2039SOL    HW1 6575   0.403   2.844   3.924
 2039SOL    HW2 6576   0.294   2.723   3.917
 2040SOL     OW 6577   1.458   2.597   4.452
 2040SOL    HW1 6578   1.453   2.532   4.527
 2040SOL    HW2 6579   1.538   2.656   4.465
 2041SOL     OW 6580   0.461   3.128   5.451
 2041SOL    HW1 6581   0.411   3.129   5.365
 2041SOL    HW2 6582   0.398   3.110   5.527
 2042SOL     OW 6583   1.111   3.638   3.961
 2042SOL    HW1 6584   1.051   3.576   4.011
 2042SOL    HW2 6585   1.142   3.594   3.876
 2043SOL     OW 6586   0.202   2.147   5.222
 2043SOL    HW1 6587   0.122   2.207   5.209
 2043SOL    HW2 6588   0.192   2.098   5.308
 2044SOL     OW 6589   1.632   3.239   3.805
 2044SOL    HW1 6590   1.600   3.333   3.795
 2044SOL    HW2 6591   1.556   3.176   3.793
 2045SOL     OW 6592   0.464   3.605   4.047
 2045SOL    HW1 6593   0.497   3.644   4.133
 2045SOL    HW2 6594   0.540   3.598   3.982
 2046SOL     OW 6595   1.400   1.969   4.150
 2046SOL    HW1 6596   1.376   1.932   4.060
 2046SOL    HW2 6597   1.499   1.985   4.154
 2047SOL     OW 6598   0.249   3.647   4.965
 2047SOL    HW1 6599   0.306   3.582   5.015
 2047SOL    HW2 6600   0.233   3.614   4.872
 2048SOL     OW 6601   0.940   3.560   4.628
 2048SOL    HW1 6602   1.020   3.503   4.649
 2048SOL    HW2 6603   0.891   3.520   4.551
 2049SOL     OW 6604   0.382   2.562   4.204
 2049SOL    HW1 6605   0.427   2.472   4.201
 2049SOL    HW2 6606   0.288   2.551   4.237
 2050SOL     OW 6607   1.547   2.084   5.453
 2050SOL    HW1 6608   1.542   2.121   5.545
 2050SOL    HW2 6609   1.475   2.015   5.441
 2051SOL     OW 6610   0.614   1.984   3.841
 2051SOL    HW1 6611   0.712   1.962   3.848
 2051SOL    HW2 6612   0.583   1.967   3.748
 2052SOL     OW 6613   0.781   2.126   5.473
 2052SOL    HW1 6614   0.848   2.065   5.516
 2052SOL    HW2 6615   0.708   2.145   5.538
 2053SOL     OW 6616   0.888   3.376   4.919
 2053SOL    HW1 6617   0.865   3.351   4.825
 2053SOL    HW2 6618   0.949   3.307   4.958
 2054SOL     OW 6619   1.351   2.452   5.157
 2054SOL    HW1 6620   1.379   2.409   5.242
 2054SOL    HW2 6621   1.376   2.548   5.158
 2055SOL     OW 6622   0.803   3.264   4.648
 2055SOL    HW1 6623   0.893   3.278   4.606
 2055SOL    HW2 6624   0.732   3.266   4.577
 2056SOL     OW 6625   0.922   2.365   4.623
 2056SOL    HW1 6626   0.897   2.356   4.527
 2056SOL    HW2 6627   0.970   2.283   4.654
 2057SOL     OW 6628   0.539   1.926   4.236
 2057SOL    HW1 6629   0.458   1.927   4.294
 2057SOL    HW2 6630   0.542   2.009   4.181
 2058SOL     OW 6631   1.434   3.050   3.765
 2058SOL    HW1 6632   1.466   2.974   3.822
 2058SOL    HW2 6633   1.342   3.077   3.795
 2059SOL     OW 6634   0.297   1.897   3.895
 2059SOL    HW1 6635   0.346   1.981   3.874
 2059SOL    HW2 6636   0.359   1.832   3.940
 2060SOL     OW 6637   0.935   2.098   4.204
 2060SOL    HW1 6638   0.887   2.139   4.126
 2060SOL    HW2 6639   1.034   2.096   4.185
 2061SOL     OW 6640   1.076   2.545   5.188
 2061SOL    HW1 6641   0.996   2.484   5.191
 2061SOL    HW2 6642   1.157   2.492   5.164
 2062SOL     OW 6643   1.227   3.432   4.517
 2062SOL    HW1 6644   1.248   3.506   4.452
 2062SOL    HW2 6645   1.295   3.432   4.590
 2063SOL     OW 6646   0.459   3.014   4.465
 2063SOL    HW1 6647   0.388   2.987   4.530
 2063SOL    HW2 6648   0.433   2.986   4.372
 2064SOL     OW 6649   1.271   3.659   4.315
 2064SOL    HW1 6650   1.315   3.723   4.251
 2064SOL    HW2 6651   1.221   3.711   4.385
 2065SOL     OW 6652   1.032   2.411   3.740
 2065SOL    HW1 6653   0.991   2.493   3.701
 2065SOL    HW2 6654   1.096   2.437   3.813
 2066SOL     OW 6655   0.078   2.418   5.110
 2066SOL    HW1 6656   0.170   2.417   5.069
 2066SOL    HW2 6657   0.072   2.492   5.177
 2067SOL     OW 6658   0.561   2.084   4.871
 2067SOL    HW1 6659   0.599   2.000   4.908
 2067SOL    HW2 6660   0.473   2.103   4.915
 2068SOL     OW 6661   0.866   2.316   4.366
 2068SOL    HW1 6662   0.834   2.388   4.304
 2068SOL    HW2 6663   0.890   2.235   4.313
 2069SOL     OW 6664   1.017   1.901   4.477
 2069SOL    HW1 6665   0.945   1.906   4.408
 2069SOL    HW2 6666   0.993   1.832   4.546
 2070SOL     OW 6667   1.429   3.035   4.591
 2070SOL    HW1 6668   1.374   2.951   4.584
 2070SOL    HW2 6669   1.455   3.064   4.499
 2071SOL     OW 6670   1.466   2.452   4.716
 2071SOL    HW1 6671   1.436   2.357   4.723
 2071SOL    HW2 6672   1.539   2.468   4.782
 2072SOL     OW 6673   1.857   2.695   4.101
 2072SOL    HW1 6674   1.899   2.631   4.165
 2072SOL    HW2 6675   1.819   2.644   4.023
 2073SOL     OW 6676   0.488   3.247   3.898
 2073SOL    HW1 6677   0.401   3.232   3.945
 2073SOL    HW2 6678   0.471   3.273   3.803
 2074SOL     OW 6679   1.664   3.142   4.381
 2074SOL    HW1 6680   1.763   3.150   4.395
 2074SOL    HW2 6681   1.619   3.226   4.412
 2075SOL     OW 6682   1.390   2.437   3.802
 2075SOL    HW1 6683   1.336   2.416   3.883
 2075SOL    HW2 6684   1.481   2.396   3.811
 2076SOL     OW 6685   0.527   2.118   4.052
 2076SOL    HW1 6686   0.554   2.059   3.977
 2076SOL    HW2 6687   0.527   2.213   4.021
 2077SOL     OW 6688   1.754   3.085   5.312
 2077SOL    HW1 6689   1.845   3.046   5.299
 2077SOL    HW2 6690   1.762   3.181   5.336
 2078SOL     OW 6691   1.064   3.209   5.064
 2078SOL    HW1 6692   0.984   3.186   5.119
 2078SOL    HW2 6693   1.147   3.183   5.113
 2079SOL     OW 6694   1.592   3.491   5.349
 2079SOL    HW1 6695   1.619   3.525   5.259
 2079SOL    HW2 6696   1.671   3.453   5.395
 2080SOL     OW 6697   1.111   3.057   4.824
 2080SOL    HW1 6698   1.071   3.101   4.905
 2080SOL    HW2 6699   1.070   3.094   4.741
 2081SOL     OW 6700   1.638   2.961   4.803
 2081SOL    HW1 6701   1.643   3.042   4.862
 2081SOL    HW2 6702   1.552   2.963   4.752
 2082SOL     OW 6703   0.915   1.951   5.126
 2082SOL    HW1 6704   0.940   1.931   5.031
 2082SOL    HW2 6705   0.987   2.007   5.168
 2083SOL     OW 6706   0.980   2.978   5.443
 2083SOL    HW1 6707   0.881   2.984   5.453
 2083SOL    HW2 6708   1.003   2.898   5.387
 2084SOL     OW 6709   0.705   2.912   4.092
 2084SOL    HW1 6710   0.691   2.919   4.191
 2084SOL    HW2 6711   0.789   2.861   4.074
 2085SOL     OW 6712   0.410   2.675   4.975
 2085SOL    HW1 6713   0.496   2.687   5.025
 2085SOL    HW2 6714   0.368   2.588   5.002
 2086SOL     OW 6715   1.274   2.248   4.986
 2086SOL    HW1 6716   1.295   2.322   5.050
 2086SOL    HW2 6717   1.185   2.265   4.943
 2087SOL     OW 6718   0.064   3.426   5.055
 2087SOL    HW1 6719   0.018   3.508   5.021
 2087SOL    HW2 6720   0.162   3.445   5.064
 2088SOL     OW 6721   0.367   2.962   4.225
 2088SOL    HW1 6722   0.360   3.045   4.169
 2088SOL    HW2 6723   0.371   2.882   4.165
 2089SOL     OW 6724   0.566   2.399   4.589
 2089SOL    HW1 6725   0.578   2.465   4.515
 2089SOL    HW2 6726   0.612   2.433   4.672
 2090SOL     OW 6727   1.252   3.210   4.112
 2090SOL    HW1 6728   1.302   3.287   4.152
 2090SOL    HW2 6729   1.157   3.212   4.144
 2091SOL     OW 6730   1.272   3.307   4.866
 2091SOL    HW1 6731   1.319   3.320   4.953
 2091SOL    HW2 6732   1.206   3.233   4.875
 2092SOL     OW 6733   1.582   2.501   4.196
 2092SOL    HW1 6734   1.551   2.562   4.269
 2092SOL    HW2 6735   1.632   2.553   4.127
 2093SOL     OW 6736   0.354   3.372   5.053
 2093SOL    HW1 6737   0.333   3.328   4.966
 2093SOL    HW2 6738   0.451   3.398   5.056
 2094SOL     OW 6739   0.402   2.613   5.322
 2094SOL    HW1 6740   0.470   2.668   5.275
 2094SOL    HW2 6741   0.442   2.525   5.349
 2095SOL     OW 6742   1.587   2.641   5.394
 2095SOL    HW1 6743   1.495   2.679   5.389
 2095SOL    HW2 6744   1.647   2.688   5.329
 2096SOL     OW 6745   1.013   1.967   5.494
 2096SOL    HW1 6746   1.019   2.052   5.442
 2096SOL    HW2 6747   1.045   1.891   5.437
 2097SOL     OW 6748   0.504   1.912   5.464
 2097SOL    HW1 6749   0.462   1.855   5.394
 2097SOL    HW2 6750   0.438   1.981   5.496
 2098SOL     OW 6751   0.573   2.732   4.753
 2098SOL    HW1 6752   0.617   2.821   4.744
 2098SOL    HW2 6753   0.510   2.732   4.830
 2099SOL     OW 6754   1.360   2.724   4.769
 2099SOL    HW1 6755   1.285   2.724   4.703
 2099SOL    HW2 6756   1.397   2.632   4.778
 2100SOL     OW 6757   1.209   2.387   3.999
 2100SOL    HW1 6758   1.222   2.303   4.053
 2100SOL    HW2 6759   1.180   2.461   4.059
 2101SOL     OW 6760   0.307   2.075   4.955
 2101SOL    HW1 6761   0.284   2.112   5.045
 2101SOL    HW2 6762   0.277   1.980   4.949
 2102SOL     OW 6763   0.037   3.172   5.006
 2102SOL    HW1 6764   0.090   3.123   5.074
 2102SOL    HW2 6765   0.059   3.270   5.011
 2103SOL     OW 6766   0.732   2.496   4.788
 2103SOL    HW1 6767   0.791   2.470   4.712
 2103SOL    HW2 6768   0.704   2.592   4.777
 2104SOL     OW 6769   1.728   2.797   5.578
 2104SOL    HW1 6770   1.682   2.790   5.489
 2104SOL    HW2 6771   1.666   2.841   5.644
 2105SOL     OW 6772   0.307   1.925   4.342
 2105SOL    HW1 6773   0.296   2.019   4.375
 2105SOL    HW2 6774   0.302   1.862   4.419
 2106SOL     OW 6775   1.622   2.229   4.098
 2106SOL    HW1 6776   1.624   2.153   4.162
 2106SOL    HW2 6777   1.574   2.306   4.138
 2107SOL     OW 6778   1.023   2.628   4.690
 2107SOL    HW1 6779   1.038   2.649   4.786
 2107SOL    HW2 6780   0.993   2.533   4.681
 2108SOL     OW 6781   0.980   3.435   5.424
 2108SOL    HW1 6782   0.960   3.479   5.336
 2108SOL    HW2 6783   1.019   3.344   5.408
 2109SOL     OW 6784   1.859   3.380   5.329
 2109SOL    HW1 6785   1.873   3.407   5.234
 2109SOL    HW2 6786   1.942   3.402   5.382
 2110SOL     OW 6787   0.350   2.760   5.528
 2110SOL    HW1 6788   0.426   2.804   5.576
 2110SOL    HW2 6789   0.385   2.713   5.446
 2111SOL     OW 6790   1.540   2.136   3.849
 2111SOL    HW1 6791   1.479   2.061   3.872
 2111SOL    HW2 6792   1.562   2.188   3.932
 2112SOL     OW 6793   1.303   2.700   3.766
 2112SOL    HW1 6794   1.337   2.607   3.781
 2112SOL    HW2 6795   1.321   2.727   3.671
 2113SOL     OW 6796   1.068   3.195   4.573
 2113SOL    HW1 6797   1.075   3.111   4.518
 2113SOL    HW2 6798   1.130   3.264   4.537
 2114SOL     OW 6799   0.319   2.672   4.673
 2114SOL    HW1 6800   0.412   2.708   4.678
 2114SOL    HW2 6801   0.313   2.587   4.725
 2115SOL     OW 6802   0.339   2.371   4.730
 2115SOL    HW1 6803   0.287   2.288   4.713
 2115SOL    HW2 6804   0.416   2.376   4.666
 2116SOL     OW 6805   1.138   2.242   5.402
 2116SOL    HW1 6806   1.093   2.305   5.466
 2116SOL    HW2 6807   1.231   2.273   5.385
 2117SOL     OW 6808   1.160   2.069   5.201
 2117SOL    HW1 6809   1.160   2.133   5.278
 2117SOL    HW2 6810   1.188   2.117   5.118
 2118SOL     OW 6811   0.008   3.188   3.924
 2118SOL    HW1 6812  -0.085   3.209   3.893
 2118SOL    HW2 6813   0.018   3.089   3.937
 2119SOL     OW 6814   0.088   3.663   4.651
 2119SOL    HW1 6815   0.046   3.577   4.624
 2119SOL    HW2 6816   0.182   3.666   4.617
 2120SOL     OW 6817   0.504   3.430   4.634
 2120SOL    HW1 6818   0.570   3.504   4.643
 2120SOL    HW2 6819   0.548   3.351   4.592
 2121SOL     OW 6820   1.002   2.658   4.962
 2121SOL    HW1 6821   1.043   2.626   5.048
 2121SOL    HW2 6822   0.906   2.631   4.959
 2122SOL     OW 6823   0.040   2.406   4.838
 2122SOL    HW1 6824   0.125   2.373   4.797
 2122SOL    HW2 6825   0.053   2.421   4.936
 2123SOL     OW 6826   0.189   2.382   5.446
 2123SOL    HW1 6827   0.248   2.342   5.376
 2123SOL    HW2 6828   0.131   2.453   5.405
 2124SOL     OW 6829   1.369   2.812   5.384
 2124SOL    HW1 6830   1.408   2.901   5.404
 2124SOL    HW2 6831   1.379   2.792   5.287
 2125SOL     OW 6832   0.815   2.434   4.049
 2125SOL    HW1 6833   0.822   2.345   4.003
 2125SOL    HW2 6834   0.721   2.468   4.041
 2126SOL     OW 6835   1.657   2.466   4.930
 2126SOL    HW1 6836   1.619   2.397   4.992
 2126SOL    HW2 6837   1.739   2.430   4.886
 2127SOL     OW 6838   0.252   3.426   5.468
 2127SOL    HW1 6839   0.222   3.483   5.544
 2127SOL    HW2 6840   0.245   3.329   5.494
 2128SOL     OW 6841   0.671   2.326   4.993
 2128SOL    HW1 6842   0.637   2.237   4.963
 2128SOL    HW2 6843   0.697   2.380   4.913
 2129SOL     OW 6844   0.930   3.540   5.189
 2129SOL    HW1 6845   0.906   3.522   5.094
 2129SOL    HW2 6846   0.960   3.634   5.199
 2130SOL     OW 6847   0.473   2.362   3.915
 2130SOL    HW1 6848   0.534   2.442   3.919
 2130SOL    HW2 6849   0.378   2.393   3.922
 2131SOL     OW 6850   0.159   2.999   5.190
 2131SOL    HW1 6851   0.181   2.938   5.266
 2131SOL    HW2 6852   0.169   2.950   5.104
 2132SOL     OW 6853   1.347   2.921   4.958
 2132SOL    HW1 6854   1.371   2.858   4.884
 2132SOL    HW2 6855   1.257   2.961   4.940
 2133SOL     OW 6856   1.302   2.717   4.033
 2133SOL    HW1 6857   1.216   2.686   4.075
 2133SOL    HW2 6858   1.298   2.703   3.934
 2134SOL     OW 6859   1.759   3.609   4.878
 2134SOL    HW1 6860   1.820   3.639   4.805
 2134SOL    HW2 6861   1.721   3.520   4.856
 2135SOL     OW 6862   1.252   3.593   4.852
 2135SOL    HW1 6863   1.336   3.598   4.798
 2135SOL    HW2 6864   1.229   3.497   4.870
 2136SOL     OW 6865   0.083   3.120   4.746
 2136SOL    HW1 6866   0.078   3.119   4.846
 2136SOL    HW2 6867   0.000   3.079   4.708
 2137SOL     OW 6868   0.688   3.524   5.440
 2137SOL    HW1 6869   0.632   3.605   5.449
 2137SOL    HW2 6870   0.740   3.528   5.354
 2138SOL     OW 6871   1.388   3.435   4.201
 2138SOL    HW1 6872   1.455   3.447   4.127
 2138SOL    HW2 6873   1.348   3.524   4.224
 2139SOL     OW 6874   0.130   3.656   5.575
 2139SOL    HW1 6875   0.089   3.582   5.628
 2139SOL    HW2 6876   0.194   3.707   5.633
 2140SOL     OW 6877   1.280   2.789   4.396
 2140SOL    HW1 6878   1.340   2.708   4.398
 2140SOL    HW2 6879   1.320   2.858   4.336
 2141SOL     OW 6880   0.830   3.135   5.146
 2141SOL    HW1 6881   0.825   3.168   5.241
 2141SOL    HW2 6882   0.744   3.154   5.100
 2142SOL     OW 6883   0.672   3.478   3.878
 2142SOL    HW1 6884   0.681   3.488   3.779
 2142SOL    HW2 6885   0.632   3.389   3.899
 2143SOL     OW 6886   1.650   3.582   5.118
 2143SOL    HW1 6887   1.703   3.592   5.034
 2143SOL    HW2 6888   1.623   3.672   5.152
 2144SOL     OW 6889   0.263   2.188   4.444
 2144SOL    HW1 6890   0.184   2.239   4.410
 2144SOL    HW2 6891   0.254   2.173   4.542
 2145SOL     OW 6892   1.194   3.474   3.755
 2145SOL    HW1 6893   1.200   3.381   3.792
 2145SOL    HW2 6894   1.135   3.474   3.675
 2146SOL     OW 6895   0.822   2.864   5.096
 2146SOL    HW1 6896   0.862   2.863   5.004
 2146SOL    HW2 6897   0.832   2.956   5.136
 2147SOL     OW 6898   0.916   2.772   4.015
 2147SOL    HW1 6899   0.979   2.810   3.947
 2147SOL    HW2 6900   0.956   2.689   4.054
 2148SOL     OW 6901   1.504   3.469   3.768
 2148SOL    HW1 6902   1.412   3.506   3.775
 2148SOL    HW2 6903   1.542   3.489   3.678
 2149SOL     OW 6904   0.372   3.150   5.214
 2149SOL    HW1 6905   0.359   3.243   5.180
 2149SOL    HW2 6906   0.288   3.098   5.201
 2150SOL     OW 6907   1.614   3.154   5.013
 2150SOL    HW1 6908   1.674   3.157   5.093
 2150SOL    HW2 6909   1.539   3.218   5.026
 2151SOL     OW 6910   1.039   2.960   4.420
 2151SOL    HW1 6911   0.969   2.913   4.474
 2151SOL    HW2 6912   1.098   2.892   4.377
 2152SOL     OW 6913   1.014   2.098   4.695
 2152SOL    HW1 6914   1.006   2.062   4.602
 2152SOL    HW2 6915   1.012   2.022   4.760
 2153SOL     OW 6916   0.590   3.349   4.215
 2153SOL    HW1 6917   0.632   3.291   4.145
 2153SOL    HW2 6918   0.546   3.428   4.171
 2154SOL     OW 6919   1.709   2.247   5.105
 2154SOL    HW1 6920   1.782   2.316   5.109
 2154SOL    HW2 6921   1.737   2.172   5.046
 2155SOL     OW 6922   0.255   3.210   4.014
 2155SOL    HW1 6923   0.159   3.211   3.987
 2155SOL    HW2 6924   0.267   3.263   4.098
 2156SOL     OW 6925   0.105   2.875   5.450
 2156SOL    HW1 6926   0.028   2.842   5.504
 2156SOL    HW2 6927   0.190   2.845   5.492
 2157SOL     OW 6928   0.672   2.065   5.213
 2157SOL    HW1 6929   0.762   2.049   5.173
 2157SOL    HW2 6930   0.680   2.070   5.312
 2158SOL     OW 6931   0.075   2.207   3.757
 2158SOL    HW1 6932  -0.017   2.179   3.728
 2158SOL    HW2 6933   0.106   2.284   3.701
 2159SOL     OW 6934   1.440   2.718   5.122
 2159SOL    HW1 6935   1.383   2.770   5.059
 2159SOL    HW2 6936   1.536   2.730   5.098
 2160SOL     OW 6937   0.072   2.028   4.042
 2160SOL    HW1 6938   0.055   2.111   3.988
 2160SOL    HW2 6939   0.162   1.991   4.020
 2161SOL     OW 6940   1.183   3.197   3.843
 2161SOL    HW1 6941   1.084   3.186   3.845
 2161SOL    HW2 6942   1.217   3.212   3.936
 2162SOL     OW 6943   0.613   2.704   5.155
 2162SOL    HW1 6944   0.669   2.785   5.138
 2162SOL    HW2 6945   0.672   2.624   5.158
 2163SOL     OW 6946   1.493   3.629   4.683
 2163SOL    HW1 6947   1.526   3.693   4.614
 2163SOL    HW2 6948   1.559   3.623   4.758
 2164SOL     OW 6949   0.716   2.427   5.432
 2164SOL    HW1 6950   0.735   2.492   5.506
 2164SOL    HW2 6951   0.776   2.347   5.441
 2165SOL     OW 6952   1.450   3.082   5.357
 2165SOL    HW1 6953   1.441   3.072   5.456
 2165SOL    HW2 6954   1.546   3.075   5.331
 2166SOL     OW 6955   0.390   3.603   5.284
 2166SOL    HW1 6956   0.299   3.644   5.282
 2166SOL    HW2 6957   0.383   3.509   5.316
 2167SOL     OW 6958   1.674   2.745   4.978
 2167SOL    HW1 6959   1.647   2.656   4.941
 2167SOL    HW2 6960   1.675   2.813   4.905
 2168SOL     OW 6961   1.225   2.187   4.173
 2168SOL    HW1 6962   1.290   2.113   4.162
 2168SOL    HW2 6963   1.245   2.237   4.257
 2169SOL     OW 6964   0.594   2.607   4.376
 2169SOL    HW1 6965   0.644   2.692   4.357
 2169SOL    HW2 6966   0.506   2.609   4.328
 2170SOL     OW 6967   1.777   2.204   5.366
 2170SOL    HW1 6968   1.760   2.235   5.272
 2170SOL    HW2 6969   1.693   2.167   5.404
 2171SOL     OW 6970   1.730   2.796   5.241
 2171SOL    HW1 6971   1.768   2.887   5.256
 2171SOL    HW2 6972   1.722   2.779   5.142
 2172SOL     OW 6973   0.859   3.236   3.740
 2172SOL    HW1 6974   0.813   3.251   3.828
 2172SOL    HW2 6975   0.903   3.321   3.710
 2173SOL     OW 6976   0.661   3.652   4.677
 2173SOL    HW1 6977   0.615   3.740   4.664
 2173SOL    HW2 6978   0.760   3.664   4.670
 2174SOL     OW 6979   0.859   2.818   4.585
 2174SOL    HW1 6980   0.913   2.749   4.633
 2174SOL    HW2 6981   0.827   2.887   4.651
 2175SOL     OW 6982   1.083   2.846   3.811
 2175SOL    HW1 6983   1.060   2.899   3.729
 2175SOL    HW2 6984   1.164   2.790   3.792
 2176SOL     OW 6985   1.861   3.431   4.575
 2176SOL    HW1 6986   1.790   3.419   4.505
 2176SOL    HW2 6987   1.862   3.352   4.635
 2177SOL     OW 6988   0.221   3.176   5.568
 2177SOL    HW1 6989   0.156   3.103   5.547
 2177SOL    HW2 6990   0.225   3.190   5.666
 2178SOL     OW 6991   0.079   3.102   4.377
 2178SOL    HW1 6992   0.078   3.055   4.465
 2178SOL    HW2 6993   0.161   3.074   4.326
 2179SOL     OW 6994   0.672   3.253   5.348
 2179SOL    HW1 6995   0.594   3.203   5.386
 2179SOL    HW2 6996   0.669   3.348   5.379
 2180SOL     OW 6997   0.428   2.286   4.244
 2180SOL    HW1 6998   0.458   2.214   4.182
 2180SOL    HW2 6999   0.389   2.246   4.327
 2181SOL     OW 7000   1.705   3.349   4.828
 2181SOL    HW1 7001   1.612   3.324   4.801
 2181SOL    HW2 7002   1.731   3.299   4.910
 2182SOL     OW 7003   0.317   2.409   5.004
 2182SOL    HW1 7004   0.355   2.350   5.076
 2182SOL    HW2 7005   0.357   2.383   4.916
 2183SOL     OW 7006   0.812   3.448   4.411
 2183SOL    HW1 7007   0.844   3.458   4.317
 2183SOL    HW2 7008   0.733   3.386   4.413
 2184SOL     OW 7009   1.424   2.076   4.836
 2184SOL    HW1 7010   1.476   2.011   4.891
 2184SOL    HW2 7011   1.375   2.139   4.897
 2185SOL     OW 7012   1.001   1.896   4.878
 2185SOL    HW1 7013   0.938   1.824   4.847
 2185SOL    HW2 7014   1.094   1.860   4.878
 2186SOL     OW 7015   0.770   3.192   4.025
 2186SOL    HW1 7016   0.724   3.105   4.042
 2186SOL    HW2 7017   0.861   3.189   4.066
 2187SOL     OW 7018   0.618   3.429   5.008
 2187SOL    HW1 7019   0.613   3.511   5.065
 2187SOL    HW2 7020   0.707   3.426   4.963
 2188SOL     OW 7021   1.352   1.914   3.892
 2188SOL    HW1 7022   1.387   1.873   3.808
 2188SOL    HW2 7023   1.262   1.876   3.912
 2189SOL     OW 7024   1.300   2.315   4.415
 2189SOL    HW1 7025   1.241   2.395   4.419
 2189SOL    HW2 7026   1.315   2.280   4.508
 2190SOL     OW 7027   1.593   2.083   4.606
 2190SOL    HW1 7028   1.509   2.082   4.660
 2190SOL    HW2 7029   1.595   2.166   4.550
 2191SOL     OW 7030   0.039   2.939   4.024
 2191SOL    HW1 7031   0.138   2.928   4.015
 2191SOL    HW2 7032  -0.001   2.853   4.056
 2192SOL     OW 7033   0.875   3.508   4.061
 2192SOL    HW1 7034   0.798   3.473   4.007
 2192SOL    HW2 7035   0.843   3.579   4.123
 2193SOL     OW 7036   0.230   2.490   5.699
 2193SOL    HW1 7037   0.137   2.488   5.736
 2193SOL    HW2 7038   0.231   2.451   5.607
 2194SOL     OW 7039   0.225   2.137   6.582
 2194SOL    HW1 7040   0.260   2.120   6.674
 2194SOL    HW2 7041   0.137   2.092   6.570
 2195SOL     OW 7042   0.019   2.230   6.233
 2195SOL    HW1 7043  -0.063   2.273   6.272
 2195SOL    HW2 7044  -0.009   2.157   6.170
 2196SOL     OW 7045   0.569   3.137   6.751
 2196SOL    HW1 7046   0.476   3.130   6.714
 2196SOL    HW2 7047   0.580   3.226   6.795
 2197SOL     OW 7048   1.555   3.373   6.289
 2197SOL    HW1 7049   1.498   3.357   6.370
 2197SOL    HW2 7050   1.496   3.383   6.209
 2198SOL     OW 7051   1.135   2.565   6.303
 2198SOL    HW1 7052   1.192   2.643   6.278
 2198SOL    HW2 7053   1.075   2.591   6.379
 2199SOL     OW 7054   1.755   2.469   5.817
 2199SOL    HW1 7055   1.743   2.456   5.718
 2199SOL    HW2 7056   1.725   2.388   5.866
 2200SOL     OW 7057   0.768   3.006   6.609
 2200SOL    HW1 7058   0.690   3.023   6.669
 2200SOL    HW2 7059   0.802   3.093   6.573
 2201SOL     OW 7060   0.850   2.660   7.409
 2201SOL    HW1 7061   0.846   2.736   7.474
 2201SOL    HW2 7062   0.872   2.696   7.318
 2202SOL     OW 7063   0.685   2.874   6.251
 2202SOL    HW1 7064   0.754   2.858   6.321
 2202SOL    HW2 7065   0.612   2.931   6.289
 2203SOL     OW 7066   0.686   3.023   7.389
 2203SOL    HW1 7067   0.746   3.102   7.403
 2203SOL    HW2 7068   0.600   3.054   7.348
 2204SOL     OW 7069   0.335   3.297   6.647
 2204SOL    HW1 7070   0.257   3.266   6.594
 2204SOL    HW2 7071   0.393   3.355   6.590
 2205SOL     OW 7072   1.460   3.367   6.925
 2205SOL    HW1 7073   1.484   3.461   6.951
 2205SOL    HW2 7074   1.444   3.313   7.007
 2206SOL     OW 7075   0.438   2.254   7.085
 2206SOL    HW1 7076   0.520   2.198   7.094
 2206SOL    HW2 7077   0.357   2.196   7.089
 2207SOL     OW 7078   0.231   3.575   6.069
 2207SOL    HW1 7079   0.265   3.652   6.123
 2207SOL    HW2 7080   0.275   3.575   5.979
 2208SOL     OW 7081   1.127   3.203   7.276
 2208SOL    HW1 7082   1.174   3.203   7.364
 2208SOL    HW2 7083   1.079   3.116   7.265
 2209SOL     OW 7084   0.230   3.296   6.124
 2209SOL    HW1 7085   0.204   3.392   6.124
 2209SOL    HW2 7086   0.159   3.242   6.169
 2210SOL     OW 7087   0.240   2.953   6.472
 2210SOL    HW1 7088   0.254   2.869   6.524
 2210SOL    HW2 7089   0.185   3.017   6.527
 2211SOL     OW 7090   0.620   3.648   7.025
 2211SOL    HW1 7091   0.528   3.631   7.060
 2211SOL    HW2 7092   0.648   3.740   7.051
 2212SOL     OW 7093   0.606   2.826   5.709
 2212SOL    HW1 7094   0.613   2.910   5.655
 2212SOL    HW2 7095   0.652   2.839   5.797
 2213SOL     OW 7096   1.594   1.976   7.066
 2213SOL    HW1 7097   1.576   2.043   6.994
 2213SOL    HW2 7098   1.591   2.022   7.155
 2214SOL     OW 7099   0.122   2.505   6.149
 2214SOL    HW1 7100   0.077   2.417   6.166
 2214SOL    HW2 7101   0.121   2.559   6.233
 2215SOL     OW 7102   1.842   3.629   5.945
 2215SOL    HW1 7103   1.896   3.600   6.025
 2215SOL    HW2 7104   1.872   3.719   5.916
 2216SOL     OW 7105   0.027   3.458   5.703
 2216SOL    HW1 7106   0.008   3.362   5.724
 2216SOL    HW2 7107  -0.006   3.516   5.778
 2217SOL     OW 7108   1.689   2.784   6.198
 2217SOL    HW1 7109   1.784   2.755   6.206
 2217SOL    HW2 7110   1.681   2.849   6.123
 2218SOL     OW 7111   1.641   2.970   6.018
 2218SOL    HW1 7112   1.727   2.972   5.966
 2218SOL    HW2 7113   1.655   3.017   6.106
 2219SOL     OW 7114   0.113   2.599   7.183
 2219SOL    HW1 7115   0.201   2.586   7.228
 2219SOL    HW2 7116   0.100   2.696   7.161
 2220SOL     OW 7117   0.613   3.227   6.312
 2220SOL    HW1 7118   0.564   3.140   6.321
 2220SOL    HW2 7119   0.590   3.270   6.225
 2221SOL     OW 7120   1.293   3.090   7.009
 2221SOL    HW1 7121   1.330   3.017   6.951
 2221SOL    HW2 7122   1.345   3.095   7.094
 2222SOL     OW 7123   0.809   1.866   6.088
 2222SOL    HW1 7124   0.849   1.957   6.079
 2222SOL    HW2 7125   0.709   1.874   6.094
 2223SOL     OW 7126   0.197   2.838   6.850
 2223SOL    HW1 7127   0.286   2.793   6.836
 2223SOL    HW2 7128   0.124   2.773   6.831
 2224SOL     OW 7129   1.525   2.861   5.776
 2224SOL    HW1 7130   1.462   2.785   5.789
 2224SOL    HW2 7131   1.573   2.879   5.862
 2225SOL     OW 7132   1.187   3.654   7.202
 2225SOL    HW1 7133   1.211   3.714   7.126
 2225SOL    HW2 7134   1.194   3.559   7.172
 2226SOL     OW 7135   0.317   2.113   7.387
 2226SOL    HW1 7136   0.388   2.184   7.393
 2226SOL    HW2 7137   0.229   2.152   7.415
 2227SOL     OW 7138   1.466   3.279   6.539
 2227SOL    HW1 7139   1.407   3.285   6.619
 2227SOL    HW2 7140   1.451   3.191   6.493
 2228SOL     OW 7141   1.667   3.576   6.158
 2228SOL    HW1 7142   1.626   3.553   6.070
 2228SOL    HW2 7143   1.649   3.502   6.223
 2229SOL     OW 7144   0.598   2.591   5.856
 2229SOL    HW1 7145   0.622   2.660   5.788
 2229SOL    HW2 7146   0.520   2.624   5.910
 2230SOL     OW 7147   1.281   2.207   6.530
 2230SOL    HW1 7148   1.195   2.157   6.517
 2230SOL    HW2 7149   1.343   2.153   6.586
 2231SOL     OW 7150   1.576   3.524   5.893
 2231SOL    HW1 7151   1.665   3.570   5.896
 2231SOL    HW2 7152   1.555   3.500   5.798
 2232SOL     OW 7153   0.807   2.467   7.051
 2232SOL    HW1 7154   0.760   2.464   7.140
 2232SOL    HW2 7155   0.756   2.412   6.985
 2233SOL     OW 7156   0.973   2.752   7.158
 2233SOL    HW1 7157   1.019   2.668   7.129
 2233SOL    HW2 7158   0.917   2.786   7.083
 2234SOL     OW 7159   0.991   2.272   6.828
 2234SOL    HW1 7160   0.914   2.306   6.882
 2234SOL    HW2 7161   0.957   2.221   6.749
 2235SOL     OW 7162   1.041   2.563   6.015
 2235SOL    HW1 7163   1.067   2.559   6.111
 2235SOL    HW2 7164   0.956   2.512   6.001
 2236SOL     OW 7165   0.076   2.673   6.375
 2236SOL    HW1 7166   0.175   2.661   6.384
 2236SOL    HW2 7167   0.052   2.768   6.396
 2237SOL     OW 7168   0.130   3.683   7.157
 2237SOL    HW1 7169   0.120   3.668   7.256
 2237SOL    HW2 7170   0.044   3.719   7.121
 2238SOL     OW 7171   0.865   2.210   5.781
 2238SOL    HW1 7172   0.924   2.273   5.732
 2238SOL    HW2 7173   0.884   2.116   5.752
 2239SOL     OW 7174   1.362   3.006   6.131
 2239SOL    HW1 7175   1.445   2.977   6.083
 2239SOL    HW2 7176   1.313   3.073   6.075
 2240SOL     OW 7177   0.550   2.058   6.471
 2240SOL    HW1 7178   0.545   2.053   6.571
 2240SOL    HW2 7179   0.552   2.154   6.442
 2241SOL     OW 7180   1.008   3.318   6.063
 2241SOL    HW1 7181   0.962   3.390   6.011
 2241SOL    HW2 7182   1.004   3.338   6.161
 2242SOL     OW 7183   0.351   3.663   6.439
 2242SOL    HW1 7184   0.401   3.577   6.445
 2242SOL    HW2 7185   0.416   3.740   6.436
 2243SOL     OW 7186   1.795   2.928   6.459
 2243SOL    HW1 7187   1.733   2.913   6.383
 2243SOL    HW2 7188   1.743   2.939   6.544
 2244SOL     OW 7189   1.227   3.412   7.092
 2244SOL    HW1 7190   1.233   3.335   7.156
 2244SOL    HW2 7191   1.175   3.386   7.012
 2245SOL     OW 7192   0.321   2.805   5.828
 2245SOL    HW1 7193   0.403   2.844   5.786
 2245SOL    HW2 7194   0.294   2.723   5.779
 2246SOL     OW 7195   1.458   2.597   6.314
 2246SOL    HW1 7196   1.453   2.532   6.389
 2246SOL    HW2 7197   1.538   2.656   6.327
 2247SOL     OW 7198   0.461   3.128   7.313
 2247SOL    HW1 7199   0.411   3.129   7.227
 2247SOL    HW2 7200   0.398   3.110   7.389
 2248SOL     OW 7201   1.111   3.638   5.823
 2248SOL    HW1 7202   1.051   3.576   5.873
 2248SOL    HW2 7203   1.142   3.594   5.738
 2249SOL     OW 7204   0.202   2.147   7.084
 2249SOL    HW1 7205   0.122   2.207   7.071
 2249SOL    HW2 7206   0.192   2.098   7.170
 2250SOL     OW 7207   1.632   3.239   5.667
 2250SOL    HW1 7208   1.600   3.333   5.657
 2250SOL    HW2 7209   1.556   3.176   5.655
 2251SOL     OW 7210   0.464   3.605   5.909
 2251SOL    HW1 7211   0.497   3.644   5.995
 2251SOL    HW2 7212   0.540   3.598   5.844
 2252SOL     OW 7213   1.400   1.969   6.012
 2252SOL    HW1 7214   1.376   1.932   5.922
 2252SOL    HW2 7215   1.499   1.985   6.016
 2253SOL     OW 7216   0.249   3.647   6.827
 2253SOL    HW1 7217   0.306   3.582   6.877
 2253SOL    HW2 7218   0.233   3.614   6.734
 2254SOL     OW 7219   0.940   3.560   6.490
 2254SOL    HW1 7220   1.020   3.503   6.511
 2254SOL    HW2 7221   0.891   3.520   6.413
 2255SOL     OW 7222   0.382   2.562   6.066
 2255SOL    HW1 7223   0.427   2.472   6.063
 2255SOL    HW2 7224   0.288   2.551   6.099
 2256SOL     OW 7225   0.614   1.984   5.703
 2256SOL    HW1 7226   0.712   1.962   5.710
 2256SOL    HW2 7227   0.583   1.967   5.610
 2257SOL     OW 7228   0.781   2.126   7.335
 2257SOL    HW1 7229   0.848   2.065   7.378
 2257SOL    HW2 7230   0.708   2.145   7.400
 2258SOL     OW 7231   0.888   3.376   6.781
 2258SOL    HW1 7232   0.865   3.351   6.687
 2258SOL    HW2 7233   0.949   3.307   6.820
 2259SOL     OW 7234   1.351   2.452   7.019
 2259SOL    HW1 7235   1.379   2.409   7.104
 2259SOL    HW2 7236   1.376   2.548   7.020
 2260SOL     OW 7237   0.803   3.264   6.510
 2260SOL    HW1 7238   0.893   3.278   6.468
 2260SOL    HW2 7239   0.732   3.266   6.439
 2261SOL     OW 7240   0.922   2.365   6.485
 2261SOL    HW1 7241   0.897   2.356   6.389
 2261SOL    HW2 7242   0.970   2.283   6.516
 2262SOL     OW 7243   0.539   1.926   6.098
 2262SOL    HW1 7244   0.458   1.927   6.156
 2262SOL    HW2 7245   0.542   2.009   6.043
 2263SOL     OW 7246   1.434   3.050   5.627
 2263SOL    HW1 7247   1.466   2.974   5.684
 2263SOL    HW2 7248   1.342   3.077   5.657
 2264SOL     OW 7249   0.297   1.897   5.757
 2264SOL    HW1 7250   0.346   1.981   5.736
 2264SOL    HW2 7251   0.359   1.832   5.802
 2265SOL     OW 7252   0.935   2.098   6.066
 2265SOL    HW1 7253   0.887   2.139   5.988
 2265SOL    HW2 7254   1.034   2.096   6.047
 2266SOL     OW 7255   1.076   2.545   7.050
 2266SOL    HW1 7256   0.996   2.484   7.053
 2266SOL    HW2 7257   1.157   2.492   7.026
 2267SOL     OW 7258   1.227   3.432   6.379
 2267SOL    HW1 7259   1.248   3.506   6.314
 2267SOL    HW2 7260   1.295   3.432   6.452
 2268SOL     OW 7261   0.459   3.014   6.327
 2268SOL    HW1 7262   0.388   2.987   6.392
 2268SOL    HW2 7263   0.433   2.986   6.234
 2269SOL     OW 7264   1.271   3.659   6.177
 2269SOL    HW1 7265   1.315   3.723   6.113
 2269SOL    HW2 7266   1.221   3.711   6.247
 2270SOL     OW 7267   1.032   2.411   5.602
 2270SOL    HW1 7268   0.991   2.493   5.563
 2270SOL    HW2 7269   1.096   2.437   5.675
 2271SOL     OW 7270   0.078   2.418   6.972
 2271SOL    HW1 7271   0.170   2.417   6.931
 2271SOL    HW2 7272   0.072   2.492   7.039
 2272SOL     OW 7273   0.561   2.084   6.733
 2272SOL    HW1 7274   0.599   2.000   6.770
 2272SOL    HW2 7275   0.473   2.103   6.777
 2273SOL     OW 7276   0.866   2.316   6.228
 2273SOL    HW1 7277   0.834   2.388   6.166
 2273SOL    HW2 7278   0.890   2.235   6.175
 2274SOL     OW 7279   1.017   1.901   6.339
 2274SOL    HW1 7280   0.945   1.906   6.270
 2274SOL    HW2 7281   0.993   1.832   6.408
 2275SOL     OW 7282   1.429   3.035   6.453
 2275SOL    HW1 7283   1.374   2.951   6.446
 2275SOL    HW2 7284   1.455   3.064   6.361
 2276SOL     OW 7285   1.857   2.695   5.963
 2276SOL    HW1 7286   1.899   2.631   6.027
 2276SOL    HW2 7287   1.819   2.644   5.885
 2277SOL     OW 7288   0.488   3.247   5.760
 2277SOL    HW1 7289   0.401   3.232   5.807
 2277SOL    HW2 7290   0.471   3.273   5.665
 2278SOL     OW 7291   1.664   3.142   6.243
 2278SOL    HW1 7292   1.763   3.150   6.257
 2278SOL    HW2 7293   1.619   3.226   6.274
 2279SOL     OW 7294   1.390   2.437   5.664
 2279SOL    HW1 7295   1.336   2.416   5.745
 2279SOL    HW2 7296   1.481   2.396   5.673
 2280SOL     OW 7297   0.527   2.118   5.914
 2280SOL    HW1 7298   0.554   2.059   5.839
 2280SOL    HW2 7299   0.527   2.213   5.883
 2281SOL     OW 7300   1.754   3.085   7.174
 2281SOL    HW1 7301   1.845   3.046   7.161
 2281SOL    HW2 7302   1.762   3.181   7.198
 2282SOL     OW 7303   1.064   3.209   6.926
 2282SOL    HW1 7304   0.984   3.186   6.981
 2282SOL    HW2 7305   1.147   3.183   6.975
 2283SOL     OW 7306   1.592   3.491   7.211
 2283SOL    HW1 7307   1.619   3.525   7.121
 2283SOL    HW2 7308   1.671   3.453   7.257
 2284SOL     OW 7309   1.111   3.057   6.686
 2284SOL    HW1 7310   1.071   3.101   6.767
 2284SOL    HW2 7311   1.070   3.094   6.603
 2285SOL     OW 7312   1.638   2.961   6.665
 2285SOL    HW1 7313   1.643   3.042   6.724
 2285SOL    HW2 7314   1.552   2.963   6.614
 2286SOL     OW 7315   0.915   1.951   6.988
 2286SOL    HW1 7316   0.940   1.931   6.893
 2286SOL    HW2 7317   0.987   2.007   7.030
 2287SOL     OW 7318   0.980   2.978   7.305
 2287SOL    HW1 7319   0.881   2.984   7.315
 2287SOL    HW2 7320   1.003   2.898   7.249
 2288SOL     OW 7321   0.705   2.912   5.954
 2288SOL    HW1 7322   0.691   2.919   6.053
 2288SOL    HW2 7323   0.789   2.861   5.936
 2289SOL     OW 7324   0.410   2.675   6.837
 2289SOL    HW1 7325   0.496   2.687   6.887
 2289SOL    HW2 7326   0.368   2.588   6.864
 2290SOL     OW 7327   1.274   2.248   6.848
 2290SOL    HW1 7328   1.295   2.322   6.912
 2290SOL    HW2 7329   1.185   2.265   6.805
 2291SOL     OW 7330   0.064   3.426   6.917
 2291SOL    HW1 7331   0.018   3.508   6.883
 2291SOL    HW2 7332   0.162   3.445   6.926
 2292SOL     OW 7333   0.367   2.962   6.087
 2292SOL    HW1 7334   0.360   3.045   6.031
 2292SOL    HW2 7335   0.371   2.882   6.027
 2293SOL     OW 7336   0.566   2.399   6.451
 2293SOL    HW1 7337   0.578   2.465   6.377
 2293SOL    HW2 7338   0.612   2.433   6.534
 2294SOL     OW 7339   1.252   3.210   5.974
 2294SOL    HW1 7340   1.302   3.287   6.014
 2294SOL    HW2 7341   1.157   3.212   6.006
 2295SOL     OW 7342   1.272   3.307   6.728
 2295SOL    HW1 7343   1.319   3.320   6.815
 2295SOL    HW2 7344   1.206   3.233   6.737
 2296SOL     OW 7345   1.582   2.501   6.058
 2296SOL    HW1 7346   1.551   2.562   6.131
 2296SOL    HW2 7347   1.632   2.553   5.989
 2297SOL     OW 7348   0.354   3.372   6.915
 2297SOL    HW1 7349   0.333   3.328   6.828
 2297SOL    HW2 7350   0.451   3.398   6.918
 2298SOL     OW 7351   0.402   2.613   7.184
 2298SOL    HW1 7352   0.470   2.668   7.137
 2298SOL    HW2 7353   0.442   2.525   7.211
 2299SOL     OW 7354   1.587   2.641   7.256
 2299SOL    HW1 7355   1.495   2.679   7.251
 2299SOL    HW2 7356   1.647   2.688   7.191
 2300SOL     OW 7357   1.013   1.967   7.356
 2300SOL    HW1 7358   1.019   2.052   7.304
 2300SOL    HW2 7359   1.045   1.891   7.299
 2301SOL     OW 7360   0.504   1.912   7.326
 2301SOL    HW1 7361   0.462   1.855   7.256
 2301SOL    HW2 7362   0.438   1.981   7.358
 2302SOL     OW 7363   0.573   2.732   6.615
 2302SOL    HW1 7364   0.617   2.821   6.606
 2302SOL    HW2 7365   0.510   2.732   6.692
 2303SOL     OW 7366   1.360   2.724   6.631
 2303SOL    HW1 7367   1.285   2.724   6.565
 2303SOL    HW2 7368   1.397   2.632   6.640
 2304SOL     OW 7369   1.209   2.387   5.861
 2304SOL    HW1 7370   1.222   2.303   5.915
 2304SOL    HW2 7371   1.180   2.461   5.921
 2305SOL     OW 7372   0.307   2.075   6.817
 2305SOL    HW1 7373   0.284   2.112   6.907
 2305SOL    HW2 7374   0.277   1.980   6.811
 2306SOL     OW 7375   0.037   3.172   6.868
 2306SOL    HW1 7376   0.090   3.123   6.936
 2306SOL    HW2 7377   0.059   3.270   6.873
 2307SOL     OW 7378   0.732   2.496   6.650
 2307SOL    HW1 7379   0.791   2.470   6.574
 2307SOL    HW2 7380   0.704   2.592   6.639
 2308SOL     OW 7381   1.728   2.797   7.440
 2308SOL    HW1 7382   1.682   2.790   7.351
 2308SOL    HW2 7383   1.666   2.841   7.506
 2309SOL     OW 7384   0.307   1.925   6.204
 2309SOL    HW1 7385   0.296   2.019   6.237
 2309SOL    HW2 7386   0.302   1.862   6.281
 2310SOL     OW 7387   1.023   2.628   6.552
 2310SOL    HW1 7388   1.038   2.649   6.648
 2310SOL    HW2 7389   0.993   2.533   6.543
 2311SOL     OW 7390   0.980   3.435   7.286
 2311SOL    HW1 7391   0.960   3.479   7.198
 2311SOL    HW2 7392   1.019   3.344   7.270
 2312SOL     OW 7393   1.859   3.380   7.191
 2312SOL    HW1 7394   1.873   3.407   7.096
 2312SOL    HW2 7395   1.942   3.402   7.244
 2313SOL     OW 7396   0.350   2.760   7.390
 2313SOL    HW1 7397   0.426   2.804   7.438
 2313SOL    HW2 7398   0.385   2.713   7.308
 2314SOL     OW 7399   1.540   2.136   5.711
 2314SOL    HW1 7400   1.479   2.061   5.734
 2314SOL    HW2 7401   1.562   2.188   5.794
 2315SOL     OW 7402   1.303   2.700   5.628
 2315SOL    HW1 7403   1.337   2.607   5.643
 2315SOL    HW2 7404   1.321   2.727   5.533
 2316SOL     OW 7405   1.068   3.195   6.435
 2316SOL    HW1 7406   1.075   3.111   6.380
 2316SOL    HW2 7407   1.130   3.264   6.399
 2317SOL     OW 7408   0.319   2.672   6.535
 2317SOL    HW1 7409   0.412   2.708   6.540
 2317SOL    HW2 7410   0.313   2.587   6.587
 2318SOL     OW 7411   0.339   2.371   6.592
 2318SOL    HW1 7412   0.287   2.288   6.575
 2318SOL    HW2 7413   0.416   2.376   6.528
 2319SOL     OW 7414   1.138   2.242   7.264
 2319SOL    HW1 7415   1.093   2.305   7.328
 2319SOL    HW2 7416   1.231   2.273   7.247
 2320SOL     OW 7417   1.160   2.069   7.063
 2320SOL    HW1 7418   1.160   2.133   7.140
 2320SOL    HW2 7419   1.188   2.117   6.980
 2321SOL     OW 7420   0.008   3.188   5.786
 2321SOL    HW1 7421  -0.085   3.209   5.755
 2321SOL    HW2 7422   0.018   3.089   5.799
 2322SOL     OW 7423   0.088   3.663   6.513
 2322SOL    HW1 7424   0.046   3.577   6.486
 2322SOL    HW2 7425   0.182   3.666   6.479
 2323SOL     OW 7426   0.504   3.430   6.496
 2323SOL    HW1 7427   0.570   3.504   6.505
 2323SOL    HW2 7428   0.548   3.351   6.454
 2324SOL     OW 7429   1.002   2.658   6.824
 2324SOL    HW1 7430   1.043   2.626   6.910
 2324SOL    HW2 7431   0.906   2.631   6.821
 2325SOL     OW 7432   0.040   2.406   6.700
 2325SOL    HW1 7433   0.125   2.373   6.659
 2325SOL    HW2 7434   0.053   2.421   6.798
 2326SOL     OW 7435   0.189   2.382   7.308
 2326SOL    HW1 7436   0.248   2.342   7.238
 2326SOL    HW2 7437   0.131   2.453   7.267
 2327SOL     OW 7438   1.369   2.812   7.246
 2327SOL    HW1 7439   1.408   2.901   7.266
 2327SOL    HW2 7440   1.379   2.792   7.149
 2328SOL     OW 7441   0.815   2.434   5.911
 2328SOL    HW1 7442   0.822   2.345   5.865
 2328SOL    HW2 7443   0.721   2.468   5.903
 2329SOL     OW 7444   0.252   3.426   7.330
 2329SOL    HW1 7445   0.222   3.483   7.406
 2329SOL    HW2 7446   0.245   3.329   7.356
 2330SOL     OW 7447   0.671   2.326   6.855
 2330SOL    HW1 7448   0.637   2.237   6.825
 2330SOL    HW2 7449   0.697   2.380   6.775
 2331SOL     OW 7450   0.930   3.540   7.051
 2331SOL    HW1 7451   0.906   3.522   6.956
 2331SOL    HW2 7452   0.960   3.634   7.061
 2332SOL     OW 7453   0.473   2.362   5.777
 2332SOL    HW1 7454   0.534   2.442   5.781
 2332SOL    HW2 7455   0.378   2.393   5.784
 2333SOL     OW 7456   0.159   2.999   7.052
 2333SOL    HW1 7457   0.181   2.938   7.128
 2333SOL    HW2 7458   0.169   2.950   6.966
 2334SOL     OW 7459   1.347   2.921   6.820
 2334SOL    HW1 7460   1.371   2.858   6.746
 2334SOL    HW2 7461   1.257   2.961   6.802
 2335SOL     OW 7462   1.302   2.717   5.895
 2335SOL    HW1 7463   1.216   2.686   5.937
 2335SOL    HW2 7464   1.298   2.703   5.796
 2336SOL     OW 7465   1.759   3.609   6.740
 2336SOL    HW1 7466   1.820   3.639   6.667
 2336SOL    HW2 7467   1.721   3.520   6.718
 2337SOL     OW 7468   1.252   3.593   6.714
 2337SOL    HW1 7469   1.336   3.598   6.660
 2337SOL    HW2 7470   1.229   3.497   6.732
 2338SOL     OW 7471   0.083   3.120   6.608
 2338SOL    HW1 7472   0.078   3.119   6.708
 2338SOL    HW2 7473   0.000   3.079   6.570
 2339SOL     OW 7474   0.688   3.524   7.302
 2339SOL    HW1 7475   0.632   3.605   7.311
 2339SOL    HW2 7476   0.740   3.528   7.216
 2340SOL     OW 7477   1.388   3.435   6.063
 2340SOL    HW1 7478   1.455   3.447   5.989
 2340SOL    HW2 7479   1.348   3.524   6.086
 2341SOL     OW 7480   0.130   3.656   7.437
 2341SOL    HW1 7481   0.089   3.582   7.490
 2341SOL    HW2 7482   0.194   3.707   7.495
 2342SOL     OW 7483   1.280   2.789   6.258
 2342SOL    HW1 7484   1.340   2.708   6.260
 2342SOL    HW2 7485   1.320   2.858   6.198
 2343SOL     OW 7486   0.830   3.135   7.008
 2343SOL    HW1 7487   0.825   3.168   7.103
 2343SOL    HW2 7488   0.744   3.154   6.962
 2344SOL     OW 7489   0.672   3.478   5.740
 2344SOL    HW1 7490   0.681   3.488   5.641
 2344SOL    HW2 7491   0.632   3.389   5.761
 2345SOL     OW 7492   1.650   3.582   6.980
 2345SOL    HW1 7493   1.703   3.592   6.896
 2345SOL    HW2 7494   1.623   3.672   7.014
 2346SOL     OW 7495   0.263   2.188   6.306
 2346SOL    HW1 7496   0.184   2.239   6.272
 2346SOL    HW2 7497   0.254   2.173   6.404
 2347SOL     OW 7498   1.194   3.474   5.617
 2347SOL    HW1 7499   1.200   3.381   5.654
 2347SOL    HW2 7500   1.135   3.474   5.537
 2348SOL     OW 7501   0.822   2.864   6.958
 2348SOL    HW1 7502   0.862   2.863   6.866
 2348SOL    HW2 7503   0.832   2.956   6.998
 2349SOL     OW 7504   0.916   2.772   5.877
 2349SOL    HW1 7505   0.979   2.810   5.809
 2349SOL    HW2 7506   0.956   2.689   5.916
 2350SOL     OW 7507   1.504   3.469   5.630
 2350SOL    HW1 7508   1.412   3.506   5.637
 2350SOL    HW2 7509   1.542   3.489   5.540
 2351SOL     OW 7510   0.372   3.150   7.076
 2351SOL    HW1 7511   0.359   3.243   7.042
 2351SOL    HW2 7512   0.288   3.098   7.063
 2352SOL     OW 7513   1.614   3.154   6.875
 2352SOL    HW1 7514   1.674   3.157   6.955
 2352SOL    HW2 7515   1.539   3.218   6.888
 2353SOL     OW 7516   1.039   2.960   6.282
 2353SOL    HW1 7517   0.969   2.913   6.336
 2353SOL    HW2 7518   1.098   2.892   6.239
 2354SOL     OW 7519   1.014   2.098   6.557
 2354SOL    HW1 7520   1.006   2.062   6.464
 2354SOL    HW2 7521   1.012   2.022   6.622
 2355SOL     OW 7522   0.590   3.349   6.077
 2355SOL    HW1 7523   0.632   3.291   6.007
 2355SOL    HW2 7524   0.546   3.428   6.033
 2356SOL     OW 7525   1.709   2.247   6.967
 2356SOL    HW1 7526   1.782   2.316   6.971
 2356SOL    HW2 7527   1.737   2.172   6.908
 2357SOL     OW 7528   0.255   3.210   5.876
 2357SOL    HW1 7529   0.159   3.211   5.849
 2357SOL    HW2 7530   0.267   3.263   5.960
 2358SOL     OW 7531   0.105   2.875   7.312
 2358SOL    HW1 7532   0.028   2.842   7.366
 2358SOL    HW2 7533   0.190   2.845   7.354
 2359SOL     OW 7534   0.672   2.065   7.075
 2359SOL    HW1 7535   0.762   2.049   7.035
 2359SOL    HW2 7536   0.680   2.070   7.174
 2360SOL     OW 7537   0.075   2.207   5.619
 2360SOL    HW1 7538  -0.017   2.179   5.590
 2360SOL    HW2 7539   0.106   2.284   5.563
 2361SOL     OW 7540   1.440   2.718   6.984
 2361SOL    HW1 7541   1.383   2.770   6.921
 2361SOL    HW2 7542   1.536   2.730   6.960
 2362SOL     OW 7543   0.072   2.028   5.904
 2362SOL    HW1 7544   0.055   2.111   5.850
 2362SOL    HW2 7545   0.162   1.991   5.882
 2363SOL     OW 7546   1.183   3.197   5.705
 2363SOL    HW1 7547   1.084   3.186   5.707
 2363SOL    HW2 7548   1.217   3.212   5.798
 2364SOL     OW 7549   0.613   2.704   7.017
 2364SOL    HW1 7550   0.669   2.785   7.000
 2364SOL    HW2 7551   0.672   2.624   7.020
 2365SOL     OW 7552   1.493   3.629   6.545
 2365SOL    HW1 7553   1.526   3.693   6.476
 2365SOL    HW2 7554   1.559   3.623   6.620
 2366SOL     OW 7555   0.716   2.427   7.294
 2366SOL    HW1 7556   0.735   2.492   7.368
 2366SOL    HW2 7557   0.776   2.347   7.303
 2367SOL     OW 7558   1.450   3.082   7.219
 2367SOL    HW1 7559   1.441   3.072   7.318
 2367SOL    HW2 7560   1.546   3.075   7.193
 2368SOL     OW 7561   0.390   3.603   7.146
 2368SOL    HW1 7562   0.299   3.644   7.144
 2368SOL    HW2 7563   0.383   3.509   7.178
 2369SOL     OW 7564   1.674   2.745   6.840
 2369SOL    HW1 7565   1.647   2.656   6.803
 2369SOL    HW2 7566   1.675   2.813   6.767
 2370SOL     OW 7567   1.225   2.187   6.035
 2370SOL    HW1 7568   1.290   2.113   6.024
 2370SOL    HW2 7569   1.245   2.237   6.119
 2371SOL     OW 7570   0.594   2.607   6.238
 2371SOL    HW1 7571   0.644   2.692   6.219
 2371SOL    HW2 7572   0.506   2.609   6.190
 2372SOL     OW 7573   1.730   2.796   7.103
 2372SOL    HW1 7574   1.768   2.887   7.118
 2372SOL    HW2 7575   1.722   2.779   7.004
 2373SOL     OW 7576   0.859   3.236   5.602
 2373SOL    HW1 7577   0.813   3.251   5.690
 2373SOL    HW2 7578   0.903   3.321   5.572
 2374SOL     OW 7579   0.661   3.652   6.539
 2374SOL    HW1 7580   0.615   3.740   6.526
 2374SOL    HW2 7581   0.760   3.664   6.532
 2375SOL     OW 7582   0.859   2.818   6.447
 2375SOL    HW1 7583   0.913   2.749   6.495
 2375SOL    HW2 7584   0.827   2.887   6.513
 2376SOL     OW 7585   1.083   2.846   5.673
 2376SOL    HW1 7586   1.060   2.899   5.591
 2376SOL    HW2 7587   1.164   2.790   5.654
 2377SOL     OW 7588   1.861   3.431   6.437
 2377SOL    HW1 7589   1.790   3.419   6.367
 2377SOL    HW2 7590   1.862   3.352   6.497
 2378SOL     OW 7591   0.221   3.176   7.430
 2378SOL    HW1 7592   0.156   3.103   7.409
 2378SOL    HW2 7593   0.225   3.190   7.528
 2379SOL     OW 7594   0.079   3.102   6.239
 2379SOL    HW1 7595   0.078   3.055   6.327
 2379SOL    HW2 7596   0.161   3.074   6.188
 2380SOL     OW 7597   0.672   3.253   7.210
 2380SOL    HW1 7598   0.594   3.203   7.248
 2380SOL    HW2 7599   0.669   3.348   7.241
 2381SOL     OW 7600   0.428   2.286   6.106
 2381SOL    HW1 7601   0.458   2.214   6.044
 2381SOL    HW2 7602   0.389   2.246   6.189
 2382SOL     OW 7603   1.705   3.349   6.690
 2382SOL    HW1 7604   1.612   3.324   6.663
 2382SOL    HW2 7605   1.731   3.299   6.772
 2383SOL     OW 7606   0.317   2.409   6.866
 2383SOL    HW1 7607   0.355   2.350   6.938
 2383SOL    HW2 7608   0.357   2.383   6.778
 2384SOL     OW 7609   0.812   3.448   6.273
 2384SOL    HW1 7610   0.844   3.458   6.179
 2384SOL    HW2 7611   0.733   3.386   6.275
 2385SOL     OW 7612   1.001   1.896   6.740
 2385SOL    HW1 7613   0.938   1.824   6.709
 2385SOL    HW2 7614   1.094   1.860   6.740
 2386SOL     OW 7615   0.770   3.192   5.887
 2386SOL    HW1 7616   0.724   3.105   5.904
 2386SOL    HW2 7617   0.861   3.189   5.928
 2387SOL     OW 7618   0.618   3.429   6.870
 2387SOL    HW1 7619   0.613   3.511   6.927
 2387SOL    HW2 7620   0.707   3.426   6.825
 2388SOL     OW 7621   1.352   1.914   5.754
 2388SOL    HW1 7622   1.387   1.873   5.670
 2388SOL    HW2 7623   1.262   1.876   5.774
 2389SOL     OW 7624   1.300   2.315   6.277
 2389SOL    HW1 7625   1.241   2.395   6.281
 2389SOL    HW2 7626   1.315   2.280   6.370
 2390SOL     OW 7627   0.039   2.939   5.886
 2390SOL    HW1 7628   0.138   2.928   5.877
 2390SOL    HW2 7629  -0.001   2.853   5.918
 2391SOL     OW 7630   0.875   3.508   5.923
 2391SOL    HW1 7631   0.798   3.473   5.869
 2391SOL    HW2 7632   0.843   3.579   5.985
 2392SOL     OW 7633   0.230   2.490   7.561
 2392SOL    HW1 7634   0.137   2.488   7.598
 2392SOL    HW2 7635   0.231   2.451   7.469
 2393SOL     OW 7636   0.225   2.137   8.444
 2393SOL    HW1 7637   0.260   2.120   8.536
 2393SOL    HW2 7638   0.137   2.092   8.432
 2394SOL     OW 7639   0.019   2.230   8.095
 2394SOL    HW1 7640  -0.063   2.273   8.134
 2394SOL    HW2 7641  -0.009   2.157   8.032
 2395SOL     OW 7642   0.569   3.137   8.613
 2395SOL    HW1 7643   0.476   3.130   8.576
 2395SOL    HW2 7644   0.580   3.226   8.657
 2396SOL     OW 7645   1.555   3.373   8.151
 2396SOL    HW1 7646   1.498   3.357   8.232
 2396SOL    HW2 7647   1.496   3.383   8.071
 2397SOL     OW 7648   1.135   2.565   8.165
 2397SOL    HW1 7649   1.192   2.643   8.140
 2397SOL    HW2 7650   1.075   2.591   8.241
 2398SOL     OW 7651   0.768   3.006   8.471
 2398SOL    HW1 7652   0.690   3.023   8.531
 2398SOL    HW2 7653   0.802   3.093   8.435
 2399SOL     OW 7654   0.850   2.660   9.271
 2399SOL    HW1 7655   0.846   2.736   9.336
 2399SOL    HW2 7656   0.872   2.696   9.180
 2400SOL     OW 7657   0.685   2.874   8.113
 2400SOL    HW1 7658   0.754   2.858   8.183
 2400SOL    HW2 7659   0.612   2.931   8.151
 2401SOL     OW 7660   0.686   3.023   9.251
 2401SOL    HW1 7661   0.746   3.102   9.265
 2401SOL    HW2 7662   0.600   3.054   9.210
 2402SOL     OW 7663   0.335   3.297   8.509
 2402SOL    HW1 7664   0.257   3.266   8.456
 2402SOL    HW2 7665   0.393   3.355   8.452
 2403SOL     OW 7666   1.460   3.367   8.787
 2403SOL    HW1 7667   1.484   3.461   8.813
 2403SOL    HW2 7668   1.444   3.313   8.869
 2404SOL     OW 7669   0.438   2.254   8.947
 2404SOL    HW1 7670   0.520   2.198   8.956
 2404SOL    HW2 7671   0.357   2.196   8.951
 2405SOL     OW 7672   1.603   2.309   8.185
 2405SOL    HW1 7673   1.529   2.355   8.135
 2405SOL    HW2 7674   1.654   2.377   8.238
 2406SOL     OW 7675   0.231   3.575   7.931
 2406SOL    HW1 7676   0.265   3.652   7.985
 2406SOL    HW2 7677   0.275   3.575   7.841
 2407SOL     OW 7678   1.127   3.203   9.138
 2407SOL    HW1 7679   1.174   3.203   9.226
 2407SOL    HW2 7680   1.079   3.116   9.127
 2408SOL     OW 7681   0.230   3.296   7.986
 2408SOL    HW1 7682   0.204   3.392   7.986
 2408SOL    HW2 7683   0.159   3.242   8.031
 2409SOL     OW 7684   0.240   2.953   8.334
 2409SOL    HW1 7685   0.254   2.869   8.386
 2409SOL    HW2 7686   0.185   3.017   8.389
 2410SOL     OW 7687   0.620   3.648   8.887
 2410SOL    HW1 7688   0.528   3.631   8.922
 2410SOL    HW2 7689   0.648   3.740   8.913
 2411SOL     OW 7690   0.606   2.826   7.571
 2411SOL    HW1 7691   0.613   2.910   7.517
 2411SOL    HW2 7692   0.652   2.839   7.659
 2412SOL     OW 7693   1.594   1.976   8.928
 2412SOL    HW1 7694   1.576   2.043   8.856
 2412SOL    HW2 7695   1.591   2.022   9.017
 2413SOL     OW 7696   0.122   2.505   8.011
 2413SOL    HW1 7697   0.077   2.417   8.028
 2413SOL    HW2 7698   0.121   2.559   8.095
 2414SOL     OW 7699   1.842   3.629   7.807
 2414SOL    HW1 7700   1.896   3.600   7.887
 2414SOL    HW2 7701   1.872   3.719   7.778
 2415SOL     OW 7702   0.027   3.458   7.565
 2415SOL    HW1 7703   0.008   3.362   7.586
 2415SOL    HW2 7704  -0.006   3.516   7.640
 2416SOL     OW 7705   1.689   2.784   8.060
 2416SOL    HW1 7706   1.784   2.755   8.068
 2416SOL    HW2 7707   1.681   2.849   7.985
 2417SOL     OW 7708   1.641   2.970   7.880
 2417SOL    HW1 7709   1.727   2.972   7.828
 2417SOL    HW2 7710   1.655   3.017   7.968
 2418SOL     OW 7711   0.113   2.599   9.045
 2418SOL    HW1 7712   0.201   2.586   9.090
 2418SOL    HW2 7713   0.100   2.696   9.023
 2419SOL     OW 7714   0.613   3.227   8.174
 2419SOL    HW1 7715   0.564   3.140   8.183
 2419SOL    HW2 7716   0.590   3.270   8.087
 2420SOL     OW 7717   1.293   3.090   8.871
 2420SOL    HW1 7718   1.330   3.017   8.813
 2420SOL    HW2 7719   1.345   3.095   8.956
 2421SOL     OW 7720   0.809   1.866   7.950
 2421SOL    HW1 7721   0.849   1.957   7.941
 2421SOL    HW2 7722   0.709   1.874   7.956
 2422SOL     OW 7723   0.197   2.838   8.712
 2422SOL    HW1 7724   0.286   2.793   8.698
 2422SOL    HW2 7725   0.124   2.773   8.693
 2423SOL     OW 7726   1.525   2.861   7.638
 2423SOL    HW1 7727   1.462   2.785   7.651
 2423SOL    HW2 7728   1.573   2.879   7.724
 2424SOL     OW 7729   1.187   3.654   9.064
 2424SOL    HW1 7730   1.211   3.714   8.988
 2424SOL    HW2 7731   1.194   3.559   9.034
 2425SOL     OW 7732   0.317   2.113   9.249
 2425SOL    HW1 7733   0.388   2.184   9.255
 2425SOL    HW2 7734   0.229   2.152   9.277
 2426SOL     OW 7735   1.466   3.279   8.401
 2426SOL    HW1 7736   1.407   3.285   8.481
 2426SOL    HW2 7737   1.451   3.191   8.355
 2427SOL     OW 7738   1.667   3.576   8.020
 2427SOL    HW1 7739   1.626   3.553   7.932
 2427SOL    HW2 7740   1.649   3.502   8.085
 2428SOL     OW 7741   0.598   2.591   7.718
 2428SOL    HW1 7742   0.622   2.660   7.650
 2428SOL    HW2 7743   0.520   2.624   7.772
 2429SOL     OW 7744   1.281   2.207   8.392
 2429SOL    HW1 7745   1.195   2.157   8.379
 2429SOL    HW2 7746   1.343   2.153   8.448
 2430SOL     OW 7747   1.576   3.524   7.755
 2430SOL    HW1 7748   1.665   3.570   7.758
 2430SOL    HW2 7749   1.555   3.500   7.660
 2431SOL     OW 7750   0.807   2.467   8.913
 2431SOL    HW1 7751   0.760   2.464   9.002
 2431SOL    HW2 7752   0.756   2.412   8.847
 2432SOL     OW 7753   1.394   2.331   9.122
 2432SOL    HW1 7754   1.374   2.374   9.210
 2432SOL    HW2 7755   1.472   2.269   9.131
 2433SOL     OW 7756   0.973   2.752   9.020
 2433SOL    HW1 7757   1.019   2.668   8.991
 2433SOL    HW2 7758   0.917   2.786   8.945
 2434SOL     OW 7759   0.991   2.272   8.690
 2434SOL    HW1 7760   0.914   2.306   8.744
 2434SOL    HW2 7761   0.957   2.221   8.611
 2435SOL     OW 7762   1.041   2.563   7.877
 2435SOL    HW1 7763   1.067   2.559   7.973
 2435SOL    HW2 7764   0.956   2.512   7.863
 2436SOL     OW 7765   0.076   2.673   8.237
 2436SOL    HW1 7766   0.175   2.661   8.246
 2436SOL    HW2 7767   0.052   2.768   8.258
 2437SOL     OW 7768   0.130   3.683   9.019
 2437SOL    HW1 7769   0.120   3.668   9.118
 2437SOL    HW2 7770   0.044   3.719   8.983
 2438SOL     OW 7771   0.865   2.210   7.643
 2438SOL    HW1 7772   0.924   2.273   7.594
 2438SOL    HW2 7773   0.884   2.116   7.614
 2439SOL     OW 7774   1.719   2.447   9.279
 2439SOL    HW1 7775   1.693   2.536   9.243
 2439SOL    HW2 7776   1.717   2.379   9.206
 2440SOL     OW 7777   1.362   3.006   7.993
 2440SOL    HW1 7778   1.445   2.977   7.945
 2440SOL    HW2 7779   1.313   3.073   7.937
 2441SOL     OW 7780   0.550   2.058   8.333
 2441SOL    HW1 7781   0.545   2.053   8.433
 2441SOL    HW2 7782   0.552   2.154   8.304
 2442SOL     OW 7783   1.008   3.318   7.925
 2442SOL    HW1 7784   0.962   3.390   7.873
 2442SOL    HW2 7785   1.004   3.338   8.023
 2443SOL     OW 7786   0.351   3.663   8.301
 2443SOL    HW1 7787   0.401   3.577   8.307
 2443SOL    HW2 7788   0.416   3.740   8.298
 2444SOL     OW 7789   1.795   2.928   8.321
 2444SOL    HW1 7790   1.733   2.913   8.245
 2444SOL    HW2 7791   1.743   2.939   8.406
 2445SOL     OW 7792   1.227   3.412   8.954
 2445SOL    HW1 7793   1.233   3.335   9.018
 2445SOL    HW2 7794   1.175   3.386   8.874
 2446SOL     OW 7795   0.321   2.805   7.690
 2446SOL    HW1 7796   0.403   2.844   7.648
 2446SOL    HW2 7797   0.294   2.723   7.641
 2447SOL     OW 7798   1.458   2.597   8.176
 2447SOL    HW1 7799   1.453   2.532   8.251
 2447SOL    HW2 7800   1.538   2.656   8.189
 2448SOL     OW 7801   0.461   3.128   9.175
 2448SOL    HW1 7802   0.411   3.129   9.089
 2448SOL    HW2 7803   0.398   3.110   9.251
 2449SOL     OW 7804   1.111   3.638   7.685
 2449SOL    HW1 7805   1.051   3.576   7.735
 2449SOL    HW2 7806   1.142   3.594   7.600
 2450SOL     OW 7807   0.202   2.147   8.946
 2450SOL    HW1 7808   0.122   2.207   8.933
 2450SOL    HW2 7809   0.192   2.098   9.032
 2451SOL     OW 7810   1.632   3.239   7.529
 2451SOL    HW1 7811   1.600   3.333   7.519
 2451SOL    HW2 7812   1.556   3.176   7.517
 2452SOL     OW 7813   0.464   3.605   7.771
 2452SOL    HW1 7814   0.497   3.644   7.857
 2452SOL    HW2 7815   0.540   3.598   7.706
 2453SOL     OW 7816   1.400   1.969   7.874
 2453SOL    HW1 7817   1.376   1.932   7.784
 2453SOL    HW2 7818   1.499   1.985   7.878
 2454SOL     OW 7819   0.249   3.647   8.689
 2454SOL    HW1 7820   0.306   3.582   8.739
 2454SOL    HW2 7821   0.233   3.614   8.596
 2455SOL     OW 7822   0.940   3.560   8.352
 2455SOL    HW1 7823   1.020   3.503   8.373
 2455SOL    HW2 7824   0.891   3.520   8.275
 2456SOL     OW 7825   0.382   2.562   7.928
 2456SOL    HW1 7826   0.427   2.472   7.925
 2456SOL    HW2 7827   0.288   2.551   7.961
 2457SOL     OW 7828   1.547   2.084   9.177
 2457SOL    HW1 7829   1.542   2.121   9.269
 2457SOL    HW2 7830   1.475   2.015   9.165
 2458SOL     OW 7831   0.614   1.984   7.565
 2458SOL    HW1 7832   0.712   1.962   7.572
 2458SOL    HW2 7833   0.583   1.967   7.472
 2459SOL     OW 7834   0.781   2.126   9.197
 2459SOL    HW1 7835   0.848   2.065   9.240
 2459SOL    HW2 7836   0.708   2.145   9.262
 2460SOL     OW 7837   0.888   3.376   8.643
 2460SOL    HW1 7838   0.865   3.351   8.549
 2460SOL    HW2 7839   0.949   3.307   8.682
 2461SOL     OW 7840   1.351   2.452   8.881
 2461SOL    HW1 7841   1.379   2.409   8.966
 2461SOL    HW2 7842   1.376   2.548   8.882
 2462SOL     OW 7843   0.803   3.264   8.372
 2462SOL    HW1 7844   0.893   3.278   8.330
 2462SOL    HW2 7845   0.732   3.266   8.301
 2463SOL     OW 7846   0.922   2.365   8.347
 2463SOL    HW1 7847   0.897   2.356   8.251
 2463SOL    HW2 7848   0.970   2.283   8.378
 2464SOL     OW 7849   0.539   1.926   7.960
 2464SOL    HW1 7850   0.458   1.927   8.018
 2464SOL    HW2 7851   0.542   2.009   7.905
 2465SOL     OW 7852   1.434   3.050   7.489
 2465SOL    HW1 7853   1.466   2.974   7.546
 2465SOL    HW2 7854   1.342   3.077   7.519
 2466SOL     OW 7855   0.297   1.897   7.619
 2466SOL    HW1 7856   0.346   1.981   7.598
 2466SOL    HW2 7857   0.359   1.832   7.664
 2467SOL     OW 7858   0.935   2.098   7.928
 2467SOL    HW1 7859   0.887   2.139   7.850
 2467SOL    HW2 7860   1.034   2.096   7.909
 2468SOL     OW 7861   1.076   2.545   8.912
 2468SOL    HW1 7862   0.996   2.484   8.915
 2468SOL    HW2 7863   1.157   2.492   8.888
 2469SOL     OW 7864   1.227   3.432   8.241
 2469SOL    HW1 7865   1.248   3.506   8.176
 2469SOL    HW2 7866   1.295   3.432   8.314
 2470SOL     OW 7867   0.459   3.014   8.189
 2470SOL    HW1 7868   0.388   2.987   8.254
 2470SOL    HW2 7869   0.433   2.986   8.096
 2471SOL     OW 7870   1.271   3.659   8.039
 2471SOL    HW1 7871   1.315   3.723   7.975
 2471SOL    HW2 7872   1.221   3.711   8.109
 2472SOL     OW 7873   1.032   2.411   7.464
 2472SOL    HW1 7874   0.991   2.493   7.425
 2472SOL    HW2 7875   1.096   2.437   7.537
 2473SOL     OW 7876   0.078   2.418   8.834
 2473SOL    HW1 7877   0.170   2.417   8.793
 2473SOL    HW2 7878   0.072   2.492   8.901
 2474SOL     OW 7879   0.561   2.084   8.595
 2474SOL    HW1 7880   0.599   2.000   8.632
 2474SOL    HW2 7881   0.473   2.103   8.639
 2475SOL     OW 7882   0.866   2.316   8.090
 2475SOL    HW1 7883   0.834   2.388   8.028
 2475SOL    HW2 7884   0.890   2.235   8.037
 2476SOL     OW 7885   1.017   1.901   8.201
 2476SOL    HW1 7886   0.945   1.906   8.132
 2476SOL    HW2 7887   0.993   1.832   8.270
 2477SOL     OW 7888   1.429   3.035   8.315
 2477SOL    HW1 7889   1.374   2.951   8.308
 2477SOL    HW2 7890   1.455   3.064   8.223
 2478SOL     OW 7891   1.466   2.452   8.440
 2478SOL    HW1 7892   1.436   2.357   8.447
 2478SOL    HW2 7893   1.539   2.468   8.506
 2479SOL     OW 7894   1.857   2.695   7.825
 2479SOL    HW1 7895   1.899   2.631   7.889
 2479SOL    HW2 7896   1.819   2.644   7.747
 2480SOL     OW 7897   0.488   3.247   7.622
 2480SOL    HW1 7898   0.401   3.232   7.669
 2480SOL    HW2 7899   0.471   3.273   7.527
 2481SOL     OW 7900   1.664   3.142   8.105
 2481SOL    HW1 7901   1.763   3.150   8.119
 2481SOL    HW2 7902   1.619   3.226   8.136
 2482SOL     OW 7903   0.527   2.118   7.776
 2482SOL    HW1 7904   0.554   2.059   7.701
 2482SOL    HW2 7905   0.527   2.213   7.745
 2483SOL     OW 7906   1.754   3.085   9.036
 2483SOL    HW1 7907   1.845   3.046   9.023
 2483SOL    HW2 7908   1.762   3.181   9.060
 2484SOL     OW 7909   1.064   3.209   8.788
 2484SOL    HW1 7910   0.984   3.186   8.843
 2484SOL    HW2 7911   1.147   3.183   8.837
 2485SOL     OW 7912   1.592   3.491   9.073
 2485SOL    HW1 7913   1.619   3.525   8.983
 2485SOL    HW2 7914   1.671   3.453   9.119
 2486SOL     OW 7915   1.111   3.057   8.548
 2486SOL    HW1 7916   1.071   3.101   8.629
 2486SOL    HW2 7917   1.070   3.094   8.465
 2487SOL     OW 7918   1.638   2.961   8.527
 2487SOL    HW1 7919   1.643   3.042   8.586
 2487SOL    HW2 7920   1.552   2.963   8.476
 2488SOL     OW 7921   0.915   1.951   8.850
 2488SOL    HW1 7922   0.940   1.931   8.755
 2488SOL    HW2 7923   0.987   2.007   8.892
 2489SOL     OW 7924   0.980   2.978   9.167
 2489SOL    HW1 7925   0.881   2.984   9.177
 2489SOL    HW2 7926   1.003   2.898   9.111
 2490SOL     OW 7927   0.705   2.912   7.816
 2490SOL    HW1 7928   0.691   2.919   7.915
 2490SOL    HW2 7929   0.789   2.861   7.798
 2491SOL     OW 7930   0.410   2.675   8.699
 2491SOL    HW1 7931   0.496   2.687   8.749
 2491SOL    HW2 7932   0.368   2.588   8.726
 2492SOL     OW 7933   1.274   2.248   8.710
 2492SOL    HW1 7934   1.295   2.322   8.774
 2492SOL    HW2 7935   1.185   2.265   8.667
 2493SOL     OW 7936   0.064   3.426   8.779
 2493SOL    HW1 7937   0.018   3.508   8.745
 2493SOL    HW2 7938   0.162   3.445   8.788
 2494SOL     OW 7939   0.367   2.962   7.949
 2494SOL    HW1 7940   0.360   3.045   7.893
 2494SOL    HW2 7941   0.371   2.882   7.889
 2495SOL     OW 7942   0.566   2.399   8.313
 2495SOL    HW1 7943   0.578   2.465   8.239
 2495SOL    HW2 7944   0.612   2.433   8.396
 2496SOL     OW 7945   1.252   3.210   7.836
 2496SOL    HW1 7946   1.302   3.287   7.876
 2496SOL    HW2 7947   1.157   3.212   7.868
 2497SOL     OW 7948   1.272   3.307   8.590
 2497SOL    HW1 7949   1.319   3.320   8.677
 2497SOL    HW2 7950   1.206   3.233   8.599
 2498SOL     OW 7951   1.582   2.501   7.920
 2498SOL    HW1 7952   1.551   2.562   7.993
 2498SOL    HW2 7953   1.632   2.553   7.851
 2499SOL     OW 7954   0.354   3.372   8.777
 2499SOL    HW1 7955   0.333   3.328   8.690
 2499SOL    HW2 7956   0.451   3.398   8.780
 2500SOL     OW 7957   0.402   2.613   9.046
 2500SOL    HW1 7958   0.470   2.668   8.999
 2500SOL    HW2 7959   0.442   2.525   9.073
 2501SOL     OW 7960   1.587   2.641   9.118
 2501SOL    HW1 7961   1.495   2.679   9.113
 2501SOL    HW2 7962   1.647   2.688   9.053
 2502SOL     OW 7963   1.013   1.967   9.218
 2502SOL    HW1 7964   1.019   2.052   9.166
 2502SOL    HW2 7965   1.045   1.891   9.161
 2503SOL     OW 7966   0.504   1.912   9.188
 2503SOL    HW1 7967   0.462   1.855   9.118
 2503SOL    HW2 7968   0.438   1.981   9.220
 2504SOL     OW 7969   0.573   2.732   8.477
 2504SOL    HW1 7970   0.617   2.821   8.468
 2504SOL    HW2 7971   0.510   2.732   8.554
 2505SOL     OW 7972   1.360   2.724   8.493
 2505SOL    HW1 7973   1.285   2.724   8.427
 2505SOL    HW2 7974   1.397   2.632   8.502
 2506SOL     OW 7975   1.209   2.387   7.723
 2506SOL    HW1 7976   1.222   2.303   7.777
 2506SOL    HW2 7977   1.180   2.461   7.783
 2507SOL     OW 7978   0.307   2.075   8.679
 2507SOL    HW1 7979   0.284   2.112   8.769
 2507SOL    HW2 7980   0.277   1.980   8.673
 2508SOL     OW 7981   0.037   3.172   8.730
 2508SOL    HW1 7982   0.090   3.123   8.798
 2508SOL    HW2 7983   0.059   3.270   8.735
 2509SOL     OW 7984   0.732   2.496   8.512
 2509SOL    HW1 7985   0.791   2.470   8.436
 2509SOL    HW2 7986   0.704   2.592   8.501
 2510SOL     OW 7987   1.728   2.797   9.302
 2510SOL    HW1 7988   1.682   2.790   9.213
 2510SOL    HW2 7989   1.666   2.841   9.368
 2511SOL     OW 7990   0.307   1.925   8.066
 2511SOL    HW1 7991   0.296   2.019   8.099
 2511SOL    HW2 7992   0.302   1.862   8.143
 2512SOL     OW 7993   1.023   2.628   8.414
 2512SOL    HW1 7994   1.038   2.649   8.510
 2512SOL    HW2 7995   0.993   2.533   8.405
 2513SOL     OW 7996   0.980   3.435   9.148
 2513SOL    HW1 7997   0.960   3.479   9.060
 2513SOL    HW2 7998   1.019   3.344   9.132
 2514SOL     OW 7999   1.859   3.380   9.053
 2514SOL    HW1 8000   1.873   3.407   8.958
 2514SOL    HW2 8001   1.942   3.402   9.106
 2515SOL     OW 8002   0.350   2.760   9.252
 2515SOL    HW1 8003   0.426   2.804   9.300
 2515SOL    HW2 8004   0.385   2.713   9.170
 2516SOL     OW 8005   1.303   2.700   7.490
 2516SOL    HW1 8006   1.337   2.607   7.505
 2516SOL    HW2 8007   1.321   2.727   7.395
 2517SOL     OW 8008   1.068   3.195   8.297
 2517SOL    HW1 8009   1.075   3.111   8.242
 2517SOL    HW2 8010   1.130   3.264   8.261
 2518SOL     OW 8011   0.319   2.672   8.397
 2518SOL    HW1 8012   0.412   2.708   8.402
 2518SOL    HW2 8013   0.313   2.587   8.449
 2519SOL     OW 8014   0.339   2.371   8.454
 2519SOL    HW1 8015   0.287   2.288   8.437
 2519SOL    HW2 8016   0.416   2.376   8.390
 2520SOL     OW 8017   1.138   2.242   9.126
 2520SOL    HW1 8018   1.093   2.305   9.190
 2520SOL    HW2 8019   1.231   2.273   9.109
 2521SOL     OW 8020   1.160   2.069   8.925
 2521SOL    HW1 8021   1.160   2.133   9.002
 2521SOL    HW2 8022   1.188   2.117   8.842
 2522SOL     OW 8023   0.008   3.188   7.648
 2522SOL    HW1 8024  -0.085   3.209   7.617
 2522SOL    HW2 8025   0.018   3.089   7.661
 2523SOL     OW 8026   0.088   3.663   8.375
 2523SOL    HW1 8027   0.046   3.577   8.348
 2523SOL    HW2 8028   0.182   3.666   8.341
 2524SOL     OW 8029   0.504   3.430   8.358
 2524SOL    HW1 8030   0.570   3.504   8.367
 2524SOL    HW2 8031   0.548   3.351   8.316
 2525SOL     OW 8032   1.002   2.658   8.686
 2525SOL    HW1 8033   1.043   2.626   8.772
 2525SOL    HW2 8034   0.906   2.631   8.683
 2526SOL     OW 8035   0.040   2.406   8.562
 2526SOL    HW1 8036   0.125   2.373   8.521
 2526SOL    HW2 8037   0.053   2.421   8.660
 2527SOL     OW 8038   0.189   2.382   9.170
 2527SOL    HW1 8039   0.248   2.342   9.100
 2527SOL    HW2 8040   0.131   2.453   9.129
 2528SOL     OW 8041   1.369   2.812   9.108
 2528SOL    HW1 8042   1.408   2.901   9.128
 2528SOL    HW2 8043   1.379   2.792   9.011
 2529SOL     OW 8044   0.815   2.434   7.773
 2529SOL    HW1 8045   0.822   2.345   7.727
 2529SOL    HW2 8046   0.721   2.468   7.765
 2530SOL     OW 8047   1.657   2.466   8.654
 2530SOL    HW1 8048   1.619   2.397   8.716
 2530SOL    HW2 8049   1.739   2.430   8.610
 2531SOL     OW 8050   0.252   3.426   9.192
 2531SOL    HW1 8051   0.222   3.483   9.268
 2531SOL    HW2 8052   0.245   3.329   9.218
 2532SOL     OW 8053   0.671   2.326   8.717
 2532SOL    HW1 8054   0.637   2.237   8.687
 2532SOL    HW2 8055   0.697   2.380   8.637
 2533SOL     OW 8056   0.930   3.540   8.913
 2533SOL    HW1 8057   0.906   3.522   8.818
 2533SOL    HW2 8058   0.960   3.634   8.923
 2534SOL     OW 8059   0.473   2.362   7.639
 2534SOL    HW1 8060   0.534   2.442   7.643
 2534SOL    HW2 8061   0.378   2.393   7.646
 2535SOL     OW 8062   0.159   2.999   8.914
 2535SOL    HW1 8063   0.181   2.938   8.990
 2535SOL    HW2 8064   0.169   2.950   8.828
 2536SOL     OW 8065   1.347   2.921   8.682
 2536SOL    HW1 8066   1.371   2.858   8.608
 2536SOL    HW2 8067   1.257   2.961   8.664
 2537SOL     OW 8068   1.302   2.717   7.757
 2537SOL    HW1 8069   1.216   2.686   7.799
 2537SOL    HW2 8070   1.298   2.703   7.658
 2538SOL     OW 8071   1.759   3.609   8.602
 2538SOL    HW1 8072   1.820   3.639   8.529
 2538SOL    HW2 8073   1.721   3.520   8.580
 2539SOL     OW 8074   1.252   3.593   8.576
 2539SOL    HW1 8075   1.336   3.598   8.522
 2539SOL    HW2 8076   1.229   3.497   8.594
 2540SOL     OW 8077   0.083   3.120   8.470
 2540SOL    HW1 8078   0.078   3.119   8.570
 2540SOL    HW2 8079   0.000   3.079   8.432
 2541SOL     OW 8080   0.688   3.524   9.164
 2541SOL    HW1 8081   0.632   3.605   9.173
 2541SOL    HW2 8082   0.740   3.528   9.078
 2542SOL     OW 8083   1.726   1.997   7.971
 2542SOL    HW1 8084   1.799   1.980   7.904
 2542SOL    HW2 8085   1.695   1.910   8.009
 2543SOL     OW 8086   1.388   3.435   7.925
 2543SOL    HW1 8087   1.455   3.447   7.851
 2543SOL    HW2 8088   1.348   3.524   7.948
 2544SOL     OW 8089   0.130   3.656   9.299
 2544SOL    HW1 8090   0.089   3.582   9.352
 2544SOL    HW2 8091   0.194   3.707   9.357
 2545SOL     OW 8092   1.280   2.789   8.120
 2545SOL    HW1 8093   1.340   2.708   8.122
 2545SOL    HW2 8094   1.320   2.858   8.060
 2546SOL     OW 8095   0.830   3.135   8.870
 2546SOL    HW1 8096   0.825   3.168   8.965
 2546SOL    HW2 8097   0.744   3.154   8.824
 2547SOL     OW 8098   0.672   3.478   7.602
 2547SOL    HW1 8099   0.681   3.488   7.503
 2547SOL    HW2 8100   0.632   3.389   7.623
 2548SOL     OW 8101   1.650   3.582   8.842
 2548SOL    HW1 8102   1.703   3.592   8.758
 2548SOL    HW2 8103   1.623   3.672   8.876
 2549SOL     OW 8104   0.263   2.188   8.168
 2549SOL    HW1 8105   0.184   2.239   8.134
 2549SOL    HW2 8106   0.254   2.173   8.266
 2550SOL     OW 8107   1.194   3.474   7.479
 2550SOL    HW1 8108   1.200   3.381   7.516
 2550SOL    HW2 8109   1.135   3.474   7.399
 2551SOL     OW 8110   0.822   2.864   8.820
 2551SOL    HW1 8111   0.862   2.863   8.728
 2551SOL    HW2 8112   0.832   2.956   8.860
 2552SOL     OW 8113   0.916   2.772   7.739
 2552SOL    HW1 8114   0.979   2.810   7.671
 2552SOL    HW2 8115   0.956   2.689   7.778
 2553SOL     OW 8116   1.504   3.469   7.492
 2553SOL    HW1 8117   1.412   3.506   7.499
 2553SOL    HW2 8118   1.542   3.489   7.402
 2554SOL     OW 8119   0.372   3.150   8.938
 2554SOL    HW1 8120   0.359   3.243   8.904
 2554SOL    HW2 8121   0.288   3.098   8.925
 2555SOL     OW 8122   1.614   3.154   8.737
 2555SOL    HW1 8123   1.674   3.157   8.817
 2555SOL    HW2 8124   1.539   3.218   8.750
 2556SOL     OW 8125   1.039   2.960   8.144
 2556SOL    HW1 8126   0.969   2.913   8.198
 2556SOL    HW2 8127   1.098   2.892   8.101
 2557SOL     OW 8128   1.014   2.098   8.419
 2557SOL    HW1 8129   1.006   2.062   8.326
 2557SOL    HW2 8130   1.012   2.022   8.484
 2558SOL     OW 8131   0.590   3.349   7.939
 2558SOL    HW1 8132   0.632   3.291   7.869
 2558SOL    HW2 8133   0.546   3.428   7.895
 2559SOL     OW 8134   1.709   2.247   8.829
 2559SOL    HW1 8135   1.782   2.316   8.833
 2559SOL    HW2 8136   1.737   2.172   8.770
 2560SOL     OW 8137   0.255   3.210   7.738
 2560SOL    HW1 8138   0.159   3.211   7.711
 2560SOL    HW2 8139   0.267   3.263   7.822
 2561SOL     OW 8140   0.105   2.875   9.174
 2561SOL    HW1 8141   0.028   2.842   9.228
 2561SOL    HW2 8142   0.190   2.845   9.216
 2562SOL     OW 8143   0.672   2.065   8.937
 2562SOL    HW1 8144   0.762   2.049   8.897
 2562SOL    HW2 8145   0.680   2.070   9.036
 2563SOL     OW 8146   0.075   2.207   7.481
 2563SOL    HW1 8147  -0.017   2.179   7.452
 2563SOL    HW2 8148   0.106   2.284   7.425
 2564SOL     OW 8149   1.440   2.718   8.846
 2564SOL    HW1 8150   1.383   2.770   8.783
 2564SOL    HW2 8151   1.536   2.730   8.822
 2565SOL     OW 8152   0.072   2.028   7.766
 2565SOL    HW1 8153   0.055   2.111   7.712
 2565SOL    HW2 8154   0.162   1.991   7.744
 2566SOL     OW 8155   1.183   3.197   7.567
 2566SOL    HW1 8156   1.084   3.186   7.569
 2566SOL    HW2 8157   1.217   3.212   7.660
 2567SOL     OW 8158   0.613   2.704   8.879
 2567SOL    HW1 8159   0.669   2.785   8.862
 2567SOL    HW2 8160   0.672   2.624   8.882
 2568SOL     OW 8161   1.493   3.629   8.407
 2568SOL    HW1 8162   1.526   3.693   8.338
 2568SOL    HW2 8163   1.559   3.623   8.482
 2569SOL     OW 8164   0.716   2.427   9.156
 2569SOL    HW1 8165   0.735   2.492   9.230
 2569SOL    HW2 8166   0.776   2.347   9.165
 2570SOL     OW 8167   1.450   3.082   9.081
 2570SOL    HW1 8168   1.441   3.072   9.180
 2570SOL    HW2 8169   1.546   3.075   9.055
 2571SOL     OW 8170   0.390   3.603   9.008
 2571SOL    HW1 8171   0.299   3.644   9.006
 2571SOL    HW2 8172   0.383   3.509   9.040
 2572SOL     OW 8173   1.674   2.745   8.702
 2572SOL    HW1 8174   1.647   2.656   8.665
 2572SOL    HW2 8175   1.675   2.813   8.629
 2573SOL     OW 8176   1.225   2.187   7.897
 2573SOL    HW1 8177   1.290   2.113   7.886
 2573SOL    HW2 8178   1.245   2.237   7.981
 2574SOL     OW 8179   0.594   2.607   8.100
 2574SOL    HW1 8180   0.644   2.692   8.081
 2574SOL    HW2 8181   0.506   2.609   8.052
 2575SOL     OW 8182   1.777   2.204   9.090
 2575SOL    HW1 8183   1.760   2.235   8.996
 2575SOL    HW2 8184   1.693   2.167   9.128
 2576SOL     OW 8185   1.730   2.796   8.965
 2576SOL    HW1 8186   1.768   2.887   8.980
 2576SOL    HW2 8187   1.722   2.779   8.866
 2577SOL     OW 8188   0.859   3.236   7.464
 2577SOL    HW1 8189   0.813   3.251   7.552
 2577SOL    HW2 8190   0.903   3.321   7.434
 2578SOL     OW 8191   0.661   3.652   8.401
 2578SOL    HW1 8192   0.615   3.740   8.388
 2578SOL    HW2 8193   0.760   3.664   8.394
 2579SOL     OW 8194   0.859   2.818   8.309
 2579SOL    HW1 8195   0.913   2.749   8.357
 2579SOL    HW2 8196   0.827   2.887   8.375
 2580SOL     OW 8197   1.083   2.846   7.535
 2580SOL    HW1 8198   1.060   2.899   7.453
 2580SOL    HW2 8199   1.164   2.790   7.516
 2581SOL     OW 8200   1.861   3.431   8.299
 2581SOL    HW1 8201   1.790   3.419   8.229
 2581SOL    HW2 8202   1.862   3.352   8.359
 2582SOL     OW 8203   0.221   3.176   9.292
 2582SOL    HW1 8204   0.156   3.103   9.271
 2582SOL    HW2 8205   0.225   3.190   9.390
 2583SOL     OW 8206   0.079   3.102   8.101
 2583SOL    HW1 8207   0.078   3.055   8.189
 2583SOL    HW2 8208   0.161   3.074   8.050
 2584SOL     OW 8209   0.672   3.253   9.072
 2584SOL    HW1 8210   0.594   3.203   9.110
 2584SOL    HW2 8211   0.669   3.348   9.103
 2585SOL     OW 8212   0.428   2.286   7.968
 2585SOL    HW1 8213   0.458   2.214   7.906
 2585SOL    HW2 8214   0.389   2.246   8.051
 2586SOL     OW 8215   1.705   3.349   8.552
 2586SOL    HW1 8216   1.612   3.324   8.525
 2586SOL    HW2 8217   1.731   3.299   8.634
 2587SOL     OW 8218   0.317   2.409   8.728
 2587SOL    HW1 8219   0.355   2.350   8.800
 2587SOL    HW2 8220   0.357   2.383   8.640
 2588SOL     OW 8221   0.812   3.448   8.135
 2588SOL    HW1 8222   0.844   3.458   8.041
 2588SOL    HW2 8223   0.733   3.386   8.137
 2589SOL     OW 8224   1.424   2.076   8.560
 2589SOL    HW1 8225   1.476   2.011   8.615
 2589SOL    HW2 8226   1.375   2.139   8.621
 2590SOL     OW 8227   1.001   1.896   8.602
 2590SOL    HW1 8228   0.938   1.824   8.571
 2590SOL    HW2 8229   1.094   1.860   8.602
 2591SOL     OW 8230   0.770   3.192   7.749
 2591SOL    HW1 8231   0.724   3.105   7.766
 2591SOL    HW2 8232   0.861   3.189   7.790
 2592SOL     OW 8233   0.618   3.429   8.732
 2592SOL    HW1 8234   0.613   3.511   8.789
 2592SOL    HW2 8235   0.707   3.426   8.687
 2593SOL     OW 8236   1.300   2.315   8.139
 2593SOL    HW1 8237   1.241   2.395   8.143
 2593SOL    HW2 8238   1.315   2.280   8.232
 2594SOL     OW 8239   1.593   2.083   8.330
 2594SOL    HW1 8240   1.509   2.082   8.384
 2594SOL    HW2 8241   1.595   2.166   8.274
 2595SOL     OW 8242   0.039   2.939   7.748
 2595SOL    HW1 8243   0.138   2.928   7.739
 2595SOL    HW2 8244  -0.001   2.853   7.780
 2596SOL     OW 8245   0.875   3.508   7.785
 2596SOL    HW1 8246   0.798   3.473   7.731
 2596SOL    HW2 8247   0.843   3.579   7.847
 2597SOL     OW 8248   0.230   2.490   9.423
 2597SOL    HW1 8249   0.137   2.488   9.460
 2597SOL    HW2 8250   0.231   2.451   9.331
 2598SOL     OW 8251   0.225   2.137  10.306
 2598SOL    HW1 8252   0.260   2.120  10.398
 2598SOL    HW2 8253   0.137   2.092  10.294
 2599SOL     OW 8254   0.019   2.230   9.957
 2599SOL    HW1 8255  -0.063   2.273   9.996
 2599SOL    HW2 8256  -0.009   2.157   9.894
 2600SOL     OW 8257   0.569   3.137  10.475
 2600SOL    HW1 8258   0.476   3.130  10.438
 2600SOL    HW2 8259   0.580   3.226  10.519
 2601SOL     OW 8260   1.555   3.373  10.013
 2601SOL    HW1 8261   1.498   3.357  10.094
 2601SOL    HW2 8262   1.496   3.383   9.933
 2602SOL     OW 8263   1.135   2.565  10.027
 2602SOL    HW1 8264   1.192   2.643  10.002
 2602SOL    HW2 8265   1.075   2.591  10.103
 2603SOL     OW 8266   1.755   2.469   9.541
 2603SOL    HW1 8267   1.743   2.456   9.442
 2603SOL    HW2 8268   1.725   2.388   9.590
 2604SOL     OW 8269   0.768   3.006  10.333
 2604SOL    HW1 8270   0.690   3.023  10.393
 2604SOL    HW2 8271   0.802   3.093  10.297
 2605SOL     OW 8272   0.850   2.660  11.133
 2605SOL    HW1 8273   0.846   2.736  11.198
 2605SOL    HW2 8274   0.872   2.696  11.042
 2606SOL     OW 8275   0.685   2.874   9.975
 2606SOL    HW1 8276   0.754   2.858  10.045
 2606SOL    HW2 8277   0.612   2.931  10.013
 2607SOL     OW 8278   0.686   3.023  11.113
 2607SOL    HW1 8279   0.746   3.102  11.127
 2607SOL    HW2 8280   0.600   3.054  11.072
 2608SOL     OW 8281   0.335   3.297  10.371
 2608SOL    HW1 8282   0.257   3.266  10.318
 2608SOL    HW2 8283   0.393   3.355  10.314
 2609SOL     OW 8284   1.460   3.367  10.649
 2609SOL    HW1 8285   1.484   3.461  10.675
 2609SOL    HW2 8286   1.444   3.313  10.731
 2610SOL     OW 8287   0.438   2.254  10.809
 2610SOL    HW1 8288   0.520   2.198  10.818
 2610SOL    HW2 8289   0.357   2.196  10.813
 2611SOL     OW 8290   1.603   2.309  10.047
 2611SOL    HW1 8291   1.529   2.355   9.997
 2611SOL    HW2 8292   1.654   2.377  10.100
 2612SOL     OW 8293   0.231   3.575   9.793
 2612SOL    HW1 8294   0.265   3.652   9.847
 2612SOL    HW2 8295   0.275   3.575   9.703
 2613SOL     OW 8296   1.127   3.203  11.000
 2613SOL    HW1 8297   1.174   3.203  11.088
 2613SOL    HW2 8298   1.079   3.116  10.989
 2614SOL     OW 8299   0.230   3.296   9.848
 2614SOL    HW1 8300   0.204   3.392   9.848
 2614SOL    HW2 8301   0.159   3.242   9.893
 2615SOL     OW 8302   0.240   2.953  10.196
 2615SOL    HW1 8303   0.254   2.869  10.248
 2615SOL    HW2 8304   0.185   3.017  10.251
 2616SOL     OW 8305   0.620   3.648  10.749
 2616SOL    HW1 8306   0.528   3.631  10.784
 2616SOL    HW2 8307   0.648   3.740  10.775
 2617SOL     OW 8308   0.606   2.826   9.433
 2617SOL    HW1 8309   0.613   2.910   9.379
 2617SOL    HW2 8310   0.652   2.839   9.521
 2618SOL     OW 8311   1.594   1.976  10.790
 2618SOL    HW1 8312   1.576   2.043  10.718
 2618SOL    HW2 8313   1.591   2.022  10.879
 2619SOL     OW 8314   0.122   2.505   9.873
 2619SOL    HW1 8315   0.077   2.417   9.890
 2619SOL    HW2 8316   0.121   2.559   9.957
 2620SOL     OW 8317   1.842   3.629   9.669
 2620SOL    HW1 8318   1.896   3.600   9.749
 2620SOL    HW2 8319   1.872   3.719   9.640
 2621SOL     OW 8320   0.027   3.458   9.427
 2621SOL    HW1 8321   0.008   3.362   9.448
 2621SOL    HW2 8322  -0.006   3.516   9.502
 2622SOL     OW 8323   1.689   2.784   9.922
 2622SOL    HW1 8324   1.784   2.755   9.930
 2622SOL    HW2 8325   1.681   2.849   9.847
 2623SOL     OW 8326   1.641   2.970   9.742
 2623SOL    HW1 8327   1.727   2.972   9.690
 2623SOL    HW2 8328   1.655   3.017   9.830
 2624SOL     OW 8329   0.113   2.599  10.907
 2624SOL    HW1 8330   0.201   2.586  10.952
 2624SOL    HW2 8331   0.100   2.696  10.885
 2625SOL     OW 8332   0.613   3.227  10.036
 2625SOL    HW1 8333   0.564   3.140  10.045
 2625SOL    HW2 8334   0.590   3.270   9.949
 2626SOL     OW 8335   1.293   3.090  10.733
 2626SOL    HW1 8336   1.330   3.017  10.675
 2626SOL    HW2 8337   1.345   3.095  10.818
 2627SOL     OW 8338   0.809   1.866   9.812
 2627SOL    HW1 8339   0.849   1.957   9.803
 2627SOL    HW2 8340   0.709   1.874   9.818
 2628SOL     OW 8341   0.197   2.838  10.574
 2628SOL    HW1 8342   0.286   2.793  10.560
 2628SOL    HW2 8343   0.124   2.773  10.555
 2629SOL     OW 8344   1.525   2.861   9.500
 2629SOL    HW1 8345   1.462   2.785   9.513
 2629SOL    HW2 8346   1.573   2.879   9.586
 2630SOL     OW 8347   1.187   3.654  10.926
 2630SOL    HW1 8348   1.211   3.714  10.850
 2630SOL    HW2 8349   1.194   3.559  10.896
 2631SOL     OW 8350   0.317   2.113  11.111
 2631SOL    HW1 8351   0.388   2.184  11.117
 2631SOL    HW2 8352   0.229   2.152  11.139
 2632SOL     OW 8353   1.466   3.279  10.263
 2632SOL    HW1 8354   1.407   3.285  10.343
 2632SOL    HW2 8355   1.451   3.191  10.217
 2633SOL     OW 8356   1.667   3.576   9.882
 2633SOL    HW1 8357   1.626   3.553   9.794
 2633SOL    HW2 8358   1.649   3.502   9.947
 2634SOL     OW 8359   0.598   2.591   9.580
 2634SOL    HW1 8360   0.622   2.660   9.512
 2634SOL    HW2 8361   0.520   2.624   9.634
 2635SOL     OW 8362   1.281   2.207  10.254
 2635SOL    HW1 8363   1.195   2.157  10.241
 2635SOL    HW2 8364   1.343   2.153  10.310
 2636SOL     OW 8365   1.576   3.524   9.617
 2636SOL    HW1 8366   1.665   3.570   9.620
 2636SOL    HW2 8367   1.555   3.500   9.522
 2637SOL     OW 8368   0.807   2.467  10.775
 2637SOL    HW1 8369   0.760   2.464  10.864
 2637SOL    HW2 8370   0.756   2.412  10.709
 2638SOL     OW 8371   1.394   2.331  10.984
 2638SOL    HW1 8372   1.374   2.374  11.072
 2638SOL    HW2 8373   1.472   2.269  10.993
 2639SOL     OW 8374   0.973   2.752  10.882
 2639SOL    HW1 8375   1.019   2.668  10.853
 2639SOL    HW2 8376   0.917   2.786  10.807
 2640SOL     OW 8377   0.991   2.272  10.552
 2640SOL    HW1 8378   0.914   2.306  10.606
 2640SOL    HW2 8379   0.957   2.221  10.473
 2641SOL     OW 8380   1.041   2.563   9.739
 2641SOL    HW1 8381   1.067   2.559   9.835
 2641SOL    HW2 8382   0.956   2.512   9.725
 2642SOL     OW 8383   0.076   2.673  10.099
 2642SOL    HW1 8384   0.175   2.661  10.108
 2642SOL    HW2 8385   0.052   2.768  10.120
 2643SOL     OW 8386   0.130   3.683  10.881
 2643SOL    HW1 8387   0.120   3.668  10.980
 2643SOL    HW2 8388   0.044   3.719  10.845
 2644SOL     OW 8389   0.865   2.210   9.505
 2644SOL    HW1 8390   0.924   2.273   9.456
 2644SOL    HW2 8391   0.884   2.116   9.476
 2645SOL     OW 8392   1.719   2.447  11.141
 2645SOL    HW1 8393   1.693   2.536  11.105
 2645SOL    HW2 8394   1.717   2.379  11.068
 2646SOL     OW 8395   1.362   3.006   9.855
 2646SOL    HW1 8396   1.445   2.977   9.807
 2646SOL    HW2 8397   1.313   3.073   9.799
 2647SOL     OW 8398   0.550   2.058  10.195
 2647SOL    HW1 8399   0.545   2.053  10.295
 2647SOL    HW2 8400   0.552   2.154  10.166
 2648SOL     OW 8401   1.008   3.318   9.787
 2648SOL    HW1 8402   0.962   3.390   9.735
 2648SOL    HW2 8403   1.004   3.338   9.885
 2649SOL     OW 8404   0.351   3.663  10.163
 2649SOL    HW1 8405   0.401   3.577  10.169
 2649SOL    HW2 8406   0.416   3.740  10.160
 2650SOL     OW 8407   1.795   2.928  10.183
 2650SOL    HW1 8408   1.733   2.913  10.107
 2650SOL    HW2 8409   1.743   2.939  10.268
 2651SOL     OW 8410   1.227   3.412  10.816
 2651SOL    HW1 8411   1.233   3.335  10.880
 2651SOL    HW2 8412   1.175   3.386  10.736
 2652SOL     OW 8413   0.321   2.805   9.552
 2652SOL    HW1 8414   0.403   2.844   9.510
 2652SOL    HW2 8415   0.294   2.723   9.503
 2653SOL     OW 8416   1.458   2.597  10.038
 2653SOL    HW1 8417   1.453   2.532  10.113
 2653SOL    HW2 8418   1.538   2.656  10.051
 2654SOL     OW 8419   0.461   3.128  11.037
 2654SOL    HW1 8420   0.411   3.129  10.951
 2654SOL    HW2 8421   0.398   3.110  11.113
 2655SOL     OW 8422   1.111   3.638   9.547
 2655SOL    HW1 8423   1.051   3.576   9.597
 2655SOL    HW2 8424   1.142   3.594   9.462
 2656SOL     OW 8425   0.202   2.147  10.808
 2656SOL    HW1 8426   0.122   2.207  10.795
 2656SOL    HW2 8427   0.192   2.098  10.894
 2657SOL     OW 8428   1.632   3.239   9.391
 2657SOL    HW1 8429   1.600   3.333   9.381
 2657SOL    HW2 8430   1.556   3.176   9.379
 2658SOL     OW 8431   0.464   3.605   9.633
 2658SOL    HW1 8432   0.497   3.644   9.719
 2658SOL    HW2 8433   0.540   3.598   9.568
 2659SOL     OW 8434   1.400   1.969   9.736
 2659SOL    HW1 8435   1.376   1.932   9.646
 2659SOL    HW2 8436   1.499   1.985   9.740
 2660SOL     OW 8437   0.249   3.647  10.551
 2660SOL    HW1 8438   0.306   3.582  10.601
 2660SOL    HW2 8439   0.233   3.614  10.458
 2661SOL     OW 8440   0.940   3.560  10.214
 2661SOL    HW1 8441   1.020   3.503  10.235
 2661SOL    HW2 8442   0.891   3.520  10.137
 2662SOL     OW 8443   0.382   2.562   9.790
 2662SOL    HW1 8444   0.427   2.472   9.787
 2662SOL    HW2 8445   0.288   2.551   9.823
 2663SOL     OW 8446   1.547   2.084  11.039
 2663SOL    HW1 8447   1.542   2.121  11.131
 2663SOL    HW2 8448   1.475   2.015  11.027
 2664SOL     OW 8449   0.614   1.984   9.427
 2664SOL    HW1 8450   0.712   1.962   9.434
 2664SOL    HW2 8451   0.583   1.967   9.334
 2665SOL     OW 8452   0.781   2.126  11.059
 2665SOL    HW1 8453   0.848   2.065  11.102
 2665SOL    HW2 8454   0.708   2.145  11.124
 2666SOL     OW 8455   0.888   3.376  10.505
 2666SOL    HW1 8456   0.865   3.351  10.411
 2666SOL    HW2 8457   0.949   3.307  10.544
 2667SOL     OW 8458   1.351   2.452  10.743
 2667SOL    HW1 8459   1.379   2.409  10.828
 2667SOL    HW2 8460   1.376   2.548  10.744
 2668SOL     OW 8461   0.803   3.264  10.234
 2668SOL    HW1 8462   0.893   3.278  10.192
 2668SOL    HW2 8463   0.732   3.266  10.163
 2669SOL     OW 8464   0.922   2.365  10.209
 2669SOL    HW1 8465   0.897   2.356  10.113
 2669SOL    HW2 8466   0.970   2.283  10.240
 2670SOL     OW 8467   0.539   1.926   9.822
 2670SOL    HW1 8468   0.458   1.927   9.880
 2670SOL    HW2 8469   0.542   2.009   9.767
 2671SOL     OW 8470   1.434   3.050   9.351
 2671SOL    HW1 8471   1.466   2.974   9.408
 2671SOL    HW2 8472   1.342   3.077   9.381
 2672SOL     OW 8473   0.297   1.897   9.481
 2672SOL    HW1 8474   0.346   1.981   9.460
 2672SOL    HW2 8475   0.359   1.832   9.526
 2673SOL     OW 8476   0.935   2.098   9.790
 2673SOL    HW1 8477   0.887   2.139   9.712
 2673SOL    HW2 8478   1.034   2.096   9.771
 2674SOL     OW 8479   1.076   2.545  10.774
 2674SOL    HW1 8480   0.996   2.484  10.777
 2674SOL    HW2 8481   1.157   2.492  10.750
 2675SOL     OW 8482   1.227   3.432  10.103
 2675SOL    HW1 8483   1.248   3.506  10.038
 2675SOL    HW2 8484   1.295   3.432  10.176
 2676SOL     OW 8485   0.459   3.014  10.051
 2676SOL    HW1 8486   0.388   2.987  10.116
 2676SOL    HW2 8487   0.433   2.986   9.958
 2677SOL     OW 8488   1.271   3.659   9.901
 2677SOL    HW1 8489   1.315   3.723   9.837
 2677SOL    HW2 8490   1.221   3.711   9.971
 2678SOL     OW 8491   1.032   2.411   9.326
 2678SOL    HW1 8492   0.991   2.493   9.287
 2678SOL    HW2 8493   1.096   2.437   9.399
 2679SOL     OW 8494   0.078   2.418  10.696
 2679SOL    HW1 8495   0.170   2.417  10.655
 2679SOL    HW2 8496   0.072   2.492  10.763
 2680SOL     OW 8497   0.561   2.084  10.457
 2680SOL    HW1 8498   0.599   2.000  10.494
 2680SOL    HW2 8499   0.473   2.103  10.501
 2681SOL     OW 8500   0.866   2.316   9.952
 2681SOL    HW1 8501   0.834   2.388   9.890
 2681SOL    HW2 8502   0.890   2.235   9.899
 2682SOL     OW 8503   1.017   1.901  10.063
 2682SOL    HW1 8504   0.945   1.906   9.994
 2682SOL    HW2 8505   0.993   1.832  10.132
 2683SOL     OW 8506   1.429   3.035  10.177
 2683SOL    HW1 8507   1.374   2.951  10.170
 2683SOL    HW2 8508   1.455   3.064  10.085
 2684SOL     OW 8509   1.466   2.452  10.302
 2684SOL    HW1 8510   1.436   2.357  10.309
 2684SOL    HW2 8511   1.539   2.468  10.368
 2685SOL     OW 8512   1.857   2.695   9.687
 2685SOL    HW1 8513   1.899   2.631   9.751
 2685SOL    HW2 8514   1.819   2.644   9.609
 2686SOL     OW 8515   0.488   3.247   9.484
 2686SOL    HW1 8516   0.401   3.232   9.531
 2686SOL    HW2 8517   0.471   3.273   9.389
 2687SOL     OW 8518   1.664   3.142   9.967
 2687SOL    HW1 8519   1.763   3.150   9.981
 2687SOL    HW2 8520   1.619   3.226   9.998
 2688SOL     OW 8521   1.390   2.437   9.388
 2688SOL    HW1 8522   1.336   2.416   9.469
 2688SOL    HW2 8523   1.481   2.396   9.397
 2689SOL     OW 8524   0.527   2.118   9.638
 2689SOL    HW1 8525   0.554   2.059   9.563
 2689SOL    HW2 8526   0.527   2.213   9.607
 2690SOL     OW 8527   1.754   3.085  10.898
 2690SOL    HW1 8528   1.845   3.046  10.885
 2690SOL    HW2 8529   1.762   3.181  10.922
 2691SOL     OW 8530   1.064   3.209  10.650
 2691SOL    HW1 8531   0.984   3.186  10.705
 2691SOL    HW2 8532   1.147   3.183  10.699
 2692SOL     OW 8533   1.592   3.491  10.935
 2692SOL    HW1 8534   1.619   3.525  10.845
 2692SOL    HW2 8535   1.671   3.453  10.981
 2693SOL     OW 8536   1.111   3.057  10.410
 2693SOL    HW1 8537   1.071   3.101  10.491
 2693SOL    HW2 8538   1.070   3.094  10.327
 2694SOL     OW 8539   1.638   2.961  10.389
 2694SOL    HW1 8540   1.643   3.042  10.448
 2694SOL    HW2 8541   1.552   2.963  10.338
 2695SOL     OW 8542   0.915   1.951  10.712
 2695SOL    HW1 8543   0.940   1.931  10.617
 2695SOL    HW2 8544   0.987   2.007  10.754
 2696SOL     OW 8545   0.980   2.978  11.029
 2696SOL    HW1 8546   0.881   2.984  11.039
 2696SOL    HW2 8547   1.003   2.898  10.973
 2697SOL     OW 8548   0.705   2.912   9.678
 2697SOL    HW1 8549   0.691   2.919   9.777
 2697SOL    HW2 8550   0.789   2.861   9.660
 2698SOL     OW 8551   0.410   2.675  10.561
 2698SOL    HW1 8552   0.496   2.687  10.611
 2698SOL    HW2 8553   0.368   2.588  10.588
 2699SOL     OW 8554   1.274   2.248  10.572
 2699SOL    HW1 8555   1.295   2.322  10.636
 2699SOL    HW2 8556   1.185   2.265  10.529
 2700SOL     OW 8557   0.064   3.426  10.641
 2700SOL    HW1 8558   0.018   3.508  10.607
 2700SOL    HW2 8559   0.162   3.445  10.650
 2701SOL     OW 8560   0.367   2.962   9.811
 2701SOL    HW1 8561   0.360   3.045   9.755
 2701SOL    HW2 8562   0.371   2.882   9.751
 2702SOL     OW 8563   0.566   2.399  10.175
 2702SOL    HW1 8564   0.578   2.465  10.101
 2702SOL    HW2 8565   0.612   2.433  10.258
 2703SOL     OW 8566   1.252   3.210   9.698
 2703SOL    HW1 8567   1.302   3.287   9.738
 2703SOL    HW2 8568   1.157   3.212   9.730
 2704SOL     OW 8569   1.272   3.307  10.452
 2704SOL    HW1 8570   1.319   3.320  10.539
 2704SOL    HW2 8571   1.206   3.233  10.461
 2705SOL     OW 8572   1.582   2.501   9.782
 2705SOL    HW1 8573   1.551   2.562   9.855
 2705SOL    HW2 8574   1.632   2.553   9.713
 2706SOL     OW 8575   0.354   3.372  10.639
 2706SOL    HW1 8576   0.333   3.328  10.552
 2706SOL    HW2 8577   0.451   3.398  10.642
 2707SOL     OW 8578   0.402   2.613  10.908
 2707SOL    HW1 8579   0.470   2.668  10.861
 2707SOL    HW2 8580   0.442   2.525  10.935
 2708SOL     OW 8581   1.587   2.641  10.980
 2708SOL    HW1 8582   1.495   2.679  10.975
 2708SOL    HW2 8583   1.647   2.688  10.915
 2709SOL     OW 8584   1.013   1.967  11.080
 2709SOL    HW1 8585   1.019   2.052  11.028
 2709SOL    HW2 8586   1.045   1.891  11.023
 2710SOL     OW 8587   0.504   1.912  11.050
 2710SOL    HW1 8588   0.462   1.855  10.980
 2710SOL    HW2 8589   0.438   1.981  11.082
 2711SOL     OW 8590   0.573   2.732  10.339
 2711SOL    HW1 8591   0.617   2.821  10.330
 2711SOL    HW2 8592   0.510   2.732  10.416
 2712SOL     OW 8593   1.360   2.724  10.355
 2712SOL    HW1 8594   1.285   2.724  10.289
 2712SOL    HW2 8595   1.397   2.632  10.364
 2713SOL     OW 8596   1.209   2.387   9.585
 2713SOL    HW1 8597   1.222   2.303   9.639
 2713SOL    HW2 8598   1.180   2.461   9.645
 2714SOL     OW 8599   0.307   2.075  10.541
 2714SOL    HW1 8600   0.284   2.112  10.631
 2714SOL    HW2 8601   0.277   1.980  10.535
 2715SOL     OW 8602   0.037   3.172  10.592
 2715SOL    HW1 8603   0.090   3.123  10.660
 2715SOL    HW2 8604   0.059   3.270  10.597
 2716SOL     OW 8605   0.732   2.496  10.374
 2716SOL    HW1 8606   0.791   2.470  10.298
 2716SOL    HW2 8607   0.704   2.592  10.363
 2717SOL     OW 8608   1.728   2.797  11.164
 2717SOL    HW1 8609   1.682   2.790  11.075
 2717SOL    HW2 8610   1.666   2.841  11.230
 2718SOL     OW 8611   0.307   1.925   9.928
 2718SOL    HW1 8612   0.296   2.019   9.961
 2718SOL    HW2 8613   0.302   1.862  10.005
 2719SOL     OW 8614   1.622   2.229   9.684
 2719SOL    HW1 8615   1.624   2.153   9.748
 2719SOL    HW2 8616   1.574   2.306   9.724
 2720SOL     OW 8617   1.023   2.628  10.276
 2720SOL    HW1 8618   1.038   2.649  10.372
 2720SOL    HW2 8619   0.993   2.533  10.267
 2721SOL     OW 8620   0.980   3.435  11.010
 2721SOL    HW1 8621   0.960   3.479  10.922
 2721SOL    HW2 8622   1.019   3.344  10.994
 2722SOL     OW 8623   1.859   3.380  10.915
 2722SOL    HW1 8624   1.873   3.407  10.820
 2722SOL    HW2 8625   1.942   3.402  10.968
 2723SOL     OW 8626   0.350   2.760  11.114
 2723SOL    HW1 8627   0.426   2.804  11.162
 2723SOL    HW2 8628   0.385   2.713  11.032
 2724SOL     OW 8629   1.540   2.136   9.435
 2724SOL    HW1 8630   1.479   2.061   9.458
 2724SOL    HW2 8631   1.562   2.188   9.518
 2725SOL     OW 8632   1.303   2.700   9.352
 2725SOL    HW1 8633   1.337   2.607   9.367
 2725SOL    HW2 8634   1.321   2.727   9.257
 2726SOL     OW 8635   1.068   3.195  10.159
 2726SOL    HW1 8636   1.075   3.111  10.104
 2726SOL    HW2 8637   1.130   3.264  10.123
 2727SOL     OW 8638   0.319   2.672  10.259
 2727SOL    HW1 8639   0.412   2.708  10.264
 2727SOL    HW2 8640   0.313   2.587  10.311
 2728SOL     OW 8641   0.339   2.371  10.316
 2728SOL    HW1 8642   0.287   2.288  10.299
 2728SOL    HW2 8643   0.416   2.376  10.252
 2729SOL     OW 8644   1.138   2.242  10.988
 2729SOL    HW1 8645   1.093   2.305  11.052
 2729SOL    HW2 8646   1.231   2.273  10.971
 2730SOL     OW 8647   1.160   2.069  10.787
 2730SOL    HW1 8648   1.160   2.133  10.864
 2730SOL    HW2 8649   1.188   2.117  10.704
 2731SOL     OW 8650   0.008   3.188   9.510
 2731SOL    HW1 8651  -0.085   3.209   9.479
 2731SOL    HW2 8652   0.018   3.089   9.523
 2732SOL     OW 8653   0.088   3.663  10.237
 2732SOL    HW1 8654   0.046   3.577  10.210
 2732SOL    HW2 8655   0.182   3.666  10.203
 2733SOL     OW 8656   0.504   3.430  10.220
 2733SOL    HW1 8657   0.570   3.504  10.229
 2733SOL    HW2 8658   0.548   3.351  10.178
 2734SOL     OW 8659   1.002   2.658  10.548
 2734SOL    HW1 8660   1.043   2.626  10.634
 2734SOL    HW2 8661   0.906   2.631  10.545
 2735SOL     OW 8662   0.040   2.406  10.424
 2735SOL    HW1 8663   0.125   2.373  10.383
 2735SOL    HW2 8664   0.053   2.421  10.522
 2736SOL     OW 8665   0.189   2.382  11.032
 2736SOL    HW1 8666   0.248   2.342  10.962
 2736SOL    HW2 8667   0.131   2.453  10.991
 2737SOL     OW 8668   1.369   2.812  10.970
 2737SOL    HW1 8669   1.408   2.901  10.990
 2737SOL    HW2 8670   1.379   2.792  10.873
 2738SOL     OW 8671   0.815   2.434   9.635
 2738SOL    HW1 8672   0.822   2.345   9.589
 2738SOL    HW2 8673   0.721   2.468   9.627
 2739SOL     OW 8674   1.657   2.466  10.516
 2739SOL    HW1 8675   1.619   2.397  10.578
 2739SOL    HW2 8676   1.739   2.430  10.472
 2740SOL     OW 8677   0.252   3.426  11.054
 2740SOL    HW1 8678   0.222   3.483  11.130
 2740SOL    HW2 8679   0.245   3.329  11.080
 2741SOL     OW 8680   0.671   2.326  10.579
 2741SOL    HW1 8681   0.637   2.237  10.549
 2741SOL    HW2 8682   0.697   2.380  10.499
 2742SOL     OW 8683   0.930   3.540  10.775
 2742SOL    HW1 8684   0.906   3.522  10.680
 2742SOL    HW2 8685   0.960   3.634  10.785
 2743SOL     OW 8686   0.473   2.362   9.501
 2743SOL    HW1 8687   0.534   2.442   9.505
 2743SOL    HW2 8688   0.378   2.393   9.508
 2744SOL     OW 8689   0.159   2.999  10.776
 2744SOL    HW1 8690   0.181   2.938  10.852
 2744SOL    HW2 8691   0.169   2.950  10.690
 2745SOL     OW 8692   1.347   2.921  10.544
 2745SOL    HW1 8693   1.371   2.858  10.470
 2745SOL    HW2 8694   1.257   2.961  10.526
 2746SOL     OW 8695   1.302   2.717   9.619
 2746SOL    HW1 8696   1.216   2.686   9.661
 2746SOL    HW2 8697   1.298   2.703   9.520
 2747SOL     OW 8698   1.759   3.609  10.464
 2747SOL    HW1 8699   1.820   3.639  10.391
 2747SOL    HW2 8700   1.721   3.520  10.442
 2748SOL     OW 8701   1.252   3.593  10.438
 2748SOL    HW1 8702   1.336   3.598  10.384
 2748SOL    HW2 8703   1.229   3.497  10.456
 2749SOL     OW 8704   0.083   3.120  10.332
 2749SOL    HW1 8705   0.078   3.119  10.432
 2749SOL    HW2 8706   0.000   3.079  10.294
 2750SOL     OW 8707   0.688   3.524  11.026
 2750SOL    HW1 8708   0.632   3.605  11.035
 2750SOL    HW2 8709   0.740   3.528  10.940
 2751SOL     OW 8710   1.388   3.435   9.787
 2751SOL    HW1 8711   1.455   3.447   9.713
 2751SOL    HW2 8712   1.348   3.524   9.810
 2752SOL     OW 8713   0.130   3.656  11.161
 2752SOL    HW1 8714   0.089   3.582  11.214
 2752SOL    HW2 8715   0.194   3.707  11.219
 2753SOL     OW 8716   1.280   2.789   9.982
 2753SOL    HW1 8717   1.340   2.708   9.984
 2753SOL    HW2 8718   1.320   2.858   9.922
 2754SOL     OW 8719   0.830   3.135  10.732
 2754SOL    HW1 8720   0.825   3.168  10.827
 2754SOL    HW2 8721   0.744   3.154  10.686
 2755SOL     OW 8722   0.672   3.478   9.464
 2755SOL    HW1 8723   0.681   3.488   9.365
 2755SOL    HW2 8724   0.632   3.389   9.485
 2756SOL     OW 8725   1.650   3.582  10.704
 2756SOL    HW1 8726   1.703   3.592  10.620
 2756SOL    HW2 8727   1.623   3.672  10.738
 2757SOL     OW 8728   0.263   2.188  10.030
 2757SOL    HW1 8729   0.184   2.239   9.996
 2757SOL    HW2 8730   0.254   2.173  10.128
 2758SOL     OW 8731   1.194   3.474   9.341
 2758SOL    HW1 8732   1.200   3.381   9.378
 2758SOL    HW2 8733   1.135   3.474   9.261
 2759SOL     OW 8734   0.822   2.864  10.682
 2759SOL    HW1 8735   0.862   2.863  10.590
 2759SOL    HW2 8736   0.832   2.956  10.722
 2760SOL     OW 8737   0.916   2.772   9.601
 2760SOL    HW1 8738   0.979   2.810   9.533
 2760SOL    HW2 8739   0.956   2.689   9.640
 2761SOL     OW 8740   1.504   3.469   9.354
 2761SOL    HW1 8741   1.412   3.506   9.361
 2761SOL    HW2 8742   1.542   3.489   9.264
 2762SOL     OW 8743   0.372   3.150  10.800
 2762SOL    HW1 8744   0.359   3.243  10.766
 2762SOL    HW2 8745   0.288   3.098  10.787
 2763SOL     OW 8746   1.614   3.154  10.599
 2763SOL    HW1 8747   1.674   3.157  10.679
 2763SOL    HW2 8748   1.539   3.218  10.612
 2764SOL     OW 8749   1.039   2.960  10.006
 2764SOL    HW1 8750   0.969   2.913  10.060
 2764SOL    HW2 8751   1.098   2.892   9.963
 2765SOL     OW 8752   1.014   2.098  10.281
 2765SOL    HW1 8753   1.006   2.062  10.188
 2765SOL    HW2 8754   1.012   2.022  10.346
 2766SOL     OW 8755   0.590   3.349   9.801
 2766SOL    HW1 8756   0.632   3.291   9.731
 2766SOL    HW2 8757   0.546   3.428   9.757
 2767SOL     OW 8758   1.709   2.247  10.691
 2767SOL    HW1 8759   1.782   2.316  10.695
 2767SOL    HW2 8760   1.737   2.172  10.632
 2768SOL     OW 8761   0.255   3.210   9.600
 2768SOL    HW1 8762   0.159   3.211   9.573
 2768SOL    HW2 8763   0.267   3.263   9.684
 2769SOL     OW 8764   0.105   2.875  11.036
 2769SOL    HW1 8765   0.028   2.842  11.090
 2769SOL    HW2 8766   0.190   2.845  11.078
 2770SOL     OW 8767   0.672   2.065  10.799
 2770SOL    HW1 8768   0.762   2.049  10.759
 2770SOL    HW2 8769   0.680   2.070  10.898
 2771SOL     OW 8770   0.075   2.207   9.343
 2771SOL    HW1 8771  -0.017   2.179   9.314
 2771SOL    HW2 8772   0.106   2.284   9.287
 2772SOL     OW 8773   1.440   2.718  10.708
 2772SOL    HW1 8774   1.383   2.770  10.645
 2772SOL    HW2 8775   1.536   2.730  10.684
 2773SOL     OW 8776   0.072   2.028   9.628
 2773SOL    HW1 8777   0.055   2.111   9.574
 2773SOL    HW2 8778   0.162   1.991   9.606
 2774SOL     OW 8779   1.183   3.197   9.429
 2774SOL    HW1 8780   1.084   3.186   9.431
 2774SOL    HW2 8781   1.217   3.212   9.522
 2775SOL     OW 8782   0.613   2.704  10.741
 2775SOL    HW1 8783   0.669   2.785  10.724
 2775SOL    HW2 8784   0.672   2.624  10.744
 2776SOL     OW 8785   1.493   3.629  10.269
 2776SOL    HW1 8786   1.526   3.693  10.200
 2776SOL    HW2 8787   1.559   3.623  10.344
 2777SOL     OW 8788   0.716   2.427  11.018
 2777SOL    HW1 8789   0.735   2.492  11.092
 2777SOL    HW2 8790   0.776   2.347  11.027
 2778SOL     OW 8791   1.450   3.082  10.943
 2778SOL    HW1 8792   1.441   3.072  11.042
 2778SOL    HW2 8793   1.546   3.075  10.917
 2779SOL     OW 8794   0.390   3.603  10.870
 2779SOL    HW1 8795   0.299   3.644  10.868
 2779SOL    HW2 8796   0.383   3.509  10.902
 2780SOL     OW 8797   1.674   2.745  10.564
 2780SOL    HW1 8798   1.647   2.656  10.527
 2780SOL    HW2 8799   1.675   2.813  10.491
 2781SOL     OW 8800   1.225   2.187   9.759
 2781SOL    HW1 8801   1.290   2.113   9.748
 2781SOL    HW2 8802   1.245   2.237   9.843
 2782SOL     OW 8803   0.594   2.607   9.962
 2782SOL    HW1 8804   0.644   2.692   9.943
 2782SOL    HW2 8805   0.506   2.609   9.914
 2783SOL     OW 8806   1.777   2.204  10.952
 2783SOL    HW1 8807   1.760   2.235  10.858
 2783SOL    HW2 8808   1.693   2.167  10.990
 2784SOL     OW 8809   1.730   2.796  10.827
 2784SOL    HW1 8810   1.768   2.887  10.842
 2784SOL    HW2 8811   1.722   2.779  10.728
 2785SOL     OW 8812   0.859   3.236   9.326
 2785SOL    HW1 8813   0.813   3.251   9.414
 2785SOL    HW2 8814   0.903   3.321   9.296
 2786SOL     OW 8815   0.661   3.652  10.263
 2786SOL    HW1 8816   0.615   3.740  10.250
 2786SOL    HW2 8817   0.760   3.664  10.256
 2787SOL     OW 8818   0.859   2.818  10.171
 2787SOL    HW1 8819   0.913   2.749  10.219
 2787SOL    HW2 8820   0.827   2.887  10.237
 2788SOL     OW 8821   1.083   2.846   9.397
 2788SOL    HW1 8822   1.060   2.899   9.315
 2788SOL    HW2 8823   1.164   2.790   9.378
 2789SOL     OW 8824   1.861   3.431  10.161
 2789SOL    HW1 8825   1.790   3.419  10.091
 2789SOL    HW2 8826   1.862   3.352  10.221
 2790SOL     OW 8827   0.221   3.176  11.154
 2790SOL    HW1 8828   0.156   3.103  11.133
 2790SOL    HW2 8829   0.225   3.190  11.252
 2791SOL     OW 8830   0.079   3.102   9.963
 2791SOL    HW1 8831   0.078   3.055  10.051
 2791SOL    HW2 8832   0.161   3.074   9.912
 2792SOL     OW 8833   0.672   3.253  10.934
 2792SOL    HW1 8834   0.594   3.203  10.972
 2792SOL    HW2 8835   0.669   3.348  10.965
 2793SOL     OW 8836   0.428   2.286   9.830
 2793SOL    HW1 8837   0.458   2.214   9.768
 2793SOL    HW2 8838   0.389   2.246   9.913
 2794SOL     OW 8839   1.705   3.349  10.414
 2794SOL    HW1 8840   1.612   3.324  10.387
 2794SOL    HW2 8841   1.731   3.299  10.496
 2795SOL     OW 8842   0.317   2.409  10.590
 2795SOL    HW1 8843   0.355   2.350  10.662
 2795SOL    HW2 8844   0.357   2.383  10.502
 2796SOL     OW 8845   0.812   3.448   9.997
 2796SOL    HW1 8846   0.844   3.458   9.903
 2796SOL    HW2 8847   0.733   3.386   9.999
 2797SOL     OW 8848   1.424   2.076  10.422
 2797SOL    HW1 8849   1.476   2.011  10.477
 2797SOL    HW2 8850   1.375   2.139  10.483
 2798SOL     OW 8851   1.001   1.896  10.464
 2798SOL    HW1 8852   0.938   1.824  10.433
 2798SOL    HW2 8853   1.094   1.860  10.464
 2799SOL     OW 8854   0.770   3.192   9.611
 2799SOL    HW1 8855   0.724   3.105   9.628
 2799SOL    HW2 8856   0.861   3.189   9.652
 2800SOL     OW 8857   0.618   3.429  10.594
 2800SOL    HW1 8858   0.613   3.511  10.651
 2800SOL    HW2 8859   0.707   3.426  10.549
 2801SOL     OW 8860   1.352   1.914   9.478
 2801SOL    HW1 8861   1.387   1.873   9.394
 2801SOL    HW2 8862   1.262   1.876   9.498
 2802SOL     OW 8863   1.300   2.315  10.001
 2802SOL    HW1 8864   1.241   2.395  10.005
 2802SOL    HW2 8865   1.315   2.280  10.094
 2803SOL     OW 8866   1.593   2.083  10.192
 2803SOL    HW1 8867   1.509   2.082  10.246
 2803SOL    HW2 8868   1.595   2.166  10.136
 2804SOL     OW 8869   0.039   2.939   9.610
 2804SOL    HW1 8870   0.138   2.928   9.601
 2804SOL    HW2 8871  -0.001   2.853   9.642
 2805SOL     OW 8872   0.875   3.508   9.647
 2805SOL    HW1 8873   0.798   3.473   9.593
 2805SOL    HW2 8874   0.843   3.579   9.709
 2806SOL     OW 8875   0.230   2.490  11.285
 2806SOL    HW1 8876   0.137   2.488  11.322
 2806SOL    HW2 8877   0.231   2.451  11.193
 2807SOL     OW 8878   0.225   2.137  12.168
 2807SOL    HW1 8879   0.260   2.120  12.260
 2807SOL    HW2 8880   0.137   2.092  12.156
 2808SOL     OW 8881   0.019   2.230  11.819
 2808SOL    HW1 8882  -0.063   2.273  11.858
 2808SOL    HW2 8883  -0.009   2.157  11.756
 2809SOL     OW 8884   0.569   3.137  12.337
 2809SOL    HW1 8885   0.476   3.130  12.300
 2809SOL    HW2 8886   0.580   3.226  12.381
 2810SOL     OW 8887   1.555   3.373  11.875
 2810SOL    HW1 8888   1.498   3.357  11.956
 2810SOL    HW2 8889   1.496   3.383  11.795
 2811SOL     OW 8890   1.135   2.565  11.889
 2811SOL    HW1 8891   1.192   2.643  11.864
 2811SOL    HW2 8892   1.075   2.591  11.965
 2812SOL     OW 8893   1.755   2.469  11.403
 2812SOL    HW1 8894   1.743   2.456  11.304
 2812SOL    HW2 8895   1.725   2.388  11.452
 2813SOL     OW 8896   0.768   3.006  12.195
 2813SOL    HW1 8897   0.690   3.023  12.255
 2813SOL    HW2 8898   0.802   3.093  12.159
 2814SOL     OW 8899   0.850   2.660  12.995
 2814SOL    HW1 8900   0.846   2.736  13.060
 2814SOL    HW2 8901   0.872   2.696  12.904
 2815SOL     OW 8902   0.685   2.874  11.837
 2815SOL    HW1 8903   0.754   2.858  11.907
 2815SOL    HW2 8904   0.612   2.931  11.875
 2816SOL     OW 8905   0.686   3.023  12.975
 2816SOL    HW1 8906   0.746   3.102  12.989
 2816SOL    HW2 8907   0.600   3.054  12.934
 2817SOL     OW 8908   0.335   3.297  12.233
 2817SOL    HW1 8909   0.257   3.266  12.180
 2817SOL    HW2 8910   0.393   3.355  12.176
 2818SOL     OW 8911   1.460   3.367  12.511
 2818SOL    HW1 8912   1.484   3.461  12.537
 2818SOL    HW2 8913   1.444   3.313  12.593
 2819SOL     OW 8914   0.438   2.254  12.671
 2819SOL    HW1 8915   0.520   2.198  12.680
 2819SOL    HW2 8916   0.357   2.196  12.675
 2820SOL     OW 8917   1.603   2.309  11.909
 2820SOL    HW1 8918   1.529   2.355  11.859
 2820SOL    HW2 8919   1.654   2.377  11.962
 2821SOL     OW 8920   0.231   3.575  11.655
 2821SOL    HW1 8921   0.265   3.652  11.709
 2821SOL    HW2 8922   0.275   3.575  11.565
 2822SOL     OW 8923   1.127   3.203  12.862
 2822SOL    HW1 8924   1.174   3.203  12.950
 2822SOL    HW2 8925   1.079   3.116  12.851
 2823SOL     OW 8926   0.230   3.296  11.710
 2823SOL    HW1 8927   0.204   3.392  11.710
 2823SOL    HW2 8928   0.159   3.242  11.755
 2824SOL     OW 8929   0.240   2.953  12.058
 2824SOL    HW1 8930   0.254   2.869  12.110
 2824SOL    HW2 8931   0.185   3.017  12.113
 2825SOL     OW 8932   0.620   3.648  12.611
 2825SOL    HW1 8933   0.528   3.631  12.646
 2825SOL    HW2 8934   0.648   3.740  12.637
 2826SOL     OW 8935   0.606   2.826  11.295
 2826SOL    HW1 8936   0.613   2.910  11.241
 2826SOL    HW2 8937   0.652   2.839  11.383
 2827SOL     OW 8938   1.594   1.976  12.652
 2827SOL    HW1 8939   1.576   2.043  12.580
 2827SOL    HW2 8940   1.591   2.022  12.741
 2828SOL     OW 8941   0.122   2.505  11.735
 2828SOL    HW1 8942   0.077   2.417  11.752
 2828SOL    HW2 8943   0.121   2.559  11.819
 2829SOL     OW 8944   1.842   3.629  11.531
 2829SOL    HW1 8945   1.896   3.600  11.611
 2829SOL    HW2 8946   1.872   3.719  11.502
 2830SOL     OW 8947   0.027   3.458  11.289
 2830SOL    HW1 8948   0.008   3.362  11.310
 2830SOL    HW2 8949  -0.006   3.516  11.364
 2831SOL     OW 8950   1.689   2.784  11.784
 2831SOL    HW1 8951   1.784   2.755  11.792
 2831SOL    HW2 8952   1.681   2.849  11.709
 2832SOL     OW 8953   1.641   2.970  11.604
 2832SOL    HW1 8954   1.727   2.972  11.552
 2832SOL    HW2 8955   1.655   3.017  11.692
 2833SOL     OW 8956   0.113   2.599  12.769
 2833SOL    HW1 8957   0.201   2.586  12.814
 2833SOL    HW2 8958   0.100   2.696  12.747
 2834SOL     OW 8959   0.613   3.227  11.898
 2834SOL    HW1 8960   0.564   3.140  11.907
 2834SOL    HW2 8961   0.590   3.270  11.811
 2835SOL     OW 8962   1.293   3.090  12.595
 2835SOL    HW1 8963   1.330   3.017  12.537
 2835SOL    HW2 8964   1.345   3.095  12.680
 2836SOL     OW 8965   0.809   1.866  11.674
 2836SOL    HW1 8966   0.849   1.957  11.665
 2836SOL    HW2 8967   0.709   1.874  11.680
 2837SOL     OW 8968   0.197   2.838  12.436
 2837SOL    HW1 8969   0.286   2.793  12.422
 2837SOL    HW2 8970   0.124   2.773  12.417
 2838SOL     OW 8971   1.525   2.861  11.362
 2838SOL    HW1 8972   1.462   2.785  11.375
 2838SOL    HW2 8973   1.573   2.879  11.448
 2839SOL     OW 8974   1.187   3.654  12.788
 2839SOL    HW1 8975   1.211   3.714  12.712
 2839SOL    HW2 8976   1.194   3.559  12.758
 2840SOL     OW 8977   0.317   2.113  12.973
 2840SOL    HW1 8978   0.388   2.184  12.979
 2840SOL    HW2 8979   0.229   2.152  13.001
 2841SOL     OW 8980   1.466   3.279  12.125
 2841SOL    HW1 8981   1.407   3.285  12.205
 2841SOL    HW2 8982   1.451   3.191  12.079
 2842SOL     OW 8983   1.667   3.576  11.744
 2842SOL    HW1 8984   1.626   3.553  11.656
 2842SOL    HW2 8985   1.649   3.502  11.809
 2843SOL     OW 8986   0.598   2.591  11.442
 2843SOL    HW1 8987   0.622   2.660  11.374
 2843SOL    HW2 8988   0.520   2.624  11.496
 2844SOL     OW 8989   1.281   2.207  12.116
 2844SOL    HW1 8990   1.195   2.157  12.103
 2844SOL    HW2 8991   1.343   2.153  12.172
 2845SOL     OW 8992   1.576   3.524  11.479
 2845SOL    HW1 8993   1.665   3.570  11.482
 2845SOL    HW2 8994   1.555   3.500  11.384
 2846SOL     OW 8995   0.807   2.467  12.637
 2846SOL    HW1 8996   0.760   2.464  12.726
 2846SOL    HW2 8997   0.756   2.412  12.571
 2847SOL     OW 8998   1.394   2.331  12.846
 2847SOL    HW1 8999   1.374   2.374  12.934
 2847SOL    HW2 9000   1.472   2.269  12.855
 2848SOL     OW 9001   0.973   2.752  12.744
 2848SOL    HW1 9002   1.019   2.668  12.715
 2848SOL    HW2 9003   0.917   2.786  12.669
 2849SOL     OW 9004   0.991   2.272  12.414
 2849SOL    HW1 9005   0.914   2.306  12.468
 2849SOL    HW2 9006   0.957   2.221  12.335
 2850SOL     OW 9007   1.041   2.563  11.601
 2850SOL    HW1 9008   1.067   2.559  11.697
 2850SOL    HW2 9009   0.956   2.512  11.587
 2851SOL     OW 9010   0.076   2.673  11.961
 2851SOL    HW1 9011   0.175   2.661  11.970
 2851SOL    HW2 9012   0.052   2.768  11.982
 2852SOL     OW 9013   0.130   3.683  12.743
 2852SOL    HW1 9014   0.120   3.668  12.842
 2852SOL    HW2 9015   0.044   3.719  12.707
 2853SOL     OW 9016   0.865   2.210  11.367
 2853SOL    HW1 9017   0.924   2.273  11.318
 2853SOL    HW2 9018   0.884   2.116  11.338
 2854SOL     OW 9019   1.719   2.447  13.003
 2854SOL    HW1 9020   1.693   2.536  12.967
 2854SOL    HW2 9021   1.717   2.379  12.930
 2855SOL     OW 9022   1.362   3.006  11.717
 2855SOL    HW1 9023   1.445   2.977  11.669
 2855SOL    HW2 9024   1.313   3.073  11.661
 2856SOL     OW 9025   0.550   2.058  12.057
 2856SOL    HW1 9026   0.545   2.053  12.157
 2856SOL    HW2 9027   0.552   2.154  12.028
 2857SOL     OW 9028   1.008   3.318  11.649
 2857SOL    HW1 9029   0.962   3.390  11.597
 2857SOL    HW2 9030   1.004   3.338  11.747
 2858SOL     OW 9031   0.351   3.663  12.025
 2858SOL    HW1 9032   0.401   3.577  12.031
 2858SOL    HW2 9033   0.416   3.740  12.022
 2859SOL     OW 9034   1.795   2.928  12.045
 2859SOL    HW1 9035   1.733   2.913  11.969
 2859SOL    HW2 9036   1.743   2.939  12.130
 2860SOL     OW 9037   1.227   3.412  12.678
 2860SOL    HW1 9038   1.233   3.335  12.742
 2860SOL    HW2 9039   1.175   3.386  12.598
 2861SOL     OW 9040   0.321   2.805  11.414
 2861SOL    HW1 9041   0.403   2.844  11.372
 2861SOL    HW2 9042   0.294   2.723  11.365
 2862SOL     OW 9043   1.458   2.597  11.900
 2862SOL    HW1 9044   1.453   2.532  11.975
 2862SOL    HW2 9045   1.538   2.656  11.913
 2863SOL     OW 9046   0.461   3.128  12.899
 2863SOL    HW1 9047   0.411   3.129  12.813
 2863SOL    HW2 9048   0.398   3.110  12.975
 2864SOL     OW 9049   1.111   3.638  11.409
 2864SOL    HW1 9050   1.051   3.576  11.459
 2864SOL    HW2 9051   1.142   3.594  11.324
 2865SOL     OW 9052   0.202   2.147  12.670
 2865SOL    HW1 9053   0.122   2.207  12.657
 2865SOL    HW2 9054   0.192   2.098  12.756
 2866SOL     OW 9055   1.632   3.239  11.253
 2866SOL    HW1 9056   1.600   3.333  11.243
 2866SOL    HW2 9057   1.556   3.176  11.241
 2867SOL     OW 9058   0.464   3.605  11.495
 2867SOL    HW1 9059   0.497   3.644  11.581
 2867SOL    HW2 9060   0.540   3.598  11.430
 2868SOL     OW 9061   1.400   1.969  11.598
 2868SOL    HW1 9062   1.376   1.932  11.508
 2868SOL    HW2 9063   1.499   1.985  11.602
 2869SOL     OW 9064   0.249   3.647  12.413
 2869SOL    HW1 9065   0.306   3.582  12.463
 2869SOL    HW2 9066   0.233   3.614  12.320
 2870SOL     OW 9067   0.940   3.560  12.076
 2870SOL    HW1 9068   1.020   3.503  12.097
 2870SOL    HW2 9069   0.891   3.520  11.999
 2871SOL     OW 9070   0.382   2.562  11.652
 2871SOL    HW1 9071   0.427   2.472  11.649
 2871SOL    HW2 9072   0.288   2.551  11.685
 2872SOL     OW 9073   1.547   2.084  12.901
 2872SOL    HW1 9074   1.542   2.121  12.993
 2872SOL    HW2 9075   1.475   2.015  12.889
 2873SOL     OW 9076   0.614   1.984  11.289
 2873SOL    HW1 9077   0.712   1.962  11.296
 2873SOL    HW2 9078   0.583   1.967  11.196
 2874SOL     OW 9079   0.781   2.126  12.921
 2874SOL    HW1 9080   0.848   2.065  12.964
 2874SOL    HW2 9081   0.708   2.145  12.986
 2875SOL     OW 9082   0.888   3.376  12.367
 2875SOL    HW1 9083   0.865   3.351  12.273
 2875SOL    HW2 9084   0.949   3.307  12.406
 2876SOL     OW 9085   1.351   2.452  12.605
 2876SOL    HW1 9086   1.379   2.409  12.690
 2876SOL    HW2 9087   1.376   2.548  12.606
 2877SOL     OW 9088   0.803   3.264  12.096
 2877SOL    HW1 9089   0.893   3.278  12.054
 2877SOL    HW2 9090   0.732   3.266  12.025
 2878SOL     OW 9091   0.922   2.365  12.071
 2878SOL    HW1 9092   0.897   2.356  11.975
 2878SOL    HW2 9093   0.970   2.283  12.102
 2879SOL     OW 9094   0.539   1.926  11.684
 2879SOL    HW1 9095   0.458   1.927  11.742
 2879SOL    HW2 9096   0.542   2.009  11.629
 2880SOL     OW 9097   1.434   3.050  11.213
 2880SOL    HW1 9098   1.466   2.974  11.270
 2880SOL    HW2 9099   1.342   3.077  11.243
 2881SOL     OW 9100   0.297   1.897  11.343
 2881SOL    HW1 9101   0.346   1.981  11.322
 2881SOL    HW2 9102   0.359   1.832  11.388
 2882SOL     OW 9103   0.935   2.098  11.652
 2882SOL    HW1 9104   0.887   2.139  11.574
 2882SOL    HW2 9105   1.034   2.096  11.633
 2883SOL     OW 9106   1.076   2.545  12.636
 2883SOL    HW1 9107   0.996   2.484  12.639
 2883SOL    HW2 9108   1.157   2.492  12.612
 2884SOL     OW 9109   1.227   3.432  11.965
 2884SOL    HW1 9110   1.248   3.506  11.900
 2884SOL    HW2 9111   1.295   3.432  12.038
 2885SOL     OW 9112   0.459   3.014  11.913
 2885SOL    HW1 9113   0.388   2.987  11.978
 2885SOL    HW2 9114   0.433   2.986  11.820
 2886SOL     OW 9115   1.271   3.659  11.763
 2886SOL    HW1 9116   1.315   3.723  11.699
 2886SOL    HW2 9117   1.221   3.711  11.833
 2887SOL     OW 9118   1.032   2.411  11.188
 2887SOL    HW1 9119   0.991   2.493  11.149
 2887SOL    HW2 9120   1.096   2.437  11.261
 2888SOL     OW 9121   0.078   2.418  12.558
 2888SOL    HW1 9122   0.170   2.417  12.517
 2888SOL    HW2 9123   0.072   2.492  12.625
 2889SOL     OW 9124   0.561   2.084  12.319
 2889SOL    HW1 9125   0.599   2.000  12.356
 2889SOL    HW2 9126   0.473   2.103  12.363
 2890SOL     OW 9127   0.866   2.316  11.814
 2890SOL    HW1 9128   0.834   2.388  11.752
 2890SOL    HW2 9129   0.890   2.235  11.761
 2891SOL     OW 9130   1.017   1.901  11.925
 2891SOL    HW1 9131   0.945   1.906  11.856
 2891SOL    HW2 9132   0.993   1.832  11.994
 2892SOL     OW 9133   1.429   3.035  12.039
 2892SOL    HW1 9134   1.374   2.951  12.032
 2892SOL    HW2 9135   1.455   3.064  11.947
 2893SOL     OW 9136   1.466   2.452  12.164
 2893SOL    HW1 9137   1.436   2.357  12.171
 2893SOL    HW2 9138   1.539   2.468  12.230
 2894SOL     OW 9139   1.857   2.695  11.549
 2894SOL    HW1 9140   1.899   2.631  11.613
 2894SOL    HW2 9141   1.819   2.644  11.471
 2895SOL     OW 9142   0.488   3.247  11.346
 2895SOL    HW1 9143   0.401   3.232  11.393
 2895SOL    HW2 9144   0.471   3.273  11.251
 2896SOL     OW 9145   1.664   3.142  11.829
 2896SOL    HW1 9146   1.763   3.150  11.843
 2896SOL    HW2 9147   1.619   3.226  11.860
 2897SOL     OW 9148   1.390   2.437  11.250
 2897SOL    HW1 9149   1.336   2.416  11.331
 2897SOL    HW2 9150   1.481   2.396  11.259
 2898SOL     OW 9151   0.527   2.118  11.500
 2898SOL    HW1 9152   0.554   2.059  11.425
 2898SOL    HW2 9153   0.527   2.213  11.469
 2899SOL     OW 9154   1.754   3.085  12.760
 2899SOL    HW1 9155   1.845   3.046  12.747
 2899SOL    HW2 9156   1.762   3.181  12.784
 2900SOL     OW 9157   1.064   3.209  12.512
 2900SOL    HW1 9158   0.984   3.186  12.567
 2900SOL    HW2 9159   1.147   3.183  12.561
 2901SOL     OW 9160   1.592   3.491  12.797
 2901SOL    HW1 9161   1.619   3.525  12.707
 2901SOL    HW2 9162   1.671   3.453  12.843
 2902SOL     OW 9163   1.111   3.057  12.272
 2902SOL    HW1 9164   1.071   3.101  12.353
 2902SOL    HW2 9165   1.070   3.094  12.189
 2903SOL     OW 9166   1.638   2.961  12.251
 2903SOL    HW1 9167   1.643   3.042  12.310
 2903SOL    HW2 9168   1.552   2.963  12.200
 2904SOL     OW 9169   0.915   1.951  12.574
 2904SOL    HW1 9170   0.940   1.931  12.479
 2904SOL    HW2 9171   0.987   2.007  12.616
 2905SOL     OW 9172   0.980   2.978  12.891
 2905SOL    HW1 9173   0.881   2.984  12.901
 2905SOL    HW2 9174   1.003   2.898  12.835
 2906SOL     OW 9175   0.705   2.912  11.540
 2906SOL    HW1 9176   0.691   2.919  11.639
 2906SOL    HW2 9177   0.789   2.861  11.522
 2907SOL     OW 9178   0.410   2.675  12.423
 2907SOL    HW1 9179   0.496   2.687  12.473
 2907SOL    HW2 9180   0.368   2.588  12.450
 2908SOL     OW 9181   1.274   2.248  12.434
 2908SOL    HW1 9182   1.295   2.322  12.498
 2908SOL    HW2 9183   1.185   2.265  12.391
 2909SOL     OW 9184   0.064   3.426  12.503
 2909SOL    HW1 9185   0.018   3.508  12.469
 2909SOL    HW2 9186   0.162   3.445  12.512
 2910SOL     OW 9187   0.367   2.962  11.673
 2910SOL    HW1 9188   0.360   3.045  11.617
 2910SOL    HW2 9189   0.371   2.882  11.613
 2911SOL     OW 9190   0.566   2.399  12.037
 2911SOL    HW1 9191   0.578   2.465  11.963
 2911SOL    HW2 9192   0.612   2.433  12.120
 2912SOL     OW 9193   1.252   3.210  11.560
 2912SOL    HW1 9194   1.302   3.287  11.600
 2912SOL    HW2 9195   1.157   3.212  11.592
 2913SOL     OW 9196   1.272   3.307  12.314
 2913SOL    HW1 9197   1.319   3.320  12.401
 2913SOL    HW2 9198   1.206   3.233  12.323
 2914SOL     OW 9199   1.582   2.501  11.644
 2914SOL    HW1 9200   1.551   2.562  11.717
 2914SOL    HW2 9201   1.632   2.553  11.575
 2915SOL     OW 9202   0.354   3.372  12.501
 2915SOL    HW1 9203   0.333   3.328  12.414
 2915SOL    HW2 9204   0.451   3.398  12.504
 2916SOL     OW 9205   0.402   2.613  12.770
 2916SOL    HW1 9206   0.470   2.668  12.723
 2916SOL    HW2 9207   0.442   2.525  12.797
 2917SOL     OW 9208   1.587   2.641  12.842
 2917SOL    HW1 9209   1.495   2.679  12.837
 2917SOL    HW2 9210   1.647   2.688  12.777
 2918SOL     OW 9211   1.013   1.967  12.942
 2918SOL    HW1 9212   1.019   2.052  12.890
 2918SOL    HW2 9213   1.045   1.891  12.885
 2919SOL     OW 9214   0.504   1.912  12.912
 2919SOL    HW1 9215   0.462   1.855  12.842
 2919SOL    HW2 9216   0.438   1.981  12.944
 2920SOL     OW 9217   0.573   2.732  12.201
 2920SOL    HW1 9218   0.617   2.821  12.192
 2920SOL    HW2 9219   0.510   2.732  12.278
 2921SOL     OW 9220   1.360   2.724  12.217
 2921SOL    HW1 9221   1.285   2.724  12.151
 2921SOL    HW2 9222   1.397   2.632  12.226
 2922SOL     OW 9223   1.209   2.387  11.447
 2922SOL    HW1 9224   1.222   2.303  11.501
 2922SOL    HW2 9225   1.180   2.461  11.507
 2923SOL     OW 9226   0.307   2.075  12.403
 2923SOL    HW1 9227   0.284   2.112  12.493
 2923SOL    HW2 9228   0.277   1.980  12.397
 2924SOL     OW 9229   0.037   3.172  12.454
 2924SOL    HW1 9230   0.090   3.123  12.522
 2924SOL    HW2 9231   0.059   3.270  12.459
 2925SOL     OW 9232   0.732   2.496  12.236
 2925SOL    HW1 9233   0.791   2.470  12.160
 2925SOL    HW2 9234   0.704   2.592  12.225
 2926SOL     OW 9235   1.728   2.797  13.026
 2926SOL    HW1 9236   1.682   2.790  12.937
 2926SOL    HW2 9237   1.666   2.841  13.092
 2927SOL     OW 9238   0.307   1.925  11.790
 2927SOL    HW1 9239   0.296   2.019  11.823
 2927SOL    HW2 9240   0.302   1.862  11.867
 2928SOL     OW 9241   1.622   2.229  11.546
 2928SOL    HW1 9242   1.624   2.153  11.610
 2928SOL    HW2 9243   1.574   2.306  11.586
 2929SOL     OW 9244   1.023   2.628  12.138
 2929SOL    HW1 9245   1.038   2.649  12.234
 2929SOL    HW2 9246   0.993   2.533  12.129
 2930SOL     OW 9247   0.980   3.435  12.872
 2930SOL    HW1 9248   0.960   3.479  12.784
 2930SOL    HW2 9249   1.019   3.344  12.856
 2931SOL     OW 9250   1.859   3.380  12.777
 2931SOL    HW1 9251   1.873   3.407  12.682
 2931SOL    HW2 9252   1.942   3.402  12.830
 2932SOL     OW 9253   0.350   2.760  12.976
 2932SOL    HW1 9254   0.426   2.804  13.024
 2932SOL    HW2 9255   0.385   2.713  12.894
 2933SOL     OW 9256   1.540   2.136  11.297
 2933SOL    HW1 9257   1.479   2.061  11.320
 2933SOL    HW2 9258   1.562   2.188  11.380
 2934SOL     OW 9259   1.303   2.700  11.214
 2934SOL    HW1 9260   1.337   2.607  11.229
 2934SOL    HW2 9261   1.321   2.727  11.119
 2935SOL     OW 9262   1.068   3.195  12.021
 2935SOL    HW1 9263   1.075   3.111  11.966
 2935SOL    HW2 9264   1.130   3.264  11.985
 2936SOL     OW 9265   0.319   2.672  12.121
 2936SOL    HW1 9266   0.412   2.708  12.126
 2936SOL    HW2 9267   0.313   2.587  12.173
 2937SOL     OW 9268   0.339   2.371  12.178
 2937SOL    HW1 9269   0.287   2.288  12.161
 2937SOL    HW2 9270   0.416   2.376  12.114
 2938SOL     OW 9271   1.138   2.242  12.850
 2938SOL    HW1 9272   1.093   2.305  12.914
 2938SOL    HW2 9273   1.231   2.273  12.833
 2939SOL     OW 9274   1.160   2.069  12.649
 2939SOL    HW1 9275   1.160   2.133  12.726
 2939SOL    HW2 9276   1.188   2.117  12.566
 2940SOL     OW 9277   0.008   3.188  11.372
 2940SOL    HW1 9278  -0.085   3.209  11.341
 2940SOL    HW2 9279   0.018   3.089  11.385
 2941SOL     OW 9280   0.088   3.663  12.099
 2941SOL    HW1 9281   0.046   3.577  12.072
 2941SOL    HW2 9282   0.182   3.666  12.065
 2942SOL     OW 9283   0.504   3.430  12.082
 2942SOL    HW1 9284   0.570   3.504  12.091
 2942SOL    HW2 9285   0.548   3.351  12.040
 2943SOL     OW 9286   1.002   2.658  12.410
 2943SOL    HW1 9287   1.043   2.626  12.496
 2943SOL    HW2 9288   0.906   2.631  12.407
 2944SOL     OW 9289   0.040   2.406  12.286
 2944SOL    HW1 9290   0.125   2.373  12.245
 2944SOL    HW2 9291   0.053   2.421  12.384
 2945SOL     OW 9292   0.189   2.382  12.894
 2945SOL    HW1 9293   0.248   2.342  12.824
 2945SOL    HW2 9294   0.131   2.453  12.853
 2946SOL     OW 9295   1.369   2.812  12.832
 2946SOL    HW1 9296   1.408   2.901  12.852
 2946SOL    HW2 9297   1.379   2.792  12.735
 2947SOL     OW 9298   0.815   2.434  11.497
 2947SOL    HW1 9299   0.822   2.345  11.451
 2947SOL    HW2 9300   0.721   2.468  11.489
 2948SOL     OW 9301   1.657   2.466  12.378
 2948SOL    HW1 9302   1.619   2.397  12.440
 2948SOL    HW2 9303   1.739   2.430  12.334
 2949SOL     OW 9304   0.252   3.426  12.916
 2949SOL    HW1 9305   0.222   3.483  12.992
 2949SOL    HW2 9306   0.245   3.329  12.942
 2950SOL     OW 9307   0.671   2.326  12.441
 2950SOL    HW1 9308   0.637   2.237  12.411
 2950SOL    HW2 9309   0.697   2.380  12.361
 2951SOL     OW 9310   0.930   3.540  12.637
 2951SOL    HW1 9311   0.906   3.522  12.542
 2951SOL    HW2 9312   0.960   3.634  12.647
 2952SOL     OW 9313   0.473   2.362  11.363
 2952SOL    HW1 9314   0.534   2.442  11.367
 2952SOL    HW2 9315   0.378   2.393  11.370
 2953SOL     OW 9316   0.159   2.999  12.638
 2953SOL    HW1 9317   0.181   2.938  12.714
 2953SOL    HW2 9318   0.169   2.950  12.552
 2954SOL     OW 9319   1.347   2.921  12.406
 2954SOL    HW1 9320   1.371   2.858  12.332
 2954SOL    HW2 9321   1.257   2.961  12.388
 2955SOL     OW 9322   1.302   2.717  11.481
 2955SOL    HW1 9323   1.216   2.686  11.523
 2955SOL    HW2 9324   1.298   2.703  11.382
 2956SOL     OW 9325   1.759   3.609  12.326
 2956SOL    HW1 9326   1.820   3.639  12.253
 2956SOL    HW2 9327   1.721   3.520  12.304
 2957SOL     OW 9328   1.252   3.593  12.300
 2957SOL    HW1 9329   1.336   3.598  12.246
 2957SOL    HW2 9330   1.229   3.497  12.318
 2958SOL     OW 9331   0.083   3.120  12.194
 2958SOL    HW1 9332   0.078   3.119  12.294
 2958SOL    HW2 9333   0.000   3.079  12.156
 2959SOL     OW 9334   0.688   3.524  12.888
 2959SOL    HW1 9335   0.632   3.605  12.897
 2959SOL    HW2 9336   0.740   3.528  12.802
 2960SOL     OW 9337   1.388   3.435  11.649
 2960SOL    HW1 9338   1.455   3.447  11.575
 2960SOL    HW2 9339   1.348   3.524  11.672
 2961SOL     OW 9340   0.130   3.656  13.023
 2961SOL    HW1 9341   0.089   3.582  13.076
 2961SOL    HW2 9342   0.194   3.707  13.081
 2962SOL     OW 9343   1.280   2.789  11.844
 2962SOL    HW1 9344   1.340   2.708  11.846
 2962SOL    HW2 9345   1.320   2.858  11.784
 2963SOL     OW 9346   0.830   3.135  12.594
 2963SOL    HW1 9347   0.825   3.168  12.689
 2963SOL    HW2 9348   0.744   3.154  12.548
 2964SOL     OW 9349   0.672   3.478  11.326
 2964SOL    HW1 9350   0.681   3.488  11.227
 2964SOL    HW2 9351   0.632   3.389  11.347
 2965SOL     OW 9352   1.650   3.582  12.566
 2965SOL    HW1 9353   1.703   3.592  12.482
 2965SOL    HW2 9354   1.623   3.672  12.600
 2966SOL     OW 9355   0.263   2.188  11.892
 2966SOL    HW1 9356   0.184   2.239  11.858
 2966SOL    HW2 9357   0.254   2.173  11.990
 2967SOL     OW 9358   1.194   3.474  11.203
 2967SOL    HW1 9359   1.200   3.381  11.240
 2967SOL    HW2 9360   1.135   3.474  11.123
 2968SOL     OW 9361   0.822   2.864  12.544
 2968SOL    HW1 9362   0.862   2.863  12.452
 2968SOL    HW2 9363   0.832   2.956  12.584
 2969SOL     OW 9364   0.916   2.772  11.463
 2969SOL    HW1 9365   0.979   2.810  11.395
 2969SOL    HW2 9366   0.956   2.689  11.502
 2970SOL     OW 9367   1.504   3.469  11.216
 2970SOL    HW1 9368   1.412   3.506  11.223
 2970SOL    HW2 9369   1.542   3.489  11.126
 2971SOL     OW 9370   0.372   3.150  12.662
 2971SOL    HW1 9371   0.359   3.243  12.628
 2971SOL    HW2 9372   0.288   3.098  12.649
 2972SOL     OW 9373   1.614   3.154  12.461
 2972SOL    HW1 9374   1.674   3.157  12.541
 2972SOL    HW2 9375   1.539   3.218  12.474
 2973SOL     OW 9376   1.039   2.960  11.868
 2973SOL    HW1 9377   0.969   2.913  11.922
 2973SOL    HW2 9378   1.098   2.892  11.825
 2974SOL     OW 9379   1.014   2.098  12.143
 2974SOL    HW1 9380   1.006   2.062  12.050
 2974SOL    HW2 9381   1.012   2.022  12.208
 2975SOL     OW 9382   0.590   3.349  11.663
 2975SOL    HW1 9383   0.632   3.291  11.593
 2975SOL    HW2 9384   0.546   3.428  11.619
 2976SOL     OW 9385   1.709   2.247  12.553
 2976SOL    HW1 9386   1.782   2.316  12.557
 2976SOL    HW2 9387   1.737   2.172  12.494
 2977SOL     OW 9388   0.255   3.210  11.462
 2977SOL    HW1 9389   0.159   3.211  11.435
 2977SOL    HW2 9390   0.267   3.263  11.546
 2978SOL     OW 9391   0.105   2.875  12.898
 2978SOL    HW1 9392   0.028   2.842  12.952
 2978SOL    HW2 9393   0.190   2.845  12.940
 2979SOL     OW 9394   0.672   2.065  12.661
 2979SOL    HW1 9395   0.762   2.049  12.621
 2979SOL    HW2 9396   0.680   2.070  12.760
 2980SOL     OW 9397   0.075   2.207  11.205
 2980SOL    HW1 9398  -0.017   2.179  11.176
 2980SOL    HW2 9399   0.106   2.284  11.149
 2981SOL     OW 9400   1.440   2.718  12.570
 2981SOL    HW1 9401   1.383   2.770  12.507
 2981SOL    HW2 9402   1.536   2.730  12.546
 2982SOL     OW 9403   0.072   2.028  11.490
 2982SOL    HW1 9404   0.055   2.111  11.436
 2982SOL    HW2 9405   0.162   1.991  11.468
 2983SOL     OW 9406   1.183   3.197  11.291
 2983SOL    HW1 9407   1.084   3.186  11.293
 2983SOL    HW2 9408   1.217   3.212  11.384
 2984SOL     OW 9409   0.613   2.704  12.603
 2984SOL    HW1 9410   0.669   2.785  12.586
 2984SOL    HW2 9411   0.672   2.624  12.606
 2985SOL     OW 9412   1.493   3.629  12.131
 2985SOL    HW1 9413   1.526   3.693  12.062
 2985SOL    HW2 9414   1.559   3.623  12.206
 2986SOL     OW 9415   0.716   2.427  12.880
 2986SOL    HW1 9416   0.735   2.492  12.954
 2986SOL    HW2 9417   0.776   2.347  12.889
 2987SOL     OW 9418   1.450   3.082  12.805
 2987SOL    HW1 9419   1.441   3.072  12.904
 2987SOL    HW2 9420   1.546   3.075  12.779
 2988SOL     OW 9421   0.390   3.603  12.732
 2988SOL    HW1 9422   0.299   3.644  12.730
 2988SOL    HW2 9423   0.383   3.509  12.764
 2989SOL     OW 9424   1.674   2.745  12.426
 2989SOL    HW1 9425   1.647   2.656  12.389
 2989SOL    HW2 9426   1.675   2.813  12.353
 2990SOL     OW 9427   1.225   2.187  11.621
 2990SOL    HW1 9428   1.290   2.113  11.610
 2990SOL    HW2 9429   1.245   2.237  11.705
 2991SOL     OW 9430   0.594   2.607  11.824
 2991SOL    HW1 9431   0.644   2.692  11.805
 2991SOL    HW2 9432   0.506   2.609  11.776
 2992SOL     OW 9433   1.777   2.204  12.814
 2992SOL    HW1 9434   1.760   2.235  12.720
 2992SOL    HW2 9435   1.693   2.167  12.852
 2993SOL     OW 9436   1.730   2.796  12.689
 2993SOL    HW1 9437   1.768   2.887  12.704
 2993SOL    HW2 9438   1.722   2.779  12.590
 2994SOL     OW 9439   0.859   3.236  11.188
 2994SOL    HW1 9440   0.813   3.251  11.276
 2994SOL    HW2 9441   0.903   3.321  11.158
 2995SOL     OW 9442   0.661   3.652  12.125
 2995SOL    HW1 9443   0.615   3.740  12.112
 2995SOL    HW2 9444   0.760   3.664  12.118
 2996SOL     OW 9445   0.859   2.818  12.033
 2996SOL    HW1 9446   0.913   2.749  12.081
 2996SOL    HW2 9447   0.827   2.887  12.099
 2997SOL     OW 9448   1.083   2.846  11.259
 2997SOL    HW1 9449   1.060   2.899  11.177
 2997SOL    HW2 9450   1.164   2.790  11.240
 2998SOL     OW 9451   1.861   3.431  12.023
 2998SOL    HW1 9452   1.790   3.419  11.953
 2998SOL    HW2 9453   1.862   3.352  12.083
 2999SOL     OW 9454   0.221   3.176  13.016
 2999SOL    HW1 9455   0.156   3.103  12.995
 2999SOL    HW2 9456   0.225   3.190  13.114
 3000SOL     OW 9457   0.079   3.102  11.825
 3000SOL    HW1 9458   0.078   3.055  11.913
 3000SOL    HW2 9459   0.161   3.074  11.774
 3001SOL     OW 9460   0.672   3.253  12.796
 3001SOL    HW1 9461   0.594   3.203  12.834
 3001SOL    HW2 9462   0.669   3.348  12.827
 3002SOL     OW 9463   0.428   2.286  11.692
 3002SOL    HW1 9464   0.458   2.214  11.630
 3002SOL    HW2 9465   0.389   2.246  11.775
 3003SOL     OW 9466   1.705   3.349  12.276
 3003SOL    HW1 9467   1.612   3.324  12.249
 3003SOL    HW2 9468   1.731   3.299  12.358
 3004SOL     OW 9469   0.317   2.409  12.452
 3004SOL    HW1 9470   0.355   2.350  12.524
 3004SOL    HW2 9471   0.357   2.383  12.364
 3005SOL     OW 9472   0.812   3.448  11.859
 3005SOL    HW1 9473   0.844   3.458  11.765
 3005SOL    HW2 9474   0.733   3.386  11.861
 3006SOL     OW 9475   1.424   2.076  12.284
 3006SOL    HW1 9476   1.476   2.011  12.339
 3006SOL    HW2 9477   1.375   2.139  12.345
 3007SOL     OW 9478   1.001   1.896  12.326
 3007SOL    HW1 9479   0.938   1.824  12.295
 3007SOL    HW2 9480   1.094   1.860  12.326
 3008SOL     OW 9481   0.770   3.192  11.473
 3008SOL    HW1 9482   0.724   3.105  11.490
 3008SOL    HW2 9483   0.861   3.189  11.514
 3009SOL     OW 9484   0.618   3.429  12.456
 3009SOL    HW1 9485   0.613   3.511  12.513
 3009SOL    HW2 9486   0.707   3.426  12.411
 3010SOL     OW 9487   1.352   1.914  11.340
 3010SOL    HW1 9488   1.387   1.873  11.256
 3010SOL    HW2 9489   1.262   1.876  11.360
 3011SOL     OW 9490   1.300   2.315  11.863
 3011SOL    HW1 9491   1.241   2.395  11.867
 3011SOL    HW2 9492   1.315   2.280  11.956
 3012SOL     OW 9493   1.593   2.083  12.054
 3012SOL    HW1 9494   1.509   2.082  12.108
 3012SOL    HW2 9495   1.595   2.166  11.998
 3013SOL     OW 9496   0.039   2.939  11.472
 3013SOL    HW1 9497   0.138   2.928  11.463
 3013SOL    HW2 9498  -0.001   2.853  11.504
 3014SOL     OW 9499   0.875   3.508  11.509
 3014SOL    HW1 9500   0.798   3.473  11.455
 3014SOL    HW2 9501   0.843   3.579  11.571
 3015SOL     OW 9502   0.230   2.490  13.147
 3015SOL    HW1 9503   0.137   2.488  13.184
 3015SOL    HW2 9504   0.231   2.451  13.055
 3016SOL     OW 9505   0.225   2.137  14.030
 3016SOL    HW1 9506   0.260   2.120  14.122
 3016SOL    HW2 9507   0.137   2.092  14.018
 3017SOL     OW 9508   0.019   2.230  13.681
 3017SOL    HW1 9509  -0.063   2.273  13.720
 3017SOL    HW2 9510  -0.009   2.157  13.618
 3018SOL     OW 9511   1.555   3.373  13.737
 3018SOL    HW1 9512   1.498   3.357  13.818
 3018SOL    HW2 9513   1.496   3.383  13.657
 3019SOL     OW 9514   1.135   2.565  13.751
 3019SOL    HW1 9515   1.192   2.643  13.726
 3019SOL    HW2 9516   1.075   2.591  13.827
 3020SOL     OW 9517   1.755   2.469  13.265
 3020SOL    HW1 9518   1.743   2.456  13.166
 3020SOL    HW2 9519   1.725   2.388  13.314
 3021SOL     OW 9520   0.685   2.874  13.699
 3021SOL    HW1 9521   0.754   2.858  13.769
 3021SOL    HW2 9522   0.612   2.931  13.737
 3022SOL     OW 9523   1.603   2.309  13.771
 3022SOL    HW1 9524   1.529   2.355  13.721
 3022SOL    HW2 9525   1.654   2.377  13.824
 3023SOL     OW 9526   0.231   3.575  13.517
 3023SOL    HW1 9527   0.265   3.652  13.571
 3023SOL    HW2 9528   0.275   3.575  13.427
 3024SOL     OW 9529   0.230   3.296  13.572
 3024SOL    HW1 9530   0.204   3.392  13.572
 3024SOL    HW2 9531   0.159   3.242  13.617
 3025SOL     OW 9532   0.240   2.953  13.920
 3025SOL    HW1 9533   0.254   2.869  13.972
 3025SOL    HW2 9534   0.185   3.017  13.975
 3026SOL     OW 9535   0.606   2.826  13.157
 3026SOL    HW1 9536   0.613   2.910  13.103
 3026SOL    HW2 9537   0.652   2.839  13.245
 3027SOL     OW 9538   0.122   2.505  13.597
 3027SOL    HW1 9539   0.077   2.417  13.614
 3027SOL    HW2 9540   0.121   2.559  13.681
 3028SOL     OW 9541   1.842   3.629  13.393
 3028SOL    HW1 9542   1.896   3.600  13.473
 3028SOL    HW2 9543   1.872   3.719  13.364
 3029SOL     OW 9544   0.027   3.458  13.151
 3029SOL    HW1 9545   0.008   3.362  13.172
 3029SOL    HW2 9546  -0.006   3.516  13.226
 3030SOL     OW 9547   1.689   2.784  13.646
 3030SOL    HW1 9548   1.784   2.755  13.654
 3030SOL    HW2 9549   1.681   2.849  13.571
 3031SOL     OW 9550   1.641   2.970  13.466
 3031SOL    HW1 9551   1.727   2.972  13.414
 3031SOL    HW2 9552   1.655   3.017  13.554
 3032SOL     OW 9553   0.613   3.227  13.760
 3032SOL    HW1 9554   0.564   3.140  13.769
 3032SOL    HW2 9555   0.590   3.270  13.673
 3033SOL     OW 9556   0.809   1.866  13.536
 3033SOL    HW1 9557   0.849   1.957  13.527
 3033SOL    HW2 9558   0.709   1.874  13.542
 3034SOL     OW 9559   1.525   2.861  13.224
 3034SOL    HW1 9560   1.462   2.785  13.237
 3034SOL    HW2 9561   1.573   2.879  13.310
 3035SOL     OW 9562   1.667   3.576  13.606
 3035SOL    HW1 9563   1.626   3.553  13.518
 3035SOL    HW2 9564   1.649   3.502  13.671
 3036SOL     OW 9565   0.598   2.591  13.304
 3036SOL    HW1 9566   0.622   2.660  13.236
 3036SOL    HW2 9567   0.520   2.624  13.358
 3037SOL     OW 9568   1.281   2.207  13.978
 3037SOL    HW1 9569   1.195   2.157  13.965
 3037SOL    HW2 9570   1.343   2.153  14.034
 3038SOL     OW 9571   1.576   3.524  13.341
 3038SOL    HW1 9572   1.665   3.570  13.344
 3038SOL    HW2 9573   1.555   3.500  13.246
 3039SOL     OW 9574   1.041   2.563  13.463
 3039SOL    HW1 9575   1.067   2.559  13.559
 3039SOL    HW2 9576   0.956   2.512  13.449
 3040SOL     OW 9577   0.076   2.673  13.823
 3040SOL    HW1 9578   0.175   2.661  13.832
 3040SOL    HW2 9579   0.052   2.768  13.844
 3041SOL     OW 9580   0.865   2.210  13.229
 3041SOL    HW1 9581   0.924   2.273  13.180
 3041SOL    HW2 9582   0.884   2.116  13.200
 3042SOL     OW 9583   1.362   3.006  13.579
 3042SOL    HW1 9584   1.445   2.977  13.531
 3042SOL    HW2 9585   1.313   3.073  13.523
 3043SOL     OW 9586   1.008   3.318  13.511
 3043SOL    HW1 9587   0.962   3.390  13.459
 3043SOL    HW2 9588   1.004   3.338  13.609
 3044SOL     OW 9589   0.351   3.663  13.887
 3044SOL    HW1 9590   0.401   3.577  13.893
 3044SOL    HW2 9591   0.416   3.740  13.884
 3045SOL     OW 9592   1.795   2.928  13.907
 3045SOL    HW1 9593   1.733   2.913  13.831
 3045SOL    HW2 9594   1.743   2.939  13.992
 3046SOL     OW 9595   0.321   2.805  13.276
 3046SOL    HW1 9596   0.403   2.844  13.234
 3046SOL    HW2 9597   0.294   2.723  13.227
 3047SOL     OW 9598   1.458   2.597  13.762
 3047SOL    HW1 9599   1.453   2.532  13.837
 3047SOL    HW2 9600   1.538   2.656  13.775
 3048SOL     OW 9601   1.111   3.638  13.271
 3048SOL    HW1 9602   1.051   3.576  13.321
 3048SOL    HW2 9603   1.142   3.594  13.186
 3049SOL     OW 9604   1.632   3.239  13.115
 3049SOL    HW1 9605   1.600   3.333  13.105
 3049SOL    HW2 9606   1.556   3.176  13.103
 3050SOL     OW 9607   0.464   3.605  13.357
 3050SOL    HW1 9608   0.497   3.644  13.443
 3050SOL    HW2 9609   0.540   3.598  13.292
 3051SOL     OW 9610   1.400   1.969  13.460
 3051SOL    HW1 9611   1.376   1.932  13.370
 3051SOL    HW2 9612   1.499   1.985  13.464
 3052SOL     OW 9613   0.940   3.560  13.938
 3052SOL    HW1 9614   1.020   3.503  13.959
 3052SOL    HW2 9615   0.891   3.520  13.861
 3053SOL     OW 9616   0.382   2.562  13.514
 3053SOL    HW1 9617   0.427   2.472  13.511
 3053SOL    HW2 9618   0.288   2.551  13.547
 3054SOL     OW 9619   0.614   1.984  13.151
 3054SOL    HW1 9620   0.712   1.962  13.158
 3054SOL    HW2 9621   0.583   1.967  13.058
 3055SOL     OW 9622   0.539   1.926  13.546
 3055SOL    HW1 9623   0.458   1.927  13.604
 3055SOL    HW2 9624   0.542   2.009  13.491
 3056SOL     OW 9625   1.434   3.050  13.075
 3056SOL    HW1 9626   1.466   2.974  13.132
 3056SOL    HW2 9627   1.342   3.077  13.105
 3057SOL     OW 9628   0.297   1.897  13.205
 3057SOL    HW1 9629   0.346   1.981  13.184
 3057SOL    HW2 9630   0.359   1.832  13.250
 3058SOL     OW 9631   0.935   2.098  13.514
 3058SOL    HW1 9632   0.887   2.139  13.436
 3058SOL    HW2 9633   1.034   2.096  13.495
 3059SOL     OW 9634   0.459   3.014  13.775
 3059SOL    HW1 9635   0.388   2.987  13.840
 3059SOL    HW2 9636   0.433   2.986  13.682
 3060SOL     OW 9637   1.271   3.659  13.625
 3060SOL    HW1 9638   1.315   3.723  13.561
 3060SOL    HW2 9639   1.221   3.711  13.695
 3061SOL     OW 9640   1.032   2.411  13.050
 3061SOL    HW1 9641   0.991   2.493  13.011
 3061SOL    HW2 9642   1.096   2.437  13.123
 3062SOL     OW 9643   0.866   2.316  13.676
 3062SOL    HW1 9644   0.834   2.388  13.614
 3062SOL    HW2 9645   0.890   2.235  13.623
 3063SOL     OW 9646   1.017   1.901  13.787
 3063SOL    HW1 9647   0.945   1.906  13.718
 3063SOL    HW2 9648   0.993   1.832  13.856
 3064SOL     OW 9649   1.857   2.695  13.411
 3064SOL    HW1 9650   1.899   2.631  13.475
 3064SOL    HW2 9651   1.819   2.644  13.333
 3065SOL     OW 9652   0.488   3.247  13.208
 3065SOL    HW1 9653   0.401   3.232  13.255
 3065SOL    HW2 9654   0.471   3.273  13.113
 3066SOL     OW 9655   1.664   3.142  13.691
 3066SOL    HW1 9656   1.763   3.150  13.705
 3066SOL    HW2 9657   1.619   3.226  13.722
 3067SOL     OW 9658   1.390   2.437  13.112
 3067SOL    HW1 9659   1.336   2.416  13.193
 3067SOL    HW2 9660   1.481   2.396  13.121
 3068SOL     OW 9661   0.527   2.118  13.362
 3068SOL    HW1 9662   0.554   2.059  13.287
 3068SOL    HW2 9663   0.527   2.213  13.331
 3069SOL     OW 9664   0.705   2.912  13.402
 3069SOL    HW1 9665   0.691   2.919  13.501
 3069SOL    HW2 9666   0.789   2.861  13.384
 3070SOL     OW 9667   0.367   2.962  13.535
 3070SOL    HW1 9668   0.360   3.045  13.479
 3070SOL    HW2 9669   0.371   2.882  13.475
 3071SOL     OW 9670   0.566   2.399  13.899
 3071SOL    HW1 9671   0.578   2.465  13.825
 3071SOL    HW2 9672   0.612   2.433  13.982
 3072SOL     OW 9673   1.252   3.210  13.422
 3072SOL    HW1 9674   1.302   3.287  13.462
 3072SOL    HW2 9675   1.157   3.212  13.454
 3073SOL     OW 9676   1.582   2.501  13.506
 3073SOL    HW1 9677   1.551   2.562  13.579
 3073SOL    HW2 9678   1.632   2.553  13.437
 3074SOL     OW 9679   1.209   2.387  13.309
 3074SOL    HW1 9680   1.222   2.303  13.363
 3074SOL    HW2 9681   1.180   2.461  13.369
 3075SOL     OW 9682   0.307   1.925  13.652
 3075SOL    HW1 9683   0.296   2.019  13.685
 3075SOL    HW2 9684   0.302   1.862  13.729
 3076SOL     OW 9685   1.622   2.229  13.408
 3076SOL    HW1 9686   1.624   2.153  13.472
 3076SOL    HW2 9687   1.574   2.306  13.448
 3077SOL     OW 9688   1.540   2.136  13.159
 3077SOL    HW1 9689   1.479   2.061  13.182
 3077SOL    HW2 9690   1.562   2.188  13.242
 3078SOL     OW 9691   1.303   2.700  13.076
 3078SOL    HW1 9692   1.337   2.607  13.091
 3078SOL    HW2 9693   1.321   2.727  12.981
 3079SOL     OW 9694   0.008   3.188  13.234
 3079SOL    HW1 9695  -0.085   3.209  13.203
 3079SOL    HW2 9696   0.018   3.089  13.247
 3080SOL     OW 9697   0.815   2.434  13.359
 3080SOL    HW1 9698   0.822   2.345  13.313
 3080SOL    HW2 9699   0.721   2.468  13.351
 3081SOL     OW 9700   0.473   2.362  13.225
 3081SOL    HW1 9701   0.534   2.442  13.229
 3081SOL    HW2 9702   0.378   2.393  13.232
 3082SOL     OW 9703   1.302   2.717  13.343
 3082SOL    HW1 9704   1.216   2.686  13.385
 3082SOL    HW2 9705   1.298   2.703  13.244
 3083SOL     OW 9706   1.388   3.435  13.511
 3083SOL    HW1 9707   1.455   3.447  13.437
 3083SOL    HW2 9708   1.348   3.524  13.534
 3084SOL     OW 9709   1.280   2.789  13.706
 3084SOL    HW1 9710   1.340   2.708  13.708
 3084SOL    HW2 9711   1.320   2.858  13.646
 3085SOL     OW 9712   0.672   3.478  13.188
 3085SOL    HW1 9713   0.681   3.488  13.089
 3085SOL    HW2 9714   0.632   3.389  13.209
 3086SOL     OW 9715   0.263   2.188  13.754
 3086SOL    HW1 9716   0.184   2.239  13.720
 3086SOL    HW2 9717   0.254   2.173  13.852
 3087SOL     OW 9718   1.194   3.474  13.065
 3087SOL    HW1 9719   1.200   3.381  13.102
 3087SOL    HW2 9720   1.135   3.474  12.985
 3088SOL     OW 9721   0.916   2.772  13.325
 3088SOL    HW1 9722   0.979   2.810  13.257
 3088SOL    HW2 9723   0.956   2.689  13.364
 3089SOL     OW 9724   1.504   3.469  13.078
 3089SOL    HW1 9725   1.412   3.506  13.085
 3089SOL    HW2 9726   1.542   3.489  12.988
 3090SOL     OW 9727   1.039   2.960  13.730
 3090SOL    HW1 9728   0.969   2.913  13.784
 3090SOL    HW2 9729   1.098   2.892  13.687
 3091SOL     OW 9730   0.590   3.349  13.525
 3091SOL    HW1 9731   0.632   3.291  13.455
 3091SOL    HW2 9732   0.546   3.428  13.481
 3092SOL     OW 9733   0.255   3.210  13.324
 3092SOL    HW1 9734   0.159   3.211  13.297
 3092SOL    HW2 9735   0.267   3.263  13.408
 3093SOL     OW 9736   0.075   2.207  13.067
 3093SOL    HW1 9737  -0.017   2.179  13.038
 3093SOL    HW2 9738   0.106   2.284  13.011
 3094SOL     OW 9739   0.072   2.028  13.352
 3094SOL    HW1 9740   0.055   2.111  13.298
 3094SOL    HW2 9741   0.162   1.991  13.330
 3095SOL     OW 9742   1.183   3.197  13.153
 3095SOL    HW1 9743   1.084   3.186  13.155
 3095SOL    HW2 9744   1.217   3.212  13.246
 3096SOL     OW 9745   1.225   2.187  13.483
 3096SOL    HW1 9746   1.290   2.113  13.472
 3096SOL    HW2 9747   1.245   2.237  13.567
 3097SOL     OW 9748   0.594   2.607  13.686
 3097SOL    HW1 9749   0.644   2.692  13.667
 3097SOL    HW2 9750   0.506   2.609  13.638
 3098SOL     OW 9751   0.859   3.236  13.050
 3098SOL    HW1 9752   0.813   3.251  13.138
 3098SOL    HW2 9753   0.903   3.321  13.020
 3099SOL     OW 9754   0.661   3.652  13.987
 3099SOL    HW1 9755   0.615   3.740  13.974
 3099SOL    HW2 9756   0.760   3.664  13.980
 3100SOL     OW 9757   0.859   2.818  13.895
 3100SOL    HW1 9758   0.913   2.749  13.943
 3100SOL    HW2 9759   0.827   2.887  13.961
 3101SOL     OW 9760   1.083   2.846  13.121
 3101SOL    HW1 9761   1.060   2.899  13.039
 3101SOL    HW2 9762   1.164   2.790  13.102
 3102SOL     OW 9763   0.079   3.102  13.687
 3102SOL    HW1 9764   0.078   3.055  13.775
 3102SOL    HW2 9765   0.161   3.074  13.636
 3103SOL     OW 9766   0.428   2.286  13.554
 3103SOL    HW1 9767   0.458   2.214  13.492
 3103SOL    HW2 9768   0.389   2.246  13.637
 3104SOL     OW 9769   1.705   3.349  14.138
 3104SOL    HW1 9770   1.612   3.324  14.111
 3104SOL    HW2 9771   1.731   3.299  14.220
 3105SOL     OW 9772   0.812   3.448  13.721
 3105SOL    HW1 9773   0.844   3.458  13.627
 3105SOL    HW2 9774   0.733   3.386  13.723
 3106SOL     OW 9775   0.770   3.192  13.335
 3106SOL    HW1 9776   0.724   3.105  13.352
 3106SOL    HW2 9777   0.861   3.189  13.376
 3107SOL     OW 9778   1.352   1.914  13.202
 3107SOL    HW1 9779   1.387   1.873  13.118
 3107SOL    HW2 9780   1.262   1.876  13.222
 3108SOL     OW 9781   1.300   2.315  13.725
 3108SOL    HW1 9782   1.241   2.395  13.729
 3108SOL    HW2 9783   1.315   2.280  13.818
 3109SOL     OW 9784   0.039   2.939  13.334
 3109SOL    HW1 9785   0.138   2.928  13.325
 3109SOL    HW2 9786  -0.001   2.853  13.366
 3110SOL     OW 9787   0.875   3.508  13.371
 3110SOL    HW1 9788   0.798   3.473  13.317
 3110SOL    HW2 9789   0.843   3.579  13.433
 3111SOL     OW 9790   0.225   3.999   0.996
 3111SOL    HW1 9791   0.260   3.982   1.088
 3111SOL    HW2 9792   0.137   3.954   0.984
 3112SOL     OW 9793   0.019   4.092   0.647
 3112SOL    HW1 9794  -0.063   4.135   0.686
 3112SOL    HW2 9795  -0.009   4.019   0.584
 3113SOL     OW 9796   1.755   4.331   0.231
 3113SOL    HW1 9797   1.743   4.318   0.132
 3113SOL    HW2 9798   1.725   4.250   0.280
 3114SOL     OW 9799   0.438   4.116   1.499
 3114SOL    HW1 9800   0.520   4.060   1.508
 3114SOL    HW2 9801   0.357   4.058   1.503
 3115SOL     OW 9802   1.594   3.838   1.480
 3115SOL    HW1 9803   1.576   3.905   1.408
 3115SOL    HW2 9804   1.591   3.884   1.569
 3116SOL     OW 9805   0.809   3.728   0.502
 3116SOL    HW1 9806   0.849   3.819   0.493
 3116SOL    HW2 9807   0.709   3.736   0.508
 3117SOL     OW 9808   1.281   4.069   0.944
 3117SOL    HW1 9809   1.195   4.019   0.931
 3117SOL    HW2 9810   1.343   4.015   1.000
 3118SOL     OW 9811   0.550   3.920   0.885
 3118SOL    HW1 9812   0.545   3.915   0.985
 3118SOL    HW2 9813   0.552   4.016   0.856
 3119SOL     OW 9814   0.202   4.009   1.498
 3119SOL    HW1 9815   0.122   4.069   1.485
 3119SOL    HW2 9816   0.192   3.960   1.584
 3120SOL     OW 9817   1.400   3.831   0.426
 3120SOL    HW1 9818   1.376   3.794   0.336
 3120SOL    HW2 9819   1.499   3.847   0.430
 3121SOL     OW 9820   1.547   3.946   1.729
 3121SOL    HW1 9821   1.542   3.983   1.821
 3121SOL    HW2 9822   1.475   3.877   1.717
 3122SOL     OW 9823   0.781   3.988   1.749
 3122SOL    HW1 9824   0.848   3.927   1.792
 3122SOL    HW2 9825   0.708   4.007   1.814
 3123SOL     OW 9826   0.539   3.788   0.512
 3123SOL    HW1 9827   0.458   3.789   0.570
 3123SOL    HW2 9828   0.542   3.871   0.457
 3124SOL     OW 9829   0.297   3.759   0.171
 3124SOL    HW1 9830   0.346   3.843   0.150
 3124SOL    HW2 9831   0.359   3.694   0.216
 3125SOL     OW 9832   0.561   3.946   1.147
 3125SOL    HW1 9833   0.599   3.862   1.184
 3125SOL    HW2 9834   0.473   3.965   1.191
 3126SOL     OW 9835   1.017   3.763   0.753
 3126SOL    HW1 9836   0.945   3.768   0.684
 3126SOL    HW2 9837   0.993   3.694   0.822
 3127SOL     OW 9838   0.915   3.813   1.402
 3127SOL    HW1 9839   0.940   3.793   1.307
 3127SOL    HW2 9840   0.987   3.869   1.444
 3128SOL     OW 9841   1.274   4.110   1.262
 3128SOL    HW1 9842   1.295   4.184   1.326
 3128SOL    HW2 9843   1.185   4.127   1.219
 3129SOL     OW 9844   0.504   3.774   1.740
 3129SOL    HW1 9845   0.462   3.717   1.670
 3129SOL    HW2 9846   0.438   3.843   1.772
 3130SOL     OW 9847   0.307   3.937   1.231
 3130SOL    HW1 9848   0.284   3.974   1.321
 3130SOL    HW2 9849   0.277   3.842   1.225
 3131SOL     OW 9850   1.540   3.998   0.125
 3131SOL    HW1 9851   1.479   3.923   0.148
 3131SOL    HW2 9852   1.562   4.050   0.208
 3132SOL     OW 9853   1.160   3.931   1.477
 3132SOL    HW1 9854   1.160   3.995   1.554
 3132SOL    HW2 9855   1.188   3.979   1.394
 3133SOL     OW 9856   0.903   3.810   0.133
 3133SOL    HW1 9857   0.954   3.811   0.047
 3133SOL    HW2 9858   0.959   3.768   0.204
 3134SOL     OW 9859   1.726   3.859   0.523
 3134SOL    HW1 9860   1.799   3.842   0.456
 3134SOL    HW2 9861   1.695   3.772   0.561
 3135SOL     OW 9862   1.841   3.899   0.963
 3135SOL    HW1 9863   1.880   3.814   0.927
 3135SOL    HW2 9864   1.743   3.901   0.944
 3136SOL     OW 9865   0.672   3.927   1.489
 3136SOL    HW1 9866   0.762   3.911   1.449
 3136SOL    HW2 9867   0.680   3.932   1.588
 3137SOL     OW 9868   0.075   4.069   0.033
 3137SOL    HW1 9869  -0.017   4.041   0.004
 3137SOL    HW2 9870   0.106   4.146  -0.023
 3138SOL     OW 9871   0.072   3.890   0.318
 3138SOL    HW1 9872   0.055   3.973   0.264
 3138SOL    HW2 9873   0.162   3.853   0.296
 3139SOL     OW 9874   1.225   4.049   0.449
 3139SOL    HW1 9875   1.290   3.975   0.438
 3139SOL    HW2 9876   1.245   4.099   0.533
 3140SOL     OW 9877   1.777   4.066   1.642
 3140SOL    HW1 9878   1.760   4.097   1.548
 3140SOL    HW2 9879   1.693   4.029   1.680
 3141SOL     OW 9880   1.824   3.916   1.227
 3141SOL    HW1 9881   1.820   3.826   1.271
 3141SOL    HW2 9882   1.827   3.905   1.128
 3142SOL     OW 9883   1.424   3.938   1.112
 3142SOL    HW1 9884   1.476   3.873   1.167
 3142SOL    HW2 9885   1.375   4.001   1.173
 3143SOL     OW 9886   1.001   3.758   1.154
 3143SOL    HW1 9887   0.938   3.686   1.123
 3143SOL    HW2 9888   1.094   3.722   1.154
 3144SOL     OW 9889   1.352   3.776   0.168
 3144SOL    HW1 9890   1.387   3.735   0.084
 3144SOL    HW2 9891   1.262   3.738   0.188
 3145SOL     OW 9892   1.300   4.177   0.691
 3145SOL    HW1 9893   1.241   4.257   0.695
 3145SOL    HW2 9894   1.315   4.142   0.784
 3146SOL     OW 9895   1.593   3.945   0.882
 3146SOL    HW1 9896   1.509   3.944   0.936
 3146SOL    HW2 9897   1.595   4.028   0.826
 3147SOL     OW 9898   0.225   3.999   2.858
 3147SOL    HW1 9899   0.260   3.982   2.950
 3147SOL    HW2 9900   0.137   3.954   2.846
 3148SOL     OW 9901   0.019   4.092   2.509
 3148SOL    HW1 9902  -0.063   4.135   2.548
 3148SOL    HW2 9903  -0.009   4.019   2.446
 3149SOL     OW 9904   1.755   4.331   2.093
 3149SOL    HW1 9905   1.743   4.318   1.994
 3149SOL    HW2 9906   1.725   4.250   2.142
 3150SOL     OW 9907   0.438   4.116   3.361
 3150SOL    HW1 9908   0.520   4.060   3.370
 3150SOL    HW2 9909   0.357   4.058   3.365
 3151SOL     OW 9910   1.594   3.838   3.342
 3151SOL    HW1 9911   1.576   3.905   3.270
 3151SOL    HW2 9912   1.591   3.884   3.431
 3152SOL     OW 9913   0.809   3.728   2.364
 3152SOL    HW1 9914   0.849   3.819   2.355
 3152SOL    HW2 9915   0.709   3.736   2.370
 3153SOL     OW 9916   1.281   4.069   2.806
 3153SOL    HW1 9917   1.195   4.019   2.793
 3153SOL    HW2 9918   1.343   4.015   2.862
 3154SOL     OW 9919   0.550   3.920   2.747
 3154SOL    HW1 9920   0.545   3.915   2.847
 3154SOL    HW2 9921   0.552   4.016   2.718
 3155SOL     OW 9922   0.202   4.009   3.360
 3155SOL    HW1 9923   0.122   4.069   3.347
 3155SOL    HW2 9924   0.192   3.960   3.446
 3156SOL     OW 9925   1.400   3.831   2.288
 3156SOL    HW1 9926   1.376   3.794   2.198
 3156SOL    HW2 9927   1.499   3.847   2.292
 3157SOL     OW 9928   1.547   3.946   3.591
 3157SOL    HW1 9929   1.542   3.983   3.683
 3157SOL    HW2 9930   1.475   3.877   3.579
 3158SOL     OW 9931   0.614   3.846   1.979
 3158SOL    HW1 9932   0.712   3.824   1.986
 3158SOL    HW2 9933   0.583   3.829   1.886
 3159SOL     OW 9934   0.781   3.988   3.611
 3159SOL    HW1 9935   0.848   3.927   3.654
 3159SOL    HW2 9936   0.708   4.007   3.676
 3160SOL     OW 9937   0.539   3.788   2.374
 3160SOL    HW1 9938   0.458   3.789   2.432
 3160SOL    HW2 9939   0.542   3.871   2.319
 3161SOL     OW 9940   0.297   3.759   2.033
 3161SOL    HW1 9941   0.346   3.843   2.012
 3161SOL    HW2 9942   0.359   3.694   2.078
 3162SOL     OW 9943   0.561   3.946   3.009
 3162SOL    HW1 9944   0.599   3.862   3.046
 3162SOL    HW2 9945   0.473   3.965   3.053
 3163SOL     OW 9946   1.017   3.763   2.615
 3163SOL    HW1 9947   0.945   3.768   2.546
 3163SOL    HW2 9948   0.993   3.694   2.684
 3164SOL     OW 9949   0.915   3.813   3.264
 3164SOL    HW1 9950   0.940   3.793   3.169
 3164SOL    HW2 9951   0.987   3.869   3.306
 3165SOL     OW 9952   1.274   4.110   3.124
 3165SOL    HW1 9953   1.295   4.184   3.188
 3165SOL    HW2 9954   1.185   4.127   3.081
 3166SOL     OW 9955   0.504   3.774   3.602
 3166SOL    HW1 9956   0.462   3.717   3.532
 3166SOL    HW2 9957   0.438   3.843   3.634
 3167SOL     OW 9958   0.307   3.937   3.093
 3167SOL    HW1 9959   0.284   3.974   3.183
 3167SOL    HW2 9960   0.277   3.842   3.087
 3168SOL     OW 9961   1.540   3.998   1.987
 3168SOL    HW1 9962   1.479   3.923   2.010
 3168SOL    HW2 9963   1.562   4.050   2.070
 3169SOL     OW 9964   1.160   3.931   3.339
 3169SOL    HW1 9965   1.160   3.995   3.416
 3169SOL    HW2 9966   1.188   3.979   3.256
 3170SOL     OW 9967   0.903   3.810   1.995
 3170SOL    HW1 9968   0.954   3.811   1.909
 3170SOL    HW2 9969   0.959   3.768   2.066
 3171SOL     OW 9970   1.726   3.859   2.385
 3171SOL    HW1 9971   1.799   3.842   2.318
 3171SOL    HW2 9972   1.695   3.772   2.423
 3172SOL     OW 9973   1.841   3.899   2.825
 3172SOL    HW1 9974   1.880   3.814   2.789
 3172SOL    HW2 9975   1.743   3.901   2.806
 3173SOL     OW 9976   0.672   3.927   3.351
 3173SOL    HW1 9977   0.762   3.911   3.311
 3173SOL    HW2 9978   0.680   3.932   3.450
 3174SOL     OW 9979   0.075   4.069   1.895
 3174SOL    HW1 9980  -0.017   4.041   1.866
 3174SOL    HW2 9981   0.106   4.146   1.839
 3175SOL     OW 9982   0.072   3.890   2.180
 3175SOL    HW1 9983   0.055   3.973   2.126
 3175SOL    HW2 9984   0.162   3.853   2.158
 3176SOL     OW 9985   1.225   4.049   2.311
 3176SOL    HW1 9986   1.290   3.975   2.300
 3176SOL    HW2 9987   1.245   4.099   2.395
 3177SOL     OW 9988   1.777   4.066   3.504
 3177SOL    HW1 9989   1.760   4.097   3.410
 3177SOL    HW2 9990   1.693   4.029   3.542
 3178SOL     OW 9991   1.824   3.916   3.089
 3178SOL    HW1 9992   1.820   3.826   3.133
 3178SOL    HW2 9993   1.827   3.905   2.990
 3179SOL     OW 9994   1.424   3.938   2.974
 3179SOL    HW1 9995   1.476   3.873   3.029
 3179SOL    HW2 9996   1.375   4.001   3.035
 3180SOL     OW 9997   1.001   3.758   3.016
 3180SOL    HW1 9998   0.938   3.686   2.985
 3180SOL    HW2 9999   1.094   3.722   3.016
 3181SOL     OW10000   1.352   3.776   2.030
 3181SOL    HW110001   1.387   3.735   1.946
 3181SOL    HW210002   1.262   3.738   2.050
 3182SOL     OW10003   1.300   4.177   2.553
 3182SOL    HW110004   1.241   4.257   2.557
 3182SOL    HW210005   1.315   4.142   2.646
 3183SOL     OW10006   1.593   3.945   2.744
 3183SOL    HW110007   1.509   3.944   2.798
 3183SOL    HW210008   1.595   4.028   2.688
 3184SOL     OW10009   0.225   3.999   4.720
 3184SOL    HW110010   0.260   3.982   4.812
 3184SOL    HW210011   0.137   3.954   4.708
 3185SOL     OW10012   0.019   4.092   4.371
 3185SOL    HW110013  -0.063   4.135   4.410
 3185SOL    HW210014  -0.009   4.019   4.308
 3186SOL     OW10015   1.755   4.331   3.955
 3186SOL    HW110016   1.743   4.318   3.856
 3186SOL    HW210017   1.725   4.250   4.004
 3187SOL     OW10018   0.438   4.116   5.223
 3187SOL    HW110019   0.520   4.060   5.232
 3187SOL    HW210020   0.357   4.058   5.227
 3188SOL     OW10021   1.594   3.838   5.204
 3188SOL    HW110022   1.576   3.905   5.132
 3188SOL    HW210023   1.591   3.884   5.293
 3189SOL     OW10024   0.809   3.728   4.226
 3189SOL    HW110025   0.849   3.819   4.217
 3189SOL    HW210026   0.709   3.736   4.232
 3190SOL     OW10027   1.281   4.069   4.668
 3190SOL    HW110028   1.195   4.019   4.655
 3190SOL    HW210029   1.343   4.015   4.724
 3191SOL     OW10030   0.550   3.920   4.609
 3191SOL    HW110031   0.545   3.915   4.709
 3191SOL    HW210032   0.552   4.016   4.580
 3192SOL     OW10033   0.202   4.009   5.222
 3192SOL    HW110034   0.122   4.069   5.209
 3192SOL    HW210035   0.192   3.960   5.308
 3193SOL     OW10036   1.400   3.831   4.150
 3193SOL    HW110037   1.376   3.794   4.060
 3193SOL    HW210038   1.499   3.847   4.154
 3194SOL     OW10039   1.547   3.946   5.453
 3194SOL    HW110040   1.542   3.983   5.545
 3194SOL    HW210041   1.475   3.877   5.441
 3195SOL     OW10042   0.614   3.846   3.841
 3195SOL    HW110043   0.712   3.824   3.848
 3195SOL    HW210044   0.583   3.829   3.748
 3196SOL     OW10045   0.781   3.988   5.473
 3196SOL    HW110046   0.848   3.927   5.516
 3196SOL    HW210047   0.708   4.007   5.538
 3197SOL     OW10048   0.539   3.788   4.236
 3197SOL    HW110049   0.458   3.789   4.294
 3197SOL    HW210050   0.542   3.871   4.181
 3198SOL     OW10051   0.297   3.759   3.895
 3198SOL    HW110052   0.346   3.843   3.874
 3198SOL    HW210053   0.359   3.694   3.940
 3199SOL     OW10054   0.561   3.946   4.871
 3199SOL    HW110055   0.599   3.862   4.908
 3199SOL    HW210056   0.473   3.965   4.915
 3200SOL     OW10057   1.017   3.763   4.477
 3200SOL    HW110058   0.945   3.768   4.408
 3200SOL    HW210059   0.993   3.694   4.546
 3201SOL     OW10060   0.915   3.813   5.126
 3201SOL    HW110061   0.940   3.793   5.031
 3201SOL    HW210062   0.987   3.869   5.168
 3202SOL     OW10063   1.274   4.110   4.986
 3202SOL    HW110064   1.295   4.184   5.050
 3202SOL    HW210065   1.185   4.127   4.943
 3203SOL     OW10066   0.504   3.774   5.464
 3203SOL    HW110067   0.462   3.717   5.394
 3203SOL    HW210068   0.438   3.843   5.496
 3204SOL     OW10069   0.307   3.937   4.955
 3204SOL    HW110070   0.284   3.974   5.045
 3204SOL    HW210071   0.277   3.842   4.949
 3205SOL     OW10072   1.540   3.998   3.849
 3205SOL    HW110073   1.479   3.923   3.872
 3205SOL    HW210074   1.562   4.050   3.932
 3206SOL     OW10075   1.160   3.931   5.201
 3206SOL    HW110076   1.160   3.995   5.278
 3206SOL    HW210077   1.188   3.979   5.118
 3207SOL     OW10078   0.903   3.810   3.857
 3207SOL    HW110079   0.954   3.811   3.771
 3207SOL    HW210080   0.959   3.768   3.928
 3208SOL     OW10081   1.726   3.859   4.247
 3208SOL    HW110082   1.799   3.842   4.180
 3208SOL    HW210083   1.695   3.772   4.285
 3209SOL     OW10084   1.841   3.899   4.687
 3209SOL    HW110085   1.880   3.814   4.651
 3209SOL    HW210086   1.743   3.901   4.668
 3210SOL     OW10087   0.672   3.927   5.213
 3210SOL    HW110088   0.762   3.911   5.173
 3210SOL    HW210089   0.680   3.932   5.312
 3211SOL     OW10090   0.075   4.069   3.757
 3211SOL    HW110091  -0.017   4.041   3.728
 3211SOL    HW210092   0.106   4.146   3.701
 3212SOL     OW10093   0.072   3.890   4.042
 3212SOL    HW110094   0.055   3.973   3.988
 3212SOL    HW210095   0.162   3.853   4.020
 3213SOL     OW10096   1.225   4.049   4.173
 3213SOL    HW110097   1.290   3.975   4.162
 3213SOL    HW210098   1.245   4.099   4.257
 3214SOL     OW10099   1.777   4.066   5.366
 3214SOL    HW110100   1.760   4.097   5.272
 3214SOL    HW210101   1.693   4.029   5.404
 3215SOL     OW10102   1.824   3.916   4.951
 3215SOL    HW110103   1.820   3.826   4.995
 3215SOL    HW210104   1.827   3.905   4.852
 3216SOL     OW10105   1.424   3.938   4.836
 3216SOL    HW110106   1.476   3.873   4.891
 3216SOL    HW210107   1.375   4.001   4.897
 3217SOL     OW10108   1.001   3.758   4.878
 3217SOL    HW110109   0.938   3.686   4.847
 3217SOL    HW210110   1.094   3.722   4.878
 3218SOL     OW10111   1.352   3.776   3.892
 3218SOL    HW110112   1.387   3.735   3.808
 3218SOL    HW210113   1.262   3.738   3.912
 3219SOL     OW10114   1.300   4.177   4.415
 3219SOL    HW110115   1.241   4.257   4.419
 3219SOL    HW210116   1.315   4.142   4.508
 3220SOL     OW10117   1.593   3.945   4.606
 3220SOL    HW110118   1.509   3.944   4.660
 3220SOL    HW210119   1.595   4.028   4.550
 3221SOL     OW10120   0.225   3.999   6.582
 3221SOL    HW110121   0.260   3.982   6.674
 3221SOL    HW210122   0.137   3.954   6.570
 3222SOL     OW10123   0.019   4.092   6.233
 3222SOL    HW110124  -0.063   4.135   6.272
 3222SOL    HW210125  -0.009   4.019   6.170
 3223SOL     OW10126   1.755   4.331   5.817
 3223SOL    HW110127   1.743   4.318   5.718
 3223SOL    HW210128   1.725   4.250   5.866
 3224SOL     OW10129   0.438   4.116   7.085
 3224SOL    HW110130   0.520   4.060   7.094
 3224SOL    HW210131   0.357   4.058   7.089
 3225SOL     OW10132   1.594   3.838   7.066
 3225SOL    HW110133   1.576   3.905   6.994
 3225SOL    HW210134   1.591   3.884   7.155
 3226SOL     OW10135   0.809   3.728   6.088
 3226SOL    HW110136   0.849   3.819   6.079
 3226SOL    HW210137   0.709   3.736   6.094
 3227SOL     OW10138   1.281   4.069   6.530
 3227SOL    HW110139   1.195   4.019   6.517
 3227SOL    HW210140   1.343   4.015   6.586
 3228SOL     OW10141   0.550   3.920   6.471
 3228SOL    HW110142   0.545   3.915   6.571
 3228SOL    HW210143   0.552   4.016   6.442
 3229SOL     OW10144   0.202   4.009   7.084
 3229SOL    HW110145   0.122   4.069   7.071
 3229SOL    HW210146   0.192   3.960   7.170
 3230SOL     OW10147   1.400   3.831   6.012
 3230SOL    HW110148   1.376   3.794   5.922
 3230SOL    HW210149   1.499   3.847   6.016
 3231SOL     OW10150   1.547   3.946   7.315
 3231SOL    HW110151   1.542   3.983   7.407
 3231SOL    HW210152   1.475   3.877   7.303
 3232SOL     OW10153   0.614   3.846   5.703
 3232SOL    HW110154   0.712   3.824   5.710
 3232SOL    HW210155   0.583   3.829   5.610
 3233SOL     OW10156   0.781   3.988   7.335
 3233SOL    HW110157   0.848   3.927   7.378
 3233SOL    HW210158   0.708   4.007   7.400
 3234SOL     OW10159   0.539   3.788   6.098
 3234SOL    HW110160   0.458   3.789   6.156
 3234SOL    HW210161   0.542   3.871   6.043
 3235SOL     OW10162   0.297   3.759   5.757
 3235SOL    HW110163   0.346   3.843   5.736
 3235SOL    HW210164   0.359   3.694   5.802
 3236SOL     OW10165   0.561   3.946   6.733
 3236SOL    HW110166   0.599   3.862   6.770
 3236SOL    HW210167   0.473   3.965   6.777
 3237SOL     OW10168   1.017   3.763   6.339
 3237SOL    HW110169   0.945   3.768   6.270
 3237SOL    HW210170   0.993   3.694   6.408
 3238SOL     OW10171   0.915   3.813   6.988
 3238SOL    HW110172   0.940   3.793   6.893
 3238SOL    HW210173   0.987   3.869   7.030
 3239SOL     OW10174   1.274   4.110   6.848
 3239SOL    HW110175   1.295   4.184   6.912
 3239SOL    HW210176   1.185   4.127   6.805
 3240SOL     OW10177   0.504   3.774   7.326
 3240SOL    HW110178   0.462   3.717   7.256
 3240SOL    HW210179   0.438   3.843   7.358
 3241SOL     OW10180   0.307   3.937   6.817
 3241SOL    HW110181   0.284   3.974   6.907
 3241SOL    HW210182   0.277   3.842   6.811
 3242SOL     OW10183   1.540   3.998   5.711
 3242SOL    HW110184   1.479   3.923   5.734
 3242SOL    HW210185   1.562   4.050   5.794
 3243SOL     OW10186   1.160   3.931   7.063
 3243SOL    HW110187   1.160   3.995   7.140
 3243SOL    HW210188   1.188   3.979   6.980
 3244SOL     OW10189   0.903   3.810   5.719
 3244SOL    HW110190   0.954   3.811   5.633
 3244SOL    HW210191   0.959   3.768   5.790
 3245SOL     OW10192   1.726   3.859   6.109
 3245SOL    HW110193   1.799   3.842   6.042
 3245SOL    HW210194   1.695   3.772   6.147
 3246SOL     OW10195   1.841   3.899   6.549
 3246SOL    HW110196   1.880   3.814   6.513
 3246SOL    HW210197   1.743   3.901   6.530
 3247SOL     OW10198   0.672   3.927   7.075
 3247SOL    HW110199   0.762   3.911   7.035
 3247SOL    HW210200   0.680   3.932   7.174
 3248SOL     OW10201   0.075   4.069   5.619
 3248SOL    HW110202  -0.017   4.041   5.590
 3248SOL    HW210203   0.106   4.146   5.563
 3249SOL     OW10204   0.072   3.890   5.904
 3249SOL    HW110205   0.055   3.973   5.850
 3249SOL    HW210206   0.162   3.853   5.882
 3250SOL     OW10207   1.225   4.049   6.035
 3250SOL    HW110208   1.290   3.975   6.024
 3250SOL    HW210209   1.245   4.099   6.119
 3251SOL     OW10210   1.777   4.066   7.228
 3251SOL    HW110211   1.760   4.097   7.134
 3251SOL    HW210212   1.693   4.029   7.266
 3252SOL     OW10213   1.824   3.916   6.813
 3252SOL    HW110214   1.820   3.826   6.857
 3252SOL    HW210215   1.827   3.905   6.714
 3253SOL     OW10216   1.424   3.938   6.698
 3253SOL    HW110217   1.476   3.873   6.753
 3253SOL    HW210218   1.375   4.001   6.759
 3254SOL     OW10219   1.001   3.758   6.740
 3254SOL    HW110220   0.938   3.686   6.709
 3254SOL    HW210221   1.094   3.722   6.740
 3255SOL     OW10222   1.352   3.776   5.754
 3255SOL    HW110223   1.387   3.735   5.670
 3255SOL    HW210224   1.262   3.738   5.774
 3256SOL     OW10225   1.300   4.177   6.277
 3256SOL    HW110226   1.241   4.257   6.281
 3256SOL    HW210227   1.315   4.142   6.370
 3257SOL     OW10228   1.593   3.945   6.468
 3257SOL    HW110229   1.509   3.944   6.522
 3257SOL    HW210230   1.595   4.028   6.412
 3258SOL     OW10231   0.225   3.999   8.444
 3258SOL    HW110232   0.260   3.982   8.536
 3258SOL    HW210233   0.137   3.954   8.432
 3259SOL     OW10234   0.019   4.092   8.095
 3259SOL    HW110235  -0.063   4.135   8.134
 3259SOL    HW210236  -0.009   4.019   8.032
 3260SOL     OW10237   1.755   4.331   7.679
 3260SOL    HW110238   1.743   4.318   7.580
 3260SOL    HW210239   1.725   4.250   7.728
 3261SOL     OW10240   0.438   4.116   8.947
 3261SOL    HW110241   0.520   4.060   8.956
 3261SOL    HW210242   0.357   4.058   8.951
 3262SOL     OW10243   1.594   3.838   8.928
 3262SOL    HW110244   1.576   3.905   8.856
 3262SOL    HW210245   1.591   3.884   9.017
 3263SOL     OW10246   0.809   3.728   7.950
 3263SOL    HW110247   0.849   3.819   7.941
 3263SOL    HW210248   0.709   3.736   7.956
 3264SOL     OW10249   1.281   4.069   8.392
 3264SOL    HW110250   1.195   4.019   8.379
 3264SOL    HW210251   1.343   4.015   8.448
 3265SOL     OW10252   0.550   3.920   8.333
 3265SOL    HW110253   0.545   3.915   8.433
 3265SOL    HW210254   0.552   4.016   8.304
 3266SOL     OW10255   0.202   4.009   8.946
 3266SOL    HW110256   0.122   4.069   8.933
 3266SOL    HW210257   0.192   3.960   9.032
 3267SOL     OW10258   1.400   3.831   7.874
 3267SOL    HW110259   1.376   3.794   7.784
 3267SOL    HW210260   1.499   3.847   7.878
 3268SOL     OW10261   1.547   3.946   9.177
 3268SOL    HW110262   1.542   3.983   9.269
 3268SOL    HW210263   1.475   3.877   9.165
 3269SOL     OW10264   0.614   3.846   7.565
 3269SOL    HW110265   0.712   3.824   7.572
 3269SOL    HW210266   0.583   3.829   7.472
 3270SOL     OW10267   0.781   3.988   9.197
 3270SOL    HW110268   0.848   3.927   9.240
 3270SOL    HW210269   0.708   4.007   9.262
 3271SOL     OW10270   0.539   3.788   7.960
 3271SOL    HW110271   0.458   3.789   8.018
 3271SOL    HW210272   0.542   3.871   7.905
 3272SOL     OW10273   0.297   3.759   7.619
 3272SOL    HW110274   0.346   3.843   7.598
 3272SOL    HW210275   0.359   3.694   7.664
 3273SOL     OW10276   0.561   3.946   8.595
 3273SOL    HW110277   0.599   3.862   8.632
 3273SOL    HW210278   0.473   3.965   8.639
 3274SOL     OW10279   1.017   3.763   8.201
 3274SOL    HW110280   0.945   3.768   8.132
 3274SOL    HW210281   0.993   3.694   8.270
 3275SOL     OW10282   0.915   3.813   8.850
 3275SOL    HW110283   0.940   3.793   8.755
 3275SOL    HW210284   0.987   3.869   8.892
 3276SOL     OW10285   1.274   4.110   8.710
 3276SOL    HW110286   1.295   4.184   8.774
 3276SOL    HW210287   1.185   4.127   8.667
 3277SOL     OW10288   0.504   3.774   9.188
 3277SOL    HW110289   0.462   3.717   9.118
 3277SOL    HW210290   0.438   3.843   9.220
 3278SOL     OW10291   0.307   3.937   8.679
 3278SOL    HW110292   0.284   3.974   8.769
 3278SOL    HW210293   0.277   3.842   8.673
 3279SOL     OW10294   1.540   3.998   7.573
 3279SOL    HW110295   1.479   3.923   7.596
 3279SOL    HW210296   1.562   4.050   7.656
 3280SOL     OW10297   1.160   3.931   8.925
 3280SOL    HW110298   1.160   3.995   9.002
 3280SOL    HW210299   1.188   3.979   8.842
 3281SOL     OW10300   0.903   3.810   7.581
 3281SOL    HW110301   0.954   3.811   7.495
 3281SOL    HW210302   0.959   3.768   7.652
 3282SOL     OW10303   1.726   3.859   7.971
 3282SOL    HW110304   1.799   3.842   7.904
 3282SOL    HW210305   1.695   3.772   8.009
 3283SOL     OW10306   1.841   3.899   8.411
 3283SOL    HW110307   1.880   3.814   8.375
 3283SOL    HW210308   1.743   3.901   8.392
 3284SOL     OW10309   0.672   3.927   8.937
 3284SOL    HW110310   0.762   3.911   8.897
 3284SOL    HW210311   0.680   3.932   9.036
 3285SOL     OW10312   0.075   4.069   7.481
 3285SOL    HW110313  -0.017   4.041   7.452
 3285SOL    HW210314   0.106   4.146   7.425
 3286SOL     OW10315   0.072   3.890   7.766
 3286SOL    HW110316   0.055   3.973   7.712
 3286SOL    HW210317   0.162   3.853   7.744
 3287SOL     OW10318   1.225   4.049   7.897
 3287SOL    HW110319   1.290   3.975   7.886
 3287SOL    HW210320   1.245   4.099   7.981
 3288SOL     OW10321   1.777   4.066   9.090
 3288SOL    HW110322   1.760   4.097   8.996
 3288SOL    HW210323   1.693   4.029   9.128
 3289SOL     OW10324   1.824   3.916   8.675
 3289SOL    HW110325   1.820   3.826   8.719
 3289SOL    HW210326   1.827   3.905   8.576
 3290SOL     OW10327   1.424   3.938   8.560
 3290SOL    HW110328   1.476   3.873   8.615
 3290SOL    HW210329   1.375   4.001   8.621
 3291SOL     OW10330   1.001   3.758   8.602
 3291SOL    HW110331   0.938   3.686   8.571
 3291SOL    HW210332   1.094   3.722   8.602
 3292SOL     OW10333   1.352   3.776   7.616
 3292SOL    HW110334   1.387   3.735   7.532
 3292SOL    HW210335   1.262   3.738   7.636
 3293SOL     OW10336   1.300   4.177   8.139
 3293SOL    HW110337   1.241   4.257   8.143
 3293SOL    HW210338   1.315   4.142   8.232
 3294SOL     OW10339   1.593   3.945   8.330
 3294SOL    HW110340   1.509   3.944   8.384
 3294SOL    HW210341   1.595   4.028   8.274
 3295SOL     OW10342   0.225   3.999  10.306
 3295SOL    HW110343   0.260   3.982  10.398
 3295SOL    HW210344   0.137   3.954  10.294
 3296SOL     OW10345   0.019   4.092   9.957
 3296SOL    HW110346  -0.063   4.135   9.996
 3296SOL    HW210347  -0.009   4.019   9.894
 3297SOL     OW10348   1.755   4.331   9.541
 3297SOL    HW110349   1.743   4.318   9.442
 3297SOL    HW210350   1.725   4.250   9.590
 3298SOL     OW10351   0.438   4.116  10.809
 3298SOL    HW110352   0.520   4.060  10.818
 3298SOL    HW210353   0.357   4.058  10.813
 3299SOL     OW10354   1.594   3.838  10.790
 3299SOL    HW110355   1.576   3.905  10.718
 3299SOL    HW210356   1.591   3.884  10.879
 3300SOL     OW10357   0.809   3.728   9.812
 3300SOL    HW110358   0.849   3.819   9.803
 3300SOL    HW210359   0.709   3.736   9.818
 3301SOL     OW10360   1.281   4.069  10.254
 3301SOL    HW110361   1.195   4.019  10.241
 3301SOL    HW210362   1.343   4.015  10.310
 3302SOL     OW10363   0.550   3.920  10.195
 3302SOL    HW110364   0.545   3.915  10.295
 3302SOL    HW210365   0.552   4.016  10.166
 3303SOL     OW10366   0.202   4.009  10.808
 3303SOL    HW110367   0.122   4.069  10.795
 3303SOL    HW210368   0.192   3.960  10.894
 3304SOL     OW10369   1.400   3.831   9.736
 3304SOL    HW110370   1.376   3.794   9.646
 3304SOL    HW210371   1.499   3.847   9.740
 3305SOL     OW10372   1.547   3.946  11.039
 3305SOL    HW110373   1.542   3.983  11.131
 3305SOL    HW210374   1.475   3.877  11.027
 3306SOL     OW10375   0.614   3.846   9.427
 3306SOL    HW110376   0.712   3.824   9.434
 3306SOL    HW210377   0.583   3.829   9.334
 3307SOL     OW10378   0.781   3.988  11.059
 3307SOL    HW110379   0.848   3.927  11.102
 3307SOL    HW210380   0.708   4.007  11.124
 3308SOL     OW10381   0.539   3.788   9.822
 3308SOL    HW110382   0.458   3.789   9.880
 3308SOL    HW210383   0.542   3.871   9.767
 3309SOL     OW10384   0.297   3.759   9.481
 3309SOL    HW110385   0.346   3.843   9.460
 3309SOL    HW210386   0.359   3.694   9.526
 3310SOL     OW10387   0.561   3.946  10.457
 3310SOL    HW110388   0.599   3.862  10.494
 3310SOL    HW210389   0.473   3.965  10.501
 3311SOL     OW10390   1.017   3.763  10.063
 3311SOL    HW110391   0.945   3.768   9.994
 3311SOL    HW210392   0.993   3.694  10.132
 3312SOL     OW10393   0.915   3.813  10.712
 3312SOL    HW110394   0.940   3.793  10.617
 3312SOL    HW210395   0.987   3.869  10.754
 3313SOL     OW10396   1.274   4.110  10.572
 3313SOL    HW110397   1.295   4.184  10.636
 3313SOL    HW210398   1.185   4.127  10.529
 3314SOL     OW10399   0.504   3.774  11.050
 3314SOL    HW110400   0.462   3.717  10.980
 3314SOL    HW210401   0.438   3.843  11.082
 3315SOL     OW10402   0.307   3.937  10.541
 3315SOL    HW110403   0.284   3.974  10.631
 3315SOL    HW210404   0.277   3.842  10.535
 3316SOL     OW10405   1.540   3.998   9.435
 3316SOL    HW110406   1.479   3.923   9.458
 3316SOL    HW210407   1.562   4.050   9.518
 3317SOL     OW10408   1.160   3.931  10.787
 3317SOL    HW110409   1.160   3.995  10.864
 3317SOL    HW210410   1.188   3.979  10.704
 3318SOL     OW10411   0.903   3.810   9.443
 3318SOL    HW110412   0.954   3.811   9.357
 3318SOL    HW210413   0.959   3.768   9.514
 3319SOL     OW10414   1.726   3.859   9.833
 3319SOL    HW110415   1.799   3.842   9.766
 3319SOL    HW210416   1.695   3.772   9.871
 3320SOL     OW10417   1.841   3.899  10.273
 3320SOL    HW110418   1.880   3.814  10.237
 3320SOL    HW210419   1.743   3.901  10.254
 3321SOL     OW10420   0.672   3.927  10.799
 3321SOL    HW110421   0.762   3.911  10.759
 3321SOL    HW210422   0.680   3.932  10.898
 3322SOL     OW10423   0.075   4.069   9.343
 3322SOL    HW110424  -0.017   4.041   9.314
 3322SOL    HW210425   0.106   4.146   9.287
 3323SOL     OW10426   0.072   3.890   9.628
 3323SOL    HW110427   0.055   3.973   9.574
 3323SOL    HW210428   0.162   3.853   9.606
 3324SOL     OW10429   1.225   4.049   9.759
 3324SOL    HW110430   1.290   3.975   9.748
 3324SOL    HW210431   1.245   4.099   9.843
 3325SOL     OW10432   1.777   4.066  10.952
 3325SOL    HW110433   1.760   4.097  10.858
 3325SOL    HW210434   1.693   4.029  10.990
 3326SOL     OW10435   1.824   3.916  10.537
 3326SOL    HW110436   1.820   3.826  10.581
 3326SOL    HW210437   1.827   3.905  10.438
 3327SOL     OW10438   1.424   3.938  10.422
 3327SOL    HW110439   1.476   3.873  10.477
 3327SOL    HW210440   1.375   4.001  10.483
 3328SOL     OW10441   1.001   3.758  10.464
 3328SOL    HW110442   0.938   3.686  10.433
 3328SOL    HW210443   1.094   3.722  10.464
 3329SOL     OW10444   1.352   3.776   9.478
 3329SOL    HW110445   1.387   3.735   9.394
 3329SOL    HW210446   1.262   3.738   9.498
 3330SOL     OW10447   1.300   4.177  10.001
 3330SOL    HW110448   1.241   4.257  10.005
 3330SOL    HW210449   1.315   4.142  10.094
 3331SOL     OW10450   1.593   3.945  10.192
 3331SOL    HW110451   1.509   3.944  10.246
 3331SOL    HW210452   1.595   4.028  10.136
 3332SOL     OW10453   0.225   3.999  12.168
 3332SOL    HW110454   0.260   3.982  12.260
 3332SOL    HW210455   0.137   3.954  12.156
 3333SOL     OW10456   0.019   4.092  11.819
 3333SOL    HW110457  -0.063   4.135  11.858
 3333SOL    HW210458  -0.009   4.019  11.756
 3334SOL     OW10459   1.755   4.331  11.403
 3334SOL    HW110460   1.743   4.318  11.304
 3334SOL    HW210461   1.725   4.250  11.452
 3335SOL     OW10462   0.438   4.116  12.671
 3335SOL    HW110463   0.520   4.060  12.680
 3335SOL    HW210464   0.357   4.058  12.675
 3336SOL     OW10465   1.594   3.838  12.652
 3336SOL    HW110466   1.576   3.905  12.580
 3336SOL    HW210467   1.591   3.884  12.741
 3337SOL     OW10468   0.809   3.728  11.674
 3337SOL    HW110469   0.849   3.819  11.665
 3337SOL    HW210470   0.709   3.736  11.680
 3338SOL     OW10471   1.281   4.069  12.116
 3338SOL    HW110472   1.195   4.019  12.103
 3338SOL    HW210473   1.343   4.015  12.172
 3339SOL     OW10474   0.550   3.920  12.057
 3339SOL    HW110475   0.545   3.915  12.157
 3339SOL    HW210476   0.552   4.016  12.028
 3340SOL     OW10477   0.202   4.009  12.670
 3340SOL    HW110478   0.122   4.069  12.657
 3340SOL    HW210479   0.192   3.960  12.756
 3341SOL     OW10480   1.400   3.831  11.598
 3341SOL    HW110481   1.376   3.794  11.508
 3341SOL    HW210482   1.499   3.847  11.602
 3342SOL     OW10483   1.547   3.946  12.901
 3342SOL    HW110484   1.542   3.983  12.993
 3342SOL    HW210485   1.475   3.877  12.889
 3343SOL     OW10486   0.614   3.846  11.289
 3343SOL    HW110487   0.712   3.824  11.296
 3343SOL    HW210488   0.583   3.829  11.196
 3344SOL     OW10489   0.781   3.988  12.921
 3344SOL    HW110490   0.848   3.927  12.964
 3344SOL    HW210491   0.708   4.007  12.986
 3345SOL     OW10492   0.539   3.788  11.684
 3345SOL    HW110493   0.458   3.789  11.742
 3345SOL    HW210494   0.542   3.871  11.629
 3346SOL     OW10495   0.297   3.759  11.343
 3346SOL    HW110496   0.346   3.843  11.322
 3346SOL    HW210497   0.359   3.694  11.388
 3347SOL     OW10498   0.561   3.946  12.319
 3347SOL    HW110499   0.599   3.862  12.356
 3347SOL    HW210500   0.473   3.965  12.363
 3348SOL     OW10501   1.017   3.763  11.925
 3348SOL    HW110502   0.945   3.768  11.856
 3348SOL    HW210503   0.993   3.694  11.994
 3349SOL     OW10504   0.915   3.813  12.574
 3349SOL    HW110505   0.940   3.793  12.479
 3349SOL    HW210506   0.987   3.869  12.616
 3350SOL     OW10507   1.274   4.110  12.434
 3350SOL    HW110508   1.295   4.184  12.498
 3350SOL    HW210509   1.185   4.127  12.391
 3351SOL     OW10510   0.504   3.774  12.912
 3351SOL    HW110511   0.462   3.717  12.842
 3351SOL    HW210512   0.438   3.843  12.944
 3352SOL     OW10513   0.307   3.937  12.403
 3352SOL    HW110514   0.284   3.974  12.493
 3352SOL    HW210515   0.277   3.842  12.397
 3353SOL     OW10516   1.540   3.998  11.297
 3353SOL    HW110517   1.479   3.923  11.320
 3353SOL    HW210518   1.562   4.050  11.380
 3354SOL     OW10519   1.160   3.931  12.649
 3354SOL    HW110520   1.160   3.995  12.726
 3354SOL    HW210521   1.188   3.979  12.566
 3355SOL     OW10522   0.903   3.810  11.305
 3355SOL    HW110523   0.954   3.811  11.219
 3355SOL    HW210524   0.959   3.768  11.376
 3356SOL     OW10525   1.726   3.859  11.695
 3356SOL    HW110526   1.799   3.842  11.628
 3356SOL    HW210527   1.695   3.772  11.733
 3357SOL     OW10528   1.841   3.899  12.135
 3357SOL    HW110529   1.880   3.814  12.099
 3357SOL    HW210530   1.743   3.901  12.116
 3358SOL     OW10531   0.672   3.927  12.661
 3358SOL    HW110532   0.762   3.911  12.621
 3358SOL    HW210533   0.680   3.932  12.760
 3359SOL     OW10534   0.075   4.069  11.205
 3359SOL    HW110535  -0.017   4.041  11.176
 3359SOL    HW210536   0.106   4.146  11.149
 3360SOL     OW10537   0.072   3.890  11.490
 3360SOL    HW110538   0.055   3.973  11.436
 3360SOL    HW210539   0.162   3.853  11.468
 3361SOL     OW10540   1.225   4.049  11.621
 3361SOL    HW110541   1.290   3.975  11.610
 3361SOL    HW210542   1.245   4.099  11.705
 3362SOL     OW10543   1.777   4.066  12.814
 3362SOL    HW110544   1.760   4.097  12.720
 3362SOL    HW210545   1.693   4.029  12.852
 3363SOL     OW10546   1.824   3.916  12.399
 3363SOL    HW110547   1.820   3.826  12.443
 3363SOL    HW210548   1.827   3.905  12.300
 3364SOL     OW10549   1.424   3.938  12.284
 3364SOL    HW110550   1.476   3.873  12.339
 3364SOL    HW210551   1.375   4.001  12.345
 3365SOL     OW10552   1.001   3.758  12.326
 3365SOL    HW110553   0.938   3.686  12.295
 3365SOL    HW210554   1.094   3.722  12.326
 3366SOL     OW10555   1.352   3.776  11.340
 3366SOL    HW110556   1.387   3.735  11.256
 3366SOL    HW210557   1.262   3.738  11.360
 3367SOL     OW10558   1.300   4.177  11.863
 3367SOL    HW110559   1.241   4.257  11.867
 3367SOL    HW210560   1.315   4.142  11.956
 3368SOL     OW10561   1.593   3.945  12.054
 3368SOL    HW110562   1.509   3.944  12.108
 3368SOL    HW210563   1.595   4.028  11.998
 3369SOL     OW10564   0.019   4.092  13.681
 3369SOL    HW110565  -0.063   4.135  13.720
 3369SOL    HW210566  -0.009   4.019  13.618
 3370SOL     OW10567   1.755   4.331  13.265
 3370SOL    HW110568   1.743   4.318  13.166
 3370SOL    HW210569   1.725   4.250  13.314
 3371SOL     OW10570   1.603   4.171  13.771
 3371SOL    HW110571   1.529   4.217  13.721
 3371SOL    HW210572   1.654   4.239  13.824
 3372SOL     OW10573   0.809   3.728  13.536
 3372SOL    HW110574   0.849   3.819  13.527
 3372SOL    HW210575   0.709   3.736  13.542
 3373SOL     OW10576   1.400   3.831  13.460
 3373SOL    HW110577   1.376   3.794  13.370
 3373SOL    HW210578   1.499   3.847  13.464
 3374SOL     OW10579   0.614   3.846  13.151
 3374SOL    HW110580   0.712   3.824  13.158
 3374SOL    HW210581   0.583   3.829  13.058
 3375SOL     OW10582   0.539   3.788  13.546
 3375SOL    HW110583   0.458   3.789  13.604
 3375SOL    HW210584   0.542   3.871  13.491
 3376SOL     OW10585   0.297   3.759  13.205
 3376SOL    HW110586   0.346   3.843  13.184
 3376SOL    HW210587   0.359   3.694  13.250
 3377SOL     OW10588   1.017   3.763  13.787
 3377SOL    HW110589   0.945   3.768  13.718
 3377SOL    HW210590   0.993   3.694  13.856
 3378SOL     OW10591   1.540   3.998  13.159
 3378SOL    HW110592   1.479   3.923  13.182
 3378SOL    HW210593   1.562   4.050  13.242
 3379SOL     OW10594   0.903   3.810  13.167
 3379SOL    HW110595   0.954   3.811  13.081
 3379SOL    HW210596   0.959   3.768  13.238
 3380SOL     OW10597   1.726   3.859  13.557
 3380SOL    HW110598   1.799   3.842  13.490
 3380SOL    HW210599   1.695   3.772  13.595
 3381SOL     OW10600   1.841   3.899  13.997
 3381SOL    HW110601   1.880   3.814  13.961
 3381SOL    HW210602   1.743   3.901  13.978
 3382SOL     OW10603   0.075   4.069  13.067
 3382SOL    HW110604  -0.017   4.041  13.038
 3382SOL    HW210605   0.106   4.146  13.011
 3383SOL     OW10606   0.072   3.890  13.352
 3383SOL    HW110607   0.055   3.973  13.298
 3383SOL    HW210608   0.162   3.853  13.330
 3384SOL     OW10609   1.225   4.049  13.483
 3384SOL    HW110610   1.290   3.975  13.472
 3384SOL    HW210611   1.245   4.099  13.567
 3385SOL     OW10612   1.352   3.776  13.202
 3385SOL    HW110613   1.387   3.735  13.118
 3385SOL    HW210614   1.262   3.738  13.222
 3386SOL     OW10615   1.300   4.177  13.725
 3386SOL    HW110616   1.241   4.257  13.729
 3386SOL    HW210617   1.315   4.142  13.818
 3387SOL     OW10618   2.092   0.628   0.113
 3387SOL    HW110619   1.999   0.626   0.150
 3387SOL    HW210620   2.093   0.589   0.021
 3388SOL     OW10621   2.087   0.275   0.996
 3388SOL    HW110622   2.122   0.258   1.088
 3388SOL    HW210623   1.999   0.230   0.984
 3389SOL     OW10624   1.881   0.368   0.647
 3389SOL    HW110625   1.799   0.411   0.686
 3389SOL    HW210626   1.853   0.295   0.584
 3390SOL     OW10627   2.431   1.275   1.165
 3390SOL    HW110628   2.338   1.268   1.128
 3390SOL    HW210629   2.442   1.364   1.209
 3391SOL     OW10630   3.417   1.511   0.703
 3391SOL    HW110631   3.360   1.495   0.784
 3391SOL    HW210632   3.358   1.521   0.623
 3392SOL     OW10633   2.997   0.703   0.717
 3392SOL    HW110634   3.054   0.781   0.692
 3392SOL    HW210635   2.937   0.729   0.793
 3393SOL     OW10636   3.617   0.607   0.231
 3393SOL    HW110637   3.605   0.594   0.132
 3393SOL    HW210638   3.587   0.526   0.280
 3394SOL     OW10639   2.630   1.144   1.023
 3394SOL    HW110640   2.552   1.161   1.083
 3394SOL    HW210641   2.664   1.231   0.987
 3395SOL     OW10642   2.712   0.798   1.823
 3395SOL    HW110643   2.708   0.874   1.888
 3395SOL    HW210644   2.734   0.834   1.732
 3396SOL     OW10645   2.547   1.012   0.665
 3396SOL    HW110646   2.616   0.996   0.735
 3396SOL    HW210647   2.474   1.069   0.703
 3397SOL     OW10648   2.548   1.161   1.803
 3397SOL    HW110649   2.608   1.240   1.817
 3397SOL    HW210650   2.462   1.192   1.762
 3398SOL     OW10651   2.197   1.435   1.061
 3398SOL    HW110652   2.119   1.404   1.008
 3398SOL    HW210653   2.255   1.493   1.004
 3399SOL     OW10654   3.322   1.505   1.339
 3399SOL    HW110655   3.346   1.599   1.365
 3399SOL    HW210656   3.306   1.451   1.421
 3400SOL     OW10657   2.300   0.392   1.499
 3400SOL    HW110658   2.382   0.336   1.508
 3400SOL    HW210659   2.219   0.334   1.503
 3401SOL     OW10660   3.465   0.447   0.737
 3401SOL    HW110661   3.391   0.493   0.687
 3401SOL    HW210662   3.516   0.515   0.790
 3402SOL     OW10663   2.093   1.713   0.483
 3402SOL    HW110664   2.127   1.790   0.537
 3402SOL    HW210665   2.137   1.713   0.393
 3403SOL     OW10666   2.989   1.341   1.690
 3403SOL    HW110667   3.036   1.341   1.778
 3403SOL    HW210668   2.941   1.254   1.679
 3404SOL     OW10669   2.092   1.434   0.538
 3404SOL    HW110670   2.066   1.530   0.538
 3404SOL    HW210671   2.021   1.380   0.583
 3405SOL     OW10672   2.102   1.091   0.886
 3405SOL    HW110673   2.116   1.007   0.938
 3405SOL    HW210674   2.047   1.155   0.941
 3406SOL     OW10675   2.482   1.786   1.439
 3406SOL    HW110676   2.390   1.769   1.474
 3406SOL    HW210677   2.510   1.878   1.465
 3407SOL     OW10678   2.468   0.964   0.123
 3407SOL    HW110679   2.475   1.048   0.069
 3407SOL    HW210680   2.514   0.977   0.211
 3408SOL     OW10681   3.456   0.114   1.480
 3408SOL    HW110682   3.438   0.181   1.408
 3408SOL    HW210683   3.453   0.160   1.569
 3409SOL     OW10684   1.984   0.643   0.563
 3409SOL    HW110685   1.939   0.555   0.580
 3409SOL    HW210686   1.983   0.697   0.647
 3410SOL     OW10687   3.704   1.767   0.359
 3410SOL    HW110688   3.758   1.738   0.439
 3410SOL    HW210689   3.734   1.857   0.330
 3411SOL     OW10690   1.889   1.596   0.117
 3411SOL    HW110691   1.870   1.500   0.138
 3411SOL    HW210692   1.856   1.654   0.192
 3412SOL     OW10693   3.551   0.922   0.612
 3412SOL    HW110694   3.646   0.893   0.620
 3412SOL    HW210695   3.543   0.987   0.537
 3413SOL     OW10696   3.503   1.108   0.432
 3413SOL    HW110697   3.589   1.110   0.380
 3413SOL    HW210698   3.517   1.155   0.520
 3414SOL     OW10699   1.975   0.737   1.597
 3414SOL    HW110700   2.063   0.724   1.642
 3414SOL    HW210701   1.962   0.834   1.575
 3415SOL     OW10702   2.475   1.365   0.726
 3415SOL    HW110703   2.426   1.278   0.735
 3415SOL    HW210704   2.452   1.408   0.639
 3416SOL     OW10705   3.155   1.228   1.423
 3416SOL    HW110706   3.192   1.155   1.365
 3416SOL    HW210707   3.207   1.233   1.508
 3417SOL     OW10708   2.671   0.004   0.502
 3417SOL    HW110709   2.711   0.095   0.493
 3417SOL    HW210710   2.571   0.012   0.508
 3418SOL     OW10711   2.059   0.976   1.264
 3418SOL    HW110712   2.148   0.931   1.250
 3418SOL    HW210713   1.986   0.911   1.245
 3419SOL     OW10714   3.387   0.999   0.190
 3419SOL    HW110715   3.324   0.923   0.203
 3419SOL    HW210716   3.435   1.017   0.276
 3420SOL     OW10717   3.049   1.792   1.616
 3420SOL    HW110718   3.073   1.852   1.540
 3420SOL    HW210719   3.056   1.697   1.586
 3421SOL     OW10720   2.179   0.251   1.801
 3421SOL    HW110721   2.250   0.322   1.807
 3421SOL    HW210722   2.091   0.290   1.829
 3422SOL     OW10723   3.328   1.417   0.953
 3422SOL    HW110724   3.269   1.423   1.033
 3422SOL    HW210725   3.313   1.329   0.907
 3423SOL     OW10726   3.529   1.714   0.572
 3423SOL    HW110727   3.488   1.691   0.484
 3423SOL    HW210728   3.511   1.640   0.637
 3424SOL     OW10729   2.460   0.729   0.270
 3424SOL    HW110730   2.484   0.798   0.202
 3424SOL    HW210731   2.382   0.762   0.324
 3425SOL     OW10732   3.143   0.345   0.944
 3425SOL    HW110733   3.057   0.295   0.931
 3425SOL    HW210734   3.205   0.291   1.000
 3426SOL     OW10735   3.438   1.662   0.307
 3426SOL    HW110736   3.527   1.708   0.310
 3426SOL    HW210737   3.417   1.638   0.212
 3427SOL     OW10738   2.669   0.605   1.465
 3427SOL    HW110739   2.622   0.602   1.554
 3427SOL    HW210740   2.618   0.550   1.399
 3428SOL     OW10741   3.256   0.469   1.674
 3428SOL    HW110742   3.236   0.512   1.762
 3428SOL    HW210743   3.334   0.407   1.683
 3429SOL     OW10744   2.835   0.890   1.572
 3429SOL    HW110745   2.881   0.806   1.543
 3429SOL    HW210746   2.779   0.924   1.497
 3430SOL     OW10747   2.853   0.410   1.242
 3430SOL    HW110748   2.776   0.444   1.296
 3430SOL    HW210749   2.819   0.359   1.163
 3431SOL     OW10750   2.903   0.701   0.429
 3431SOL    HW110751   2.929   0.697   0.525
 3431SOL    HW210752   2.818   0.650   0.415
 3432SOL     OW10753   1.938   0.811   0.789
 3432SOL    HW110754   2.037   0.799   0.798
 3432SOL    HW210755   1.914   0.906   0.810
 3433SOL     OW10756   2.727   0.348   0.195
 3433SOL    HW110757   2.786   0.411   0.146
 3433SOL    HW210758   2.746   0.254   0.166
 3434SOL     OW10759   3.581   0.585   1.831
 3434SOL    HW110760   3.555   0.674   1.795
 3434SOL    HW210761   3.579   0.517   1.758
 3435SOL     OW10762   3.224   1.144   0.545
 3435SOL    HW110763   3.307   1.115   0.497
 3435SOL    HW210764   3.175   1.211   0.489
 3436SOL     OW10765   2.412   0.196   0.885
 3436SOL    HW110766   2.407   0.191   0.985
 3436SOL    HW210767   2.414   0.292   0.856
 3437SOL     OW10768   2.870   1.456   0.477
 3437SOL    HW110769   2.824   1.528   0.425
 3437SOL    HW210770   2.866   1.476   0.575
 3438SOL     OW10771   2.213   1.801   0.853
 3438SOL    HW110772   2.263   1.715   0.859
 3438SOL    HW210773   2.278   1.878   0.850
 3439SOL     OW10774   3.657   1.066   0.873
 3439SOL    HW110775   3.595   1.051   0.797
 3439SOL    HW210776   3.605   1.077   0.958
 3440SOL     OW10777   3.089   1.550   1.506
 3440SOL    HW110778   3.095   1.473   1.570
 3440SOL    HW210779   3.037   1.524   1.426
 3441SOL     OW10780   2.183   0.943   0.242
 3441SOL    HW110781   2.265   0.982   0.200
 3441SOL    HW210782   2.156   0.861   0.193
 3442SOL     OW10783   3.320   0.735   0.728
 3442SOL    HW110784   3.315   0.670   0.803
 3442SOL    HW210785   3.400   0.794   0.741
 3443SOL     OW10786   2.323   1.266   1.727
 3443SOL    HW110787   2.273   1.267   1.641
 3443SOL    HW210788   2.260   1.248   1.803
 3444SOL     OW10789   2.973   1.776   0.237
 3444SOL    HW110790   2.913   1.714   0.287
 3444SOL    HW210791   3.004   1.732   0.152
 3445SOL     OW10792   2.064   0.285   1.498
 3445SOL    HW110793   1.984   0.345   1.485
 3445SOL    HW210794   2.054   0.236   1.584
 3446SOL     OW10795   3.494   1.377   0.081
 3446SOL    HW110796   3.462   1.471   0.071
 3446SOL    HW210797   3.418   1.314   0.069
 3447SOL     OW10798   2.326   1.743   0.323
 3447SOL    HW110799   2.359   1.782   0.409
 3447SOL    HW210800   2.402   1.736   0.258
 3448SOL     OW10801   3.262   0.107   0.426
 3448SOL    HW110802   3.238   0.070   0.336
 3448SOL    HW210803   3.361   0.123   0.430
 3449SOL     OW10804   2.111   1.785   1.241
 3449SOL    HW110805   2.168   1.720   1.291
 3449SOL    HW210806   2.095   1.752   1.148
 3450SOL     OW10807   2.802   1.698   0.904
 3450SOL    HW110808   2.882   1.641   0.925
 3450SOL    HW210809   2.753   1.658   0.827
 3451SOL     OW10810   2.244   0.700   0.480
 3451SOL    HW110811   2.289   0.610   0.477
 3451SOL    HW210812   2.150   0.689   0.513
 3452SOL     OW10813   3.409   0.222   1.729
 3452SOL    HW110814   3.404   0.259   1.821
 3452SOL    HW210815   3.337   0.153   1.717
 3453SOL     OW10816   2.476   0.122   0.117
 3453SOL    HW110817   2.574   0.100   0.124
 3453SOL    HW210818   2.445   0.105   0.024
 3454SOL     OW10819   2.643   0.264   1.749
 3454SOL    HW110820   2.710   0.203   1.792
 3454SOL    HW210821   2.570   0.283   1.814
 3455SOL     OW10822   2.750   1.514   1.195
 3455SOL    HW110823   2.727   1.489   1.101
 3455SOL    HW210824   2.811   1.445   1.234
 3456SOL     OW10825   3.213   0.590   1.433
 3456SOL    HW110826   3.241   0.547   1.518
 3456SOL    HW210827   3.238   0.686   1.434
 3457SOL     OW10828   2.665   1.402   0.924
 3457SOL    HW110829   2.755   1.416   0.882
 3457SOL    HW210830   2.594   1.404   0.853
 3458SOL     OW10831   2.784   0.503   0.899
 3458SOL    HW110832   2.759   0.494   0.803
 3458SOL    HW210833   2.832   0.421   0.930
 3459SOL     OW10834   2.401   0.064   0.512
 3459SOL    HW110835   2.320   0.065   0.570
 3459SOL    HW210836   2.404   0.147   0.457
 3460SOL     OW10837   3.296   1.188   0.041
 3460SOL    HW110838   3.328   1.112   0.098
 3460SOL    HW210839   3.204   1.215   0.071
 3461SOL     OW10840   2.159   0.035   0.171
 3461SOL    HW110841   2.208   0.119   0.150
 3461SOL    HW210842   2.221  -0.030   0.216
 3462SOL     OW10843   2.797   0.236   0.480
 3462SOL    HW110844   2.749   0.277   0.402
 3462SOL    HW210845   2.896   0.234   0.461
 3463SOL     OW10846   2.938   0.683   1.464
 3463SOL    HW110847   2.858   0.622   1.467
 3463SOL    HW210848   3.019   0.630   1.440
 3464SOL     OW10849   3.089   1.570   0.793
 3464SOL    HW110850   3.110   1.644   0.728
 3464SOL    HW210851   3.157   1.570   0.866
 3465SOL     OW10852   2.321   1.152   0.741
 3465SOL    HW110853   2.250   1.125   0.806
 3465SOL    HW210854   2.295   1.124   0.648
 3466SOL     OW10855   3.133   1.797   0.591
 3466SOL    HW110856   3.177   1.861   0.527
 3466SOL    HW210857   3.083   1.849   0.661
 3467SOL     OW10858   2.894   0.549   0.016
 3467SOL    HW110859   2.853   0.631  -0.023
 3467SOL    HW210860   2.958   0.575   0.089
 3468SOL     OW10861   1.940   0.556   1.386
 3468SOL    HW110862   2.032   0.555   1.345
 3468SOL    HW210863   1.934   0.630   1.453
 3469SOL     OW10864   2.423   0.222   1.147
 3469SOL    HW110865   2.461   0.138   1.184
 3469SOL    HW210866   2.335   0.241   1.191
 3470SOL     OW10867   2.728   0.454   0.642
 3470SOL    HW110868   2.696   0.526   0.580
 3470SOL    HW210869   2.752   0.373   0.589
 3471SOL     OW10870   2.879   0.039   0.753
 3471SOL    HW110871   2.807   0.044   0.684
 3471SOL    HW210872   2.855  -0.030   0.822
 3472SOL     OW10873   3.291   1.173   0.867
 3472SOL    HW110874   3.236   1.089   0.860
 3472SOL    HW210875   3.317   1.202   0.775
 3473SOL     OW10876   3.328   0.590   0.992
 3473SOL    HW110877   3.298   0.495   0.999
 3473SOL    HW210878   3.401   0.606   1.058
 3474SOL     OW10879   3.719   0.833   0.377
 3474SOL    HW110880   3.761   0.769   0.441
 3474SOL    HW210881   3.681   0.782   0.299
 3475SOL     OW10882   2.350   1.385   0.174
 3475SOL    HW110883   2.263   1.370   0.221
 3475SOL    HW210884   2.333   1.411   0.079
 3476SOL     OW10885   3.526   1.280   0.657
 3476SOL    HW110886   3.625   1.288   0.671
 3476SOL    HW210887   3.481   1.364   0.688
 3477SOL     OW10888   3.252   0.575   0.078
 3477SOL    HW110889   3.198   0.554   0.159
 3477SOL    HW210890   3.343   0.534   0.087
 3478SOL     OW10891   2.389   0.256   0.328
 3478SOL    HW110892   2.416   0.197   0.253
 3478SOL    HW210893   2.389   0.351   0.297
 3479SOL     OW10894   3.616   1.223   1.588
 3479SOL    HW110895   3.707   1.184   1.575
 3479SOL    HW210896   3.624   1.319   1.612
 3480SOL     OW10897   2.926   1.347   1.340
 3480SOL    HW110898   2.846   1.324   1.395
 3480SOL    HW210899   3.009   1.321   1.389
 3481SOL     OW10900   3.454   1.629   1.625
 3481SOL    HW110901   3.481   1.663   1.535
 3481SOL    HW210902   3.533   1.591   1.671
 3482SOL     OW10903   2.973   1.195   1.100
 3482SOL    HW110904   2.933   1.239   1.181
 3482SOL    HW210905   2.932   1.232   1.017
 3483SOL     OW10906   3.500   1.099   1.079
 3483SOL    HW110907   3.505   1.180   1.138
 3483SOL    HW210908   3.414   1.101   1.028
 3484SOL     OW10909   2.777   0.089   1.402
 3484SOL    HW110910   2.802   0.069   1.307
 3484SOL    HW210911   2.849   0.145   1.444
 3485SOL     OW10912   2.842   1.116   1.719
 3485SOL    HW110913   2.743   1.122   1.729
 3485SOL    HW210914   2.865   1.036   1.663
 3486SOL     OW10915   2.567   1.050   0.368
 3486SOL    HW110916   2.553   1.057   0.467
 3486SOL    HW210917   2.651   0.999   0.350
 3487SOL     OW10918   2.272   0.813   1.251
 3487SOL    HW110919   2.358   0.825   1.301
 3487SOL    HW210920   2.230   0.726   1.278
 3488SOL     OW10921   3.136   0.386   1.262
 3488SOL    HW110922   3.157   0.460   1.326
 3488SOL    HW210923   3.047   0.403   1.219
 3489SOL     OW10924   1.926   1.564   1.331
 3489SOL    HW110925   1.880   1.646   1.297
 3489SOL    HW210926   2.024   1.583   1.340
 3490SOL     OW10927   2.229   1.100   0.501
 3490SOL    HW110928   2.222   1.183   0.445
 3490SOL    HW210929   2.233   1.020   0.441
 3491SOL     OW10930   2.428   0.537   0.865
 3491SOL    HW110931   2.440   0.603   0.791
 3491SOL    HW210932   2.474   0.571   0.948
 3492SOL     OW10933   3.114   1.348   0.388
 3492SOL    HW110934   3.164   1.425   0.428
 3492SOL    HW210935   3.019   1.350   0.420
 3493SOL     OW10936   3.134   1.445   1.142
 3493SOL    HW110937   3.181   1.458   1.229
 3493SOL    HW210938   3.068   1.371   1.151
 3494SOL     OW10939   3.444   0.639   0.472
 3494SOL    HW110940   3.413   0.700   0.545
 3494SOL    HW210941   3.494   0.691   0.403
 3495SOL     OW10942   2.216   1.510   1.329
 3495SOL    HW110943   2.195   1.466   1.242
 3495SOL    HW210944   2.313   1.536   1.332
 3496SOL     OW10945   2.264   0.751   1.598
 3496SOL    HW110946   2.332   0.806   1.551
 3496SOL    HW210947   2.304   0.663   1.625
 3497SOL     OW10948   3.449   0.779   1.670
 3497SOL    HW110949   3.357   0.817   1.665
 3497SOL    HW210950   3.509   0.826   1.605
 3498SOL     OW10951   2.875   0.105   1.770
 3498SOL    HW110952   2.881   0.190   1.718
 3498SOL    HW210953   2.907   0.029   1.713
 3499SOL     OW10954   2.366   0.050   1.740
 3499SOL    HW110955   2.324  -0.007   1.670
 3499SOL    HW210956   2.300   0.119   1.772
 3500SOL     OW10957   2.435   0.870   1.029
 3500SOL    HW110958   2.479   0.959   1.020
 3500SOL    HW210959   2.372   0.870   1.106
 3501SOL     OW10960   3.222   0.862   1.045
 3501SOL    HW110961   3.147   0.862   0.979
 3501SOL    HW210962   3.259   0.770   1.054
 3502SOL     OW10963   3.071   0.525   0.275
 3502SOL    HW110964   3.084   0.441   0.329
 3502SOL    HW210965   3.042   0.599   0.335
 3503SOL     OW10966   2.169   0.213   1.231
 3503SOL    HW110967   2.146   0.250   1.321
 3503SOL    HW210968   2.139   0.118   1.225
 3504SOL     OW10969   1.899   1.310   1.282
 3504SOL    HW110970   1.952   1.261   1.350
 3504SOL    HW210971   1.921   1.408   1.287
 3505SOL     OW10972   2.594   0.634   1.064
 3505SOL    HW110973   2.653   0.608   0.988
 3505SOL    HW210974   2.566   0.730   1.053
 3506SOL     OW10975   3.590   0.935   1.854
 3506SOL    HW110976   3.544   0.928   1.765
 3506SOL    HW210977   3.528   0.979   1.920
 3507SOL     OW10978   2.169   0.063   0.618
 3507SOL    HW110979   2.158   0.157   0.651
 3507SOL    HW210980   2.164   0.000   0.695
 3508SOL     OW10981   3.484   0.367   0.374
 3508SOL    HW110982   3.486   0.291   0.438
 3508SOL    HW210983   3.436   0.444   0.414
 3509SOL     OW10984   2.885   0.766   0.966
 3509SOL    HW110985   2.900   0.787   1.062
 3509SOL    HW210986   2.855   0.671   0.957
 3510SOL     OW10987   2.842   1.573   1.700
 3510SOL    HW110988   2.822   1.617   1.612
 3510SOL    HW210989   2.881   1.482   1.684
 3511SOL     OW10990   3.721   1.518   1.605
 3511SOL    HW110991   3.735   1.545   1.510
 3511SOL    HW210992   3.804   1.540   1.658
 3512SOL     OW10993   2.212   0.898   1.804
 3512SOL    HW110994   2.288   0.942   1.852
 3512SOL    HW210995   2.247   0.851   1.722
 3513SOL     OW10996   3.402   0.274   0.125
 3513SOL    HW110997   3.341   0.199   0.148
 3513SOL    HW210998   3.424   0.326   0.208
 3514SOL     OW10999   3.165   0.838   0.042
 3514SOL    HW111000   3.199   0.745   0.057
 3514SOL    HW211001   3.183   0.865  -0.053
 3515SOL     OW11002   2.930   1.333   0.849
 3515SOL    HW111003   2.937   1.249   0.794
 3515SOL    HW211004   2.992   1.402   0.813
 3516SOL     OW11005   2.181   0.810   0.949
 3516SOL    HW111006   2.274   0.846   0.954
 3516SOL    HW211007   2.175   0.725   1.001
 3517SOL     OW11008   2.201   0.509   1.006
 3517SOL    HW111009   2.149   0.426   0.989
 3517SOL    HW211010   2.278   0.514   0.942
 3518SOL     OW11011   3.000   0.380   1.678
 3518SOL    HW111012   2.955   0.443   1.742
 3518SOL    HW211013   3.093   0.411   1.661
 3519SOL     OW11014   3.022   0.207   1.477
 3519SOL    HW111015   3.022   0.271   1.554
 3519SOL    HW211016   3.050   0.255   1.394
 3520SOL     OW11017   1.870   1.326   0.200
 3520SOL    HW111018   1.777   1.347   0.169
 3520SOL    HW211019   1.880   1.227   0.213
 3521SOL     OW11020   1.950   1.801   0.927
 3521SOL    HW111021   1.908   1.715   0.900
 3521SOL    HW211022   2.044   1.804   0.893
 3522SOL     OW11023   2.366   1.568   0.910
 3522SOL    HW111024   2.432   1.642   0.919
 3522SOL    HW211025   2.410   1.489   0.868
 3523SOL     OW11026   2.864   0.796   1.238
 3523SOL    HW111027   2.905   0.764   1.324
 3523SOL    HW211028   2.768   0.769   1.235
 3524SOL     OW11029   1.902   0.544   1.114
 3524SOL    HW111030   1.987   0.511   1.073
 3524SOL    HW211031   1.915   0.559   1.212
 3525SOL     OW11032   2.051   0.520   1.722
 3525SOL    HW111033   2.110   0.480   1.652
 3525SOL    HW211034   1.993   0.591   1.681
 3526SOL     OW11035   3.231   0.950   1.660
 3526SOL    HW111036   3.270   1.039   1.680
 3526SOL    HW211037   3.241   0.930   1.563
 3527SOL     OW11038   2.677   0.572   0.325
 3527SOL    HW111039   2.684   0.483   0.279
 3527SOL    HW211040   2.583   0.606   0.317
 3528SOL     OW11041   3.519   0.604   1.206
 3528SOL    HW111042   3.481   0.535   1.268
 3528SOL    HW211043   3.601   0.568   1.162
 3529SOL     OW11044   2.114   1.564   1.744
 3529SOL    HW111045   2.084   1.621   1.820
 3529SOL    HW211046   2.107   1.467   1.770
 3530SOL     OW11047   2.533   0.464   1.269
 3530SOL    HW111048   2.499   0.375   1.239
 3530SOL    HW211049   2.559   0.518   1.189
 3531SOL     OW11050   2.792   1.678   1.465
 3531SOL    HW111051   2.768   1.660   1.370
 3531SOL    HW211052   2.822   1.772   1.475
 3532SOL     OW11053   2.335   0.500   0.191
 3532SOL    HW111054   2.396   0.580   0.195
 3532SOL    HW211055   2.240   0.531   0.198
 3533SOL     OW11056   2.021   1.137   1.466
 3533SOL    HW111057   2.043   1.076   1.542
 3533SOL    HW211058   2.031   1.088   1.380
 3534SOL     OW11059   3.209   1.059   1.234
 3534SOL    HW111060   3.233   0.996   1.160
 3534SOL    HW211061   3.119   1.099   1.216
 3535SOL     OW11062   3.164   0.855   0.309
 3535SOL    HW111063   3.078   0.824   0.351
 3535SOL    HW211064   3.160   0.841   0.210
 3536SOL     OW11065   3.621   1.747   1.154
 3536SOL    HW111066   3.682   1.777   1.081
 3536SOL    HW211067   3.583   1.658   1.132
 3537SOL     OW11068   3.114   1.731   1.128
 3537SOL    HW111069   3.198   1.736   1.074
 3537SOL    HW211070   3.091   1.635   1.146
 3538SOL     OW11071   1.945   1.258   1.022
 3538SOL    HW111072   1.940   1.257   1.122
 3538SOL    HW211073   1.862   1.217   0.984
 3539SOL     OW11074   2.550   1.662   1.716
 3539SOL    HW111075   2.494   1.743   1.725
 3539SOL    HW211076   2.602   1.666   1.630
 3540SOL     OW11077   2.765   0.086   0.133
 3540SOL    HW111078   2.816   0.087   0.047
 3540SOL    HW211079   2.821   0.044   0.204
 3541SOL     OW11080   3.588   0.135   0.523
 3541SOL    HW111081   3.661   0.118   0.456
 3541SOL    HW211082   3.557   0.048   0.561
 3542SOL     OW11083   3.250   1.573   0.477
 3542SOL    HW111084   3.317   1.585   0.403
 3542SOL    HW211085   3.210   1.662   0.500
 3543SOL     OW11086   1.992   1.794   1.851
 3543SOL    HW111087   1.951   1.720   1.904
 3543SOL    HW211088   2.056   1.845   1.909
 3544SOL     OW11089   3.142   0.927   0.672
 3544SOL    HW111090   3.202   0.846   0.674
 3544SOL    HW211091   3.182   0.996   0.612
 3545SOL     OW11092   2.692   1.273   1.422
 3545SOL    HW111093   2.687   1.306   1.517
 3545SOL    HW211094   2.606   1.292   1.376
 3546SOL     OW11095   2.534   1.616   0.154
 3546SOL    HW111096   2.543   1.626   0.055
 3546SOL    HW211097   2.494   1.527   0.175
 3547SOL     OW11098   3.512   1.720   1.394
 3547SOL    HW111099   3.565   1.730   1.310
 3547SOL    HW211100   3.485   1.810   1.428
 3548SOL     OW11101   3.703   0.175   0.963
 3548SOL    HW111102   3.742   0.090   0.927
 3548SOL    HW211103   3.605   0.177   0.944
 3549SOL     OW11104   2.125   0.326   0.720
 3549SOL    HW111105   2.046   0.377   0.686
 3549SOL    HW211106   2.116   0.311   0.818
 3550SOL     OW11107   3.056   1.612   0.031
 3550SOL    HW111108   3.062   1.519   0.068
 3550SOL    HW211109   2.997   1.612  -0.049
 3551SOL     OW11110   2.684   1.002   1.372
 3551SOL    HW111111   2.724   1.001   1.280
 3551SOL    HW211112   2.694   1.094   1.412
 3552SOL     OW11113   2.778   0.910   0.291
 3552SOL    HW111114   2.841   0.948   0.223
 3552SOL    HW211115   2.818   0.827   0.330
 3553SOL     OW11116   3.366   1.607   0.044
 3553SOL    HW111117   3.274   1.644   0.051
 3553SOL    HW211118   3.404   1.627  -0.046
 3554SOL     OW11119   2.234   1.288   1.490
 3554SOL    HW111120   2.221   1.381   1.456
 3554SOL    HW211121   2.150   1.236   1.477
 3555SOL     OW11122   3.476   1.292   1.289
 3555SOL    HW111123   3.536   1.295   1.369
 3555SOL    HW211124   3.401   1.356   1.302
 3556SOL     OW11125   2.901   1.098   0.696
 3556SOL    HW111126   2.831   1.051   0.750
 3556SOL    HW211127   2.960   1.030   0.653
 3557SOL     OW11128   2.876   0.236   0.971
 3557SOL    HW111129   2.868   0.200   0.878
 3557SOL    HW211130   2.874   0.160   1.036
 3558SOL     OW11131   2.452   1.487   0.491
 3558SOL    HW111132   2.494   1.429   0.421
 3558SOL    HW211133   2.408   1.566   0.447
 3559SOL     OW11134   3.571   0.385   1.381
 3559SOL    HW111135   3.644   0.454   1.385
 3559SOL    HW211136   3.599   0.310   1.322
 3560SOL     OW11137   2.117   1.348   0.290
 3560SOL    HW111138   2.021   1.349   0.263
 3560SOL    HW211139   2.129   1.401   0.374
 3561SOL     OW11140   1.967   1.013   1.726
 3561SOL    HW111141   1.890   0.980   1.780
 3561SOL    HW211142   2.052   0.983   1.768
 3562SOL     OW11143   2.534   0.203   1.489
 3562SOL    HW111144   2.624   0.187   1.449
 3562SOL    HW211145   2.542   0.208   1.588
 3563SOL     OW11146   1.937   0.345   0.033
 3563SOL    HW111147   1.845   0.317   0.004
 3563SOL    HW211148   1.968   0.422  -0.023
 3564SOL     OW11149   3.302   0.856   1.398
 3564SOL    HW111150   3.245   0.908   1.335
 3564SOL    HW211151   3.398   0.868   1.374
 3565SOL     OW11152   1.934   0.166   0.318
 3565SOL    HW111153   1.917   0.249   0.264
 3565SOL    HW211154   2.024   0.129   0.296
 3566SOL     OW11155   3.045   1.335   0.119
 3566SOL    HW111156   2.946   1.324   0.121
 3566SOL    HW211157   3.079   1.350   0.212
 3567SOL     OW11158   2.475   0.842   1.431
 3567SOL    HW111159   2.531   0.923   1.414
 3567SOL    HW211160   2.534   0.762   1.434
 3568SOL     OW11161   3.355   1.767   0.959
 3568SOL    HW111162   3.388   1.831   0.890
 3568SOL    HW211163   3.421   1.761   1.034
 3569SOL     OW11164   2.578   0.565   1.708
 3569SOL    HW111165   2.597   0.630   1.782
 3569SOL    HW211166   2.638   0.485   1.717
 3570SOL     OW11167   3.312   1.220   1.633
 3570SOL    HW111168   3.303   1.210   1.732
 3570SOL    HW211169   3.408   1.213   1.607
 3571SOL     OW11170   2.252   1.741   1.560
 3571SOL    HW111171   2.161   1.782   1.558
 3571SOL    HW211172   2.245   1.647   1.592
 3572SOL     OW11173   3.536   0.883   1.254
 3572SOL    HW111174   3.509   0.794   1.217
 3572SOL    HW211175   3.537   0.951   1.181
 3573SOL     OW11176   3.087   0.325   0.449
 3573SOL    HW111177   3.152   0.251   0.438
 3573SOL    HW211178   3.107   0.375   0.533
 3574SOL     OW11179   2.456   0.745   0.652
 3574SOL    HW111180   2.506   0.830   0.633
 3574SOL    HW211181   2.368   0.747   0.604
 3575SOL     OW11182   3.639   0.342   1.642
 3575SOL    HW111183   3.622   0.373   1.548
 3575SOL    HW211184   3.555   0.305   1.680
 3576SOL     OW11185   3.592   0.934   1.517
 3576SOL    HW111186   3.630   1.025   1.532
 3576SOL    HW211187   3.584   0.917   1.418
 3577SOL     OW11188   2.721   1.374   0.016
 3577SOL    HW111189   2.675   1.389   0.104
 3577SOL    HW211190   2.765   1.459  -0.014
 3578SOL     OW11191   2.523   1.790   0.953
 3578SOL    HW111192   2.477   1.878   0.940
 3578SOL    HW211193   2.622   1.802   0.946
 3579SOL     OW11194   2.721   0.956   0.861
 3579SOL    HW111195   2.775   0.887   0.909
 3579SOL    HW211196   2.689   1.025   0.927
 3580SOL     OW11197   2.945   0.984   0.087
 3580SOL    HW111198   2.922   1.037   0.005
 3580SOL    HW211199   3.026   0.928   0.068
 3581SOL     OW11200   3.723   1.569   0.851
 3581SOL    HW111201   3.652   1.557   0.781
 3581SOL    HW211202   3.724   1.490   0.911
 3582SOL     OW11203   2.083   1.314   1.844
 3582SOL    HW111204   2.018   1.241   1.823
 3582SOL    HW211205   2.087   1.328   1.942
 3583SOL     OW11206   1.941   1.240   0.653
 3583SOL    HW111207   1.940   1.193   0.741
 3583SOL    HW211208   2.023   1.212   0.602
 3584SOL     OW11209   2.534   1.391   1.624
 3584SOL    HW111210   2.456   1.341   1.662
 3584SOL    HW211211   2.531   1.486   1.655
 3585SOL     OW11212   3.686   0.192   1.227
 3585SOL    HW111213   3.682   0.102   1.271
 3585SOL    HW211214   3.689   0.181   1.128
 3586SOL     OW11215   2.290   0.424   0.520
 3586SOL    HW111216   2.320   0.352   0.458
 3586SOL    HW211217   2.251   0.384   0.603
 3587SOL     OW11218   3.567   1.487   1.104
 3587SOL    HW111219   3.474   1.462   1.077
 3587SOL    HW211220   3.593   1.437   1.186
 3588SOL     OW11221   2.179   0.547   1.280
 3588SOL    HW111222   2.217   0.488   1.352
 3588SOL    HW211223   2.219   0.521   1.192
 3589SOL     OW11224   2.674   1.586   0.687
 3589SOL    HW111225   2.706   1.596   0.593
 3589SOL    HW211226   2.595   1.524   0.689
 3590SOL     OW11227   3.286   0.214   1.112
 3590SOL    HW111228   3.338   0.149   1.167
 3590SOL    HW211229   3.237   0.277   1.173
 3591SOL     OW11230   2.863   0.034   1.154
 3591SOL    HW111231   2.800  -0.038   1.123
 3591SOL    HW211232   2.956  -0.002   1.154
 3592SOL     OW11233   2.632   1.330   0.301
 3592SOL    HW111234   2.586   1.243   0.318
 3592SOL    HW211235   2.723   1.327   0.342
 3593SOL     OW11236   2.480   1.567   1.284
 3593SOL    HW111237   2.475   1.649   1.341
 3593SOL    HW211238   2.569   1.564   1.239
 3594SOL     OW11239   3.214   0.052   0.168
 3594SOL    HW111240   3.249   0.011   0.084
 3594SOL    HW211241   3.124   0.014   0.188
 3595SOL     OW11242   3.162   0.453   0.691
 3595SOL    HW111243   3.103   0.533   0.695
 3595SOL    HW211244   3.177   0.418   0.784
 3596SOL     OW11245   3.455   0.221   0.882
 3596SOL    HW111246   3.371   0.220   0.936
 3596SOL    HW211247   3.457   0.304   0.826
 3597SOL     OW11248   1.901   1.077   0.300
 3597SOL    HW111249   2.000   1.066   0.291
 3597SOL    HW211250   1.861   0.991   0.332
 3598SOL     OW11251   2.737   1.646   0.337
 3598SOL    HW111252   2.660   1.611   0.283
 3598SOL    HW211253   2.705   1.717   0.399
 3599SOL     OW11254   2.092   0.628   1.975
 3599SOL    HW111255   1.999   0.626   2.012
 3599SOL    HW211256   2.093   0.589   1.883
 3600SOL     OW11257   2.087   0.275   2.858
 3600SOL    HW111258   2.122   0.258   2.950
 3600SOL    HW211259   1.999   0.230   2.846
 3601SOL     OW11260   1.881   0.368   2.509
 3601SOL    HW111261   1.799   0.411   2.548
 3601SOL    HW211262   1.853   0.295   2.446
 3602SOL     OW11263   2.431   1.275   3.027
 3602SOL    HW111264   2.338   1.268   2.990
 3602SOL    HW211265   2.442   1.364   3.071
 3603SOL     OW11266   3.417   1.511   2.565
 3603SOL    HW111267   3.360   1.495   2.646
 3603SOL    HW211268   3.358   1.521   2.485
 3604SOL     OW11269   2.997   0.703   2.579
 3604SOL    HW111270   3.054   0.781   2.554
 3604SOL    HW211271   2.937   0.729   2.655
 3605SOL     OW11272   3.617   0.607   2.093
 3605SOL    HW111273   3.605   0.594   1.994
 3605SOL    HW211274   3.587   0.526   2.142
 3606SOL     OW11275   2.630   1.144   2.885
 3606SOL    HW111276   2.552   1.161   2.945
 3606SOL    HW211277   2.664   1.231   2.849
 3607SOL     OW11278   2.712   0.798   3.685
 3607SOL    HW111279   2.708   0.874   3.750
 3607SOL    HW211280   2.734   0.834   3.594
 3608SOL     OW11281   2.547   1.012   2.527
 3608SOL    HW111282   2.616   0.996   2.597
 3608SOL    HW211283   2.474   1.069   2.565
 3609SOL     OW11284   2.548   1.161   3.665
 3609SOL    HW111285   2.608   1.240   3.679
 3609SOL    HW211286   2.462   1.192   3.624
 3610SOL     OW11287   2.197   1.435   2.923
 3610SOL    HW111288   2.119   1.404   2.870
 3610SOL    HW211289   2.255   1.493   2.866
 3611SOL     OW11290   3.322   1.505   3.201
 3611SOL    HW111291   3.346   1.599   3.227
 3611SOL    HW211292   3.306   1.451   3.283
 3612SOL     OW11293   2.300   0.392   3.361
 3612SOL    HW111294   2.382   0.336   3.370
 3612SOL    HW211295   2.219   0.334   3.365
 3613SOL     OW11296   3.465   0.447   2.599
 3613SOL    HW111297   3.391   0.493   2.549
 3613SOL    HW211298   3.516   0.515   2.652
 3614SOL     OW11299   2.093   1.713   2.345
 3614SOL    HW111300   2.127   1.790   2.399
 3614SOL    HW211301   2.137   1.713   2.255
 3615SOL     OW11302   2.989   1.341   3.552
 3615SOL    HW111303   3.036   1.341   3.640
 3615SOL    HW211304   2.941   1.254   3.541
 3616SOL     OW11305   2.092   1.434   2.400
 3616SOL    HW111306   2.066   1.530   2.400
 3616SOL    HW211307   2.021   1.380   2.445
 3617SOL     OW11308   2.102   1.091   2.748
 3617SOL    HW111309   2.116   1.007   2.800
 3617SOL    HW211310   2.047   1.155   2.803
 3618SOL     OW11311   2.482   1.786   3.301
 3618SOL    HW111312   2.390   1.769   3.336
 3618SOL    HW211313   2.510   1.878   3.327
 3619SOL     OW11314   2.468   0.964   1.985
 3619SOL    HW111315   2.475   1.048   1.931
 3619SOL    HW211316   2.514   0.977   2.073
 3620SOL     OW11317   3.456   0.114   3.342
 3620SOL    HW111318   3.438   0.181   3.270
 3620SOL    HW211319   3.453   0.160   3.431
 3621SOL     OW11320   1.984   0.643   2.425
 3621SOL    HW111321   1.939   0.555   2.442
 3621SOL    HW211322   1.983   0.697   2.509
 3622SOL     OW11323   3.704   1.767   2.221
 3622SOL    HW111324   3.758   1.738   2.301
 3622SOL    HW211325   3.734   1.857   2.192
 3623SOL     OW11326   1.889   1.596   1.979
 3623SOL    HW111327   1.870   1.500   2.000
 3623SOL    HW211328   1.856   1.654   2.054
 3624SOL     OW11329   3.551   0.922   2.474
 3624SOL    HW111330   3.646   0.893   2.482
 3624SOL    HW211331   3.543   0.987   2.399
 3625SOL     OW11332   3.503   1.108   2.294
 3625SOL    HW111333   3.589   1.110   2.242
 3625SOL    HW211334   3.517   1.155   2.382
 3626SOL     OW11335   1.975   0.737   3.459
 3626SOL    HW111336   2.063   0.724   3.504
 3626SOL    HW211337   1.962   0.834   3.437
 3627SOL     OW11338   2.475   1.365   2.588
 3627SOL    HW111339   2.426   1.278   2.597
 3627SOL    HW211340   2.452   1.408   2.501
 3628SOL     OW11341   3.155   1.228   3.285
 3628SOL    HW111342   3.192   1.155   3.227
 3628SOL    HW211343   3.207   1.233   3.370
 3629SOL     OW11344   2.671   0.004   2.364
 3629SOL    HW111345   2.711   0.095   2.355
 3629SOL    HW211346   2.571   0.012   2.370
 3630SOL     OW11347   2.059   0.976   3.126
 3630SOL    HW111348   2.148   0.931   3.112
 3630SOL    HW211349   1.986   0.911   3.107
 3631SOL     OW11350   3.387   0.999   2.052
 3631SOL    HW111351   3.324   0.923   2.065
 3631SOL    HW211352   3.435   1.017   2.138
 3632SOL     OW11353   3.049   1.792   3.478
 3632SOL    HW111354   3.073   1.852   3.402
 3632SOL    HW211355   3.056   1.697   3.448
 3633SOL     OW11356   2.179   0.251   3.663
 3633SOL    HW111357   2.250   0.322   3.669
 3633SOL    HW211358   2.091   0.290   3.691
 3634SOL     OW11359   3.328   1.417   2.815
 3634SOL    HW111360   3.269   1.423   2.895
 3634SOL    HW211361   3.313   1.329   2.769
 3635SOL     OW11362   3.529   1.714   2.434
 3635SOL    HW111363   3.488   1.691   2.346
 3635SOL    HW211364   3.511   1.640   2.499
 3636SOL     OW11365   2.460   0.729   2.132
 3636SOL    HW111366   2.484   0.798   2.064
 3636SOL    HW211367   2.382   0.762   2.186
 3637SOL     OW11368   3.143   0.345   2.806
 3637SOL    HW111369   3.057   0.295   2.793
 3637SOL    HW211370   3.205   0.291   2.862
 3638SOL     OW11371   3.438   1.662   2.169
 3638SOL    HW111372   3.527   1.708   2.172
 3638SOL    HW211373   3.417   1.638   2.074
 3639SOL     OW11374   2.669   0.605   3.327
 3639SOL    HW111375   2.622   0.602   3.416
 3639SOL    HW211376   2.618   0.550   3.261
 3640SOL     OW11377   3.256   0.469   3.536
 3640SOL    HW111378   3.236   0.512   3.624
 3640SOL    HW211379   3.334   0.407   3.545
 3641SOL     OW11380   2.835   0.890   3.434
 3641SOL    HW111381   2.881   0.806   3.405
 3641SOL    HW211382   2.779   0.924   3.359
 3642SOL     OW11383   2.853   0.410   3.104
 3642SOL    HW111384   2.776   0.444   3.158
 3642SOL    HW211385   2.819   0.359   3.025
 3643SOL     OW11386   2.903   0.701   2.291
 3643SOL    HW111387   2.929   0.697   2.387
 3643SOL    HW211388   2.818   0.650   2.277
 3644SOL     OW11389   1.938   0.811   2.651
 3644SOL    HW111390   2.037   0.799   2.660
 3644SOL    HW211391   1.914   0.906   2.672
 3645SOL     OW11392   2.727   0.348   2.057
 3645SOL    HW111393   2.786   0.411   2.008
 3645SOL    HW211394   2.746   0.254   2.028
 3646SOL     OW11395   3.581   0.585   3.693
 3646SOL    HW111396   3.555   0.674   3.657
 3646SOL    HW211397   3.579   0.517   3.620
 3647SOL     OW11398   3.224   1.144   2.407
 3647SOL    HW111399   3.307   1.115   2.359
 3647SOL    HW211400   3.175   1.211   2.351
 3648SOL     OW11401   2.412   0.196   2.747
 3648SOL    HW111402   2.407   0.191   2.847
 3648SOL    HW211403   2.414   0.292   2.718
 3649SOL     OW11404   2.870   1.456   2.339
 3649SOL    HW111405   2.824   1.528   2.287
 3649SOL    HW211406   2.866   1.476   2.437
 3650SOL     OW11407   2.213   1.801   2.715
 3650SOL    HW111408   2.263   1.715   2.721
 3650SOL    HW211409   2.278   1.878   2.712
 3651SOL     OW11410   3.657   1.066   2.735
 3651SOL    HW111411   3.595   1.051   2.659
 3651SOL    HW211412   3.605   1.077   2.820
 3652SOL     OW11413   3.089   1.550   3.368
 3652SOL    HW111414   3.095   1.473   3.432
 3652SOL    HW211415   3.037   1.524   3.288
 3653SOL     OW11416   2.183   0.943   2.104
 3653SOL    HW111417   2.265   0.982   2.062
 3653SOL    HW211418   2.156   0.861   2.055
 3654SOL     OW11419   3.320   0.735   2.590
 3654SOL    HW111420   3.315   0.670   2.665
 3654SOL    HW211421   3.400   0.794   2.603
 3655SOL     OW11422   2.323   1.266   3.589
 3655SOL    HW111423   2.273   1.267   3.503
 3655SOL    HW211424   2.260   1.248   3.665
 3656SOL     OW11425   2.973   1.776   2.099
 3656SOL    HW111426   2.913   1.714   2.149
 3656SOL    HW211427   3.004   1.732   2.014
 3657SOL     OW11428   2.064   0.285   3.360
 3657SOL    HW111429   1.984   0.345   3.347
 3657SOL    HW211430   2.054   0.236   3.446
 3658SOL     OW11431   3.494   1.377   1.943
 3658SOL    HW111432   3.462   1.471   1.933
 3658SOL    HW211433   3.418   1.314   1.931
 3659SOL     OW11434   2.326   1.743   2.185
 3659SOL    HW111435   2.359   1.782   2.271
 3659SOL    HW211436   2.402   1.736   2.120
 3660SOL     OW11437   3.262   0.107   2.288
 3660SOL    HW111438   3.238   0.070   2.198
 3660SOL    HW211439   3.361   0.123   2.292
 3661SOL     OW11440   2.111   1.785   3.103
 3661SOL    HW111441   2.168   1.720   3.153
 3661SOL    HW211442   2.095   1.752   3.010
 3662SOL     OW11443   2.802   1.698   2.766
 3662SOL    HW111444   2.882   1.641   2.787
 3662SOL    HW211445   2.753   1.658   2.689
 3663SOL     OW11446   2.244   0.700   2.342
 3663SOL    HW111447   2.289   0.610   2.339
 3663SOL    HW211448   2.150   0.689   2.375
 3664SOL     OW11449   3.409   0.222   3.591
 3664SOL    HW111450   3.404   0.259   3.683
 3664SOL    HW211451   3.337   0.153   3.579
 3665SOL     OW11452   2.476   0.122   1.979
 3665SOL    HW111453   2.574   0.100   1.986
 3665SOL    HW211454   2.445   0.105   1.886
 3666SOL     OW11455   2.643   0.264   3.611
 3666SOL    HW111456   2.710   0.203   3.654
 3666SOL    HW211457   2.570   0.283   3.676
 3667SOL     OW11458   2.750   1.514   3.057
 3667SOL    HW111459   2.727   1.489   2.963
 3667SOL    HW211460   2.811   1.445   3.096
 3668SOL     OW11461   3.213   0.590   3.295
 3668SOL    HW111462   3.241   0.547   3.380
 3668SOL    HW211463   3.238   0.686   3.296
 3669SOL     OW11464   2.665   1.402   2.786
 3669SOL    HW111465   2.755   1.416   2.744
 3669SOL    HW211466   2.594   1.404   2.715
 3670SOL     OW11467   2.784   0.503   2.761
 3670SOL    HW111468   2.759   0.494   2.665
 3670SOL    HW211469   2.832   0.421   2.792
 3671SOL     OW11470   2.401   0.064   2.374
 3671SOL    HW111471   2.320   0.065   2.432
 3671SOL    HW211472   2.404   0.147   2.319
 3672SOL     OW11473   3.296   1.188   1.903
 3672SOL    HW111474   3.328   1.112   1.960
 3672SOL    HW211475   3.204   1.215   1.933
 3673SOL     OW11476   2.159   0.035   2.033
 3673SOL    HW111477   2.208   0.119   2.012
 3673SOL    HW211478   2.221  -0.030   2.078
 3674SOL     OW11479   2.797   0.236   2.342
 3674SOL    HW111480   2.749   0.277   2.264
 3674SOL    HW211481   2.896   0.234   2.323
 3675SOL     OW11482   2.938   0.683   3.326
 3675SOL    HW111483   2.858   0.622   3.329
 3675SOL    HW211484   3.019   0.630   3.302
 3676SOL     OW11485   3.089   1.570   2.655
 3676SOL    HW111486   3.110   1.644   2.590
 3676SOL    HW211487   3.157   1.570   2.728
 3677SOL     OW11488   2.321   1.152   2.603
 3677SOL    HW111489   2.250   1.125   2.668
 3677SOL    HW211490   2.295   1.124   2.510
 3678SOL     OW11491   3.133   1.797   2.453
 3678SOL    HW111492   3.177   1.861   2.389
 3678SOL    HW211493   3.083   1.849   2.523
 3679SOL     OW11494   2.894   0.549   1.878
 3679SOL    HW111495   2.853   0.631   1.839
 3679SOL    HW211496   2.958   0.575   1.951
 3680SOL     OW11497   1.940   0.556   3.248
 3680SOL    HW111498   2.032   0.555   3.207
 3680SOL    HW211499   1.934   0.630   3.315
 3681SOL     OW11500   2.423   0.222   3.009
 3681SOL    HW111501   2.461   0.138   3.046
 3681SOL    HW211502   2.335   0.241   3.053
 3682SOL     OW11503   2.728   0.454   2.504
 3682SOL    HW111504   2.696   0.526   2.442
 3682SOL    HW211505   2.752   0.373   2.451
 3683SOL     OW11506   2.879   0.039   2.615
 3683SOL    HW111507   2.807   0.044   2.546
 3683SOL    HW211508   2.855  -0.030   2.684
 3684SOL     OW11509   3.291   1.173   2.729
 3684SOL    HW111510   3.236   1.089   2.722
 3684SOL    HW211511   3.317   1.202   2.637
 3685SOL     OW11512   3.328   0.590   2.854
 3685SOL    HW111513   3.298   0.495   2.861
 3685SOL    HW211514   3.401   0.606   2.920
 3686SOL     OW11515   3.719   0.833   2.239
 3686SOL    HW111516   3.761   0.769   2.303
 3686SOL    HW211517   3.681   0.782   2.161
 3687SOL     OW11518   2.350   1.385   2.036
 3687SOL    HW111519   2.263   1.370   2.083
 3687SOL    HW211520   2.333   1.411   1.941
 3688SOL     OW11521   3.526   1.280   2.519
 3688SOL    HW111522   3.625   1.288   2.533
 3688SOL    HW211523   3.481   1.364   2.550
 3689SOL     OW11524   3.252   0.575   1.940
 3689SOL    HW111525   3.198   0.554   2.021
 3689SOL    HW211526   3.343   0.534   1.949
 3690SOL     OW11527   2.389   0.256   2.190
 3690SOL    HW111528   2.416   0.197   2.115
 3690SOL    HW211529   2.389   0.351   2.159
 3691SOL     OW11530   3.616   1.223   3.450
 3691SOL    HW111531   3.707   1.184   3.437
 3691SOL    HW211532   3.624   1.319   3.474
 3692SOL     OW11533   2.926   1.347   3.202
 3692SOL    HW111534   2.846   1.324   3.257
 3692SOL    HW211535   3.009   1.321   3.251
 3693SOL     OW11536   3.454   1.629   3.487
 3693SOL    HW111537   3.481   1.663   3.397
 3693SOL    HW211538   3.533   1.591   3.533
 3694SOL     OW11539   2.973   1.195   2.962
 3694SOL    HW111540   2.933   1.239   3.043
 3694SOL    HW211541   2.932   1.232   2.879
 3695SOL     OW11542   3.500   1.099   2.941
 3695SOL    HW111543   3.505   1.180   3.000
 3695SOL    HW211544   3.414   1.101   2.890
 3696SOL     OW11545   2.777   0.089   3.264
 3696SOL    HW111546   2.802   0.069   3.169
 3696SOL    HW211547   2.849   0.145   3.306
 3697SOL     OW11548   2.842   1.116   3.581
 3697SOL    HW111549   2.743   1.122   3.591
 3697SOL    HW211550   2.865   1.036   3.525
 3698SOL     OW11551   2.567   1.050   2.230
 3698SOL    HW111552   2.553   1.057   2.329
 3698SOL    HW211553   2.651   0.999   2.212
 3699SOL     OW11554   2.272   0.813   3.113
 3699SOL    HW111555   2.358   0.825   3.163
 3699SOL    HW211556   2.230   0.726   3.140
 3700SOL     OW11557   3.136   0.386   3.124
 3700SOL    HW111558   3.157   0.460   3.188
 3700SOL    HW211559   3.047   0.403   3.081
 3701SOL     OW11560   1.926   1.564   3.193
 3701SOL    HW111561   1.880   1.646   3.159
 3701SOL    HW211562   2.024   1.583   3.202
 3702SOL     OW11563   2.229   1.100   2.363
 3702SOL    HW111564   2.222   1.183   2.307
 3702SOL    HW211565   2.233   1.020   2.303
 3703SOL     OW11566   2.428   0.537   2.727
 3703SOL    HW111567   2.440   0.603   2.653
 3703SOL    HW211568   2.474   0.571   2.810
 3704SOL     OW11569   3.114   1.348   2.250
 3704SOL    HW111570   3.164   1.425   2.290
 3704SOL    HW211571   3.019   1.350   2.282
 3705SOL     OW11572   3.134   1.445   3.004
 3705SOL    HW111573   3.181   1.458   3.091
 3705SOL    HW211574   3.068   1.371   3.013
 3706SOL     OW11575   3.444   0.639   2.334
 3706SOL    HW111576   3.413   0.700   2.407
 3706SOL    HW211577   3.494   0.691   2.265
 3707SOL     OW11578   2.216   1.510   3.191
 3707SOL    HW111579   2.195   1.466   3.104
 3707SOL    HW211580   2.313   1.536   3.194
 3708SOL     OW11581   2.264   0.751   3.460
 3708SOL    HW111582   2.332   0.806   3.413
 3708SOL    HW211583   2.304   0.663   3.487
 3709SOL     OW11584   3.449   0.779   3.532
 3709SOL    HW111585   3.357   0.817   3.527
 3709SOL    HW211586   3.509   0.826   3.467
 3710SOL     OW11587   2.875   0.105   3.632
 3710SOL    HW111588   2.881   0.190   3.580
 3710SOL    HW211589   2.907   0.029   3.575
 3711SOL     OW11590   2.366   0.050   3.602
 3711SOL    HW111591   2.324  -0.007   3.532
 3711SOL    HW211592   2.300   0.119   3.634
 3712SOL     OW11593   2.435   0.870   2.891
 3712SOL    HW111594   2.479   0.959   2.882
 3712SOL    HW211595   2.372   0.870   2.968
 3713SOL     OW11596   3.222   0.862   2.907
 3713SOL    HW111597   3.147   0.862   2.841
 3713SOL    HW211598   3.259   0.770   2.916
 3714SOL     OW11599   3.071   0.525   2.137
 3714SOL    HW111600   3.084   0.441   2.191
 3714SOL    HW211601   3.042   0.599   2.197
 3715SOL     OW11602   2.169   0.213   3.093
 3715SOL    HW111603   2.146   0.250   3.183
 3715SOL    HW211604   2.139   0.118   3.087
 3716SOL     OW11605   1.899   1.310   3.144
 3716SOL    HW111606   1.952   1.261   3.212
 3716SOL    HW211607   1.921   1.408   3.149
 3717SOL     OW11608   2.594   0.634   2.926
 3717SOL    HW111609   2.653   0.608   2.850
 3717SOL    HW211610   2.566   0.730   2.915
 3718SOL     OW11611   3.590   0.935   3.716
 3718SOL    HW111612   3.544   0.928   3.627
 3718SOL    HW211613   3.528   0.979   3.782
 3719SOL     OW11614   2.169   0.063   2.480
 3719SOL    HW111615   2.158   0.157   2.513
 3719SOL    HW211616   2.164   0.000   2.557
 3720SOL     OW11617   3.484   0.367   2.236
 3720SOL    HW111618   3.486   0.291   2.300
 3720SOL    HW211619   3.436   0.444   2.276
 3721SOL     OW11620   2.885   0.766   2.828
 3721SOL    HW111621   2.900   0.787   2.924
 3721SOL    HW211622   2.855   0.671   2.819
 3722SOL     OW11623   2.842   1.573   3.562
 3722SOL    HW111624   2.822   1.617   3.474
 3722SOL    HW211625   2.881   1.482   3.546
 3723SOL     OW11626   3.721   1.518   3.467
 3723SOL    HW111627   3.735   1.545   3.372
 3723SOL    HW211628   3.804   1.540   3.520
 3724SOL     OW11629   2.212   0.898   3.666
 3724SOL    HW111630   2.288   0.942   3.714
 3724SOL    HW211631   2.247   0.851   3.584
 3725SOL     OW11632   3.402   0.274   1.987
 3725SOL    HW111633   3.341   0.199   2.010
 3725SOL    HW211634   3.424   0.326   2.070
 3726SOL     OW11635   3.165   0.838   1.904
 3726SOL    HW111636   3.199   0.745   1.919
 3726SOL    HW211637   3.183   0.865   1.809
 3727SOL     OW11638   2.930   1.333   2.711
 3727SOL    HW111639   2.937   1.249   2.656
 3727SOL    HW211640   2.992   1.402   2.675
 3728SOL     OW11641   2.181   0.810   2.811
 3728SOL    HW111642   2.274   0.846   2.816
 3728SOL    HW211643   2.175   0.725   2.863
 3729SOL     OW11644   2.201   0.509   2.868
 3729SOL    HW111645   2.149   0.426   2.851
 3729SOL    HW211646   2.278   0.514   2.804
 3730SOL     OW11647   3.000   0.380   3.540
 3730SOL    HW111648   2.955   0.443   3.604
 3730SOL    HW211649   3.093   0.411   3.523
 3731SOL     OW11650   3.022   0.207   3.339
 3731SOL    HW111651   3.022   0.271   3.416
 3731SOL    HW211652   3.050   0.255   3.256
 3732SOL     OW11653   1.870   1.326   2.062
 3732SOL    HW111654   1.777   1.347   2.031
 3732SOL    HW211655   1.880   1.227   2.075
 3733SOL     OW11656   1.950   1.801   2.789
 3733SOL    HW111657   1.908   1.715   2.762
 3733SOL    HW211658   2.044   1.804   2.755
 3734SOL     OW11659   2.366   1.568   2.772
 3734SOL    HW111660   2.432   1.642   2.781
 3734SOL    HW211661   2.410   1.489   2.730
 3735SOL     OW11662   2.864   0.796   3.100
 3735SOL    HW111663   2.905   0.764   3.186
 3735SOL    HW211664   2.768   0.769   3.097
 3736SOL     OW11665   1.902   0.544   2.976
 3736SOL    HW111666   1.987   0.511   2.935
 3736SOL    HW211667   1.915   0.559   3.074
 3737SOL     OW11668   2.051   0.520   3.584
 3737SOL    HW111669   2.110   0.480   3.514
 3737SOL    HW211670   1.993   0.591   3.543
 3738SOL     OW11671   3.231   0.950   3.522
 3738SOL    HW111672   3.270   1.039   3.542
 3738SOL    HW211673   3.241   0.930   3.425
 3739SOL     OW11674   2.677   0.572   2.187
 3739SOL    HW111675   2.684   0.483   2.141
 3739SOL    HW211676   2.583   0.606   2.179
 3740SOL     OW11677   3.519   0.604   3.068
 3740SOL    HW111678   3.481   0.535   3.130
 3740SOL    HW211679   3.601   0.568   3.024
 3741SOL     OW11680   2.114   1.564   3.606
 3741SOL    HW111681   2.084   1.621   3.682
 3741SOL    HW211682   2.107   1.467   3.632
 3742SOL     OW11683   2.533   0.464   3.131
 3742SOL    HW111684   2.499   0.375   3.101
 3742SOL    HW211685   2.559   0.518   3.051
 3743SOL     OW11686   2.792   1.678   3.327
 3743SOL    HW111687   2.768   1.660   3.232
 3743SOL    HW211688   2.822   1.772   3.337
 3744SOL     OW11689   2.335   0.500   2.053
 3744SOL    HW111690   2.396   0.580   2.057
 3744SOL    HW211691   2.240   0.531   2.060
 3745SOL     OW11692   2.021   1.137   3.328
 3745SOL    HW111693   2.043   1.076   3.404
 3745SOL    HW211694   2.031   1.088   3.242
 3746SOL     OW11695   3.209   1.059   3.096
 3746SOL    HW111696   3.233   0.996   3.022
 3746SOL    HW211697   3.119   1.099   3.078
 3747SOL     OW11698   3.164   0.855   2.171
 3747SOL    HW111699   3.078   0.824   2.213
 3747SOL    HW211700   3.160   0.841   2.072
 3748SOL     OW11701   3.621   1.747   3.016
 3748SOL    HW111702   3.682   1.777   2.943
 3748SOL    HW211703   3.583   1.658   2.994
 3749SOL     OW11704   3.114   1.731   2.990
 3749SOL    HW111705   3.198   1.736   2.936
 3749SOL    HW211706   3.091   1.635   3.008
 3750SOL     OW11707   1.945   1.258   2.884
 3750SOL    HW111708   1.940   1.257   2.984
 3750SOL    HW211709   1.862   1.217   2.846
 3751SOL     OW11710   2.550   1.662   3.578
 3751SOL    HW111711   2.494   1.743   3.587
 3751SOL    HW211712   2.602   1.666   3.492
 3752SOL     OW11713   3.588   0.135   2.385
 3752SOL    HW111714   3.661   0.118   2.318
 3752SOL    HW211715   3.557   0.048   2.423
 3753SOL     OW11716   3.250   1.573   2.339
 3753SOL    HW111717   3.317   1.585   2.265
 3753SOL    HW211718   3.210   1.662   2.362
 3754SOL     OW11719   1.992   1.794   3.713
 3754SOL    HW111720   1.951   1.720   3.766
 3754SOL    HW211721   2.056   1.845   3.771
 3755SOL     OW11722   3.142   0.927   2.534
 3755SOL    HW111723   3.202   0.846   2.536
 3755SOL    HW211724   3.182   0.996   2.474
 3756SOL     OW11725   2.692   1.273   3.284
 3756SOL    HW111726   2.687   1.306   3.379
 3756SOL    HW211727   2.606   1.292   3.238
 3757SOL     OW11728   2.534   1.616   2.016
 3757SOL    HW111729   2.543   1.626   1.917
 3757SOL    HW211730   2.494   1.527   2.037
 3758SOL     OW11731   3.512   1.720   3.256
 3758SOL    HW111732   3.565   1.730   3.172
 3758SOL    HW211733   3.485   1.810   3.290
 3759SOL     OW11734   3.703   0.175   2.825
 3759SOL    HW111735   3.742   0.090   2.789
 3759SOL    HW211736   3.605   0.177   2.806
 3760SOL     OW11737   2.125   0.326   2.582
 3760SOL    HW111738   2.046   0.377   2.548
 3760SOL    HW211739   2.116   0.311   2.680
 3761SOL     OW11740   3.056   1.612   1.893
 3761SOL    HW111741   3.062   1.519   1.930
 3761SOL    HW211742   2.997   1.612   1.813
 3762SOL     OW11743   2.684   1.002   3.234
 3762SOL    HW111744   2.724   1.001   3.142
 3762SOL    HW211745   2.694   1.094   3.274
 3763SOL     OW11746   2.778   0.910   2.153
 3763SOL    HW111747   2.841   0.948   2.085
 3763SOL    HW211748   2.818   0.827   2.192
 3764SOL     OW11749   3.366   1.607   1.906
 3764SOL    HW111750   3.274   1.644   1.913
 3764SOL    HW211751   3.404   1.627   1.816
 3765SOL     OW11752   2.234   1.288   3.352
 3765SOL    HW111753   2.221   1.381   3.318
 3765SOL    HW211754   2.150   1.236   3.339
 3766SOL     OW11755   3.476   1.292   3.151
 3766SOL    HW111756   3.536   1.295   3.231
 3766SOL    HW211757   3.401   1.356   3.164
 3767SOL     OW11758   2.901   1.098   2.558
 3767SOL    HW111759   2.831   1.051   2.612
 3767SOL    HW211760   2.960   1.030   2.515
 3768SOL     OW11761   2.876   0.236   2.833
 3768SOL    HW111762   2.868   0.200   2.740
 3768SOL    HW211763   2.874   0.160   2.898
 3769SOL     OW11764   2.452   1.487   2.353
 3769SOL    HW111765   2.494   1.429   2.283
 3769SOL    HW211766   2.408   1.566   2.309
 3770SOL     OW11767   3.571   0.385   3.243
 3770SOL    HW111768   3.644   0.454   3.247
 3770SOL    HW211769   3.599   0.310   3.184
 3771SOL     OW11770   2.117   1.348   2.152
 3771SOL    HW111771   2.021   1.349   2.125
 3771SOL    HW211772   2.129   1.401   2.236
 3772SOL     OW11773   1.967   1.013   3.588
 3772SOL    HW111774   1.890   0.980   3.642
 3772SOL    HW211775   2.052   0.983   3.630
 3773SOL     OW11776   2.534   0.203   3.351
 3773SOL    HW111777   2.624   0.187   3.311
 3773SOL    HW211778   2.542   0.208   3.450
 3774SOL     OW11779   1.937   0.345   1.895
 3774SOL    HW111780   1.845   0.317   1.866
 3774SOL    HW211781   1.968   0.422   1.839
 3775SOL     OW11782   3.302   0.856   3.260
 3775SOL    HW111783   3.245   0.908   3.197
 3775SOL    HW211784   3.398   0.868   3.236
 3776SOL     OW11785   1.934   0.166   2.180
 3776SOL    HW111786   1.917   0.249   2.126
 3776SOL    HW211787   2.024   0.129   2.158
 3777SOL     OW11788   3.045   1.335   1.981
 3777SOL    HW111789   2.946   1.324   1.983
 3777SOL    HW211790   3.079   1.350   2.074
 3778SOL     OW11791   2.475   0.842   3.293
 3778SOL    HW111792   2.531   0.923   3.276
 3778SOL    HW211793   2.534   0.762   3.296
 3779SOL     OW11794   3.355   1.767   2.821
 3779SOL    HW111795   3.388   1.831   2.752
 3779SOL    HW211796   3.421   1.761   2.896
 3780SOL     OW11797   2.578   0.565   3.570
 3780SOL    HW111798   2.597   0.630   3.644
 3780SOL    HW211799   2.638   0.485   3.579
 3781SOL     OW11800   3.312   1.220   3.495
 3781SOL    HW111801   3.303   1.210   3.594
 3781SOL    HW211802   3.408   1.213   3.469
 3782SOL     OW11803   2.252   1.741   3.422
 3782SOL    HW111804   2.161   1.782   3.420
 3782SOL    HW211805   2.245   1.647   3.454
 3783SOL     OW11806   3.536   0.883   3.116
 3783SOL    HW111807   3.509   0.794   3.079
 3783SOL    HW211808   3.537   0.951   3.043
 3784SOL     OW11809   3.087   0.325   2.311
 3784SOL    HW111810   3.152   0.251   2.300
 3784SOL    HW211811   3.107   0.375   2.395
 3785SOL     OW11812   2.456   0.745   2.514
 3785SOL    HW111813   2.506   0.830   2.495
 3785SOL    HW211814   2.368   0.747   2.466
 3786SOL     OW11815   3.639   0.342   3.504
 3786SOL    HW111816   3.622   0.373   3.410
 3786SOL    HW211817   3.555   0.305   3.542
 3787SOL     OW11818   3.592   0.934   3.379
 3787SOL    HW111819   3.630   1.025   3.394
 3787SOL    HW211820   3.584   0.917   3.280
 3788SOL     OW11821   2.721   1.374   1.878
 3788SOL    HW111822   2.675   1.389   1.966
 3788SOL    HW211823   2.765   1.459   1.848
 3789SOL     OW11824   2.523   1.790   2.815
 3789SOL    HW111825   2.477   1.878   2.802
 3789SOL    HW211826   2.622   1.802   2.808
 3790SOL     OW11827   2.721   0.956   2.723
 3790SOL    HW111828   2.775   0.887   2.771
 3790SOL    HW211829   2.689   1.025   2.789
 3791SOL     OW11830   2.945   0.984   1.949
 3791SOL    HW111831   2.922   1.037   1.867
 3791SOL    HW211832   3.026   0.928   1.930
 3792SOL     OW11833   3.723   1.569   2.713
 3792SOL    HW111834   3.652   1.557   2.643
 3792SOL    HW211835   3.724   1.490   2.773
 3793SOL     OW11836   2.083   1.314   3.706
 3793SOL    HW111837   2.018   1.241   3.685
 3793SOL    HW211838   2.087   1.328   3.804
 3794SOL     OW11839   1.941   1.240   2.515
 3794SOL    HW111840   1.940   1.193   2.603
 3794SOL    HW211841   2.023   1.212   2.464
 3795SOL     OW11842   2.534   1.391   3.486
 3795SOL    HW111843   2.456   1.341   3.524
 3795SOL    HW211844   2.531   1.486   3.517
 3796SOL     OW11845   3.686   0.192   3.089
 3796SOL    HW111846   3.682   0.102   3.133
 3796SOL    HW211847   3.689   0.181   2.990
 3797SOL     OW11848   2.290   0.424   2.382
 3797SOL    HW111849   2.320   0.352   2.320
 3797SOL    HW211850   2.251   0.384   2.465
 3798SOL     OW11851   3.567   1.487   2.966
 3798SOL    HW111852   3.474   1.462   2.939
 3798SOL    HW211853   3.593   1.437   3.048
 3799SOL     OW11854   2.179   0.547   3.142
 3799SOL    HW111855   2.217   0.488   3.214
 3799SOL    HW211856   2.219   0.521   3.054
 3800SOL     OW11857   2.674   1.586   2.549
 3800SOL    HW111858   2.706   1.596   2.455
 3800SOL    HW211859   2.595   1.524   2.551
 3801SOL     OW11860   3.286   0.214   2.974
 3801SOL    HW111861   3.338   0.149   3.029
 3801SOL    HW211862   3.237   0.277   3.035
 3802SOL     OW11863   2.863   0.034   3.016
 3802SOL    HW111864   2.800  -0.038   2.985
 3802SOL    HW211865   2.956  -0.002   3.016
 3803SOL     OW11866   2.632   1.330   2.163
 3803SOL    HW111867   2.586   1.243   2.180
 3803SOL    HW211868   2.723   1.327   2.204
 3804SOL     OW11869   2.480   1.567   3.146
 3804SOL    HW111870   2.475   1.649   3.203
 3804SOL    HW211871   2.569   1.564   3.101
 3805SOL     OW11872   3.214   0.052   2.030
 3805SOL    HW111873   3.249   0.011   1.946
 3805SOL    HW211874   3.124   0.014   2.050
 3806SOL     OW11875   3.162   0.453   2.553
 3806SOL    HW111876   3.103   0.533   2.557
 3806SOL    HW211877   3.177   0.418   2.646
 3807SOL     OW11878   3.455   0.221   2.744
 3807SOL    HW111879   3.371   0.220   2.798
 3807SOL    HW211880   3.457   0.304   2.688
 3808SOL     OW11881   1.901   1.077   2.162
 3808SOL    HW111882   2.000   1.066   2.153
 3808SOL    HW211883   1.861   0.991   2.194
 3809SOL     OW11884   2.737   1.646   2.199
 3809SOL    HW111885   2.660   1.611   2.145
 3809SOL    HW211886   2.705   1.717   2.261
 3810SOL     OW11887   2.092   0.628   3.837
 3810SOL    HW111888   1.999   0.626   3.874
 3810SOL    HW211889   2.093   0.589   3.745
 3811SOL     OW11890   2.087   0.275   4.720
 3811SOL    HW111891   2.122   0.258   4.812
 3811SOL    HW211892   1.999   0.230   4.708
 3812SOL     OW11893   1.881   0.368   4.371
 3812SOL    HW111894   1.799   0.411   4.410
 3812SOL    HW211895   1.853   0.295   4.308
 3813SOL     OW11896   2.431   1.275   4.889
 3813SOL    HW111897   2.338   1.268   4.852
 3813SOL    HW211898   2.442   1.364   4.933
 3814SOL     OW11899   3.417   1.511   4.427
 3814SOL    HW111900   3.360   1.495   4.508
 3814SOL    HW211901   3.358   1.521   4.347
 3815SOL     OW11902   2.997   0.703   4.441
 3815SOL    HW111903   3.054   0.781   4.416
 3815SOL    HW211904   2.937   0.729   4.517
 3816SOL     OW11905   3.617   0.607   3.955
 3816SOL    HW111906   3.605   0.594   3.856
 3816SOL    HW211907   3.587   0.526   4.004
 3817SOL     OW11908   2.630   1.144   4.747
 3817SOL    HW111909   2.552   1.161   4.807
 3817SOL    HW211910   2.664   1.231   4.711
 3818SOL     OW11911   2.712   0.798   5.547
 3818SOL    HW111912   2.708   0.874   5.612
 3818SOL    HW211913   2.734   0.834   5.456
 3819SOL     OW11914   2.547   1.012   4.389
 3819SOL    HW111915   2.616   0.996   4.459
 3819SOL    HW211916   2.474   1.069   4.427
 3820SOL     OW11917   2.548   1.161   5.527
 3820SOL    HW111918   2.608   1.240   5.541
 3820SOL    HW211919   2.462   1.192   5.486
 3821SOL     OW11920   2.197   1.435   4.785
 3821SOL    HW111921   2.119   1.404   4.732
 3821SOL    HW211922   2.255   1.493   4.728
 3822SOL     OW11923   3.322   1.505   5.063
 3822SOL    HW111924   3.346   1.599   5.089
 3822SOL    HW211925   3.306   1.451   5.145
 3823SOL     OW11926   2.300   0.392   5.223
 3823SOL    HW111927   2.382   0.336   5.232
 3823SOL    HW211928   2.219   0.334   5.227
 3824SOL     OW11929   3.465   0.447   4.461
 3824SOL    HW111930   3.391   0.493   4.411
 3824SOL    HW211931   3.516   0.515   4.514
 3825SOL     OW11932   2.093   1.713   4.207
 3825SOL    HW111933   2.127   1.790   4.261
 3825SOL    HW211934   2.137   1.713   4.117
 3826SOL     OW11935   2.989   1.341   5.414
 3826SOL    HW111936   3.036   1.341   5.502
 3826SOL    HW211937   2.941   1.254   5.403
 3827SOL     OW11938   2.092   1.434   4.262
 3827SOL    HW111939   2.066   1.530   4.262
 3827SOL    HW211940   2.021   1.380   4.307
 3828SOL     OW11941   2.102   1.091   4.610
 3828SOL    HW111942   2.116   1.007   4.662
 3828SOL    HW211943   2.047   1.155   4.665
 3829SOL     OW11944   2.482   1.786   5.163
 3829SOL    HW111945   2.390   1.769   5.198
 3829SOL    HW211946   2.510   1.878   5.189
 3830SOL     OW11947   2.468   0.964   3.847
 3830SOL    HW111948   2.475   1.048   3.793
 3830SOL    HW211949   2.514   0.977   3.935
 3831SOL     OW11950   3.456   0.114   5.204
 3831SOL    HW111951   3.438   0.181   5.132
 3831SOL    HW211952   3.453   0.160   5.293
 3832SOL     OW11953   1.984   0.643   4.287
 3832SOL    HW111954   1.939   0.555   4.304
 3832SOL    HW211955   1.983   0.697   4.371
 3833SOL     OW11956   3.704   1.767   4.083
 3833SOL    HW111957   3.758   1.738   4.163
 3833SOL    HW211958   3.734   1.857   4.054
 3834SOL     OW11959   1.889   1.596   3.841
 3834SOL    HW111960   1.870   1.500   3.862
 3834SOL    HW211961   1.856   1.654   3.916
 3835SOL     OW11962   3.551   0.922   4.336
 3835SOL    HW111963   3.646   0.893   4.344
 3835SOL    HW211964   3.543   0.987   4.261
 3836SOL     OW11965   3.503   1.108   4.156
 3836SOL    HW111966   3.589   1.110   4.104
 3836SOL    HW211967   3.517   1.155   4.244
 3837SOL     OW11968   1.975   0.737   5.321
 3837SOL    HW111969   2.063   0.724   5.366
 3837SOL    HW211970   1.962   0.834   5.299
 3838SOL     OW11971   2.475   1.365   4.450
 3838SOL    HW111972   2.426   1.278   4.459
 3838SOL    HW211973   2.452   1.408   4.363
 3839SOL     OW11974   3.155   1.228   5.147
 3839SOL    HW111975   3.192   1.155   5.089
 3839SOL    HW211976   3.207   1.233   5.232
 3840SOL     OW11977   2.671   0.004   4.226
 3840SOL    HW111978   2.711   0.095   4.217
 3840SOL    HW211979   2.571   0.012   4.232
 3841SOL     OW11980   2.059   0.976   4.988
 3841SOL    HW111981   2.148   0.931   4.974
 3841SOL    HW211982   1.986   0.911   4.969
 3842SOL     OW11983   3.387   0.999   3.914
 3842SOL    HW111984   3.324   0.923   3.927
 3842SOL    HW211985   3.435   1.017   4.000
 3843SOL     OW11986   3.049   1.792   5.340
 3843SOL    HW111987   3.073   1.852   5.264
 3843SOL    HW211988   3.056   1.697   5.310
 3844SOL     OW11989   2.179   0.251   5.525
 3844SOL    HW111990   2.250   0.322   5.531
 3844SOL    HW211991   2.091   0.290   5.553
 3845SOL     OW11992   3.328   1.417   4.677
 3845SOL    HW111993   3.269   1.423   4.757
 3845SOL    HW211994   3.313   1.329   4.631
 3846SOL     OW11995   3.529   1.714   4.296
 3846SOL    HW111996   3.488   1.691   4.208
 3846SOL    HW211997   3.511   1.640   4.361
 3847SOL     OW11998   2.460   0.729   3.994
 3847SOL    HW111999   2.484   0.798   3.926
 3847SOL    HW212000   2.382   0.762   4.048
 3848SOL     OW12001   3.143   0.345   4.668
 3848SOL    HW112002   3.057   0.295   4.655
 3848SOL    HW212003   3.205   0.291   4.724
 3849SOL     OW12004   3.438   1.662   4.031
 3849SOL    HW112005   3.527   1.708   4.034
 3849SOL    HW212006   3.417   1.638   3.936
 3850SOL     OW12007   2.669   0.605   5.189
 3850SOL    HW112008   2.622   0.602   5.278
 3850SOL    HW212009   2.618   0.550   5.123
 3851SOL     OW12010   3.256   0.469   5.398
 3851SOL    HW112011   3.236   0.512   5.486
 3851SOL    HW212012   3.334   0.407   5.407
 3852SOL     OW12013   2.835   0.890   5.296
 3852SOL    HW112014   2.881   0.806   5.267
 3852SOL    HW212015   2.779   0.924   5.221
 3853SOL     OW12016   2.853   0.410   4.966
 3853SOL    HW112017   2.776   0.444   5.020
 3853SOL    HW212018   2.819   0.359   4.887
 3854SOL     OW12019   2.903   0.701   4.153
 3854SOL    HW112020   2.929   0.697   4.249
 3854SOL    HW212021   2.818   0.650   4.139
 3855SOL     OW12022   1.938   0.811   4.513
 3855SOL    HW112023   2.037   0.799   4.522
 3855SOL    HW212024   1.914   0.906   4.534
 3856SOL     OW12025   2.727   0.348   3.919
 3856SOL    HW112026   2.786   0.411   3.870
 3856SOL    HW212027   2.746   0.254   3.890
 3857SOL     OW12028   3.581   0.585   5.555
 3857SOL    HW112029   3.555   0.674   5.519
 3857SOL    HW212030   3.579   0.517   5.482
 3858SOL     OW12031   3.224   1.144   4.269
 3858SOL    HW112032   3.307   1.115   4.221
 3858SOL    HW212033   3.175   1.211   4.213
 3859SOL     OW12034   2.412   0.196   4.609
 3859SOL    HW112035   2.407   0.191   4.709
 3859SOL    HW212036   2.414   0.292   4.580
 3860SOL     OW12037   2.870   1.456   4.201
 3860SOL    HW112038   2.824   1.528   4.149
 3860SOL    HW212039   2.866   1.476   4.299
 3861SOL     OW12040   2.213   1.801   4.577
 3861SOL    HW112041   2.263   1.715   4.583
 3861SOL    HW212042   2.278   1.878   4.574
 3862SOL     OW12043   3.657   1.066   4.597
 3862SOL    HW112044   3.595   1.051   4.521
 3862SOL    HW212045   3.605   1.077   4.682
 3863SOL     OW12046   3.089   1.550   5.230
 3863SOL    HW112047   3.095   1.473   5.294
 3863SOL    HW212048   3.037   1.524   5.150
 3864SOL     OW12049   2.183   0.943   3.966
 3864SOL    HW112050   2.265   0.982   3.924
 3864SOL    HW212051   2.156   0.861   3.917
 3865SOL     OW12052   3.320   0.735   4.452
 3865SOL    HW112053   3.315   0.670   4.527
 3865SOL    HW212054   3.400   0.794   4.465
 3866SOL     OW12055   2.323   1.266   5.451
 3866SOL    HW112056   2.273   1.267   5.365
 3866SOL    HW212057   2.260   1.248   5.527
 3867SOL     OW12058   2.973   1.776   3.961
 3867SOL    HW112059   2.913   1.714   4.011
 3867SOL    HW212060   3.004   1.732   3.876
 3868SOL     OW12061   2.064   0.285   5.222
 3868SOL    HW112062   1.984   0.345   5.209
 3868SOL    HW212063   2.054   0.236   5.308
 3869SOL     OW12064   3.494   1.377   3.805
 3869SOL    HW112065   3.462   1.471   3.795
 3869SOL    HW212066   3.418   1.314   3.793
 3870SOL     OW12067   2.326   1.743   4.047
 3870SOL    HW112068   2.359   1.782   4.133
 3870SOL    HW212069   2.402   1.736   3.982
 3871SOL     OW12070   3.262   0.107   4.150
 3871SOL    HW112071   3.238   0.070   4.060
 3871SOL    HW212072   3.361   0.123   4.154
 3872SOL     OW12073   2.111   1.785   4.965
 3872SOL    HW112074   2.168   1.720   5.015
 3872SOL    HW212075   2.095   1.752   4.872
 3873SOL     OW12076   2.802   1.698   4.628
 3873SOL    HW112077   2.882   1.641   4.649
 3873SOL    HW212078   2.753   1.658   4.551
 3874SOL     OW12079   2.244   0.700   4.204
 3874SOL    HW112080   2.289   0.610   4.201
 3874SOL    HW212081   2.150   0.689   4.237
 3875SOL     OW12082   3.409   0.222   5.453
 3875SOL    HW112083   3.404   0.259   5.545
 3875SOL    HW212084   3.337   0.153   5.441
 3876SOL     OW12085   2.476   0.122   3.841
 3876SOL    HW112086   2.574   0.100   3.848
 3876SOL    HW212087   2.445   0.105   3.748
 3877SOL     OW12088   2.643   0.264   5.473
 3877SOL    HW112089   2.710   0.203   5.516
 3877SOL    HW212090   2.570   0.283   5.538
 3878SOL     OW12091   2.750   1.514   4.919
 3878SOL    HW112092   2.727   1.489   4.825
 3878SOL    HW212093   2.811   1.445   4.958
 3879SOL     OW12094   3.213   0.590   5.157
 3879SOL    HW112095   3.241   0.547   5.242
 3879SOL    HW212096   3.238   0.686   5.158
 3880SOL     OW12097   2.665   1.402   4.648
 3880SOL    HW112098   2.755   1.416   4.606
 3880SOL    HW212099   2.594   1.404   4.577
 3881SOL     OW12100   2.784   0.503   4.623
 3881SOL    HW112101   2.759   0.494   4.527
 3881SOL    HW212102   2.832   0.421   4.654
 3882SOL     OW12103   2.401   0.064   4.236
 3882SOL    HW112104   2.320   0.065   4.294
 3882SOL    HW212105   2.404   0.147   4.181
 3883SOL     OW12106   3.296   1.188   3.765
 3883SOL    HW112107   3.328   1.112   3.822
 3883SOL    HW212108   3.204   1.215   3.795
 3884SOL     OW12109   2.159   0.035   3.895
 3884SOL    HW112110   2.208   0.119   3.874
 3884SOL    HW212111   2.221  -0.030   3.940
 3885SOL     OW12112   2.797   0.236   4.204
 3885SOL    HW112113   2.749   0.277   4.126
 3885SOL    HW212114   2.896   0.234   4.185
 3886SOL     OW12115   2.938   0.683   5.188
 3886SOL    HW112116   2.858   0.622   5.191
 3886SOL    HW212117   3.019   0.630   5.164
 3887SOL     OW12118   3.089   1.570   4.517
 3887SOL    HW112119   3.110   1.644   4.452
 3887SOL    HW212120   3.157   1.570   4.590
 3888SOL     OW12121   2.321   1.152   4.465
 3888SOL    HW112122   2.250   1.125   4.530
 3888SOL    HW212123   2.295   1.124   4.372
 3889SOL     OW12124   3.133   1.797   4.315
 3889SOL    HW112125   3.177   1.861   4.251
 3889SOL    HW212126   3.083   1.849   4.385
 3890SOL     OW12127   2.894   0.549   3.740
 3890SOL    HW112128   2.853   0.631   3.701
 3890SOL    HW212129   2.958   0.575   3.813
 3891SOL     OW12130   1.940   0.556   5.110
 3891SOL    HW112131   2.032   0.555   5.069
 3891SOL    HW212132   1.934   0.630   5.177
 3892SOL     OW12133   2.423   0.222   4.871
 3892SOL    HW112134   2.461   0.138   4.908
 3892SOL    HW212135   2.335   0.241   4.915
 3893SOL     OW12136   2.728   0.454   4.366
 3893SOL    HW112137   2.696   0.526   4.304
 3893SOL    HW212138   2.752   0.373   4.313
 3894SOL     OW12139   2.879   0.039   4.477
 3894SOL    HW112140   2.807   0.044   4.408
 3894SOL    HW212141   2.855  -0.030   4.546
 3895SOL     OW12142   3.291   1.173   4.591
 3895SOL    HW112143   3.236   1.089   4.584
 3895SOL    HW212144   3.317   1.202   4.499
 3896SOL     OW12145   3.328   0.590   4.716
 3896SOL    HW112146   3.298   0.495   4.723
 3896SOL    HW212147   3.401   0.606   4.782
 3897SOL     OW12148   3.719   0.833   4.101
 3897SOL    HW112149   3.761   0.769   4.165
 3897SOL    HW212150   3.681   0.782   4.023
 3898SOL     OW12151   2.350   1.385   3.898
 3898SOL    HW112152   2.263   1.370   3.945
 3898SOL    HW212153   2.333   1.411   3.803
 3899SOL     OW12154   3.526   1.280   4.381
 3899SOL    HW112155   3.625   1.288   4.395
 3899SOL    HW212156   3.481   1.364   4.412
 3900SOL     OW12157   3.252   0.575   3.802
 3900SOL    HW112158   3.198   0.554   3.883
 3900SOL    HW212159   3.343   0.534   3.811
 3901SOL     OW12160   2.389   0.256   4.052
 3901SOL    HW112161   2.416   0.197   3.977
 3901SOL    HW212162   2.389   0.351   4.021
 3902SOL     OW12163   3.616   1.223   5.312
 3902SOL    HW112164   3.707   1.184   5.299
 3902SOL    HW212165   3.624   1.319   5.336
 3903SOL     OW12166   2.926   1.347   5.064
 3903SOL    HW112167   2.846   1.324   5.119
 3903SOL    HW212168   3.009   1.321   5.113
 3904SOL     OW12169   3.454   1.629   5.349
 3904SOL    HW112170   3.481   1.663   5.259
 3904SOL    HW212171   3.533   1.591   5.395
 3905SOL     OW12172   2.973   1.195   4.824
 3905SOL    HW112173   2.933   1.239   4.905
 3905SOL    HW212174   2.932   1.232   4.741
 3906SOL     OW12175   3.500   1.099   4.803
 3906SOL    HW112176   3.505   1.180   4.862
 3906SOL    HW212177   3.414   1.101   4.752
 3907SOL     OW12178   2.777   0.089   5.126
 3907SOL    HW112179   2.802   0.069   5.031
 3907SOL    HW212180   2.849   0.145   5.168
 3908SOL     OW12181   2.842   1.116   5.443
 3908SOL    HW112182   2.743   1.122   5.453
 3908SOL    HW212183   2.865   1.036   5.387
 3909SOL     OW12184   2.567   1.050   4.092
 3909SOL    HW112185   2.553   1.057   4.191
 3909SOL    HW212186   2.651   0.999   4.074
 3910SOL     OW12187   2.272   0.813   4.975
 3910SOL    HW112188   2.358   0.825   5.025
 3910SOL    HW212189   2.230   0.726   5.002
 3911SOL     OW12190   3.136   0.386   4.986
 3911SOL    HW112191   3.157   0.460   5.050
 3911SOL    HW212192   3.047   0.403   4.943
 3912SOL     OW12193   1.926   1.564   5.055
 3912SOL    HW112194   1.880   1.646   5.021
 3912SOL    HW212195   2.024   1.583   5.064
 3913SOL     OW12196   2.229   1.100   4.225
 3913SOL    HW112197   2.222   1.183   4.169
 3913SOL    HW212198   2.233   1.020   4.165
 3914SOL     OW12199   2.428   0.537   4.589
 3914SOL    HW112200   2.440   0.603   4.515
 3914SOL    HW212201   2.474   0.571   4.672
 3915SOL     OW12202   3.114   1.348   4.112
 3915SOL    HW112203   3.164   1.425   4.152
 3915SOL    HW212204   3.019   1.350   4.144
 3916SOL     OW12205   3.134   1.445   4.866
 3916SOL    HW112206   3.181   1.458   4.953
 3916SOL    HW212207   3.068   1.371   4.875
 3917SOL     OW12208   3.444   0.639   4.196
 3917SOL    HW112209   3.413   0.700   4.269
 3917SOL    HW212210   3.494   0.691   4.127
 3918SOL     OW12211   2.216   1.510   5.053
 3918SOL    HW112212   2.195   1.466   4.966
 3918SOL    HW212213   2.313   1.536   5.056
 3919SOL     OW12214   2.264   0.751   5.322
 3919SOL    HW112215   2.332   0.806   5.275
 3919SOL    HW212216   2.304   0.663   5.349
 3920SOL     OW12217   3.449   0.779   5.394
 3920SOL    HW112218   3.357   0.817   5.389
 3920SOL    HW212219   3.509   0.826   5.329
 3921SOL     OW12220   2.875   0.105   5.494
 3921SOL    HW112221   2.881   0.190   5.442
 3921SOL    HW212222   2.907   0.029   5.437
 3922SOL     OW12223   2.366   0.050   5.464
 3922SOL    HW112224   2.324  -0.007   5.394
 3922SOL    HW212225   2.300   0.119   5.496
 3923SOL     OW12226   2.435   0.870   4.753
 3923SOL    HW112227   2.479   0.959   4.744
 3923SOL    HW212228   2.372   0.870   4.830
 3924SOL     OW12229   3.222   0.862   4.769
 3924SOL    HW112230   3.147   0.862   4.703
 3924SOL    HW212231   3.259   0.770   4.778
 3925SOL     OW12232   3.071   0.525   3.999
 3925SOL    HW112233   3.084   0.441   4.053
 3925SOL    HW212234   3.042   0.599   4.059
 3926SOL     OW12235   2.169   0.213   4.955
 3926SOL    HW112236   2.146   0.250   5.045
 3926SOL    HW212237   2.139   0.118   4.949
 3927SOL     OW12238   1.899   1.310   5.006
 3927SOL    HW112239   1.952   1.261   5.074
 3927SOL    HW212240   1.921   1.408   5.011
 3928SOL     OW12241   2.594   0.634   4.788
 3928SOL    HW112242   2.653   0.608   4.712
 3928SOL    HW212243   2.566   0.730   4.777
 3929SOL     OW12244   3.590   0.935   5.578
 3929SOL    HW112245   3.544   0.928   5.489
 3929SOL    HW212246   3.528   0.979   5.644
 3930SOL     OW12247   2.169   0.063   4.342
 3930SOL    HW112248   2.158   0.157   4.375
 3930SOL    HW212249   2.164   0.000   4.419
 3931SOL     OW12250   3.484   0.367   4.098
 3931SOL    HW112251   3.486   0.291   4.162
 3931SOL    HW212252   3.436   0.444   4.138
 3932SOL     OW12253   2.885   0.766   4.690
 3932SOL    HW112254   2.900   0.787   4.786
 3932SOL    HW212255   2.855   0.671   4.681
 3933SOL     OW12256   2.842   1.573   5.424
 3933SOL    HW112257   2.822   1.617   5.336
 3933SOL    HW212258   2.881   1.482   5.408
 3934SOL     OW12259   3.721   1.518   5.329
 3934SOL    HW112260   3.735   1.545   5.234
 3934SOL    HW212261   3.804   1.540   5.382
 3935SOL     OW12262   2.212   0.898   5.528
 3935SOL    HW112263   2.288   0.942   5.576
 3935SOL    HW212264   2.247   0.851   5.446
 3936SOL     OW12265   3.402   0.274   3.849
 3936SOL    HW112266   3.341   0.199   3.872
 3936SOL    HW212267   3.424   0.326   3.932
 3937SOL     OW12268   3.165   0.838   3.766
 3937SOL    HW112269   3.199   0.745   3.781
 3937SOL    HW212270   3.183   0.865   3.671
 3938SOL     OW12271   2.930   1.333   4.573
 3938SOL    HW112272   2.937   1.249   4.518
 3938SOL    HW212273   2.992   1.402   4.537
 3939SOL     OW12274   2.181   0.810   4.673
 3939SOL    HW112275   2.274   0.846   4.678
 3939SOL    HW212276   2.175   0.725   4.725
 3940SOL     OW12277   2.201   0.509   4.730
 3940SOL    HW112278   2.149   0.426   4.713
 3940SOL    HW212279   2.278   0.514   4.666
 3941SOL     OW12280   3.000   0.380   5.402
 3941SOL    HW112281   2.955   0.443   5.466
 3941SOL    HW212282   3.093   0.411   5.385
 3942SOL     OW12283   3.022   0.207   5.201
 3942SOL    HW112284   3.022   0.271   5.278
 3942SOL    HW212285   3.050   0.255   5.118
 3943SOL     OW12286   1.870   1.326   3.924
 3943SOL    HW112287   1.777   1.347   3.893
 3943SOL    HW212288   1.880   1.227   3.937
 3944SOL     OW12289   1.950   1.801   4.651
 3944SOL    HW112290   1.908   1.715   4.624
 3944SOL    HW212291   2.044   1.804   4.617
 3945SOL     OW12292   2.366   1.568   4.634
 3945SOL    HW112293   2.432   1.642   4.643
 3945SOL    HW212294   2.410   1.489   4.592
 3946SOL     OW12295   2.864   0.796   4.962
 3946SOL    HW112296   2.905   0.764   5.048
 3946SOL    HW212297   2.768   0.769   4.959
 3947SOL     OW12298   1.902   0.544   4.838
 3947SOL    HW112299   1.987   0.511   4.797
 3947SOL    HW212300   1.915   0.559   4.936
 3948SOL     OW12301   2.051   0.520   5.446
 3948SOL    HW112302   2.110   0.480   5.376
 3948SOL    HW212303   1.993   0.591   5.405
 3949SOL     OW12304   3.231   0.950   5.384
 3949SOL    HW112305   3.270   1.039   5.404
 3949SOL    HW212306   3.241   0.930   5.287
 3950SOL     OW12307   2.677   0.572   4.049
 3950SOL    HW112308   2.684   0.483   4.003
 3950SOL    HW212309   2.583   0.606   4.041
 3951SOL     OW12310   3.519   0.604   4.930
 3951SOL    HW112311   3.481   0.535   4.992
 3951SOL    HW212312   3.601   0.568   4.886
 3952SOL     OW12313   2.114   1.564   5.468
 3952SOL    HW112314   2.084   1.621   5.544
 3952SOL    HW212315   2.107   1.467   5.494
 3953SOL     OW12316   2.533   0.464   4.993
 3953SOL    HW112317   2.499   0.375   4.963
 3953SOL    HW212318   2.559   0.518   4.913
 3954SOL     OW12319   2.792   1.678   5.189
 3954SOL    HW112320   2.768   1.660   5.094
 3954SOL    HW212321   2.822   1.772   5.199
 3955SOL     OW12322   2.335   0.500   3.915
 3955SOL    HW112323   2.396   0.580   3.919
 3955SOL    HW212324   2.240   0.531   3.922
 3956SOL     OW12325   2.021   1.137   5.190
 3956SOL    HW112326   2.043   1.076   5.266
 3956SOL    HW212327   2.031   1.088   5.104
 3957SOL     OW12328   3.209   1.059   4.958
 3957SOL    HW112329   3.233   0.996   4.884
 3957SOL    HW212330   3.119   1.099   4.940
 3958SOL     OW12331   3.164   0.855   4.033
 3958SOL    HW112332   3.078   0.824   4.075
 3958SOL    HW212333   3.160   0.841   3.934
 3959SOL     OW12334   3.621   1.747   4.878
 3959SOL    HW112335   3.682   1.777   4.805
 3959SOL    HW212336   3.583   1.658   4.856
 3960SOL     OW12337   3.114   1.731   4.852
 3960SOL    HW112338   3.198   1.736   4.798
 3960SOL    HW212339   3.091   1.635   4.870
 3961SOL     OW12340   1.945   1.258   4.746
 3961SOL    HW112341   1.940   1.257   4.846
 3961SOL    HW212342   1.862   1.217   4.708
 3962SOL     OW12343   2.550   1.662   5.440
 3962SOL    HW112344   2.494   1.743   5.449
 3962SOL    HW212345   2.602   1.666   5.354
 3963SOL     OW12346   3.588   0.135   4.247
 3963SOL    HW112347   3.661   0.118   4.180
 3963SOL    HW212348   3.557   0.048   4.285
 3964SOL     OW12349   3.250   1.573   4.201
 3964SOL    HW112350   3.317   1.585   4.127
 3964SOL    HW212351   3.210   1.662   4.224
 3965SOL     OW12352   1.992   1.794   5.575
 3965SOL    HW112353   1.951   1.720   5.628
 3965SOL    HW212354   2.056   1.845   5.633
 3966SOL     OW12355   3.142   0.927   4.396
 3966SOL    HW112356   3.202   0.846   4.398
 3966SOL    HW212357   3.182   0.996   4.336
 3967SOL     OW12358   2.692   1.273   5.146
 3967SOL    HW112359   2.687   1.306   5.241
 3967SOL    HW212360   2.606   1.292   5.100
 3968SOL     OW12361   2.534   1.616   3.878
 3968SOL    HW112362   2.543   1.626   3.779
 3968SOL    HW212363   2.494   1.527   3.899
 3969SOL     OW12364   3.512   1.720   5.118
 3969SOL    HW112365   3.565   1.730   5.034
 3969SOL    HW212366   3.485   1.810   5.152
 3970SOL     OW12367   3.703   0.175   4.687
 3970SOL    HW112368   3.742   0.090   4.651
 3970SOL    HW212369   3.605   0.177   4.668
 3971SOL     OW12370   2.125   0.326   4.444
 3971SOL    HW112371   2.046   0.377   4.410
 3971SOL    HW212372   2.116   0.311   4.542
 3972SOL     OW12373   3.056   1.612   3.755
 3972SOL    HW112374   3.062   1.519   3.792
 3972SOL    HW212375   2.997   1.612   3.675
 3973SOL     OW12376   2.684   1.002   5.096
 3973SOL    HW112377   2.724   1.001   5.004
 3973SOL    HW212378   2.694   1.094   5.136
 3974SOL     OW12379   2.778   0.910   4.015
 3974SOL    HW112380   2.841   0.948   3.947
 3974SOL    HW212381   2.818   0.827   4.054
 3975SOL     OW12382   3.366   1.607   3.768
 3975SOL    HW112383   3.274   1.644   3.775
 3975SOL    HW212384   3.404   1.627   3.678
 3976SOL     OW12385   2.234   1.288   5.214
 3976SOL    HW112386   2.221   1.381   5.180
 3976SOL    HW212387   2.150   1.236   5.201
 3977SOL     OW12388   3.476   1.292   5.013
 3977SOL    HW112389   3.536   1.295   5.093
 3977SOL    HW212390   3.401   1.356   5.026
 3978SOL     OW12391   2.901   1.098   4.420
 3978SOL    HW112392   2.831   1.051   4.474
 3978SOL    HW212393   2.960   1.030   4.377
 3979SOL     OW12394   2.876   0.236   4.695
 3979SOL    HW112395   2.868   0.200   4.602
 3979SOL    HW212396   2.874   0.160   4.760
 3980SOL     OW12397   2.452   1.487   4.215
 3980SOL    HW112398   2.494   1.429   4.145
 3980SOL    HW212399   2.408   1.566   4.171
 3981SOL     OW12400   3.571   0.385   5.105
 3981SOL    HW112401   3.644   0.454   5.109
 3981SOL    HW212402   3.599   0.310   5.046
 3982SOL     OW12403   2.117   1.348   4.014
 3982SOL    HW112404   2.021   1.349   3.987
 3982SOL    HW212405   2.129   1.401   4.098
 3983SOL     OW12406   1.967   1.013   5.450
 3983SOL    HW112407   1.890   0.980   5.504
 3983SOL    HW212408   2.052   0.983   5.492
 3984SOL     OW12409   2.534   0.203   5.213
 3984SOL    HW112410   2.624   0.187   5.173
 3984SOL    HW212411   2.542   0.208   5.312
 3985SOL     OW12412   1.937   0.345   3.757
 3985SOL    HW112413   1.845   0.317   3.728
 3985SOL    HW212414   1.968   0.422   3.701
 3986SOL     OW12415   3.302   0.856   5.122
 3986SOL    HW112416   3.245   0.908   5.059
 3986SOL    HW212417   3.398   0.868   5.098
 3987SOL     OW12418   1.934   0.166   4.042
 3987SOL    HW112419   1.917   0.249   3.988
 3987SOL    HW212420   2.024   0.129   4.020
 3988SOL     OW12421   3.045   1.335   3.843
 3988SOL    HW112422   2.946   1.324   3.845
 3988SOL    HW212423   3.079   1.350   3.936
 3989SOL     OW12424   2.475   0.842   5.155
 3989SOL    HW112425   2.531   0.923   5.138
 3989SOL    HW212426   2.534   0.762   5.158
 3990SOL     OW12427   3.355   1.767   4.683
 3990SOL    HW112428   3.388   1.831   4.614
 3990SOL    HW212429   3.421   1.761   4.758
 3991SOL     OW12430   2.578   0.565   5.432
 3991SOL    HW112431   2.597   0.630   5.506
 3991SOL    HW212432   2.638   0.485   5.441
 3992SOL     OW12433   3.312   1.220   5.357
 3992SOL    HW112434   3.303   1.210   5.456
 3992SOL    HW212435   3.408   1.213   5.331
 3993SOL     OW12436   2.252   1.741   5.284
 3993SOL    HW112437   2.161   1.782   5.282
 3993SOL    HW212438   2.245   1.647   5.316
 3994SOL     OW12439   3.536   0.883   4.978
 3994SOL    HW112440   3.509   0.794   4.941
 3994SOL    HW212441   3.537   0.951   4.905
 3995SOL     OW12442   3.087   0.325   4.173
 3995SOL    HW112443   3.152   0.251   4.162
 3995SOL    HW212444   3.107   0.375   4.257
 3996SOL     OW12445   2.456   0.745   4.376
 3996SOL    HW112446   2.506   0.830   4.357
 3996SOL    HW212447   2.368   0.747   4.328
 3997SOL     OW12448   3.639   0.342   5.366
 3997SOL    HW112449   3.622   0.373   5.272
 3997SOL    HW212450   3.555   0.305   5.404
 3998SOL     OW12451   3.592   0.934   5.241
 3998SOL    HW112452   3.630   1.025   5.256
 3998SOL    HW212453   3.584   0.917   5.142
 3999SOL     OW12454   2.721   1.374   3.740
 3999SOL    HW112455   2.675   1.389   3.828
 3999SOL    HW212456   2.765   1.459   3.710
 4000SOL     OW12457   2.523   1.790   4.677
 4000SOL    HW112458   2.477   1.878   4.664
 4000SOL    HW212459   2.622   1.802   4.670
 4001SOL     OW12460   2.721   0.956   4.585
 4001SOL    HW112461   2.775   0.887   4.633
 4001SOL    HW212462   2.689   1.025   4.651
 4002SOL     OW12463   2.945   0.984   3.811
 4002SOL    HW112464   2.922   1.037   3.729
 4002SOL    HW212465   3.026   0.928   3.792
 4003SOL     OW12466   3.723   1.569   4.575
 4003SOL    HW112467   3.652   1.557   4.505
 4003SOL    HW212468   3.724   1.490   4.635
 4004SOL     OW12469   2.083   1.314   5.568
 4004SOL    HW112470   2.018   1.241   5.547
 4004SOL    HW212471   2.087   1.328   5.666
 4005SOL     OW12472   1.941   1.240   4.377
 4005SOL    HW112473   1.940   1.193   4.465
 4005SOL    HW212474   2.023   1.212   4.326
 4006SOL     OW12475   2.534   1.391   5.348
 4006SOL    HW112476   2.456   1.341   5.386
 4006SOL    HW212477   2.531   1.486   5.379
 4007SOL     OW12478   3.686   0.192   4.951
 4007SOL    HW112479   3.682   0.102   4.995
 4007SOL    HW212480   3.689   0.181   4.852
 4008SOL     OW12481   2.290   0.424   4.244
 4008SOL    HW112482   2.320   0.352   4.182
 4008SOL    HW212483   2.251   0.384   4.327
 4009SOL     OW12484   3.567   1.487   4.828
 4009SOL    HW112485   3.474   1.462   4.801
 4009SOL    HW212486   3.593   1.437   4.910
 4010SOL     OW12487   2.179   0.547   5.004
 4010SOL    HW112488   2.217   0.488   5.076
 4010SOL    HW212489   2.219   0.521   4.916
 4011SOL     OW12490   2.674   1.586   4.411
 4011SOL    HW112491   2.706   1.596   4.317
 4011SOL    HW212492   2.595   1.524   4.413
 4012SOL     OW12493   3.286   0.214   4.836
 4012SOL    HW112494   3.338   0.149   4.891
 4012SOL    HW212495   3.237   0.277   4.897
 4013SOL     OW12496   2.863   0.034   4.878
 4013SOL    HW112497   2.800  -0.038   4.847
 4013SOL    HW212498   2.956  -0.002   4.878
 4014SOL     OW12499   2.632   1.330   4.025
 4014SOL    HW112500   2.586   1.243   4.042
 4014SOL    HW212501   2.723   1.327   4.066
 4015SOL     OW12502   2.480   1.567   5.008
 4015SOL    HW112503   2.475   1.649   5.065
 4015SOL    HW212504   2.569   1.564   4.963
 4016SOL     OW12505   3.214   0.052   3.892
 4016SOL    HW112506   3.249   0.011   3.808
 4016SOL    HW212507   3.124   0.014   3.912
 4017SOL     OW12508   3.162   0.453   4.415
 4017SOL    HW112509   3.103   0.533   4.419
 4017SOL    HW212510   3.177   0.418   4.508
 4018SOL     OW12511   3.455   0.221   4.606
 4018SOL    HW112512   3.371   0.220   4.660
 4018SOL    HW212513   3.457   0.304   4.550
 4019SOL     OW12514   1.901   1.077   4.024
 4019SOL    HW112515   2.000   1.066   4.015
 4019SOL    HW212516   1.861   0.991   4.056
 4020SOL     OW12517   2.737   1.646   4.061
 4020SOL    HW112518   2.660   1.611   4.007
 4020SOL    HW212519   2.705   1.717   4.123
 4021SOL     OW12520   2.092   0.628   5.699
 4021SOL    HW112521   1.999   0.626   5.736
 4021SOL    HW212522   2.093   0.589   5.607
 4022SOL     OW12523   2.087   0.275   6.582
 4022SOL    HW112524   2.122   0.258   6.674
 4022SOL    HW212525   1.999   0.230   6.570
 4023SOL     OW12526   1.881   0.368   6.233
 4023SOL    HW112527   1.799   0.411   6.272
 4023SOL    HW212528   1.853   0.295   6.170
 4024SOL     OW12529   2.431   1.275   6.751
 4024SOL    HW112530   2.338   1.268   6.714
 4024SOL    HW212531   2.442   1.364   6.795
 4025SOL     OW12532   3.417   1.511   6.289
 4025SOL    HW112533   3.360   1.495   6.370
 4025SOL    HW212534   3.358   1.521   6.209
 4026SOL     OW12535   2.997   0.703   6.303
 4026SOL    HW112536   3.054   0.781   6.278
 4026SOL    HW212537   2.937   0.729   6.379
 4027SOL     OW12538   3.617   0.607   5.817
 4027SOL    HW112539   3.605   0.594   5.718
 4027SOL    HW212540   3.587   0.526   5.866
 4028SOL     OW12541   2.630   1.144   6.609
 4028SOL    HW112542   2.552   1.161   6.669
 4028SOL    HW212543   2.664   1.231   6.573
 4029SOL     OW12544   2.712   0.798   7.409
 4029SOL    HW112545   2.708   0.874   7.474
 4029SOL    HW212546   2.734   0.834   7.318
 4030SOL     OW12547   2.547   1.012   6.251
 4030SOL    HW112548   2.616   0.996   6.321
 4030SOL    HW212549   2.474   1.069   6.289
 4031SOL     OW12550   2.548   1.161   7.389
 4031SOL    HW112551   2.608   1.240   7.403
 4031SOL    HW212552   2.462   1.192   7.348
 4032SOL     OW12553   3.322   1.505   6.925
 4032SOL    HW112554   3.346   1.599   6.951
 4032SOL    HW212555   3.306   1.451   7.007
 4033SOL     OW12556   2.300   0.392   7.085
 4033SOL    HW112557   2.382   0.336   7.094
 4033SOL    HW212558   2.219   0.334   7.089
 4034SOL     OW12559   3.465   0.447   6.323
 4034SOL    HW112560   3.391   0.493   6.273
 4034SOL    HW212561   3.516   0.515   6.376
 4035SOL     OW12562   2.989   1.341   7.276
 4035SOL    HW112563   3.036   1.341   7.364
 4035SOL    HW212564   2.941   1.254   7.265
 4036SOL     OW12565   2.102   1.091   6.472
 4036SOL    HW112566   2.116   1.007   6.524
 4036SOL    HW212567   2.047   1.155   6.527
 4037SOL     OW12568   2.468   0.964   5.709
 4037SOL    HW112569   2.475   1.048   5.655
 4037SOL    HW212570   2.514   0.977   5.797
 4038SOL     OW12571   3.456   0.114   7.066
 4038SOL    HW112572   3.438   0.181   6.994
 4038SOL    HW212573   3.453   0.160   7.155
 4039SOL     OW12574   1.984   0.643   6.149
 4039SOL    HW112575   1.939   0.555   6.166
 4039SOL    HW212576   1.983   0.697   6.233
 4040SOL     OW12577   3.704   1.767   5.945
 4040SOL    HW112578   3.758   1.738   6.025
 4040SOL    HW212579   3.734   1.857   5.916
 4041SOL     OW12580   1.889   1.596   5.703
 4041SOL    HW112581   1.870   1.500   5.724
 4041SOL    HW212582   1.856   1.654   5.778
 4042SOL     OW12583   3.551   0.922   6.198
 4042SOL    HW112584   3.646   0.893   6.206
 4042SOL    HW212585   3.543   0.987   6.123
 4043SOL     OW12586   3.503   1.108   6.018
 4043SOL    HW112587   3.589   1.110   5.966
 4043SOL    HW212588   3.517   1.155   6.106
 4044SOL     OW12589   1.975   0.737   7.183
 4044SOL    HW112590   2.063   0.724   7.228
 4044SOL    HW212591   1.962   0.834   7.161
 4045SOL     OW12592   2.475   1.365   6.312
 4045SOL    HW112593   2.426   1.278   6.321
 4045SOL    HW212594   2.452   1.408   6.225
 4046SOL     OW12595   3.155   1.228   7.009
 4046SOL    HW112596   3.192   1.155   6.951
 4046SOL    HW212597   3.207   1.233   7.094
 4047SOL     OW12598   2.671   0.004   6.088
 4047SOL    HW112599   2.711   0.095   6.079
 4047SOL    HW212600   2.571   0.012   6.094
 4048SOL     OW12601   2.059   0.976   6.850
 4048SOL    HW112602   2.148   0.931   6.836
 4048SOL    HW212603   1.986   0.911   6.831
 4049SOL     OW12604   3.387   0.999   5.776
 4049SOL    HW112605   3.324   0.923   5.789
 4049SOL    HW212606   3.435   1.017   5.862
 4050SOL     OW12607   3.049   1.792   7.202
 4050SOL    HW112608   3.073   1.852   7.126
 4050SOL    HW212609   3.056   1.697   7.172
 4051SOL     OW12610   2.179   0.251   7.387
 4051SOL    HW112611   2.250   0.322   7.393
 4051SOL    HW212612   2.091   0.290   7.415
 4052SOL     OW12613   3.328   1.417   6.539
 4052SOL    HW112614   3.269   1.423   6.619
 4052SOL    HW212615   3.313   1.329   6.493
 4053SOL     OW12616   3.529   1.714   6.158
 4053SOL    HW112617   3.488   1.691   6.070
 4053SOL    HW212618   3.511   1.640   6.223
 4054SOL     OW12619   2.460   0.729   5.856
 4054SOL    HW112620   2.484   0.798   5.788
 4054SOL    HW212621   2.382   0.762   5.910
 4055SOL     OW12622   3.143   0.345   6.530
 4055SOL    HW112623   3.057   0.295   6.517
 4055SOL    HW212624   3.205   0.291   6.586
 4056SOL     OW12625   3.438   1.662   5.893
 4056SOL    HW112626   3.527   1.708   5.896
 4056SOL    HW212627   3.417   1.638   5.798
 4057SOL     OW12628   2.669   0.605   7.051
 4057SOL    HW112629   2.622   0.602   7.140
 4057SOL    HW212630   2.618   0.550   6.985
 4058SOL     OW12631   3.256   0.469   7.260
 4058SOL    HW112632   3.236   0.512   7.348
 4058SOL    HW212633   3.334   0.407   7.269
 4059SOL     OW12634   2.835   0.890   7.158
 4059SOL    HW112635   2.881   0.806   7.129
 4059SOL    HW212636   2.779   0.924   7.083
 4060SOL     OW12637   2.853   0.410   6.828
 4060SOL    HW112638   2.776   0.444   6.882
 4060SOL    HW212639   2.819   0.359   6.749
 4061SOL     OW12640   2.903   0.701   6.015
 4061SOL    HW112641   2.929   0.697   6.111
 4061SOL    HW212642   2.818   0.650   6.001
 4062SOL     OW12643   1.938   0.811   6.375
 4062SOL    HW112644   2.037   0.799   6.384
 4062SOL    HW212645   1.914   0.906   6.396
 4063SOL     OW12646   2.727   0.348   5.781
 4063SOL    HW112647   2.786   0.411   5.732
 4063SOL    HW212648   2.746   0.254   5.752
 4064SOL     OW12649   3.581   0.585   7.417
 4064SOL    HW112650   3.555   0.674   7.381
 4064SOL    HW212651   3.579   0.517   7.344
 4065SOL     OW12652   3.224   1.144   6.131
 4065SOL    HW112653   3.307   1.115   6.083
 4065SOL    HW212654   3.175   1.211   6.075
 4066SOL     OW12655   2.412   0.196   6.471
 4066SOL    HW112656   2.407   0.191   6.571
 4066SOL    HW212657   2.414   0.292   6.442
 4067SOL     OW12658   2.870   1.456   6.063
 4067SOL    HW112659   2.824   1.528   6.011
 4067SOL    HW212660   2.866   1.476   6.161
 4068SOL     OW12661   3.657   1.066   6.459
 4068SOL    HW112662   3.595   1.051   6.383
 4068SOL    HW212663   3.605   1.077   6.544
 4069SOL     OW12664   3.089   1.550   7.092
 4069SOL    HW112665   3.095   1.473   7.156
 4069SOL    HW212666   3.037   1.524   7.012
 4070SOL     OW12667   2.183   0.943   5.828
 4070SOL    HW112668   2.265   0.982   5.786
 4070SOL    HW212669   2.156   0.861   5.779
 4071SOL     OW12670   3.320   0.735   6.314
 4071SOL    HW112671   3.315   0.670   6.389
 4071SOL    HW212672   3.400   0.794   6.327
 4072SOL     OW12673   2.323   1.266   7.313
 4072SOL    HW112674   2.273   1.267   7.227
 4072SOL    HW212675   2.260   1.248   7.389
 4073SOL     OW12676   2.973   1.776   5.823
 4073SOL    HW112677   2.913   1.714   5.873
 4073SOL    HW212678   3.004   1.732   5.738
 4074SOL     OW12679   2.064   0.285   7.084
 4074SOL    HW112680   1.984   0.345   7.071
 4074SOL    HW212681   2.054   0.236   7.170
 4075SOL     OW12682   3.494   1.377   5.667
 4075SOL    HW112683   3.462   1.471   5.657
 4075SOL    HW212684   3.418   1.314   5.655
 4076SOL     OW12685   2.326   1.743   5.909
 4076SOL    HW112686   2.359   1.782   5.995
 4076SOL    HW212687   2.402   1.736   5.844
 4077SOL     OW12688   3.262   0.107   6.012
 4077SOL    HW112689   3.238   0.070   5.922
 4077SOL    HW212690   3.361   0.123   6.016
 4078SOL     OW12691   2.111   1.785   6.827
 4078SOL    HW112692   2.168   1.720   6.877
 4078SOL    HW212693   2.095   1.752   6.734
 4079SOL     OW12694   2.802   1.698   6.490
 4079SOL    HW112695   2.882   1.641   6.511
 4079SOL    HW212696   2.753   1.658   6.413
 4080SOL     OW12697   2.244   0.700   6.066
 4080SOL    HW112698   2.289   0.610   6.063
 4080SOL    HW212699   2.150   0.689   6.099
 4081SOL     OW12700   3.409   0.222   7.315
 4081SOL    HW112701   3.404   0.259   7.407
 4081SOL    HW212702   3.337   0.153   7.303
 4082SOL     OW12703   2.476   0.122   5.703
 4082SOL    HW112704   2.574   0.100   5.710
 4082SOL    HW212705   2.445   0.105   5.610
 4083SOL     OW12706   2.643   0.264   7.335
 4083SOL    HW112707   2.710   0.203   7.378
 4083SOL    HW212708   2.570   0.283   7.400
 4084SOL     OW12709   2.750   1.514   6.781
 4084SOL    HW112710   2.727   1.489   6.687
 4084SOL    HW212711   2.811   1.445   6.820
 4085SOL     OW12712   3.213   0.590   7.019
 4085SOL    HW112713   3.241   0.547   7.104
 4085SOL    HW212714   3.238   0.686   7.020
 4086SOL     OW12715   2.665   1.402   6.510
 4086SOL    HW112716   2.755   1.416   6.468
 4086SOL    HW212717   2.594   1.404   6.439
 4087SOL     OW12718   2.784   0.503   6.485
 4087SOL    HW112719   2.759   0.494   6.389
 4087SOL    HW212720   2.832   0.421   6.516
 4088SOL     OW12721   2.401   0.064   6.098
 4088SOL    HW112722   2.320   0.065   6.156
 4088SOL    HW212723   2.404   0.147   6.043
 4089SOL     OW12724   3.296   1.188   5.627
 4089SOL    HW112725   3.328   1.112   5.684
 4089SOL    HW212726   3.204   1.215   5.657
 4090SOL     OW12727   2.159   0.035   5.757
 4090SOL    HW112728   2.208   0.119   5.736
 4090SOL    HW212729   2.221  -0.030   5.802
 4091SOL     OW12730   2.797   0.236   6.066
 4091SOL    HW112731   2.749   0.277   5.988
 4091SOL    HW212732   2.896   0.234   6.047
 4092SOL     OW12733   2.938   0.683   7.050
 4092SOL    HW112734   2.858   0.622   7.053
 4092SOL    HW212735   3.019   0.630   7.026
 4093SOL     OW12736   3.089   1.570   6.379
 4093SOL    HW112737   3.110   1.644   6.314
 4093SOL    HW212738   3.157   1.570   6.452
 4094SOL     OW12739   2.321   1.152   6.327
 4094SOL    HW112740   2.250   1.125   6.392
 4094SOL    HW212741   2.295   1.124   6.234
 4095SOL     OW12742   3.133   1.797   6.177
 4095SOL    HW112743   3.177   1.861   6.113
 4095SOL    HW212744   3.083   1.849   6.247
 4096SOL     OW12745   2.894   0.549   5.602
 4096SOL    HW112746   2.853   0.631   5.563
 4096SOL    HW212747   2.958   0.575   5.675
 4097SOL     OW12748   1.940   0.556   6.972
 4097SOL    HW112749   2.032   0.555   6.931
 4097SOL    HW212750   1.934   0.630   7.039
 4098SOL     OW12751   2.423   0.222   6.733
 4098SOL    HW112752   2.461   0.138   6.770
 4098SOL    HW212753   2.335   0.241   6.777
 4099SOL     OW12754   2.728   0.454   6.228
 4099SOL    HW112755   2.696   0.526   6.166
 4099SOL    HW212756   2.752   0.373   6.175
 4100SOL     OW12757   2.879   0.039   6.339
 4100SOL    HW112758   2.807   0.044   6.270
 4100SOL    HW212759   2.855  -0.030   6.408
 4101SOL     OW12760   3.291   1.173   6.453
 4101SOL    HW112761   3.236   1.089   6.446
 4101SOL    HW212762   3.317   1.202   6.361
 4102SOL     OW12763   3.328   0.590   6.578
 4102SOL    HW112764   3.298   0.495   6.585
 4102SOL    HW212765   3.401   0.606   6.644
 4103SOL     OW12766   3.719   0.833   5.963
 4103SOL    HW112767   3.761   0.769   6.027
 4103SOL    HW212768   3.681   0.782   5.885
 4104SOL     OW12769   2.350   1.385   5.760
 4104SOL    HW112770   2.263   1.370   5.807
 4104SOL    HW212771   2.333   1.411   5.665
 4105SOL     OW12772   3.526   1.280   6.243
 4105SOL    HW112773   3.625   1.288   6.257
 4105SOL    HW212774   3.481   1.364   6.274
 4106SOL     OW12775   3.252   0.575   5.664
 4106SOL    HW112776   3.198   0.554   5.745
 4106SOL    HW212777   3.343   0.534   5.673
 4107SOL     OW12778   2.389   0.256   5.914
 4107SOL    HW112779   2.416   0.197   5.839
 4107SOL    HW212780   2.389   0.351   5.883
 4108SOL     OW12781   3.616   1.223   7.174
 4108SOL    HW112782   3.707   1.184   7.161
 4108SOL    HW212783   3.624   1.319   7.198
 4109SOL     OW12784   2.926   1.347   6.926
 4109SOL    HW112785   2.846   1.324   6.981
 4109SOL    HW212786   3.009   1.321   6.975
 4110SOL     OW12787   3.454   1.629   7.211
 4110SOL    HW112788   3.481   1.663   7.121
 4110SOL    HW212789   3.533   1.591   7.257
 4111SOL     OW12790   2.973   1.195   6.686
 4111SOL    HW112791   2.933   1.239   6.767
 4111SOL    HW212792   2.932   1.232   6.603
 4112SOL     OW12793   3.500   1.099   6.665
 4112SOL    HW112794   3.505   1.180   6.724
 4112SOL    HW212795   3.414   1.101   6.614
 4113SOL     OW12796   2.777   0.089   6.988
 4113SOL    HW112797   2.802   0.069   6.893
 4113SOL    HW212798   2.849   0.145   7.030
 4114SOL     OW12799   2.842   1.116   7.305
 4114SOL    HW112800   2.743   1.122   7.315
 4114SOL    HW212801   2.865   1.036   7.249
 4115SOL     OW12802   2.567   1.050   5.954
 4115SOL    HW112803   2.553   1.057   6.053
 4115SOL    HW212804   2.651   0.999   5.936
 4116SOL     OW12805   2.272   0.813   6.837
 4116SOL    HW112806   2.358   0.825   6.887
 4116SOL    HW212807   2.230   0.726   6.864
 4117SOL     OW12808   3.136   0.386   6.848
 4117SOL    HW112809   3.157   0.460   6.912
 4117SOL    HW212810   3.047   0.403   6.805
 4118SOL     OW12811   1.926   1.564   6.917
 4118SOL    HW112812   1.880   1.646   6.883
 4118SOL    HW212813   2.024   1.583   6.926
 4119SOL     OW12814   2.229   1.100   6.087
 4119SOL    HW112815   2.222   1.183   6.031
 4119SOL    HW212816   2.233   1.020   6.027
 4120SOL     OW12817   2.428   0.537   6.451
 4120SOL    HW112818   2.440   0.603   6.377
 4120SOL    HW212819   2.474   0.571   6.534
 4121SOL     OW12820   3.114   1.348   5.974
 4121SOL    HW112821   3.164   1.425   6.014
 4121SOL    HW212822   3.019   1.350   6.006
 4122SOL     OW12823   3.134   1.445   6.728
 4122SOL    HW112824   3.181   1.458   6.815
 4122SOL    HW212825   3.068   1.371   6.737
 4123SOL     OW12826   3.444   0.639   6.058
 4123SOL    HW112827   3.413   0.700   6.131
 4123SOL    HW212828   3.494   0.691   5.989
 4124SOL     OW12829   2.216   1.510   6.915
 4124SOL    HW112830   2.195   1.466   6.828
 4124SOL    HW212831   2.313   1.536   6.918
 4125SOL     OW12832   2.264   0.751   7.184
 4125SOL    HW112833   2.332   0.806   7.137
 4125SOL    HW212834   2.304   0.663   7.211
 4126SOL     OW12835   3.449   0.779   7.256
 4126SOL    HW112836   3.357   0.817   7.251
 4126SOL    HW212837   3.509   0.826   7.191
 4127SOL     OW12838   2.875   0.105   7.356
 4127SOL    HW112839   2.881   0.190   7.304
 4127SOL    HW212840   2.907   0.029   7.299
 4128SOL     OW12841   2.366   0.050   7.326
 4128SOL    HW112842   2.324  -0.007   7.256
 4128SOL    HW212843   2.300   0.119   7.358
 4129SOL     OW12844   2.435   0.870   6.615
 4129SOL    HW112845   2.479   0.959   6.606
 4129SOL    HW212846   2.372   0.870   6.692
 4130SOL     OW12847   3.222   0.862   6.631
 4130SOL    HW112848   3.147   0.862   6.565
 4130SOL    HW212849   3.259   0.770   6.640
 4131SOL     OW12850   3.071   0.525   5.861
 4131SOL    HW112851   3.084   0.441   5.915
 4131SOL    HW212852   3.042   0.599   5.921
 4132SOL     OW12853   2.169   0.213   6.817
 4132SOL    HW112854   2.146   0.250   6.907
 4132SOL    HW212855   2.139   0.118   6.811
 4133SOL     OW12856   2.594   0.634   6.650
 4133SOL    HW112857   2.653   0.608   6.574
 4133SOL    HW212858   2.566   0.730   6.639
 4134SOL     OW12859   3.590   0.935   7.440
 4134SOL    HW112860   3.544   0.928   7.351
 4134SOL    HW212861   3.528   0.979   7.506
 4135SOL     OW12862   2.169   0.063   6.204
 4135SOL    HW112863   2.158   0.157   6.237
 4135SOL    HW212864   2.164   0.000   6.281
 4136SOL     OW12865   3.484   0.367   5.960
 4136SOL    HW112866   3.486   0.291   6.024
 4136SOL    HW212867   3.436   0.444   6.000
 4137SOL     OW12868   2.885   0.766   6.552
 4137SOL    HW112869   2.900   0.787   6.648
 4137SOL    HW212870   2.855   0.671   6.543
 4138SOL     OW12871   2.842   1.573   7.286
 4138SOL    HW112872   2.822   1.617   7.198
 4138SOL    HW212873   2.881   1.482   7.270
 4139SOL     OW12874   3.721   1.518   7.191
 4139SOL    HW112875   3.735   1.545   7.096
 4139SOL    HW212876   3.804   1.540   7.244
 4140SOL     OW12877   2.212   0.898   7.390
 4140SOL    HW112878   2.288   0.942   7.438
 4140SOL    HW212879   2.247   0.851   7.308
 4141SOL     OW12880   3.402   0.274   5.711
 4141SOL    HW112881   3.341   0.199   5.734
 4141SOL    HW212882   3.424   0.326   5.794
 4142SOL     OW12883   3.165   0.838   5.628
 4142SOL    HW112884   3.199   0.745   5.643
 4142SOL    HW212885   3.183   0.865   5.533
 4143SOL     OW12886   2.930   1.333   6.435
 4143SOL    HW112887   2.937   1.249   6.380
 4143SOL    HW212888   2.992   1.402   6.399
 4144SOL     OW12889   2.181   0.810   6.535
 4144SOL    HW112890   2.274   0.846   6.540
 4144SOL    HW212891   2.175   0.725   6.587
 4145SOL     OW12892   2.201   0.509   6.592
 4145SOL    HW112893   2.149   0.426   6.575
 4145SOL    HW212894   2.278   0.514   6.528
 4146SOL     OW12895   3.000   0.380   7.264
 4146SOL    HW112896   2.955   0.443   7.328
 4146SOL    HW212897   3.093   0.411   7.247
 4147SOL     OW12898   3.022   0.207   7.063
 4147SOL    HW112899   3.022   0.271   7.140
 4147SOL    HW212900   3.050   0.255   6.980
 4148SOL     OW12901   1.870   1.326   5.786
 4148SOL    HW112902   1.777   1.347   5.755
 4148SOL    HW212903   1.880   1.227   5.799
 4149SOL     OW12904   2.864   0.796   6.824
 4149SOL    HW112905   2.905   0.764   6.910
 4149SOL    HW212906   2.768   0.769   6.821
 4150SOL     OW12907   1.902   0.544   6.700
 4150SOL    HW112908   1.987   0.511   6.659
 4150SOL    HW212909   1.915   0.559   6.798
 4151SOL     OW12910   2.051   0.520   7.308
 4151SOL    HW112911   2.110   0.480   7.238
 4151SOL    HW212912   1.993   0.591   7.267
 4152SOL     OW12913   3.231   0.950   7.246
 4152SOL    HW112914   3.270   1.039   7.266
 4152SOL    HW212915   3.241   0.930   7.149
 4153SOL     OW12916   2.677   0.572   5.911
 4153SOL    HW112917   2.684   0.483   5.865
 4153SOL    HW212918   2.583   0.606   5.903
 4154SOL     OW12919   3.519   0.604   6.792
 4154SOL    HW112920   3.481   0.535   6.854
 4154SOL    HW212921   3.601   0.568   6.748
 4155SOL     OW12922   2.533   0.464   6.855
 4155SOL    HW112923   2.499   0.375   6.825
 4155SOL    HW212924   2.559   0.518   6.775
 4156SOL     OW12925   2.792   1.678   7.051
 4156SOL    HW112926   2.768   1.660   6.956
 4156SOL    HW212927   2.822   1.772   7.061
 4157SOL     OW12928   2.335   0.500   5.777
 4157SOL    HW112929   2.396   0.580   5.781
 4157SOL    HW212930   2.240   0.531   5.784
 4158SOL     OW12931   2.021   1.137   7.052
 4158SOL    HW112932   2.043   1.076   7.128
 4158SOL    HW212933   2.031   1.088   6.966
 4159SOL     OW12934   3.209   1.059   6.820
 4159SOL    HW112935   3.233   0.996   6.746
 4159SOL    HW212936   3.119   1.099   6.802
 4160SOL     OW12937   3.164   0.855   5.895
 4160SOL    HW112938   3.078   0.824   5.937
 4160SOL    HW212939   3.160   0.841   5.796
 4161SOL     OW12940   3.621   1.747   6.740
 4161SOL    HW112941   3.682   1.777   6.667
 4161SOL    HW212942   3.583   1.658   6.718
 4162SOL     OW12943   3.114   1.731   6.714
 4162SOL    HW112944   3.198   1.736   6.660
 4162SOL    HW212945   3.091   1.635   6.732
 4163SOL     OW12946   1.945   1.258   6.608
 4163SOL    HW112947   1.940   1.257   6.708
 4163SOL    HW212948   1.862   1.217   6.570
 4164SOL     OW12949   3.588   0.135   6.109
 4164SOL    HW112950   3.661   0.118   6.042
 4164SOL    HW212951   3.557   0.048   6.147
 4165SOL     OW12952   3.250   1.573   6.063
 4165SOL    HW112953   3.317   1.585   5.989
 4165SOL    HW212954   3.210   1.662   6.086
 4166SOL     OW12955   1.992   1.794   7.437
 4166SOL    HW112956   1.951   1.720   7.490
 4166SOL    HW212957   2.056   1.845   7.495
 4167SOL     OW12958   3.142   0.927   6.258
 4167SOL    HW112959   3.202   0.846   6.260
 4167SOL    HW212960   3.182   0.996   6.198
 4168SOL     OW12961   2.692   1.273   7.008
 4168SOL    HW112962   2.687   1.306   7.103
 4168SOL    HW212963   2.606   1.292   6.962
 4169SOL     OW12964   2.534   1.616   5.740
 4169SOL    HW112965   2.543   1.626   5.641
 4169SOL    HW212966   2.494   1.527   5.761
 4170SOL     OW12967   3.512   1.720   6.980
 4170SOL    HW112968   3.565   1.730   6.896
 4170SOL    HW212969   3.485   1.810   7.014
 4171SOL     OW12970   3.703   0.175   6.549
 4171SOL    HW112971   3.742   0.090   6.513
 4171SOL    HW212972   3.605   0.177   6.530
 4172SOL     OW12973   2.125   0.326   6.306
 4172SOL    HW112974   2.046   0.377   6.272
 4172SOL    HW212975   2.116   0.311   6.404
 4173SOL     OW12976   3.056   1.612   5.617
 4173SOL    HW112977   3.062   1.519   5.654
 4173SOL    HW212978   2.997   1.612   5.537
 4174SOL     OW12979   2.684   1.002   6.958
 4174SOL    HW112980   2.724   1.001   6.866
 4174SOL    HW212981   2.694   1.094   6.998
 4175SOL     OW12982   2.778   0.910   5.877
 4175SOL    HW112983   2.841   0.948   5.809
 4175SOL    HW212984   2.818   0.827   5.916
 4176SOL     OW12985   3.366   1.607   5.630
 4176SOL    HW112986   3.274   1.644   5.637
 4176SOL    HW212987   3.404   1.627   5.540
 4177SOL     OW12988   2.234   1.288   7.076
 4177SOL    HW112989   2.221   1.381   7.042
 4177SOL    HW212990   2.150   1.236   7.063
 4178SOL     OW12991   3.476   1.292   6.875
 4178SOL    HW112992   3.536   1.295   6.955
 4178SOL    HW212993   3.401   1.356   6.888
 4179SOL     OW12994   2.901   1.098   6.282
 4179SOL    HW112995   2.831   1.051   6.336
 4179SOL    HW212996   2.960   1.030   6.239
 4180SOL     OW12997   2.876   0.236   6.557
 4180SOL    HW112998   2.868   0.200   6.464
 4180SOL    HW212999   2.874   0.160   6.622
 4181SOL     OW13000   2.452   1.487   6.077
 4181SOL    HW113001   2.494   1.429   6.007
 4181SOL    HW213002   2.408   1.566   6.033
 4182SOL     OW13003   3.571   0.385   6.967
 4182SOL    HW113004   3.644   0.454   6.971
 4182SOL    HW213005   3.599   0.310   6.908
 4183SOL     OW13006   2.117   1.348   5.876
 4183SOL    HW113007   2.021   1.349   5.849
 4183SOL    HW213008   2.129   1.401   5.960
 4184SOL     OW13009   1.967   1.013   7.312
 4184SOL    HW113010   1.890   0.980   7.366
 4184SOL    HW213011   2.052   0.983   7.354
 4185SOL     OW13012   2.534   0.203   7.075
 4185SOL    HW113013   2.624   0.187   7.035
 4185SOL    HW213014   2.542   0.208   7.174
 4186SOL     OW13015   1.937   0.345   5.619
 4186SOL    HW113016   1.845   0.317   5.590
 4186SOL    HW213017   1.968   0.422   5.563
 4187SOL     OW13018   3.302   0.856   6.984
 4187SOL    HW113019   3.245   0.908   6.921
 4187SOL    HW213020   3.398   0.868   6.960
 4188SOL     OW13021   1.934   0.166   5.904
 4188SOL    HW113022   1.917   0.249   5.850
 4188SOL    HW213023   2.024   0.129   5.882
 4189SOL     OW13024   3.045   1.335   5.705
 4189SOL    HW113025   2.946   1.324   5.707
 4189SOL    HW213026   3.079   1.350   5.798
 4190SOL     OW13027   2.475   0.842   7.017
 4190SOL    HW113028   2.531   0.923   7.000
 4190SOL    HW213029   2.534   0.762   7.020
 4191SOL     OW13030   3.355   1.767   6.545
 4191SOL    HW113031   3.388   1.831   6.476
 4191SOL    HW213032   3.421   1.761   6.620
 4192SOL     OW13033   2.578   0.565   7.294
 4192SOL    HW113034   2.597   0.630   7.368
 4192SOL    HW213035   2.638   0.485   7.303
 4193SOL     OW13036   3.312   1.220   7.219
 4193SOL    HW113037   3.303   1.210   7.318
 4193SOL    HW213038   3.408   1.213   7.193
 4194SOL     OW13039   3.536   0.883   6.840
 4194SOL    HW113040   3.509   0.794   6.803
 4194SOL    HW213041   3.537   0.951   6.767
 4195SOL     OW13042   3.087   0.325   6.035
 4195SOL    HW113043   3.152   0.251   6.024
 4195SOL    HW213044   3.107   0.375   6.119
 4196SOL     OW13045   2.456   0.745   6.238
 4196SOL    HW113046   2.506   0.830   6.219
 4196SOL    HW213047   2.368   0.747   6.190
 4197SOL     OW13048   3.639   0.342   7.228
 4197SOL    HW113049   3.622   0.373   7.134
 4197SOL    HW213050   3.555   0.305   7.266
 4198SOL     OW13051   3.592   0.934   7.103
 4198SOL    HW113052   3.630   1.025   7.118
 4198SOL    HW213053   3.584   0.917   7.004
 4199SOL     OW13054   2.721   1.374   5.602
 4199SOL    HW113055   2.675   1.389   5.690
 4199SOL    HW213056   2.765   1.459   5.572
 4200SOL     OW13057   2.721   0.956   6.447
 4200SOL    HW113058   2.775   0.887   6.495
 4200SOL    HW213059   2.689   1.025   6.513
 4201SOL     OW13060   2.945   0.984   5.673
 4201SOL    HW113061   2.922   1.037   5.591
 4201SOL    HW213062   3.026   0.928   5.654
 4202SOL     OW13063   3.723   1.569   6.437
 4202SOL    HW113064   3.652   1.557   6.367
 4202SOL    HW213065   3.724   1.490   6.497
 4203SOL     OW13066   1.941   1.240   6.239
 4203SOL    HW113067   1.940   1.193   6.327
 4203SOL    HW213068   2.023   1.212   6.188
 4204SOL     OW13069   2.534   1.391   7.210
 4204SOL    HW113070   2.456   1.341   7.248
 4204SOL    HW213071   2.531   1.486   7.241
 4205SOL     OW13072   3.686   0.192   6.813
 4205SOL    HW113073   3.682   0.102   6.857
 4205SOL    HW213074   3.689   0.181   6.714
 4206SOL     OW13075   2.290   0.424   6.106
 4206SOL    HW113076   2.320   0.352   6.044
 4206SOL    HW213077   2.251   0.384   6.189
 4207SOL     OW13078   3.567   1.487   6.690
 4207SOL    HW113079   3.474   1.462   6.663
 4207SOL    HW213080   3.593   1.437   6.772
 4208SOL     OW13081   2.179   0.547   6.866
 4208SOL    HW113082   2.217   0.488   6.938
 4208SOL    HW213083   2.219   0.521   6.778
 4209SOL     OW13084   2.674   1.586   6.273
 4209SOL    HW113085   2.706   1.596   6.179
 4209SOL    HW213086   2.595   1.524   6.275
 4210SOL     OW13087   3.286   0.214   6.698
 4210SOL    HW113088   3.338   0.149   6.753
 4210SOL    HW213089   3.237   0.277   6.759
 4211SOL     OW13090   2.863   0.034   6.740
 4211SOL    HW113091   2.800  -0.038   6.709
 4211SOL    HW213092   2.956  -0.002   6.740
 4212SOL     OW13093   2.632   1.330   5.887
 4212SOL    HW113094   2.586   1.243   5.904
 4212SOL    HW213095   2.723   1.327   5.928
 4213SOL     OW13096   2.480   1.567   6.870
 4213SOL    HW113097   2.475   1.649   6.927
 4213SOL    HW213098   2.569   1.564   6.825
 4214SOL     OW13099   3.214   0.052   5.754
 4214SOL    HW113100   3.249   0.011   5.670
 4214SOL    HW213101   3.124   0.014   5.774
 4215SOL     OW13102   3.162   0.453   6.277
 4215SOL    HW113103   3.103   0.533   6.281
 4215SOL    HW213104   3.177   0.418   6.370
 4216SOL     OW13105   3.455   0.221   6.468
 4216SOL    HW113106   3.371   0.220   6.522
 4216SOL    HW213107   3.457   0.304   6.412
 4217SOL     OW13108   1.901   1.077   5.886
 4217SOL    HW113109   2.000   1.066   5.877
 4217SOL    HW213110   1.861   0.991   5.918
 4218SOL     OW13111   2.737   1.646   5.923
 4218SOL    HW113112   2.660   1.611   5.869
 4218SOL    HW213113   2.705   1.717   5.985
 4219SOL     OW13114   2.092   0.628   7.561
 4219SOL    HW113115   1.999   0.626   7.598
 4219SOL    HW213116   2.093   0.589   7.469
 4220SOL     OW13117   2.087   0.275   8.444
 4220SOL    HW113118   2.122   0.258   8.536
 4220SOL    HW213119   1.999   0.230   8.432
 4221SOL     OW13120   1.881   0.368   8.095
 4221SOL    HW113121   1.799   0.411   8.134
 4221SOL    HW213122   1.853   0.295   8.032
 4222SOL     OW13123   2.431   1.275   8.613
 4222SOL    HW113124   2.338   1.268   8.576
 4222SOL    HW213125   2.442   1.364   8.657
 4223SOL     OW13126   3.417   1.511   8.151
 4223SOL    HW113127   3.360   1.495   8.232
 4223SOL    HW213128   3.358   1.521   8.071
 4224SOL     OW13129   2.997   0.703   8.165
 4224SOL    HW113130   3.054   0.781   8.140
 4224SOL    HW213131   2.937   0.729   8.241
 4225SOL     OW13132   3.617   0.607   7.679
 4225SOL    HW113133   3.605   0.594   7.580
 4225SOL    HW213134   3.587   0.526   7.728
 4226SOL     OW13135   2.630   1.144   8.471
 4226SOL    HW113136   2.552   1.161   8.531
 4226SOL    HW213137   2.664   1.231   8.435
 4227SOL     OW13138   2.712   0.798   9.271
 4227SOL    HW113139   2.708   0.874   9.336
 4227SOL    HW213140   2.734   0.834   9.180
 4228SOL     OW13141   2.547   1.012   8.113
 4228SOL    HW113142   2.616   0.996   8.183
 4228SOL    HW213143   2.474   1.069   8.151
 4229SOL     OW13144   2.548   1.161   9.251
 4229SOL    HW113145   2.608   1.240   9.265
 4229SOL    HW213146   2.462   1.192   9.210
 4230SOL     OW13147   2.197   1.435   8.509
 4230SOL    HW113148   2.119   1.404   8.456
 4230SOL    HW213149   2.255   1.493   8.452
 4231SOL     OW13150   3.322   1.505   8.787
 4231SOL    HW113151   3.346   1.599   8.813
 4231SOL    HW213152   3.306   1.451   8.869
 4232SOL     OW13153   2.300   0.392   8.947
 4232SOL    HW113154   2.382   0.336   8.956
 4232SOL    HW213155   2.219   0.334   8.951
 4233SOL     OW13156   3.465   0.447   8.185
 4233SOL    HW113157   3.391   0.493   8.135
 4233SOL    HW213158   3.516   0.515   8.238
 4234SOL     OW13159   2.989   1.341   9.138
 4234SOL    HW113160   3.036   1.341   9.226
 4234SOL    HW213161   2.941   1.254   9.127
 4235SOL     OW13162   2.092   1.434   7.986
 4235SOL    HW113163   2.066   1.530   7.986
 4235SOL    HW213164   2.021   1.380   8.031
 4236SOL     OW13165   2.102   1.091   8.334
 4236SOL    HW113166   2.116   1.007   8.386
 4236SOL    HW213167   2.047   1.155   8.389
 4237SOL     OW13168   2.482   1.786   8.887
 4237SOL    HW113169   2.390   1.769   8.922
 4237SOL    HW213170   2.510   1.878   8.913
 4238SOL     OW13171   2.468   0.964   7.571
 4238SOL    HW113172   2.475   1.048   7.517
 4238SOL    HW213173   2.514   0.977   7.659
 4239SOL     OW13174   3.456   0.114   8.928
 4239SOL    HW113175   3.438   0.181   8.856
 4239SOL    HW213176   3.453   0.160   9.017
 4240SOL     OW13177   1.984   0.643   8.011
 4240SOL    HW113178   1.939   0.555   8.028
 4240SOL    HW213179   1.983   0.697   8.095
 4241SOL     OW13180   3.704   1.767   7.807
 4241SOL    HW113181   3.758   1.738   7.887
 4241SOL    HW213182   3.734   1.857   7.778
 4242SOL     OW13183   3.551   0.922   8.060
 4242SOL    HW113184   3.646   0.893   8.068
 4242SOL    HW213185   3.543   0.987   7.985
 4243SOL     OW13186   3.503   1.108   7.880
 4243SOL    HW113187   3.589   1.110   7.828
 4243SOL    HW213188   3.517   1.155   7.968
 4244SOL     OW13189   1.975   0.737   9.045
 4244SOL    HW113190   2.063   0.724   9.090
 4244SOL    HW213191   1.962   0.834   9.023
 4245SOL     OW13192   2.475   1.365   8.174
 4245SOL    HW113193   2.426   1.278   8.183
 4245SOL    HW213194   2.452   1.408   8.087
 4246SOL     OW13195   3.155   1.228   8.871
 4246SOL    HW113196   3.192   1.155   8.813
 4246SOL    HW213197   3.207   1.233   8.956
 4247SOL     OW13198   2.671   0.004   7.950
 4247SOL    HW113199   2.711   0.095   7.941
 4247SOL    HW213200   2.571   0.012   7.956
 4248SOL     OW13201   2.059   0.976   8.712
 4248SOL    HW113202   2.148   0.931   8.698
 4248SOL    HW213203   1.986   0.911   8.693
 4249SOL     OW13204   3.387   0.999   7.638
 4249SOL    HW113205   3.324   0.923   7.651
 4249SOL    HW213206   3.435   1.017   7.724
 4250SOL     OW13207   3.049   1.792   9.064
 4250SOL    HW113208   3.073   1.852   8.988
 4250SOL    HW213209   3.056   1.697   9.034
 4251SOL     OW13210   2.179   0.251   9.249
 4251SOL    HW113211   2.250   0.322   9.255
 4251SOL    HW213212   2.091   0.290   9.277
 4252SOL     OW13213   3.328   1.417   8.401
 4252SOL    HW113214   3.269   1.423   8.481
 4252SOL    HW213215   3.313   1.329   8.355
 4253SOL     OW13216   3.529   1.714   8.020
 4253SOL    HW113217   3.488   1.691   7.932
 4253SOL    HW213218   3.511   1.640   8.085
 4254SOL     OW13219   2.460   0.729   7.718
 4254SOL    HW113220   2.484   0.798   7.650
 4254SOL    HW213221   2.382   0.762   7.772
 4255SOL     OW13222   3.143   0.345   8.392
 4255SOL    HW113223   3.057   0.295   8.379
 4255SOL    HW213224   3.205   0.291   8.448
 4256SOL     OW13225   3.438   1.662   7.755
 4256SOL    HW113226   3.527   1.708   7.758
 4256SOL    HW213227   3.417   1.638   7.660
 4257SOL     OW13228   2.669   0.605   8.913
 4257SOL    HW113229   2.622   0.602   9.002
 4257SOL    HW213230   2.618   0.550   8.847
 4258SOL     OW13231   3.256   0.469   9.122
 4258SOL    HW113232   3.236   0.512   9.210
 4258SOL    HW213233   3.334   0.407   9.131
 4259SOL     OW13234   2.835   0.890   9.020
 4259SOL    HW113235   2.881   0.806   8.991
 4259SOL    HW213236   2.779   0.924   8.945
 4260SOL     OW13237   2.853   0.410   8.690
 4260SOL    HW113238   2.776   0.444   8.744
 4260SOL    HW213239   2.819   0.359   8.611
 4261SOL     OW13240   2.903   0.701   7.877
 4261SOL    HW113241   2.929   0.697   7.973
 4261SOL    HW213242   2.818   0.650   7.863
 4262SOL     OW13243   1.938   0.811   8.237
 4262SOL    HW113244   2.037   0.799   8.246
 4262SOL    HW213245   1.914   0.906   8.258
 4263SOL     OW13246   2.727   0.348   7.643
 4263SOL    HW113247   2.786   0.411   7.594
 4263SOL    HW213248   2.746   0.254   7.614
 4264SOL     OW13249   3.581   0.585   9.279
 4264SOL    HW113250   3.555   0.674   9.243
 4264SOL    HW213251   3.579   0.517   9.206
 4265SOL     OW13252   3.224   1.144   7.993
 4265SOL    HW113253   3.307   1.115   7.945
 4265SOL    HW213254   3.175   1.211   7.937
 4266SOL     OW13255   2.412   0.196   8.333
 4266SOL    HW113256   2.407   0.191   8.433
 4266SOL    HW213257   2.414   0.292   8.304
 4267SOL     OW13258   2.870   1.456   7.925
 4267SOL    HW113259   2.824   1.528   7.873
 4267SOL    HW213260   2.866   1.476   8.023
 4268SOL     OW13261   2.213   1.801   8.301
 4268SOL    HW113262   2.263   1.715   8.307
 4268SOL    HW213263   2.278   1.878   8.298
 4269SOL     OW13264   3.657   1.066   8.321
 4269SOL    HW113265   3.595   1.051   8.245
 4269SOL    HW213266   3.605   1.077   8.406
 4270SOL     OW13267   3.089   1.550   8.954
 4270SOL    HW113268   3.095   1.473   9.018
 4270SOL    HW213269   3.037   1.524   8.874
 4271SOL     OW13270   2.183   0.943   7.690
 4271SOL    HW113271   2.265   0.982   7.648
 4271SOL    HW213272   2.156   0.861   7.641
 4272SOL     OW13273   3.320   0.735   8.176
 4272SOL    HW113274   3.315   0.670   8.251
 4272SOL    HW213275   3.400   0.794   8.189
 4273SOL     OW13276   2.323   1.266   9.175
 4273SOL    HW113277   2.273   1.267   9.089
 4273SOL    HW213278   2.260   1.248   9.251
 4274SOL     OW13279   2.973   1.776   7.685
 4274SOL    HW113280   2.913   1.714   7.735
 4274SOL    HW213281   3.004   1.732   7.600
 4275SOL     OW13282   2.064   0.285   8.946
 4275SOL    HW113283   1.984   0.345   8.933
 4275SOL    HW213284   2.054   0.236   9.032
 4276SOL     OW13285   3.494   1.377   7.529
 4276SOL    HW113286   3.462   1.471   7.519
 4276SOL    HW213287   3.418   1.314   7.517
 4277SOL     OW13288   3.262   0.107   7.874
 4277SOL    HW113289   3.238   0.070   7.784
 4277SOL    HW213290   3.361   0.123   7.878
 4278SOL     OW13291   2.111   1.785   8.689
 4278SOL    HW113292   2.168   1.720   8.739
 4278SOL    HW213293   2.095   1.752   8.596
 4279SOL     OW13294   2.802   1.698   8.352
 4279SOL    HW113295   2.882   1.641   8.373
 4279SOL    HW213296   2.753   1.658   8.275
 4280SOL     OW13297   2.244   0.700   7.928
 4280SOL    HW113298   2.289   0.610   7.925
 4280SOL    HW213299   2.150   0.689   7.961
 4281SOL     OW13300   3.409   0.222   9.177
 4281SOL    HW113301   3.404   0.259   9.269
 4281SOL    HW213302   3.337   0.153   9.165
 4282SOL     OW13303   2.476   0.122   7.565
 4282SOL    HW113304   2.574   0.100   7.572
 4282SOL    HW213305   2.445   0.105   7.472
 4283SOL     OW13306   2.643   0.264   9.197
 4283SOL    HW113307   2.710   0.203   9.240
 4283SOL    HW213308   2.570   0.283   9.262
 4284SOL     OW13309   2.750   1.514   8.643
 4284SOL    HW113310   2.727   1.489   8.549
 4284SOL    HW213311   2.811   1.445   8.682
 4285SOL     OW13312   3.213   0.590   8.881
 4285SOL    HW113313   3.241   0.547   8.966
 4285SOL    HW213314   3.238   0.686   8.882
 4286SOL     OW13315   2.665   1.402   8.372
 4286SOL    HW113316   2.755   1.416   8.330
 4286SOL    HW213317   2.594   1.404   8.301
 4287SOL     OW13318   2.784   0.503   8.347
 4287SOL    HW113319   2.759   0.494   8.251
 4287SOL    HW213320   2.832   0.421   8.378
 4288SOL     OW13321   2.401   0.064   7.960
 4288SOL    HW113322   2.320   0.065   8.018
 4288SOL    HW213323   2.404   0.147   7.905
 4289SOL     OW13324   3.296   1.188   7.489
 4289SOL    HW113325   3.328   1.112   7.546
 4289SOL    HW213326   3.204   1.215   7.519
 4290SOL     OW13327   2.159   0.035   7.619
 4290SOL    HW113328   2.208   0.119   7.598
 4290SOL    HW213329   2.221  -0.030   7.664
 4291SOL     OW13330   2.797   0.236   7.928
 4291SOL    HW113331   2.749   0.277   7.850
 4291SOL    HW213332   2.896   0.234   7.909
 4292SOL     OW13333   2.938   0.683   8.912
 4292SOL    HW113334   2.858   0.622   8.915
 4292SOL    HW213335   3.019   0.630   8.888
 4293SOL     OW13336   3.089   1.570   8.241
 4293SOL    HW113337   3.110   1.644   8.176
 4293SOL    HW213338   3.157   1.570   8.314
 4294SOL     OW13339   2.321   1.152   8.189
 4294SOL    HW113340   2.250   1.125   8.254
 4294SOL    HW213341   2.295   1.124   8.096
 4295SOL     OW13342   3.133   1.797   8.039
 4295SOL    HW113343   3.177   1.861   7.975
 4295SOL    HW213344   3.083   1.849   8.109
 4296SOL     OW13345   2.894   0.549   7.464
 4296SOL    HW113346   2.853   0.631   7.425
 4296SOL    HW213347   2.958   0.575   7.537
 4297SOL     OW13348   1.940   0.556   8.834
 4297SOL    HW113349   2.032   0.555   8.793
 4297SOL    HW213350   1.934   0.630   8.901
 4298SOL     OW13351   2.423   0.222   8.595
 4298SOL    HW113352   2.461   0.138   8.632
 4298SOL    HW213353   2.335   0.241   8.639
 4299SOL     OW13354   2.728   0.454   8.090
 4299SOL    HW113355   2.696   0.526   8.028
 4299SOL    HW213356   2.752   0.373   8.037
 4300SOL     OW13357   2.879   0.039   8.201
 4300SOL    HW113358   2.807   0.044   8.132
 4300SOL    HW213359   2.855  -0.030   8.270
 4301SOL     OW13360   3.291   1.173   8.315
 4301SOL    HW113361   3.236   1.089   8.308
 4301SOL    HW213362   3.317   1.202   8.223
 4302SOL     OW13363   3.328   0.590   8.440
 4302SOL    HW113364   3.298   0.495   8.447
 4302SOL    HW213365   3.401   0.606   8.506
 4303SOL     OW13366   3.719   0.833   7.825
 4303SOL    HW113367   3.761   0.769   7.889
 4303SOL    HW213368   3.681   0.782   7.747
 4304SOL     OW13369   3.526   1.280   8.105
 4304SOL    HW113370   3.625   1.288   8.119
 4304SOL    HW213371   3.481   1.364   8.136
 4305SOL     OW13372   3.252   0.575   7.526
 4305SOL    HW113373   3.198   0.554   7.607
 4305SOL    HW213374   3.343   0.534   7.535
 4306SOL     OW13375   2.389   0.256   7.776
 4306SOL    HW113376   2.416   0.197   7.701
 4306SOL    HW213377   2.389   0.351   7.745
 4307SOL     OW13378   3.616   1.223   9.036
 4307SOL    HW113379   3.707   1.184   9.023
 4307SOL    HW213380   3.624   1.319   9.060
 4308SOL     OW13381   2.926   1.347   8.788
 4308SOL    HW113382   2.846   1.324   8.843
 4308SOL    HW213383   3.009   1.321   8.837
 4309SOL     OW13384   3.454   1.629   9.073
 4309SOL    HW113385   3.481   1.663   8.983
 4309SOL    HW213386   3.533   1.591   9.119
 4310SOL     OW13387   2.973   1.195   8.548
 4310SOL    HW113388   2.933   1.239   8.629
 4310SOL    HW213389   2.932   1.232   8.465
 4311SOL     OW13390   3.500   1.099   8.527
 4311SOL    HW113391   3.505   1.180   8.586
 4311SOL    HW213392   3.414   1.101   8.476
 4312SOL     OW13393   2.777   0.089   8.850
 4312SOL    HW113394   2.802   0.069   8.755
 4312SOL    HW213395   2.849   0.145   8.892
 4313SOL     OW13396   2.842   1.116   9.167
 4313SOL    HW113397   2.743   1.122   9.177
 4313SOL    HW213398   2.865   1.036   9.111
 4314SOL     OW13399   2.567   1.050   7.816
 4314SOL    HW113400   2.553   1.057   7.915
 4314SOL    HW213401   2.651   0.999   7.798
 4315SOL     OW13402   2.272   0.813   8.699
 4315SOL    HW113403   2.358   0.825   8.749
 4315SOL    HW213404   2.230   0.726   8.726
 4316SOL     OW13405   3.136   0.386   8.710
 4316SOL    HW113406   3.157   0.460   8.774
 4316SOL    HW213407   3.047   0.403   8.667
 4317SOL     OW13408   1.926   1.564   8.779
 4317SOL    HW113409   1.880   1.646   8.745
 4317SOL    HW213410   2.024   1.583   8.788
 4318SOL     OW13411   2.229   1.100   7.949
 4318SOL    HW113412   2.222   1.183   7.893
 4318SOL    HW213413   2.233   1.020   7.889
 4319SOL     OW13414   2.428   0.537   8.313
 4319SOL    HW113415   2.440   0.603   8.239
 4319SOL    HW213416   2.474   0.571   8.396
 4320SOL     OW13417   3.114   1.348   7.836
 4320SOL    HW113418   3.164   1.425   7.876
 4320SOL    HW213419   3.019   1.350   7.868
 4321SOL     OW13420   3.134   1.445   8.590
 4321SOL    HW113421   3.181   1.458   8.677
 4321SOL    HW213422   3.068   1.371   8.599
 4322SOL     OW13423   3.444   0.639   7.920
 4322SOL    HW113424   3.413   0.700   7.993
 4322SOL    HW213425   3.494   0.691   7.851
 4323SOL     OW13426   2.216   1.510   8.777
 4323SOL    HW113427   2.195   1.466   8.690
 4323SOL    HW213428   2.313   1.536   8.780
 4324SOL     OW13429   2.264   0.751   9.046
 4324SOL    HW113430   2.332   0.806   8.999
 4324SOL    HW213431   2.304   0.663   9.073
 4325SOL     OW13432   3.449   0.779   9.118
 4325SOL    HW113433   3.357   0.817   9.113
 4325SOL    HW213434   3.509   0.826   9.053
 4326SOL     OW13435   2.875   0.105   9.218
 4326SOL    HW113436   2.881   0.190   9.166
 4326SOL    HW213437   2.907   0.029   9.161
 4327SOL     OW13438   2.366   0.050   9.188
 4327SOL    HW113439   2.324  -0.007   9.118
 4327SOL    HW213440   2.300   0.119   9.220
 4328SOL     OW13441   2.435   0.870   8.477
 4328SOL    HW113442   2.479   0.959   8.468
 4328SOL    HW213443   2.372   0.870   8.554
 4329SOL     OW13444   3.222   0.862   8.493
 4329SOL    HW113445   3.147   0.862   8.427
 4329SOL    HW213446   3.259   0.770   8.502
 4330SOL     OW13447   3.071   0.525   7.723
 4330SOL    HW113448   3.084   0.441   7.777
 4330SOL    HW213449   3.042   0.599   7.783
 4331SOL     OW13450   2.169   0.213   8.679
 4331SOL    HW113451   2.146   0.250   8.769
 4331SOL    HW213452   2.139   0.118   8.673
 4332SOL     OW13453   1.899   1.310   8.730
 4332SOL    HW113454   1.952   1.261   8.798
 4332SOL    HW213455   1.921   1.408   8.735
 4333SOL     OW13456   2.594   0.634   8.512
 4333SOL    HW113457   2.653   0.608   8.436
 4333SOL    HW213458   2.566   0.730   8.501
 4334SOL     OW13459   3.590   0.935   9.302
 4334SOL    HW113460   3.544   0.928   9.213
 4334SOL    HW213461   3.528   0.979   9.368
 4335SOL     OW13462   2.169   0.063   8.066
 4335SOL    HW113463   2.158   0.157   8.099
 4335SOL    HW213464   2.164   0.000   8.143
 4336SOL     OW13465   3.484   0.367   7.822
 4336SOL    HW113466   3.486   0.291   7.886
 4336SOL    HW213467   3.436   0.444   7.862
 4337SOL     OW13468   2.885   0.766   8.414
 4337SOL    HW113469   2.900   0.787   8.510
 4337SOL    HW213470   2.855   0.671   8.405
 4338SOL     OW13471   2.842   1.573   9.148
 4338SOL    HW113472   2.822   1.617   9.060
 4338SOL    HW213473   2.881   1.482   9.132
 4339SOL     OW13474   3.721   1.518   9.053
 4339SOL    HW113475   3.735   1.545   8.958
 4339SOL    HW213476   3.804   1.540   9.106
 4340SOL     OW13477   2.212   0.898   9.252
 4340SOL    HW113478   2.288   0.942   9.300
 4340SOL    HW213479   2.247   0.851   9.170
 4341SOL     OW13480   3.402   0.274   7.573
 4341SOL    HW113481   3.341   0.199   7.596
 4341SOL    HW213482   3.424   0.326   7.656
 4342SOL     OW13483   3.165   0.838   7.490
 4342SOL    HW113484   3.199   0.745   7.505
 4342SOL    HW213485   3.183   0.865   7.395
 4343SOL     OW13486   2.930   1.333   8.297
 4343SOL    HW113487   2.937   1.249   8.242
 4343SOL    HW213488   2.992   1.402   8.261
 4344SOL     OW13489   2.181   0.810   8.397
 4344SOL    HW113490   2.274   0.846   8.402
 4344SOL    HW213491   2.175   0.725   8.449
 4345SOL     OW13492   2.201   0.509   8.454
 4345SOL    HW113493   2.149   0.426   8.437
 4345SOL    HW213494   2.278   0.514   8.390
 4346SOL     OW13495   3.000   0.380   9.126
 4346SOL    HW113496   2.955   0.443   9.190
 4346SOL    HW213497   3.093   0.411   9.109
 4347SOL     OW13498   3.022   0.207   8.925
 4347SOL    HW113499   3.022   0.271   9.002
 4347SOL    HW213500   3.050   0.255   8.842
 4348SOL     OW13501   1.870   1.326   7.648
 4348SOL    HW113502   1.777   1.347   7.617
 4348SOL    HW213503   1.880   1.227   7.661
 4349SOL     OW13504   1.950   1.801   8.375
 4349SOL    HW113505   1.908   1.715   8.348
 4349SOL    HW213506   2.044   1.804   8.341
 4350SOL     OW13507   2.366   1.568   8.358
 4350SOL    HW113508   2.432   1.642   8.367
 4350SOL    HW213509   2.410   1.489   8.316
 4351SOL     OW13510   2.864   0.796   8.686
 4351SOL    HW113511   2.905   0.764   8.772
 4351SOL    HW213512   2.768   0.769   8.683
 4352SOL     OW13513   1.902   0.544   8.562
 4352SOL    HW113514   1.987   0.511   8.521
 4352SOL    HW213515   1.915   0.559   8.660
 4353SOL     OW13516   2.051   0.520   9.170
 4353SOL    HW113517   2.110   0.480   9.100
 4353SOL    HW213518   1.993   0.591   9.129
 4354SOL     OW13519   3.231   0.950   9.108
 4354SOL    HW113520   3.270   1.039   9.128
 4354SOL    HW213521   3.241   0.930   9.011
 4355SOL     OW13522   2.677   0.572   7.773
 4355SOL    HW113523   2.684   0.483   7.727
 4355SOL    HW213524   2.583   0.606   7.765
 4356SOL     OW13525   3.519   0.604   8.654
 4356SOL    HW113526   3.481   0.535   8.716
 4356SOL    HW213527   3.601   0.568   8.610
 4357SOL     OW13528   2.114   1.564   9.192
 4357SOL    HW113529   2.084   1.621   9.268
 4357SOL    HW213530   2.107   1.467   9.218
 4358SOL     OW13531   2.533   0.464   8.717
 4358SOL    HW113532   2.499   0.375   8.687
 4358SOL    HW213533   2.559   0.518   8.637
 4359SOL     OW13534   2.792   1.678   8.913
 4359SOL    HW113535   2.768   1.660   8.818
 4359SOL    HW213536   2.822   1.772   8.923
 4360SOL     OW13537   2.335   0.500   7.639
 4360SOL    HW113538   2.396   0.580   7.643
 4360SOL    HW213539   2.240   0.531   7.646
 4361SOL     OW13540   2.021   1.137   8.914
 4361SOL    HW113541   2.043   1.076   8.990
 4361SOL    HW213542   2.031   1.088   8.828
 4362SOL     OW13543   3.209   1.059   8.682
 4362SOL    HW113544   3.233   0.996   8.608
 4362SOL    HW213545   3.119   1.099   8.664
 4363SOL     OW13546   3.164   0.855   7.757
 4363SOL    HW113547   3.078   0.824   7.799
 4363SOL    HW213548   3.160   0.841   7.658
 4364SOL     OW13549   3.621   1.747   8.602
 4364SOL    HW113550   3.682   1.777   8.529
 4364SOL    HW213551   3.583   1.658   8.580
 4365SOL     OW13552   3.114   1.731   8.576
 4365SOL    HW113553   3.198   1.736   8.522
 4365SOL    HW213554   3.091   1.635   8.594
 4366SOL     OW13555   1.945   1.258   8.470
 4366SOL    HW113556   1.940   1.257   8.570
 4366SOL    HW213557   1.862   1.217   8.432
 4367SOL     OW13558   2.550   1.662   9.164
 4367SOL    HW113559   2.494   1.743   9.173
 4367SOL    HW213560   2.602   1.666   9.078
 4368SOL     OW13561   3.588   0.135   7.971
 4368SOL    HW113562   3.661   0.118   7.904
 4368SOL    HW213563   3.557   0.048   8.009
 4369SOL     OW13564   3.250   1.573   7.925
 4369SOL    HW113565   3.317   1.585   7.851
 4369SOL    HW213566   3.210   1.662   7.948
 4370SOL     OW13567   1.992   1.794   9.299
 4370SOL    HW113568   1.951   1.720   9.352
 4370SOL    HW213569   2.056   1.845   9.357
 4371SOL     OW13570   3.142   0.927   8.120
 4371SOL    HW113571   3.202   0.846   8.122
 4371SOL    HW213572   3.182   0.996   8.060
 4372SOL     OW13573   2.692   1.273   8.870
 4372SOL    HW113574   2.687   1.306   8.965
 4372SOL    HW213575   2.606   1.292   8.824
 4373SOL     OW13576   3.512   1.720   8.842
 4373SOL    HW113577   3.565   1.730   8.758
 4373SOL    HW213578   3.485   1.810   8.876
 4374SOL     OW13579   3.703   0.175   8.411
 4374SOL    HW113580   3.742   0.090   8.375
 4374SOL    HW213581   3.605   0.177   8.392
 4375SOL     OW13582   2.125   0.326   8.168
 4375SOL    HW113583   2.046   0.377   8.134
 4375SOL    HW213584   2.116   0.311   8.266
 4376SOL     OW13585   3.056   1.612   7.479
 4376SOL    HW113586   3.062   1.519   7.516
 4376SOL    HW213587   2.997   1.612   7.399
 4377SOL     OW13588   2.684   1.002   8.820
 4377SOL    HW113589   2.724   1.001   8.728
 4377SOL    HW213590   2.694   1.094   8.860
 4378SOL     OW13591   2.778   0.910   7.739
 4378SOL    HW113592   2.841   0.948   7.671
 4378SOL    HW213593   2.818   0.827   7.778
 4379SOL     OW13594   3.366   1.607   7.492
 4379SOL    HW113595   3.274   1.644   7.499
 4379SOL    HW213596   3.404   1.627   7.402
 4380SOL     OW13597   2.234   1.288   8.938
 4380SOL    HW113598   2.221   1.381   8.904
 4380SOL    HW213599   2.150   1.236   8.925
 4381SOL     OW13600   3.476   1.292   8.737
 4381SOL    HW113601   3.536   1.295   8.817
 4381SOL    HW213602   3.401   1.356   8.750
 4382SOL     OW13603   2.901   1.098   8.144
 4382SOL    HW113604   2.831   1.051   8.198
 4382SOL    HW213605   2.960   1.030   8.101
 4383SOL     OW13606   2.876   0.236   8.419
 4383SOL    HW113607   2.868   0.200   8.326
 4383SOL    HW213608   2.874   0.160   8.484
 4384SOL     OW13609   2.452   1.487   7.939
 4384SOL    HW113610   2.494   1.429   7.869
 4384SOL    HW213611   2.408   1.566   7.895
 4385SOL     OW13612   3.571   0.385   8.829
 4385SOL    HW113613   3.644   0.454   8.833
 4385SOL    HW213614   3.599   0.310   8.770
 4386SOL     OW13615   2.117   1.348   7.738
 4386SOL    HW113616   2.021   1.349   7.711
 4386SOL    HW213617   2.129   1.401   7.822
 4387SOL     OW13618   1.967   1.013   9.174
 4387SOL    HW113619   1.890   0.980   9.228
 4387SOL    HW213620   2.052   0.983   9.216
 4388SOL     OW13621   2.534   0.203   8.937
 4388SOL    HW113622   2.624   0.187   8.897
 4388SOL    HW213623   2.542   0.208   9.036
 4389SOL     OW13624   1.937   0.345   7.481
 4389SOL    HW113625   1.845   0.317   7.452
 4389SOL    HW213626   1.968   0.422   7.425
 4390SOL     OW13627   3.302   0.856   8.846
 4390SOL    HW113628   3.245   0.908   8.783
 4390SOL    HW213629   3.398   0.868   8.822
 4391SOL     OW13630   1.934   0.166   7.766
 4391SOL    HW113631   1.917   0.249   7.712
 4391SOL    HW213632   2.024   0.129   7.744
 4392SOL     OW13633   3.045   1.335   7.567
 4392SOL    HW113634   2.946   1.324   7.569
 4392SOL    HW213635   3.079   1.350   7.660
 4393SOL     OW13636   2.475   0.842   8.879
 4393SOL    HW113637   2.531   0.923   8.862
 4393SOL    HW213638   2.534   0.762   8.882
 4394SOL     OW13639   3.355   1.767   8.407
 4394SOL    HW113640   3.388   1.831   8.338
 4394SOL    HW213641   3.421   1.761   8.482
 4395SOL     OW13642   2.578   0.565   9.156
 4395SOL    HW113643   2.597   0.630   9.230
 4395SOL    HW213644   2.638   0.485   9.165
 4396SOL     OW13645   3.312   1.220   9.081
 4396SOL    HW113646   3.303   1.210   9.180
 4396SOL    HW213647   3.408   1.213   9.055
 4397SOL     OW13648   2.252   1.741   9.008
 4397SOL    HW113649   2.161   1.782   9.006
 4397SOL    HW213650   2.245   1.647   9.040
 4398SOL     OW13651   3.536   0.883   8.702
 4398SOL    HW113652   3.509   0.794   8.665
 4398SOL    HW213653   3.537   0.951   8.629
 4399SOL     OW13654   3.087   0.325   7.897
 4399SOL    HW113655   3.152   0.251   7.886
 4399SOL    HW213656   3.107   0.375   7.981
 4400SOL     OW13657   2.456   0.745   8.100
 4400SOL    HW113658   2.506   0.830   8.081
 4400SOL    HW213659   2.368   0.747   8.052
 4401SOL     OW13660   3.639   0.342   9.090
 4401SOL    HW113661   3.622   0.373   8.996
 4401SOL    HW213662   3.555   0.305   9.128
 4402SOL     OW13663   3.592   0.934   8.965
 4402SOL    HW113664   3.630   1.025   8.980
 4402SOL    HW213665   3.584   0.917   8.866
 4403SOL     OW13666   2.721   1.374   7.464
 4403SOL    HW113667   2.675   1.389   7.552
 4403SOL    HW213668   2.765   1.459   7.434
 4404SOL     OW13669   2.523   1.790   8.401
 4404SOL    HW113670   2.477   1.878   8.388
 4404SOL    HW213671   2.622   1.802   8.394
 4405SOL     OW13672   2.721   0.956   8.309
 4405SOL    HW113673   2.775   0.887   8.357
 4405SOL    HW213674   2.689   1.025   8.375
 4406SOL     OW13675   2.945   0.984   7.535
 4406SOL    HW113676   2.922   1.037   7.453
 4406SOL    HW213677   3.026   0.928   7.516
 4407SOL     OW13678   3.723   1.569   8.299
 4407SOL    HW113679   3.652   1.557   8.229
 4407SOL    HW213680   3.724   1.490   8.359
 4408SOL     OW13681   2.083   1.314   9.292
 4408SOL    HW113682   2.018   1.241   9.271
 4408SOL    HW213683   2.087   1.328   9.390
 4409SOL     OW13684   1.941   1.240   8.101
 4409SOL    HW113685   1.940   1.193   8.189
 4409SOL    HW213686   2.023   1.212   8.050
 4410SOL     OW13687   2.534   1.391   9.072
 4410SOL    HW113688   2.456   1.341   9.110
 4410SOL    HW213689   2.531   1.486   9.103
 4411SOL     OW13690   3.686   0.192   8.675
 4411SOL    HW113691   3.682   0.102   8.719
 4411SOL    HW213692   3.689   0.181   8.576
 4412SOL     OW13693   2.290   0.424   7.968
 4412SOL    HW113694   2.320   0.352   7.906
 4412SOL    HW213695   2.251   0.384   8.051
 4413SOL     OW13696   3.567   1.487   8.552
 4413SOL    HW113697   3.474   1.462   8.525
 4413SOL    HW213698   3.593   1.437   8.634
 4414SOL     OW13699   2.179   0.547   8.728
 4414SOL    HW113700   2.217   0.488   8.800
 4414SOL    HW213701   2.219   0.521   8.640
 4415SOL     OW13702   2.674   1.586   8.135
 4415SOL    HW113703   2.706   1.596   8.041
 4415SOL    HW213704   2.595   1.524   8.137
 4416SOL     OW13705   3.286   0.214   8.560
 4416SOL    HW113706   3.338   0.149   8.615
 4416SOL    HW213707   3.237   0.277   8.621
 4417SOL     OW13708   2.863   0.034   8.602
 4417SOL    HW113709   2.800  -0.038   8.571
 4417SOL    HW213710   2.956  -0.002   8.602
 4418SOL     OW13711   2.632   1.330   7.749
 4418SOL    HW113712   2.586   1.243   7.766
 4418SOL    HW213713   2.723   1.327   7.790
 4419SOL     OW13714   2.480   1.567   8.732
 4419SOL    HW113715   2.475   1.649   8.789
 4419SOL    HW213716   2.569   1.564   8.687
 4420SOL     OW13717   3.214   0.052   7.616
 4420SOL    HW113718   3.249   0.011   7.532
 4420SOL    HW213719   3.124   0.014   7.636
 4421SOL     OW13720   3.162   0.453   8.139
 4421SOL    HW113721   3.103   0.533   8.143
 4421SOL    HW213722   3.177   0.418   8.232
 4422SOL     OW13723   3.455   0.221   8.330
 4422SOL    HW113724   3.371   0.220   8.384
 4422SOL    HW213725   3.457   0.304   8.274
 4423SOL     OW13726   1.901   1.077   7.748
 4423SOL    HW113727   2.000   1.066   7.739
 4423SOL    HW213728   1.861   0.991   7.780
 4424SOL     OW13729   2.737   1.646   7.785
 4424SOL    HW113730   2.660   1.611   7.731
 4424SOL    HW213731   2.705   1.717   7.847
 4425SOL     OW13732   2.092   0.628   9.423
 4425SOL    HW113733   1.999   0.626   9.460
 4425SOL    HW213734   2.093   0.589   9.331
 4426SOL     OW13735   2.087   0.275  10.306
 4426SOL    HW113736   2.122   0.258  10.398
 4426SOL    HW213737   1.999   0.230  10.294
 4427SOL     OW13738   1.881   0.368   9.957
 4427SOL    HW113739   1.799   0.411   9.996
 4427SOL    HW213740   1.853   0.295   9.894
 4428SOL     OW13741   2.431   1.275  10.475
 4428SOL    HW113742   2.338   1.268  10.438
 4428SOL    HW213743   2.442   1.364  10.519
 4429SOL     OW13744   3.417   1.511  10.013
 4429SOL    HW113745   3.360   1.495  10.094
 4429SOL    HW213746   3.358   1.521   9.933
 4430SOL     OW13747   2.997   0.703  10.027
 4430SOL    HW113748   3.054   0.781  10.002
 4430SOL    HW213749   2.937   0.729  10.103
 4431SOL     OW13750   3.617   0.607   9.541
 4431SOL    HW113751   3.605   0.594   9.442
 4431SOL    HW213752   3.587   0.526   9.590
 4432SOL     OW13753   2.630   1.144  10.333
 4432SOL    HW113754   2.552   1.161  10.393
 4432SOL    HW213755   2.664   1.231  10.297
 4433SOL     OW13756   2.712   0.798  11.133
 4433SOL    HW113757   2.708   0.874  11.198
 4433SOL    HW213758   2.734   0.834  11.042
 4434SOL     OW13759   2.547   1.012   9.975
 4434SOL    HW113760   2.616   0.996  10.045
 4434SOL    HW213761   2.474   1.069  10.013
 4435SOL     OW13762   2.548   1.161  11.113
 4435SOL    HW113763   2.608   1.240  11.127
 4435SOL    HW213764   2.462   1.192  11.072
 4436SOL     OW13765   2.197   1.435  10.371
 4436SOL    HW113766   2.119   1.404  10.318
 4436SOL    HW213767   2.255   1.493  10.314
 4437SOL     OW13768   3.322   1.505  10.649
 4437SOL    HW113769   3.346   1.599  10.675
 4437SOL    HW213770   3.306   1.451  10.731
 4438SOL     OW13771   2.300   0.392  10.809
 4438SOL    HW113772   2.382   0.336  10.818
 4438SOL    HW213773   2.219   0.334  10.813
 4439SOL     OW13774   3.465   0.447  10.047
 4439SOL    HW113775   3.391   0.493   9.997
 4439SOL    HW213776   3.516   0.515  10.100
 4440SOL     OW13777   2.093   1.713   9.793
 4440SOL    HW113778   2.127   1.790   9.847
 4440SOL    HW213779   2.137   1.713   9.703
 4441SOL     OW13780   2.989   1.341  11.000
 4441SOL    HW113781   3.036   1.341  11.088
 4441SOL    HW213782   2.941   1.254  10.989
 4442SOL     OW13783   2.092   1.434   9.848
 4442SOL    HW113784   2.066   1.530   9.848
 4442SOL    HW213785   2.021   1.380   9.893
 4443SOL     OW13786   2.102   1.091  10.196
 4443SOL    HW113787   2.116   1.007  10.248
 4443SOL    HW213788   2.047   1.155  10.251
 4444SOL     OW13789   2.482   1.786  10.749
 4444SOL    HW113790   2.390   1.769  10.784
 4444SOL    HW213791   2.510   1.878  10.775
 4445SOL     OW13792   2.468   0.964   9.433
 4445SOL    HW113793   2.475   1.048   9.379
 4445SOL    HW213794   2.514   0.977   9.521
 4446SOL     OW13795   3.456   0.114  10.790
 4446SOL    HW113796   3.438   0.181  10.718
 4446SOL    HW213797   3.453   0.160  10.879
 4447SOL     OW13798   1.984   0.643   9.873
 4447SOL    HW113799   1.939   0.555   9.890
 4447SOL    HW213800   1.983   0.697   9.957
 4448SOL     OW13801   3.704   1.767   9.669
 4448SOL    HW113802   3.758   1.738   9.749
 4448SOL    HW213803   3.734   1.857   9.640
 4449SOL     OW13804   1.889   1.596   9.427
 4449SOL    HW113805   1.870   1.500   9.448
 4449SOL    HW213806   1.856   1.654   9.502
 4450SOL     OW13807   3.551   0.922   9.922
 4450SOL    HW113808   3.646   0.893   9.930
 4450SOL    HW213809   3.543   0.987   9.847
 4451SOL     OW13810   3.503   1.108   9.742
 4451SOL    HW113811   3.589   1.110   9.690
 4451SOL    HW213812   3.517   1.155   9.830
 4452SOL     OW13813   1.975   0.737  10.907
 4452SOL    HW113814   2.063   0.724  10.952
 4452SOL    HW213815   1.962   0.834  10.885
 4453SOL     OW13816   2.475   1.365  10.036
 4453SOL    HW113817   2.426   1.278  10.045
 4453SOL    HW213818   2.452   1.408   9.949
 4454SOL     OW13819   3.155   1.228  10.733
 4454SOL    HW113820   3.192   1.155  10.675
 4454SOL    HW213821   3.207   1.233  10.818
 4455SOL     OW13822   2.671   0.004   9.812
 4455SOL    HW113823   2.711   0.095   9.803
 4455SOL    HW213824   2.571   0.012   9.818
 4456SOL     OW13825   2.059   0.976  10.574
 4456SOL    HW113826   2.148   0.931  10.560
 4456SOL    HW213827   1.986   0.911  10.555
 4457SOL     OW13828   3.387   0.999   9.500
 4457SOL    HW113829   3.324   0.923   9.513
 4457SOL    HW213830   3.435   1.017   9.586
 4458SOL     OW13831   3.049   1.792  10.926
 4458SOL    HW113832   3.073   1.852  10.850
 4458SOL    HW213833   3.056   1.697  10.896
 4459SOL     OW13834   2.179   0.251  11.111
 4459SOL    HW113835   2.250   0.322  11.117
 4459SOL    HW213836   2.091   0.290  11.139
 4460SOL     OW13837   3.328   1.417  10.263
 4460SOL    HW113838   3.269   1.423  10.343
 4460SOL    HW213839   3.313   1.329  10.217
 4461SOL     OW13840   3.529   1.714   9.882
 4461SOL    HW113841   3.488   1.691   9.794
 4461SOL    HW213842   3.511   1.640   9.947
 4462SOL     OW13843   2.460   0.729   9.580
 4462SOL    HW113844   2.484   0.798   9.512
 4462SOL    HW213845   2.382   0.762   9.634
 4463SOL     OW13846   3.143   0.345  10.254
 4463SOL    HW113847   3.057   0.295  10.241
 4463SOL    HW213848   3.205   0.291  10.310
 4464SOL     OW13849   3.438   1.662   9.617
 4464SOL    HW113850   3.527   1.708   9.620
 4464SOL    HW213851   3.417   1.638   9.522
 4465SOL     OW13852   2.669   0.605  10.775
 4465SOL    HW113853   2.622   0.602  10.864
 4465SOL    HW213854   2.618   0.550  10.709
 4466SOL     OW13855   3.256   0.469  10.984
 4466SOL    HW113856   3.236   0.512  11.072
 4466SOL    HW213857   3.334   0.407  10.993
 4467SOL     OW13858   2.835   0.890  10.882
 4467SOL    HW113859   2.881   0.806  10.853
 4467SOL    HW213860   2.779   0.924  10.807
 4468SOL     OW13861   2.853   0.410  10.552
 4468SOL    HW113862   2.776   0.444  10.606
 4468SOL    HW213863   2.819   0.359  10.473
 4469SOL     OW13864   2.903   0.701   9.739
 4469SOL    HW113865   2.929   0.697   9.835
 4469SOL    HW213866   2.818   0.650   9.725
 4470SOL     OW13867   1.938   0.811  10.099
 4470SOL    HW113868   2.037   0.799  10.108
 4470SOL    HW213869   1.914   0.906  10.120
 4471SOL     OW13870   2.727   0.348   9.505
 4471SOL    HW113871   2.786   0.411   9.456
 4471SOL    HW213872   2.746   0.254   9.476
 4472SOL     OW13873   3.581   0.585  11.141
 4472SOL    HW113874   3.555   0.674  11.105
 4472SOL    HW213875   3.579   0.517  11.068
 4473SOL     OW13876   3.224   1.144   9.855
 4473SOL    HW113877   3.307   1.115   9.807
 4473SOL    HW213878   3.175   1.211   9.799
 4474SOL     OW13879   2.412   0.196  10.195
 4474SOL    HW113880   2.407   0.191  10.295
 4474SOL    HW213881   2.414   0.292  10.166
 4475SOL     OW13882   2.870   1.456   9.787
 4475SOL    HW113883   2.824   1.528   9.735
 4475SOL    HW213884   2.866   1.476   9.885
 4476SOL     OW13885   2.213   1.801  10.163
 4476SOL    HW113886   2.263   1.715  10.169
 4476SOL    HW213887   2.278   1.878  10.160
 4477SOL     OW13888   3.657   1.066  10.183
 4477SOL    HW113889   3.595   1.051  10.107
 4477SOL    HW213890   3.605   1.077  10.268
 4478SOL     OW13891   3.089   1.550  10.816
 4478SOL    HW113892   3.095   1.473  10.880
 4478SOL    HW213893   3.037   1.524  10.736
 4479SOL     OW13894   2.183   0.943   9.552
 4479SOL    HW113895   2.265   0.982   9.510
 4479SOL    HW213896   2.156   0.861   9.503
 4480SOL     OW13897   3.320   0.735  10.038
 4480SOL    HW113898   3.315   0.670  10.113
 4480SOL    HW213899   3.400   0.794  10.051
 4481SOL     OW13900   2.323   1.266  11.037
 4481SOL    HW113901   2.273   1.267  10.951
 4481SOL    HW213902   2.260   1.248  11.113
 4482SOL     OW13903   2.973   1.776   9.547
 4482SOL    HW113904   2.913   1.714   9.597
 4482SOL    HW213905   3.004   1.732   9.462
 4483SOL     OW13906   2.064   0.285  10.808
 4483SOL    HW113907   1.984   0.345  10.795
 4483SOL    HW213908   2.054   0.236  10.894
 4484SOL     OW13909   3.494   1.377   9.391
 4484SOL    HW113910   3.462   1.471   9.381
 4484SOL    HW213911   3.418   1.314   9.379
 4485SOL     OW13912   2.326   1.743   9.633
 4485SOL    HW113913   2.359   1.782   9.719
 4485SOL    HW213914   2.402   1.736   9.568
 4486SOL     OW13915   3.262   0.107   9.736
 4486SOL    HW113916   3.238   0.070   9.646
 4486SOL    HW213917   3.361   0.123   9.740
 4487SOL     OW13918   2.111   1.785  10.551
 4487SOL    HW113919   2.168   1.720  10.601
 4487SOL    HW213920   2.095   1.752  10.458
 4488SOL     OW13921   2.802   1.698  10.214
 4488SOL    HW113922   2.882   1.641  10.235
 4488SOL    HW213923   2.753   1.658  10.137
 4489SOL     OW13924   2.244   0.700   9.790
 4489SOL    HW113925   2.289   0.610   9.787
 4489SOL    HW213926   2.150   0.689   9.823
 4490SOL     OW13927   3.409   0.222  11.039
 4490SOL    HW113928   3.404   0.259  11.131
 4490SOL    HW213929   3.337   0.153  11.027
 4491SOL     OW13930   2.476   0.122   9.427
 4491SOL    HW113931   2.574   0.100   9.434
 4491SOL    HW213932   2.445   0.105   9.334
 4492SOL     OW13933   2.643   0.264  11.059
 4492SOL    HW113934   2.710   0.203  11.102
 4492SOL    HW213935   2.570   0.283  11.124
 4493SOL     OW13936   2.750   1.514  10.505
 4493SOL    HW113937   2.727   1.489  10.411
 4493SOL    HW213938   2.811   1.445  10.544
 4494SOL     OW13939   3.213   0.590  10.743
 4494SOL    HW113940   3.241   0.547  10.828
 4494SOL    HW213941   3.238   0.686  10.744
 4495SOL     OW13942   2.665   1.402  10.234
 4495SOL    HW113943   2.755   1.416  10.192
 4495SOL    HW213944   2.594   1.404  10.163
 4496SOL     OW13945   2.784   0.503  10.209
 4496SOL    HW113946   2.759   0.494  10.113
 4496SOL    HW213947   2.832   0.421  10.240
 4497SOL     OW13948   2.401   0.064   9.822
 4497SOL    HW113949   2.320   0.065   9.880
 4497SOL    HW213950   2.404   0.147   9.767
 4498SOL     OW13951   3.296   1.188   9.351
 4498SOL    HW113952   3.328   1.112   9.408
 4498SOL    HW213953   3.204   1.215   9.381
 4499SOL     OW13954   2.159   0.035   9.481
 4499SOL    HW113955   2.208   0.119   9.460
 4499SOL    HW213956   2.221  -0.030   9.526
 4500SOL     OW13957   2.797   0.236   9.790
 4500SOL    HW113958   2.749   0.277   9.712
 4500SOL    HW213959   2.896   0.234   9.771
 4501SOL     OW13960   2.938   0.683  10.774
 4501SOL    HW113961   2.858   0.622  10.777
 4501SOL    HW213962   3.019   0.630  10.750
 4502SOL     OW13963   3.089   1.570  10.103
 4502SOL    HW113964   3.110   1.644  10.038
 4502SOL    HW213965   3.157   1.570  10.176
 4503SOL     OW13966   2.321   1.152  10.051
 4503SOL    HW113967   2.250   1.125  10.116
 4503SOL    HW213968   2.295   1.124   9.958
 4504SOL     OW13969   3.133   1.797   9.901
 4504SOL    HW113970   3.177   1.861   9.837
 4504SOL    HW213971   3.083   1.849   9.971
 4505SOL     OW13972   2.894   0.549   9.326
 4505SOL    HW113973   2.853   0.631   9.287
 4505SOL    HW213974   2.958   0.575   9.399
 4506SOL     OW13975   1.940   0.556  10.696
 4506SOL    HW113976   2.032   0.555  10.655
 4506SOL    HW213977   1.934   0.630  10.763
 4507SOL     OW13978   2.423   0.222  10.457
 4507SOL    HW113979   2.461   0.138  10.494
 4507SOL    HW213980   2.335   0.241  10.501
 4508SOL     OW13981   2.728   0.454   9.952
 4508SOL    HW113982   2.696   0.526   9.890
 4508SOL    HW213983   2.752   0.373   9.899
 4509SOL     OW13984   2.879   0.039  10.063
 4509SOL    HW113985   2.807   0.044   9.994
 4509SOL    HW213986   2.855  -0.030  10.132
 4510SOL     OW13987   3.291   1.173  10.177
 4510SOL    HW113988   3.236   1.089  10.170
 4510SOL    HW213989   3.317   1.202  10.085
 4511SOL     OW13990   3.328   0.590  10.302
 4511SOL    HW113991   3.298   0.495  10.309
 4511SOL    HW213992   3.401   0.606  10.368
 4512SOL     OW13993   3.719   0.833   9.687
 4512SOL    HW113994   3.761   0.769   9.751
 4512SOL    HW213995   3.681   0.782   9.609
 4513SOL     OW13996   2.350   1.385   9.484
 4513SOL    HW113997   2.263   1.370   9.531
 4513SOL    HW213998   2.333   1.411   9.389
 4514SOL     OW13999   3.526   1.280   9.967
 4514SOL    HW114000   3.625   1.288   9.981
 4514SOL    HW214001   3.481   1.364   9.998
 4515SOL     OW14002   3.252   0.575   9.388
 4515SOL    HW114003   3.198   0.554   9.469
 4515SOL    HW214004   3.343   0.534   9.397
 4516SOL     OW14005   2.389   0.256   9.638
 4516SOL    HW114006   2.416   0.197   9.563
 4516SOL    HW214007   2.389   0.351   9.607
 4517SOL     OW14008   3.616   1.223  10.898
 4517SOL    HW114009   3.707   1.184  10.885
 4517SOL    HW214010   3.624   1.319  10.922
 4518SOL     OW14011   2.926   1.347  10.650
 4518SOL    HW114012   2.846   1.324  10.705
 4518SOL    HW214013   3.009   1.321  10.699
 4519SOL     OW14014   3.454   1.629  10.935
 4519SOL    HW114015   3.481   1.663  10.845
 4519SOL    HW214016   3.533   1.591  10.981
 4520SOL     OW14017   2.973   1.195  10.410
 4520SOL    HW114018   2.933   1.239  10.491
 4520SOL    HW214019   2.932   1.232  10.327
 4521SOL     OW14020   3.500   1.099  10.389
 4521SOL    HW114021   3.505   1.180  10.448
 4521SOL    HW214022   3.414   1.101  10.338
 4522SOL     OW14023   2.777   0.089  10.712
 4522SOL    HW114024   2.802   0.069  10.617
 4522SOL    HW214025   2.849   0.145  10.754
 4523SOL     OW14026   2.842   1.116  11.029
 4523SOL    HW114027   2.743   1.122  11.039
 4523SOL    HW214028   2.865   1.036  10.973
 4524SOL     OW14029   2.567   1.050   9.678
 4524SOL    HW114030   2.553   1.057   9.777
 4524SOL    HW214031   2.651   0.999   9.660
 4525SOL     OW14032   2.272   0.813  10.561
 4525SOL    HW114033   2.358   0.825  10.611
 4525SOL    HW214034   2.230   0.726  10.588
 4526SOL     OW14035   3.136   0.386  10.572
 4526SOL    HW114036   3.157   0.460  10.636
 4526SOL    HW214037   3.047   0.403  10.529
 4527SOL     OW14038   1.926   1.564  10.641
 4527SOL    HW114039   1.880   1.646  10.607
 4527SOL    HW214040   2.024   1.583  10.650
 4528SOL     OW14041   2.229   1.100   9.811
 4528SOL    HW114042   2.222   1.183   9.755
 4528SOL    HW214043   2.233   1.020   9.751
 4529SOL     OW14044   2.428   0.537  10.175
 4529SOL    HW114045   2.440   0.603  10.101
 4529SOL    HW214046   2.474   0.571  10.258
 4530SOL     OW14047   3.114   1.348   9.698
 4530SOL    HW114048   3.164   1.425   9.738
 4530SOL    HW214049   3.019   1.350   9.730
 4531SOL     OW14050   3.134   1.445  10.452
 4531SOL    HW114051   3.181   1.458  10.539
 4531SOL    HW214052   3.068   1.371  10.461
 4532SOL     OW14053   3.444   0.639   9.782
 4532SOL    HW114054   3.413   0.700   9.855
 4532SOL    HW214055   3.494   0.691   9.713
 4533SOL     OW14056   2.216   1.510  10.639
 4533SOL    HW114057   2.195   1.466  10.552
 4533SOL    HW214058   2.313   1.536  10.642
 4534SOL     OW14059   2.264   0.751  10.908
 4534SOL    HW114060   2.332   0.806  10.861
 4534SOL    HW214061   2.304   0.663  10.935
 4535SOL     OW14062   3.449   0.779  10.980
 4535SOL    HW114063   3.357   0.817  10.975
 4535SOL    HW214064   3.509   0.826  10.915
 4536SOL     OW14065   2.875   0.105  11.080
 4536SOL    HW114066   2.881   0.190  11.028
 4536SOL    HW214067   2.907   0.029  11.023
 4537SOL     OW14068   2.366   0.050  11.050
 4537SOL    HW114069   2.324  -0.007  10.980
 4537SOL    HW214070   2.300   0.119  11.082
 4538SOL     OW14071   2.435   0.870  10.339
 4538SOL    HW114072   2.479   0.959  10.330
 4538SOL    HW214073   2.372   0.870  10.416
 4539SOL     OW14074   3.222   0.862  10.355
 4539SOL    HW114075   3.147   0.862  10.289
 4539SOL    HW214076   3.259   0.770  10.364
 4540SOL     OW14077   3.071   0.525   9.585
 4540SOL    HW114078   3.084   0.441   9.639
 4540SOL    HW214079   3.042   0.599   9.645
 4541SOL     OW14080   2.169   0.213  10.541
 4541SOL    HW114081   2.146   0.250  10.631
 4541SOL    HW214082   2.139   0.118  10.535
 4542SOL     OW14083   1.899   1.310  10.592
 4542SOL    HW114084   1.952   1.261  10.660
 4542SOL    HW214085   1.921   1.408  10.597
 4543SOL     OW14086   2.594   0.634  10.374
 4543SOL    HW114087   2.653   0.608  10.298
 4543SOL    HW214088   2.566   0.730  10.363
 4544SOL     OW14089   3.590   0.935  11.164
 4544SOL    HW114090   3.544   0.928  11.075
 4544SOL    HW214091   3.528   0.979  11.230
 4545SOL     OW14092   2.169   0.063   9.928
 4545SOL    HW114093   2.158   0.157   9.961
 4545SOL    HW214094   2.164   0.000  10.005
 4546SOL     OW14095   3.484   0.367   9.684
 4546SOL    HW114096   3.486   0.291   9.748
 4546SOL    HW214097   3.436   0.444   9.724
 4547SOL     OW14098   2.885   0.766  10.276
 4547SOL    HW114099   2.900   0.787  10.372
 4547SOL    HW214100   2.855   0.671  10.267
 4548SOL     OW14101   2.842   1.573  11.010
 4548SOL    HW114102   2.822   1.617  10.922
 4548SOL    HW214103   2.881   1.482  10.994
 4549SOL     OW14104   3.721   1.518  10.915
 4549SOL    HW114105   3.735   1.545  10.820
 4549SOL    HW214106   3.804   1.540  10.968
 4550SOL     OW14107   2.212   0.898  11.114
 4550SOL    HW114108   2.288   0.942  11.162
 4550SOL    HW214109   2.247   0.851  11.032
 4551SOL     OW14110   3.402   0.274   9.435
 4551SOL    HW114111   3.341   0.199   9.458
 4551SOL    HW214112   3.424   0.326   9.518
 4552SOL     OW14113   3.165   0.838   9.352
 4552SOL    HW114114   3.199   0.745   9.367
 4552SOL    HW214115   3.183   0.865   9.257
 4553SOL     OW14116   2.930   1.333  10.159
 4553SOL    HW114117   2.937   1.249  10.104
 4553SOL    HW214118   2.992   1.402  10.123
 4554SOL     OW14119   2.181   0.810  10.259
 4554SOL    HW114120   2.274   0.846  10.264
 4554SOL    HW214121   2.175   0.725  10.311
 4555SOL     OW14122   2.201   0.509  10.316
 4555SOL    HW114123   2.149   0.426  10.299
 4555SOL    HW214124   2.278   0.514  10.252
 4556SOL     OW14125   3.000   0.380  10.988
 4556SOL    HW114126   2.955   0.443  11.052
 4556SOL    HW214127   3.093   0.411  10.971
 4557SOL     OW14128   3.022   0.207  10.787
 4557SOL    HW114129   3.022   0.271  10.864
 4557SOL    HW214130   3.050   0.255  10.704
 4558SOL     OW14131   1.870   1.326   9.510
 4558SOL    HW114132   1.777   1.347   9.479
 4558SOL    HW214133   1.880   1.227   9.523
 4559SOL     OW14134   1.950   1.801  10.237
 4559SOL    HW114135   1.908   1.715  10.210
 4559SOL    HW214136   2.044   1.804  10.203
 4560SOL     OW14137   2.366   1.568  10.220
 4560SOL    HW114138   2.432   1.642  10.229
 4560SOL    HW214139   2.410   1.489  10.178
 4561SOL     OW14140   2.864   0.796  10.548
 4561SOL    HW114141   2.905   0.764  10.634
 4561SOL    HW214142   2.768   0.769  10.545
 4562SOL     OW14143   1.902   0.544  10.424
 4562SOL    HW114144   1.987   0.511  10.383
 4562SOL    HW214145   1.915   0.559  10.522
 4563SOL     OW14146   2.051   0.520  11.032
 4563SOL    HW114147   2.110   0.480  10.962
 4563SOL    HW214148   1.993   0.591  10.991
 4564SOL     OW14149   3.231   0.950  10.970
 4564SOL    HW114150   3.270   1.039  10.990
 4564SOL    HW214151   3.241   0.930  10.873
 4565SOL     OW14152   2.677   0.572   9.635
 4565SOL    HW114153   2.684   0.483   9.589
 4565SOL    HW214154   2.583   0.606   9.627
 4566SOL     OW14155   3.519   0.604  10.516
 4566SOL    HW114156   3.481   0.535  10.578
 4566SOL    HW214157   3.601   0.568  10.472
 4567SOL     OW14158   2.114   1.564  11.054
 4567SOL    HW114159   2.084   1.621  11.130
 4567SOL    HW214160   2.107   1.467  11.080
 4568SOL     OW14161   2.533   0.464  10.579
 4568SOL    HW114162   2.499   0.375  10.549
 4568SOL    HW214163   2.559   0.518  10.499
 4569SOL     OW14164   2.792   1.678  10.775
 4569SOL    HW114165   2.768   1.660  10.680
 4569SOL    HW214166   2.822   1.772  10.785
 4570SOL     OW14167   2.335   0.500   9.501
 4570SOL    HW114168   2.396   0.580   9.505
 4570SOL    HW214169   2.240   0.531   9.508
 4571SOL     OW14170   2.021   1.137  10.776
 4571SOL    HW114171   2.043   1.076  10.852
 4571SOL    HW214172   2.031   1.088  10.690
 4572SOL     OW14173   3.209   1.059  10.544
 4572SOL    HW114174   3.233   0.996  10.470
 4572SOL    HW214175   3.119   1.099  10.526
 4573SOL     OW14176   3.164   0.855   9.619
 4573SOL    HW114177   3.078   0.824   9.661
 4573SOL    HW214178   3.160   0.841   9.520
 4574SOL     OW14179   3.621   1.747  10.464
 4574SOL    HW114180   3.682   1.777  10.391
 4574SOL    HW214181   3.583   1.658  10.442
 4575SOL     OW14182   3.114   1.731  10.438
 4575SOL    HW114183   3.198   1.736  10.384
 4575SOL    HW214184   3.091   1.635  10.456
 4576SOL     OW14185   1.945   1.258  10.332
 4576SOL    HW114186   1.940   1.257  10.432
 4576SOL    HW214187   1.862   1.217  10.294
 4577SOL     OW14188   2.550   1.662  11.026
 4577SOL    HW114189   2.494   1.743  11.035
 4577SOL    HW214190   2.602   1.666  10.940
 4578SOL     OW14191   3.588   0.135   9.833
 4578SOL    HW114192   3.661   0.118   9.766
 4578SOL    HW214193   3.557   0.048   9.871
 4579SOL     OW14194   3.250   1.573   9.787
 4579SOL    HW114195   3.317   1.585   9.713
 4579SOL    HW214196   3.210   1.662   9.810
 4580SOL     OW14197   1.992   1.794  11.161
 4580SOL    HW114198   1.951   1.720  11.214
 4580SOL    HW214199   2.056   1.845  11.219
 4581SOL     OW14200   3.142   0.927   9.982
 4581SOL    HW114201   3.202   0.846   9.984
 4581SOL    HW214202   3.182   0.996   9.922
 4582SOL     OW14203   2.692   1.273  10.732
 4582SOL    HW114204   2.687   1.306  10.827
 4582SOL    HW214205   2.606   1.292  10.686
 4583SOL     OW14206   2.534   1.616   9.464
 4583SOL    HW114207   2.543   1.626   9.365
 4583SOL    HW214208   2.494   1.527   9.485
 4584SOL     OW14209   3.512   1.720  10.704
 4584SOL    HW114210   3.565   1.730  10.620
 4584SOL    HW214211   3.485   1.810  10.738
 4585SOL     OW14212   3.703   0.175  10.273
 4585SOL    HW114213   3.742   0.090  10.237
 4585SOL    HW214214   3.605   0.177  10.254
 4586SOL     OW14215   2.125   0.326  10.030
 4586SOL    HW114216   2.046   0.377   9.996
 4586SOL    HW214217   2.116   0.311  10.128
 4587SOL     OW14218   3.056   1.612   9.341
 4587SOL    HW114219   3.062   1.519   9.378
 4587SOL    HW214220   2.997   1.612   9.261
 4588SOL     OW14221   2.684   1.002  10.682
 4588SOL    HW114222   2.724   1.001  10.590
 4588SOL    HW214223   2.694   1.094  10.722
 4589SOL     OW14224   2.778   0.910   9.601
 4589SOL    HW114225   2.841   0.948   9.533
 4589SOL    HW214226   2.818   0.827   9.640
 4590SOL     OW14227   3.366   1.607   9.354
 4590SOL    HW114228   3.274   1.644   9.361
 4590SOL    HW214229   3.404   1.627   9.264
 4591SOL     OW14230   2.234   1.288  10.800
 4591SOL    HW114231   2.221   1.381  10.766
 4591SOL    HW214232   2.150   1.236  10.787
 4592SOL     OW14233   3.476   1.292  10.599
 4592SOL    HW114234   3.536   1.295  10.679
 4592SOL    HW214235   3.401   1.356  10.612
 4593SOL     OW14236   2.901   1.098  10.006
 4593SOL    HW114237   2.831   1.051  10.060
 4593SOL    HW214238   2.960   1.030   9.963
 4594SOL     OW14239   2.876   0.236  10.281
 4594SOL    HW114240   2.868   0.200  10.188
 4594SOL    HW214241   2.874   0.160  10.346
 4595SOL     OW14242   2.452   1.487   9.801
 4595SOL    HW114243   2.494   1.429   9.731
 4595SOL    HW214244   2.408   1.566   9.757
 4596SOL     OW14245   3.571   0.385  10.691
 4596SOL    HW114246   3.644   0.454  10.695
 4596SOL    HW214247   3.599   0.310  10.632
 4597SOL     OW14248   2.117   1.348   9.600
 4597SOL    HW114249   2.021   1.349   9.573
 4597SOL    HW214250   2.129   1.401   9.684
 4598SOL     OW14251   1.967   1.013  11.036
 4598SOL    HW114252   1.890   0.980  11.090
 4598SOL    HW214253   2.052   0.983  11.078
 4599SOL     OW14254   2.534   0.203  10.799
 4599SOL    HW114255   2.624   0.187  10.759
 4599SOL    HW214256   2.542   0.208  10.898
 4600SOL     OW14257   1.937   0.345   9.343
 4600SOL    HW114258   1.845   0.317   9.314
 4600SOL    HW214259   1.968   0.422   9.287
 4601SOL     OW14260   3.302   0.856  10.708
 4601SOL    HW114261   3.245   0.908  10.645
 4601SOL    HW214262   3.398   0.868  10.684
 4602SOL     OW14263   1.934   0.166   9.628
 4602SOL    HW114264   1.917   0.249   9.574
 4602SOL    HW214265   2.024   0.129   9.606
 4603SOL     OW14266   3.045   1.335   9.429
 4603SOL    HW114267   2.946   1.324   9.431
 4603SOL    HW214268   3.079   1.350   9.522
 4604SOL     OW14269   2.475   0.842  10.741
 4604SOL    HW114270   2.531   0.923  10.724
 4604SOL    HW214271   2.534   0.762  10.744
 4605SOL     OW14272   3.355   1.767  10.269
 4605SOL    HW114273   3.388   1.831  10.200
 4605SOL    HW214274   3.421   1.761  10.344
 4606SOL     OW14275   2.578   0.565  11.018
 4606SOL    HW114276   2.597   0.630  11.092
 4606SOL    HW214277   2.638   0.485  11.027
 4607SOL     OW14278   3.312   1.220  10.943
 4607SOL    HW114279   3.303   1.210  11.042
 4607SOL    HW214280   3.408   1.213  10.917
 4608SOL     OW14281   2.252   1.741  10.870
 4608SOL    HW114282   2.161   1.782  10.868
 4608SOL    HW214283   2.245   1.647  10.902
 4609SOL     OW14284   3.536   0.883  10.564
 4609SOL    HW114285   3.509   0.794  10.527
 4609SOL    HW214286   3.537   0.951  10.491
 4610SOL     OW14287   3.087   0.325   9.759
 4610SOL    HW114288   3.152   0.251   9.748
 4610SOL    HW214289   3.107   0.375   9.843
 4611SOL     OW14290   2.456   0.745   9.962
 4611SOL    HW114291   2.506   0.830   9.943
 4611SOL    HW214292   2.368   0.747   9.914
 4612SOL     OW14293   3.639   0.342  10.952
 4612SOL    HW114294   3.622   0.373  10.858
 4612SOL    HW214295   3.555   0.305  10.990
 4613SOL     OW14296   3.592   0.934  10.827
 4613SOL    HW114297   3.630   1.025  10.842
 4613SOL    HW214298   3.584   0.917  10.728
 4614SOL     OW14299   2.721   1.374   9.326
 4614SOL    HW114300   2.675   1.389   9.414
 4614SOL    HW214301   2.765   1.459   9.296
 4615SOL     OW14302   2.523   1.790  10.263
 4615SOL    HW114303   2.477   1.878  10.250
 4615SOL    HW214304   2.622   1.802  10.256
 4616SOL     OW14305   2.721   0.956  10.171
 4616SOL    HW114306   2.775   0.887  10.219
 4616SOL    HW214307   2.689   1.025  10.237
 4617SOL     OW14308   2.945   0.984   9.397
 4617SOL    HW114309   2.922   1.037   9.315
 4617SOL    HW214310   3.026   0.928   9.378
 4618SOL     OW14311   3.723   1.569  10.161
 4618SOL    HW114312   3.652   1.557  10.091
 4618SOL    HW214313   3.724   1.490  10.221
 4619SOL     OW14314   2.083   1.314  11.154
 4619SOL    HW114315   2.018   1.241  11.133
 4619SOL    HW214316   2.087   1.328  11.252
 4620SOL     OW14317   1.941   1.240   9.963
 4620SOL    HW114318   1.940   1.193  10.051
 4620SOL    HW214319   2.023   1.212   9.912
 4621SOL     OW14320   2.534   1.391  10.934
 4621SOL    HW114321   2.456   1.341  10.972
 4621SOL    HW214322   2.531   1.486  10.965
 4622SOL     OW14323   3.686   0.192  10.537
 4622SOL    HW114324   3.682   0.102  10.581
 4622SOL    HW214325   3.689   0.181  10.438
 4623SOL     OW14326   2.290   0.424   9.830
 4623SOL    HW114327   2.320   0.352   9.768
 4623SOL    HW214328   2.251   0.384   9.913
 4624SOL     OW14329   3.567   1.487  10.414
 4624SOL    HW114330   3.474   1.462  10.387
 4624SOL    HW214331   3.593   1.437  10.496
 4625SOL     OW14332   2.179   0.547  10.590
 4625SOL    HW114333   2.217   0.488  10.662
 4625SOL    HW214334   2.219   0.521  10.502
 4626SOL     OW14335   2.674   1.586   9.997
 4626SOL    HW114336   2.706   1.596   9.903
 4626SOL    HW214337   2.595   1.524   9.999
 4627SOL     OW14338   3.286   0.214  10.422
 4627SOL    HW114339   3.338   0.149  10.477
 4627SOL    HW214340   3.237   0.277  10.483
 4628SOL     OW14341   2.863   0.034  10.464
 4628SOL    HW114342   2.800  -0.038  10.433
 4628SOL    HW214343   2.956  -0.002  10.464
 4629SOL     OW14344   2.632   1.330   9.611
 4629SOL    HW114345   2.586   1.243   9.628
 4629SOL    HW214346   2.723   1.327   9.652
 4630SOL     OW14347   2.480   1.567  10.594
 4630SOL    HW114348   2.475   1.649  10.651
 4630SOL    HW214349   2.569   1.564  10.549
 4631SOL     OW14350   3.214   0.052   9.478
 4631SOL    HW114351   3.249   0.011   9.394
 4631SOL    HW214352   3.124   0.014   9.498
 4632SOL     OW14353   3.162   0.453  10.001
 4632SOL    HW114354   3.103   0.533  10.005
 4632SOL    HW214355   3.177   0.418  10.094
 4633SOL     OW14356   3.455   0.221  10.192
 4633SOL    HW114357   3.371   0.220  10.246
 4633SOL    HW214358   3.457   0.304  10.136
 4634SOL     OW14359   1.901   1.077   9.610
 4634SOL    HW114360   2.000   1.066   9.601
 4634SOL    HW214361   1.861   0.991   9.642
 4635SOL     OW14362   2.737   1.646   9.647
 4635SOL    HW114363   2.660   1.611   9.593
 4635SOL    HW214364   2.705   1.717   9.709
 4636SOL     OW14365   2.092   0.628  11.285
 4636SOL    HW114366   1.999   0.626  11.322
 4636SOL    HW214367   2.093   0.589  11.193
 4637SOL     OW14368   2.087   0.275  12.168
 4637SOL    HW114369   2.122   0.258  12.260
 4637SOL    HW214370   1.999   0.230  12.156
 4638SOL     OW14371   1.881   0.368  11.819
 4638SOL    HW114372   1.799   0.411  11.858
 4638SOL    HW214373   1.853   0.295  11.756
 4639SOL     OW14374   2.431   1.275  12.337
 4639SOL    HW114375   2.338   1.268  12.300
 4639SOL    HW214376   2.442   1.364  12.381
 4640SOL     OW14377   3.417   1.511  11.875
 4640SOL    HW114378   3.360   1.495  11.956
 4640SOL    HW214379   3.358   1.521  11.795
 4641SOL     OW14380   2.997   0.703  11.889
 4641SOL    HW114381   3.054   0.781  11.864
 4641SOL    HW214382   2.937   0.729  11.965
 4642SOL     OW14383   3.617   0.607  11.403
 4642SOL    HW114384   3.605   0.594  11.304
 4642SOL    HW214385   3.587   0.526  11.452
 4643SOL     OW14386   2.630   1.144  12.195
 4643SOL    HW114387   2.552   1.161  12.255
 4643SOL    HW214388   2.664   1.231  12.159
 4644SOL     OW14389   2.712   0.798  12.995
 4644SOL    HW114390   2.708   0.874  13.060
 4644SOL    HW214391   2.734   0.834  12.904
 4645SOL     OW14392   2.547   1.012  11.837
 4645SOL    HW114393   2.616   0.996  11.907
 4645SOL    HW214394   2.474   1.069  11.875
 4646SOL     OW14395   2.548   1.161  12.975
 4646SOL    HW114396   2.608   1.240  12.989
 4646SOL    HW214397   2.462   1.192  12.934
 4647SOL     OW14398   2.197   1.435  12.233
 4647SOL    HW114399   2.119   1.404  12.180
 4647SOL    HW214400   2.255   1.493  12.176
 4648SOL     OW14401   3.322   1.505  12.511
 4648SOL    HW114402   3.346   1.599  12.537
 4648SOL    HW214403   3.306   1.451  12.593
 4649SOL     OW14404   2.300   0.392  12.671
 4649SOL    HW114405   2.382   0.336  12.680
 4649SOL    HW214406   2.219   0.334  12.675
 4650SOL     OW14407   3.465   0.447  11.909
 4650SOL    HW114408   3.391   0.493  11.859
 4650SOL    HW214409   3.516   0.515  11.962
 4651SOL     OW14410   2.093   1.713  11.655
 4651SOL    HW114411   2.127   1.790  11.709
 4651SOL    HW214412   2.137   1.713  11.565
 4652SOL     OW14413   2.989   1.341  12.862
 4652SOL    HW114414   3.036   1.341  12.950
 4652SOL    HW214415   2.941   1.254  12.851
 4653SOL     OW14416   2.092   1.434  11.710
 4653SOL    HW114417   2.066   1.530  11.710
 4653SOL    HW214418   2.021   1.380  11.755
 4654SOL     OW14419   2.102   1.091  12.058
 4654SOL    HW114420   2.116   1.007  12.110
 4654SOL    HW214421   2.047   1.155  12.113
 4655SOL     OW14422   2.482   1.786  12.611
 4655SOL    HW114423   2.390   1.769  12.646
 4655SOL    HW214424   2.510   1.878  12.637
 4656SOL     OW14425   2.468   0.964  11.295
 4656SOL    HW114426   2.475   1.048  11.241
 4656SOL    HW214427   2.514   0.977  11.383
 4657SOL     OW14428   3.456   0.114  12.652
 4657SOL    HW114429   3.438   0.181  12.580
 4657SOL    HW214430   3.453   0.160  12.741
 4658SOL     OW14431   1.984   0.643  11.735
 4658SOL    HW114432   1.939   0.555  11.752
 4658SOL    HW214433   1.983   0.697  11.819
 4659SOL     OW14434   3.704   1.767  11.531
 4659SOL    HW114435   3.758   1.738  11.611
 4659SOL    HW214436   3.734   1.857  11.502
 4660SOL     OW14437   1.889   1.596  11.289
 4660SOL    HW114438   1.870   1.500  11.310
 4660SOL    HW214439   1.856   1.654  11.364
 4661SOL     OW14440   3.551   0.922  11.784
 4661SOL    HW114441   3.646   0.893  11.792
 4661SOL    HW214442   3.543   0.987  11.709
 4662SOL     OW14443   3.503   1.108  11.604
 4662SOL    HW114444   3.589   1.110  11.552
 4662SOL    HW214445   3.517   1.155  11.692
 4663SOL     OW14446   1.975   0.737  12.769
 4663SOL    HW114447   2.063   0.724  12.814
 4663SOL    HW214448   1.962   0.834  12.747
 4664SOL     OW14449   2.475   1.365  11.898
 4664SOL    HW114450   2.426   1.278  11.907
 4664SOL    HW214451   2.452   1.408  11.811
 4665SOL     OW14452   3.155   1.228  12.595
 4665SOL    HW114453   3.192   1.155  12.537
 4665SOL    HW214454   3.207   1.233  12.680
 4666SOL     OW14455   2.671   0.004  11.674
 4666SOL    HW114456   2.711   0.095  11.665
 4666SOL    HW214457   2.571   0.012  11.680
 4667SOL     OW14458   2.059   0.976  12.436
 4667SOL    HW114459   2.148   0.931  12.422
 4667SOL    HW214460   1.986   0.911  12.417
 4668SOL     OW14461   3.387   0.999  11.362
 4668SOL    HW114462   3.324   0.923  11.375
 4668SOL    HW214463   3.435   1.017  11.448
 4669SOL     OW14464   3.049   1.792  12.788
 4669SOL    HW114465   3.073   1.852  12.712
 4669SOL    HW214466   3.056   1.697  12.758
 4670SOL     OW14467   2.179   0.251  12.973
 4670SOL    HW114468   2.250   0.322  12.979
 4670SOL    HW214469   2.091   0.290  13.001
 4671SOL     OW14470   3.328   1.417  12.125
 4671SOL    HW114471   3.269   1.423  12.205
 4671SOL    HW214472   3.313   1.329  12.079
 4672SOL     OW14473   3.529   1.714  11.744
 4672SOL    HW114474   3.488   1.691  11.656
 4672SOL    HW214475   3.511   1.640  11.809
 4673SOL     OW14476   2.460   0.729  11.442
 4673SOL    HW114477   2.484   0.798  11.374
 4673SOL    HW214478   2.382   0.762  11.496
 4674SOL     OW14479   3.143   0.345  12.116
 4674SOL    HW114480   3.057   0.295  12.103
 4674SOL    HW214481   3.205   0.291  12.172
 4675SOL     OW14482   3.438   1.662  11.479
 4675SOL    HW114483   3.527   1.708  11.482
 4675SOL    HW214484   3.417   1.638  11.384
 4676SOL     OW14485   2.669   0.605  12.637
 4676SOL    HW114486   2.622   0.602  12.726
 4676SOL    HW214487   2.618   0.550  12.571
 4677SOL     OW14488   3.256   0.469  12.846
 4677SOL    HW114489   3.236   0.512  12.934
 4677SOL    HW214490   3.334   0.407  12.855
 4678SOL     OW14491   2.835   0.890  12.744
 4678SOL    HW114492   2.881   0.806  12.715
 4678SOL    HW214493   2.779   0.924  12.669
 4679SOL     OW14494   2.853   0.410  12.414
 4679SOL    HW114495   2.776   0.444  12.468
 4679SOL    HW214496   2.819   0.359  12.335
 4680SOL     OW14497   2.903   0.701  11.601
 4680SOL    HW114498   2.929   0.697  11.697
 4680SOL    HW214499   2.818   0.650  11.587
 4681SOL     OW14500   1.938   0.811  11.961
 4681SOL    HW114501   2.037   0.799  11.970
 4681SOL    HW214502   1.914   0.906  11.982
 4682SOL     OW14503   2.727   0.348  11.367
 4682SOL    HW114504   2.786   0.411  11.318
 4682SOL    HW214505   2.746   0.254  11.338
 4683SOL     OW14506   3.581   0.585  13.003
 4683SOL    HW114507   3.555   0.674  12.967
 4683SOL    HW214508   3.579   0.517  12.930
 4684SOL     OW14509   3.224   1.144  11.717
 4684SOL    HW114510   3.307   1.115  11.669
 4684SOL    HW214511   3.175   1.211  11.661
 4685SOL     OW14512   2.412   0.196  12.057
 4685SOL    HW114513   2.407   0.191  12.157
 4685SOL    HW214514   2.414   0.292  12.028
 4686SOL     OW14515   2.870   1.456  11.649
 4686SOL    HW114516   2.824   1.528  11.597
 4686SOL    HW214517   2.866   1.476  11.747
 4687SOL     OW14518   2.213   1.801  12.025
 4687SOL    HW114519   2.263   1.715  12.031
 4687SOL    HW214520   2.278   1.878  12.022
 4688SOL     OW14521   3.657   1.066  12.045
 4688SOL    HW114522   3.595   1.051  11.969
 4688SOL    HW214523   3.605   1.077  12.130
 4689SOL     OW14524   3.089   1.550  12.678
 4689SOL    HW114525   3.095   1.473  12.742
 4689SOL    HW214526   3.037   1.524  12.598
 4690SOL     OW14527   2.183   0.943  11.414
 4690SOL    HW114528   2.265   0.982  11.372
 4690SOL    HW214529   2.156   0.861  11.365
 4691SOL     OW14530   3.320   0.735  11.900
 4691SOL    HW114531   3.315   0.670  11.975
 4691SOL    HW214532   3.400   0.794  11.913
 4692SOL     OW14533   2.323   1.266  12.899
 4692SOL    HW114534   2.273   1.267  12.813
 4692SOL    HW214535   2.260   1.248  12.975
 4693SOL     OW14536   2.973   1.776  11.409
 4693SOL    HW114537   2.913   1.714  11.459
 4693SOL    HW214538   3.004   1.732  11.324
 4694SOL     OW14539   2.064   0.285  12.670
 4694SOL    HW114540   1.984   0.345  12.657
 4694SOL    HW214541   2.054   0.236  12.756
 4695SOL     OW14542   3.494   1.377  11.253
 4695SOL    HW114543   3.462   1.471  11.243
 4695SOL    HW214544   3.418   1.314  11.241
 4696SOL     OW14545   2.326   1.743  11.495
 4696SOL    HW114546   2.359   1.782  11.581
 4696SOL    HW214547   2.402   1.736  11.430
 4697SOL     OW14548   3.262   0.107  11.598
 4697SOL    HW114549   3.238   0.070  11.508
 4697SOL    HW214550   3.361   0.123  11.602
 4698SOL     OW14551   2.111   1.785  12.413
 4698SOL    HW114552   2.168   1.720  12.463
 4698SOL    HW214553   2.095   1.752  12.320
 4699SOL     OW14554   2.802   1.698  12.076
 4699SOL    HW114555   2.882   1.641  12.097
 4699SOL    HW214556   2.753   1.658  11.999
 4700SOL     OW14557   2.244   0.700  11.652
 4700SOL    HW114558   2.289   0.610  11.649
 4700SOL    HW214559   2.150   0.689  11.685
 4701SOL     OW14560   3.409   0.222  12.901
 4701SOL    HW114561   3.404   0.259  12.993
 4701SOL    HW214562   3.337   0.153  12.889
 4702SOL     OW14563   2.476   0.122  11.289
 4702SOL    HW114564   2.574   0.100  11.296
 4702SOL    HW214565   2.445   0.105  11.196
 4703SOL     OW14566   2.643   0.264  12.921
 4703SOL    HW114567   2.710   0.203  12.964
 4703SOL    HW214568   2.570   0.283  12.986
 4704SOL     OW14569   2.750   1.514  12.367
 4704SOL    HW114570   2.727   1.489  12.273
 4704SOL    HW214571   2.811   1.445  12.406
 4705SOL     OW14572   3.213   0.590  12.605
 4705SOL    HW114573   3.241   0.547  12.690
 4705SOL    HW214574   3.238   0.686  12.606
 4706SOL     OW14575   2.665   1.402  12.096
 4706SOL    HW114576   2.755   1.416  12.054
 4706SOL    HW214577   2.594   1.404  12.025
 4707SOL     OW14578   2.784   0.503  12.071
 4707SOL    HW114579   2.759   0.494  11.975
 4707SOL    HW214580   2.832   0.421  12.102
 4708SOL     OW14581   2.401   0.064  11.684
 4708SOL    HW114582   2.320   0.065  11.742
 4708SOL    HW214583   2.404   0.147  11.629
 4709SOL     OW14584   3.296   1.188  11.213
 4709SOL    HW114585   3.328   1.112  11.270
 4709SOL    HW214586   3.204   1.215  11.243
 4710SOL     OW14587   2.159   0.035  11.343
 4710SOL    HW114588   2.208   0.119  11.322
 4710SOL    HW214589   2.221  -0.030  11.388
 4711SOL     OW14590   2.797   0.236  11.652
 4711SOL    HW114591   2.749   0.277  11.574
 4711SOL    HW214592   2.896   0.234  11.633
 4712SOL     OW14593   2.938   0.683  12.636
 4712SOL    HW114594   2.858   0.622  12.639
 4712SOL    HW214595   3.019   0.630  12.612
 4713SOL     OW14596   3.089   1.570  11.965
 4713SOL    HW114597   3.110   1.644  11.900
 4713SOL    HW214598   3.157   1.570  12.038
 4714SOL     OW14599   2.321   1.152  11.913
 4714SOL    HW114600   2.250   1.125  11.978
 4714SOL    HW214601   2.295   1.124  11.820
 4715SOL     OW14602   3.133   1.797  11.763
 4715SOL    HW114603   3.177   1.861  11.699
 4715SOL    HW214604   3.083   1.849  11.833
 4716SOL     OW14605   2.894   0.549  11.188
 4716SOL    HW114606   2.853   0.631  11.149
 4716SOL    HW214607   2.958   0.575  11.261
 4717SOL     OW14608   1.940   0.556  12.558
 4717SOL    HW114609   2.032   0.555  12.517
 4717SOL    HW214610   1.934   0.630  12.625
 4718SOL     OW14611   2.423   0.222  12.319
 4718SOL    HW114612   2.461   0.138  12.356
 4718SOL    HW214613   2.335   0.241  12.363
 4719SOL     OW14614   2.728   0.454  11.814
 4719SOL    HW114615   2.696   0.526  11.752
 4719SOL    HW214616   2.752   0.373  11.761
 4720SOL     OW14617   2.879   0.039  11.925
 4720SOL    HW114618   2.807   0.044  11.856
 4720SOL    HW214619   2.855  -0.030  11.994
 4721SOL     OW14620   3.291   1.173  12.039
 4721SOL    HW114621   3.236   1.089  12.032
 4721SOL    HW214622   3.317   1.202  11.947
 4722SOL     OW14623   3.328   0.590  12.164
 4722SOL    HW114624   3.298   0.495  12.171
 4722SOL    HW214625   3.401   0.606  12.230
 4723SOL     OW14626   3.719   0.833  11.549
 4723SOL    HW114627   3.761   0.769  11.613
 4723SOL    HW214628   3.681   0.782  11.471
 4724SOL     OW14629   2.350   1.385  11.346
 4724SOL    HW114630   2.263   1.370  11.393
 4724SOL    HW214631   2.333   1.411  11.251
 4725SOL     OW14632   3.526   1.280  11.829
 4725SOL    HW114633   3.625   1.288  11.843
 4725SOL    HW214634   3.481   1.364  11.860
 4726SOL     OW14635   3.252   0.575  11.250
 4726SOL    HW114636   3.198   0.554  11.331
 4726SOL    HW214637   3.343   0.534  11.259
 4727SOL     OW14638   2.389   0.256  11.500
 4727SOL    HW114639   2.416   0.197  11.425
 4727SOL    HW214640   2.389   0.351  11.469
 4728SOL     OW14641   3.616   1.223  12.760
 4728SOL    HW114642   3.707   1.184  12.747
 4728SOL    HW214643   3.624   1.319  12.784
 4729SOL     OW14644   2.926   1.347  12.512
 4729SOL    HW114645   2.846   1.324  12.567
 4729SOL    HW214646   3.009   1.321  12.561
 4730SOL     OW14647   3.454   1.629  12.797
 4730SOL    HW114648   3.481   1.663  12.707
 4730SOL    HW214649   3.533   1.591  12.843
 4731SOL     OW14650   2.973   1.195  12.272
 4731SOL    HW114651   2.933   1.239  12.353
 4731SOL    HW214652   2.932   1.232  12.189
 4732SOL     OW14653   3.500   1.099  12.251
 4732SOL    HW114654   3.505   1.180  12.310
 4732SOL    HW214655   3.414   1.101  12.200
 4733SOL     OW14656   2.777   0.089  12.574
 4733SOL    HW114657   2.802   0.069  12.479
 4733SOL    HW214658   2.849   0.145  12.616
 4734SOL     OW14659   2.842   1.116  12.891
 4734SOL    HW114660   2.743   1.122  12.901
 4734SOL    HW214661   2.865   1.036  12.835
 4735SOL     OW14662   2.567   1.050  11.540
 4735SOL    HW114663   2.553   1.057  11.639
 4735SOL    HW214664   2.651   0.999  11.522
 4736SOL     OW14665   2.272   0.813  12.423
 4736SOL    HW114666   2.358   0.825  12.473
 4736SOL    HW214667   2.230   0.726  12.450
 4737SOL     OW14668   3.136   0.386  12.434
 4737SOL    HW114669   3.157   0.460  12.498
 4737SOL    HW214670   3.047   0.403  12.391
 4738SOL     OW14671   1.926   1.564  12.503
 4738SOL    HW114672   1.880   1.646  12.469
 4738SOL    HW214673   2.024   1.583  12.512
 4739SOL     OW14674   2.229   1.100  11.673
 4739SOL    HW114675   2.222   1.183  11.617
 4739SOL    HW214676   2.233   1.020  11.613
 4740SOL     OW14677   2.428   0.537  12.037
 4740SOL    HW114678   2.440   0.603  11.963
 4740SOL    HW214679   2.474   0.571  12.120
 4741SOL     OW14680   3.114   1.348  11.560
 4741SOL    HW114681   3.164   1.425  11.600
 4741SOL    HW214682   3.019   1.350  11.592
 4742SOL     OW14683   3.134   1.445  12.314
 4742SOL    HW114684   3.181   1.458  12.401
 4742SOL    HW214685   3.068   1.371  12.323
 4743SOL     OW14686   3.444   0.639  11.644
 4743SOL    HW114687   3.413   0.700  11.717
 4743SOL    HW214688   3.494   0.691  11.575
 4744SOL     OW14689   2.216   1.510  12.501
 4744SOL    HW114690   2.195   1.466  12.414
 4744SOL    HW214691   2.313   1.536  12.504
 4745SOL     OW14692   2.264   0.751  12.770
 4745SOL    HW114693   2.332   0.806  12.723
 4745SOL    HW214694   2.304   0.663  12.797
 4746SOL     OW14695   3.449   0.779  12.842
 4746SOL    HW114696   3.357   0.817  12.837
 4746SOL    HW214697   3.509   0.826  12.777
 4747SOL     OW14698   2.875   0.105  12.942
 4747SOL    HW114699   2.881   0.190  12.890
 4747SOL    HW214700   2.907   0.029  12.885
 4748SOL     OW14701   2.366   0.050  12.912
 4748SOL    HW114702   2.324  -0.007  12.842
 4748SOL    HW214703   2.300   0.119  12.944
 4749SOL     OW14704   2.435   0.870  12.201
 4749SOL    HW114705   2.479   0.959  12.192
 4749SOL    HW214706   2.372   0.870  12.278
 4750SOL     OW14707   3.222   0.862  12.217
 4750SOL    HW114708   3.147   0.862  12.151
 4750SOL    HW214709   3.259   0.770  12.226
 4751SOL     OW14710   3.071   0.525  11.447
 4751SOL    HW114711   3.084   0.441  11.501
 4751SOL    HW214712   3.042   0.599  11.507
 4752SOL     OW14713   2.169   0.213  12.403
 4752SOL    HW114714   2.146   0.250  12.493
 4752SOL    HW214715   2.139   0.118  12.397
 4753SOL     OW14716   1.899   1.310  12.454
 4753SOL    HW114717   1.952   1.261  12.522
 4753SOL    HW214718   1.921   1.408  12.459
 4754SOL     OW14719   2.594   0.634  12.236
 4754SOL    HW114720   2.653   0.608  12.160
 4754SOL    HW214721   2.566   0.730  12.225
 4755SOL     OW14722   3.590   0.935  13.026
 4755SOL    HW114723   3.544   0.928  12.937
 4755SOL    HW214724   3.528   0.979  13.092
 4756SOL     OW14725   2.169   0.063  11.790
 4756SOL    HW114726   2.158   0.157  11.823
 4756SOL    HW214727   2.164   0.000  11.867
 4757SOL     OW14728   3.484   0.367  11.546
 4757SOL    HW114729   3.486   0.291  11.610
 4757SOL    HW214730   3.436   0.444  11.586
 4758SOL     OW14731   2.885   0.766  12.138
 4758SOL    HW114732   2.900   0.787  12.234
 4758SOL    HW214733   2.855   0.671  12.129
 4759SOL     OW14734   2.842   1.573  12.872
 4759SOL    HW114735   2.822   1.617  12.784
 4759SOL    HW214736   2.881   1.482  12.856
 4760SOL     OW14737   3.721   1.518  12.777
 4760SOL    HW114738   3.735   1.545  12.682
 4760SOL    HW214739   3.804   1.540  12.830
 4761SOL     OW14740   2.212   0.898  12.976
 4761SOL    HW114741   2.288   0.942  13.024
 4761SOL    HW214742   2.247   0.851  12.894
 4762SOL     OW14743   3.402   0.274  11.297
 4762SOL    HW114744   3.341   0.199  11.320
 4762SOL    HW214745   3.424   0.326  11.380
 4763SOL     OW14746   3.165   0.838  11.214
 4763SOL    HW114747   3.199   0.745  11.229
 4763SOL    HW214748   3.183   0.865  11.119
 4764SOL     OW14749   2.930   1.333  12.021
 4764SOL    HW114750   2.937   1.249  11.966
 4764SOL    HW214751   2.992   1.402  11.985
 4765SOL     OW14752   2.181   0.810  12.121
 4765SOL    HW114753   2.274   0.846  12.126
 4765SOL    HW214754   2.175   0.725  12.173
 4766SOL     OW14755   2.201   0.509  12.178
 4766SOL    HW114756   2.149   0.426  12.161
 4766SOL    HW214757   2.278   0.514  12.114
 4767SOL     OW14758   3.000   0.380  12.850
 4767SOL    HW114759   2.955   0.443  12.914
 4767SOL    HW214760   3.093   0.411  12.833
 4768SOL     OW14761   3.022   0.207  12.649
 4768SOL    HW114762   3.022   0.271  12.726
 4768SOL    HW214763   3.050   0.255  12.566
 4769SOL     OW14764   1.870   1.326  11.372
 4769SOL    HW114765   1.777   1.347  11.341
 4769SOL    HW214766   1.880   1.227  11.385
 4770SOL     OW14767   1.950   1.801  12.099
 4770SOL    HW114768   1.908   1.715  12.072
 4770SOL    HW214769   2.044   1.804  12.065
 4771SOL     OW14770   2.366   1.568  12.082
 4771SOL    HW114771   2.432   1.642  12.091
 4771SOL    HW214772   2.410   1.489  12.040
 4772SOL     OW14773   2.864   0.796  12.410
 4772SOL    HW114774   2.905   0.764  12.496
 4772SOL    HW214775   2.768   0.769  12.407
 4773SOL     OW14776   1.902   0.544  12.286
 4773SOL    HW114777   1.987   0.511  12.245
 4773SOL    HW214778   1.915   0.559  12.384
 4774SOL     OW14779   2.051   0.520  12.894
 4774SOL    HW114780   2.110   0.480  12.824
 4774SOL    HW214781   1.993   0.591  12.853
 4775SOL     OW14782   3.231   0.950  12.832
 4775SOL    HW114783   3.270   1.039  12.852
 4775SOL    HW214784   3.241   0.930  12.735
 4776SOL     OW14785   2.677   0.572  11.497
 4776SOL    HW114786   2.684   0.483  11.451
 4776SOL    HW214787   2.583   0.606  11.489
 4777SOL     OW14788   3.519   0.604  12.378
 4777SOL    HW114789   3.481   0.535  12.440
 4777SOL    HW214790   3.601   0.568  12.334
 4778SOL     OW14791   2.114   1.564  12.916
 4778SOL    HW114792   2.084   1.621  12.992
 4778SOL    HW214793   2.107   1.467  12.942
 4779SOL     OW14794   2.533   0.464  12.441
 4779SOL    HW114795   2.499   0.375  12.411
 4779SOL    HW214796   2.559   0.518  12.361
 4780SOL     OW14797   2.792   1.678  12.637
 4780SOL    HW114798   2.768   1.660  12.542
 4780SOL    HW214799   2.822   1.772  12.647
 4781SOL     OW14800   2.335   0.500  11.363
 4781SOL    HW114801   2.396   0.580  11.367
 4781SOL    HW214802   2.240   0.531  11.370
 4782SOL     OW14803   2.021   1.137  12.638
 4782SOL    HW114804   2.043   1.076  12.714
 4782SOL    HW214805   2.031   1.088  12.552
 4783SOL     OW14806   3.209   1.059  12.406
 4783SOL    HW114807   3.233   0.996  12.332
 4783SOL    HW214808   3.119   1.099  12.388
 4784SOL     OW14809   3.164   0.855  11.481
 4784SOL    HW114810   3.078   0.824  11.523
 4784SOL    HW214811   3.160   0.841  11.382
 4785SOL     OW14812   3.621   1.747  12.326
 4785SOL    HW114813   3.682   1.777  12.253
 4785SOL    HW214814   3.583   1.658  12.304
 4786SOL     OW14815   3.114   1.731  12.300
 4786SOL    HW114816   3.198   1.736  12.246
 4786SOL    HW214817   3.091   1.635  12.318
 4787SOL     OW14818   1.945   1.258  12.194
 4787SOL    HW114819   1.940   1.257  12.294
 4787SOL    HW214820   1.862   1.217  12.156
 4788SOL     OW14821   2.550   1.662  12.888
 4788SOL    HW114822   2.494   1.743  12.897
 4788SOL    HW214823   2.602   1.666  12.802
 4789SOL     OW14824   3.588   0.135  11.695
 4789SOL    HW114825   3.661   0.118  11.628
 4789SOL    HW214826   3.557   0.048  11.733
 4790SOL     OW14827   3.250   1.573  11.649
 4790SOL    HW114828   3.317   1.585  11.575
 4790SOL    HW214829   3.210   1.662  11.672
 4791SOL     OW14830   1.992   1.794  13.023
 4791SOL    HW114831   1.951   1.720  13.076
 4791SOL    HW214832   2.056   1.845  13.081
 4792SOL     OW14833   3.142   0.927  11.844
 4792SOL    HW114834   3.202   0.846  11.846
 4792SOL    HW214835   3.182   0.996  11.784
 4793SOL     OW14836   2.692   1.273  12.594
 4793SOL    HW114837   2.687   1.306  12.689
 4793SOL    HW214838   2.606   1.292  12.548
 4794SOL     OW14839   2.534   1.616  11.326
 4794SOL    HW114840   2.543   1.626  11.227
 4794SOL    HW214841   2.494   1.527  11.347
 4795SOL     OW14842   3.512   1.720  12.566
 4795SOL    HW114843   3.565   1.730  12.482
 4795SOL    HW214844   3.485   1.810  12.600
 4796SOL     OW14845   3.703   0.175  12.135
 4796SOL    HW114846   3.742   0.090  12.099
 4796SOL    HW214847   3.605   0.177  12.116
 4797SOL     OW14848   2.125   0.326  11.892
 4797SOL    HW114849   2.046   0.377  11.858
 4797SOL    HW214850   2.116   0.311  11.990
 4798SOL     OW14851   3.056   1.612  11.203
 4798SOL    HW114852   3.062   1.519  11.240
 4798SOL    HW214853   2.997   1.612  11.123
 4799SOL     OW14854   2.684   1.002  12.544
 4799SOL    HW114855   2.724   1.001  12.452
 4799SOL    HW214856   2.694   1.094  12.584
 4800SOL     OW14857   2.778   0.910  11.463
 4800SOL    HW114858   2.841   0.948  11.395
 4800SOL    HW214859   2.818   0.827  11.502
 4801SOL     OW14860   3.366   1.607  11.216
 4801SOL    HW114861   3.274   1.644  11.223
 4801SOL    HW214862   3.404   1.627  11.126
 4802SOL     OW14863   2.234   1.288  12.662
 4802SOL    HW114864   2.221   1.381  12.628
 4802SOL    HW214865   2.150   1.236  12.649
 4803SOL     OW14866   3.476   1.292  12.461
 4803SOL    HW114867   3.536   1.295  12.541
 4803SOL    HW214868   3.401   1.356  12.474
 4804SOL     OW14869   2.901   1.098  11.868
 4804SOL    HW114870   2.831   1.051  11.922
 4804SOL    HW214871   2.960   1.030  11.825
 4805SOL     OW14872   2.876   0.236  12.143
 4805SOL    HW114873   2.868   0.200  12.050
 4805SOL    HW214874   2.874   0.160  12.208
 4806SOL     OW14875   2.452   1.487  11.663
 4806SOL    HW114876   2.494   1.429  11.593
 4806SOL    HW214877   2.408   1.566  11.619
 4807SOL     OW14878   3.571   0.385  12.553
 4807SOL    HW114879   3.644   0.454  12.557
 4807SOL    HW214880   3.599   0.310  12.494
 4808SOL     OW14881   2.117   1.348  11.462
 4808SOL    HW114882   2.021   1.349  11.435
 4808SOL    HW214883   2.129   1.401  11.546
 4809SOL     OW14884   1.967   1.013  12.898
 4809SOL    HW114885   1.890   0.980  12.952
 4809SOL    HW214886   2.052   0.983  12.940
 4810SOL     OW14887   2.534   0.203  12.661
 4810SOL    HW114888   2.624   0.187  12.621
 4810SOL    HW214889   2.542   0.208  12.760
 4811SOL     OW14890   1.937   0.345  11.205
 4811SOL    HW114891   1.845   0.317  11.176
 4811SOL    HW214892   1.968   0.422  11.149
 4812SOL     OW14893   3.302   0.856  12.570
 4812SOL    HW114894   3.245   0.908  12.507
 4812SOL    HW214895   3.398   0.868  12.546
 4813SOL     OW14896   1.934   0.166  11.490
 4813SOL    HW114897   1.917   0.249  11.436
 4813SOL    HW214898   2.024   0.129  11.468
 4814SOL     OW14899   3.045   1.335  11.291
 4814SOL    HW114900   2.946   1.324  11.293
 4814SOL    HW214901   3.079   1.350  11.384
 4815SOL     OW14902   2.475   0.842  12.603
 4815SOL    HW114903   2.531   0.923  12.586
 4815SOL    HW214904   2.534   0.762  12.606
 4816SOL     OW14905   3.355   1.767  12.131
 4816SOL    HW114906   3.388   1.831  12.062
 4816SOL    HW214907   3.421   1.761  12.206
 4817SOL     OW14908   2.578   0.565  12.880
 4817SOL    HW114909   2.597   0.630  12.954
 4817SOL    HW214910   2.638   0.485  12.889
 4818SOL     OW14911   3.312   1.220  12.805
 4818SOL    HW114912   3.303   1.210  12.904
 4818SOL    HW214913   3.408   1.213  12.779
 4819SOL     OW14914   2.252   1.741  12.732
 4819SOL    HW114915   2.161   1.782  12.730
 4819SOL    HW214916   2.245   1.647  12.764
 4820SOL     OW14917   3.536   0.883  12.426
 4820SOL    HW114918   3.509   0.794  12.389
 4820SOL    HW214919   3.537   0.951  12.353
 4821SOL     OW14920   3.087   0.325  11.621
 4821SOL    HW114921   3.152   0.251  11.610
 4821SOL    HW214922   3.107   0.375  11.705
 4822SOL     OW14923   2.456   0.745  11.824
 4822SOL    HW114924   2.506   0.830  11.805
 4822SOL    HW214925   2.368   0.747  11.776
 4823SOL     OW14926   3.639   0.342  12.814
 4823SOL    HW114927   3.622   0.373  12.720
 4823SOL    HW214928   3.555   0.305  12.852
 4824SOL     OW14929   3.592   0.934  12.689
 4824SOL    HW114930   3.630   1.025  12.704
 4824SOL    HW214931   3.584   0.917  12.590
 4825SOL     OW14932   2.721   1.374  11.188
 4825SOL    HW114933   2.675   1.389  11.276
 4825SOL    HW214934   2.765   1.459  11.158
 4826SOL     OW14935   2.523   1.790  12.125
 4826SOL    HW114936   2.477   1.878  12.112
 4826SOL    HW214937   2.622   1.802  12.118
 4827SOL     OW14938   2.721   0.956  12.033
 4827SOL    HW114939   2.775   0.887  12.081
 4827SOL    HW214940   2.689   1.025  12.099
 4828SOL     OW14941   2.945   0.984  11.259
 4828SOL    HW114942   2.922   1.037  11.177
 4828SOL    HW214943   3.026   0.928  11.240
 4829SOL     OW14944   3.723   1.569  12.023
 4829SOL    HW114945   3.652   1.557  11.953
 4829SOL    HW214946   3.724   1.490  12.083
 4830SOL     OW14947   2.083   1.314  13.016
 4830SOL    HW114948   2.018   1.241  12.995
 4830SOL    HW214949   2.087   1.328  13.114
 4831SOL     OW14950   1.941   1.240  11.825
 4831SOL    HW114951   1.940   1.193  11.913
 4831SOL    HW214952   2.023   1.212  11.774
 4832SOL     OW14953   2.534   1.391  12.796
 4832SOL    HW114954   2.456   1.341  12.834
 4832SOL    HW214955   2.531   1.486  12.827
 4833SOL     OW14956   3.686   0.192  12.399
 4833SOL    HW114957   3.682   0.102  12.443
 4833SOL    HW214958   3.689   0.181  12.300
 4834SOL     OW14959   2.290   0.424  11.692
 4834SOL    HW114960   2.320   0.352  11.630
 4834SOL    HW214961   2.251   0.384  11.775
 4835SOL     OW14962   3.567   1.487  12.276
 4835SOL    HW114963   3.474   1.462  12.249
 4835SOL    HW214964   3.593   1.437  12.358
 4836SOL     OW14965   2.179   0.547  12.452
 4836SOL    HW114966   2.217   0.488  12.524
 4836SOL    HW214967   2.219   0.521  12.364
 4837SOL     OW14968   2.674   1.586  11.859
 4837SOL    HW114969   2.706   1.596  11.765
 4837SOL    HW214970   2.595   1.524  11.861
 4838SOL     OW14971   3.286   0.214  12.284
 4838SOL    HW114972   3.338   0.149  12.339
 4838SOL    HW214973   3.237   0.277  12.345
 4839SOL     OW14974   2.863   0.034  12.326
 4839SOL    HW114975   2.800  -0.038  12.295
 4839SOL    HW214976   2.956  -0.002  12.326
 4840SOL     OW14977   2.632   1.330  11.473
 4840SOL    HW114978   2.586   1.243  11.490
 4840SOL    HW214979   2.723   1.327  11.514
 4841SOL     OW14980   2.480   1.567  12.456
 4841SOL    HW114981   2.475   1.649  12.513
 4841SOL    HW214982   2.569   1.564  12.411
 4842SOL     OW14983   3.214   0.052  11.340
 4842SOL    HW114984   3.249   0.011  11.256
 4842SOL    HW214985   3.124   0.014  11.360
 4843SOL     OW14986   3.162   0.453  11.863
 4843SOL    HW114987   3.103   0.533  11.867
 4843SOL    HW214988   3.177   0.418  11.956
 4844SOL     OW14989   3.455   0.221  12.054
 4844SOL    HW114990   3.371   0.220  12.108
 4844SOL    HW214991   3.457   0.304  11.998
 4845SOL     OW14992   1.901   1.077  11.472
 4845SOL    HW114993   2.000   1.066  11.463
 4845SOL    HW214994   1.861   0.991  11.504
 4846SOL     OW14995   2.737   1.646  11.509
 4846SOL    HW114996   2.660   1.611  11.455
 4846SOL    HW214997   2.705   1.717  11.571
 4847SOL     OW14998   2.092   0.628  13.147
 4847SOL    HW114999   1.999   0.626  13.184
 4847SOL    HW215000   2.093   0.589  13.055
 4848SOL     OW15001   2.087   0.275  14.030
 4848SOL    HW115002   2.122   0.258  14.122
 4848SOL    HW215003   1.999   0.230  14.018
 4849SOL     OW15004   1.881   0.368  13.681
 4849SOL    HW115005   1.799   0.411  13.720
 4849SOL    HW215006   1.853   0.295  13.618
 4850SOL     OW15007   3.417   1.511  13.737
 4850SOL    HW115008   3.360   1.495  13.818
 4850SOL    HW215009   3.358   1.521  13.657
 4851SOL     OW15010   2.997   0.703  13.751
 4851SOL    HW115011   3.054   0.781  13.726
 4851SOL    HW215012   2.937   0.729  13.827
 4852SOL     OW15013   3.617   0.607  13.265
 4852SOL    HW115014   3.605   0.594  13.166
 4852SOL    HW215015   3.587   0.526  13.314
 4853SOL     OW15016   2.547   1.012  13.699
 4853SOL    HW115017   2.616   0.996  13.769
 4853SOL    HW215018   2.474   1.069  13.737
 4854SOL     OW15019   3.465   0.447  13.771
 4854SOL    HW115020   3.391   0.493  13.721
 4854SOL    HW215021   3.516   0.515  13.824
 4855SOL     OW15022   2.093   1.713  13.517
 4855SOL    HW115023   2.127   1.790  13.571
 4855SOL    HW215024   2.137   1.713  13.427
 4856SOL     OW15025   2.092   1.434  13.572
 4856SOL    HW115026   2.066   1.530  13.572
 4856SOL    HW215027   2.021   1.380  13.617
 4857SOL     OW15028   2.102   1.091  13.920
 4857SOL    HW115029   2.116   1.007  13.972
 4857SOL    HW215030   2.047   1.155  13.975
 4858SOL     OW15031   2.468   0.964  13.157
 4858SOL    HW115032   2.475   1.048  13.103
 4858SOL    HW215033   2.514   0.977  13.245
 4859SOL     OW15034   1.984   0.643  13.597
 4859SOL    HW115035   1.939   0.555  13.614
 4859SOL    HW215036   1.983   0.697  13.681
 4860SOL     OW15037   3.704   1.767  13.393
 4860SOL    HW115038   3.758   1.738  13.473
 4860SOL    HW215039   3.734   1.857  13.364
 4861SOL     OW15040   1.889   1.596  13.151
 4861SOL    HW115041   1.870   1.500  13.172
 4861SOL    HW215042   1.856   1.654  13.226
 4862SOL     OW15043   3.551   0.922  13.646
 4862SOL    HW115044   3.646   0.893  13.654
 4862SOL    HW215045   3.543   0.987  13.571
 4863SOL     OW15046   3.503   1.108  13.466
 4863SOL    HW115047   3.589   1.110  13.414
 4863SOL    HW215048   3.517   1.155  13.554
 4864SOL     OW15049   2.475   1.365  13.760
 4864SOL    HW115050   2.426   1.278  13.769
 4864SOL    HW215051   2.452   1.408  13.673
 4865SOL     OW15052   2.671   0.004  13.536
 4865SOL    HW115053   2.711   0.095  13.527
 4865SOL    HW215054   2.571   0.012  13.542
 4866SOL     OW15055   3.387   0.999  13.224
 4866SOL    HW115056   3.324   0.923  13.237
 4866SOL    HW215057   3.435   1.017  13.310
 4867SOL     OW15058   3.529   1.714  13.606
 4867SOL    HW115059   3.488   1.691  13.518
 4867SOL    HW215060   3.511   1.640  13.671
 4868SOL     OW15061   2.460   0.729  13.304
 4868SOL    HW115062   2.484   0.798  13.236
 4868SOL    HW215063   2.382   0.762  13.358
 4869SOL     OW15064   3.143   0.345  13.978
 4869SOL    HW115065   3.057   0.295  13.965
 4869SOL    HW215066   3.205   0.291  14.034
 4870SOL     OW15067   3.438   1.662  13.341
 4870SOL    HW115068   3.527   1.708  13.344
 4870SOL    HW215069   3.417   1.638  13.246
 4871SOL     OW15070   2.903   0.701  13.463
 4871SOL    HW115071   2.929   0.697  13.559
 4871SOL    HW215072   2.818   0.650  13.449
 4872SOL     OW15073   1.938   0.811  13.823
 4872SOL    HW115074   2.037   0.799  13.832
 4872SOL    HW215075   1.914   0.906  13.844
 4873SOL     OW15076   2.727   0.348  13.229
 4873SOL    HW115077   2.786   0.411  13.180
 4873SOL    HW215078   2.746   0.254  13.200
 4874SOL     OW15079   3.224   1.144  13.579
 4874SOL    HW115080   3.307   1.115  13.531
 4874SOL    HW215081   3.175   1.211  13.523
 4875SOL     OW15082   2.870   1.456  13.511
 4875SOL    HW115083   2.824   1.528  13.459
 4875SOL    HW215084   2.866   1.476  13.609
 4876SOL     OW15085   2.213   1.801  13.887
 4876SOL    HW115086   2.263   1.715  13.893
 4876SOL    HW215087   2.278   1.878  13.884
 4877SOL     OW15088   3.657   1.066  13.907
 4877SOL    HW115089   3.595   1.051  13.831
 4877SOL    HW215090   3.605   1.077  13.992
 4878SOL     OW15091   2.183   0.943  13.276
 4878SOL    HW115092   2.265   0.982  13.234
 4878SOL    HW215093   2.156   0.861  13.227
 4879SOL     OW15094   3.320   0.735  13.762
 4879SOL    HW115095   3.315   0.670  13.837
 4879SOL    HW215096   3.400   0.794  13.775
 4880SOL     OW15097   2.973   1.776  13.271
 4880SOL    HW115098   2.913   1.714  13.321
 4880SOL    HW215099   3.004   1.732  13.186
 4881SOL     OW15100   3.494   1.377  13.115
 4881SOL    HW115101   3.462   1.471  13.105
 4881SOL    HW215102   3.418   1.314  13.103
 4882SOL     OW15103   2.326   1.743  13.357
 4882SOL    HW115104   2.359   1.782  13.443
 4882SOL    HW215105   2.402   1.736  13.292
 4883SOL     OW15106   3.262   0.107  13.460
 4883SOL    HW115107   3.238   0.070  13.370
 4883SOL    HW215108   3.361   0.123  13.464
 4884SOL     OW15109   2.802   1.698  13.938
 4884SOL    HW115110   2.882   1.641  13.959
 4884SOL    HW215111   2.753   1.658  13.861
 4885SOL     OW15112   2.244   0.700  13.514
 4885SOL    HW115113   2.289   0.610  13.511
 4885SOL    HW215114   2.150   0.689  13.547
 4886SOL     OW15115   2.476   0.122  13.151
 4886SOL    HW115116   2.574   0.100  13.158
 4886SOL    HW215117   2.445   0.105  13.058
 4887SOL     OW15118   2.401   0.064  13.546
 4887SOL    HW115119   2.320   0.065  13.604
 4887SOL    HW215120   2.404   0.147  13.491
 4888SOL     OW15121   3.296   1.188  13.075
 4888SOL    HW115122   3.328   1.112  13.132
 4888SOL    HW215123   3.204   1.215  13.105
 4889SOL     OW15124   2.159   0.035  13.205
 4889SOL    HW115125   2.208   0.119  13.184
 4889SOL    HW215126   2.221  -0.030  13.250
 4890SOL     OW15127   2.797   0.236  13.514
 4890SOL    HW115128   2.749   0.277  13.436
 4890SOL    HW215129   2.896   0.234  13.495
 4891SOL     OW15130   2.321   1.152  13.775
 4891SOL    HW115131   2.250   1.125  13.840
 4891SOL    HW215132   2.295   1.124  13.682
 4892SOL     OW15133   3.133   1.797  13.625
 4892SOL    HW115134   3.177   1.861  13.561
 4892SOL    HW215135   3.083   1.849  13.695
 4893SOL     OW15136   2.894   0.549  13.050
 4893SOL    HW115137   2.853   0.631  13.011
 4893SOL    HW215138   2.958   0.575  13.123
 4894SOL     OW15139   2.728   0.454  13.676
 4894SOL    HW115140   2.696   0.526  13.614
 4894SOL    HW215141   2.752   0.373  13.623
 4895SOL     OW15142   2.879   0.039  13.787
 4895SOL    HW115143   2.807   0.044  13.718
 4895SOL    HW215144   2.855  -0.030  13.856
 4896SOL     OW15145   3.719   0.833  13.411
 4896SOL    HW115146   3.761   0.769  13.475
 4896SOL    HW215147   3.681   0.782  13.333
 4897SOL     OW15148   2.350   1.385  13.208
 4897SOL    HW115149   2.263   1.370  13.255
 4897SOL    HW215150   2.333   1.411  13.113
 4898SOL     OW15151   3.526   1.280  13.691
 4898SOL    HW115152   3.625   1.288  13.705
 4898SOL    HW215153   3.481   1.364  13.722
 4899SOL     OW15154   3.252   0.575  13.112
 4899SOL    HW115155   3.198   0.554  13.193
 4899SOL    HW215156   3.343   0.534  13.121
 4900SOL     OW15157   2.389   0.256  13.362
 4900SOL    HW115158   2.416   0.197  13.287
 4900SOL    HW215159   2.389   0.351  13.331
 4901SOL     OW15160   2.567   1.050  13.402
 4901SOL    HW115161   2.553   1.057  13.501
 4901SOL    HW215162   2.651   0.999  13.384
 4902SOL     OW15163   2.229   1.100  13.535
 4902SOL    HW115164   2.222   1.183  13.479
 4902SOL    HW215165   2.233   1.020  13.475
 4903SOL     OW15166   2.428   0.537  13.899
 4903SOL    HW115167   2.440   0.603  13.825
 4903SOL    HW215168   2.474   0.571  13.982
 4904SOL     OW15169   3.114   1.348  13.422
 4904SOL    HW115170   3.164   1.425  13.462
 4904SOL    HW215171   3.019   1.350  13.454
 4905SOL     OW15172   3.444   0.639  13.506
 4905SOL    HW115173   3.413   0.700  13.579
 4905SOL    HW215174   3.494   0.691  13.437
 4906SOL     OW15175   3.071   0.525  13.309
 4906SOL    HW115176   3.084   0.441  13.363
 4906SOL    HW215177   3.042   0.599  13.369
 4907SOL     OW15178   2.169   0.063  13.652
 4907SOL    HW115179   2.158   0.157  13.685
 4907SOL    HW215180   2.164   0.000  13.729
 4908SOL     OW15181   3.484   0.367  13.408
 4908SOL    HW115182   3.486   0.291  13.472
 4908SOL    HW215183   3.436   0.444  13.448
 4909SOL     OW15184   3.402   0.274  13.159
 4909SOL    HW115185   3.341   0.199  13.182
 4909SOL    HW215186   3.424   0.326  13.242
 4910SOL     OW15187   3.165   0.838  13.076
 4910SOL    HW115188   3.199   0.745  13.091
 4910SOL    HW215189   3.183   0.865  12.981
 4911SOL     OW15190   1.870   1.326  13.234
 4911SOL    HW115191   1.777   1.347  13.203
 4911SOL    HW215192   1.880   1.227  13.247
 4912SOL     OW15193   2.677   0.572  13.359
 4912SOL    HW115194   2.684   0.483  13.313
 4912SOL    HW215195   2.583   0.606  13.351
 4913SOL     OW15196   2.335   0.500  13.225
 4913SOL    HW115197   2.396   0.580  13.229
 4913SOL    HW215198   2.240   0.531  13.232
 4914SOL     OW15199   3.164   0.855  13.343
 4914SOL    HW115200   3.078   0.824  13.385
 4914SOL    HW215201   3.160   0.841  13.244
 4915SOL     OW15202   3.588   0.135  13.557
 4915SOL    HW115203   3.661   0.118  13.490
 4915SOL    HW215204   3.557   0.048  13.595
 4916SOL     OW15205   3.250   1.573  13.511
 4916SOL    HW115206   3.317   1.585  13.437
 4916SOL    HW215207   3.210   1.662  13.534
 4917SOL     OW15208   3.142   0.927  13.706
 4917SOL    HW115209   3.202   0.846  13.708
 4917SOL    HW215210   3.182   0.996  13.646
 4918SOL     OW15211   2.534   1.616  13.188
 4918SOL    HW115212   2.543   1.626  13.089
 4918SOL    HW215213   2.494   1.527  13.209
 4919SOL     OW15214   3.703   0.175  13.997
 4919SOL    HW115215   3.742   0.090  13.961
 4919SOL    HW215216   3.605   0.177  13.978
 4920SOL     OW15217   2.125   0.326  13.754
 4920SOL    HW115218   2.046   0.377  13.720
 4920SOL    HW215219   2.116   0.311  13.852
 4921SOL     OW15220   3.056   1.612  13.065
 4921SOL    HW115221   3.062   1.519  13.102
 4921SOL    HW215222   2.997   1.612  12.985
 4922SOL     OW15223   2.778   0.910  13.325
 4922SOL    HW115224   2.841   0.948  13.257
 4922SOL    HW215225   2.818   0.827  13.364
 4923SOL     OW15226   3.366   1.607  13.078
 4923SOL    HW115227   3.274   1.644  13.085
 4923SOL    HW215228   3.404   1.627  12.988
 4924SOL     OW15229   2.901   1.098  13.730
 4924SOL    HW115230   2.831   1.051  13.784
 4924SOL    HW215231   2.960   1.030  13.687
 4925SOL     OW15232   2.452   1.487  13.525
 4925SOL    HW115233   2.494   1.429  13.455
 4925SOL    HW215234   2.408   1.566  13.481
 4926SOL     OW15235   2.117   1.348  13.324
 4926SOL    HW115236   2.021   1.349  13.297
 4926SOL    HW215237   2.129   1.401  13.408
 4927SOL     OW15238   1.937   0.345  13.067
 4927SOL    HW115239   1.845   0.317  13.038
 4927SOL    HW215240   1.968   0.422  13.011
 4928SOL     OW15241   1.934   0.166  13.352
 4928SOL    HW115242   1.917   0.249  13.298
 4928SOL    HW215243   2.024   0.129  13.330
 4929SOL     OW15244   3.045   1.335  13.153
 4929SOL    HW115245   2.946   1.324  13.155
 4929SOL    HW215246   3.079   1.350  13.246
 4930SOL     OW15247   3.087   0.325  13.483
 4930SOL    HW115248   3.152   0.251  13.472
 4930SOL    HW215249   3.107   0.375  13.567
 4931SOL     OW15250   2.456   0.745  13.686
 4931SOL    HW115251   2.506   0.830  13.667
 4931SOL    HW215252   2.368   0.747  13.638
 4932SOL     OW15253   2.721   1.374  13.050
 4932SOL    HW115254   2.675   1.389  13.138
 4932SOL    HW215255   2.765   1.459  13.020
 4933SOL     OW15256   2.523   1.790  13.987
 4933SOL    HW115257   2.477   1.878  13.974
 4933SOL    HW215258   2.622   1.802  13.980
 4934SOL     OW15259   2.721   0.956  13.895
 4934SOL    HW115260   2.775   0.887  13.943
 4934SOL    HW215261   2.689   1.025  13.961
 4935SOL     OW15262   2.945   0.984  13.121
 4935SOL    HW115263   2.922   1.037  13.039
 4935SOL    HW215264   3.026   0.928  13.102
 4936SOL     OW15265   1.941   1.240  13.687
 4936SOL    HW115266   1.940   1.193  13.775
 4936SOL    HW215267   2.023   1.212  13.636
 4937SOL     OW15268   2.290   0.424  13.554
 4937SOL    HW115269   2.320   0.352  13.492
 4937SOL    HW215270   2.251   0.384  13.637
 4938SOL     OW15271   3.567   1.487  14.138
 4938SOL    HW115272   3.474   1.462  14.111
 4938SOL    HW215273   3.593   1.437  14.220
 4939SOL     OW15274   2.674   1.586  13.721
 4939SOL    HW115275   2.706   1.596  13.627
 4939SOL    HW215276   2.595   1.524  13.723
 4940SOL     OW15277   2.632   1.330  13.335
 4940SOL    HW115278   2.586   1.243  13.352
 4940SOL    HW215279   2.723   1.327  13.376
 4941SOL     OW15280   3.214   0.052  13.202
 4941SOL    HW115281   3.249   0.011  13.118
 4941SOL    HW215282   3.124   0.014  13.222
 4942SOL     OW15283   3.162   0.453  13.725
 4942SOL    HW115284   3.103   0.533  13.729
 4942SOL    HW215285   3.177   0.418  13.818
 4943SOL     OW15286   1.901   1.077  13.334
 4943SOL    HW115287   2.000   1.066  13.325
 4943SOL    HW215288   1.861   0.991  13.366
 4944SOL     OW15289   2.737   1.646  13.371
 4944SOL    HW115290   2.660   1.611  13.317
 4944SOL    HW215291   2.705   1.717  13.433
 4945SOL     OW15292   2.092   2.490   0.113
 4945SOL    HW115293   1.999   2.488   0.150
 4945SOL    HW215294   2.093   2.451   0.021
 4946SOL     OW15295   1.881   2.230   0.647
 4946SOL    HW115296   1.799   2.273   0.686
 4946SOL    HW215297   1.853   2.157   0.584
 4947SOL     OW15298   2.431   3.137   1.165
 4947SOL    HW115299   2.338   3.130   1.128
 4947SOL    HW215300   2.442   3.226   1.209
 4948SOL     OW15301   3.417   3.373   0.703
 4948SOL    HW115302   3.360   3.357   0.784
 4948SOL    HW215303   3.358   3.383   0.623
 4949SOL     OW15304   2.997   2.565   0.717
 4949SOL    HW115305   3.054   2.643   0.692
 4949SOL    HW215306   2.937   2.591   0.793
 4950SOL     OW15307   3.617   2.469   0.231
 4950SOL    HW115308   3.605   2.456   0.132
 4950SOL    HW215309   3.587   2.388   0.280
 4951SOL     OW15310   2.630   3.006   1.023
 4951SOL    HW115311   2.552   3.023   1.083
 4951SOL    HW215312   2.664   3.093   0.987
 4952SOL     OW15313   2.712   2.660   1.823
 4952SOL    HW115314   2.708   2.736   1.888
 4952SOL    HW215315   2.734   2.696   1.732
 4953SOL     OW15316   2.547   2.874   0.665
 4953SOL    HW115317   2.616   2.858   0.735
 4953SOL    HW215318   2.474   2.931   0.703
 4954SOL     OW15319   2.548   3.023   1.803
 4954SOL    HW115320   2.608   3.102   1.817
 4954SOL    HW215321   2.462   3.054   1.762
 4955SOL     OW15322   2.197   3.297   1.061
 4955SOL    HW115323   2.119   3.266   1.008
 4955SOL    HW215324   2.255   3.355   1.004
 4956SOL     OW15325   3.322   3.367   1.339
 4956SOL    HW115326   3.346   3.461   1.365
 4956SOL    HW215327   3.306   3.313   1.421
 4957SOL     OW15328   2.300   2.254   1.499
 4957SOL    HW115329   2.382   2.198   1.508
 4957SOL    HW215330   2.219   2.196   1.503
 4958SOL     OW15331   3.465   2.309   0.737
 4958SOL    HW115332   3.391   2.355   0.687
 4958SOL    HW215333   3.516   2.377   0.790
 4959SOL     OW15334   2.093   3.575   0.483
 4959SOL    HW115335   2.127   3.652   0.537
 4959SOL    HW215336   2.137   3.575   0.393
 4960SOL     OW15337   2.989   3.203   1.690
 4960SOL    HW115338   3.036   3.203   1.778
 4960SOL    HW215339   2.941   3.116   1.679
 4961SOL     OW15340   2.092   3.296   0.538
 4961SOL    HW115341   2.066   3.392   0.538
 4961SOL    HW215342   2.021   3.242   0.583
 4962SOL     OW15343   2.102   2.953   0.886
 4962SOL    HW115344   2.116   2.869   0.938
 4962SOL    HW215345   2.047   3.017   0.941
 4963SOL     OW15346   2.482   3.648   1.439
 4963SOL    HW115347   2.390   3.631   1.474
 4963SOL    HW215348   2.510   3.740   1.465
 4964SOL     OW15349   2.468   2.826   0.123
 4964SOL    HW115350   2.475   2.910   0.069
 4964SOL    HW215351   2.514   2.839   0.211
 4965SOL     OW15352   3.456   1.976   1.480
 4965SOL    HW115353   3.438   2.043   1.408
 4965SOL    HW215354   3.453   2.022   1.569
 4966SOL     OW15355   1.984   2.505   0.563
 4966SOL    HW115356   1.939   2.417   0.580
 4966SOL    HW215357   1.983   2.559   0.647
 4967SOL     OW15358   3.704   3.629   0.359
 4967SOL    HW115359   3.758   3.600   0.439
 4967SOL    HW215360   3.734   3.719   0.330
 4968SOL     OW15361   1.889   3.458   0.117
 4968SOL    HW115362   1.870   3.362   0.138
 4968SOL    HW215363   1.856   3.516   0.192
 4969SOL     OW15364   3.551   2.784   0.612
 4969SOL    HW115365   3.646   2.755   0.620
 4969SOL    HW215366   3.543   2.849   0.537
 4970SOL     OW15367   3.503   2.970   0.432
 4970SOL    HW115368   3.589   2.972   0.380
 4970SOL    HW215369   3.517   3.017   0.520
 4971SOL     OW15370   1.975   2.599   1.597
 4971SOL    HW115371   2.063   2.586   1.642
 4971SOL    HW215372   1.962   2.696   1.575
 4972SOL     OW15373   2.475   3.227   0.726
 4972SOL    HW115374   2.426   3.140   0.735
 4972SOL    HW215375   2.452   3.270   0.639
 4973SOL     OW15376   3.155   3.090   1.423
 4973SOL    HW115377   3.192   3.017   1.365
 4973SOL    HW215378   3.207   3.095   1.508
 4974SOL     OW15379   2.671   1.866   0.502
 4974SOL    HW115380   2.711   1.957   0.493
 4974SOL    HW215381   2.571   1.874   0.508
 4975SOL     OW15382   2.059   2.838   1.264
 4975SOL    HW115383   2.148   2.793   1.250
 4975SOL    HW215384   1.986   2.773   1.245
 4976SOL     OW15385   3.387   2.861   0.190
 4976SOL    HW115386   3.324   2.785   0.203
 4976SOL    HW215387   3.435   2.879   0.276
 4977SOL     OW15388   3.049   3.654   1.616
 4977SOL    HW115389   3.073   3.714   1.540
 4977SOL    HW215390   3.056   3.559   1.586
 4978SOL     OW15391   3.328   3.279   0.953
 4978SOL    HW115392   3.269   3.285   1.033
 4978SOL    HW215393   3.313   3.191   0.907
 4979SOL     OW15394   3.529   3.576   0.572
 4979SOL    HW115395   3.488   3.553   0.484
 4979SOL    HW215396   3.511   3.502   0.637
 4980SOL     OW15397   2.460   2.591   0.270
 4980SOL    HW115398   2.484   2.660   0.202
 4980SOL    HW215399   2.382   2.624   0.324
 4981SOL     OW15400   3.143   2.207   0.944
 4981SOL    HW115401   3.057   2.157   0.931
 4981SOL    HW215402   3.205   2.153   1.000
 4982SOL     OW15403   3.438   3.524   0.307
 4982SOL    HW115404   3.527   3.570   0.310
 4982SOL    HW215405   3.417   3.500   0.212
 4983SOL     OW15406   2.669   2.467   1.465
 4983SOL    HW115407   2.622   2.464   1.554
 4983SOL    HW215408   2.618   2.412   1.399
 4984SOL     OW15409   3.256   2.331   1.674
 4984SOL    HW115410   3.236   2.374   1.762
 4984SOL    HW215411   3.334   2.269   1.683
 4985SOL     OW15412   2.835   2.752   1.572
 4985SOL    HW115413   2.881   2.668   1.543
 4985SOL    HW215414   2.779   2.786   1.497
 4986SOL     OW15415   2.853   2.272   1.242
 4986SOL    HW115416   2.776   2.306   1.296
 4986SOL    HW215417   2.819   2.221   1.163
 4987SOL     OW15418   2.903   2.563   0.429
 4987SOL    HW115419   2.929   2.559   0.525
 4987SOL    HW215420   2.818   2.512   0.415
 4988SOL     OW15421   1.938   2.673   0.789
 4988SOL    HW115422   2.037   2.661   0.798
 4988SOL    HW215423   1.914   2.768   0.810
 4989SOL     OW15424   1.992   3.683   1.571
 4989SOL    HW115425   1.982   3.668   1.670
 4989SOL    HW215426   1.906   3.719   1.535
 4990SOL     OW15427   2.727   2.210   0.195
 4990SOL    HW115428   2.786   2.273   0.146
 4990SOL    HW215429   2.746   2.116   0.166
 4991SOL     OW15430   3.581   2.447   1.831
 4991SOL    HW115431   3.555   2.536   1.795
 4991SOL    HW215432   3.579   2.379   1.758
 4992SOL     OW15433   3.224   3.006   0.545
 4992SOL    HW115434   3.307   2.977   0.497
 4992SOL    HW215435   3.175   3.073   0.489
 4993SOL     OW15436   2.412   2.058   0.885
 4993SOL    HW115437   2.407   2.053   0.985
 4993SOL    HW215438   2.414   2.154   0.856
 4994SOL     OW15439   2.870   3.318   0.477
 4994SOL    HW115440   2.824   3.390   0.425
 4994SOL    HW215441   2.866   3.338   0.575
 4995SOL     OW15442   2.213   3.663   0.853
 4995SOL    HW115443   2.263   3.577   0.859
 4995SOL    HW215444   2.278   3.740   0.850
 4996SOL     OW15445   3.657   2.928   0.873
 4996SOL    HW115446   3.595   2.913   0.797
 4996SOL    HW215447   3.605   2.939   0.958
 4997SOL     OW15448   3.089   3.412   1.506
 4997SOL    HW115449   3.095   3.335   1.570
 4997SOL    HW215450   3.037   3.386   1.426
 4998SOL     OW15451   2.183   2.805   0.242
 4998SOL    HW115452   2.265   2.844   0.200
 4998SOL    HW215453   2.156   2.723   0.193
 4999SOL     OW15454   3.320   2.597   0.728
 4999SOL    HW115455   3.315   2.532   0.803
 4999SOL    HW215456   3.400   2.656   0.741
 5000SOL     OW15457   2.323   3.128   1.727
 5000SOL    HW115458   2.273   3.129   1.641
 5000SOL    HW215459   2.260   3.110   1.803
 5001SOL     OW15460   2.973   3.638   0.237
 5001SOL    HW115461   2.913   3.576   0.287
 5001SOL    HW215462   3.004   3.594   0.152
 5002SOL     OW15463   3.494   3.239   0.081
 5002SOL    HW115464   3.462   3.333   0.071
 5002SOL    HW215465   3.418   3.176   0.069
 5003SOL     OW15466   2.326   3.605   0.323
 5003SOL    HW115467   2.359   3.644   0.409
 5003SOL    HW215468   2.402   3.598   0.258
 5004SOL     OW15469   3.262   1.969   0.426
 5004SOL    HW115470   3.238   1.932   0.336
 5004SOL    HW215471   3.361   1.985   0.430
 5005SOL     OW15472   2.111   3.647   1.241
 5005SOL    HW115473   2.168   3.582   1.291
 5005SOL    HW215474   2.095   3.614   1.148
 5006SOL     OW15475   2.802   3.560   0.904
 5006SOL    HW115476   2.882   3.503   0.925
 5006SOL    HW215477   2.753   3.520   0.827
 5007SOL     OW15478   2.244   2.562   0.480
 5007SOL    HW115479   2.289   2.472   0.477
 5007SOL    HW215480   2.150   2.551   0.513
 5008SOL     OW15481   3.409   2.084   1.729
 5008SOL    HW115482   3.404   2.121   1.821
 5008SOL    HW215483   3.337   2.015   1.717
 5009SOL     OW15484   2.643   2.126   1.749
 5009SOL    HW115485   2.710   2.065   1.792
 5009SOL    HW215486   2.570   2.145   1.814
 5010SOL     OW15487   2.750   3.376   1.195
 5010SOL    HW115488   2.727   3.351   1.101
 5010SOL    HW215489   2.811   3.307   1.234
 5011SOL     OW15490   3.213   2.452   1.433
 5011SOL    HW115491   3.241   2.409   1.518
 5011SOL    HW215492   3.238   2.548   1.434
 5012SOL     OW15493   2.665   3.264   0.924
 5012SOL    HW115494   2.755   3.278   0.882
 5012SOL    HW215495   2.594   3.266   0.853
 5013SOL     OW15496   2.784   2.365   0.899
 5013SOL    HW115497   2.759   2.356   0.803
 5013SOL    HW215498   2.832   2.283   0.930
 5014SOL     OW15499   2.401   1.926   0.512
 5014SOL    HW115500   2.320   1.927   0.570
 5014SOL    HW215501   2.404   2.009   0.457
 5015SOL     OW15502   3.296   3.050   0.041
 5015SOL    HW115503   3.328   2.974   0.098
 5015SOL    HW215504   3.204   3.077   0.071
 5016SOL     OW15505   2.797   2.098   0.480
 5016SOL    HW115506   2.749   2.139   0.402
 5016SOL    HW215507   2.896   2.096   0.461
 5017SOL     OW15508   2.938   2.545   1.464
 5017SOL    HW115509   2.858   2.484   1.467
 5017SOL    HW215510   3.019   2.492   1.440
 5018SOL     OW15511   3.089   3.432   0.793
 5018SOL    HW115512   3.110   3.506   0.728
 5018SOL    HW215513   3.157   3.432   0.866
 5019SOL     OW15514   2.321   3.014   0.741
 5019SOL    HW115515   2.250   2.987   0.806
 5019SOL    HW215516   2.295   2.986   0.648
 5020SOL     OW15517   3.133   3.659   0.591
 5020SOL    HW115518   3.177   3.723   0.527
 5020SOL    HW215519   3.083   3.711   0.661
 5021SOL     OW15520   2.894   2.411   0.016
 5021SOL    HW115521   2.853   2.493  -0.023
 5021SOL    HW215522   2.958   2.437   0.089
 5022SOL     OW15523   1.940   2.418   1.386
 5022SOL    HW115524   2.032   2.417   1.345
 5022SOL    HW215525   1.934   2.492   1.453
 5023SOL     OW15526   2.423   2.084   1.147
 5023SOL    HW115527   2.461   2.000   1.184
 5023SOL    HW215528   2.335   2.103   1.191
 5024SOL     OW15529   2.728   2.316   0.642
 5024SOL    HW115530   2.696   2.388   0.580
 5024SOL    HW215531   2.752   2.235   0.589
 5025SOL     OW15532   2.879   1.901   0.753
 5025SOL    HW115533   2.807   1.906   0.684
 5025SOL    HW215534   2.855   1.832   0.822
 5026SOL     OW15535   3.291   3.035   0.867
 5026SOL    HW115536   3.236   2.951   0.860
 5026SOL    HW215537   3.317   3.064   0.775
 5027SOL     OW15538   3.328   2.452   0.992
 5027SOL    HW115539   3.298   2.357   0.999
 5027SOL    HW215540   3.401   2.468   1.058
 5028SOL     OW15541   3.719   2.695   0.377
 5028SOL    HW115542   3.761   2.631   0.441
 5028SOL    HW215543   3.681   2.644   0.299
 5029SOL     OW15544   2.350   3.247   0.174
 5029SOL    HW115545   2.263   3.232   0.221
 5029SOL    HW215546   2.333   3.273   0.079
 5030SOL     OW15547   3.526   3.142   0.657
 5030SOL    HW115548   3.625   3.150   0.671
 5030SOL    HW215549   3.481   3.226   0.688
 5031SOL     OW15550   3.252   2.437   0.078
 5031SOL    HW115551   3.198   2.416   0.159
 5031SOL    HW215552   3.343   2.396   0.087
 5032SOL     OW15553   2.389   2.118   0.328
 5032SOL    HW115554   2.416   2.059   0.253
 5032SOL    HW215555   2.389   2.213   0.297
 5033SOL     OW15556   3.616   3.085   1.588
 5033SOL    HW115557   3.707   3.046   1.575
 5033SOL    HW215558   3.624   3.181   1.612
 5034SOL     OW15559   2.926   3.209   1.340
 5034SOL    HW115560   2.846   3.186   1.395
 5034SOL    HW215561   3.009   3.183   1.389
 5035SOL     OW15562   3.454   3.491   1.625
 5035SOL    HW115563   3.481   3.525   1.535
 5035SOL    HW215564   3.533   3.453   1.671
 5036SOL     OW15565   2.973   3.057   1.100
 5036SOL    HW115566   2.933   3.101   1.181
 5036SOL    HW215567   2.932   3.094   1.017
 5037SOL     OW15568   3.500   2.961   1.079
 5037SOL    HW115569   3.505   3.042   1.138
 5037SOL    HW215570   3.414   2.963   1.028
 5038SOL     OW15571   2.777   1.951   1.402
 5038SOL    HW115572   2.802   1.931   1.307
 5038SOL    HW215573   2.849   2.007   1.444
 5039SOL     OW15574   2.842   2.978   1.719
 5039SOL    HW115575   2.743   2.984   1.729
 5039SOL    HW215576   2.865   2.898   1.663
 5040SOL     OW15577   2.567   2.912   0.368
 5040SOL    HW115578   2.553   2.919   0.467
 5040SOL    HW215579   2.651   2.861   0.350
 5041SOL     OW15580   2.272   2.675   1.251
 5041SOL    HW115581   2.358   2.687   1.301
 5041SOL    HW215582   2.230   2.588   1.278
 5042SOL     OW15583   3.136   2.248   1.262
 5042SOL    HW115584   3.157   2.322   1.326
 5042SOL    HW215585   3.047   2.265   1.219
 5043SOL     OW15586   1.926   3.426   1.331
 5043SOL    HW115587   1.880   3.508   1.297
 5043SOL    HW215588   2.024   3.445   1.340
 5044SOL     OW15589   2.229   2.962   0.501
 5044SOL    HW115590   2.222   3.045   0.445
 5044SOL    HW215591   2.233   2.882   0.441
 5045SOL     OW15592   2.428   2.399   0.865
 5045SOL    HW115593   2.440   2.465   0.791
 5045SOL    HW215594   2.474   2.433   0.948
 5046SOL     OW15595   3.114   3.210   0.388
 5046SOL    HW115596   3.164   3.287   0.428
 5046SOL    HW215597   3.019   3.212   0.420
 5047SOL     OW15598   3.134   3.307   1.142
 5047SOL    HW115599   3.181   3.320   1.229
 5047SOL    HW215600   3.068   3.233   1.151
 5048SOL     OW15601   3.444   2.501   0.472
 5048SOL    HW115602   3.413   2.562   0.545
 5048SOL    HW215603   3.494   2.553   0.403
 5049SOL     OW15604   2.216   3.372   1.329
 5049SOL    HW115605   2.195   3.328   1.242
 5049SOL    HW215606   2.313   3.398   1.332
 5050SOL     OW15607   2.264   2.613   1.598
 5050SOL    HW115608   2.332   2.668   1.551
 5050SOL    HW215609   2.304   2.525   1.625
 5051SOL     OW15610   3.449   2.641   1.670
 5051SOL    HW115611   3.357   2.679   1.665
 5051SOL    HW215612   3.509   2.688   1.605
 5052SOL     OW15613   2.875   1.967   1.770
 5052SOL    HW115614   2.881   2.052   1.718
 5052SOL    HW215615   2.907   1.891   1.713
 5053SOL     OW15616   2.366   1.912   1.740
 5053SOL    HW115617   2.324   1.855   1.670
 5053SOL    HW215618   2.300   1.981   1.772
 5054SOL     OW15619   2.435   2.732   1.029
 5054SOL    HW115620   2.479   2.821   1.020
 5054SOL    HW215621   2.372   2.732   1.106
 5055SOL     OW15622   3.222   2.724   1.045
 5055SOL    HW115623   3.147   2.724   0.979
 5055SOL    HW215624   3.259   2.632   1.054
 5056SOL     OW15625   3.071   2.387   0.275
 5056SOL    HW115626   3.084   2.303   0.329
 5056SOL    HW215627   3.042   2.461   0.335
 5057SOL     OW15628   1.899   3.172   1.282
 5057SOL    HW115629   1.952   3.123   1.350
 5057SOL    HW215630   1.921   3.270   1.287
 5058SOL     OW15631   2.594   2.496   1.064
 5058SOL    HW115632   2.653   2.470   0.988
 5058SOL    HW215633   2.566   2.592   1.053
 5059SOL     OW15634   3.590   2.797   1.854
 5059SOL    HW115635   3.544   2.790   1.765
 5059SOL    HW215636   3.528   2.841   1.920
 5060SOL     OW15637   2.169   1.925   0.618
 5060SOL    HW115638   2.158   2.019   0.651
 5060SOL    HW215639   2.164   1.862   0.695
 5061SOL     OW15640   3.484   2.229   0.374
 5061SOL    HW115641   3.486   2.153   0.438
 5061SOL    HW215642   3.436   2.306   0.414
 5062SOL     OW15643   2.885   2.628   0.966
 5062SOL    HW115644   2.900   2.649   1.062
 5062SOL    HW215645   2.855   2.533   0.957
 5063SOL     OW15646   2.842   3.435   1.700
 5063SOL    HW115647   2.822   3.479   1.612
 5063SOL    HW215648   2.881   3.344   1.684
 5064SOL     OW15649   3.721   3.380   1.605
 5064SOL    HW115650   3.735   3.407   1.510
 5064SOL    HW215651   3.804   3.402   1.658
 5065SOL     OW15652   2.212   2.760   1.804
 5065SOL    HW115653   2.288   2.804   1.852
 5065SOL    HW215654   2.247   2.713   1.722
 5066SOL     OW15655   3.402   2.136   0.125
 5066SOL    HW115656   3.341   2.061   0.148
 5066SOL    HW215657   3.424   2.188   0.208
 5067SOL     OW15658   3.165   2.700   0.042
 5067SOL    HW115659   3.199   2.607   0.057
 5067SOL    HW215660   3.183   2.727  -0.053
 5068SOL     OW15661   2.930   3.195   0.849
 5068SOL    HW115662   2.937   3.111   0.794
 5068SOL    HW215663   2.992   3.264   0.813
 5069SOL     OW15664   2.181   2.672   0.949
 5069SOL    HW115665   2.274   2.708   0.954
 5069SOL    HW215666   2.175   2.587   1.001
 5070SOL     OW15667   2.201   2.371   1.006
 5070SOL    HW115668   2.149   2.288   0.989
 5070SOL    HW215669   2.278   2.376   0.942
 5071SOL     OW15670   3.000   2.242   1.678
 5071SOL    HW115671   2.955   2.305   1.742
 5071SOL    HW215672   3.093   2.273   1.661
 5072SOL     OW15673   3.022   2.069   1.477
 5072SOL    HW115674   3.022   2.133   1.554
 5072SOL    HW215675   3.050   2.117   1.394
 5073SOL     OW15676   1.870   3.188   0.200
 5073SOL    HW115677   1.777   3.209   0.169
 5073SOL    HW215678   1.880   3.089   0.213
 5074SOL     OW15679   1.950   3.663   0.927
 5074SOL    HW115680   1.908   3.577   0.900
 5074SOL    HW215681   2.044   3.666   0.893
 5075SOL     OW15682   2.366   3.430   0.910
 5075SOL    HW115683   2.432   3.504   0.919
 5075SOL    HW215684   2.410   3.351   0.868
 5076SOL     OW15685   2.864   2.658   1.238
 5076SOL    HW115686   2.905   2.626   1.324
 5076SOL    HW215687   2.768   2.631   1.235
 5077SOL     OW15688   1.902   2.406   1.114
 5077SOL    HW115689   1.987   2.373   1.073
 5077SOL    HW215690   1.915   2.421   1.212
 5078SOL     OW15691   2.051   2.382   1.722
 5078SOL    HW115692   2.110   2.342   1.652
 5078SOL    HW215693   1.993   2.453   1.681
 5079SOL     OW15694   3.231   2.812   1.660
 5079SOL    HW115695   3.270   2.901   1.680
 5079SOL    HW215696   3.241   2.792   1.563
 5080SOL     OW15697   2.677   2.434   0.325
 5080SOL    HW115698   2.684   2.345   0.279
 5080SOL    HW215699   2.583   2.468   0.317
 5081SOL     OW15700   3.519   2.466   1.206
 5081SOL    HW115701   3.481   2.397   1.268
 5081SOL    HW215702   3.601   2.430   1.162
 5082SOL     OW15703   2.114   3.426   1.744
 5082SOL    HW115704   2.084   3.483   1.820
 5082SOL    HW215705   2.107   3.329   1.770
 5083SOL     OW15706   2.533   2.326   1.269
 5083SOL    HW115707   2.499   2.237   1.239
 5083SOL    HW215708   2.559   2.380   1.189
 5084SOL     OW15709   2.792   3.540   1.465
 5084SOL    HW115710   2.768   3.522   1.370
 5084SOL    HW215711   2.822   3.634   1.475
 5085SOL     OW15712   2.335   2.362   0.191
 5085SOL    HW115713   2.396   2.442   0.195
 5085SOL    HW215714   2.240   2.393   0.198
 5086SOL     OW15715   2.021   2.999   1.466
 5086SOL    HW115716   2.043   2.938   1.542
 5086SOL    HW215717   2.031   2.950   1.380
 5087SOL     OW15718   3.209   2.921   1.234
 5087SOL    HW115719   3.233   2.858   1.160
 5087SOL    HW215720   3.119   2.961   1.216
 5088SOL     OW15721   3.164   2.717   0.309
 5088SOL    HW115722   3.078   2.686   0.351
 5088SOL    HW215723   3.160   2.703   0.210
 5089SOL     OW15724   3.621   3.609   1.154
 5089SOL    HW115725   3.682   3.639   1.081
 5089SOL    HW215726   3.583   3.520   1.132
 5090SOL     OW15727   3.114   3.593   1.128
 5090SOL    HW115728   3.198   3.598   1.074
 5090SOL    HW215729   3.091   3.497   1.146
 5091SOL     OW15730   1.945   3.120   1.022
 5091SOL    HW115731   1.940   3.119   1.122
 5091SOL    HW215732   1.862   3.079   0.984
 5092SOL     OW15733   2.550   3.524   1.716
 5092SOL    HW115734   2.494   3.605   1.725
 5092SOL    HW215735   2.602   3.528   1.630
 5093SOL     OW15736   2.765   1.948   0.133
 5093SOL    HW115737   2.816   1.949   0.047
 5093SOL    HW215738   2.821   1.906   0.204
 5094SOL     OW15739   3.588   1.997   0.523
 5094SOL    HW115740   3.661   1.980   0.456
 5094SOL    HW215741   3.557   1.910   0.561
 5095SOL     OW15742   3.250   3.435   0.477
 5095SOL    HW115743   3.317   3.447   0.403
 5095SOL    HW215744   3.210   3.524   0.500
 5096SOL     OW15745   1.992   3.656   1.851
 5096SOL    HW115746   1.951   3.582   1.904
 5096SOL    HW215747   2.056   3.707   1.909
 5097SOL     OW15748   3.142   2.789   0.672
 5097SOL    HW115749   3.202   2.708   0.674
 5097SOL    HW215750   3.182   2.858   0.612
 5098SOL     OW15751   2.692   3.135   1.422
 5098SOL    HW115752   2.687   3.168   1.517
 5098SOL    HW215753   2.606   3.154   1.376
 5099SOL     OW15754   2.534   3.478   0.154
 5099SOL    HW115755   2.543   3.488   0.055
 5099SOL    HW215756   2.494   3.389   0.175
 5100SOL     OW15757   3.512   3.582   1.394
 5100SOL    HW115758   3.565   3.592   1.310
 5100SOL    HW215759   3.485   3.672   1.428
 5101SOL     OW15760   3.703   2.037   0.963
 5101SOL    HW115761   3.742   1.952   0.927
 5101SOL    HW215762   3.605   2.039   0.944
 5102SOL     OW15763   3.056   3.474   0.031
 5102SOL    HW115764   3.062   3.381   0.068
 5102SOL    HW215765   2.997   3.474  -0.049
 5103SOL     OW15766   2.684   2.864   1.372
 5103SOL    HW115767   2.724   2.863   1.280
 5103SOL    HW215768   2.694   2.956   1.412
 5104SOL     OW15769   2.778   2.772   0.291
 5104SOL    HW115770   2.841   2.810   0.223
 5104SOL    HW215771   2.818   2.689   0.330
 5105SOL     OW15772   3.366   3.469   0.044
 5105SOL    HW115773   3.274   3.506   0.051
 5105SOL    HW215774   3.404   3.489  -0.046
 5106SOL     OW15775   2.234   3.150   1.490
 5106SOL    HW115776   2.221   3.243   1.456
 5106SOL    HW215777   2.150   3.098   1.477
 5107SOL     OW15778   3.476   3.154   1.289
 5107SOL    HW115779   3.536   3.157   1.369
 5107SOL    HW215780   3.401   3.218   1.302
 5108SOL     OW15781   2.901   2.960   0.696
 5108SOL    HW115782   2.831   2.913   0.750
 5108SOL    HW215783   2.960   2.892   0.653
 5109SOL     OW15784   2.876   2.098   0.971
 5109SOL    HW115785   2.868   2.062   0.878
 5109SOL    HW215786   2.874   2.022   1.036
 5110SOL     OW15787   2.452   3.349   0.491
 5110SOL    HW115788   2.494   3.291   0.421
 5110SOL    HW215789   2.408   3.428   0.447
 5111SOL     OW15790   3.571   2.247   1.381
 5111SOL    HW115791   3.644   2.316   1.385
 5111SOL    HW215792   3.599   2.172   1.322
 5112SOL     OW15793   2.117   3.210   0.290
 5112SOL    HW115794   2.021   3.211   0.263
 5112SOL    HW215795   2.129   3.263   0.374
 5113SOL     OW15796   1.967   2.875   1.726
 5113SOL    HW115797   1.890   2.842   1.780
 5113SOL    HW215798   2.052   2.845   1.768
 5114SOL     OW15799   2.534   2.065   1.489
 5114SOL    HW115800   2.624   2.049   1.449
 5114SOL    HW215801   2.542   2.070   1.588
 5115SOL     OW15802   1.937   2.207   0.033
 5115SOL    HW115803   1.845   2.179   0.004
 5115SOL    HW215804   1.968   2.284  -0.023
 5116SOL     OW15805   3.302   2.718   1.398
 5116SOL    HW115806   3.245   2.770   1.335
 5116SOL    HW215807   3.398   2.730   1.374
 5117SOL     OW15808   3.045   3.197   0.119
 5117SOL    HW115809   2.946   3.186   0.121
 5117SOL    HW215810   3.079   3.212   0.212
 5118SOL     OW15811   2.475   2.704   1.431
 5118SOL    HW115812   2.531   2.785   1.414
 5118SOL    HW215813   2.534   2.624   1.434
 5119SOL     OW15814   3.355   3.629   0.959
 5119SOL    HW115815   3.388   3.693   0.890
 5119SOL    HW215816   3.421   3.623   1.034
 5120SOL     OW15817   2.578   2.427   1.708
 5120SOL    HW115818   2.597   2.492   1.782
 5120SOL    HW215819   2.638   2.347   1.717
 5121SOL     OW15820   3.312   3.082   1.633
 5121SOL    HW115821   3.303   3.072   1.732
 5121SOL    HW215822   3.408   3.075   1.607
 5122SOL     OW15823   2.252   3.603   1.560
 5122SOL    HW115824   2.161   3.644   1.558
 5122SOL    HW215825   2.245   3.509   1.592
 5123SOL     OW15826   3.536   2.745   1.254
 5123SOL    HW115827   3.509   2.656   1.217
 5123SOL    HW215828   3.537   2.813   1.181
 5124SOL     OW15829   3.087   2.187   0.449
 5124SOL    HW115830   3.152   2.113   0.438
 5124SOL    HW215831   3.107   2.237   0.533
 5125SOL     OW15832   2.456   2.607   0.652
 5125SOL    HW115833   2.506   2.692   0.633
 5125SOL    HW215834   2.368   2.609   0.604
 5126SOL     OW15835   3.639   2.204   1.642
 5126SOL    HW115836   3.622   2.235   1.548
 5126SOL    HW215837   3.555   2.167   1.680
 5127SOL     OW15838   3.592   2.796   1.517
 5127SOL    HW115839   3.630   2.887   1.532
 5127SOL    HW215840   3.584   2.779   1.418
 5128SOL     OW15841   2.721   3.236   0.016
 5128SOL    HW115842   2.675   3.251   0.104
 5128SOL    HW215843   2.765   3.321  -0.014
 5129SOL     OW15844   2.523   3.652   0.953
 5129SOL    HW115845   2.477   3.740   0.940
 5129SOL    HW215846   2.622   3.664   0.946
 5130SOL     OW15847   2.721   2.818   0.861
 5130SOL    HW115848   2.775   2.749   0.909
 5130SOL    HW215849   2.689   2.887   0.927
 5131SOL     OW15850   2.945   2.846   0.087
 5131SOL    HW115851   2.922   2.899   0.005
 5131SOL    HW215852   3.026   2.790   0.068
 5132SOL     OW15853   3.723   3.431   0.851
 5132SOL    HW115854   3.652   3.419   0.781
 5132SOL    HW215855   3.724   3.352   0.911
 5133SOL     OW15856   2.083   3.176   1.844
 5133SOL    HW115857   2.018   3.103   1.823
 5133SOL    HW215858   2.087   3.190   1.942
 5134SOL     OW15859   1.941   3.102   0.653
 5134SOL    HW115860   1.940   3.055   0.741
 5134SOL    HW215861   2.023   3.074   0.602
 5135SOL     OW15862   2.534   3.253   1.624
 5135SOL    HW115863   2.456   3.203   1.662
 5135SOL    HW215864   2.531   3.348   1.655
 5136SOL     OW15865   3.686   2.054   1.227
 5136SOL    HW115866   3.682   1.964   1.271
 5136SOL    HW215867   3.689   2.043   1.128
 5137SOL     OW15868   2.290   2.286   0.520
 5137SOL    HW115869   2.320   2.214   0.458
 5137SOL    HW215870   2.251   2.246   0.603
 5138SOL     OW15871   3.567   3.349   1.104
 5138SOL    HW115872   3.474   3.324   1.077
 5138SOL    HW215873   3.593   3.299   1.186
 5139SOL     OW15874   2.179   2.409   1.280
 5139SOL    HW115875   2.217   2.350   1.352
 5139SOL    HW215876   2.219   2.383   1.192
 5140SOL     OW15877   2.674   3.448   0.687
 5140SOL    HW115878   2.706   3.458   0.593
 5140SOL    HW215879   2.595   3.386   0.689
 5141SOL     OW15880   3.286   2.076   1.112
 5141SOL    HW115881   3.338   2.011   1.167
 5141SOL    HW215882   3.237   2.139   1.173
 5142SOL     OW15883   2.863   1.896   1.154
 5142SOL    HW115884   2.800   1.824   1.123
 5142SOL    HW215885   2.956   1.860   1.154
 5143SOL     OW15886   2.632   3.192   0.301
 5143SOL    HW115887   2.586   3.105   0.318
 5143SOL    HW215888   2.723   3.189   0.342
 5144SOL     OW15889   2.480   3.429   1.284
 5144SOL    HW115890   2.475   3.511   1.341
 5144SOL    HW215891   2.569   3.426   1.239
 5145SOL     OW15892   3.214   1.914   0.168
 5145SOL    HW115893   3.249   1.873   0.084
 5145SOL    HW215894   3.124   1.876   0.188
 5146SOL     OW15895   3.162   2.315   0.691
 5146SOL    HW115896   3.103   2.395   0.695
 5146SOL    HW215897   3.177   2.280   0.784
 5147SOL     OW15898   3.455   2.083   0.882
 5147SOL    HW115899   3.371   2.082   0.936
 5147SOL    HW215900   3.457   2.166   0.826
 5148SOL     OW15901   1.901   2.939   0.300
 5148SOL    HW115902   2.000   2.928   0.291
 5148SOL    HW215903   1.861   2.853   0.332
 5149SOL     OW15904   2.737   3.508   0.337
 5149SOL    HW115905   2.660   3.473   0.283
 5149SOL    HW215906   2.705   3.579   0.399
 5150SOL     OW15907   2.092   2.490   1.975
 5150SOL    HW115908   1.999   2.488   2.012
 5150SOL    HW215909   2.093   2.451   1.883
 5151SOL     OW15910   1.881   2.230   2.509
 5151SOL    HW115911   1.799   2.273   2.548
 5151SOL    HW215912   1.853   2.157   2.446
 5152SOL     OW15913   2.431   3.137   3.027
 5152SOL    HW115914   2.338   3.130   2.990
 5152SOL    HW215915   2.442   3.226   3.071
 5153SOL     OW15916   3.417   3.373   2.565
 5153SOL    HW115917   3.360   3.357   2.646
 5153SOL    HW215918   3.358   3.383   2.485
 5154SOL     OW15919   2.997   2.565   2.579
 5154SOL    HW115920   3.054   2.643   2.554
 5154SOL    HW215921   2.937   2.591   2.655
 5155SOL     OW15922   3.617   2.469   2.093
 5155SOL    HW115923   3.605   2.456   1.994
 5155SOL    HW215924   3.587   2.388   2.142
 5156SOL     OW15925   2.630   3.006   2.885
 5156SOL    HW115926   2.552   3.023   2.945
 5156SOL    HW215927   2.664   3.093   2.849
 5157SOL     OW15928   2.712   2.660   3.685
 5157SOL    HW115929   2.708   2.736   3.750
 5157SOL    HW215930   2.734   2.696   3.594
 5158SOL     OW15931   2.547   2.874   2.527
 5158SOL    HW115932   2.616   2.858   2.597
 5158SOL    HW215933   2.474   2.931   2.565
 5159SOL     OW15934   2.548   3.023   3.665
 5159SOL    HW115935   2.608   3.102   3.679
 5159SOL    HW215936   2.462   3.054   3.624
 5160SOL     OW15937   2.197   3.297   2.923
 5160SOL    HW115938   2.119   3.266   2.870
 5160SOL    HW215939   2.255   3.355   2.866
 5161SOL     OW15940   3.322   3.367   3.201
 5161SOL    HW115941   3.346   3.461   3.227
 5161SOL    HW215942   3.306   3.313   3.283
 5162SOL     OW15943   2.300   2.254   3.361
 5162SOL    HW115944   2.382   2.198   3.370
 5162SOL    HW215945   2.219   2.196   3.365
 5163SOL     OW15946   3.465   2.309   2.599
 5163SOL    HW115947   3.391   2.355   2.549
 5163SOL    HW215948   3.516   2.377   2.652
 5164SOL     OW15949   2.093   3.575   2.345
 5164SOL    HW115950   2.127   3.652   2.399
 5164SOL    HW215951   2.137   3.575   2.255
 5165SOL     OW15952   2.989   3.203   3.552
 5165SOL    HW115953   3.036   3.203   3.640
 5165SOL    HW215954   2.941   3.116   3.541
 5166SOL     OW15955   2.092   3.296   2.400
 5166SOL    HW115956   2.066   3.392   2.400
 5166SOL    HW215957   2.021   3.242   2.445
 5167SOL     OW15958   2.102   2.953   2.748
 5167SOL    HW115959   2.116   2.869   2.800
 5167SOL    HW215960   2.047   3.017   2.803
 5168SOL     OW15961   2.482   3.648   3.301
 5168SOL    HW115962   2.390   3.631   3.336
 5168SOL    HW215963   2.510   3.740   3.327
 5169SOL     OW15964   2.468   2.826   1.985
 5169SOL    HW115965   2.475   2.910   1.931
 5169SOL    HW215966   2.514   2.839   2.073
 5170SOL     OW15967   3.456   1.976   3.342
 5170SOL    HW115968   3.438   2.043   3.270
 5170SOL    HW215969   3.453   2.022   3.431
 5171SOL     OW15970   1.984   2.505   2.425
 5171SOL    HW115971   1.939   2.417   2.442
 5171SOL    HW215972   1.983   2.559   2.509
 5172SOL     OW15973   3.704   3.629   2.221
 5172SOL    HW115974   3.758   3.600   2.301
 5172SOL    HW215975   3.734   3.719   2.192
 5173SOL     OW15976   1.889   3.458   1.979
 5173SOL    HW115977   1.870   3.362   2.000
 5173SOL    HW215978   1.856   3.516   2.054
 5174SOL     OW15979   3.551   2.784   2.474
 5174SOL    HW115980   3.646   2.755   2.482
 5174SOL    HW215981   3.543   2.849   2.399
 5175SOL     OW15982   3.503   2.970   2.294
 5175SOL    HW115983   3.589   2.972   2.242
 5175SOL    HW215984   3.517   3.017   2.382
 5176SOL     OW15985   1.975   2.599   3.459
 5176SOL    HW115986   2.063   2.586   3.504
 5176SOL    HW215987   1.962   2.696   3.437
 5177SOL     OW15988   2.475   3.227   2.588
 5177SOL    HW115989   2.426   3.140   2.597
 5177SOL    HW215990   2.452   3.270   2.501
 5178SOL     OW15991   3.155   3.090   3.285
 5178SOL    HW115992   3.192   3.017   3.227
 5178SOL    HW215993   3.207   3.095   3.370
 5179SOL     OW15994   2.671   1.866   2.364
 5179SOL    HW115995   2.711   1.957   2.355
 5179SOL    HW215996   2.571   1.874   2.370
 5180SOL     OW15997   2.059   2.838   3.126
 5180SOL    HW115998   2.148   2.793   3.112
 5180SOL    HW215999   1.986   2.773   3.107
 5181SOL     OW16000   3.387   2.861   2.052
 5181SOL    HW116001   3.324   2.785   2.065
 5181SOL    HW216002   3.435   2.879   2.138
 5182SOL     OW16003   3.049   3.654   3.478
 5182SOL    HW116004   3.073   3.714   3.402
 5182SOL    HW216005   3.056   3.559   3.448
 5183SOL     OW16006   3.328   3.279   2.815
 5183SOL    HW116007   3.269   3.285   2.895
 5183SOL    HW216008   3.313   3.191   2.769
 5184SOL     OW16009   3.529   3.576   2.434
 5184SOL    HW116010   3.488   3.553   2.346
 5184SOL    HW216011   3.511   3.502   2.499
 5185SOL     OW16012   2.460   2.591   2.132
 5185SOL    HW116013   2.484   2.660   2.064
 5185SOL    HW216014   2.382   2.624   2.186
 5186SOL     OW16015   3.143   2.207   2.806
 5186SOL    HW116016   3.057   2.157   2.793
 5186SOL    HW216017   3.205   2.153   2.862
 5187SOL     OW16018   3.438   3.524   2.169
 5187SOL    HW116019   3.527   3.570   2.172
 5187SOL    HW216020   3.417   3.500   2.074
 5188SOL     OW16021   2.669   2.467   3.327
 5188SOL    HW116022   2.622   2.464   3.416
 5188SOL    HW216023   2.618   2.412   3.261
 5189SOL     OW16024   3.256   2.331   3.536
 5189SOL    HW116025   3.236   2.374   3.624
 5189SOL    HW216026   3.334   2.269   3.545
 5190SOL     OW16027   2.835   2.752   3.434
 5190SOL    HW116028   2.881   2.668   3.405
 5190SOL    HW216029   2.779   2.786   3.359
 5191SOL     OW16030   2.853   2.272   3.104
 5191SOL    HW116031   2.776   2.306   3.158
 5191SOL    HW216032   2.819   2.221   3.025
 5192SOL     OW16033   2.903   2.563   2.291
 5192SOL    HW116034   2.929   2.559   2.387
 5192SOL    HW216035   2.818   2.512   2.277
 5193SOL     OW16036   1.938   2.673   2.651
 5193SOL    HW116037   2.037   2.661   2.660
 5193SOL    HW216038   1.914   2.768   2.672
 5194SOL     OW16039   1.992   3.683   3.433
 5194SOL    HW116040   1.982   3.668   3.532
 5194SOL    HW216041   1.906   3.719   3.397
 5195SOL     OW16042   2.727   2.210   2.057
 5195SOL    HW116043   2.786   2.273   2.008
 5195SOL    HW216044   2.746   2.116   2.028
 5196SOL     OW16045   3.581   2.447   3.693
 5196SOL    HW116046   3.555   2.536   3.657
 5196SOL    HW216047   3.579   2.379   3.620
 5197SOL     OW16048   3.224   3.006   2.407
 5197SOL    HW116049   3.307   2.977   2.359
 5197SOL    HW216050   3.175   3.073   2.351
 5198SOL     OW16051   2.412   2.058   2.747
 5198SOL    HW116052   2.407   2.053   2.847
 5198SOL    HW216053   2.414   2.154   2.718
 5199SOL     OW16054   2.870   3.318   2.339
 5199SOL    HW116055   2.824   3.390   2.287
 5199SOL    HW216056   2.866   3.338   2.437
 5200SOL     OW16057   2.213   3.663   2.715
 5200SOL    HW116058   2.263   3.577   2.721
 5200SOL    HW216059   2.278   3.740   2.712
 5201SOL     OW16060   3.657   2.928   2.735
 5201SOL    HW116061   3.595   2.913   2.659
 5201SOL    HW216062   3.605   2.939   2.820
 5202SOL     OW16063   3.089   3.412   3.368
 5202SOL    HW116064   3.095   3.335   3.432
 5202SOL    HW216065   3.037   3.386   3.288
 5203SOL     OW16066   2.183   2.805   2.104
 5203SOL    HW116067   2.265   2.844   2.062
 5203SOL    HW216068   2.156   2.723   2.055
 5204SOL     OW16069   3.320   2.597   2.590
 5204SOL    HW116070   3.315   2.532   2.665
 5204SOL    HW216071   3.400   2.656   2.603
 5205SOL     OW16072   2.323   3.128   3.589
 5205SOL    HW116073   2.273   3.129   3.503
 5205SOL    HW216074   2.260   3.110   3.665
 5206SOL     OW16075   2.973   3.638   2.099
 5206SOL    HW116076   2.913   3.576   2.149
 5206SOL    HW216077   3.004   3.594   2.014
 5207SOL     OW16078   3.494   3.239   1.943
 5207SOL    HW116079   3.462   3.333   1.933
 5207SOL    HW216080   3.418   3.176   1.931
 5208SOL     OW16081   2.326   3.605   2.185
 5208SOL    HW116082   2.359   3.644   2.271
 5208SOL    HW216083   2.402   3.598   2.120
 5209SOL     OW16084   3.262   1.969   2.288
 5209SOL    HW116085   3.238   1.932   2.198
 5209SOL    HW216086   3.361   1.985   2.292
 5210SOL     OW16087   2.111   3.647   3.103
 5210SOL    HW116088   2.168   3.582   3.153
 5210SOL    HW216089   2.095   3.614   3.010
 5211SOL     OW16090   2.802   3.560   2.766
 5211SOL    HW116091   2.882   3.503   2.787
 5211SOL    HW216092   2.753   3.520   2.689
 5212SOL     OW16093   2.244   2.562   2.342
 5212SOL    HW116094   2.289   2.472   2.339
 5212SOL    HW216095   2.150   2.551   2.375
 5213SOL     OW16096   3.409   2.084   3.591
 5213SOL    HW116097   3.404   2.121   3.683
 5213SOL    HW216098   3.337   2.015   3.579
 5214SOL     OW16099   2.476   1.984   1.979
 5214SOL    HW116100   2.574   1.962   1.986
 5214SOL    HW216101   2.445   1.967   1.886
 5215SOL     OW16102   2.643   2.126   3.611
 5215SOL    HW116103   2.710   2.065   3.654
 5215SOL    HW216104   2.570   2.145   3.676
 5216SOL     OW16105   2.750   3.376   3.057
 5216SOL    HW116106   2.727   3.351   2.963
 5216SOL    HW216107   2.811   3.307   3.096
 5217SOL     OW16108   3.213   2.452   3.295
 5217SOL    HW116109   3.241   2.409   3.380
 5217SOL    HW216110   3.238   2.548   3.296
 5218SOL     OW16111   2.665   3.264   2.786
 5218SOL    HW116112   2.755   3.278   2.744
 5218SOL    HW216113   2.594   3.266   2.715
 5219SOL     OW16114   2.784   2.365   2.761
 5219SOL    HW116115   2.759   2.356   2.665
 5219SOL    HW216116   2.832   2.283   2.792
 5220SOL     OW16117   2.401   1.926   2.374
 5220SOL    HW116118   2.320   1.927   2.432
 5220SOL    HW216119   2.404   2.009   2.319
 5221SOL     OW16120   3.296   3.050   1.903
 5221SOL    HW116121   3.328   2.974   1.960
 5221SOL    HW216122   3.204   3.077   1.933
 5222SOL     OW16123   2.797   2.098   2.342
 5222SOL    HW116124   2.749   2.139   2.264
 5222SOL    HW216125   2.896   2.096   2.323
 5223SOL     OW16126   2.938   2.545   3.326
 5223SOL    HW116127   2.858   2.484   3.329
 5223SOL    HW216128   3.019   2.492   3.302
 5224SOL     OW16129   3.089   3.432   2.655
 5224SOL    HW116130   3.110   3.506   2.590
 5224SOL    HW216131   3.157   3.432   2.728
 5225SOL     OW16132   2.321   3.014   2.603
 5225SOL    HW116133   2.250   2.987   2.668
 5225SOL    HW216134   2.295   2.986   2.510
 5226SOL     OW16135   3.133   3.659   2.453
 5226SOL    HW116136   3.177   3.723   2.389
 5226SOL    HW216137   3.083   3.711   2.523
 5227SOL     OW16138   2.894   2.411   1.878
 5227SOL    HW116139   2.853   2.493   1.839
 5227SOL    HW216140   2.958   2.437   1.951
 5228SOL     OW16141   1.940   2.418   3.248
 5228SOL    HW116142   2.032   2.417   3.207
 5228SOL    HW216143   1.934   2.492   3.315
 5229SOL     OW16144   2.423   2.084   3.009
 5229SOL    HW116145   2.461   2.000   3.046
 5229SOL    HW216146   2.335   2.103   3.053
 5230SOL     OW16147   2.728   2.316   2.504
 5230SOL    HW116148   2.696   2.388   2.442
 5230SOL    HW216149   2.752   2.235   2.451
 5231SOL     OW16150   2.879   1.901   2.615
 5231SOL    HW116151   2.807   1.906   2.546
 5231SOL    HW216152   2.855   1.832   2.684
 5232SOL     OW16153   3.291   3.035   2.729
 5232SOL    HW116154   3.236   2.951   2.722
 5232SOL    HW216155   3.317   3.064   2.637
 5233SOL     OW16156   3.328   2.452   2.854
 5233SOL    HW116157   3.298   2.357   2.861
 5233SOL    HW216158   3.401   2.468   2.920
 5234SOL     OW16159   3.719   2.695   2.239
 5234SOL    HW116160   3.761   2.631   2.303
 5234SOL    HW216161   3.681   2.644   2.161
 5235SOL     OW16162   2.350   3.247   2.036
 5235SOL    HW116163   2.263   3.232   2.083
 5235SOL    HW216164   2.333   3.273   1.941
 5236SOL     OW16165   3.526   3.142   2.519
 5236SOL    HW116166   3.625   3.150   2.533
 5236SOL    HW216167   3.481   3.226   2.550
 5237SOL     OW16168   3.252   2.437   1.940
 5237SOL    HW116169   3.198   2.416   2.021
 5237SOL    HW216170   3.343   2.396   1.949
 5238SOL     OW16171   2.389   2.118   2.190
 5238SOL    HW116172   2.416   2.059   2.115
 5238SOL    HW216173   2.389   2.213   2.159
 5239SOL     OW16174   3.616   3.085   3.450
 5239SOL    HW116175   3.707   3.046   3.437
 5239SOL    HW216176   3.624   3.181   3.474
 5240SOL     OW16177   2.926   3.209   3.202
 5240SOL    HW116178   2.846   3.186   3.257
 5240SOL    HW216179   3.009   3.183   3.251
 5241SOL     OW16180   3.454   3.491   3.487
 5241SOL    HW116181   3.481   3.525   3.397
 5241SOL    HW216182   3.533   3.453   3.533
 5242SOL     OW16183   2.973   3.057   2.962
 5242SOL    HW116184   2.933   3.101   3.043
 5242SOL    HW216185   2.932   3.094   2.879
 5243SOL     OW16186   3.500   2.961   2.941
 5243SOL    HW116187   3.505   3.042   3.000
 5243SOL    HW216188   3.414   2.963   2.890
 5244SOL     OW16189   2.777   1.951   3.264
 5244SOL    HW116190   2.802   1.931   3.169
 5244SOL    HW216191   2.849   2.007   3.306
 5245SOL     OW16192   2.842   2.978   3.581
 5245SOL    HW116193   2.743   2.984   3.591
 5245SOL    HW216194   2.865   2.898   3.525
 5246SOL     OW16195   2.567   2.912   2.230
 5246SOL    HW116196   2.553   2.919   2.329
 5246SOL    HW216197   2.651   2.861   2.212
 5247SOL     OW16198   2.272   2.675   3.113
 5247SOL    HW116199   2.358   2.687   3.163
 5247SOL    HW216200   2.230   2.588   3.140
 5248SOL     OW16201   3.136   2.248   3.124
 5248SOL    HW116202   3.157   2.322   3.188
 5248SOL    HW216203   3.047   2.265   3.081
 5249SOL     OW16204   1.926   3.426   3.193
 5249SOL    HW116205   1.880   3.508   3.159
 5249SOL    HW216206   2.024   3.445   3.202
 5250SOL     OW16207   2.229   2.962   2.363
 5250SOL    HW116208   2.222   3.045   2.307
 5250SOL    HW216209   2.233   2.882   2.303
 5251SOL     OW16210   2.428   2.399   2.727
 5251SOL    HW116211   2.440   2.465   2.653
 5251SOL    HW216212   2.474   2.433   2.810
 5252SOL     OW16213   3.114   3.210   2.250
 5252SOL    HW116214   3.164   3.287   2.290
 5252SOL    HW216215   3.019   3.212   2.282
 5253SOL     OW16216   3.134   3.307   3.004
 5253SOL    HW116217   3.181   3.320   3.091
 5253SOL    HW216218   3.068   3.233   3.013
 5254SOL     OW16219   3.444   2.501   2.334
 5254SOL    HW116220   3.413   2.562   2.407
 5254SOL    HW216221   3.494   2.553   2.265
 5255SOL     OW16222   2.216   3.372   3.191
 5255SOL    HW116223   2.195   3.328   3.104
 5255SOL    HW216224   2.313   3.398   3.194
 5256SOL     OW16225   2.264   2.613   3.460
 5256SOL    HW116226   2.332   2.668   3.413
 5256SOL    HW216227   2.304   2.525   3.487
 5257SOL     OW16228   3.449   2.641   3.532
 5257SOL    HW116229   3.357   2.679   3.527
 5257SOL    HW216230   3.509   2.688   3.467
 5258SOL     OW16231   2.875   1.967   3.632
 5258SOL    HW116232   2.881   2.052   3.580
 5258SOL    HW216233   2.907   1.891   3.575
 5259SOL     OW16234   2.366   1.912   3.602
 5259SOL    HW116235   2.324   1.855   3.532
 5259SOL    HW216236   2.300   1.981   3.634
 5260SOL     OW16237   2.435   2.732   2.891
 5260SOL    HW116238   2.479   2.821   2.882
 5260SOL    HW216239   2.372   2.732   2.968
 5261SOL     OW16240   3.222   2.724   2.907
 5261SOL    HW116241   3.147   2.724   2.841
 5261SOL    HW216242   3.259   2.632   2.916
 5262SOL     OW16243   3.071   2.387   2.137
 5262SOL    HW116244   3.084   2.303   2.191
 5262SOL    HW216245   3.042   2.461   2.197
 5263SOL     OW16246   1.899   3.172   3.144
 5263SOL    HW116247   1.952   3.123   3.212
 5263SOL    HW216248   1.921   3.270   3.149
 5264SOL     OW16249   2.594   2.496   2.926
 5264SOL    HW116250   2.653   2.470   2.850
 5264SOL    HW216251   2.566   2.592   2.915
 5265SOL     OW16252   3.590   2.797   3.716
 5265SOL    HW116253   3.544   2.790   3.627
 5265SOL    HW216254   3.528   2.841   3.782
 5266SOL     OW16255   2.169   1.925   2.480
 5266SOL    HW116256   2.158   2.019   2.513
 5266SOL    HW216257   2.164   1.862   2.557
 5267SOL     OW16258   3.484   2.229   2.236
 5267SOL    HW116259   3.486   2.153   2.300
 5267SOL    HW216260   3.436   2.306   2.276
 5268SOL     OW16261   2.885   2.628   2.828
 5268SOL    HW116262   2.900   2.649   2.924
 5268SOL    HW216263   2.855   2.533   2.819
 5269SOL     OW16264   2.842   3.435   3.562
 5269SOL    HW116265   2.822   3.479   3.474
 5269SOL    HW216266   2.881   3.344   3.546
 5270SOL     OW16267   3.721   3.380   3.467
 5270SOL    HW116268   3.735   3.407   3.372
 5270SOL    HW216269   3.804   3.402   3.520
 5271SOL     OW16270   2.212   2.760   3.666
 5271SOL    HW116271   2.288   2.804   3.714
 5271SOL    HW216272   2.247   2.713   3.584
 5272SOL     OW16273   3.402   2.136   1.987
 5272SOL    HW116274   3.341   2.061   2.010
 5272SOL    HW216275   3.424   2.188   2.070
 5273SOL     OW16276   3.165   2.700   1.904
 5273SOL    HW116277   3.199   2.607   1.919
 5273SOL    HW216278   3.183   2.727   1.809
 5274SOL     OW16279   2.930   3.195   2.711
 5274SOL    HW116280   2.937   3.111   2.656
 5274SOL    HW216281   2.992   3.264   2.675
 5275SOL     OW16282   2.181   2.672   2.811
 5275SOL    HW116283   2.274   2.708   2.816
 5275SOL    HW216284   2.175   2.587   2.863
 5276SOL     OW16285   2.201   2.371   2.868
 5276SOL    HW116286   2.149   2.288   2.851
 5276SOL    HW216287   2.278   2.376   2.804
 5277SOL     OW16288   3.000   2.242   3.540
 5277SOL    HW116289   2.955   2.305   3.604
 5277SOL    HW216290   3.093   2.273   3.523
 5278SOL     OW16291   3.022   2.069   3.339
 5278SOL    HW116292   3.022   2.133   3.416
 5278SOL    HW216293   3.050   2.117   3.256
 5279SOL     OW16294   1.870   3.188   2.062
 5279SOL    HW116295   1.777   3.209   2.031
 5279SOL    HW216296   1.880   3.089   2.075
 5280SOL     OW16297   1.950   3.663   2.789
 5280SOL    HW116298   1.908   3.577   2.762
 5280SOL    HW216299   2.044   3.666   2.755
 5281SOL     OW16300   2.366   3.430   2.772
 5281SOL    HW116301   2.432   3.504   2.781
 5281SOL    HW216302   2.410   3.351   2.730
 5282SOL     OW16303   2.864   2.658   3.100
 5282SOL    HW116304   2.905   2.626   3.186
 5282SOL    HW216305   2.768   2.631   3.097
 5283SOL     OW16306   1.902   2.406   2.976
 5283SOL    HW116307   1.987   2.373   2.935
 5283SOL    HW216308   1.915   2.421   3.074
 5284SOL     OW16309   2.051   2.382   3.584
 5284SOL    HW116310   2.110   2.342   3.514
 5284SOL    HW216311   1.993   2.453   3.543
 5285SOL     OW16312   3.231   2.812   3.522
 5285SOL    HW116313   3.270   2.901   3.542
 5285SOL    HW216314   3.241   2.792   3.425
 5286SOL     OW16315   2.677   2.434   2.187
 5286SOL    HW116316   2.684   2.345   2.141
 5286SOL    HW216317   2.583   2.468   2.179
 5287SOL     OW16318   3.519   2.466   3.068
 5287SOL    HW116319   3.481   2.397   3.130
 5287SOL    HW216320   3.601   2.430   3.024
 5288SOL     OW16321   2.114   3.426   3.606
 5288SOL    HW116322   2.084   3.483   3.682
 5288SOL    HW216323   2.107   3.329   3.632
 5289SOL     OW16324   2.533   2.326   3.131
 5289SOL    HW116325   2.499   2.237   3.101
 5289SOL    HW216326   2.559   2.380   3.051
 5290SOL     OW16327   2.792   3.540   3.327
 5290SOL    HW116328   2.768   3.522   3.232
 5290SOL    HW216329   2.822   3.634   3.337
 5291SOL     OW16330   2.335   2.362   2.053
 5291SOL    HW116331   2.396   2.442   2.057
 5291SOL    HW216332   2.240   2.393   2.060
 5292SOL     OW16333   2.021   2.999   3.328
 5292SOL    HW116334   2.043   2.938   3.404
 5292SOL    HW216335   2.031   2.950   3.242
 5293SOL     OW16336   3.209   2.921   3.096
 5293SOL    HW116337   3.233   2.858   3.022
 5293SOL    HW216338   3.119   2.961   3.078
 5294SOL     OW16339   3.164   2.717   2.171
 5294SOL    HW116340   3.078   2.686   2.213
 5294SOL    HW216341   3.160   2.703   2.072
 5295SOL     OW16342   3.621   3.609   3.016
 5295SOL    HW116343   3.682   3.639   2.943
 5295SOL    HW216344   3.583   3.520   2.994
 5296SOL     OW16345   3.114   3.593   2.990
 5296SOL    HW116346   3.198   3.598   2.936
 5296SOL    HW216347   3.091   3.497   3.008
 5297SOL     OW16348   1.945   3.120   2.884
 5297SOL    HW116349   1.940   3.119   2.984
 5297SOL    HW216350   1.862   3.079   2.846
 5298SOL     OW16351   2.550   3.524   3.578
 5298SOL    HW116352   2.494   3.605   3.587
 5298SOL    HW216353   2.602   3.528   3.492
 5299SOL     OW16354   3.588   1.997   2.385
 5299SOL    HW116355   3.661   1.980   2.318
 5299SOL    HW216356   3.557   1.910   2.423
 5300SOL     OW16357   3.250   3.435   2.339
 5300SOL    HW116358   3.317   3.447   2.265
 5300SOL    HW216359   3.210   3.524   2.362
 5301SOL     OW16360   1.992   3.656   3.713
 5301SOL    HW116361   1.951   3.582   3.766
 5301SOL    HW216362   2.056   3.707   3.771
 5302SOL     OW16363   3.142   2.789   2.534
 5302SOL    HW116364   3.202   2.708   2.536
 5302SOL    HW216365   3.182   2.858   2.474
 5303SOL     OW16366   2.692   3.135   3.284
 5303SOL    HW116367   2.687   3.168   3.379
 5303SOL    HW216368   2.606   3.154   3.238
 5304SOL     OW16369   2.534   3.478   2.016
 5304SOL    HW116370   2.543   3.488   1.917
 5304SOL    HW216371   2.494   3.389   2.037
 5305SOL     OW16372   3.512   3.582   3.256
 5305SOL    HW116373   3.565   3.592   3.172
 5305SOL    HW216374   3.485   3.672   3.290
 5306SOL     OW16375   3.703   2.037   2.825
 5306SOL    HW116376   3.742   1.952   2.789
 5306SOL    HW216377   3.605   2.039   2.806
 5307SOL     OW16378   3.056   3.474   1.893
 5307SOL    HW116379   3.062   3.381   1.930
 5307SOL    HW216380   2.997   3.474   1.813
 5308SOL     OW16381   2.684   2.864   3.234
 5308SOL    HW116382   2.724   2.863   3.142
 5308SOL    HW216383   2.694   2.956   3.274
 5309SOL     OW16384   2.778   2.772   2.153
 5309SOL    HW116385   2.841   2.810   2.085
 5309SOL    HW216386   2.818   2.689   2.192
 5310SOL     OW16387   3.366   3.469   1.906
 5310SOL    HW116388   3.274   3.506   1.913
 5310SOL    HW216389   3.404   3.489   1.816
 5311SOL     OW16390   2.234   3.150   3.352
 5311SOL    HW116391   2.221   3.243   3.318
 5311SOL    HW216392   2.150   3.098   3.339
 5312SOL     OW16393   3.476   3.154   3.151
 5312SOL    HW116394   3.536   3.157   3.231
 5312SOL    HW216395   3.401   3.218   3.164
 5313SOL     OW16396   2.901   2.960   2.558
 5313SOL    HW116397   2.831   2.913   2.612
 5313SOL    HW216398   2.960   2.892   2.515
 5314SOL     OW16399   2.876   2.098   2.833
 5314SOL    HW116400   2.868   2.062   2.740
 5314SOL    HW216401   2.874   2.022   2.898
 5315SOL     OW16402   2.452   3.349   2.353
 5315SOL    HW116403   2.494   3.291   2.283
 5315SOL    HW216404   2.408   3.428   2.309
 5316SOL     OW16405   3.571   2.247   3.243
 5316SOL    HW116406   3.644   2.316   3.247
 5316SOL    HW216407   3.599   2.172   3.184
 5317SOL     OW16408   2.117   3.210   2.152
 5317SOL    HW116409   2.021   3.211   2.125
 5317SOL    HW216410   2.129   3.263   2.236
 5318SOL     OW16411   1.967   2.875   3.588
 5318SOL    HW116412   1.890   2.842   3.642
 5318SOL    HW216413   2.052   2.845   3.630
 5319SOL     OW16414   2.534   2.065   3.351
 5319SOL    HW116415   2.624   2.049   3.311
 5319SOL    HW216416   2.542   2.070   3.450
 5320SOL     OW16417   1.937   2.207   1.895
 5320SOL    HW116418   1.845   2.179   1.866
 5320SOL    HW216419   1.968   2.284   1.839
 5321SOL     OW16420   3.302   2.718   3.260
 5321SOL    HW116421   3.245   2.770   3.197
 5321SOL    HW216422   3.398   2.730   3.236
 5322SOL     OW16423   3.045   3.197   1.981
 5322SOL    HW116424   2.946   3.186   1.983
 5322SOL    HW216425   3.079   3.212   2.074
 5323SOL     OW16426   2.475   2.704   3.293
 5323SOL    HW116427   2.531   2.785   3.276
 5323SOL    HW216428   2.534   2.624   3.296
 5324SOL     OW16429   3.355   3.629   2.821
 5324SOL    HW116430   3.388   3.693   2.752
 5324SOL    HW216431   3.421   3.623   2.896
 5325SOL     OW16432   2.578   2.427   3.570
 5325SOL    HW116433   2.597   2.492   3.644
 5325SOL    HW216434   2.638   2.347   3.579
 5326SOL     OW16435   3.312   3.082   3.495
 5326SOL    HW116436   3.303   3.072   3.594
 5326SOL    HW216437   3.408   3.075   3.469
 5327SOL     OW16438   2.252   3.603   3.422
 5327SOL    HW116439   2.161   3.644   3.420
 5327SOL    HW216440   2.245   3.509   3.454
 5328SOL     OW16441   3.536   2.745   3.116
 5328SOL    HW116442   3.509   2.656   3.079
 5328SOL    HW216443   3.537   2.813   3.043
 5329SOL     OW16444   3.087   2.187   2.311
 5329SOL    HW116445   3.152   2.113   2.300
 5329SOL    HW216446   3.107   2.237   2.395
 5330SOL     OW16447   2.456   2.607   2.514
 5330SOL    HW116448   2.506   2.692   2.495
 5330SOL    HW216449   2.368   2.609   2.466
 5331SOL     OW16450   3.639   2.204   3.504
 5331SOL    HW116451   3.622   2.235   3.410
 5331SOL    HW216452   3.555   2.167   3.542
 5332SOL     OW16453   3.592   2.796   3.379
 5332SOL    HW116454   3.630   2.887   3.394
 5332SOL    HW216455   3.584   2.779   3.280
 5333SOL     OW16456   2.721   3.236   1.878
 5333SOL    HW116457   2.675   3.251   1.966
 5333SOL    HW216458   2.765   3.321   1.848
 5334SOL     OW16459   2.523   3.652   2.815
 5334SOL    HW116460   2.477   3.740   2.802
 5334SOL    HW216461   2.622   3.664   2.808
 5335SOL     OW16462   2.721   2.818   2.723
 5335SOL    HW116463   2.775   2.749   2.771
 5335SOL    HW216464   2.689   2.887   2.789
 5336SOL     OW16465   2.945   2.846   1.949
 5336SOL    HW116466   2.922   2.899   1.867
 5336SOL    HW216467   3.026   2.790   1.930
 5337SOL     OW16468   3.723   3.431   2.713
 5337SOL    HW116469   3.652   3.419   2.643
 5337SOL    HW216470   3.724   3.352   2.773
 5338SOL     OW16471   2.083   3.176   3.706
 5338SOL    HW116472   2.018   3.103   3.685
 5338SOL    HW216473   2.087   3.190   3.804
 5339SOL     OW16474   1.941   3.102   2.515
 5339SOL    HW116475   1.940   3.055   2.603
 5339SOL    HW216476   2.023   3.074   2.464
 5340SOL     OW16477   2.534   3.253   3.486
 5340SOL    HW116478   2.456   3.203   3.524
 5340SOL    HW216479   2.531   3.348   3.517
 5341SOL     OW16480   3.686   2.054   3.089
 5341SOL    HW116481   3.682   1.964   3.133
 5341SOL    HW216482   3.689   2.043   2.990
 5342SOL     OW16483   2.290   2.286   2.382
 5342SOL    HW116484   2.320   2.214   2.320
 5342SOL    HW216485   2.251   2.246   2.465
 5343SOL     OW16486   3.567   3.349   2.966
 5343SOL    HW116487   3.474   3.324   2.939
 5343SOL    HW216488   3.593   3.299   3.048
 5344SOL     OW16489   2.179   2.409   3.142
 5344SOL    HW116490   2.217   2.350   3.214
 5344SOL    HW216491   2.219   2.383   3.054
 5345SOL     OW16492   2.674   3.448   2.549
 5345SOL    HW116493   2.706   3.458   2.455
 5345SOL    HW216494   2.595   3.386   2.551
 5346SOL     OW16495   3.286   2.076   2.974
 5346SOL    HW116496   3.338   2.011   3.029
 5346SOL    HW216497   3.237   2.139   3.035
 5347SOL     OW16498   2.863   1.896   3.016
 5347SOL    HW116499   2.800   1.824   2.985
 5347SOL    HW216500   2.956   1.860   3.016
 5348SOL     OW16501   2.632   3.192   2.163
 5348SOL    HW116502   2.586   3.105   2.180
 5348SOL    HW216503   2.723   3.189   2.204
 5349SOL     OW16504   2.480   3.429   3.146
 5349SOL    HW116505   2.475   3.511   3.203
 5349SOL    HW216506   2.569   3.426   3.101
 5350SOL     OW16507   3.214   1.914   2.030
 5350SOL    HW116508   3.249   1.873   1.946
 5350SOL    HW216509   3.124   1.876   2.050
 5351SOL     OW16510   3.162   2.315   2.553
 5351SOL    HW116511   3.103   2.395   2.557
 5351SOL    HW216512   3.177   2.280   2.646
 5352SOL     OW16513   3.455   2.083   2.744
 5352SOL    HW116514   3.371   2.082   2.798
 5352SOL    HW216515   3.457   2.166   2.688
 5353SOL     OW16516   1.901   2.939   2.162
 5353SOL    HW116517   2.000   2.928   2.153
 5353SOL    HW216518   1.861   2.853   2.194
 5354SOL     OW16519   2.737   3.508   2.199
 5354SOL    HW116520   2.660   3.473   2.145
 5354SOL    HW216521   2.705   3.579   2.261
 5355SOL     OW16522   2.092   2.490   3.837
 5355SOL    HW116523   1.999   2.488   3.874
 5355SOL    HW216524   2.093   2.451   3.745
 5356SOL     OW16525   1.881   2.230   4.371
 5356SOL    HW116526   1.799   2.273   4.410
 5356SOL    HW216527   1.853   2.157   4.308
 5357SOL     OW16528   2.431   3.137   4.889
 5357SOL    HW116529   2.338   3.130   4.852
 5357SOL    HW216530   2.442   3.226   4.933
 5358SOL     OW16531   3.417   3.373   4.427
 5358SOL    HW116532   3.360   3.357   4.508
 5358SOL    HW216533   3.358   3.383   4.347
 5359SOL     OW16534   2.997   2.565   4.441
 5359SOL    HW116535   3.054   2.643   4.416
 5359SOL    HW216536   2.937   2.591   4.517
 5360SOL     OW16537   3.617   2.469   3.955
 5360SOL    HW116538   3.605   2.456   3.856
 5360SOL    HW216539   3.587   2.388   4.004
 5361SOL     OW16540   2.630   3.006   4.747
 5361SOL    HW116541   2.552   3.023   4.807
 5361SOL    HW216542   2.664   3.093   4.711
 5362SOL     OW16543   2.712   2.660   5.547
 5362SOL    HW116544   2.708   2.736   5.612
 5362SOL    HW216545   2.734   2.696   5.456
 5363SOL     OW16546   2.547   2.874   4.389
 5363SOL    HW116547   2.616   2.858   4.459
 5363SOL    HW216548   2.474   2.931   4.427
 5364SOL     OW16549   2.548   3.023   5.527
 5364SOL    HW116550   2.608   3.102   5.541
 5364SOL    HW216551   2.462   3.054   5.486
 5365SOL     OW16552   2.197   3.297   4.785
 5365SOL    HW116553   2.119   3.266   4.732
 5365SOL    HW216554   2.255   3.355   4.728
 5366SOL     OW16555   3.322   3.367   5.063
 5366SOL    HW116556   3.346   3.461   5.089
 5366SOL    HW216557   3.306   3.313   5.145
 5367SOL     OW16558   2.300   2.254   5.223
 5367SOL    HW116559   2.382   2.198   5.232
 5367SOL    HW216560   2.219   2.196   5.227
 5368SOL     OW16561   3.465   2.309   4.461
 5368SOL    HW116562   3.391   2.355   4.411
 5368SOL    HW216563   3.516   2.377   4.514
 5369SOL     OW16564   2.093   3.575   4.207
 5369SOL    HW116565   2.127   3.652   4.261
 5369SOL    HW216566   2.137   3.575   4.117
 5370SOL     OW16567   2.989   3.203   5.414
 5370SOL    HW116568   3.036   3.203   5.502
 5370SOL    HW216569   2.941   3.116   5.403
 5371SOL     OW16570   2.092   3.296   4.262
 5371SOL    HW116571   2.066   3.392   4.262
 5371SOL    HW216572   2.021   3.242   4.307
 5372SOL     OW16573   2.102   2.953   4.610
 5372SOL    HW116574   2.116   2.869   4.662
 5372SOL    HW216575   2.047   3.017   4.665
 5373SOL     OW16576   2.482   3.648   5.163
 5373SOL    HW116577   2.390   3.631   5.198
 5373SOL    HW216578   2.510   3.740   5.189
 5374SOL     OW16579   2.468   2.826   3.847
 5374SOL    HW116580   2.475   2.910   3.793
 5374SOL    HW216581   2.514   2.839   3.935
 5375SOL     OW16582   3.456   1.976   5.204
 5375SOL    HW116583   3.438   2.043   5.132
 5375SOL    HW216584   3.453   2.022   5.293
 5376SOL     OW16585   1.984   2.505   4.287
 5376SOL    HW116586   1.939   2.417   4.304
 5376SOL    HW216587   1.983   2.559   4.371
 5377SOL     OW16588   3.704   3.629   4.083
 5377SOL    HW116589   3.758   3.600   4.163
 5377SOL    HW216590   3.734   3.719   4.054
 5378SOL     OW16591   1.889   3.458   3.841
 5378SOL    HW116592   1.870   3.362   3.862
 5378SOL    HW216593   1.856   3.516   3.916
 5379SOL     OW16594   3.551   2.784   4.336
 5379SOL    HW116595   3.646   2.755   4.344
 5379SOL    HW216596   3.543   2.849   4.261
 5380SOL     OW16597   3.503   2.970   4.156
 5380SOL    HW116598   3.589   2.972   4.104
 5380SOL    HW216599   3.517   3.017   4.244
 5381SOL     OW16600   1.975   2.599   5.321
 5381SOL    HW116601   2.063   2.586   5.366
 5381SOL    HW216602   1.962   2.696   5.299
 5382SOL     OW16603   2.475   3.227   4.450
 5382SOL    HW116604   2.426   3.140   4.459
 5382SOL    HW216605   2.452   3.270   4.363
 5383SOL     OW16606   3.155   3.090   5.147
 5383SOL    HW116607   3.192   3.017   5.089
 5383SOL    HW216608   3.207   3.095   5.232
 5384SOL     OW16609   2.671   1.866   4.226
 5384SOL    HW116610   2.711   1.957   4.217
 5384SOL    HW216611   2.571   1.874   4.232
 5385SOL     OW16612   2.059   2.838   4.988
 5385SOL    HW116613   2.148   2.793   4.974
 5385SOL    HW216614   1.986   2.773   4.969
 5386SOL     OW16615   3.387   2.861   3.914
 5386SOL    HW116616   3.324   2.785   3.927
 5386SOL    HW216617   3.435   2.879   4.000
 5387SOL     OW16618   3.049   3.654   5.340
 5387SOL    HW116619   3.073   3.714   5.264
 5387SOL    HW216620   3.056   3.559   5.310
 5388SOL     OW16621   3.328   3.279   4.677
 5388SOL    HW116622   3.269   3.285   4.757
 5388SOL    HW216623   3.313   3.191   4.631
 5389SOL     OW16624   3.529   3.576   4.296
 5389SOL    HW116625   3.488   3.553   4.208
 5389SOL    HW216626   3.511   3.502   4.361
 5390SOL     OW16627   2.460   2.591   3.994
 5390SOL    HW116628   2.484   2.660   3.926
 5390SOL    HW216629   2.382   2.624   4.048
 5391SOL     OW16630   3.143   2.207   4.668
 5391SOL    HW116631   3.057   2.157   4.655
 5391SOL    HW216632   3.205   2.153   4.724
 5392SOL     OW16633   3.438   3.524   4.031
 5392SOL    HW116634   3.527   3.570   4.034
 5392SOL    HW216635   3.417   3.500   3.936
 5393SOL     OW16636   2.669   2.467   5.189
 5393SOL    HW116637   2.622   2.464   5.278
 5393SOL    HW216638   2.618   2.412   5.123
 5394SOL     OW16639   3.256   2.331   5.398
 5394SOL    HW116640   3.236   2.374   5.486
 5394SOL    HW216641   3.334   2.269   5.407
 5395SOL     OW16642   2.835   2.752   5.296
 5395SOL    HW116643   2.881   2.668   5.267
 5395SOL    HW216644   2.779   2.786   5.221
 5396SOL     OW16645   2.853   2.272   4.966
 5396SOL    HW116646   2.776   2.306   5.020
 5396SOL    HW216647   2.819   2.221   4.887
 5397SOL     OW16648   2.903   2.563   4.153
 5397SOL    HW116649   2.929   2.559   4.249
 5397SOL    HW216650   2.818   2.512   4.139
 5398SOL     OW16651   1.938   2.673   4.513
 5398SOL    HW116652   2.037   2.661   4.522
 5398SOL    HW216653   1.914   2.768   4.534
 5399SOL     OW16654   1.992   3.683   5.295
 5399SOL    HW116655   1.982   3.668   5.394
 5399SOL    HW216656   1.906   3.719   5.259
 5400SOL     OW16657   2.727   2.210   3.919
 5400SOL    HW116658   2.786   2.273   3.870
 5400SOL    HW216659   2.746   2.116   3.890
 5401SOL     OW16660   3.581   2.447   5.555
 5401SOL    HW116661   3.555   2.536   5.519
 5401SOL    HW216662   3.579   2.379   5.482
 5402SOL     OW16663   3.224   3.006   4.269
 5402SOL    HW116664   3.307   2.977   4.221
 5402SOL    HW216665   3.175   3.073   4.213
 5403SOL     OW16666   2.412   2.058   4.609
 5403SOL    HW116667   2.407   2.053   4.709
 5403SOL    HW216668   2.414   2.154   4.580
 5404SOL     OW16669   2.870   3.318   4.201
 5404SOL    HW116670   2.824   3.390   4.149
 5404SOL    HW216671   2.866   3.338   4.299
 5405SOL     OW16672   2.213   3.663   4.577
 5405SOL    HW116673   2.263   3.577   4.583
 5405SOL    HW216674   2.278   3.740   4.574
 5406SOL     OW16675   3.657   2.928   4.597
 5406SOL    HW116676   3.595   2.913   4.521
 5406SOL    HW216677   3.605   2.939   4.682
 5407SOL     OW16678   3.089   3.412   5.230
 5407SOL    HW116679   3.095   3.335   5.294
 5407SOL    HW216680   3.037   3.386   5.150
 5408SOL     OW16681   2.183   2.805   3.966
 5408SOL    HW116682   2.265   2.844   3.924
 5408SOL    HW216683   2.156   2.723   3.917
 5409SOL     OW16684   3.320   2.597   4.452
 5409SOL    HW116685   3.315   2.532   4.527
 5409SOL    HW216686   3.400   2.656   4.465
 5410SOL     OW16687   2.323   3.128   5.451
 5410SOL    HW116688   2.273   3.129   5.365
 5410SOL    HW216689   2.260   3.110   5.527
 5411SOL     OW16690   2.973   3.638   3.961
 5411SOL    HW116691   2.913   3.576   4.011
 5411SOL    HW216692   3.004   3.594   3.876
 5412SOL     OW16693   3.494   3.239   3.805
 5412SOL    HW116694   3.462   3.333   3.795
 5412SOL    HW216695   3.418   3.176   3.793
 5413SOL     OW16696   2.326   3.605   4.047
 5413SOL    HW116697   2.359   3.644   4.133
 5413SOL    HW216698   2.402   3.598   3.982
 5414SOL     OW16699   3.262   1.969   4.150
 5414SOL    HW116700   3.238   1.932   4.060
 5414SOL    HW216701   3.361   1.985   4.154
 5415SOL     OW16702   2.111   3.647   4.965
 5415SOL    HW116703   2.168   3.582   5.015
 5415SOL    HW216704   2.095   3.614   4.872
 5416SOL     OW16705   2.802   3.560   4.628
 5416SOL    HW116706   2.882   3.503   4.649
 5416SOL    HW216707   2.753   3.520   4.551
 5417SOL     OW16708   2.244   2.562   4.204
 5417SOL    HW116709   2.289   2.472   4.201
 5417SOL    HW216710   2.150   2.551   4.237
 5418SOL     OW16711   3.409   2.084   5.453
 5418SOL    HW116712   3.404   2.121   5.545
 5418SOL    HW216713   3.337   2.015   5.441
 5419SOL     OW16714   2.476   1.984   3.841
 5419SOL    HW116715   2.574   1.962   3.848
 5419SOL    HW216716   2.445   1.967   3.748
 5420SOL     OW16717   2.643   2.126   5.473
 5420SOL    HW116718   2.710   2.065   5.516
 5420SOL    HW216719   2.570   2.145   5.538
 5421SOL     OW16720   2.750   3.376   4.919
 5421SOL    HW116721   2.727   3.351   4.825
 5421SOL    HW216722   2.811   3.307   4.958
 5422SOL     OW16723   3.213   2.452   5.157
 5422SOL    HW116724   3.241   2.409   5.242
 5422SOL    HW216725   3.238   2.548   5.158
 5423SOL     OW16726   2.665   3.264   4.648
 5423SOL    HW116727   2.755   3.278   4.606
 5423SOL    HW216728   2.594   3.266   4.577
 5424SOL     OW16729   2.784   2.365   4.623
 5424SOL    HW116730   2.759   2.356   4.527
 5424SOL    HW216731   2.832   2.283   4.654
 5425SOL     OW16732   2.401   1.926   4.236
 5425SOL    HW116733   2.320   1.927   4.294
 5425SOL    HW216734   2.404   2.009   4.181
 5426SOL     OW16735   3.296   3.050   3.765
 5426SOL    HW116736   3.328   2.974   3.822
 5426SOL    HW216737   3.204   3.077   3.795
 5427SOL     OW16738   2.797   2.098   4.204
 5427SOL    HW116739   2.749   2.139   4.126
 5427SOL    HW216740   2.896   2.096   4.185
 5428SOL     OW16741   2.938   2.545   5.188
 5428SOL    HW116742   2.858   2.484   5.191
 5428SOL    HW216743   3.019   2.492   5.164
 5429SOL     OW16744   3.089   3.432   4.517
 5429SOL    HW116745   3.110   3.506   4.452
 5429SOL    HW216746   3.157   3.432   4.590
 5430SOL     OW16747   2.321   3.014   4.465
 5430SOL    HW116748   2.250   2.987   4.530
 5430SOL    HW216749   2.295   2.986   4.372
 5431SOL     OW16750   3.133   3.659   4.315
 5431SOL    HW116751   3.177   3.723   4.251
 5431SOL    HW216752   3.083   3.711   4.385
 5432SOL     OW16753   2.894   2.411   3.740
 5432SOL    HW116754   2.853   2.493   3.701
 5432SOL    HW216755   2.958   2.437   3.813
 5433SOL     OW16756   1.940   2.418   5.110
 5433SOL    HW116757   2.032   2.417   5.069
 5433SOL    HW216758   1.934   2.492   5.177
 5434SOL     OW16759   2.423   2.084   4.871
 5434SOL    HW116760   2.461   2.000   4.908
 5434SOL    HW216761   2.335   2.103   4.915
 5435SOL     OW16762   2.728   2.316   4.366
 5435SOL    HW116763   2.696   2.388   4.304
 5435SOL    HW216764   2.752   2.235   4.313
 5436SOL     OW16765   2.879   1.901   4.477
 5436SOL    HW116766   2.807   1.906   4.408
 5436SOL    HW216767   2.855   1.832   4.546
 5437SOL     OW16768   3.291   3.035   4.591
 5437SOL    HW116769   3.236   2.951   4.584
 5437SOL    HW216770   3.317   3.064   4.499
 5438SOL     OW16771   3.328   2.452   4.716
 5438SOL    HW116772   3.298   2.357   4.723
 5438SOL    HW216773   3.401   2.468   4.782
 5439SOL     OW16774   3.719   2.695   4.101
 5439SOL    HW116775   3.761   2.631   4.165
 5439SOL    HW216776   3.681   2.644   4.023
 5440SOL     OW16777   2.350   3.247   3.898
 5440SOL    HW116778   2.263   3.232   3.945
 5440SOL    HW216779   2.333   3.273   3.803
 5441SOL     OW16780   3.526   3.142   4.381
 5441SOL    HW116781   3.625   3.150   4.395
 5441SOL    HW216782   3.481   3.226   4.412
 5442SOL     OW16783   3.252   2.437   3.802
 5442SOL    HW116784   3.198   2.416   3.883
 5442SOL    HW216785   3.343   2.396   3.811
 5443SOL     OW16786   2.389   2.118   4.052
 5443SOL    HW116787   2.416   2.059   3.977
 5443SOL    HW216788   2.389   2.213   4.021
 5444SOL     OW16789   3.616   3.085   5.312
 5444SOL    HW116790   3.707   3.046   5.299
 5444SOL    HW216791   3.624   3.181   5.336
 5445SOL     OW16792   2.926   3.209   5.064
 5445SOL    HW116793   2.846   3.186   5.119
 5445SOL    HW216794   3.009   3.183   5.113
 5446SOL     OW16795   3.454   3.491   5.349
 5446SOL    HW116796   3.481   3.525   5.259
 5446SOL    HW216797   3.533   3.453   5.395
 5447SOL     OW16798   2.973   3.057   4.824
 5447SOL    HW116799   2.933   3.101   4.905
 5447SOL    HW216800   2.932   3.094   4.741
 5448SOL     OW16801   3.500   2.961   4.803
 5448SOL    HW116802   3.505   3.042   4.862
 5448SOL    HW216803   3.414   2.963   4.752
 5449SOL     OW16804   2.777   1.951   5.126
 5449SOL    HW116805   2.802   1.931   5.031
 5449SOL    HW216806   2.849   2.007   5.168
 5450SOL     OW16807   2.842   2.978   5.443
 5450SOL    HW116808   2.743   2.984   5.453
 5450SOL    HW216809   2.865   2.898   5.387
 5451SOL     OW16810   2.567   2.912   4.092
 5451SOL    HW116811   2.553   2.919   4.191
 5451SOL    HW216812   2.651   2.861   4.074
 5452SOL     OW16813   2.272   2.675   4.975
 5452SOL    HW116814   2.358   2.687   5.025
 5452SOL    HW216815   2.230   2.588   5.002
 5453SOL     OW16816   3.136   2.248   4.986
 5453SOL    HW116817   3.157   2.322   5.050
 5453SOL    HW216818   3.047   2.265   4.943
 5454SOL     OW16819   1.926   3.426   5.055
 5454SOL    HW116820   1.880   3.508   5.021
 5454SOL    HW216821   2.024   3.445   5.064
 5455SOL     OW16822   2.229   2.962   4.225
 5455SOL    HW116823   2.222   3.045   4.169
 5455SOL    HW216824   2.233   2.882   4.165
 5456SOL     OW16825   2.428   2.399   4.589
 5456SOL    HW116826   2.440   2.465   4.515
 5456SOL    HW216827   2.474   2.433   4.672
 5457SOL     OW16828   3.114   3.210   4.112
 5457SOL    HW116829   3.164   3.287   4.152
 5457SOL    HW216830   3.019   3.212   4.144
 5458SOL     OW16831   3.134   3.307   4.866
 5458SOL    HW116832   3.181   3.320   4.953
 5458SOL    HW216833   3.068   3.233   4.875
 5459SOL     OW16834   3.444   2.501   4.196
 5459SOL    HW116835   3.413   2.562   4.269
 5459SOL    HW216836   3.494   2.553   4.127
 5460SOL     OW16837   2.216   3.372   5.053
 5460SOL    HW116838   2.195   3.328   4.966
 5460SOL    HW216839   2.313   3.398   5.056
 5461SOL     OW16840   2.264   2.613   5.322
 5461SOL    HW116841   2.332   2.668   5.275
 5461SOL    HW216842   2.304   2.525   5.349
 5462SOL     OW16843   3.449   2.641   5.394
 5462SOL    HW116844   3.357   2.679   5.389
 5462SOL    HW216845   3.509   2.688   5.329
 5463SOL     OW16846   2.875   1.967   5.494
 5463SOL    HW116847   2.881   2.052   5.442
 5463SOL    HW216848   2.907   1.891   5.437
 5464SOL     OW16849   2.366   1.912   5.464
 5464SOL    HW116850   2.324   1.855   5.394
 5464SOL    HW216851   2.300   1.981   5.496
 5465SOL     OW16852   2.435   2.732   4.753
 5465SOL    HW116853   2.479   2.821   4.744
 5465SOL    HW216854   2.372   2.732   4.830
 5466SOL     OW16855   3.222   2.724   4.769
 5466SOL    HW116856   3.147   2.724   4.703
 5466SOL    HW216857   3.259   2.632   4.778
 5467SOL     OW16858   3.071   2.387   3.999
 5467SOL    HW116859   3.084   2.303   4.053
 5467SOL    HW216860   3.042   2.461   4.059
 5468SOL     OW16861   1.899   3.172   5.006
 5468SOL    HW116862   1.952   3.123   5.074
 5468SOL    HW216863   1.921   3.270   5.011
 5469SOL     OW16864   2.594   2.496   4.788
 5469SOL    HW116865   2.653   2.470   4.712
 5469SOL    HW216866   2.566   2.592   4.777
 5470SOL     OW16867   3.590   2.797   5.578
 5470SOL    HW116868   3.544   2.790   5.489
 5470SOL    HW216869   3.528   2.841   5.644
 5471SOL     OW16870   2.169   1.925   4.342
 5471SOL    HW116871   2.158   2.019   4.375
 5471SOL    HW216872   2.164   1.862   4.419
 5472SOL     OW16873   3.484   2.229   4.098
 5472SOL    HW116874   3.486   2.153   4.162
 5472SOL    HW216875   3.436   2.306   4.138
 5473SOL     OW16876   2.885   2.628   4.690
 5473SOL    HW116877   2.900   2.649   4.786
 5473SOL    HW216878   2.855   2.533   4.681
 5474SOL     OW16879   2.842   3.435   5.424
 5474SOL    HW116880   2.822   3.479   5.336
 5474SOL    HW216881   2.881   3.344   5.408
 5475SOL     OW16882   3.721   3.380   5.329
 5475SOL    HW116883   3.735   3.407   5.234
 5475SOL    HW216884   3.804   3.402   5.382
 5476SOL     OW16885   2.212   2.760   5.528
 5476SOL    HW116886   2.288   2.804   5.576
 5476SOL    HW216887   2.247   2.713   5.446
 5477SOL     OW16888   3.402   2.136   3.849
 5477SOL    HW116889   3.341   2.061   3.872
 5477SOL    HW216890   3.424   2.188   3.932
 5478SOL     OW16891   3.165   2.700   3.766
 5478SOL    HW116892   3.199   2.607   3.781
 5478SOL    HW216893   3.183   2.727   3.671
 5479SOL     OW16894   2.930   3.195   4.573
 5479SOL    HW116895   2.937   3.111   4.518
 5479SOL    HW216896   2.992   3.264   4.537
 5480SOL     OW16897   2.181   2.672   4.673
 5480SOL    HW116898   2.274   2.708   4.678
 5480SOL    HW216899   2.175   2.587   4.725
 5481SOL     OW16900   2.201   2.371   4.730
 5481SOL    HW116901   2.149   2.288   4.713
 5481SOL    HW216902   2.278   2.376   4.666
 5482SOL     OW16903   3.000   2.242   5.402
 5482SOL    HW116904   2.955   2.305   5.466
 5482SOL    HW216905   3.093   2.273   5.385
 5483SOL     OW16906   3.022   2.069   5.201
 5483SOL    HW116907   3.022   2.133   5.278
 5483SOL    HW216908   3.050   2.117   5.118
 5484SOL     OW16909   1.870   3.188   3.924
 5484SOL    HW116910   1.777   3.209   3.893
 5484SOL    HW216911   1.880   3.089   3.937
 5485SOL     OW16912   1.950   3.663   4.651
 5485SOL    HW116913   1.908   3.577   4.624
 5485SOL    HW216914   2.044   3.666   4.617
 5486SOL     OW16915   2.366   3.430   4.634
 5486SOL    HW116916   2.432   3.504   4.643
 5486SOL    HW216917   2.410   3.351   4.592
 5487SOL     OW16918   2.864   2.658   4.962
 5487SOL    HW116919   2.905   2.626   5.048
 5487SOL    HW216920   2.768   2.631   4.959
 5488SOL     OW16921   1.902   2.406   4.838
 5488SOL    HW116922   1.987   2.373   4.797
 5488SOL    HW216923   1.915   2.421   4.936
 5489SOL     OW16924   2.051   2.382   5.446
 5489SOL    HW116925   2.110   2.342   5.376
 5489SOL    HW216926   1.993   2.453   5.405
 5490SOL     OW16927   3.231   2.812   5.384
 5490SOL    HW116928   3.270   2.901   5.404
 5490SOL    HW216929   3.241   2.792   5.287
 5491SOL     OW16930   2.677   2.434   4.049
 5491SOL    HW116931   2.684   2.345   4.003
 5491SOL    HW216932   2.583   2.468   4.041
 5492SOL     OW16933   3.519   2.466   4.930
 5492SOL    HW116934   3.481   2.397   4.992
 5492SOL    HW216935   3.601   2.430   4.886
 5493SOL     OW16936   2.114   3.426   5.468
 5493SOL    HW116937   2.084   3.483   5.544
 5493SOL    HW216938   2.107   3.329   5.494
 5494SOL     OW16939   2.533   2.326   4.993
 5494SOL    HW116940   2.499   2.237   4.963
 5494SOL    HW216941   2.559   2.380   4.913
 5495SOL     OW16942   2.792   3.540   5.189
 5495SOL    HW116943   2.768   3.522   5.094
 5495SOL    HW216944   2.822   3.634   5.199
 5496SOL     OW16945   2.335   2.362   3.915
 5496SOL    HW116946   2.396   2.442   3.919
 5496SOL    HW216947   2.240   2.393   3.922
 5497SOL     OW16948   2.021   2.999   5.190
 5497SOL    HW116949   2.043   2.938   5.266
 5497SOL    HW216950   2.031   2.950   5.104
 5498SOL     OW16951   3.209   2.921   4.958
 5498SOL    HW116952   3.233   2.858   4.884
 5498SOL    HW216953   3.119   2.961   4.940
 5499SOL     OW16954   3.164   2.717   4.033
 5499SOL    HW116955   3.078   2.686   4.075
 5499SOL    HW216956   3.160   2.703   3.934
 5500SOL     OW16957   3.621   3.609   4.878
 5500SOL    HW116958   3.682   3.639   4.805
 5500SOL    HW216959   3.583   3.520   4.856
 5501SOL     OW16960   3.114   3.593   4.852
 5501SOL    HW116961   3.198   3.598   4.798
 5501SOL    HW216962   3.091   3.497   4.870
 5502SOL     OW16963   1.945   3.120   4.746
 5502SOL    HW116964   1.940   3.119   4.846
 5502SOL    HW216965   1.862   3.079   4.708
 5503SOL     OW16966   2.550   3.524   5.440
 5503SOL    HW116967   2.494   3.605   5.449
 5503SOL    HW216968   2.602   3.528   5.354
 5504SOL     OW16969   3.588   1.997   4.247
 5504SOL    HW116970   3.661   1.980   4.180
 5504SOL    HW216971   3.557   1.910   4.285
 5505SOL     OW16972   3.250   3.435   4.201
 5505SOL    HW116973   3.317   3.447   4.127
 5505SOL    HW216974   3.210   3.524   4.224
 5506SOL     OW16975   1.992   3.656   5.575
 5506SOL    HW116976   1.951   3.582   5.628
 5506SOL    HW216977   2.056   3.707   5.633
 5507SOL     OW16978   3.142   2.789   4.396
 5507SOL    HW116979   3.202   2.708   4.398
 5507SOL    HW216980   3.182   2.858   4.336
 5508SOL     OW16981   2.692   3.135   5.146
 5508SOL    HW116982   2.687   3.168   5.241
 5508SOL    HW216983   2.606   3.154   5.100
 5509SOL     OW16984   2.534   3.478   3.878
 5509SOL    HW116985   2.543   3.488   3.779
 5509SOL    HW216986   2.494   3.389   3.899
 5510SOL     OW16987   3.512   3.582   5.118
 5510SOL    HW116988   3.565   3.592   5.034
 5510SOL    HW216989   3.485   3.672   5.152
 5511SOL     OW16990   3.703   2.037   4.687
 5511SOL    HW116991   3.742   1.952   4.651
 5511SOL    HW216992   3.605   2.039   4.668
 5512SOL     OW16993   3.056   3.474   3.755
 5512SOL    HW116994   3.062   3.381   3.792
 5512SOL    HW216995   2.997   3.474   3.675
 5513SOL     OW16996   2.684   2.864   5.096
 5513SOL    HW116997   2.724   2.863   5.004
 5513SOL    HW216998   2.694   2.956   5.136
 5514SOL     OW16999   2.778   2.772   4.015
 5514SOL    HW117000   2.841   2.810   3.947
 5514SOL    HW217001   2.818   2.689   4.054
 5515SOL     OW17002   3.366   3.469   3.768
 5515SOL    HW117003   3.274   3.506   3.775
 5515SOL    HW217004   3.404   3.489   3.678
 5516SOL     OW17005   2.234   3.150   5.214
 5516SOL    HW117006   2.221   3.243   5.180
 5516SOL    HW217007   2.150   3.098   5.201
 5517SOL     OW17008   3.476   3.154   5.013
 5517SOL    HW117009   3.536   3.157   5.093
 5517SOL    HW217010   3.401   3.218   5.026
 5518SOL     OW17011   2.901   2.960   4.420
 5518SOL    HW117012   2.831   2.913   4.474
 5518SOL    HW217013   2.960   2.892   4.377
 5519SOL     OW17014   2.876   2.098   4.695
 5519SOL    HW117015   2.868   2.062   4.602
 5519SOL    HW217016   2.874   2.022   4.760
 5520SOL     OW17017   2.452   3.349   4.215
 5520SOL    HW117018   2.494   3.291   4.145
 5520SOL    HW217019   2.408   3.428   4.171
 5521SOL     OW17020   3.571   2.247   5.105
 5521SOL    HW117021   3.644   2.316   5.109
 5521SOL    HW217022   3.599   2.172   5.046
 5522SOL     OW17023   2.117   3.210   4.014
 5522SOL    HW117024   2.021   3.211   3.987
 5522SOL    HW217025   2.129   3.263   4.098
 5523SOL     OW17026   1.967   2.875   5.450
 5523SOL    HW117027   1.890   2.842   5.504
 5523SOL    HW217028   2.052   2.845   5.492
 5524SOL     OW17029   2.534   2.065   5.213
 5524SOL    HW117030   2.624   2.049   5.173
 5524SOL    HW217031   2.542   2.070   5.312
 5525SOL     OW17032   1.937   2.207   3.757
 5525SOL    HW117033   1.845   2.179   3.728
 5525SOL    HW217034   1.968   2.284   3.701
 5526SOL     OW17035   3.302   2.718   5.122
 5526SOL    HW117036   3.245   2.770   5.059
 5526SOL    HW217037   3.398   2.730   5.098
 5527SOL     OW17038   3.045   3.197   3.843
 5527SOL    HW117039   2.946   3.186   3.845
 5527SOL    HW217040   3.079   3.212   3.936
 5528SOL     OW17041   2.475   2.704   5.155
 5528SOL    HW117042   2.531   2.785   5.138
 5528SOL    HW217043   2.534   2.624   5.158
 5529SOL     OW17044   3.355   3.629   4.683
 5529SOL    HW117045   3.388   3.693   4.614
 5529SOL    HW217046   3.421   3.623   4.758
 5530SOL     OW17047   2.578   2.427   5.432
 5530SOL    HW117048   2.597   2.492   5.506
 5530SOL    HW217049   2.638   2.347   5.441
 5531SOL     OW17050   3.312   3.082   5.357
 5531SOL    HW117051   3.303   3.072   5.456
 5531SOL    HW217052   3.408   3.075   5.331
 5532SOL     OW17053   2.252   3.603   5.284
 5532SOL    HW117054   2.161   3.644   5.282
 5532SOL    HW217055   2.245   3.509   5.316
 5533SOL     OW17056   3.536   2.745   4.978
 5533SOL    HW117057   3.509   2.656   4.941
 5533SOL    HW217058   3.537   2.813   4.905
 5534SOL     OW17059   3.087   2.187   4.173
 5534SOL    HW117060   3.152   2.113   4.162
 5534SOL    HW217061   3.107   2.237   4.257
 5535SOL     OW17062   2.456   2.607   4.376
 5535SOL    HW117063   2.506   2.692   4.357
 5535SOL    HW217064   2.368   2.609   4.328
 5536SOL     OW17065   3.639   2.204   5.366
 5536SOL    HW117066   3.622   2.235   5.272
 5536SOL    HW217067   3.555   2.167   5.404
 5537SOL     OW17068   3.592   2.796   5.241
 5537SOL    HW117069   3.630   2.887   5.256
 5537SOL    HW217070   3.584   2.779   5.142
 5538SOL     OW17071   2.721   3.236   3.740
 5538SOL    HW117072   2.675   3.251   3.828
 5538SOL    HW217073   2.765   3.321   3.710
 5539SOL     OW17074   2.523   3.652   4.677
 5539SOL    HW117075   2.477   3.740   4.664
 5539SOL    HW217076   2.622   3.664   4.670
 5540SOL     OW17077   2.721   2.818   4.585
 5540SOL    HW117078   2.775   2.749   4.633
 5540SOL    HW217079   2.689   2.887   4.651
 5541SOL     OW17080   2.945   2.846   3.811
 5541SOL    HW117081   2.922   2.899   3.729
 5541SOL    HW217082   3.026   2.790   3.792
 5542SOL     OW17083   3.723   3.431   4.575
 5542SOL    HW117084   3.652   3.419   4.505
 5542SOL    HW217085   3.724   3.352   4.635
 5543SOL     OW17086   2.083   3.176   5.568
 5543SOL    HW117087   2.018   3.103   5.547
 5543SOL    HW217088   2.087   3.190   5.666
 5544SOL     OW17089   1.941   3.102   4.377
 5544SOL    HW117090   1.940   3.055   4.465
 5544SOL    HW217091   2.023   3.074   4.326
 5545SOL     OW17092   2.534   3.253   5.348
 5545SOL    HW117093   2.456   3.203   5.386
 5545SOL    HW217094   2.531   3.348   5.379
 5546SOL     OW17095   3.686   2.054   4.951
 5546SOL    HW117096   3.682   1.964   4.995
 5546SOL    HW217097   3.689   2.043   4.852
 5547SOL     OW17098   2.290   2.286   4.244
 5547SOL    HW117099   2.320   2.214   4.182
 5547SOL    HW217100   2.251   2.246   4.327
 5548SOL     OW17101   3.567   3.349   4.828
 5548SOL    HW117102   3.474   3.324   4.801
 5548SOL    HW217103   3.593   3.299   4.910
 5549SOL     OW17104   2.179   2.409   5.004
 5549SOL    HW117105   2.217   2.350   5.076
 5549SOL    HW217106   2.219   2.383   4.916
 5550SOL     OW17107   2.674   3.448   4.411
 5550SOL    HW117108   2.706   3.458   4.317
 5550SOL    HW217109   2.595   3.386   4.413
 5551SOL     OW17110   3.286   2.076   4.836
 5551SOL    HW117111   3.338   2.011   4.891
 5551SOL    HW217112   3.237   2.139   4.897
 5552SOL     OW17113   2.863   1.896   4.878
 5552SOL    HW117114   2.800   1.824   4.847
 5552SOL    HW217115   2.956   1.860   4.878
 5553SOL     OW17116   2.632   3.192   4.025
 5553SOL    HW117117   2.586   3.105   4.042
 5553SOL    HW217118   2.723   3.189   4.066
 5554SOL     OW17119   2.480   3.429   5.008
 5554SOL    HW117120   2.475   3.511   5.065
 5554SOL    HW217121   2.569   3.426   4.963
 5555SOL     OW17122   3.214   1.914   3.892
 5555SOL    HW117123   3.249   1.873   3.808
 5555SOL    HW217124   3.124   1.876   3.912
 5556SOL     OW17125   3.162   2.315   4.415
 5556SOL    HW117126   3.103   2.395   4.419
 5556SOL    HW217127   3.177   2.280   4.508
 5557SOL     OW17128   3.455   2.083   4.606
 5557SOL    HW117129   3.371   2.082   4.660
 5557SOL    HW217130   3.457   2.166   4.550
 5558SOL     OW17131   1.901   2.939   4.024
 5558SOL    HW117132   2.000   2.928   4.015
 5558SOL    HW217133   1.861   2.853   4.056
 5559SOL     OW17134   2.737   3.508   4.061
 5559SOL    HW117135   2.660   3.473   4.007
 5559SOL    HW217136   2.705   3.579   4.123
 5560SOL     OW17137   2.092   2.490   5.699
 5560SOL    HW117138   1.999   2.488   5.736
 5560SOL    HW217139   2.093   2.451   5.607
 5561SOL     OW17140   2.431   3.137   6.751
 5561SOL    HW117141   2.338   3.130   6.714
 5561SOL    HW217142   2.442   3.226   6.795
 5562SOL     OW17143   3.417   3.373   6.289
 5562SOL    HW117144   3.360   3.357   6.370
 5562SOL    HW217145   3.358   3.383   6.209
 5563SOL     OW17146   2.997   2.565   6.303
 5563SOL    HW117147   3.054   2.643   6.278
 5563SOL    HW217148   2.937   2.591   6.379
 5564SOL     OW17149   3.617   2.469   5.817
 5564SOL    HW117150   3.605   2.456   5.718
 5564SOL    HW217151   3.587   2.388   5.866
 5565SOL     OW17152   2.630   3.006   6.609
 5565SOL    HW117153   2.552   3.023   6.669
 5565SOL    HW217154   2.664   3.093   6.573
 5566SOL     OW17155   2.712   2.660   7.409
 5566SOL    HW117156   2.708   2.736   7.474
 5566SOL    HW217157   2.734   2.696   7.318
 5567SOL     OW17158   2.547   2.874   6.251
 5567SOL    HW117159   2.616   2.858   6.321
 5567SOL    HW217160   2.474   2.931   6.289
 5568SOL     OW17161   2.548   3.023   7.389
 5568SOL    HW117162   2.608   3.102   7.403
 5568SOL    HW217163   2.462   3.054   7.348
 5569SOL     OW17164   2.197   3.297   6.647
 5569SOL    HW117165   2.119   3.266   6.594
 5569SOL    HW217166   2.255   3.355   6.590
 5570SOL     OW17167   3.322   3.367   6.925
 5570SOL    HW117168   3.346   3.461   6.951
 5570SOL    HW217169   3.306   3.313   7.007
 5571SOL     OW17170   2.300   2.254   7.085
 5571SOL    HW117171   2.382   2.198   7.094
 5571SOL    HW217172   2.219   2.196   7.089
 5572SOL     OW17173   3.465   2.309   6.323
 5572SOL    HW117174   3.391   2.355   6.273
 5572SOL    HW217175   3.516   2.377   6.376
 5573SOL     OW17176   2.093   3.575   6.069
 5573SOL    HW117177   2.127   3.652   6.123
 5573SOL    HW217178   2.137   3.575   5.979
 5574SOL     OW17179   2.989   3.203   7.276
 5574SOL    HW117180   3.036   3.203   7.364
 5574SOL    HW217181   2.941   3.116   7.265
 5575SOL     OW17182   2.092   3.296   6.124
 5575SOL    HW117183   2.066   3.392   6.124
 5575SOL    HW217184   2.021   3.242   6.169
 5576SOL     OW17185   2.102   2.953   6.472
 5576SOL    HW117186   2.116   2.869   6.524
 5576SOL    HW217187   2.047   3.017   6.527
 5577SOL     OW17188   2.482   3.648   7.025
 5577SOL    HW117189   2.390   3.631   7.060
 5577SOL    HW217190   2.510   3.740   7.051
 5578SOL     OW17191   2.468   2.826   5.709
 5578SOL    HW117192   2.475   2.910   5.655
 5578SOL    HW217193   2.514   2.839   5.797
 5579SOL     OW17194   3.456   1.976   7.066
 5579SOL    HW117195   3.438   2.043   6.994
 5579SOL    HW217196   3.453   2.022   7.155
 5580SOL     OW17197   3.704   3.629   5.945
 5580SOL    HW117198   3.758   3.600   6.025
 5580SOL    HW217199   3.734   3.719   5.916
 5581SOL     OW17200   1.889   3.458   5.703
 5581SOL    HW117201   1.870   3.362   5.724
 5581SOL    HW217202   1.856   3.516   5.778
 5582SOL     OW17203   3.551   2.784   6.198
 5582SOL    HW117204   3.646   2.755   6.206
 5582SOL    HW217205   3.543   2.849   6.123
 5583SOL     OW17206   3.503   2.970   6.018
 5583SOL    HW117207   3.589   2.972   5.966
 5583SOL    HW217208   3.517   3.017   6.106
 5584SOL     OW17209   2.475   3.227   6.312
 5584SOL    HW117210   2.426   3.140   6.321
 5584SOL    HW217211   2.452   3.270   6.225
 5585SOL     OW17212   3.155   3.090   7.009
 5585SOL    HW117213   3.192   3.017   6.951
 5585SOL    HW217214   3.207   3.095   7.094
 5586SOL     OW17215   2.059   2.838   6.850
 5586SOL    HW117216   2.148   2.793   6.836
 5586SOL    HW217217   1.986   2.773   6.831
 5587SOL     OW17218   3.387   2.861   5.776
 5587SOL    HW117219   3.324   2.785   5.789
 5587SOL    HW217220   3.435   2.879   5.862
 5588SOL     OW17221   3.049   3.654   7.202
 5588SOL    HW117222   3.073   3.714   7.126
 5588SOL    HW217223   3.056   3.559   7.172
 5589SOL     OW17224   3.328   3.279   6.539
 5589SOL    HW117225   3.269   3.285   6.619
 5589SOL    HW217226   3.313   3.191   6.493
 5590SOL     OW17227   3.529   3.576   6.158
 5590SOL    HW117228   3.488   3.553   6.070
 5590SOL    HW217229   3.511   3.502   6.223
 5591SOL     OW17230   2.460   2.591   5.856
 5591SOL    HW117231   2.484   2.660   5.788
 5591SOL    HW217232   2.382   2.624   5.910
 5592SOL     OW17233   3.143   2.207   6.530
 5592SOL    HW117234   3.057   2.157   6.517
 5592SOL    HW217235   3.205   2.153   6.586
 5593SOL     OW17236   3.438   3.524   5.893
 5593SOL    HW117237   3.527   3.570   5.896
 5593SOL    HW217238   3.417   3.500   5.798
 5594SOL     OW17239   2.669   2.467   7.051
 5594SOL    HW117240   2.622   2.464   7.140
 5594SOL    HW217241   2.618   2.412   6.985
 5595SOL     OW17242   3.256   2.331   7.260
 5595SOL    HW117243   3.236   2.374   7.348
 5595SOL    HW217244   3.334   2.269   7.269
 5596SOL     OW17245   2.835   2.752   7.158
 5596SOL    HW117246   2.881   2.668   7.129
 5596SOL    HW217247   2.779   2.786   7.083
 5597SOL     OW17248   2.853   2.272   6.828
 5597SOL    HW117249   2.776   2.306   6.882
 5597SOL    HW217250   2.819   2.221   6.749
 5598SOL     OW17251   2.903   2.563   6.015
 5598SOL    HW117252   2.929   2.559   6.111
 5598SOL    HW217253   2.818   2.512   6.001
 5599SOL     OW17254   1.992   3.683   7.157
 5599SOL    HW117255   1.982   3.668   7.256
 5599SOL    HW217256   1.906   3.719   7.121
 5600SOL     OW17257   2.727   2.210   5.781
 5600SOL    HW117258   2.786   2.273   5.732
 5600SOL    HW217259   2.746   2.116   5.752
 5601SOL     OW17260   3.581   2.447   7.417
 5601SOL    HW117261   3.555   2.536   7.381
 5601SOL    HW217262   3.579   2.379   7.344
 5602SOL     OW17263   3.224   3.006   6.131
 5602SOL    HW117264   3.307   2.977   6.083
 5602SOL    HW217265   3.175   3.073   6.075
 5603SOL     OW17266   2.870   3.318   6.063
 5603SOL    HW117267   2.824   3.390   6.011
 5603SOL    HW217268   2.866   3.338   6.161
 5604SOL     OW17269   2.213   3.663   6.439
 5604SOL    HW117270   2.263   3.577   6.445
 5604SOL    HW217271   2.278   3.740   6.436
 5605SOL     OW17272   3.657   2.928   6.459
 5605SOL    HW117273   3.595   2.913   6.383
 5605SOL    HW217274   3.605   2.939   6.544
 5606SOL     OW17275   3.089   3.412   7.092
 5606SOL    HW117276   3.095   3.335   7.156
 5606SOL    HW217277   3.037   3.386   7.012
 5607SOL     OW17278   2.183   2.805   5.828
 5607SOL    HW117279   2.265   2.844   5.786
 5607SOL    HW217280   2.156   2.723   5.779
 5608SOL     OW17281   3.320   2.597   6.314
 5608SOL    HW117282   3.315   2.532   6.389
 5608SOL    HW217283   3.400   2.656   6.327
 5609SOL     OW17284   2.323   3.128   7.313
 5609SOL    HW117285   2.273   3.129   7.227
 5609SOL    HW217286   2.260   3.110   7.389
 5610SOL     OW17287   2.973   3.638   5.823
 5610SOL    HW117288   2.913   3.576   5.873
 5610SOL    HW217289   3.004   3.594   5.738
 5611SOL     OW17290   3.494   3.239   5.667
 5611SOL    HW117291   3.462   3.333   5.657
 5611SOL    HW217292   3.418   3.176   5.655
 5612SOL     OW17293   2.326   3.605   5.909
 5612SOL    HW117294   2.359   3.644   5.995
 5612SOL    HW217295   2.402   3.598   5.844
 5613SOL     OW17296   3.262   1.969   6.012
 5613SOL    HW117297   3.238   1.932   5.922
 5613SOL    HW217298   3.361   1.985   6.016
 5614SOL     OW17299   2.111   3.647   6.827
 5614SOL    HW117300   2.168   3.582   6.877
 5614SOL    HW217301   2.095   3.614   6.734
 5615SOL     OW17302   2.802   3.560   6.490
 5615SOL    HW117303   2.882   3.503   6.511
 5615SOL    HW217304   2.753   3.520   6.413
 5616SOL     OW17305   2.244   2.562   6.066
 5616SOL    HW117306   2.289   2.472   6.063
 5616SOL    HW217307   2.150   2.551   6.099
 5617SOL     OW17308   3.409   2.084   7.315
 5617SOL    HW117309   3.404   2.121   7.407
 5617SOL    HW217310   3.337   2.015   7.303
 5618SOL     OW17311   2.476   1.984   5.703
 5618SOL    HW117312   2.574   1.962   5.710
 5618SOL    HW217313   2.445   1.967   5.610
 5619SOL     OW17314   2.750   3.376   6.781
 5619SOL    HW117315   2.727   3.351   6.687
 5619SOL    HW217316   2.811   3.307   6.820
 5620SOL     OW17317   3.213   2.452   7.019
 5620SOL    HW117318   3.241   2.409   7.104
 5620SOL    HW217319   3.238   2.548   7.020
 5621SOL     OW17320   2.665   3.264   6.510
 5621SOL    HW117321   2.755   3.278   6.468
 5621SOL    HW217322   2.594   3.266   6.439
 5622SOL     OW17323   2.784   2.365   6.485
 5622SOL    HW117324   2.759   2.356   6.389
 5622SOL    HW217325   2.832   2.283   6.516
 5623SOL     OW17326   3.296   3.050   5.627
 5623SOL    HW117327   3.328   2.974   5.684
 5623SOL    HW217328   3.204   3.077   5.657
 5624SOL     OW17329   2.797   2.098   6.066
 5624SOL    HW117330   2.749   2.139   5.988
 5624SOL    HW217331   2.896   2.096   6.047
 5625SOL     OW17332   2.938   2.545   7.050
 5625SOL    HW117333   2.858   2.484   7.053
 5625SOL    HW217334   3.019   2.492   7.026
 5626SOL     OW17335   3.089   3.432   6.379
 5626SOL    HW117336   3.110   3.506   6.314
 5626SOL    HW217337   3.157   3.432   6.452
 5627SOL     OW17338   2.321   3.014   6.327
 5627SOL    HW117339   2.250   2.987   6.392
 5627SOL    HW217340   2.295   2.986   6.234
 5628SOL     OW17341   3.133   3.659   6.177
 5628SOL    HW117342   3.177   3.723   6.113
 5628SOL    HW217343   3.083   3.711   6.247
 5629SOL     OW17344   2.894   2.411   5.602
 5629SOL    HW117345   2.853   2.493   5.563
 5629SOL    HW217346   2.958   2.437   5.675
 5630SOL     OW17347   2.728   2.316   6.228
 5630SOL    HW117348   2.696   2.388   6.166
 5630SOL    HW217349   2.752   2.235   6.175
 5631SOL     OW17350   2.879   1.901   6.339
 5631SOL    HW117351   2.807   1.906   6.270
 5631SOL    HW217352   2.855   1.832   6.408
 5632SOL     OW17353   3.291   3.035   6.453
 5632SOL    HW117354   3.236   2.951   6.446
 5632SOL    HW217355   3.317   3.064   6.361
 5633SOL     OW17356   3.328   2.452   6.578
 5633SOL    HW117357   3.298   2.357   6.585
 5633SOL    HW217358   3.401   2.468   6.644
 5634SOL     OW17359   3.719   2.695   5.963
 5634SOL    HW117360   3.761   2.631   6.027
 5634SOL    HW217361   3.681   2.644   5.885
 5635SOL     OW17362   2.350   3.247   5.760
 5635SOL    HW117363   2.263   3.232   5.807
 5635SOL    HW217364   2.333   3.273   5.665
 5636SOL     OW17365   3.526   3.142   6.243
 5636SOL    HW117366   3.625   3.150   6.257
 5636SOL    HW217367   3.481   3.226   6.274
 5637SOL     OW17368   3.252   2.437   5.664
 5637SOL    HW117369   3.198   2.416   5.745
 5637SOL    HW217370   3.343   2.396   5.673
 5638SOL     OW17371   2.389   2.118   5.914
 5638SOL    HW117372   2.416   2.059   5.839
 5638SOL    HW217373   2.389   2.213   5.883
 5639SOL     OW17374   3.616   3.085   7.174
 5639SOL    HW117375   3.707   3.046   7.161
 5639SOL    HW217376   3.624   3.181   7.198
 5640SOL     OW17377   2.926   3.209   6.926
 5640SOL    HW117378   2.846   3.186   6.981
 5640SOL    HW217379   3.009   3.183   6.975
 5641SOL     OW17380   3.454   3.491   7.211
 5641SOL    HW117381   3.481   3.525   7.121
 5641SOL    HW217382   3.533   3.453   7.257
 5642SOL     OW17383   2.973   3.057   6.686
 5642SOL    HW117384   2.933   3.101   6.767
 5642SOL    HW217385   2.932   3.094   6.603
 5643SOL     OW17386   3.500   2.961   6.665
 5643SOL    HW117387   3.505   3.042   6.724
 5643SOL    HW217388   3.414   2.963   6.614
 5644SOL     OW17389   2.777   1.951   6.988
 5644SOL    HW117390   2.802   1.931   6.893
 5644SOL    HW217391   2.849   2.007   7.030
 5645SOL     OW17392   2.842   2.978   7.305
 5645SOL    HW117393   2.743   2.984   7.315
 5645SOL    HW217394   2.865   2.898   7.249
 5646SOL     OW17395   2.567   2.912   5.954
 5646SOL    HW117396   2.553   2.919   6.053
 5646SOL    HW217397   2.651   2.861   5.936
 5647SOL     OW17398   2.272   2.675   6.837
 5647SOL    HW117399   2.358   2.687   6.887
 5647SOL    HW217400   2.230   2.588   6.864
 5648SOL     OW17401   3.136   2.248   6.848
 5648SOL    HW117402   3.157   2.322   6.912
 5648SOL    HW217403   3.047   2.265   6.805
 5649SOL     OW17404   1.926   3.426   6.917
 5649SOL    HW117405   1.880   3.508   6.883
 5649SOL    HW217406   2.024   3.445   6.926
 5650SOL     OW17407   2.229   2.962   6.087
 5650SOL    HW117408   2.222   3.045   6.031
 5650SOL    HW217409   2.233   2.882   6.027
 5651SOL     OW17410   3.114   3.210   5.974
 5651SOL    HW117411   3.164   3.287   6.014
 5651SOL    HW217412   3.019   3.212   6.006
 5652SOL     OW17413   3.134   3.307   6.728
 5652SOL    HW117414   3.181   3.320   6.815
 5652SOL    HW217415   3.068   3.233   6.737
 5653SOL     OW17416   3.444   2.501   6.058
 5653SOL    HW117417   3.413   2.562   6.131
 5653SOL    HW217418   3.494   2.553   5.989
 5654SOL     OW17419   2.216   3.372   6.915
 5654SOL    HW117420   2.195   3.328   6.828
 5654SOL    HW217421   2.313   3.398   6.918
 5655SOL     OW17422   3.449   2.641   7.256
 5655SOL    HW117423   3.357   2.679   7.251
 5655SOL    HW217424   3.509   2.688   7.191
 5656SOL     OW17425   2.875   1.967   7.356
 5656SOL    HW117426   2.881   2.052   7.304
 5656SOL    HW217427   2.907   1.891   7.299
 5657SOL     OW17428   2.435   2.732   6.615
 5657SOL    HW117429   2.479   2.821   6.606
 5657SOL    HW217430   2.372   2.732   6.692
 5658SOL     OW17431   3.222   2.724   6.631
 5658SOL    HW117432   3.147   2.724   6.565
 5658SOL    HW217433   3.259   2.632   6.640
 5659SOL     OW17434   3.071   2.387   5.861
 5659SOL    HW117435   3.084   2.303   5.915
 5659SOL    HW217436   3.042   2.461   5.921
 5660SOL     OW17437   2.169   2.075   6.817
 5660SOL    HW117438   2.146   2.112   6.907
 5660SOL    HW217439   2.139   1.980   6.811
 5661SOL     OW17440   1.899   3.172   6.868
 5661SOL    HW117441   1.952   3.123   6.936
 5661SOL    HW217442   1.921   3.270   6.873
 5662SOL     OW17443   2.594   2.496   6.650
 5662SOL    HW117444   2.653   2.470   6.574
 5662SOL    HW217445   2.566   2.592   6.639
 5663SOL     OW17446   3.590   2.797   7.440
 5663SOL    HW117447   3.544   2.790   7.351
 5663SOL    HW217448   3.528   2.841   7.506
 5664SOL     OW17449   3.484   2.229   5.960
 5664SOL    HW117450   3.486   2.153   6.024
 5664SOL    HW217451   3.436   2.306   6.000
 5665SOL     OW17452   2.885   2.628   6.552
 5665SOL    HW117453   2.900   2.649   6.648
 5665SOL    HW217454   2.855   2.533   6.543
 5666SOL     OW17455   2.842   3.435   7.286
 5666SOL    HW117456   2.822   3.479   7.198
 5666SOL    HW217457   2.881   3.344   7.270
 5667SOL     OW17458   3.721   3.380   7.191
 5667SOL    HW117459   3.735   3.407   7.096
 5667SOL    HW217460   3.804   3.402   7.244
 5668SOL     OW17461   2.212   2.760   7.390
 5668SOL    HW117462   2.288   2.804   7.438
 5668SOL    HW217463   2.247   2.713   7.308
 5669SOL     OW17464   3.402   2.136   5.711
 5669SOL    HW117465   3.341   2.061   5.734
 5669SOL    HW217466   3.424   2.188   5.794
 5670SOL     OW17467   3.165   2.700   5.628
 5670SOL    HW117468   3.199   2.607   5.643
 5670SOL    HW217469   3.183   2.727   5.533
 5671SOL     OW17470   2.930   3.195   6.435
 5671SOL    HW117471   2.937   3.111   6.380
 5671SOL    HW217472   2.992   3.264   6.399
 5672SOL     OW17473   3.000   2.242   7.264
 5672SOL    HW117474   2.955   2.305   7.328
 5672SOL    HW217475   3.093   2.273   7.247
 5673SOL     OW17476   3.022   2.069   7.063
 5673SOL    HW117477   3.022   2.133   7.140
 5673SOL    HW217478   3.050   2.117   6.980
 5674SOL     OW17479   1.870   3.188   5.786
 5674SOL    HW117480   1.777   3.209   5.755
 5674SOL    HW217481   1.880   3.089   5.799
 5675SOL     OW17482   1.950   3.663   6.513
 5675SOL    HW117483   1.908   3.577   6.486
 5675SOL    HW217484   2.044   3.666   6.479
 5676SOL     OW17485   2.366   3.430   6.496
 5676SOL    HW117486   2.432   3.504   6.505
 5676SOL    HW217487   2.410   3.351   6.454
 5677SOL     OW17488   2.864   2.658   6.824
 5677SOL    HW117489   2.905   2.626   6.910
 5677SOL    HW217490   2.768   2.631   6.821
 5678SOL     OW17491   3.231   2.812   7.246
 5678SOL    HW117492   3.270   2.901   7.266
 5678SOL    HW217493   3.241   2.792   7.149
 5679SOL     OW17494   2.677   2.434   5.911
 5679SOL    HW117495   2.684   2.345   5.865
 5679SOL    HW217496   2.583   2.468   5.903
 5680SOL     OW17497   3.519   2.466   6.792
 5680SOL    HW117498   3.481   2.397   6.854
 5680SOL    HW217499   3.601   2.430   6.748
 5681SOL     OW17500   2.114   3.426   7.330
 5681SOL    HW117501   2.084   3.483   7.406
 5681SOL    HW217502   2.107   3.329   7.356
 5682SOL     OW17503   2.792   3.540   7.051
 5682SOL    HW117504   2.768   3.522   6.956
 5682SOL    HW217505   2.822   3.634   7.061
 5683SOL     OW17506   2.335   2.362   5.777
 5683SOL    HW117507   2.396   2.442   5.781
 5683SOL    HW217508   2.240   2.393   5.784
 5684SOL     OW17509   2.021   2.999   7.052
 5684SOL    HW117510   2.043   2.938   7.128
 5684SOL    HW217511   2.031   2.950   6.966
 5685SOL     OW17512   3.209   2.921   6.820
 5685SOL    HW117513   3.233   2.858   6.746
 5685SOL    HW217514   3.119   2.961   6.802
 5686SOL     OW17515   3.164   2.717   5.895
 5686SOL    HW117516   3.078   2.686   5.937
 5686SOL    HW217517   3.160   2.703   5.796
 5687SOL     OW17518   3.621   3.609   6.740
 5687SOL    HW117519   3.682   3.639   6.667
 5687SOL    HW217520   3.583   3.520   6.718
 5688SOL     OW17521   3.114   3.593   6.714
 5688SOL    HW117522   3.198   3.598   6.660
 5688SOL    HW217523   3.091   3.497   6.732
 5689SOL     OW17524   1.945   3.120   6.608
 5689SOL    HW117525   1.940   3.119   6.708
 5689SOL    HW217526   1.862   3.079   6.570
 5690SOL     OW17527   2.550   3.524   7.302
 5690SOL    HW117528   2.494   3.605   7.311
 5690SOL    HW217529   2.602   3.528   7.216
 5691SOL     OW17530   3.588   1.997   6.109
 5691SOL    HW117531   3.661   1.980   6.042
 5691SOL    HW217532   3.557   1.910   6.147
 5692SOL     OW17533   3.250   3.435   6.063
 5692SOL    HW117534   3.317   3.447   5.989
 5692SOL    HW217535   3.210   3.524   6.086
 5693SOL     OW17536   1.992   3.656   7.437
 5693SOL    HW117537   1.951   3.582   7.490
 5693SOL    HW217538   2.056   3.707   7.495
 5694SOL     OW17539   3.142   2.789   6.258
 5694SOL    HW117540   3.202   2.708   6.260
 5694SOL    HW217541   3.182   2.858   6.198
 5695SOL     OW17542   2.692   3.135   7.008
 5695SOL    HW117543   2.687   3.168   7.103
 5695SOL    HW217544   2.606   3.154   6.962
 5696SOL     OW17545   2.534   3.478   5.740
 5696SOL    HW117546   2.543   3.488   5.641
 5696SOL    HW217547   2.494   3.389   5.761
 5697SOL     OW17548   3.512   3.582   6.980
 5697SOL    HW117549   3.565   3.592   6.896
 5697SOL    HW217550   3.485   3.672   7.014
 5698SOL     OW17551   3.703   2.037   6.549
 5698SOL    HW117552   3.742   1.952   6.513
 5698SOL    HW217553   3.605   2.039   6.530
 5699SOL     OW17554   3.056   3.474   5.617
 5699SOL    HW117555   3.062   3.381   5.654
 5699SOL    HW217556   2.997   3.474   5.537
 5700SOL     OW17557   2.684   2.864   6.958
 5700SOL    HW117558   2.724   2.863   6.866
 5700SOL    HW217559   2.694   2.956   6.998
 5701SOL     OW17560   2.778   2.772   5.877
 5701SOL    HW117561   2.841   2.810   5.809
 5701SOL    HW217562   2.818   2.689   5.916
 5702SOL     OW17563   3.366   3.469   5.630
 5702SOL    HW117564   3.274   3.506   5.637
 5702SOL    HW217565   3.404   3.489   5.540
 5703SOL     OW17566   2.234   3.150   7.076
 5703SOL    HW117567   2.221   3.243   7.042
 5703SOL    HW217568   2.150   3.098   7.063
 5704SOL     OW17569   3.476   3.154   6.875
 5704SOL    HW117570   3.536   3.157   6.955
 5704SOL    HW217571   3.401   3.218   6.888
 5705SOL     OW17572   2.901   2.960   6.282
 5705SOL    HW117573   2.831   2.913   6.336
 5705SOL    HW217574   2.960   2.892   6.239
 5706SOL     OW17575   2.876   2.098   6.557
 5706SOL    HW117576   2.868   2.062   6.464
 5706SOL    HW217577   2.874   2.022   6.622
 5707SOL     OW17578   2.452   3.349   6.077
 5707SOL    HW117579   2.494   3.291   6.007
 5707SOL    HW217580   2.408   3.428   6.033
 5708SOL     OW17581   3.571   2.247   6.967
 5708SOL    HW117582   3.644   2.316   6.971
 5708SOL    HW217583   3.599   2.172   6.908
 5709SOL     OW17584   2.117   3.210   5.876
 5709SOL    HW117585   2.021   3.211   5.849
 5709SOL    HW217586   2.129   3.263   5.960
 5710SOL     OW17587   1.967   2.875   7.312
 5710SOL    HW117588   1.890   2.842   7.366
 5710SOL    HW217589   2.052   2.845   7.354
 5711SOL     OW17590   1.937   2.207   5.619
 5711SOL    HW117591   1.845   2.179   5.590
 5711SOL    HW217592   1.968   2.284   5.563
 5712SOL     OW17593   3.302   2.718   6.984
 5712SOL    HW117594   3.245   2.770   6.921
 5712SOL    HW217595   3.398   2.730   6.960
 5713SOL     OW17596   3.045   3.197   5.705
 5713SOL    HW117597   2.946   3.186   5.707
 5713SOL    HW217598   3.079   3.212   5.798
 5714SOL     OW17599   2.475   2.704   7.017
 5714SOL    HW117600   2.531   2.785   7.000
 5714SOL    HW217601   2.534   2.624   7.020
 5715SOL     OW17602   3.355   3.629   6.545
 5715SOL    HW117603   3.388   3.693   6.476
 5715SOL    HW217604   3.421   3.623   6.620
 5716SOL     OW17605   3.312   3.082   7.219
 5716SOL    HW117606   3.303   3.072   7.318
 5716SOL    HW217607   3.408   3.075   7.193
 5717SOL     OW17608   2.252   3.603   7.146
 5717SOL    HW117609   2.161   3.644   7.144
 5717SOL    HW217610   2.245   3.509   7.178
 5718SOL     OW17611   3.536   2.745   6.840
 5718SOL    HW117612   3.509   2.656   6.803
 5718SOL    HW217613   3.537   2.813   6.767
 5719SOL     OW17614   3.087   2.187   6.035
 5719SOL    HW117615   3.152   2.113   6.024
 5719SOL    HW217616   3.107   2.237   6.119
 5720SOL     OW17617   2.456   2.607   6.238
 5720SOL    HW117618   2.506   2.692   6.219
 5720SOL    HW217619   2.368   2.609   6.190
 5721SOL     OW17620   3.639   2.204   7.228
 5721SOL    HW117621   3.622   2.235   7.134
 5721SOL    HW217622   3.555   2.167   7.266
 5722SOL     OW17623   3.592   2.796   7.103
 5722SOL    HW117624   3.630   2.887   7.118
 5722SOL    HW217625   3.584   2.779   7.004
 5723SOL     OW17626   2.721   3.236   5.602
 5723SOL    HW117627   2.675   3.251   5.690
 5723SOL    HW217628   2.765   3.321   5.572
 5724SOL     OW17629   2.523   3.652   6.539
 5724SOL    HW117630   2.477   3.740   6.526
 5724SOL    HW217631   2.622   3.664   6.532
 5725SOL     OW17632   2.721   2.818   6.447
 5725SOL    HW117633   2.775   2.749   6.495
 5725SOL    HW217634   2.689   2.887   6.513
 5726SOL     OW17635   2.945   2.846   5.673
 5726SOL    HW117636   2.922   2.899   5.591
 5726SOL    HW217637   3.026   2.790   5.654
 5727SOL     OW17638   3.723   3.431   6.437
 5727SOL    HW117639   3.652   3.419   6.367
 5727SOL    HW217640   3.724   3.352   6.497
 5728SOL     OW17641   2.083   3.176   7.430
 5728SOL    HW117642   2.018   3.103   7.409
 5728SOL    HW217643   2.087   3.190   7.528
 5729SOL     OW17644   1.941   3.102   6.239
 5729SOL    HW117645   1.940   3.055   6.327
 5729SOL    HW217646   2.023   3.074   6.188
 5730SOL     OW17647   2.534   3.253   7.210
 5730SOL    HW117648   2.456   3.203   7.248
 5730SOL    HW217649   2.531   3.348   7.241
 5731SOL     OW17650   3.686   2.054   6.813
 5731SOL    HW117651   3.682   1.964   6.857
 5731SOL    HW217652   3.689   2.043   6.714
 5732SOL     OW17653   3.567   3.349   6.690
 5732SOL    HW117654   3.474   3.324   6.663
 5732SOL    HW217655   3.593   3.299   6.772
 5733SOL     OW17656   2.674   3.448   6.273
 5733SOL    HW117657   2.706   3.458   6.179
 5733SOL    HW217658   2.595   3.386   6.275
 5734SOL     OW17659   3.286   2.076   6.698
 5734SOL    HW117660   3.338   2.011   6.753
 5734SOL    HW217661   3.237   2.139   6.759
 5735SOL     OW17662   2.863   1.896   6.740
 5735SOL    HW117663   2.800   1.824   6.709
 5735SOL    HW217664   2.956   1.860   6.740
 5736SOL     OW17665   2.632   3.192   5.887
 5736SOL    HW117666   2.586   3.105   5.904
 5736SOL    HW217667   2.723   3.189   5.928
 5737SOL     OW17668   2.480   3.429   6.870
 5737SOL    HW117669   2.475   3.511   6.927
 5737SOL    HW217670   2.569   3.426   6.825
 5738SOL     OW17671   3.214   1.914   5.754
 5738SOL    HW117672   3.249   1.873   5.670
 5738SOL    HW217673   3.124   1.876   5.774
 5739SOL     OW17674   3.162   2.315   6.277
 5739SOL    HW117675   3.103   2.395   6.281
 5739SOL    HW217676   3.177   2.280   6.370
 5740SOL     OW17677   3.455   2.083   6.468
 5740SOL    HW117678   3.371   2.082   6.522
 5740SOL    HW217679   3.457   2.166   6.412
 5741SOL     OW17680   1.901   2.939   5.886
 5741SOL    HW117681   2.000   2.928   5.877
 5741SOL    HW217682   1.861   2.853   5.918
 5742SOL     OW17683   2.737   3.508   5.923
 5742SOL    HW117684   2.660   3.473   5.869
 5742SOL    HW217685   2.705   3.579   5.985
 5743SOL     OW17686   1.881   2.230   8.095
 5743SOL    HW117687   1.799   2.273   8.134
 5743SOL    HW217688   1.853   2.157   8.032
 5744SOL     OW17689   2.431   3.137   8.613
 5744SOL    HW117690   2.338   3.130   8.576
 5744SOL    HW217691   2.442   3.226   8.657
 5745SOL     OW17692   3.417   3.373   8.151
 5745SOL    HW117693   3.360   3.357   8.232
 5745SOL    HW217694   3.358   3.383   8.071
 5746SOL     OW17695   2.997   2.565   8.165
 5746SOL    HW117696   3.054   2.643   8.140
 5746SOL    HW217697   2.937   2.591   8.241
 5747SOL     OW17698   3.617   2.469   7.679
 5747SOL    HW117699   3.605   2.456   7.580
 5747SOL    HW217700   3.587   2.388   7.728
 5748SOL     OW17701   2.630   3.006   8.471
 5748SOL    HW117702   2.552   3.023   8.531
 5748SOL    HW217703   2.664   3.093   8.435
 5749SOL     OW17704   2.712   2.660   9.271
 5749SOL    HW117705   2.708   2.736   9.336
 5749SOL    HW217706   2.734   2.696   9.180
 5750SOL     OW17707   2.547   2.874   8.113
 5750SOL    HW117708   2.616   2.858   8.183
 5750SOL    HW217709   2.474   2.931   8.151
 5751SOL     OW17710   2.548   3.023   9.251
 5751SOL    HW117711   2.608   3.102   9.265
 5751SOL    HW217712   2.462   3.054   9.210
 5752SOL     OW17713   2.197   3.297   8.509
 5752SOL    HW117714   2.119   3.266   8.456
 5752SOL    HW217715   2.255   3.355   8.452
 5753SOL     OW17716   3.322   3.367   8.787
 5753SOL    HW117717   3.346   3.461   8.813
 5753SOL    HW217718   3.306   3.313   8.869
 5754SOL     OW17719   2.300   2.254   8.947
 5754SOL    HW117720   2.382   2.198   8.956
 5754SOL    HW217721   2.219   2.196   8.951
 5755SOL     OW17722   3.465   2.309   8.185
 5755SOL    HW117723   3.391   2.355   8.135
 5755SOL    HW217724   3.516   2.377   8.238
 5756SOL     OW17725   2.093   3.575   7.931
 5756SOL    HW117726   2.127   3.652   7.985
 5756SOL    HW217727   2.137   3.575   7.841
 5757SOL     OW17728   2.989   3.203   9.138
 5757SOL    HW117729   3.036   3.203   9.226
 5757SOL    HW217730   2.941   3.116   9.127
 5758SOL     OW17731   2.092   3.296   7.986
 5758SOL    HW117732   2.066   3.392   7.986
 5758SOL    HW217733   2.021   3.242   8.031
 5759SOL     OW17734   2.102   2.953   8.334
 5759SOL    HW117735   2.116   2.869   8.386
 5759SOL    HW217736   2.047   3.017   8.389
 5760SOL     OW17737   2.482   3.648   8.887
 5760SOL    HW117738   2.390   3.631   8.922
 5760SOL    HW217739   2.510   3.740   8.913
 5761SOL     OW17740   2.468   2.826   7.571
 5761SOL    HW117741   2.475   2.910   7.517
 5761SOL    HW217742   2.514   2.839   7.659
 5762SOL     OW17743   3.456   1.976   8.928
 5762SOL    HW117744   3.438   2.043   8.856
 5762SOL    HW217745   3.453   2.022   9.017
 5763SOL     OW17746   1.984   2.505   8.011
 5763SOL    HW117747   1.939   2.417   8.028
 5763SOL    HW217748   1.983   2.559   8.095
 5764SOL     OW17749   3.704   3.629   7.807
 5764SOL    HW117750   3.758   3.600   7.887
 5764SOL    HW217751   3.734   3.719   7.778
 5765SOL     OW17752   1.889   3.458   7.565
 5765SOL    HW117753   1.870   3.362   7.586
 5765SOL    HW217754   1.856   3.516   7.640
 5766SOL     OW17755   3.551   2.784   8.060
 5766SOL    HW117756   3.646   2.755   8.068
 5766SOL    HW217757   3.543   2.849   7.985
 5767SOL     OW17758   3.503   2.970   7.880
 5767SOL    HW117759   3.589   2.972   7.828
 5767SOL    HW217760   3.517   3.017   7.968
 5768SOL     OW17761   1.975   2.599   9.045
 5768SOL    HW117762   2.063   2.586   9.090
 5768SOL    HW217763   1.962   2.696   9.023
 5769SOL     OW17764   2.475   3.227   8.174
 5769SOL    HW117765   2.426   3.140   8.183
 5769SOL    HW217766   2.452   3.270   8.087
 5770SOL     OW17767   3.155   3.090   8.871
 5770SOL    HW117768   3.192   3.017   8.813
 5770SOL    HW217769   3.207   3.095   8.956
 5771SOL     OW17770   2.671   1.866   7.950
 5771SOL    HW117771   2.711   1.957   7.941
 5771SOL    HW217772   2.571   1.874   7.956
 5772SOL     OW17773   2.059   2.838   8.712
 5772SOL    HW117774   2.148   2.793   8.698
 5772SOL    HW217775   1.986   2.773   8.693
 5773SOL     OW17776   3.387   2.861   7.638
 5773SOL    HW117777   3.324   2.785   7.651
 5773SOL    HW217778   3.435   2.879   7.724
 5774SOL     OW17779   3.049   3.654   9.064
 5774SOL    HW117780   3.073   3.714   8.988
 5774SOL    HW217781   3.056   3.559   9.034
 5775SOL     OW17782   2.179   2.113   9.249
 5775SOL    HW117783   2.250   2.184   9.255
 5775SOL    HW217784   2.091   2.152   9.277
 5776SOL     OW17785   3.328   3.279   8.401
 5776SOL    HW117786   3.269   3.285   8.481
 5776SOL    HW217787   3.313   3.191   8.355
 5777SOL     OW17788   3.529   3.576   8.020
 5777SOL    HW117789   3.488   3.553   7.932
 5777SOL    HW217790   3.511   3.502   8.085
 5778SOL     OW17791   2.460   2.591   7.718
 5778SOL    HW117792   2.484   2.660   7.650
 5778SOL    HW217793   2.382   2.624   7.772
 5779SOL     OW17794   3.143   2.207   8.392
 5779SOL    HW117795   3.057   2.157   8.379
 5779SOL    HW217796   3.205   2.153   8.448
 5780SOL     OW17797   3.438   3.524   7.755
 5780SOL    HW117798   3.527   3.570   7.758
 5780SOL    HW217799   3.417   3.500   7.660
 5781SOL     OW17800   2.669   2.467   8.913
 5781SOL    HW117801   2.622   2.464   9.002
 5781SOL    HW217802   2.618   2.412   8.847
 5782SOL     OW17803   3.256   2.331   9.122
 5782SOL    HW117804   3.236   2.374   9.210
 5782SOL    HW217805   3.334   2.269   9.131
 5783SOL     OW17806   2.835   2.752   9.020
 5783SOL    HW117807   2.881   2.668   8.991
 5783SOL    HW217808   2.779   2.786   8.945
 5784SOL     OW17809   2.853   2.272   8.690
 5784SOL    HW117810   2.776   2.306   8.744
 5784SOL    HW217811   2.819   2.221   8.611
 5785SOL     OW17812   2.903   2.563   7.877
 5785SOL    HW117813   2.929   2.559   7.973
 5785SOL    HW217814   2.818   2.512   7.863
 5786SOL     OW17815   1.938   2.673   8.237
 5786SOL    HW117816   2.037   2.661   8.246
 5786SOL    HW217817   1.914   2.768   8.258
 5787SOL     OW17818   1.992   3.683   9.019
 5787SOL    HW117819   1.982   3.668   9.118
 5787SOL    HW217820   1.906   3.719   8.983
 5788SOL     OW17821   2.727   2.210   7.643
 5788SOL    HW117822   2.786   2.273   7.594
 5788SOL    HW217823   2.746   2.116   7.614
 5789SOL     OW17824   3.581   2.447   9.279
 5789SOL    HW117825   3.555   2.536   9.243
 5789SOL    HW217826   3.579   2.379   9.206
 5790SOL     OW17827   3.224   3.006   7.993
 5790SOL    HW117828   3.307   2.977   7.945
 5790SOL    HW217829   3.175   3.073   7.937
 5791SOL     OW17830   2.412   2.058   8.333
 5791SOL    HW117831   2.407   2.053   8.433
 5791SOL    HW217832   2.414   2.154   8.304
 5792SOL     OW17833   2.870   3.318   7.925
 5792SOL    HW117834   2.824   3.390   7.873
 5792SOL    HW217835   2.866   3.338   8.023
 5793SOL     OW17836   2.213   3.663   8.301
 5793SOL    HW117837   2.263   3.577   8.307
 5793SOL    HW217838   2.278   3.740   8.298
 5794SOL     OW17839   3.657   2.928   8.321
 5794SOL    HW117840   3.595   2.913   8.245
 5794SOL    HW217841   3.605   2.939   8.406
 5795SOL     OW17842   3.089   3.412   8.954
 5795SOL    HW117843   3.095   3.335   9.018
 5795SOL    HW217844   3.037   3.386   8.874
 5796SOL     OW17845   2.183   2.805   7.690
 5796SOL    HW117846   2.265   2.844   7.648
 5796SOL    HW217847   2.156   2.723   7.641
 5797SOL     OW17848   3.320   2.597   8.176
 5797SOL    HW117849   3.315   2.532   8.251
 5797SOL    HW217850   3.400   2.656   8.189
 5798SOL     OW17851   2.323   3.128   9.175
 5798SOL    HW117852   2.273   3.129   9.089
 5798SOL    HW217853   2.260   3.110   9.251
 5799SOL     OW17854   2.973   3.638   7.685
 5799SOL    HW117855   2.913   3.576   7.735
 5799SOL    HW217856   3.004   3.594   7.600
 5800SOL     OW17857   3.494   3.239   7.529
 5800SOL    HW117858   3.462   3.333   7.519
 5800SOL    HW217859   3.418   3.176   7.517
 5801SOL     OW17860   2.326   3.605   7.771
 5801SOL    HW117861   2.359   3.644   7.857
 5801SOL    HW217862   2.402   3.598   7.706
 5802SOL     OW17863   3.262   1.969   7.874
 5802SOL    HW117864   3.238   1.932   7.784
 5802SOL    HW217865   3.361   1.985   7.878
 5803SOL     OW17866   2.111   3.647   8.689
 5803SOL    HW117867   2.168   3.582   8.739
 5803SOL    HW217868   2.095   3.614   8.596
 5804SOL     OW17869   2.802   3.560   8.352
 5804SOL    HW117870   2.882   3.503   8.373
 5804SOL    HW217871   2.753   3.520   8.275
 5805SOL     OW17872   2.244   2.562   7.928
 5805SOL    HW117873   2.289   2.472   7.925
 5805SOL    HW217874   2.150   2.551   7.961
 5806SOL     OW17875   3.409   2.084   9.177
 5806SOL    HW117876   3.404   2.121   9.269
 5806SOL    HW217877   3.337   2.015   9.165
 5807SOL     OW17878   2.643   2.126   9.197
 5807SOL    HW117879   2.710   2.065   9.240
 5807SOL    HW217880   2.570   2.145   9.262
 5808SOL     OW17881   2.750   3.376   8.643
 5808SOL    HW117882   2.727   3.351   8.549
 5808SOL    HW217883   2.811   3.307   8.682
 5809SOL     OW17884   3.213   2.452   8.881
 5809SOL    HW117885   3.241   2.409   8.966
 5809SOL    HW217886   3.238   2.548   8.882
 5810SOL     OW17887   2.665   3.264   8.372
 5810SOL    HW117888   2.755   3.278   8.330
 5810SOL    HW217889   2.594   3.266   8.301
 5811SOL     OW17890   2.784   2.365   8.347
 5811SOL    HW117891   2.759   2.356   8.251
 5811SOL    HW217892   2.832   2.283   8.378
 5812SOL     OW17893   2.401   1.926   7.960
 5812SOL    HW117894   2.320   1.927   8.018
 5812SOL    HW217895   2.404   2.009   7.905
 5813SOL     OW17896   3.296   3.050   7.489
 5813SOL    HW117897   3.328   2.974   7.546
 5813SOL    HW217898   3.204   3.077   7.519
 5814SOL     OW17899   2.797   2.098   7.928
 5814SOL    HW117900   2.749   2.139   7.850
 5814SOL    HW217901   2.896   2.096   7.909
 5815SOL     OW17902   2.938   2.545   8.912
 5815SOL    HW117903   2.858   2.484   8.915
 5815SOL    HW217904   3.019   2.492   8.888
 5816SOL     OW17905   3.089   3.432   8.241
 5816SOL    HW117906   3.110   3.506   8.176
 5816SOL    HW217907   3.157   3.432   8.314
 5817SOL     OW17908   2.321   3.014   8.189
 5817SOL    HW117909   2.250   2.987   8.254
 5817SOL    HW217910   2.295   2.986   8.096
 5818SOL     OW17911   3.133   3.659   8.039
 5818SOL    HW117912   3.177   3.723   7.975
 5818SOL    HW217913   3.083   3.711   8.109
 5819SOL     OW17914   2.894   2.411   7.464
 5819SOL    HW117915   2.853   2.493   7.425
 5819SOL    HW217916   2.958   2.437   7.537
 5820SOL     OW17917   1.940   2.418   8.834
 5820SOL    HW117918   2.032   2.417   8.793
 5820SOL    HW217919   1.934   2.492   8.901
 5821SOL     OW17920   2.423   2.084   8.595
 5821SOL    HW117921   2.461   2.000   8.632
 5821SOL    HW217922   2.335   2.103   8.639
 5822SOL     OW17923   2.728   2.316   8.090
 5822SOL    HW117924   2.696   2.388   8.028
 5822SOL    HW217925   2.752   2.235   8.037
 5823SOL     OW17926   2.879   1.901   8.201
 5823SOL    HW117927   2.807   1.906   8.132
 5823SOL    HW217928   2.855   1.832   8.270
 5824SOL     OW17929   3.291   3.035   8.315
 5824SOL    HW117930   3.236   2.951   8.308
 5824SOL    HW217931   3.317   3.064   8.223
 5825SOL     OW17932   3.328   2.452   8.440
 5825SOL    HW117933   3.298   2.357   8.447
 5825SOL    HW217934   3.401   2.468   8.506
 5826SOL     OW17935   3.719   2.695   7.825
 5826SOL    HW117936   3.761   2.631   7.889
 5826SOL    HW217937   3.681   2.644   7.747
 5827SOL     OW17938   2.350   3.247   7.622
 5827SOL    HW117939   2.263   3.232   7.669
 5827SOL    HW217940   2.333   3.273   7.527
 5828SOL     OW17941   3.526   3.142   8.105
 5828SOL    HW117942   3.625   3.150   8.119
 5828SOL    HW217943   3.481   3.226   8.136
 5829SOL     OW17944   3.252   2.437   7.526
 5829SOL    HW117945   3.198   2.416   7.607
 5829SOL    HW217946   3.343   2.396   7.535
 5830SOL     OW17947   3.616   3.085   9.036
 5830SOL    HW117948   3.707   3.046   9.023
 5830SOL    HW217949   3.624   3.181   9.060
 5831SOL     OW17950   2.926   3.209   8.788
 5831SOL    HW117951   2.846   3.186   8.843
 5831SOL    HW217952   3.009   3.183   8.837
 5832SOL     OW17953   3.454   3.491   9.073
 5832SOL    HW117954   3.481   3.525   8.983
 5832SOL    HW217955   3.533   3.453   9.119
 5833SOL     OW17956   2.973   3.057   8.548
 5833SOL    HW117957   2.933   3.101   8.629
 5833SOL    HW217958   2.932   3.094   8.465
 5834SOL     OW17959   3.500   2.961   8.527
 5834SOL    HW117960   3.505   3.042   8.586
 5834SOL    HW217961   3.414   2.963   8.476
 5835SOL     OW17962   2.777   1.951   8.850
 5835SOL    HW117963   2.802   1.931   8.755
 5835SOL    HW217964   2.849   2.007   8.892
 5836SOL     OW17965   2.842   2.978   9.167
 5836SOL    HW117966   2.743   2.984   9.177
 5836SOL    HW217967   2.865   2.898   9.111
 5837SOL     OW17968   2.567   2.912   7.816
 5837SOL    HW117969   2.553   2.919   7.915
 5837SOL    HW217970   2.651   2.861   7.798
 5838SOL     OW17971   2.272   2.675   8.699
 5838SOL    HW117972   2.358   2.687   8.749
 5838SOL    HW217973   2.230   2.588   8.726
 5839SOL     OW17974   3.136   2.248   8.710
 5839SOL    HW117975   3.157   2.322   8.774
 5839SOL    HW217976   3.047   2.265   8.667
 5840SOL     OW17977   1.926   3.426   8.779
 5840SOL    HW117978   1.880   3.508   8.745
 5840SOL    HW217979   2.024   3.445   8.788
 5841SOL     OW17980   2.229   2.962   7.949
 5841SOL    HW117981   2.222   3.045   7.893
 5841SOL    HW217982   2.233   2.882   7.889
 5842SOL     OW17983   2.428   2.399   8.313
 5842SOL    HW117984   2.440   2.465   8.239
 5842SOL    HW217985   2.474   2.433   8.396
 5843SOL     OW17986   3.114   3.210   7.836
 5843SOL    HW117987   3.164   3.287   7.876
 5843SOL    HW217988   3.019   3.212   7.868
 5844SOL     OW17989   3.134   3.307   8.590
 5844SOL    HW117990   3.181   3.320   8.677
 5844SOL    HW217991   3.068   3.233   8.599
 5845SOL     OW17992   3.444   2.501   7.920
 5845SOL    HW117993   3.413   2.562   7.993
 5845SOL    HW217994   3.494   2.553   7.851
 5846SOL     OW17995   2.216   3.372   8.777
 5846SOL    HW117996   2.195   3.328   8.690
 5846SOL    HW217997   2.313   3.398   8.780
 5847SOL     OW17998   2.264   2.613   9.046
 5847SOL    HW117999   2.332   2.668   8.999
 5847SOL    HW218000   2.304   2.525   9.073
 5848SOL     OW18001   3.449   2.641   9.118
 5848SOL    HW118002   3.357   2.679   9.113
 5848SOL    HW218003   3.509   2.688   9.053
 5849SOL     OW18004   2.875   1.967   9.218
 5849SOL    HW118005   2.881   2.052   9.166
 5849SOL    HW218006   2.907   1.891   9.161
 5850SOL     OW18007   2.366   1.912   9.188
 5850SOL    HW118008   2.324   1.855   9.118
 5850SOL    HW218009   2.300   1.981   9.220
 5851SOL     OW18010   2.435   2.732   8.477
 5851SOL    HW118011   2.479   2.821   8.468
 5851SOL    HW218012   2.372   2.732   8.554
 5852SOL     OW18013   3.222   2.724   8.493
 5852SOL    HW118014   3.147   2.724   8.427
 5852SOL    HW218015   3.259   2.632   8.502
 5853SOL     OW18016   3.071   2.387   7.723
 5853SOL    HW118017   3.084   2.303   7.777
 5853SOL    HW218018   3.042   2.461   7.783
 5854SOL     OW18019   2.169   2.075   8.679
 5854SOL    HW118020   2.146   2.112   8.769
 5854SOL    HW218021   2.139   1.980   8.673
 5855SOL     OW18022   1.899   3.172   8.730
 5855SOL    HW118023   1.952   3.123   8.798
 5855SOL    HW218024   1.921   3.270   8.735
 5856SOL     OW18025   2.594   2.496   8.512
 5856SOL    HW118026   2.653   2.470   8.436
 5856SOL    HW218027   2.566   2.592   8.501
 5857SOL     OW18028   3.590   2.797   9.302
 5857SOL    HW118029   3.544   2.790   9.213
 5857SOL    HW218030   3.528   2.841   9.368
 5858SOL     OW18031   3.484   2.229   7.822
 5858SOL    HW118032   3.486   2.153   7.886
 5858SOL    HW218033   3.436   2.306   7.862
 5859SOL     OW18034   2.885   2.628   8.414
 5859SOL    HW118035   2.900   2.649   8.510
 5859SOL    HW218036   2.855   2.533   8.405
 5860SOL     OW18037   2.842   3.435   9.148
 5860SOL    HW118038   2.822   3.479   9.060
 5860SOL    HW218039   2.881   3.344   9.132
 5861SOL     OW18040   3.721   3.380   9.053
 5861SOL    HW118041   3.735   3.407   8.958
 5861SOL    HW218042   3.804   3.402   9.106
 5862SOL     OW18043   2.212   2.760   9.252
 5862SOL    HW118044   2.288   2.804   9.300
 5862SOL    HW218045   2.247   2.713   9.170
 5863SOL     OW18046   3.402   2.136   7.573
 5863SOL    HW118047   3.341   2.061   7.596
 5863SOL    HW218048   3.424   2.188   7.656
 5864SOL     OW18049   3.165   2.700   7.490
 5864SOL    HW118050   3.199   2.607   7.505
 5864SOL    HW218051   3.183   2.727   7.395
 5865SOL     OW18052   2.930   3.195   8.297
 5865SOL    HW118053   2.937   3.111   8.242
 5865SOL    HW218054   2.992   3.264   8.261
 5866SOL     OW18055   2.181   2.672   8.397
 5866SOL    HW118056   2.274   2.708   8.402
 5866SOL    HW218057   2.175   2.587   8.449
 5867SOL     OW18058   2.201   2.371   8.454
 5867SOL    HW118059   2.149   2.288   8.437
 5867SOL    HW218060   2.278   2.376   8.390
 5868SOL     OW18061   3.000   2.242   9.126
 5868SOL    HW118062   2.955   2.305   9.190
 5868SOL    HW218063   3.093   2.273   9.109
 5869SOL     OW18064   3.022   2.069   8.925
 5869SOL    HW118065   3.022   2.133   9.002
 5869SOL    HW218066   3.050   2.117   8.842
 5870SOL     OW18067   1.870   3.188   7.648
 5870SOL    HW118068   1.777   3.209   7.617
 5870SOL    HW218069   1.880   3.089   7.661
 5871SOL     OW18070   1.950   3.663   8.375
 5871SOL    HW118071   1.908   3.577   8.348
 5871SOL    HW218072   2.044   3.666   8.341
 5872SOL     OW18073   2.366   3.430   8.358
 5872SOL    HW118074   2.432   3.504   8.367
 5872SOL    HW218075   2.410   3.351   8.316
 5873SOL     OW18076   2.864   2.658   8.686
 5873SOL    HW118077   2.905   2.626   8.772
 5873SOL    HW218078   2.768   2.631   8.683
 5874SOL     OW18079   1.902   2.406   8.562
 5874SOL    HW118080   1.987   2.373   8.521
 5874SOL    HW218081   1.915   2.421   8.660
 5875SOL     OW18082   2.051   2.382   9.170
 5875SOL    HW118083   2.110   2.342   9.100
 5875SOL    HW218084   1.993   2.453   9.129
 5876SOL     OW18085   3.231   2.812   9.108
 5876SOL    HW118086   3.270   2.901   9.128
 5876SOL    HW218087   3.241   2.792   9.011
 5877SOL     OW18088   2.677   2.434   7.773
 5877SOL    HW118089   2.684   2.345   7.727
 5877SOL    HW218090   2.583   2.468   7.765
 5878SOL     OW18091   3.519   2.466   8.654
 5878SOL    HW118092   3.481   2.397   8.716
 5878SOL    HW218093   3.601   2.430   8.610
 5879SOL     OW18094   2.114   3.426   9.192
 5879SOL    HW118095   2.084   3.483   9.268
 5879SOL    HW218096   2.107   3.329   9.218
 5880SOL     OW18097   2.533   2.326   8.717
 5880SOL    HW118098   2.499   2.237   8.687
 5880SOL    HW218099   2.559   2.380   8.637
 5881SOL     OW18100   2.792   3.540   8.913
 5881SOL    HW118101   2.768   3.522   8.818
 5881SOL    HW218102   2.822   3.634   8.923
 5882SOL     OW18103   2.021   2.999   8.914
 5882SOL    HW118104   2.043   2.938   8.990
 5882SOL    HW218105   2.031   2.950   8.828
 5883SOL     OW18106   3.209   2.921   8.682
 5883SOL    HW118107   3.233   2.858   8.608
 5883SOL    HW218108   3.119   2.961   8.664
 5884SOL     OW18109   3.164   2.717   7.757
 5884SOL    HW118110   3.078   2.686   7.799
 5884SOL    HW218111   3.160   2.703   7.658
 5885SOL     OW18112   3.621   3.609   8.602
 5885SOL    HW118113   3.682   3.639   8.529
 5885SOL    HW218114   3.583   3.520   8.580
 5886SOL     OW18115   3.114   3.593   8.576
 5886SOL    HW118116   3.198   3.598   8.522
 5886SOL    HW218117   3.091   3.497   8.594
 5887SOL     OW18118   1.945   3.120   8.470
 5887SOL    HW118119   1.940   3.119   8.570
 5887SOL    HW218120   1.862   3.079   8.432
 5888SOL     OW18121   2.550   3.524   9.164
 5888SOL    HW118122   2.494   3.605   9.173
 5888SOL    HW218123   2.602   3.528   9.078
 5889SOL     OW18124   3.588   1.997   7.971
 5889SOL    HW118125   3.661   1.980   7.904
 5889SOL    HW218126   3.557   1.910   8.009
 5890SOL     OW18127   3.250   3.435   7.925
 5890SOL    HW118128   3.317   3.447   7.851
 5890SOL    HW218129   3.210   3.524   7.948
 5891SOL     OW18130   1.992   3.656   9.299
 5891SOL    HW118131   1.951   3.582   9.352
 5891SOL    HW218132   2.056   3.707   9.357
 5892SOL     OW18133   3.142   2.789   8.120
 5892SOL    HW118134   3.202   2.708   8.122
 5892SOL    HW218135   3.182   2.858   8.060
 5893SOL     OW18136   2.692   3.135   8.870
 5893SOL    HW118137   2.687   3.168   8.965
 5893SOL    HW218138   2.606   3.154   8.824
 5894SOL     OW18139   2.534   3.478   7.602
 5894SOL    HW118140   2.543   3.488   7.503
 5894SOL    HW218141   2.494   3.389   7.623
 5895SOL     OW18142   3.512   3.582   8.842
 5895SOL    HW118143   3.565   3.592   8.758
 5895SOL    HW218144   3.485   3.672   8.876
 5896SOL     OW18145   3.703   2.037   8.411
 5896SOL    HW118146   3.742   1.952   8.375
 5896SOL    HW218147   3.605   2.039   8.392
 5897SOL     OW18148   3.056   3.474   7.479
 5897SOL    HW118149   3.062   3.381   7.516
 5897SOL    HW218150   2.997   3.474   7.399
 5898SOL     OW18151   2.684   2.864   8.820
 5898SOL    HW118152   2.724   2.863   8.728
 5898SOL    HW218153   2.694   2.956   8.860
 5899SOL     OW18154   2.778   2.772   7.739
 5899SOL    HW118155   2.841   2.810   7.671
 5899SOL    HW218156   2.818   2.689   7.778
 5900SOL     OW18157   3.366   3.469   7.492
 5900SOL    HW118158   3.274   3.506   7.499
 5900SOL    HW218159   3.404   3.489   7.402
 5901SOL     OW18160   2.234   3.150   8.938
 5901SOL    HW118161   2.221   3.243   8.904
 5901SOL    HW218162   2.150   3.098   8.925
 5902SOL     OW18163   3.476   3.154   8.737
 5902SOL    HW118164   3.536   3.157   8.817
 5902SOL    HW218165   3.401   3.218   8.750
 5903SOL     OW18166   2.901   2.960   8.144
 5903SOL    HW118167   2.831   2.913   8.198
 5903SOL    HW218168   2.960   2.892   8.101
 5904SOL     OW18169   2.876   2.098   8.419
 5904SOL    HW118170   2.868   2.062   8.326
 5904SOL    HW218171   2.874   2.022   8.484
 5905SOL     OW18172   2.452   3.349   7.939
 5905SOL    HW118173   2.494   3.291   7.869
 5905SOL    HW218174   2.408   3.428   7.895
 5906SOL     OW18175   3.571   2.247   8.829
 5906SOL    HW118176   3.644   2.316   8.833
 5906SOL    HW218177   3.599   2.172   8.770
 5907SOL     OW18178   2.117   3.210   7.738
 5907SOL    HW118179   2.021   3.211   7.711
 5907SOL    HW218180   2.129   3.263   7.822
 5908SOL     OW18181   1.967   2.875   9.174
 5908SOL    HW118182   1.890   2.842   9.228
 5908SOL    HW218183   2.052   2.845   9.216
 5909SOL     OW18184   2.534   2.065   8.937
 5909SOL    HW118185   2.624   2.049   8.897
 5909SOL    HW218186   2.542   2.070   9.036
 5910SOL     OW18187   3.302   2.718   8.846
 5910SOL    HW118188   3.245   2.770   8.783
 5910SOL    HW218189   3.398   2.730   8.822
 5911SOL     OW18190   3.045   3.197   7.567
 5911SOL    HW118191   2.946   3.186   7.569
 5911SOL    HW218192   3.079   3.212   7.660
 5912SOL     OW18193   2.475   2.704   8.879
 5912SOL    HW118194   2.531   2.785   8.862
 5912SOL    HW218195   2.534   2.624   8.882
 5913SOL     OW18196   3.355   3.629   8.407
 5913SOL    HW118197   3.388   3.693   8.338
 5913SOL    HW218198   3.421   3.623   8.482
 5914SOL     OW18199   2.578   2.427   9.156
 5914SOL    HW118200   2.597   2.492   9.230
 5914SOL    HW218201   2.638   2.347   9.165
 5915SOL     OW18202   3.312   3.082   9.081
 5915SOL    HW118203   3.303   3.072   9.180
 5915SOL    HW218204   3.408   3.075   9.055
 5916SOL     OW18205   2.252   3.603   9.008
 5916SOL    HW118206   2.161   3.644   9.006
 5916SOL    HW218207   2.245   3.509   9.040
 5917SOL     OW18208   3.536   2.745   8.702
 5917SOL    HW118209   3.509   2.656   8.665
 5917SOL    HW218210   3.537   2.813   8.629
 5918SOL     OW18211   3.087   2.187   7.897
 5918SOL    HW118212   3.152   2.113   7.886
 5918SOL    HW218213   3.107   2.237   7.981
 5919SOL     OW18214   2.456   2.607   8.100
 5919SOL    HW118215   2.506   2.692   8.081
 5919SOL    HW218216   2.368   2.609   8.052
 5920SOL     OW18217   3.639   2.204   9.090
 5920SOL    HW118218   3.622   2.235   8.996
 5920SOL    HW218219   3.555   2.167   9.128
 5921SOL     OW18220   3.592   2.796   8.965
 5921SOL    HW118221   3.630   2.887   8.980
 5921SOL    HW218222   3.584   2.779   8.866
 5922SOL     OW18223   2.721   3.236   7.464
 5922SOL    HW118224   2.675   3.251   7.552
 5922SOL    HW218225   2.765   3.321   7.434
 5923SOL     OW18226   2.523   3.652   8.401
 5923SOL    HW118227   2.477   3.740   8.388
 5923SOL    HW218228   2.622   3.664   8.394
 5924SOL     OW18229   2.721   2.818   8.309
 5924SOL    HW118230   2.775   2.749   8.357
 5924SOL    HW218231   2.689   2.887   8.375
 5925SOL     OW18232   2.945   2.846   7.535
 5925SOL    HW118233   2.922   2.899   7.453
 5925SOL    HW218234   3.026   2.790   7.516
 5926SOL     OW18235   3.723   3.431   8.299
 5926SOL    HW118236   3.652   3.419   8.229
 5926SOL    HW218237   3.724   3.352   8.359
 5927SOL     OW18238   2.083   3.176   9.292
 5927SOL    HW118239   2.018   3.103   9.271
 5927SOL    HW218240   2.087   3.190   9.390
 5928SOL     OW18241   1.941   3.102   8.101
 5928SOL    HW118242   1.940   3.055   8.189
 5928SOL    HW218243   2.023   3.074   8.050
 5929SOL     OW18244   2.534   3.253   9.072
 5929SOL    HW118245   2.456   3.203   9.110
 5929SOL    HW218246   2.531   3.348   9.103
 5930SOL     OW18247   3.686   2.054   8.675
 5930SOL    HW118248   3.682   1.964   8.719
 5930SOL    HW218249   3.689   2.043   8.576
 5931SOL     OW18250   3.567   3.349   8.552
 5931SOL    HW118251   3.474   3.324   8.525
 5931SOL    HW218252   3.593   3.299   8.634
 5932SOL     OW18253   2.179   2.409   8.728
 5932SOL    HW118254   2.217   2.350   8.800
 5932SOL    HW218255   2.219   2.383   8.640
 5933SOL     OW18256   2.674   3.448   8.135
 5933SOL    HW118257   2.706   3.458   8.041
 5933SOL    HW218258   2.595   3.386   8.137
 5934SOL     OW18259   3.286   2.076   8.560
 5934SOL    HW118260   3.338   2.011   8.615
 5934SOL    HW218261   3.237   2.139   8.621
 5935SOL     OW18262   2.863   1.896   8.602
 5935SOL    HW118263   2.800   1.824   8.571
 5935SOL    HW218264   2.956   1.860   8.602
 5936SOL     OW18265   2.632   3.192   7.749
 5936SOL    HW118266   2.586   3.105   7.766
 5936SOL    HW218267   2.723   3.189   7.790
 5937SOL     OW18268   2.480   3.429   8.732
 5937SOL    HW118269   2.475   3.511   8.789
 5937SOL    HW218270   2.569   3.426   8.687
 5938SOL     OW18271   3.214   1.914   7.616
 5938SOL    HW118272   3.249   1.873   7.532
 5938SOL    HW218273   3.124   1.876   7.636
 5939SOL     OW18274   3.162   2.315   8.139
 5939SOL    HW118275   3.103   2.395   8.143
 5939SOL    HW218276   3.177   2.280   8.232
 5940SOL     OW18277   3.455   2.083   8.330
 5940SOL    HW118278   3.371   2.082   8.384
 5940SOL    HW218279   3.457   2.166   8.274
 5941SOL     OW18280   1.901   2.939   7.748
 5941SOL    HW118281   2.000   2.928   7.739
 5941SOL    HW218282   1.861   2.853   7.780
 5942SOL     OW18283   2.737   3.508   7.785
 5942SOL    HW118284   2.660   3.473   7.731
 5942SOL    HW218285   2.705   3.579   7.847
 5943SOL     OW18286   2.092   2.490   9.423
 5943SOL    HW118287   1.999   2.488   9.460
 5943SOL    HW218288   2.093   2.451   9.331
 5944SOL     OW18289   1.881   2.230   9.957
 5944SOL    HW118290   1.799   2.273   9.996
 5944SOL    HW218291   1.853   2.157   9.894
 5945SOL     OW18292   2.431   3.137  10.475
 5945SOL    HW118293   2.338   3.130  10.438
 5945SOL    HW218294   2.442   3.226  10.519
 5946SOL     OW18295   3.417   3.373  10.013
 5946SOL    HW118296   3.360   3.357  10.094
 5946SOL    HW218297   3.358   3.383   9.933
 5947SOL     OW18298   2.997   2.565  10.027
 5947SOL    HW118299   3.054   2.643  10.002
 5947SOL    HW218300   2.937   2.591  10.103
 5948SOL     OW18301   3.617   2.469   9.541
 5948SOL    HW118302   3.605   2.456   9.442
 5948SOL    HW218303   3.587   2.388   9.590
 5949SOL     OW18304   2.630   3.006  10.333
 5949SOL    HW118305   2.552   3.023  10.393
 5949SOL    HW218306   2.664   3.093  10.297
 5950SOL     OW18307   2.712   2.660  11.133
 5950SOL    HW118308   2.708   2.736  11.198
 5950SOL    HW218309   2.734   2.696  11.042
 5951SOL     OW18310   2.547   2.874   9.975
 5951SOL    HW118311   2.616   2.858  10.045
 5951SOL    HW218312   2.474   2.931  10.013
 5952SOL     OW18313   2.548   3.023  11.113
 5952SOL    HW118314   2.608   3.102  11.127
 5952SOL    HW218315   2.462   3.054  11.072
 5953SOL     OW18316   2.197   3.297  10.371
 5953SOL    HW118317   2.119   3.266  10.318
 5953SOL    HW218318   2.255   3.355  10.314
 5954SOL     OW18319   3.322   3.367  10.649
 5954SOL    HW118320   3.346   3.461  10.675
 5954SOL    HW218321   3.306   3.313  10.731
 5955SOL     OW18322   2.300   2.254  10.809
 5955SOL    HW118323   2.382   2.198  10.818
 5955SOL    HW218324   2.219   2.196  10.813
 5956SOL     OW18325   3.465   2.309  10.047
 5956SOL    HW118326   3.391   2.355   9.997
 5956SOL    HW218327   3.516   2.377  10.100
 5957SOL     OW18328   2.093   3.575   9.793
 5957SOL    HW118329   2.127   3.652   9.847
 5957SOL    HW218330   2.137   3.575   9.703
 5958SOL     OW18331   2.989   3.203  11.000
 5958SOL    HW118332   3.036   3.203  11.088
 5958SOL    HW218333   2.941   3.116  10.989
 5959SOL     OW18334   2.092   3.296   9.848
 5959SOL    HW118335   2.066   3.392   9.848
 5959SOL    HW218336   2.021   3.242   9.893
 5960SOL     OW18337   2.102   2.953  10.196
 5960SOL    HW118338   2.116   2.869  10.248
 5960SOL    HW218339   2.047   3.017  10.251
 5961SOL     OW18340   2.482   3.648  10.749
 5961SOL    HW118341   2.390   3.631  10.784
 5961SOL    HW218342   2.510   3.740  10.775
 5962SOL     OW18343   2.468   2.826   9.433
 5962SOL    HW118344   2.475   2.910   9.379
 5962SOL    HW218345   2.514   2.839   9.521
 5963SOL     OW18346   3.456   1.976  10.790
 5963SOL    HW118347   3.438   2.043  10.718
 5963SOL    HW218348   3.453   2.022  10.879
 5964SOL     OW18349   1.984   2.505   9.873
 5964SOL    HW118350   1.939   2.417   9.890
 5964SOL    HW218351   1.983   2.559   9.957
 5965SOL     OW18352   3.704   3.629   9.669
 5965SOL    HW118353   3.758   3.600   9.749
 5965SOL    HW218354   3.734   3.719   9.640
 5966SOL     OW18355   1.889   3.458   9.427
 5966SOL    HW118356   1.870   3.362   9.448
 5966SOL    HW218357   1.856   3.516   9.502
 5967SOL     OW18358   3.551   2.784   9.922
 5967SOL    HW118359   3.646   2.755   9.930
 5967SOL    HW218360   3.543   2.849   9.847
 5968SOL     OW18361   3.503   2.970   9.742
 5968SOL    HW118362   3.589   2.972   9.690
 5968SOL    HW218363   3.517   3.017   9.830
 5969SOL     OW18364   1.975   2.599  10.907
 5969SOL    HW118365   2.063   2.586  10.952
 5969SOL    HW218366   1.962   2.696  10.885
 5970SOL     OW18367   2.475   3.227  10.036
 5970SOL    HW118368   2.426   3.140  10.045
 5970SOL    HW218369   2.452   3.270   9.949
 5971SOL     OW18370   3.155   3.090  10.733
 5971SOL    HW118371   3.192   3.017  10.675
 5971SOL    HW218372   3.207   3.095  10.818
 5972SOL     OW18373   2.671   1.866   9.812
 5972SOL    HW118374   2.711   1.957   9.803
 5972SOL    HW218375   2.571   1.874   9.818
 5973SOL     OW18376   2.059   2.838  10.574
 5973SOL    HW118377   2.148   2.793  10.560
 5973SOL    HW218378   1.986   2.773  10.555
 5974SOL     OW18379   3.387   2.861   9.500
 5974SOL    HW118380   3.324   2.785   9.513
 5974SOL    HW218381   3.435   2.879   9.586
 5975SOL     OW18382   3.049   3.654  10.926
 5975SOL    HW118383   3.073   3.714  10.850
 5975SOL    HW218384   3.056   3.559  10.896
 5976SOL     OW18385   2.179   2.113  11.111
 5976SOL    HW118386   2.250   2.184  11.117
 5976SOL    HW218387   2.091   2.152  11.139
 5977SOL     OW18388   3.328   3.279  10.263
 5977SOL    HW118389   3.269   3.285  10.343
 5977SOL    HW218390   3.313   3.191  10.217
 5978SOL     OW18391   3.529   3.576   9.882
 5978SOL    HW118392   3.488   3.553   9.794
 5978SOL    HW218393   3.511   3.502   9.947
 5979SOL     OW18394   2.460   2.591   9.580
 5979SOL    HW118395   2.484   2.660   9.512
 5979SOL    HW218396   2.382   2.624   9.634
 5980SOL     OW18397   3.143   2.207  10.254
 5980SOL    HW118398   3.057   2.157  10.241
 5980SOL    HW218399   3.205   2.153  10.310
 5981SOL     OW18400   3.438   3.524   9.617
 5981SOL    HW118401   3.527   3.570   9.620
 5981SOL    HW218402   3.417   3.500   9.522
 5982SOL     OW18403   2.669   2.467  10.775
 5982SOL    HW118404   2.622   2.464  10.864
 5982SOL    HW218405   2.618   2.412  10.709
 5983SOL     OW18406   3.256   2.331  10.984
 5983SOL    HW118407   3.236   2.374  11.072
 5983SOL    HW218408   3.334   2.269  10.993
 5984SOL     OW18409   2.835   2.752  10.882
 5984SOL    HW118410   2.881   2.668  10.853
 5984SOL    HW218411   2.779   2.786  10.807
 5985SOL     OW18412   2.853   2.272  10.552
 5985SOL    HW118413   2.776   2.306  10.606
 5985SOL    HW218414   2.819   2.221  10.473
 5986SOL     OW18415   2.903   2.563   9.739
 5986SOL    HW118416   2.929   2.559   9.835
 5986SOL    HW218417   2.818   2.512   9.725
 5987SOL     OW18418   1.938   2.673  10.099
 5987SOL    HW118419   2.037   2.661  10.108
 5987SOL    HW218420   1.914   2.768  10.120
 5988SOL     OW18421   1.992   3.683  10.881
 5988SOL    HW118422   1.982   3.668  10.980
 5988SOL    HW218423   1.906   3.719  10.845
 5989SOL     OW18424   2.727   2.210   9.505
 5989SOL    HW118425   2.786   2.273   9.456
 5989SOL    HW218426   2.746   2.116   9.476
 5990SOL     OW18427   3.581   2.447  11.141
 5990SOL    HW118428   3.555   2.536  11.105
 5990SOL    HW218429   3.579   2.379  11.068
 5991SOL     OW18430   3.224   3.006   9.855
 5991SOL    HW118431   3.307   2.977   9.807
 5991SOL    HW218432   3.175   3.073   9.799
 5992SOL     OW18433   2.412   2.058  10.195
 5992SOL    HW118434   2.407   2.053  10.295
 5992SOL    HW218435   2.414   2.154  10.166
 5993SOL     OW18436   2.870   3.318   9.787
 5993SOL    HW118437   2.824   3.390   9.735
 5993SOL    HW218438   2.866   3.338   9.885
 5994SOL     OW18439   2.213   3.663  10.163
 5994SOL    HW118440   2.263   3.577  10.169
 5994SOL    HW218441   2.278   3.740  10.160
 5995SOL     OW18442   3.657   2.928  10.183
 5995SOL    HW118443   3.595   2.913  10.107
 5995SOL    HW218444   3.605   2.939  10.268
 5996SOL     OW18445   3.089   3.412  10.816
 5996SOL    HW118446   3.095   3.335  10.880
 5996SOL    HW218447   3.037   3.386  10.736
 5997SOL     OW18448   2.183   2.805   9.552
 5997SOL    HW118449   2.265   2.844   9.510
 5997SOL    HW218450   2.156   2.723   9.503
 5998SOL     OW18451   3.320   2.597  10.038
 5998SOL    HW118452   3.315   2.532  10.113
 5998SOL    HW218453   3.400   2.656  10.051
 5999SOL     OW18454   2.323   3.128  11.037
 5999SOL    HW118455   2.273   3.129  10.951
 5999SOL    HW218456   2.260   3.110  11.113
 6000SOL     OW18457   2.973   3.638   9.547
 6000SOL    HW118458   2.913   3.576   9.597
 6000SOL    HW218459   3.004   3.594   9.462
 6001SOL     OW18460   3.494   3.239   9.391
 6001SOL    HW118461   3.462   3.333   9.381
 6001SOL    HW218462   3.418   3.176   9.379
 6002SOL     OW18463   2.326   3.605   9.633
 6002SOL    HW118464   2.359   3.644   9.719
 6002SOL    HW218465   2.402   3.598   9.568
 6003SOL     OW18466   3.262   1.969   9.736
 6003SOL    HW118467   3.238   1.932   9.646
 6003SOL    HW218468   3.361   1.985   9.740
 6004SOL     OW18469   2.111   3.647  10.551
 6004SOL    HW118470   2.168   3.582  10.601
 6004SOL    HW218471   2.095   3.614  10.458
 6005SOL     OW18472   2.802   3.560  10.214
 6005SOL    HW118473   2.882   3.503  10.235
 6005SOL    HW218474   2.753   3.520  10.137
 6006SOL     OW18475   2.244   2.562   9.790
 6006SOL    HW118476   2.289   2.472   9.787
 6006SOL    HW218477   2.150   2.551   9.823
 6007SOL     OW18478   3.409   2.084  11.039
 6007SOL    HW118479   3.404   2.121  11.131
 6007SOL    HW218480   3.337   2.015  11.027
 6008SOL     OW18481   2.476   1.984   9.427
 6008SOL    HW118482   2.574   1.962   9.434
 6008SOL    HW218483   2.445   1.967   9.334
 6009SOL     OW18484   2.643   2.126  11.059
 6009SOL    HW118485   2.710   2.065  11.102
 6009SOL    HW218486   2.570   2.145  11.124
 6010SOL     OW18487   2.750   3.376  10.505
 6010SOL    HW118488   2.727   3.351  10.411
 6010SOL    HW218489   2.811   3.307  10.544
 6011SOL     OW18490   3.213   2.452  10.743
 6011SOL    HW118491   3.241   2.409  10.828
 6011SOL    HW218492   3.238   2.548  10.744
 6012SOL     OW18493   2.665   3.264  10.234
 6012SOL    HW118494   2.755   3.278  10.192
 6012SOL    HW218495   2.594   3.266  10.163
 6013SOL     OW18496   2.784   2.365  10.209
 6013SOL    HW118497   2.759   2.356  10.113
 6013SOL    HW218498   2.832   2.283  10.240
 6014SOL     OW18499   2.401   1.926   9.822
 6014SOL    HW118500   2.320   1.927   9.880
 6014SOL    HW218501   2.404   2.009   9.767
 6015SOL     OW18502   3.296   3.050   9.351
 6015SOL    HW118503   3.328   2.974   9.408
 6015SOL    HW218504   3.204   3.077   9.381
 6016SOL     OW18505   2.797   2.098   9.790
 6016SOL    HW118506   2.749   2.139   9.712
 6016SOL    HW218507   2.896   2.096   9.771
 6017SOL     OW18508   2.938   2.545  10.774
 6017SOL    HW118509   2.858   2.484  10.777
 6017SOL    HW218510   3.019   2.492  10.750
 6018SOL     OW18511   3.089   3.432  10.103
 6018SOL    HW118512   3.110   3.506  10.038
 6018SOL    HW218513   3.157   3.432  10.176
 6019SOL     OW18514   2.321   3.014  10.051
 6019SOL    HW118515   2.250   2.987  10.116
 6019SOL    HW218516   2.295   2.986   9.958
 6020SOL     OW18517   3.133   3.659   9.901
 6020SOL    HW118518   3.177   3.723   9.837
 6020SOL    HW218519   3.083   3.711   9.971
 6021SOL     OW18520   2.894   2.411   9.326
 6021SOL    HW118521   2.853   2.493   9.287
 6021SOL    HW218522   2.958   2.437   9.399
 6022SOL     OW18523   1.940   2.418  10.696
 6022SOL    HW118524   2.032   2.417  10.655
 6022SOL    HW218525   1.934   2.492  10.763
 6023SOL     OW18526   2.423   2.084  10.457
 6023SOL    HW118527   2.461   2.000  10.494
 6023SOL    HW218528   2.335   2.103  10.501
 6024SOL     OW18529   2.728   2.316   9.952
 6024SOL    HW118530   2.696   2.388   9.890
 6024SOL    HW218531   2.752   2.235   9.899
 6025SOL     OW18532   2.879   1.901  10.063
 6025SOL    HW118533   2.807   1.906   9.994
 6025SOL    HW218534   2.855   1.832  10.132
 6026SOL     OW18535   3.291   3.035  10.177
 6026SOL    HW118536   3.236   2.951  10.170
 6026SOL    HW218537   3.317   3.064  10.085
 6027SOL     OW18538   3.328   2.452  10.302
 6027SOL    HW118539   3.298   2.357  10.309
 6027SOL    HW218540   3.401   2.468  10.368
 6028SOL     OW18541   3.719   2.695   9.687
 6028SOL    HW118542   3.761   2.631   9.751
 6028SOL    HW218543   3.681   2.644   9.609
 6029SOL     OW18544   2.350   3.247   9.484
 6029SOL    HW118545   2.263   3.232   9.531
 6029SOL    HW218546   2.333   3.273   9.389
 6030SOL     OW18547   3.526   3.142   9.967
 6030SOL    HW118548   3.625   3.150   9.981
 6030SOL    HW218549   3.481   3.226   9.998
 6031SOL     OW18550   3.252   2.437   9.388
 6031SOL    HW118551   3.198   2.416   9.469
 6031SOL    HW218552   3.343   2.396   9.397
 6032SOL     OW18553   2.389   2.118   9.638
 6032SOL    HW118554   2.416   2.059   9.563
 6032SOL    HW218555   2.389   2.213   9.607
 6033SOL     OW18556   3.616   3.085  10.898
 6033SOL    HW118557   3.707   3.046  10.885
 6033SOL    HW218558   3.624   3.181  10.922
 6034SOL     OW18559   2.926   3.209  10.650
 6034SOL    HW118560   2.846   3.186  10.705
 6034SOL    HW218561   3.009   3.183  10.699
 6035SOL     OW18562   3.454   3.491  10.935
 6035SOL    HW118563   3.481   3.525  10.845
 6035SOL    HW218564   3.533   3.453  10.981
 6036SOL     OW18565   2.973   3.057  10.410
 6036SOL    HW118566   2.933   3.101  10.491
 6036SOL    HW218567   2.932   3.094  10.327
 6037SOL     OW18568   3.500   2.961  10.389
 6037SOL    HW118569   3.505   3.042  10.448
 6037SOL    HW218570   3.414   2.963  10.338
 6038SOL     OW18571   2.777   1.951  10.712
 6038SOL    HW118572   2.802   1.931  10.617
 6038SOL    HW218573   2.849   2.007  10.754
 6039SOL     OW18574   2.842   2.978  11.029
 6039SOL    HW118575   2.743   2.984  11.039
 6039SOL    HW218576   2.865   2.898  10.973
 6040SOL     OW18577   2.567   2.912   9.678
 6040SOL    HW118578   2.553   2.919   9.777
 6040SOL    HW218579   2.651   2.861   9.660
 6041SOL     OW18580   2.272   2.675  10.561
 6041SOL    HW118581   2.358   2.687  10.611
 6041SOL    HW218582   2.230   2.588  10.588
 6042SOL     OW18583   3.136   2.248  10.572
 6042SOL    HW118584   3.157   2.322  10.636
 6042SOL    HW218585   3.047   2.265  10.529
 6043SOL     OW18586   1.926   3.426  10.641
 6043SOL    HW118587   1.880   3.508  10.607
 6043SOL    HW218588   2.024   3.445  10.650
 6044SOL     OW18589   2.229   2.962   9.811
 6044SOL    HW118590   2.222   3.045   9.755
 6044SOL    HW218591   2.233   2.882   9.751
 6045SOL     OW18592   2.428   2.399  10.175
 6045SOL    HW118593   2.440   2.465  10.101
 6045SOL    HW218594   2.474   2.433  10.258
 6046SOL     OW18595   3.114   3.210   9.698
 6046SOL    HW118596   3.164   3.287   9.738
 6046SOL    HW218597   3.019   3.212   9.730
 6047SOL     OW18598   3.134   3.307  10.452
 6047SOL    HW118599   3.181   3.320  10.539
 6047SOL    HW218600   3.068   3.233  10.461
 6048SOL     OW18601   3.444   2.501   9.782
 6048SOL    HW118602   3.413   2.562   9.855
 6048SOL    HW218603   3.494   2.553   9.713
 6049SOL     OW18604   2.216   3.372  10.639
 6049SOL    HW118605   2.195   3.328  10.552
 6049SOL    HW218606   2.313   3.398  10.642
 6050SOL     OW18607   2.264   2.613  10.908
 6050SOL    HW118608   2.332   2.668  10.861
 6050SOL    HW218609   2.304   2.525  10.935
 6051SOL     OW18610   3.449   2.641  10.980
 6051SOL    HW118611   3.357   2.679  10.975
 6051SOL    HW218612   3.509   2.688  10.915
 6052SOL     OW18613   2.875   1.967  11.080
 6052SOL    HW118614   2.881   2.052  11.028
 6052SOL    HW218615   2.907   1.891  11.023
 6053SOL     OW18616   2.366   1.912  11.050
 6053SOL    HW118617   2.324   1.855  10.980
 6053SOL    HW218618   2.300   1.981  11.082
 6054SOL     OW18619   2.435   2.732  10.339
 6054SOL    HW118620   2.479   2.821  10.330
 6054SOL    HW218621   2.372   2.732  10.416
 6055SOL     OW18622   3.222   2.724  10.355
 6055SOL    HW118623   3.147   2.724  10.289
 6055SOL    HW218624   3.259   2.632  10.364
 6056SOL     OW18625   3.071   2.387   9.585
 6056SOL    HW118626   3.084   2.303   9.639
 6056SOL    HW218627   3.042   2.461   9.645
 6057SOL     OW18628   1.899   3.172  10.592
 6057SOL    HW118629   1.952   3.123  10.660
 6057SOL    HW218630   1.921   3.270  10.597
 6058SOL     OW18631   2.594   2.496  10.374
 6058SOL    HW118632   2.653   2.470  10.298
 6058SOL    HW218633   2.566   2.592  10.363
 6059SOL     OW18634   3.590   2.797  11.164
 6059SOL    HW118635   3.544   2.790  11.075
 6059SOL    HW218636   3.528   2.841  11.230
 6060SOL     OW18637   3.484   2.229   9.684
 6060SOL    HW118638   3.486   2.153   9.748
 6060SOL    HW218639   3.436   2.306   9.724
 6061SOL     OW18640   2.885   2.628  10.276
 6061SOL    HW118641   2.900   2.649  10.372
 6061SOL    HW218642   2.855   2.533  10.267
 6062SOL     OW18643   2.842   3.435  11.010
 6062SOL    HW118644   2.822   3.479  10.922
 6062SOL    HW218645   2.881   3.344  10.994
 6063SOL     OW18646   3.721   3.380  10.915
 6063SOL    HW118647   3.735   3.407  10.820
 6063SOL    HW218648   3.804   3.402  10.968
 6064SOL     OW18649   2.212   2.760  11.114
 6064SOL    HW118650   2.288   2.804  11.162
 6064SOL    HW218651   2.247   2.713  11.032
 6065SOL     OW18652   3.402   2.136   9.435
 6065SOL    HW118653   3.341   2.061   9.458
 6065SOL    HW218654   3.424   2.188   9.518
 6066SOL     OW18655   3.165   2.700   9.352
 6066SOL    HW118656   3.199   2.607   9.367
 6066SOL    HW218657   3.183   2.727   9.257
 6067SOL     OW18658   2.930   3.195  10.159
 6067SOL    HW118659   2.937   3.111  10.104
 6067SOL    HW218660   2.992   3.264  10.123
 6068SOL     OW18661   2.181   2.672  10.259
 6068SOL    HW118662   2.274   2.708  10.264
 6068SOL    HW218663   2.175   2.587  10.311
 6069SOL     OW18664   2.201   2.371  10.316
 6069SOL    HW118665   2.149   2.288  10.299
 6069SOL    HW218666   2.278   2.376  10.252
 6070SOL     OW18667   3.000   2.242  10.988
 6070SOL    HW118668   2.955   2.305  11.052
 6070SOL    HW218669   3.093   2.273  10.971
 6071SOL     OW18670   3.022   2.069  10.787
 6071SOL    HW118671   3.022   2.133  10.864
 6071SOL    HW218672   3.050   2.117  10.704
 6072SOL     OW18673   1.870   3.188   9.510
 6072SOL    HW118674   1.777   3.209   9.479
 6072SOL    HW218675   1.880   3.089   9.523
 6073SOL     OW18676   1.950   3.663  10.237
 6073SOL    HW118677   1.908   3.577  10.210
 6073SOL    HW218678   2.044   3.666  10.203
 6074SOL     OW18679   2.366   3.430  10.220
 6074SOL    HW118680   2.432   3.504  10.229
 6074SOL    HW218681   2.410   3.351  10.178
 6075SOL     OW18682   2.864   2.658  10.548
 6075SOL    HW118683   2.905   2.626  10.634
 6075SOL    HW218684   2.768   2.631  10.545
 6076SOL     OW18685   1.902   2.406  10.424
 6076SOL    HW118686   1.987   2.373  10.383
 6076SOL    HW218687   1.915   2.421  10.522
 6077SOL     OW18688   2.051   2.382  11.032
 6077SOL    HW118689   2.110   2.342  10.962
 6077SOL    HW218690   1.993   2.453  10.991
 6078SOL     OW18691   3.231   2.812  10.970
 6078SOL    HW118692   3.270   2.901  10.990
 6078SOL    HW218693   3.241   2.792  10.873
 6079SOL     OW18694   2.677   2.434   9.635
 6079SOL    HW118695   2.684   2.345   9.589
 6079SOL    HW218696   2.583   2.468   9.627
 6080SOL     OW18697   3.519   2.466  10.516
 6080SOL    HW118698   3.481   2.397  10.578
 6080SOL    HW218699   3.601   2.430  10.472
 6081SOL     OW18700   2.114   3.426  11.054
 6081SOL    HW118701   2.084   3.483  11.130
 6081SOL    HW218702   2.107   3.329  11.080
 6082SOL     OW18703   2.533   2.326  10.579
 6082SOL    HW118704   2.499   2.237  10.549
 6082SOL    HW218705   2.559   2.380  10.499
 6083SOL     OW18706   2.792   3.540  10.775
 6083SOL    HW118707   2.768   3.522  10.680
 6083SOL    HW218708   2.822   3.634  10.785
 6084SOL     OW18709   2.335   2.362   9.501
 6084SOL    HW118710   2.396   2.442   9.505
 6084SOL    HW218711   2.240   2.393   9.508
 6085SOL     OW18712   2.021   2.999  10.776
 6085SOL    HW118713   2.043   2.938  10.852
 6085SOL    HW218714   2.031   2.950  10.690
 6086SOL     OW18715   3.209   2.921  10.544
 6086SOL    HW118716   3.233   2.858  10.470
 6086SOL    HW218717   3.119   2.961  10.526
 6087SOL     OW18718   3.164   2.717   9.619
 6087SOL    HW118719   3.078   2.686   9.661
 6087SOL    HW218720   3.160   2.703   9.520
 6088SOL     OW18721   3.621   3.609  10.464
 6088SOL    HW118722   3.682   3.639  10.391
 6088SOL    HW218723   3.583   3.520  10.442
 6089SOL     OW18724   3.114   3.593  10.438
 6089SOL    HW118725   3.198   3.598  10.384
 6089SOL    HW218726   3.091   3.497  10.456
 6090SOL     OW18727   1.945   3.120  10.332
 6090SOL    HW118728   1.940   3.119  10.432
 6090SOL    HW218729   1.862   3.079  10.294
 6091SOL     OW18730   2.550   3.524  11.026
 6091SOL    HW118731   2.494   3.605  11.035
 6091SOL    HW218732   2.602   3.528  10.940
 6092SOL     OW18733   3.588   1.997   9.833
 6092SOL    HW118734   3.661   1.980   9.766
 6092SOL    HW218735   3.557   1.910   9.871
 6093SOL     OW18736   3.250   3.435   9.787
 6093SOL    HW118737   3.317   3.447   9.713
 6093SOL    HW218738   3.210   3.524   9.810
 6094SOL     OW18739   1.992   3.656  11.161
 6094SOL    HW118740   1.951   3.582  11.214
 6094SOL    HW218741   2.056   3.707  11.219
 6095SOL     OW18742   3.142   2.789   9.982
 6095SOL    HW118743   3.202   2.708   9.984
 6095SOL    HW218744   3.182   2.858   9.922
 6096SOL     OW18745   2.692   3.135  10.732
 6096SOL    HW118746   2.687   3.168  10.827
 6096SOL    HW218747   2.606   3.154  10.686
 6097SOL     OW18748   2.534   3.478   9.464
 6097SOL    HW118749   2.543   3.488   9.365
 6097SOL    HW218750   2.494   3.389   9.485
 6098SOL     OW18751   3.512   3.582  10.704
 6098SOL    HW118752   3.565   3.592  10.620
 6098SOL    HW218753   3.485   3.672  10.738
 6099SOL     OW18754   3.703   2.037  10.273
 6099SOL    HW118755   3.742   1.952  10.237
 6099SOL    HW218756   3.605   2.039  10.254
 6100SOL     OW18757   3.056   3.474   9.341
 6100SOL    HW118758   3.062   3.381   9.378
 6100SOL    HW218759   2.997   3.474   9.261
 6101SOL     OW18760   2.684   2.864  10.682
 6101SOL    HW118761   2.724   2.863  10.590
 6101SOL    HW218762   2.694   2.956  10.722
 6102SOL     OW18763   2.778   2.772   9.601
 6102SOL    HW118764   2.841   2.810   9.533
 6102SOL    HW218765   2.818   2.689   9.640
 6103SOL     OW18766   3.366   3.469   9.354
 6103SOL    HW118767   3.274   3.506   9.361
 6103SOL    HW218768   3.404   3.489   9.264
 6104SOL     OW18769   2.234   3.150  10.800
 6104SOL    HW118770   2.221   3.243  10.766
 6104SOL    HW218771   2.150   3.098  10.787
 6105SOL     OW18772   3.476   3.154  10.599
 6105SOL    HW118773   3.536   3.157  10.679
 6105SOL    HW218774   3.401   3.218  10.612
 6106SOL     OW18775   2.901   2.960  10.006
 6106SOL    HW118776   2.831   2.913  10.060
 6106SOL    HW218777   2.960   2.892   9.963
 6107SOL     OW18778   2.876   2.098  10.281
 6107SOL    HW118779   2.868   2.062  10.188
 6107SOL    HW218780   2.874   2.022  10.346
 6108SOL     OW18781   2.452   3.349   9.801
 6108SOL    HW118782   2.494   3.291   9.731
 6108SOL    HW218783   2.408   3.428   9.757
 6109SOL     OW18784   3.571   2.247  10.691
 6109SOL    HW118785   3.644   2.316  10.695
 6109SOL    HW218786   3.599   2.172  10.632
 6110SOL     OW18787   2.117   3.210   9.600
 6110SOL    HW118788   2.021   3.211   9.573
 6110SOL    HW218789   2.129   3.263   9.684
 6111SOL     OW18790   1.967   2.875  11.036
 6111SOL    HW118791   1.890   2.842  11.090
 6111SOL    HW218792   2.052   2.845  11.078
 6112SOL     OW18793   2.534   2.065  10.799
 6112SOL    HW118794   2.624   2.049  10.759
 6112SOL    HW218795   2.542   2.070  10.898
 6113SOL     OW18796   3.302   2.718  10.708
 6113SOL    HW118797   3.245   2.770  10.645
 6113SOL    HW218798   3.398   2.730  10.684
 6114SOL     OW18799   3.045   3.197   9.429
 6114SOL    HW118800   2.946   3.186   9.431
 6114SOL    HW218801   3.079   3.212   9.522
 6115SOL     OW18802   2.475   2.704  10.741
 6115SOL    HW118803   2.531   2.785  10.724
 6115SOL    HW218804   2.534   2.624  10.744
 6116SOL     OW18805   3.355   3.629  10.269
 6116SOL    HW118806   3.388   3.693  10.200
 6116SOL    HW218807   3.421   3.623  10.344
 6117SOL     OW18808   2.578   2.427  11.018
 6117SOL    HW118809   2.597   2.492  11.092
 6117SOL    HW218810   2.638   2.347  11.027
 6118SOL     OW18811   3.312   3.082  10.943
 6118SOL    HW118812   3.303   3.072  11.042
 6118SOL    HW218813   3.408   3.075  10.917
 6119SOL     OW18814   2.252   3.603  10.870
 6119SOL    HW118815   2.161   3.644  10.868
 6119SOL    HW218816   2.245   3.509  10.902
 6120SOL     OW18817   3.536   2.745  10.564
 6120SOL    HW118818   3.509   2.656  10.527
 6120SOL    HW218819   3.537   2.813  10.491
 6121SOL     OW18820   3.087   2.187   9.759
 6121SOL    HW118821   3.152   2.113   9.748
 6121SOL    HW218822   3.107   2.237   9.843
 6122SOL     OW18823   2.456   2.607   9.962
 6122SOL    HW118824   2.506   2.692   9.943
 6122SOL    HW218825   2.368   2.609   9.914
 6123SOL     OW18826   3.639   2.204  10.952
 6123SOL    HW118827   3.622   2.235  10.858
 6123SOL    HW218828   3.555   2.167  10.990
 6124SOL     OW18829   3.592   2.796  10.827
 6124SOL    HW118830   3.630   2.887  10.842
 6124SOL    HW218831   3.584   2.779  10.728
 6125SOL     OW18832   2.721   3.236   9.326
 6125SOL    HW118833   2.675   3.251   9.414
 6125SOL    HW218834   2.765   3.321   9.296
 6126SOL     OW18835   2.523   3.652  10.263
 6126SOL    HW118836   2.477   3.740  10.250
 6126SOL    HW218837   2.622   3.664  10.256
 6127SOL     OW18838   2.721   2.818  10.171
 6127SOL    HW118839   2.775   2.749  10.219
 6127SOL    HW218840   2.689   2.887  10.237
 6128SOL     OW18841   2.945   2.846   9.397
 6128SOL    HW118842   2.922   2.899   9.315
 6128SOL    HW218843   3.026   2.790   9.378
 6129SOL     OW18844   3.723   3.431  10.161
 6129SOL    HW118845   3.652   3.419  10.091
 6129SOL    HW218846   3.724   3.352  10.221
 6130SOL     OW18847   2.083   3.176  11.154
 6130SOL    HW118848   2.018   3.103  11.133
 6130SOL    HW218849   2.087   3.190  11.252
 6131SOL     OW18850   1.941   3.102   9.963
 6131SOL    HW118851   1.940   3.055  10.051
 6131SOL    HW218852   2.023   3.074   9.912
 6132SOL     OW18853   2.534   3.253  10.934
 6132SOL    HW118854   2.456   3.203  10.972
 6132SOL    HW218855   2.531   3.348  10.965
 6133SOL     OW18856   3.686   2.054  10.537
 6133SOL    HW118857   3.682   1.964  10.581
 6133SOL    HW218858   3.689   2.043  10.438
 6134SOL     OW18859   2.290   2.286   9.830
 6134SOL    HW118860   2.320   2.214   9.768
 6134SOL    HW218861   2.251   2.246   9.913
 6135SOL     OW18862   3.567   3.349  10.414
 6135SOL    HW118863   3.474   3.324  10.387
 6135SOL    HW218864   3.593   3.299  10.496
 6136SOL     OW18865   2.179   2.409  10.590
 6136SOL    HW118866   2.217   2.350  10.662
 6136SOL    HW218867   2.219   2.383  10.502
 6137SOL     OW18868   2.674   3.448   9.997
 6137SOL    HW118869   2.706   3.458   9.903
 6137SOL    HW218870   2.595   3.386   9.999
 6138SOL     OW18871   3.286   2.076  10.422
 6138SOL    HW118872   3.338   2.011  10.477
 6138SOL    HW218873   3.237   2.139  10.483
 6139SOL     OW18874   2.863   1.896  10.464
 6139SOL    HW118875   2.800   1.824  10.433
 6139SOL    HW218876   2.956   1.860  10.464
 6140SOL     OW18877   2.632   3.192   9.611
 6140SOL    HW118878   2.586   3.105   9.628
 6140SOL    HW218879   2.723   3.189   9.652
 6141SOL     OW18880   2.480   3.429  10.594
 6141SOL    HW118881   2.475   3.511  10.651
 6141SOL    HW218882   2.569   3.426  10.549
 6142SOL     OW18883   3.214   1.914   9.478
 6142SOL    HW118884   3.249   1.873   9.394
 6142SOL    HW218885   3.124   1.876   9.498
 6143SOL     OW18886   3.162   2.315  10.001
 6143SOL    HW118887   3.103   2.395  10.005
 6143SOL    HW218888   3.177   2.280  10.094
 6144SOL     OW18889   3.455   2.083  10.192
 6144SOL    HW118890   3.371   2.082  10.246
 6144SOL    HW218891   3.457   2.166  10.136
 6145SOL     OW18892   1.901   2.939   9.610
 6145SOL    HW118893   2.000   2.928   9.601
 6145SOL    HW218894   1.861   2.853   9.642
 6146SOL     OW18895   2.737   3.508   9.647
 6146SOL    HW118896   2.660   3.473   9.593
 6146SOL    HW218897   2.705   3.579   9.709
 6147SOL     OW18898   2.092   2.490  11.285
 6147SOL    HW118899   1.999   2.488  11.322
 6147SOL    HW218900   2.093   2.451  11.193
 6148SOL     OW18901   1.881   2.230  11.819
 6148SOL    HW118902   1.799   2.273  11.858
 6148SOL    HW218903   1.853   2.157  11.756
 6149SOL     OW18904   2.431   3.137  12.337
 6149SOL    HW118905   2.338   3.130  12.300
 6149SOL    HW218906   2.442   3.226  12.381
 6150SOL     OW18907   3.417   3.373  11.875
 6150SOL    HW118908   3.360   3.357  11.956
 6150SOL    HW218909   3.358   3.383  11.795
 6151SOL     OW18910   2.997   2.565  11.889
 6151SOL    HW118911   3.054   2.643  11.864
 6151SOL    HW218912   2.937   2.591  11.965
 6152SOL     OW18913   3.617   2.469  11.403
 6152SOL    HW118914   3.605   2.456  11.304
 6152SOL    HW218915   3.587   2.388  11.452
 6153SOL     OW18916   2.630   3.006  12.195
 6153SOL    HW118917   2.552   3.023  12.255
 6153SOL    HW218918   2.664   3.093  12.159
 6154SOL     OW18919   2.712   2.660  12.995
 6154SOL    HW118920   2.708   2.736  13.060
 6154SOL    HW218921   2.734   2.696  12.904
 6155SOL     OW18922   2.547   2.874  11.837
 6155SOL    HW118923   2.616   2.858  11.907
 6155SOL    HW218924   2.474   2.931  11.875
 6156SOL     OW18925   2.548   3.023  12.975
 6156SOL    HW118926   2.608   3.102  12.989
 6156SOL    HW218927   2.462   3.054  12.934
 6157SOL     OW18928   2.197   3.297  12.233
 6157SOL    HW118929   2.119   3.266  12.180
 6157SOL    HW218930   2.255   3.355  12.176
 6158SOL     OW18931   3.322   3.367  12.511
 6158SOL    HW118932   3.346   3.461  12.537
 6158SOL    HW218933   3.306   3.313  12.593
 6159SOL     OW18934   2.300   2.254  12.671
 6159SOL    HW118935   2.382   2.198  12.680
 6159SOL    HW218936   2.219   2.196  12.675
 6160SOL     OW18937   3.465   2.309  11.909
 6160SOL    HW118938   3.391   2.355  11.859
 6160SOL    HW218939   3.516   2.377  11.962
 6161SOL     OW18940   2.093   3.575  11.655
 6161SOL    HW118941   2.127   3.652  11.709
 6161SOL    HW218942   2.137   3.575  11.565
 6162SOL     OW18943   2.989   3.203  12.862
 6162SOL    HW118944   3.036   3.203  12.950
 6162SOL    HW218945   2.941   3.116  12.851
 6163SOL     OW18946   2.092   3.296  11.710
 6163SOL    HW118947   2.066   3.392  11.710
 6163SOL    HW218948   2.021   3.242  11.755
 6164SOL     OW18949   2.102   2.953  12.058
 6164SOL    HW118950   2.116   2.869  12.110
 6164SOL    HW218951   2.047   3.017  12.113
 6165SOL     OW18952   2.482   3.648  12.611
 6165SOL    HW118953   2.390   3.631  12.646
 6165SOL    HW218954   2.510   3.740  12.637
 6166SOL     OW18955   2.468   2.826  11.295
 6166SOL    HW118956   2.475   2.910  11.241
 6166SOL    HW218957   2.514   2.839  11.383
 6167SOL     OW18958   3.456   1.976  12.652
 6167SOL    HW118959   3.438   2.043  12.580
 6167SOL    HW218960   3.453   2.022  12.741
 6168SOL     OW18961   1.984   2.505  11.735
 6168SOL    HW118962   1.939   2.417  11.752
 6168SOL    HW218963   1.983   2.559  11.819
 6169SOL     OW18964   3.704   3.629  11.531
 6169SOL    HW118965   3.758   3.600  11.611
 6169SOL    HW218966   3.734   3.719  11.502
 6170SOL     OW18967   1.889   3.458  11.289
 6170SOL    HW118968   1.870   3.362  11.310
 6170SOL    HW218969   1.856   3.516  11.364
 6171SOL     OW18970   3.551   2.784  11.784
 6171SOL    HW118971   3.646   2.755  11.792
 6171SOL    HW218972   3.543   2.849  11.709
 6172SOL     OW18973   3.503   2.970  11.604
 6172SOL    HW118974   3.589   2.972  11.552
 6172SOL    HW218975   3.517   3.017  11.692
 6173SOL     OW18976   1.975   2.599  12.769
 6173SOL    HW118977   2.063   2.586  12.814
 6173SOL    HW218978   1.962   2.696  12.747
 6174SOL     OW18979   2.475   3.227  11.898
 6174SOL    HW118980   2.426   3.140  11.907
 6174SOL    HW218981   2.452   3.270  11.811
 6175SOL     OW18982   3.155   3.090  12.595
 6175SOL    HW118983   3.192   3.017  12.537
 6175SOL    HW218984   3.207   3.095  12.680
 6176SOL     OW18985   2.671   1.866  11.674
 6176SOL    HW118986   2.711   1.957  11.665
 6176SOL    HW218987   2.571   1.874  11.680
 6177SOL     OW18988   2.059   2.838  12.436
 6177SOL    HW118989   2.148   2.793  12.422
 6177SOL    HW218990   1.986   2.773  12.417
 6178SOL     OW18991   3.387   2.861  11.362
 6178SOL    HW118992   3.324   2.785  11.375
 6178SOL    HW218993   3.435   2.879  11.448
 6179SOL     OW18994   3.049   3.654  12.788
 6179SOL    HW118995   3.073   3.714  12.712
 6179SOL    HW218996   3.056   3.559  12.758
 6180SOL     OW18997   2.179   2.113  12.973
 6180SOL    HW118998   2.250   2.184  12.979
 6180SOL    HW218999   2.091   2.152  13.001
 6181SOL     OW19000   3.328   3.279  12.125
 6181SOL    HW119001   3.269   3.285  12.205
 6181SOL    HW219002   3.313   3.191  12.079
 6182SOL     OW19003   3.529   3.576  11.744
 6182SOL    HW119004   3.488   3.553  11.656
 6182SOL    HW219005   3.511   3.502  11.809
 6183SOL     OW19006   2.460   2.591  11.442
 6183SOL    HW119007   2.484   2.660  11.374
 6183SOL    HW219008   2.382   2.624  11.496
 6184SOL     OW19009   3.143   2.207  12.116
 6184SOL    HW119010   3.057   2.157  12.103
 6184SOL    HW219011   3.205   2.153  12.172
 6185SOL     OW19012   3.438   3.524  11.479
 6185SOL    HW119013   3.527   3.570  11.482
 6185SOL    HW219014   3.417   3.500  11.384
 6186SOL     OW19015   2.669   2.467  12.637
 6186SOL    HW119016   2.622   2.464  12.726
 6186SOL    HW219017   2.618   2.412  12.571
 6187SOL     OW19018   3.256   2.331  12.846
 6187SOL    HW119019   3.236   2.374  12.934
 6187SOL    HW219020   3.334   2.269  12.855
 6188SOL     OW19021   2.835   2.752  12.744
 6188SOL    HW119022   2.881   2.668  12.715
 6188SOL    HW219023   2.779   2.786  12.669
 6189SOL     OW19024   2.853   2.272  12.414
 6189SOL    HW119025   2.776   2.306  12.468
 6189SOL    HW219026   2.819   2.221  12.335
 6190SOL     OW19027   2.903   2.563  11.601
 6190SOL    HW119028   2.929   2.559  11.697
 6190SOL    HW219029   2.818   2.512  11.587
 6191SOL     OW19030   1.938   2.673  11.961
 6191SOL    HW119031   2.037   2.661  11.970
 6191SOL    HW219032   1.914   2.768  11.982
 6192SOL     OW19033   1.992   3.683  12.743
 6192SOL    HW119034   1.982   3.668  12.842
 6192SOL    HW219035   1.906   3.719  12.707
 6193SOL     OW19036   2.727   2.210  11.367
 6193SOL    HW119037   2.786   2.273  11.318
 6193SOL    HW219038   2.746   2.116  11.338
 6194SOL     OW19039   3.581   2.447  13.003
 6194SOL    HW119040   3.555   2.536  12.967
 6194SOL    HW219041   3.579   2.379  12.930
 6195SOL     OW19042   3.224   3.006  11.717
 6195SOL    HW119043   3.307   2.977  11.669
 6195SOL    HW219044   3.175   3.073  11.661
 6196SOL     OW19045   2.412   2.058  12.057
 6196SOL    HW119046   2.407   2.053  12.157
 6196SOL    HW219047   2.414   2.154  12.028
 6197SOL     OW19048   2.870   3.318  11.649
 6197SOL    HW119049   2.824   3.390  11.597
 6197SOL    HW219050   2.866   3.338  11.747
 6198SOL     OW19051   2.213   3.663  12.025
 6198SOL    HW119052   2.263   3.577  12.031
 6198SOL    HW219053   2.278   3.740  12.022
 6199SOL     OW19054   3.657   2.928  12.045
 6199SOL    HW119055   3.595   2.913  11.969
 6199SOL    HW219056   3.605   2.939  12.130
 6200SOL     OW19057   3.089   3.412  12.678
 6200SOL    HW119058   3.095   3.335  12.742
 6200SOL    HW219059   3.037   3.386  12.598
 6201SOL     OW19060   2.183   2.805  11.414
 6201SOL    HW119061   2.265   2.844  11.372
 6201SOL    HW219062   2.156   2.723  11.365
 6202SOL     OW19063   3.320   2.597  11.900
 6202SOL    HW119064   3.315   2.532  11.975
 6202SOL    HW219065   3.400   2.656  11.913
 6203SOL     OW19066   2.323   3.128  12.899
 6203SOL    HW119067   2.273   3.129  12.813
 6203SOL    HW219068   2.260   3.110  12.975
 6204SOL     OW19069   2.973   3.638  11.409
 6204SOL    HW119070   2.913   3.576  11.459
 6204SOL    HW219071   3.004   3.594  11.324
 6205SOL     OW19072   3.494   3.239  11.253
 6205SOL    HW119073   3.462   3.333  11.243
 6205SOL    HW219074   3.418   3.176  11.241
 6206SOL     OW19075   2.326   3.605  11.495
 6206SOL    HW119076   2.359   3.644  11.581
 6206SOL    HW219077   2.402   3.598  11.430
 6207SOL     OW19078   3.262   1.969  11.598
 6207SOL    HW119079   3.238   1.932  11.508
 6207SOL    HW219080   3.361   1.985  11.602
 6208SOL     OW19081   2.111   3.647  12.413
 6208SOL    HW119082   2.168   3.582  12.463
 6208SOL    HW219083   2.095   3.614  12.320
 6209SOL     OW19084   2.802   3.560  12.076
 6209SOL    HW119085   2.882   3.503  12.097
 6209SOL    HW219086   2.753   3.520  11.999
 6210SOL     OW19087   2.244   2.562  11.652
 6210SOL    HW119088   2.289   2.472  11.649
 6210SOL    HW219089   2.150   2.551  11.685
 6211SOL     OW19090   3.409   2.084  12.901
 6211SOL    HW119091   3.404   2.121  12.993
 6211SOL    HW219092   3.337   2.015  12.889
 6212SOL     OW19093   2.476   1.984  11.289
 6212SOL    HW119094   2.574   1.962  11.296
 6212SOL    HW219095   2.445   1.967  11.196
 6213SOL     OW19096   2.643   2.126  12.921
 6213SOL    HW119097   2.710   2.065  12.964
 6213SOL    HW219098   2.570   2.145  12.986
 6214SOL     OW19099   2.750   3.376  12.367
 6214SOL    HW119100   2.727   3.351  12.273
 6214SOL    HW219101   2.811   3.307  12.406
 6215SOL     OW19102   3.213   2.452  12.605
 6215SOL    HW119103   3.241   2.409  12.690
 6215SOL    HW219104   3.238   2.548  12.606
 6216SOL     OW19105   2.665   3.264  12.096
 6216SOL    HW119106   2.755   3.278  12.054
 6216SOL    HW219107   2.594   3.266  12.025
 6217SOL     OW19108   2.784   2.365  12.071
 6217SOL    HW119109   2.759   2.356  11.975
 6217SOL    HW219110   2.832   2.283  12.102
 6218SOL     OW19111   2.401   1.926  11.684
 6218SOL    HW119112   2.320   1.927  11.742
 6218SOL    HW219113   2.404   2.009  11.629
 6219SOL     OW19114   3.296   3.050  11.213
 6219SOL    HW119115   3.328   2.974  11.270
 6219SOL    HW219116   3.204   3.077  11.243
 6220SOL     OW19117   2.797   2.098  11.652
 6220SOL    HW119118   2.749   2.139  11.574
 6220SOL    HW219119   2.896   2.096  11.633
 6221SOL     OW19120   2.938   2.545  12.636
 6221SOL    HW119121   2.858   2.484  12.639
 6221SOL    HW219122   3.019   2.492  12.612
 6222SOL     OW19123   3.089   3.432  11.965
 6222SOL    HW119124   3.110   3.506  11.900
 6222SOL    HW219125   3.157   3.432  12.038
 6223SOL     OW19126   2.321   3.014  11.913
 6223SOL    HW119127   2.250   2.987  11.978
 6223SOL    HW219128   2.295   2.986  11.820
 6224SOL     OW19129   3.133   3.659  11.763
 6224SOL    HW119130   3.177   3.723  11.699
 6224SOL    HW219131   3.083   3.711  11.833
 6225SOL     OW19132   2.894   2.411  11.188
 6225SOL    HW119133   2.853   2.493  11.149
 6225SOL    HW219134   2.958   2.437  11.261
 6226SOL     OW19135   1.940   2.418  12.558
 6226SOL    HW119136   2.032   2.417  12.517
 6226SOL    HW219137   1.934   2.492  12.625
 6227SOL     OW19138   2.423   2.084  12.319
 6227SOL    HW119139   2.461   2.000  12.356
 6227SOL    HW219140   2.335   2.103  12.363
 6228SOL     OW19141   2.728   2.316  11.814
 6228SOL    HW119142   2.696   2.388  11.752
 6228SOL    HW219143   2.752   2.235  11.761
 6229SOL     OW19144   2.879   1.901  11.925
 6229SOL    HW119145   2.807   1.906  11.856
 6229SOL    HW219146   2.855   1.832  11.994
 6230SOL     OW19147   3.291   3.035  12.039
 6230SOL    HW119148   3.236   2.951  12.032
 6230SOL    HW219149   3.317   3.064  11.947
 6231SOL     OW19150   3.328   2.452  12.164
 6231SOL    HW119151   3.298   2.357  12.171
 6231SOL    HW219152   3.401   2.468  12.230
 6232SOL     OW19153   3.719   2.695  11.549
 6232SOL    HW119154   3.761   2.631  11.613
 6232SOL    HW219155   3.681   2.644  11.471
 6233SOL     OW19156   2.350   3.247  11.346
 6233SOL    HW119157   2.263   3.232  11.393
 6233SOL    HW219158   2.333   3.273  11.251
 6234SOL     OW19159   3.526   3.142  11.829
 6234SOL    HW119160   3.625   3.150  11.843
 6234SOL    HW219161   3.481   3.226  11.860
 6235SOL     OW19162   3.252   2.437  11.250
 6235SOL    HW119163   3.198   2.416  11.331
 6235SOL    HW219164   3.343   2.396  11.259
 6236SOL     OW19165   2.389   2.118  11.500
 6236SOL    HW119166   2.416   2.059  11.425
 6236SOL    HW219167   2.389   2.213  11.469
 6237SOL     OW19168   3.616   3.085  12.760
 6237SOL    HW119169   3.707   3.046  12.747
 6237SOL    HW219170   3.624   3.181  12.784
 6238SOL     OW19171   2.926   3.209  12.512
 6238SOL    HW119172   2.846   3.186  12.567
 6238SOL    HW219173   3.009   3.183  12.561
 6239SOL     OW19174   3.454   3.491  12.797
 6239SOL    HW119175   3.481   3.525  12.707
 6239SOL    HW219176   3.533   3.453  12.843
 6240SOL     OW19177   2.973   3.057  12.272
 6240SOL    HW119178   2.933   3.101  12.353
 6240SOL    HW219179   2.932   3.094  12.189
 6241SOL     OW19180   3.500   2.961  12.251
 6241SOL    HW119181   3.505   3.042  12.310
 6241SOL    HW219182   3.414   2.963  12.200
 6242SOL     OW19183   2.777   1.951  12.574
 6242SOL    HW119184   2.802   1.931  12.479
 6242SOL    HW219185   2.849   2.007  12.616
 6243SOL     OW19186   2.842   2.978  12.891
 6243SOL    HW119187   2.743   2.984  12.901
 6243SOL    HW219188   2.865   2.898  12.835
 6244SOL     OW19189   2.567   2.912  11.540
 6244SOL    HW119190   2.553   2.919  11.639
 6244SOL    HW219191   2.651   2.861  11.522
 6245SOL     OW19192   2.272   2.675  12.423
 6245SOL    HW119193   2.358   2.687  12.473
 6245SOL    HW219194   2.230   2.588  12.450
 6246SOL     OW19195   3.136   2.248  12.434
 6246SOL    HW119196   3.157   2.322  12.498
 6246SOL    HW219197   3.047   2.265  12.391
 6247SOL     OW19198   1.926   3.426  12.503
 6247SOL    HW119199   1.880   3.508  12.469
 6247SOL    HW219200   2.024   3.445  12.512
 6248SOL     OW19201   2.229   2.962  11.673
 6248SOL    HW119202   2.222   3.045  11.617
 6248SOL    HW219203   2.233   2.882  11.613
 6249SOL     OW19204   2.428   2.399  12.037
 6249SOL    HW119205   2.440   2.465  11.963
 6249SOL    HW219206   2.474   2.433  12.120
 6250SOL     OW19207   3.114   3.210  11.560
 6250SOL    HW119208   3.164   3.287  11.600
 6250SOL    HW219209   3.019   3.212  11.592
 6251SOL     OW19210   3.134   3.307  12.314
 6251SOL    HW119211   3.181   3.320  12.401
 6251SOL    HW219212   3.068   3.233  12.323
 6252SOL     OW19213   3.444   2.501  11.644
 6252SOL    HW119214   3.413   2.562  11.717
 6252SOL    HW219215   3.494   2.553  11.575
 6253SOL     OW19216   2.216   3.372  12.501
 6253SOL    HW119217   2.195   3.328  12.414
 6253SOL    HW219218   2.313   3.398  12.504
 6254SOL     OW19219   2.264   2.613  12.770
 6254SOL    HW119220   2.332   2.668  12.723
 6254SOL    HW219221   2.304   2.525  12.797
 6255SOL     OW19222   3.449   2.641  12.842
 6255SOL    HW119223   3.357   2.679  12.837
 6255SOL    HW219224   3.509   2.688  12.777
 6256SOL     OW19225   2.875   1.967  12.942
 6256SOL    HW119226   2.881   2.052  12.890
 6256SOL    HW219227   2.907   1.891  12.885
 6257SOL     OW19228   2.366   1.912  12.912
 6257SOL    HW119229   2.324   1.855  12.842
 6257SOL    HW219230   2.300   1.981  12.944
 6258SOL     OW19231   2.435   2.732  12.201
 6258SOL    HW119232   2.479   2.821  12.192
 6258SOL    HW219233   2.372   2.732  12.278
 6259SOL     OW19234   3.222   2.724  12.217
 6259SOL    HW119235   3.147   2.724  12.151
 6259SOL    HW219236   3.259   2.632  12.226
 6260SOL     OW19237   3.071   2.387  11.447
 6260SOL    HW119238   3.084   2.303  11.501
 6260SOL    HW219239   3.042   2.461  11.507
 6261SOL     OW19240   1.899   3.172  12.454
 6261SOL    HW119241   1.952   3.123  12.522
 6261SOL    HW219242   1.921   3.270  12.459
 6262SOL     OW19243   2.594   2.496  12.236
 6262SOL    HW119244   2.653   2.470  12.160
 6262SOL    HW219245   2.566   2.592  12.225
 6263SOL     OW19246   3.590   2.797  13.026
 6263SOL    HW119247   3.544   2.790  12.937
 6263SOL    HW219248   3.528   2.841  13.092
 6264SOL     OW19249   3.484   2.229  11.546
 6264SOL    HW119250   3.486   2.153  11.610
 6264SOL    HW219251   3.436   2.306  11.586
 6265SOL     OW19252   2.885   2.628  12.138
 6265SOL    HW119253   2.900   2.649  12.234
 6265SOL    HW219254   2.855   2.533  12.129
 6266SOL     OW19255   2.842   3.435  12.872
 6266SOL    HW119256   2.822   3.479  12.784
 6266SOL    HW219257   2.881   3.344  12.856
 6267SOL     OW19258   3.721   3.380  12.777
 6267SOL    HW119259   3.735   3.407  12.682
 6267SOL    HW219260   3.804   3.402  12.830
 6268SOL     OW19261   2.212   2.760  12.976
 6268SOL    HW119262   2.288   2.804  13.024
 6268SOL    HW219263   2.247   2.713  12.894
 6269SOL     OW19264   3.402   2.136  11.297
 6269SOL    HW119265   3.341   2.061  11.320
 6269SOL    HW219266   3.424   2.188  11.380
 6270SOL     OW19267   3.165   2.700  11.214
 6270SOL    HW119268   3.199   2.607  11.229
 6270SOL    HW219269   3.183   2.727  11.119
 6271SOL     OW19270   2.930   3.195  12.021
 6271SOL    HW119271   2.937   3.111  11.966
 6271SOL    HW219272   2.992   3.264  11.985
 6272SOL     OW19273   2.181   2.672  12.121
 6272SOL    HW119274   2.274   2.708  12.126
 6272SOL    HW219275   2.175   2.587  12.173
 6273SOL     OW19276   2.201   2.371  12.178
 6273SOL    HW119277   2.149   2.288  12.161
 6273SOL    HW219278   2.278   2.376  12.114
 6274SOL     OW19279   3.000   2.242  12.850
 6274SOL    HW119280   2.955   2.305  12.914
 6274SOL    HW219281   3.093   2.273  12.833
 6275SOL     OW19282   3.022   2.069  12.649
 6275SOL    HW119283   3.022   2.133  12.726
 6275SOL    HW219284   3.050   2.117  12.566
 6276SOL     OW19285   1.870   3.188  11.372
 6276SOL    HW119286   1.777   3.209  11.341
 6276SOL    HW219287   1.880   3.089  11.385
 6277SOL     OW19288   1.950   3.663  12.099
 6277SOL    HW119289   1.908   3.577  12.072
 6277SOL    HW219290   2.044   3.666  12.065
 6278SOL     OW19291   2.366   3.430  12.082
 6278SOL    HW119292   2.432   3.504  12.091
 6278SOL    HW219293   2.410   3.351  12.040
 6279SOL     OW19294   2.864   2.658  12.410
 6279SOL    HW119295   2.905   2.626  12.496
 6279SOL    HW219296   2.768   2.631  12.407
 6280SOL     OW19297   1.902   2.406  12.286
 6280SOL    HW119298   1.987   2.373  12.245
 6280SOL    HW219299   1.915   2.421  12.384
 6281SOL     OW19300   2.051   2.382  12.894
 6281SOL    HW119301   2.110   2.342  12.824
 6281SOL    HW219302   1.993   2.453  12.853
 6282SOL     OW19303   3.231   2.812  12.832
 6282SOL    HW119304   3.270   2.901  12.852
 6282SOL    HW219305   3.241   2.792  12.735
 6283SOL     OW19306   2.677   2.434  11.497
 6283SOL    HW119307   2.684   2.345  11.451
 6283SOL    HW219308   2.583   2.468  11.489
 6284SOL     OW19309   3.519   2.466  12.378
 6284SOL    HW119310   3.481   2.397  12.440
 6284SOL    HW219311   3.601   2.430  12.334
 6285SOL     OW19312   2.114   3.426  12.916
 6285SOL    HW119313   2.084   3.483  12.992
 6285SOL    HW219314   2.107   3.329  12.942
 6286SOL     OW19315   2.533   2.326  12.441
 6286SOL    HW119316   2.499   2.237  12.411
 6286SOL    HW219317   2.559   2.380  12.361
 6287SOL     OW19318   2.792   3.540  12.637
 6287SOL    HW119319   2.768   3.522  12.542
 6287SOL    HW219320   2.822   3.634  12.647
 6288SOL     OW19321   2.335   2.362  11.363
 6288SOL    HW119322   2.396   2.442  11.367
 6288SOL    HW219323   2.240   2.393  11.370
 6289SOL     OW19324   2.021   2.999  12.638
 6289SOL    HW119325   2.043   2.938  12.714
 6289SOL    HW219326   2.031   2.950  12.552
 6290SOL     OW19327   3.209   2.921  12.406
 6290SOL    HW119328   3.233   2.858  12.332
 6290SOL    HW219329   3.119   2.961  12.388
 6291SOL     OW19330   3.164   2.717  11.481
 6291SOL    HW119331   3.078   2.686  11.523
 6291SOL    HW219332   3.160   2.703  11.382
 6292SOL     OW19333   3.621   3.609  12.326
 6292SOL    HW119334   3.682   3.639  12.253
 6292SOL    HW219335   3.583   3.520  12.304
 6293SOL     OW19336   3.114   3.593  12.300
 6293SOL    HW119337   3.198   3.598  12.246
 6293SOL    HW219338   3.091   3.497  12.318
 6294SOL     OW19339   1.945   3.120  12.194
 6294SOL    HW119340   1.940   3.119  12.294
 6294SOL    HW219341   1.862   3.079  12.156
 6295SOL     OW19342   2.550   3.524  12.888
 6295SOL    HW119343   2.494   3.605  12.897
 6295SOL    HW219344   2.602   3.528  12.802
 6296SOL     OW19345   3.588   1.997  11.695
 6296SOL    HW119346   3.661   1.980  11.628
 6296SOL    HW219347   3.557   1.910  11.733
 6297SOL     OW19348   3.250   3.435  11.649
 6297SOL    HW119349   3.317   3.447  11.575
 6297SOL    HW219350   3.210   3.524  11.672
 6298SOL     OW19351   1.992   3.656  13.023
 6298SOL    HW119352   1.951   3.582  13.076
 6298SOL    HW219353   2.056   3.707  13.081
 6299SOL     OW19354   3.142   2.789  11.844
 6299SOL    HW119355   3.202   2.708  11.846
 6299SOL    HW219356   3.182   2.858  11.784
 6300SOL     OW19357   2.692   3.135  12.594
 6300SOL    HW119358   2.687   3.168  12.689
 6300SOL    HW219359   2.606   3.154  12.548
 6301SOL     OW19360   2.534   3.478  11.326
 6301SOL    HW119361   2.543   3.488  11.227
 6301SOL    HW219362   2.494   3.389  11.347
 6302SOL     OW19363   3.512   3.582  12.566
 6302SOL    HW119364   3.565   3.592  12.482
 6302SOL    HW219365   3.485   3.672  12.600
 6303SOL     OW19366   3.703   2.037  12.135
 6303SOL    HW119367   3.742   1.952  12.099
 6303SOL    HW219368   3.605   2.039  12.116
 6304SOL     OW19369   3.056   3.474  11.203
 6304SOL    HW119370   3.062   3.381  11.240
 6304SOL    HW219371   2.997   3.474  11.123
 6305SOL     OW19372   2.684   2.864  12.544
 6305SOL    HW119373   2.724   2.863  12.452
 6305SOL    HW219374   2.694   2.956  12.584
 6306SOL     OW19375   2.778   2.772  11.463
 6306SOL    HW119376   2.841   2.810  11.395
 6306SOL    HW219377   2.818   2.689  11.502
 6307SOL     OW19378   3.366   3.469  11.216
 6307SOL    HW119379   3.274   3.506  11.223
 6307SOL    HW219380   3.404   3.489  11.126
 6308SOL     OW19381   2.234   3.150  12.662
 6308SOL    HW119382   2.221   3.243  12.628
 6308SOL    HW219383   2.150   3.098  12.649
 6309SOL     OW19384   3.476   3.154  12.461
 6309SOL    HW119385   3.536   3.157  12.541
 6309SOL    HW219386   3.401   3.218  12.474
 6310SOL     OW19387   2.901   2.960  11.868
 6310SOL    HW119388   2.831   2.913  11.922
 6310SOL    HW219389   2.960   2.892  11.825
 6311SOL     OW19390   2.876   2.098  12.143
 6311SOL    HW119391   2.868   2.062  12.050
 6311SOL    HW219392   2.874   2.022  12.208
 6312SOL     OW19393   2.452   3.349  11.663
 6312SOL    HW119394   2.494   3.291  11.593
 6312SOL    HW219395   2.408   3.428  11.619
 6313SOL     OW19396   3.571   2.247  12.553
 6313SOL    HW119397   3.644   2.316  12.557
 6313SOL    HW219398   3.599   2.172  12.494
 6314SOL     OW19399   2.117   3.210  11.462
 6314SOL    HW119400   2.021   3.211  11.435
 6314SOL    HW219401   2.129   3.263  11.546
 6315SOL     OW19402   1.967   2.875  12.898
 6315SOL    HW119403   1.890   2.842  12.952
 6315SOL    HW219404   2.052   2.845  12.940
 6316SOL     OW19405   2.534   2.065  12.661
 6316SOL    HW119406   2.624   2.049  12.621
 6316SOL    HW219407   2.542   2.070  12.760
 6317SOL     OW19408   3.302   2.718  12.570
 6317SOL    HW119409   3.245   2.770  12.507
 6317SOL    HW219410   3.398   2.730  12.546
 6318SOL     OW19411   3.045   3.197  11.291
 6318SOL    HW119412   2.946   3.186  11.293
 6318SOL    HW219413   3.079   3.212  11.384
 6319SOL     OW19414   2.475   2.704  12.603
 6319SOL    HW119415   2.531   2.785  12.586
 6319SOL    HW219416   2.534   2.624  12.606
 6320SOL     OW19417   3.355   3.629  12.131
 6320SOL    HW119418   3.388   3.693  12.062
 6320SOL    HW219419   3.421   3.623  12.206
 6321SOL     OW19420   2.578   2.427  12.880
 6321SOL    HW119421   2.597   2.492  12.954
 6321SOL    HW219422   2.638   2.347  12.889
 6322SOL     OW19423   3.312   3.082  12.805
 6322SOL    HW119424   3.303   3.072  12.904
 6322SOL    HW219425   3.408   3.075  12.779
 6323SOL     OW19426   2.252   3.603  12.732
 6323SOL    HW119427   2.161   3.644  12.730
 6323SOL    HW219428   2.245   3.509  12.764
 6324SOL     OW19429   3.536   2.745  12.426
 6324SOL    HW119430   3.509   2.656  12.389
 6324SOL    HW219431   3.537   2.813  12.353
 6325SOL     OW19432   3.087   2.187  11.621
 6325SOL    HW119433   3.152   2.113  11.610
 6325SOL    HW219434   3.107   2.237  11.705
 6326SOL     OW19435   2.456   2.607  11.824
 6326SOL    HW119436   2.506   2.692  11.805
 6326SOL    HW219437   2.368   2.609  11.776
 6327SOL     OW19438   3.639   2.204  12.814
 6327SOL    HW119439   3.622   2.235  12.720
 6327SOL    HW219440   3.555   2.167  12.852
 6328SOL     OW19441   3.592   2.796  12.689
 6328SOL    HW119442   3.630   2.887  12.704
 6328SOL    HW219443   3.584   2.779  12.590
 6329SOL     OW19444   2.721   3.236  11.188
 6329SOL    HW119445   2.675   3.251  11.276
 6329SOL    HW219446   2.765   3.321  11.158
 6330SOL     OW19447   2.523   3.652  12.125
 6330SOL    HW119448   2.477   3.740  12.112
 6330SOL    HW219449   2.622   3.664  12.118
 6331SOL     OW19450   2.721   2.818  12.033
 6331SOL    HW119451   2.775   2.749  12.081
 6331SOL    HW219452   2.689   2.887  12.099
 6332SOL     OW19453   2.945   2.846  11.259
 6332SOL    HW119454   2.922   2.899  11.177
 6332SOL    HW219455   3.026   2.790  11.240
 6333SOL     OW19456   3.723   3.431  12.023
 6333SOL    HW119457   3.652   3.419  11.953
 6333SOL    HW219458   3.724   3.352  12.083
 6334SOL     OW19459   2.083   3.176  13.016
 6334SOL    HW119460   2.018   3.103  12.995
 6334SOL    HW219461   2.087   3.190  13.114
 6335SOL     OW19462   1.941   3.102  11.825
 6335SOL    HW119463   1.940   3.055  11.913
 6335SOL    HW219464   2.023   3.074  11.774
 6336SOL     OW19465   2.534   3.253  12.796
 6336SOL    HW119466   2.456   3.203  12.834
 6336SOL    HW219467   2.531   3.348  12.827
 6337SOL     OW19468   3.686   2.054  12.399
 6337SOL    HW119469   3.682   1.964  12.443
 6337SOL    HW219470   3.689   2.043  12.300
 6338SOL     OW19471   2.290   2.286  11.692
 6338SOL    HW119472   2.320   2.214  11.630
 6338SOL    HW219473   2.251   2.246  11.775
 6339SOL     OW19474   3.567   3.349  12.276
 6339SOL    HW119475   3.474   3.324  12.249
 6339SOL    HW219476   3.593   3.299  12.358
 6340SOL     OW19477   2.179   2.409  12.452
 6340SOL    HW119478   2.217   2.350  12.524
 6340SOL    HW219479   2.219   2.383  12.364
 6341SOL     OW19480   2.674   3.448  11.859
 6341SOL    HW119481   2.706   3.458  11.765
 6341SOL    HW219482   2.595   3.386  11.861
 6342SOL     OW19483   3.286   2.076  12.284
 6342SOL    HW119484   3.338   2.011  12.339
 6342SOL    HW219485   3.237   2.139  12.345
 6343SOL     OW19486   2.863   1.896  12.326
 6343SOL    HW119487   2.800   1.824  12.295
 6343SOL    HW219488   2.956   1.860  12.326
 6344SOL     OW19489   2.632   3.192  11.473
 6344SOL    HW119490   2.586   3.105  11.490
 6344SOL    HW219491   2.723   3.189  11.514
 6345SOL     OW19492   2.480   3.429  12.456
 6345SOL    HW119493   2.475   3.511  12.513
 6345SOL    HW219494   2.569   3.426  12.411
 6346SOL     OW19495   3.214   1.914  11.340
 6346SOL    HW119496   3.249   1.873  11.256
 6346SOL    HW219497   3.124   1.876  11.360
 6347SOL     OW19498   3.162   2.315  11.863
 6347SOL    HW119499   3.103   2.395  11.867
 6347SOL    HW219500   3.177   2.280  11.956
 6348SOL     OW19501   3.455   2.083  12.054
 6348SOL    HW119502   3.371   2.082  12.108
 6348SOL    HW219503   3.457   2.166  11.998
 6349SOL     OW19504   1.901   2.939  11.472
 6349SOL    HW119505   2.000   2.928  11.463
 6349SOL    HW219506   1.861   2.853  11.504
 6350SOL     OW19507   2.737   3.508  11.509
 6350SOL    HW119508   2.660   3.473  11.455
 6350SOL    HW219509   2.705   3.579  11.571
 6351SOL     OW19510   2.092   2.490  13.147
 6351SOL    HW119511   1.999   2.488  13.184
 6351SOL    HW219512   2.093   2.451  13.055
 6352SOL     OW19513   1.881   2.230  13.681
 6352SOL    HW119514   1.799   2.273  13.720
 6352SOL    HW219515   1.853   2.157  13.618
 6353SOL     OW19516   3.417   3.373  13.737
 6353SOL    HW119517   3.360   3.357  13.818
 6353SOL    HW219518   3.358   3.383  13.657
 6354SOL     OW19519   2.997   2.565  13.751
 6354SOL    HW119520   3.054   2.643  13.726
 6354SOL    HW219521   2.937   2.591  13.827
 6355SOL     OW19522   3.617   2.469  13.265
 6355SOL    HW119523   3.605   2.456  13.166
 6355SOL    HW219524   3.587   2.388  13.314
 6356SOL     OW19525   2.547   2.874  13.699
 6356SOL    HW119526   2.616   2.858  13.769
 6356SOL    HW219527   2.474   2.931  13.737
 6357SOL     OW19528   3.465   2.309  13.771
 6357SOL    HW119529   3.391   2.355  13.721
 6357SOL    HW219530   3.516   2.377  13.824
 6358SOL     OW19531   2.093   3.575  13.517
 6358SOL    HW119532   2.127   3.652  13.571
 6358SOL    HW219533   2.137   3.575  13.427
 6359SOL     OW19534   2.092   3.296  13.572
 6359SOL    HW119535   2.066   3.392  13.572
 6359SOL    HW219536   2.021   3.242  13.617
 6360SOL     OW19537   2.102   2.953  13.920
 6360SOL    HW119538   2.116   2.869  13.972
 6360SOL    HW219539   2.047   3.017  13.975
 6361SOL     OW19540   2.468   2.826  13.157
 6361SOL    HW119541   2.475   2.910  13.103
 6361SOL    HW219542   2.514   2.839  13.245
 6362SOL     OW19543   1.984   2.505  13.597
 6362SOL    HW119544   1.939   2.417  13.614
 6362SOL    HW219545   1.983   2.559  13.681
 6363SOL     OW19546   3.704   3.629  13.393
 6363SOL    HW119547   3.758   3.600  13.473
 6363SOL    HW219548   3.734   3.719  13.364
 6364SOL     OW19549   1.889   3.458  13.151
 6364SOL    HW119550   1.870   3.362  13.172
 6364SOL    HW219551   1.856   3.516  13.226
 6365SOL     OW19552   3.551   2.784  13.646
 6365SOL    HW119553   3.646   2.755  13.654
 6365SOL    HW219554   3.543   2.849  13.571
 6366SOL     OW19555   3.503   2.970  13.466
 6366SOL    HW119556   3.589   2.972  13.414
 6366SOL    HW219557   3.517   3.017  13.554
 6367SOL     OW19558   2.475   3.227  13.760
 6367SOL    HW119559   2.426   3.140  13.769
 6367SOL    HW219560   2.452   3.270  13.673
 6368SOL     OW19561   2.671   1.866  13.536
 6368SOL    HW119562   2.711   1.957  13.527
 6368SOL    HW219563   2.571   1.874  13.542
 6369SOL     OW19564   3.387   2.861  13.224
 6369SOL    HW119565   3.324   2.785  13.237
 6369SOL    HW219566   3.435   2.879  13.310
 6370SOL     OW19567   3.529   3.576  13.606
 6370SOL    HW119568   3.488   3.553  13.518
 6370SOL    HW219569   3.511   3.502  13.671
 6371SOL     OW19570   2.460   2.591  13.304
 6371SOL    HW119571   2.484   2.660  13.236
 6371SOL    HW219572   2.382   2.624  13.358
 6372SOL     OW19573   3.143   2.207  13.978
 6372SOL    HW119574   3.057   2.157  13.965
 6372SOL    HW219575   3.205   2.153  14.034
 6373SOL     OW19576   3.438   3.524  13.341
 6373SOL    HW119577   3.527   3.570  13.344
 6373SOL    HW219578   3.417   3.500  13.246
 6374SOL     OW19579   2.903   2.563  13.463
 6374SOL    HW119580   2.929   2.559  13.559
 6374SOL    HW219581   2.818   2.512  13.449
 6375SOL     OW19582   1.938   2.673  13.823
 6375SOL    HW119583   2.037   2.661  13.832
 6375SOL    HW219584   1.914   2.768  13.844
 6376SOL     OW19585   2.727   2.210  13.229
 6376SOL    HW119586   2.786   2.273  13.180
 6376SOL    HW219587   2.746   2.116  13.200
 6377SOL     OW19588   3.224   3.006  13.579
 6377SOL    HW119589   3.307   2.977  13.531
 6377SOL    HW219590   3.175   3.073  13.523
 6378SOL     OW19591   2.870   3.318  13.511
 6378SOL    HW119592   2.824   3.390  13.459
 6378SOL    HW219593   2.866   3.338  13.609
 6379SOL     OW19594   2.213   3.663  13.887
 6379SOL    HW119595   2.263   3.577  13.893
 6379SOL    HW219596   2.278   3.740  13.884
 6380SOL     OW19597   3.657   2.928  13.907
 6380SOL    HW119598   3.595   2.913  13.831
 6380SOL    HW219599   3.605   2.939  13.992
 6381SOL     OW19600   2.183   2.805  13.276
 6381SOL    HW119601   2.265   2.844  13.234
 6381SOL    HW219602   2.156   2.723  13.227
 6382SOL     OW19603   3.320   2.597  13.762
 6382SOL    HW119604   3.315   2.532  13.837
 6382SOL    HW219605   3.400   2.656  13.775
 6383SOL     OW19606   2.973   3.638  13.271
 6383SOL    HW119607   2.913   3.576  13.321
 6383SOL    HW219608   3.004   3.594  13.186
 6384SOL     OW19609   3.494   3.239  13.115
 6384SOL    HW119610   3.462   3.333  13.105
 6384SOL    HW219611   3.418   3.176  13.103
 6385SOL     OW19612   2.326   3.605  13.357
 6385SOL    HW119613   2.359   3.644  13.443
 6385SOL    HW219614   2.402   3.598  13.292
 6386SOL     OW19615   3.262   1.969  13.460
 6386SOL    HW119616   3.238   1.932  13.370
 6386SOL    HW219617   3.361   1.985  13.464
 6387SOL     OW19618   2.802   3.560  13.938
 6387SOL    HW119619   2.882   3.503  13.959
 6387SOL    HW219620   2.753   3.520  13.861
 6388SOL     OW19621   2.244   2.562  13.514
 6388SOL    HW119622   2.289   2.472  13.511
 6388SOL    HW219623   2.150   2.551  13.547
 6389SOL     OW19624   2.476   1.984  13.151
 6389SOL    HW119625   2.574   1.962  13.158
 6389SOL    HW219626   2.445   1.967  13.058
 6390SOL     OW19627   2.401   1.926  13.546
 6390SOL    HW119628   2.320   1.927  13.604
 6390SOL    HW219629   2.404   2.009  13.491
 6391SOL     OW19630   3.296   3.050  13.075
 6391SOL    HW119631   3.328   2.974  13.132
 6391SOL    HW219632   3.204   3.077  13.105
 6392SOL     OW19633   2.797   2.098  13.514
 6392SOL    HW119634   2.749   2.139  13.436
 6392SOL    HW219635   2.896   2.096  13.495
 6393SOL     OW19636   2.321   3.014  13.775
 6393SOL    HW119637   2.250   2.987  13.840
 6393SOL    HW219638   2.295   2.986  13.682
 6394SOL     OW19639   3.133   3.659  13.625
 6394SOL    HW119640   3.177   3.723  13.561
 6394SOL    HW219641   3.083   3.711  13.695
 6395SOL     OW19642   2.894   2.411  13.050
 6395SOL    HW119643   2.853   2.493  13.011
 6395SOL    HW219644   2.958   2.437  13.123
 6396SOL     OW19645   2.728   2.316  13.676
 6396SOL    HW119646   2.696   2.388  13.614
 6396SOL    HW219647   2.752   2.235  13.623
 6397SOL     OW19648   2.879   1.901  13.787
 6397SOL    HW119649   2.807   1.906  13.718
 6397SOL    HW219650   2.855   1.832  13.856
 6398SOL     OW19651   3.719   2.695  13.411
 6398SOL    HW119652   3.761   2.631  13.475
 6398SOL    HW219653   3.681   2.644  13.333
 6399SOL     OW19654   2.350   3.247  13.208
 6399SOL    HW119655   2.263   3.232  13.255
 6399SOL    HW219656   2.333   3.273  13.113
 6400SOL     OW19657   3.526   3.142  13.691
 6400SOL    HW119658   3.625   3.150  13.705
 6400SOL    HW219659   3.481   3.226  13.722
 6401SOL     OW19660   3.252   2.437  13.112
 6401SOL    HW119661   3.198   2.416  13.193
 6401SOL    HW219662   3.343   2.396  13.121
 6402SOL     OW19663   2.389   2.118  13.362
 6402SOL    HW119664   2.416   2.059  13.287
 6402SOL    HW219665   2.389   2.213  13.331
 6403SOL     OW19666   2.567   2.912  13.402
 6403SOL    HW119667   2.553   2.919  13.501
 6403SOL    HW219668   2.651   2.861  13.384
 6404SOL     OW19669   2.229   2.962  13.535
 6404SOL    HW119670   2.222   3.045  13.479
 6404SOL    HW219671   2.233   2.882  13.475
 6405SOL     OW19672   2.428   2.399  13.899
 6405SOL    HW119673   2.440   2.465  13.825
 6405SOL    HW219674   2.474   2.433  13.982
 6406SOL     OW19675   3.114   3.210  13.422
 6406SOL    HW119676   3.164   3.287  13.462
 6406SOL    HW219677   3.019   3.212  13.454
 6407SOL     OW19678   3.444   2.501  13.506
 6407SOL    HW119679   3.413   2.562  13.579
 6407SOL    HW219680   3.494   2.553  13.437
 6408SOL     OW19681   3.071   2.387  13.309
 6408SOL    HW119682   3.084   2.303  13.363
 6408SOL    HW219683   3.042   2.461  13.369
 6409SOL     OW19684   3.484   2.229  13.408
 6409SOL    HW119685   3.486   2.153  13.472
 6409SOL    HW219686   3.436   2.306  13.448
 6410SOL     OW19687   3.402   2.136  13.159
 6410SOL    HW119688   3.341   2.061  13.182
 6410SOL    HW219689   3.424   2.188  13.242
 6411SOL     OW19690   3.165   2.700  13.076
 6411SOL    HW119691   3.199   2.607  13.091
 6411SOL    HW219692   3.183   2.727  12.981
 6412SOL     OW19693   1.870   3.188  13.234
 6412SOL    HW119694   1.777   3.209  13.203
 6412SOL    HW219695   1.880   3.089  13.247
 6413SOL     OW19696   2.677   2.434  13.359
 6413SOL    HW119697   2.684   2.345  13.313
 6413SOL    HW219698   2.583   2.468  13.351
 6414SOL     OW19699   2.335   2.362  13.225
 6414SOL    HW119700   2.396   2.442  13.229
 6414SOL    HW219701   2.240   2.393  13.232
 6415SOL     OW19702   3.164   2.717  13.343
 6415SOL    HW119703   3.078   2.686  13.385
 6415SOL    HW219704   3.160   2.703  13.244
 6416SOL     OW19705   3.588   1.997  13.557
 6416SOL    HW119706   3.661   1.980  13.490
 6416SOL    HW219707   3.557   1.910  13.595
 6417SOL     OW19708   3.250   3.435  13.511
 6417SOL    HW119709   3.317   3.447  13.437
 6417SOL    HW219710   3.210   3.524  13.534
 6418SOL     OW19711   3.142   2.789  13.706
 6418SOL    HW119712   3.202   2.708  13.708
 6418SOL    HW219713   3.182   2.858  13.646
 6419SOL     OW19714   2.534   3.478  13.188
 6419SOL    HW119715   2.543   3.488  13.089
 6419SOL    HW219716   2.494   3.389  13.209
 6420SOL     OW19717   3.703   2.037  13.997
 6420SOL    HW119718   3.742   1.952  13.961
 6420SOL    HW219719   3.605   2.039  13.978
 6421SOL     OW19720   2.125   2.188  13.754
 6421SOL    HW119721   2.046   2.239  13.720
 6421SOL    HW219722   2.116   2.173  13.852
 6422SOL     OW19723   3.056   3.474  13.065
 6422SOL    HW119724   3.062   3.381  13.102
 6422SOL    HW219725   2.997   3.474  12.985
 6423SOL     OW19726   2.778   2.772  13.325
 6423SOL    HW119727   2.841   2.810  13.257
 6423SOL    HW219728   2.818   2.689  13.364
 6424SOL     OW19729   3.366   3.469  13.078
 6424SOL    HW119730   3.274   3.506  13.085
 6424SOL    HW219731   3.404   3.489  12.988
 6425SOL     OW19732   2.901   2.960  13.730
 6425SOL    HW119733   2.831   2.913  13.784
 6425SOL    HW219734   2.960   2.892  13.687
 6426SOL     OW19735   2.452   3.349  13.525
 6426SOL    HW119736   2.494   3.291  13.455
 6426SOL    HW219737   2.408   3.428  13.481
 6427SOL     OW19738   2.117   3.210  13.324
 6427SOL    HW119739   2.021   3.211  13.297
 6427SOL    HW219740   2.129   3.263  13.408
 6428SOL     OW19741   3.045   3.197  13.153
 6428SOL    HW119742   2.946   3.186  13.155
 6428SOL    HW219743   3.079   3.212  13.246
 6429SOL     OW19744   3.087   2.187  13.483
 6429SOL    HW119745   3.152   2.113  13.472
 6429SOL    HW219746   3.107   2.237  13.567
 6430SOL     OW19747   2.456   2.607  13.686
 6430SOL    HW119748   2.506   2.692  13.667
 6430SOL    HW219749   2.368   2.609  13.638
 6431SOL     OW19750   2.721   3.236  13.050
 6431SOL    HW119751   2.675   3.251  13.138
 6431SOL    HW219752   2.765   3.321  13.020
 6432SOL     OW19753   2.523   3.652  13.987
 6432SOL    HW119754   2.477   3.740  13.974
 6432SOL    HW219755   2.622   3.664  13.980
 6433SOL     OW19756   2.721   2.818  13.895
 6433SOL    HW119757   2.775   2.749  13.943
 6433SOL    HW219758   2.689   2.887  13.961
 6434SOL     OW19759   2.945   2.846  13.121
 6434SOL    HW119760   2.922   2.899  13.039
 6434SOL    HW219761   3.026   2.790  13.102
 6435SOL     OW19762   1.941   3.102  13.687
 6435SOL    HW119763   1.940   3.055  13.775
 6435SOL    HW219764   2.023   3.074  13.636
 6436SOL     OW19765   2.290   2.286  13.554
 6436SOL    HW119766   2.320   2.214  13.492
 6436SOL    HW219767   2.251   2.246  13.637
 6437SOL     OW19768   3.567   3.349  14.138
 6437SOL    HW119769   3.474   3.324  14.111
 6437SOL    HW219770   3.593   3.299  14.220
 6438SOL     OW19771   2.674   3.448  13.721
 6438SOL    HW119772   2.706   3.458  13.627
 6438SOL    HW219773   2.595   3.386  13.723
 6439SOL     OW19774   2.632   3.192  13.335
 6439SOL    HW119775   2.586   3.105  13.352
 6439SOL    HW219776   2.723   3.189  13.376
 6440SOL     OW19777   3.214   1.914  13.202
 6440SOL    HW119778   3.249   1.873  13.118
 6440SOL    HW219779   3.124   1.876  13.222
 6441SOL     OW19780   3.162   2.315  13.725
 6441SOL    HW119781   3.103   2.395  13.729
 6441SOL    HW219782   3.177   2.280  13.818
 6442SOL     OW19783   1.901   2.939  13.334
 6442SOL    HW119784   2.000   2.928  13.325
 6442SOL    HW219785   1.861   2.853  13.366
 6443SOL     OW19786   2.737   3.508  13.371
 6443SOL    HW119787   2.660   3.473  13.317
 6443SOL    HW219788   2.705   3.579  13.433
 6444SOL     OW19789   2.087   3.999   0.996
 6444SOL    HW119790   2.122   3.982   1.088
 6444SOL    HW219791   1.999   3.954   0.984
 6445SOL     OW19792   1.881   4.092   0.647
 6445SOL    HW119793   1.799   4.135   0.686
 6445SOL    HW219794   1.853   4.019   0.584
 6446SOL     OW19795   3.617   4.331   0.231
 6446SOL    HW119796   3.605   4.318   0.132
 6446SOL    HW219797   3.587   4.250   0.280
 6447SOL     OW19798   2.300   4.116   1.499
 6447SOL    HW119799   2.382   4.060   1.508
 6447SOL    HW219800   2.219   4.058   1.503
 6448SOL     OW19801   3.456   3.838   1.480
 6448SOL    HW119802   3.438   3.905   1.408
 6448SOL    HW219803   3.453   3.884   1.569
 6449SOL     OW19804   2.671   3.728   0.502
 6449SOL    HW119805   2.711   3.819   0.493
 6449SOL    HW219806   2.571   3.736   0.508
 6450SOL     OW19807   3.143   4.069   0.944
 6450SOL    HW119808   3.057   4.019   0.931
 6450SOL    HW219809   3.205   4.015   1.000
 6451SOL     OW19810   2.412   3.920   0.885
 6451SOL    HW119811   2.407   3.915   0.985
 6451SOL    HW219812   2.414   4.016   0.856
 6452SOL     OW19813   2.064   4.009   1.498
 6452SOL    HW119814   1.984   4.069   1.485
 6452SOL    HW219815   2.054   3.960   1.584
 6453SOL     OW19816   3.262   3.831   0.426
 6453SOL    HW119817   3.238   3.794   0.336
 6453SOL    HW219818   3.361   3.847   0.430
 6454SOL     OW19819   3.409   3.946   1.729
 6454SOL    HW119820   3.404   3.983   1.821
 6454SOL    HW219821   3.337   3.877   1.717
 6455SOL     OW19822   2.643   3.988   1.749
 6455SOL    HW119823   2.710   3.927   1.792
 6455SOL    HW219824   2.570   4.007   1.814
 6456SOL     OW19825   2.401   3.788   0.512
 6456SOL    HW119826   2.320   3.789   0.570
 6456SOL    HW219827   2.404   3.871   0.457
 6457SOL     OW19828   2.159   3.759   0.171
 6457SOL    HW119829   2.208   3.843   0.150
 6457SOL    HW219830   2.221   3.694   0.216
 6458SOL     OW19831   2.423   3.946   1.147
 6458SOL    HW119832   2.461   3.862   1.184
 6458SOL    HW219833   2.335   3.965   1.191
 6459SOL     OW19834   2.879   3.763   0.753
 6459SOL    HW119835   2.807   3.768   0.684
 6459SOL    HW219836   2.855   3.694   0.822
 6460SOL     OW19837   2.777   3.813   1.402
 6460SOL    HW119838   2.802   3.793   1.307
 6460SOL    HW219839   2.849   3.869   1.444
 6461SOL     OW19840   3.136   4.110   1.262
 6461SOL    HW119841   3.157   4.184   1.326
 6461SOL    HW219842   3.047   4.127   1.219
 6462SOL     OW19843   2.366   3.774   1.740
 6462SOL    HW119844   2.324   3.717   1.670
 6462SOL    HW219845   2.300   3.843   1.772
 6463SOL     OW19846   2.169   3.937   1.231
 6463SOL    HW119847   2.146   3.974   1.321
 6463SOL    HW219848   2.139   3.842   1.225
 6464SOL     OW19849   3.402   3.998   0.125
 6464SOL    HW119850   3.341   3.923   0.148
 6464SOL    HW219851   3.424   4.050   0.208
 6465SOL     OW19852   3.022   3.931   1.477
 6465SOL    HW119853   3.022   3.995   1.554
 6465SOL    HW219854   3.050   3.979   1.394
 6466SOL     OW19855   2.765   3.810   0.133
 6466SOL    HW119856   2.816   3.811   0.047
 6466SOL    HW219857   2.821   3.768   0.204
 6467SOL     OW19858   3.588   3.859   0.523
 6467SOL    HW119859   3.661   3.842   0.456
 6467SOL    HW219860   3.557   3.772   0.561
 6468SOL     OW19861   3.703   3.899   0.963
 6468SOL    HW119862   3.742   3.814   0.927
 6468SOL    HW219863   3.605   3.901   0.944
 6469SOL     OW19864   2.534   3.927   1.489
 6469SOL    HW119865   2.624   3.911   1.449
 6469SOL    HW219866   2.542   3.932   1.588
 6470SOL     OW19867   1.934   3.890   0.318
 6470SOL    HW119868   1.917   3.973   0.264
 6470SOL    HW219869   2.024   3.853   0.296
 6471SOL     OW19870   3.087   4.049   0.449
 6471SOL    HW119871   3.152   3.975   0.438
 6471SOL    HW219872   3.107   4.099   0.533
 6472SOL     OW19873   3.639   4.066   1.642
 6472SOL    HW119874   3.622   4.097   1.548
 6472SOL    HW219875   3.555   4.029   1.680
 6473SOL     OW19876   3.686   3.916   1.227
 6473SOL    HW119877   3.682   3.826   1.271
 6473SOL    HW219878   3.689   3.905   1.128
 6474SOL     OW19879   3.286   3.938   1.112
 6474SOL    HW119880   3.338   3.873   1.167
 6474SOL    HW219881   3.237   4.001   1.173
 6475SOL     OW19882   2.863   3.758   1.154
 6475SOL    HW119883   2.800   3.686   1.123
 6475SOL    HW219884   2.956   3.722   1.154
 6476SOL     OW19885   3.214   3.776   0.168
 6476SOL    HW119886   3.249   3.735   0.084
 6476SOL    HW219887   3.124   3.738   0.188
 6477SOL     OW19888   3.162   4.177   0.691
 6477SOL    HW119889   3.103   4.257   0.695
 6477SOL    HW219890   3.177   4.142   0.784
 6478SOL     OW19891   3.455   3.945   0.882
 6478SOL    HW119892   3.371   3.944   0.936
 6478SOL    HW219893   3.457   4.028   0.826
 6479SOL     OW19894   2.087   3.999   2.858
 6479SOL    HW119895   2.122   3.982   2.950
 6479SOL    HW219896   1.999   3.954   2.846
 6480SOL     OW19897   1.881   4.092   2.509
 6480SOL    HW119898   1.799   4.135   2.548
 6480SOL    HW219899   1.853   4.019   2.446
 6481SOL     OW19900   3.617   4.331   2.093
 6481SOL    HW119901   3.605   4.318   1.994
 6481SOL    HW219902   3.587   4.250   2.142
 6482SOL     OW19903   2.300   4.116   3.361
 6482SOL    HW119904   2.382   4.060   3.370
 6482SOL    HW219905   2.219   4.058   3.365
 6483SOL     OW19906   3.456   3.838   3.342
 6483SOL    HW119907   3.438   3.905   3.270
 6483SOL    HW219908   3.453   3.884   3.431
 6484SOL     OW19909   2.671   3.728   2.364
 6484SOL    HW119910   2.711   3.819   2.355
 6484SOL    HW219911   2.571   3.736   2.370
 6485SOL     OW19912   3.143   4.069   2.806
 6485SOL    HW119913   3.057   4.019   2.793
 6485SOL    HW219914   3.205   4.015   2.862
 6486SOL     OW19915   2.412   3.920   2.747
 6486SOL    HW119916   2.407   3.915   2.847
 6486SOL    HW219917   2.414   4.016   2.718
 6487SOL     OW19918   2.064   4.009   3.360
 6487SOL    HW119919   1.984   4.069   3.347
 6487SOL    HW219920   2.054   3.960   3.446
 6488SOL     OW19921   3.262   3.831   2.288
 6488SOL    HW119922   3.238   3.794   2.198
 6488SOL    HW219923   3.361   3.847   2.292
 6489SOL     OW19924   3.409   3.946   3.591
 6489SOL    HW119925   3.404   3.983   3.683
 6489SOL    HW219926   3.337   3.877   3.579
 6490SOL     OW19927   2.476   3.846   1.979
 6490SOL    HW119928   2.574   3.824   1.986
 6490SOL    HW219929   2.445   3.829   1.886
 6491SOL     OW19930   2.643   3.988   3.611
 6491SOL    HW119931   2.710   3.927   3.654
 6491SOL    HW219932   2.570   4.007   3.676
 6492SOL     OW19933   2.401   3.788   2.374
 6492SOL    HW119934   2.320   3.789   2.432
 6492SOL    HW219935   2.404   3.871   2.319
 6493SOL     OW19936   2.159   3.759   2.033
 6493SOL    HW119937   2.208   3.843   2.012
 6493SOL    HW219938   2.221   3.694   2.078
 6494SOL     OW19939   2.423   3.946   3.009
 6494SOL    HW119940   2.461   3.862   3.046
 6494SOL    HW219941   2.335   3.965   3.053
 6495SOL     OW19942   2.879   3.763   2.615
 6495SOL    HW119943   2.807   3.768   2.546
 6495SOL    HW219944   2.855   3.694   2.684
 6496SOL     OW19945   2.777   3.813   3.264
 6496SOL    HW119946   2.802   3.793   3.169
 6496SOL    HW219947   2.849   3.869   3.306
 6497SOL     OW19948   3.136   4.110   3.124
 6497SOL    HW119949   3.157   4.184   3.188
 6497SOL    HW219950   3.047   4.127   3.081
 6498SOL     OW19951   2.366   3.774   3.602
 6498SOL    HW119952   2.324   3.717   3.532
 6498SOL    HW219953   2.300   3.843   3.634
 6499SOL     OW19954   2.169   3.937   3.093
 6499SOL    HW119955   2.146   3.974   3.183
 6499SOL    HW219956   2.139   3.842   3.087
 6500SOL     OW19957   3.402   3.998   1.987
 6500SOL    HW119958   3.341   3.923   2.010
 6500SOL    HW219959   3.424   4.050   2.070
 6501SOL     OW19960   3.022   3.931   3.339
 6501SOL    HW119961   3.022   3.995   3.416
 6501SOL    HW219962   3.050   3.979   3.256
 6502SOL     OW19963   2.765   3.810   1.995
 6502SOL    HW119964   2.816   3.811   1.909
 6502SOL    HW219965   2.821   3.768   2.066
 6503SOL     OW19966   3.588   3.859   2.385
 6503SOL    HW119967   3.661   3.842   2.318
 6503SOL    HW219968   3.557   3.772   2.423
 6504SOL     OW19969   3.703   3.899   2.825
 6504SOL    HW119970   3.742   3.814   2.789
 6504SOL    HW219971   3.605   3.901   2.806
 6505SOL     OW19972   2.534   3.927   3.351
 6505SOL    HW119973   2.624   3.911   3.311
 6505SOL    HW219974   2.542   3.932   3.450
 6506SOL     OW19975   1.937   4.069   1.895
 6506SOL    HW119976   1.845   4.041   1.866
 6506SOL    HW219977   1.968   4.146   1.839
 6507SOL     OW19978   1.934   3.890   2.180
 6507SOL    HW119979   1.917   3.973   2.126
 6507SOL    HW219980   2.024   3.853   2.158
 6508SOL     OW19981   3.087   4.049   2.311
 6508SOL    HW119982   3.152   3.975   2.300
 6508SOL    HW219983   3.107   4.099   2.395
 6509SOL     OW19984   3.639   4.066   3.504
 6509SOL    HW119985   3.622   4.097   3.410
 6509SOL    HW219986   3.555   4.029   3.542
 6510SOL     OW19987   3.686   3.916   3.089
 6510SOL    HW119988   3.682   3.826   3.133
 6510SOL    HW219989   3.689   3.905   2.990
 6511SOL     OW19990   3.286   3.938   2.974
 6511SOL    HW119991   3.338   3.873   3.029
 6511SOL    HW219992   3.237   4.001   3.035
 6512SOL     OW19993   2.863   3.758   3.016
 6512SOL    HW119994   2.800   3.686   2.985
 6512SOL    HW219995   2.956   3.722   3.016
 6513SOL     OW19996   3.214   3.776   2.030
 6513SOL    HW119997   3.249   3.735   1.946
 6513SOL    HW219998   3.124   3.738   2.050
 6514SOL     OW19999   3.162   4.177   2.553
 6514SOL    HW120000   3.103   4.257   2.557
 6514SOL    HW220001   3.177   4.142   2.646
 6515SOL     OW20002   3.455   3.945   2.744
 6515SOL    HW120003   3.371   3.944   2.798
 6515SOL    HW220004   3.457   4.028   2.688
 6516SOL     OW20005   2.087   3.999   4.720
 6516SOL    HW120006   2.122   3.982   4.812
 6516SOL    HW220007   1.999   3.954   4.708
 6517SOL     OW20008   1.881   4.092   4.371
 6517SOL    HW120009   1.799   4.135   4.410
 6517SOL    HW220010   1.853   4.019   4.308
 6518SOL     OW20011   3.617   4.331   3.955
 6518SOL    HW120012   3.605   4.318   3.856
 6518SOL    HW220013   3.587   4.250   4.004
 6519SOL     OW20014   2.300   4.116   5.223
 6519SOL    HW120015   2.382   4.060   5.232
 6519SOL    HW220016   2.219   4.058   5.227
 6520SOL     OW20017   3.456   3.838   5.204
 6520SOL    HW120018   3.438   3.905   5.132
 6520SOL    HW220019   3.453   3.884   5.293
 6521SOL     OW20020   2.671   3.728   4.226
 6521SOL    HW120021   2.711   3.819   4.217
 6521SOL    HW220022   2.571   3.736   4.232
 6522SOL     OW20023   3.143   4.069   4.668
 6522SOL    HW120024   3.057   4.019   4.655
 6522SOL    HW220025   3.205   4.015   4.724
 6523SOL     OW20026   2.412   3.920   4.609
 6523SOL    HW120027   2.407   3.915   4.709
 6523SOL    HW220028   2.414   4.016   4.580
 6524SOL     OW20029   2.064   4.009   5.222
 6524SOL    HW120030   1.984   4.069   5.209
 6524SOL    HW220031   2.054   3.960   5.308
 6525SOL     OW20032   3.262   3.831   4.150
 6525SOL    HW120033   3.238   3.794   4.060
 6525SOL    HW220034   3.361   3.847   4.154
 6526SOL     OW20035   3.409   3.946   5.453
 6526SOL    HW120036   3.404   3.983   5.545
 6526SOL    HW220037   3.337   3.877   5.441
 6527SOL     OW20038   2.476   3.846   3.841
 6527SOL    HW120039   2.574   3.824   3.848
 6527SOL    HW220040   2.445   3.829   3.748
 6528SOL     OW20041   2.643   3.988   5.473
 6528SOL    HW120042   2.710   3.927   5.516
 6528SOL    HW220043   2.570   4.007   5.538
 6529SOL     OW20044   2.401   3.788   4.236
 6529SOL    HW120045   2.320   3.789   4.294
 6529SOL    HW220046   2.404   3.871   4.181
 6530SOL     OW20047   2.159   3.759   3.895
 6530SOL    HW120048   2.208   3.843   3.874
 6530SOL    HW220049   2.221   3.694   3.940
 6531SOL     OW20050   2.423   3.946   4.871
 6531SOL    HW120051   2.461   3.862   4.908
 6531SOL    HW220052   2.335   3.965   4.915
 6532SOL     OW20053   2.879   3.763   4.477
 6532SOL    HW120054   2.807   3.768   4.408
 6532SOL    HW220055   2.855   3.694   4.546
 6533SOL     OW20056   2.777   3.813   5.126
 6533SOL    HW120057   2.802   3.793   5.031
 6533SOL    HW220058   2.849   3.869   5.168
 6534SOL     OW20059   3.136   4.110   4.986
 6534SOL    HW120060   3.157   4.184   5.050
 6534SOL    HW220061   3.047   4.127   4.943
 6535SOL     OW20062   2.366   3.774   5.464
 6535SOL    HW120063   2.324   3.717   5.394
 6535SOL    HW220064   2.300   3.843   5.496
 6536SOL     OW20065   2.169   3.937   4.955
 6536SOL    HW120066   2.146   3.974   5.045
 6536SOL    HW220067   2.139   3.842   4.949
 6537SOL     OW20068   3.402   3.998   3.849
 6537SOL    HW120069   3.341   3.923   3.872
 6537SOL    HW220070   3.424   4.050   3.932
 6538SOL     OW20071   3.022   3.931   5.201
 6538SOL    HW120072   3.022   3.995   5.278
 6538SOL    HW220073   3.050   3.979   5.118
 6539SOL     OW20074   2.765   3.810   3.857
 6539SOL    HW120075   2.816   3.811   3.771
 6539SOL    HW220076   2.821   3.768   3.928
 6540SOL     OW20077   3.588   3.859   4.247
 6540SOL    HW120078   3.661   3.842   4.180
 6540SOL    HW220079   3.557   3.772   4.285
 6541SOL     OW20080   3.703   3.899   4.687
 6541SOL    HW120081   3.742   3.814   4.651
 6541SOL    HW220082   3.605   3.901   4.668
 6542SOL     OW20083   2.534   3.927   5.213
 6542SOL    HW120084   2.624   3.911   5.173
 6542SOL    HW220085   2.542   3.932   5.312
 6543SOL     OW20086   1.937   4.069   3.757
 6543SOL    HW120087   1.845   4.041   3.728
 6543SOL    HW220088   1.968   4.146   3.701
 6544SOL     OW20089   1.934   3.890   4.042
 6544SOL    HW120090   1.917   3.973   3.988
 6544SOL    HW220091   2.024   3.853   4.020
 6545SOL     OW20092   3.087   4.049   4.173
 6545SOL    HW120093   3.152   3.975   4.162
 6545SOL    HW220094   3.107   4.099   4.257
 6546SOL     OW20095   3.639   4.066   5.366
 6546SOL    HW120096   3.622   4.097   5.272
 6546SOL    HW220097   3.555   4.029   5.404
 6547SOL     OW20098   3.686   3.916   4.951
 6547SOL    HW120099   3.682   3.826   4.995
 6547SOL    HW220100   3.689   3.905   4.852
 6548SOL     OW20101   3.286   3.938   4.836
 6548SOL    HW120102   3.338   3.873   4.891
 6548SOL    HW220103   3.237   4.001   4.897
 6549SOL     OW20104   2.863   3.758   4.878
 6549SOL    HW120105   2.800   3.686   4.847
 6549SOL    HW220106   2.956   3.722   4.878
 6550SOL     OW20107   3.214   3.776   3.892
 6550SOL    HW120108   3.249   3.735   3.808
 6550SOL    HW220109   3.124   3.738   3.912
 6551SOL     OW20110   3.162   4.177   4.415
 6551SOL    HW120111   3.103   4.257   4.419
 6551SOL    HW220112   3.177   4.142   4.508
 6552SOL     OW20113   3.455   3.945   4.606
 6552SOL    HW120114   3.371   3.944   4.660
 6552SOL    HW220115   3.457   4.028   4.550
 6553SOL     OW20116   2.087   3.999   6.582
 6553SOL    HW120117   2.122   3.982   6.674
 6553SOL    HW220118   1.999   3.954   6.570
 6554SOL     OW20119   1.881   4.092   6.233
 6554SOL    HW120120   1.799   4.135   6.272
 6554SOL    HW220121   1.853   4.019   6.170
 6555SOL     OW20122   3.617   4.331   5.817
 6555SOL    HW120123   3.605   4.318   5.718
 6555SOL    HW220124   3.587   4.250   5.866
 6556SOL     OW20125   2.300   4.116   7.085
 6556SOL    HW120126   2.382   4.060   7.094
 6556SOL    HW220127   2.219   4.058   7.089
 6557SOL     OW20128   3.456   3.838   7.066
 6557SOL    HW120129   3.438   3.905   6.994
 6557SOL    HW220130   3.453   3.884   7.155
 6558SOL     OW20131   2.671   3.728   6.088
 6558SOL    HW120132   2.711   3.819   6.079
 6558SOL    HW220133   2.571   3.736   6.094
 6559SOL     OW20134   3.143   4.069   6.530
 6559SOL    HW120135   3.057   4.019   6.517
 6559SOL    HW220136   3.205   4.015   6.586
 6560SOL     OW20137   2.412   3.920   6.471
 6560SOL    HW120138   2.407   3.915   6.571
 6560SOL    HW220139   2.414   4.016   6.442
 6561SOL     OW20140   2.064   4.009   7.084
 6561SOL    HW120141   1.984   4.069   7.071
 6561SOL    HW220142   2.054   3.960   7.170
 6562SOL     OW20143   3.262   3.831   6.012
 6562SOL    HW120144   3.238   3.794   5.922
 6562SOL    HW220145   3.361   3.847   6.016
 6563SOL     OW20146   3.409   3.946   7.315
 6563SOL    HW120147   3.404   3.983   7.407
 6563SOL    HW220148   3.337   3.877   7.303
 6564SOL     OW20149   2.476   3.846   5.703
 6564SOL    HW120150   2.574   3.824   5.710
 6564SOL    HW220151   2.445   3.829   5.610
 6565SOL     OW20152   2.643   3.988   7.335
 6565SOL    HW120153   2.710   3.927   7.378
 6565SOL    HW220154   2.570   4.007   7.400
 6566SOL     OW20155   2.401   3.788   6.098
 6566SOL    HW120156   2.320   3.789   6.156
 6566SOL    HW220157   2.404   3.871   6.043
 6567SOL     OW20158   2.159   3.759   5.757
 6567SOL    HW120159   2.208   3.843   5.736
 6567SOL    HW220160   2.221   3.694   5.802
 6568SOL     OW20161   2.423   3.946   6.733
 6568SOL    HW120162   2.461   3.862   6.770
 6568SOL    HW220163   2.335   3.965   6.777
 6569SOL     OW20164   2.879   3.763   6.339
 6569SOL    HW120165   2.807   3.768   6.270
 6569SOL    HW220166   2.855   3.694   6.408
 6570SOL     OW20167   2.777   3.813   6.988
 6570SOL    HW120168   2.802   3.793   6.893
 6570SOL    HW220169   2.849   3.869   7.030
 6571SOL     OW20170   3.136   4.110   6.848
 6571SOL    HW120171   3.157   4.184   6.912
 6571SOL    HW220172   3.047   4.127   6.805
 6572SOL     OW20173   2.366   3.774   7.326
 6572SOL    HW120174   2.324   3.717   7.256
 6572SOL    HW220175   2.300   3.843   7.358
 6573SOL     OW20176   2.169   3.937   6.817
 6573SOL    HW120177   2.146   3.974   6.907
 6573SOL    HW220178   2.139   3.842   6.811
 6574SOL     OW20179   3.402   3.998   5.711
 6574SOL    HW120180   3.341   3.923   5.734
 6574SOL    HW220181   3.424   4.050   5.794
 6575SOL     OW20182   3.022   3.931   7.063
 6575SOL    HW120183   3.022   3.995   7.140
 6575SOL    HW220184   3.050   3.979   6.980
 6576SOL     OW20185   2.765   3.810   5.719
 6576SOL    HW120186   2.816   3.811   5.633
 6576SOL    HW220187   2.821   3.768   5.790
 6577SOL     OW20188   3.588   3.859   6.109
 6577SOL    HW120189   3.661   3.842   6.042
 6577SOL    HW220190   3.557   3.772   6.147
 6578SOL     OW20191   3.703   3.899   6.549
 6578SOL    HW120192   3.742   3.814   6.513
 6578SOL    HW220193   3.605   3.901   6.530
 6579SOL     OW20194   2.534   3.927   7.075
 6579SOL    HW120195   2.624   3.911   7.035
 6579SOL    HW220196   2.542   3.932   7.174
 6580SOL     OW20197   1.937   4.069   5.619
 6580SOL    HW120198   1.845   4.041   5.590
 6580SOL    HW220199   1.968   4.146   5.563
 6581SOL     OW20200   1.934   3.890   5.904
 6581SOL    HW120201   1.917   3.973   5.850
 6581SOL    HW220202   2.024   3.853   5.882
 6582SOL     OW20203   3.087   4.049   6.035
 6582SOL    HW120204   3.152   3.975   6.024
 6582SOL    HW220205   3.107   4.099   6.119
 6583SOL     OW20206   3.639   4.066   7.228
 6583SOL    HW120207   3.622   4.097   7.134
 6583SOL    HW220208   3.555   4.029   7.266
 6584SOL     OW20209   3.686   3.916   6.813
 6584SOL    HW120210   3.682   3.826   6.857
 6584SOL    HW220211   3.689   3.905   6.714
 6585SOL     OW20212   3.286   3.938   6.698
 6585SOL    HW120213   3.338   3.873   6.753
 6585SOL    HW220214   3.237   4.001   6.759
 6586SOL     OW20215   2.863   3.758   6.740
 6586SOL    HW120216   2.800   3.686   6.709
 6586SOL    HW220217   2.956   3.722   6.740
 6587SOL     OW20218   3.214   3.776   5.754
 6587SOL    HW120219   3.249   3.735   5.670
 6587SOL    HW220220   3.124   3.738   5.774
 6588SOL     OW20221   3.162   4.177   6.277
 6588SOL    HW120222   3.103   4.257   6.281
 6588SOL    HW220223   3.177   4.142   6.370
 6589SOL     OW20224   3.455   3.945   6.468
 6589SOL    HW120225   3.371   3.944   6.522
 6589SOL    HW220226   3.457   4.028   6.412
 6590SOL     OW20227   2.087   3.999   8.444
 6590SOL    HW120228   2.122   3.982   8.536
 6590SOL    HW220229   1.999   3.954   8.432
 6591SOL     OW20230   1.881   4.092   8.095
 6591SOL    HW120231   1.799   4.135   8.134
 6591SOL    HW220232   1.853   4.019   8.032
 6592SOL     OW20233   3.617   4.331   7.679
 6592SOL    HW120234   3.605   4.318   7.580
 6592SOL    HW220235   3.587   4.250   7.728
 6593SOL     OW20236   2.300   4.116   8.947
 6593SOL    HW120237   2.382   4.060   8.956
 6593SOL    HW220238   2.219   4.058   8.951
 6594SOL     OW20239   3.456   3.838   8.928
 6594SOL    HW120240   3.438   3.905   8.856
 6594SOL    HW220241   3.453   3.884   9.017
 6595SOL     OW20242   2.671   3.728   7.950
 6595SOL    HW120243   2.711   3.819   7.941
 6595SOL    HW220244   2.571   3.736   7.956
 6596SOL     OW20245   3.143   4.069   8.392
 6596SOL    HW120246   3.057   4.019   8.379
 6596SOL    HW220247   3.205   4.015   8.448
 6597SOL     OW20248   2.412   3.920   8.333
 6597SOL    HW120249   2.407   3.915   8.433
 6597SOL    HW220250   2.414   4.016   8.304
 6598SOL     OW20251   2.064   4.009   8.946
 6598SOL    HW120252   1.984   4.069   8.933
 6598SOL    HW220253   2.054   3.960   9.032
 6599SOL     OW20254   3.262   3.831   7.874
 6599SOL    HW120255   3.238   3.794   7.784
 6599SOL    HW220256   3.361   3.847   7.878
 6600SOL     OW20257   3.409   3.946   9.177
 6600SOL    HW120258   3.404   3.983   9.269
 6600SOL    HW220259   3.337   3.877   9.165
 6601SOL     OW20260   2.476   3.846   7.565
 6601SOL    HW120261   2.574   3.824   7.572
 6601SOL    HW220262   2.445   3.829   7.472
 6602SOL     OW20263   2.643   3.988   9.197
 6602SOL    HW120264   2.710   3.927   9.240
 6602SOL    HW220265   2.570   4.007   9.262
 6603SOL     OW20266   2.401   3.788   7.960
 6603SOL    HW120267   2.320   3.789   8.018
 6603SOL    HW220268   2.404   3.871   7.905
 6604SOL     OW20269   2.159   3.759   7.619
 6604SOL    HW120270   2.208   3.843   7.598
 6604SOL    HW220271   2.221   3.694   7.664
 6605SOL     OW20272   2.423   3.946   8.595
 6605SOL    HW120273   2.461   3.862   8.632
 6605SOL    HW220274   2.335   3.965   8.639
 6606SOL     OW20275   2.879   3.763   8.201
 6606SOL    HW120276   2.807   3.768   8.132
 6606SOL    HW220277   2.855   3.694   8.270
 6607SOL     OW20278   2.777   3.813   8.850
 6607SOL    HW120279   2.802   3.793   8.755
 6607SOL    HW220280   2.849   3.869   8.892
 6608SOL     OW20281   3.136   4.110   8.710
 6608SOL    HW120282   3.157   4.184   8.774
 6608SOL    HW220283   3.047   4.127   8.667
 6609SOL     OW20284   2.366   3.774   9.188
 6609SOL    HW120285   2.324   3.717   9.118
 6609SOL    HW220286   2.300   3.843   9.220
 6610SOL     OW20287   2.169   3.937   8.679
 6610SOL    HW120288   2.146   3.974   8.769
 6610SOL    HW220289   2.139   3.842   8.673
 6611SOL     OW20290   3.402   3.998   7.573
 6611SOL    HW120291   3.341   3.923   7.596
 6611SOL    HW220292   3.424   4.050   7.656
 6612SOL     OW20293   3.022   3.931   8.925
 6612SOL    HW120294   3.022   3.995   9.002
 6612SOL    HW220295   3.050   3.979   8.842
 6613SOL     OW20296   2.765   3.810   7.581
 6613SOL    HW120297   2.816   3.811   7.495
 6613SOL    HW220298   2.821   3.768   7.652
 6614SOL     OW20299   3.588   3.859   7.971
 6614SOL    HW120300   3.661   3.842   7.904
 6614SOL    HW220301   3.557   3.772   8.009
 6615SOL     OW20302   3.703   3.899   8.411
 6615SOL    HW120303   3.742   3.814   8.375
 6615SOL    HW220304   3.605   3.901   8.392
 6616SOL     OW20305   2.534   3.927   8.937
 6616SOL    HW120306   2.624   3.911   8.897
 6616SOL    HW220307   2.542   3.932   9.036
 6617SOL     OW20308   1.937   4.069   7.481
 6617SOL    HW120309   1.845   4.041   7.452
 6617SOL    HW220310   1.968   4.146   7.425
 6618SOL     OW20311   1.934   3.890   7.766
 6618SOL    HW120312   1.917   3.973   7.712
 6618SOL    HW220313   2.024   3.853   7.744
 6619SOL     OW20314   3.087   4.049   7.897
 6619SOL    HW120315   3.152   3.975   7.886
 6619SOL    HW220316   3.107   4.099   7.981
 6620SOL     OW20317   3.639   4.066   9.090
 6620SOL    HW120318   3.622   4.097   8.996
 6620SOL    HW220319   3.555   4.029   9.128
 6621SOL     OW20320   3.686   3.916   8.675
 6621SOL    HW120321   3.682   3.826   8.719
 6621SOL    HW220322   3.689   3.905   8.576
 6622SOL     OW20323   3.286   3.938   8.560
 6622SOL    HW120324   3.338   3.873   8.615
 6622SOL    HW220325   3.237   4.001   8.621
 6623SOL     OW20326   2.863   3.758   8.602
 6623SOL    HW120327   2.800   3.686   8.571
 6623SOL    HW220328   2.956   3.722   8.602
 6624SOL     OW20329   3.214   3.776   7.616
 6624SOL    HW120330   3.249   3.735   7.532
 6624SOL    HW220331   3.124   3.738   7.636
 6625SOL     OW20332   3.162   4.177   8.139
 6625SOL    HW120333   3.103   4.257   8.143
 6625SOL    HW220334   3.177   4.142   8.232
 6626SOL     OW20335   3.455   3.945   8.330
 6626SOL    HW120336   3.371   3.944   8.384
 6626SOL    HW220337   3.457   4.028   8.274
 6627SOL     OW20338   2.087   3.999  10.306
 6627SOL    HW120339   2.122   3.982  10.398
 6627SOL    HW220340   1.999   3.954  10.294
 6628SOL     OW20341   1.881   4.092   9.957
 6628SOL    HW120342   1.799   4.135   9.996
 6628SOL    HW220343   1.853   4.019   9.894
 6629SOL     OW20344   3.617   4.331   9.541
 6629SOL    HW120345   3.605   4.318   9.442
 6629SOL    HW220346   3.587   4.250   9.590
 6630SOL     OW20347   2.300   4.116  10.809
 6630SOL    HW120348   2.382   4.060  10.818
 6630SOL    HW220349   2.219   4.058  10.813
 6631SOL     OW20350   3.456   3.838  10.790
 6631SOL    HW120351   3.438   3.905  10.718
 6631SOL    HW220352   3.453   3.884  10.879
 6632SOL     OW20353   2.671   3.728   9.812
 6632SOL    HW120354   2.711   3.819   9.803
 6632SOL    HW220355   2.571   3.736   9.818
 6633SOL     OW20356   3.143   4.069  10.254
 6633SOL    HW120357   3.057   4.019  10.241
 6633SOL    HW220358   3.205   4.015  10.310
 6634SOL     OW20359   2.412   3.920  10.195
 6634SOL    HW120360   2.407   3.915  10.295
 6634SOL    HW220361   2.414   4.016  10.166
 6635SOL     OW20362   2.064   4.009  10.808
 6635SOL    HW120363   1.984   4.069  10.795
 6635SOL    HW220364   2.054   3.960  10.894
 6636SOL     OW20365   3.262   3.831   9.736
 6636SOL    HW120366   3.238   3.794   9.646
 6636SOL    HW220367   3.361   3.847   9.740
 6637SOL     OW20368   3.409   3.946  11.039
 6637SOL    HW120369   3.404   3.983  11.131
 6637SOL    HW220370   3.337   3.877  11.027
 6638SOL     OW20371   2.476   3.846   9.427
 6638SOL    HW120372   2.574   3.824   9.434
 6638SOL    HW220373   2.445   3.829   9.334
 6639SOL     OW20374   2.643   3.988  11.059
 6639SOL    HW120375   2.710   3.927  11.102
 6639SOL    HW220376   2.570   4.007  11.124
 6640SOL     OW20377   2.401   3.788   9.822
 6640SOL    HW120378   2.320   3.789   9.880
 6640SOL    HW220379   2.404   3.871   9.767
 6641SOL     OW20380   2.159   3.759   9.481
 6641SOL    HW120381   2.208   3.843   9.460
 6641SOL    HW220382   2.221   3.694   9.526
 6642SOL     OW20383   2.423   3.946  10.457
 6642SOL    HW120384   2.461   3.862  10.494
 6642SOL    HW220385   2.335   3.965  10.501
 6643SOL     OW20386   2.879   3.763  10.063
 6643SOL    HW120387   2.807   3.768   9.994
 6643SOL    HW220388   2.855   3.694  10.132
 6644SOL     OW20389   2.777   3.813  10.712
 6644SOL    HW120390   2.802   3.793  10.617
 6644SOL    HW220391   2.849   3.869  10.754
 6645SOL     OW20392   3.136   4.110  10.572
 6645SOL    HW120393   3.157   4.184  10.636
 6645SOL    HW220394   3.047   4.127  10.529
 6646SOL     OW20395   2.366   3.774  11.050
 6646SOL    HW120396   2.324   3.717  10.980
 6646SOL    HW220397   2.300   3.843  11.082
 6647SOL     OW20398   2.169   3.937  10.541
 6647SOL    HW120399   2.146   3.974  10.631
 6647SOL    HW220400   2.139   3.842  10.535
 6648SOL     OW20401   3.402   3.998   9.435
 6648SOL    HW120402   3.341   3.923   9.458
 6648SOL    HW220403   3.424   4.050   9.518
 6649SOL     OW20404   3.022   3.931  10.787
 6649SOL    HW120405   3.022   3.995  10.864
 6649SOL    HW220406   3.050   3.979  10.704
 6650SOL     OW20407   2.765   3.810   9.443
 6650SOL    HW120408   2.816   3.811   9.357
 6650SOL    HW220409   2.821   3.768   9.514
 6651SOL     OW20410   3.588   3.859   9.833
 6651SOL    HW120411   3.661   3.842   9.766
 6651SOL    HW220412   3.557   3.772   9.871
 6652SOL     OW20413   3.703   3.899  10.273
 6652SOL    HW120414   3.742   3.814  10.237
 6652SOL    HW220415   3.605   3.901  10.254
 6653SOL     OW20416   2.534   3.927  10.799
 6653SOL    HW120417   2.624   3.911  10.759
 6653SOL    HW220418   2.542   3.932  10.898
 6654SOL     OW20419   1.937   4.069   9.343
 6654SOL    HW120420   1.845   4.041   9.314
 6654SOL    HW220421   1.968   4.146   9.287
 6655SOL     OW20422   1.934   3.890   9.628
 6655SOL    HW120423   1.917   3.973   9.574
 6655SOL    HW220424   2.024   3.853   9.606
 6656SOL     OW20425   3.087   4.049   9.759
 6656SOL    HW120426   3.152   3.975   9.748
 6656SOL    HW220427   3.107   4.099   9.843
 6657SOL     OW20428   3.639   4.066  10.952
 6657SOL    HW120429   3.622   4.097  10.858
 6657SOL    HW220430   3.555   4.029  10.990
 6658SOL     OW20431   3.686   3.916  10.537
 6658SOL    HW120432   3.682   3.826  10.581
 6658SOL    HW220433   3.689   3.905  10.438
 6659SOL     OW20434   3.286   3.938  10.422
 6659SOL    HW120435   3.338   3.873  10.477
 6659SOL    HW220436   3.237   4.001  10.483
 6660SOL     OW20437   2.863   3.758  10.464
 6660SOL    HW120438   2.800   3.686  10.433
 6660SOL    HW220439   2.956   3.722  10.464
 6661SOL     OW20440   3.214   3.776   9.478
 6661SOL    HW120441   3.249   3.735   9.394
 6661SOL    HW220442   3.124   3.738   9.498
 6662SOL     OW20443   3.162   4.177  10.001
 6662SOL    HW120444   3.103   4.257  10.005
 6662SOL    HW220445   3.177   4.142  10.094
 6663SOL     OW20446   3.455   3.945  10.192
 6663SOL    HW120447   3.371   3.944  10.246
 6663SOL    HW220448   3.457   4.028  10.136
 6664SOL     OW20449   2.087   3.999  12.168
 6664SOL    HW120450   2.122   3.982  12.260
 6664SOL    HW220451   1.999   3.954  12.156
 6665SOL     OW20452   1.881   4.092  11.819
 6665SOL    HW120453   1.799   4.135  11.858
 6665SOL    HW220454   1.853   4.019  11.756
 6666SOL     OW20455   3.617   4.331  11.403
 6666SOL    HW120456   3.605   4.318  11.304
 6666SOL    HW220457   3.587   4.250  11.452
 6667SOL     OW20458   2.300   4.116  12.671
 6667SOL    HW120459   2.382   4.060  12.680
 6667SOL    HW220460   2.219   4.058  12.675
 6668SOL     OW20461   3.456   3.838  12.652
 6668SOL    HW120462   3.438   3.905  12.580
 6668SOL    HW220463   3.453   3.884  12.741
 6669SOL     OW20464   2.671   3.728  11.674
 6669SOL    HW120465   2.711   3.819  11.665
 6669SOL    HW220466   2.571   3.736  11.680
 6670SOL     OW20467   3.143   4.069  12.116
 6670SOL    HW120468   3.057   4.019  12.103
 6670SOL    HW220469   3.205   4.015  12.172
 6671SOL     OW20470   2.412   3.920  12.057
 6671SOL    HW120471   2.407   3.915  12.157
 6671SOL    HW220472   2.414   4.016  12.028
 6672SOL     OW20473   2.064   4.009  12.670
 6672SOL    HW120474   1.984   4.069  12.657
 6672SOL    HW220475   2.054   3.960  12.756
 6673SOL     OW20476   3.262   3.831  11.598
 6673SOL    HW120477   3.238   3.794  11.508
 6673SOL    HW220478   3.361   3.847  11.602
 6674SOL     OW20479   3.409   3.946  12.901
 6674SOL    HW120480   3.404   3.983  12.993
 6674SOL    HW220481   3.337   3.877  12.889
 6675SOL     OW20482   2.476   3.846  11.289
 6675SOL    HW120483   2.574   3.824  11.296
 6675SOL    HW220484   2.445   3.829  11.196
 6676SOL     OW20485   2.643   3.988  12.921
 6676SOL    HW120486   2.710   3.927  12.964
 6676SOL    HW220487   2.570   4.007  12.986
 6677SOL     OW20488   2.401   3.788  11.684
 6677SOL    HW120489   2.320   3.789  11.742
 6677SOL    HW220490   2.404   3.871  11.629
 6678SOL     OW20491   2.159   3.759  11.343
 6678SOL    HW120492   2.208   3.843  11.322
 6678SOL    HW220493   2.221   3.694  11.388
 6679SOL     OW20494   2.423   3.946  12.319
 6679SOL    HW120495   2.461   3.862  12.356
 6679SOL    HW220496   2.335   3.965  12.363
 6680SOL     OW20497   2.879   3.763  11.925
 6680SOL    HW120498   2.807   3.768  11.856
 6680SOL    HW220499   2.855   3.694  11.994
 6681SOL     OW20500   2.777   3.813  12.574
 6681SOL    HW120501   2.802   3.793  12.479
 6681SOL    HW220502   2.849   3.869  12.616
 6682SOL     OW20503   3.136   4.110  12.434
 6682SOL    HW120504   3.157   4.184  12.498
 6682SOL    HW220505   3.047   4.127  12.391
 6683SOL     OW20506   2.366   3.774  12.912
 6683SOL    HW120507   2.324   3.717  12.842
 6683SOL    HW220508   2.300   3.843  12.944
 6684SOL     OW20509   2.169   3.937  12.403
 6684SOL    HW120510   2.146   3.974  12.493
 6684SOL    HW220511   2.139   3.842  12.397
 6685SOL     OW20512   3.402   3.998  11.297
 6685SOL    HW120513   3.341   3.923  11.320
 6685SOL    HW220514   3.424   4.050  11.380
 6686SOL     OW20515   3.022   3.931  12.649
 6686SOL    HW120516   3.022   3.995  12.726
 6686SOL    HW220517   3.050   3.979  12.566
 6687SOL     OW20518   2.765   3.810  11.305
 6687SOL    HW120519   2.816   3.811  11.219
 6687SOL    HW220520   2.821   3.768  11.376
 6688SOL     OW20521   3.588   3.859  11.695
 6688SOL    HW120522   3.661   3.842  11.628
 6688SOL    HW220523   3.557   3.772  11.733
 6689SOL     OW20524   3.703   3.899  12.135
 6689SOL    HW120525   3.742   3.814  12.099
 6689SOL    HW220526   3.605   3.901  12.116
 6690SOL     OW20527   2.534   3.927  12.661
 6690SOL    HW120528   2.624   3.911  12.621
 6690SOL    HW220529   2.542   3.932  12.760
 6691SOL     OW20530   1.937   4.069  11.205
 6691SOL    HW120531   1.845   4.041  11.176
 6691SOL    HW220532   1.968   4.146  11.149
 6692SOL     OW20533   1.934   3.890  11.490
 6692SOL    HW120534   1.917   3.973  11.436
 6692SOL    HW220535   2.024   3.853  11.468
 6693SOL     OW20536   3.087   4.049  11.621
 6693SOL    HW120537   3.152   3.975  11.610
 6693SOL    HW220538   3.107   4.099  11.705
 6694SOL     OW20539   3.639   4.066  12.814
 6694SOL    HW120540   3.622   4.097  12.720
 6694SOL    HW220541   3.555   4.029  12.852
 6695SOL     OW20542   3.686   3.916  12.399
 6695SOL    HW120543   3.682   3.826  12.443
 6695SOL    HW220544   3.689   3.905  12.300
 6696SOL     OW20545   3.286   3.938  12.284
 6696SOL    HW120546   3.338   3.873  12.339
 6696SOL    HW220547   3.237   4.001  12.345
 6697SOL     OW20548   2.863   3.758  12.326
 6697SOL    HW120549   2.800   3.686  12.295
 6697SOL    HW220550   2.956   3.722  12.326
 6698SOL     OW20551   3.214   3.776  11.340
 6698SOL    HW120552   3.249   3.735  11.256
 6698SOL    HW220553   3.124   3.738  11.360
 6699SOL     OW20554   3.162   4.177  11.863
 6699SOL    HW120555   3.103   4.257  11.867
 6699SOL    HW220556   3.177   4.142  11.956
 6700SOL     OW20557   3.455   3.945  12.054
 6700SOL    HW120558   3.371   3.944  12.108
 6700SOL    HW220559   3.457   4.028  11.998
 6701SOL     OW20560   1.881   4.092  13.681
 6701SOL    HW120561   1.799   4.135  13.720
 6701SOL    HW220562   1.853   4.019  13.618
 6702SOL     OW20563   3.617   4.331  13.265
 6702SOL    HW120564   3.605   4.318  13.166
 6702SOL    HW220565   3.587   4.250  13.314
 6703SOL     OW20566   3.465   4.171  13.771
 6703SOL    HW120567   3.391   4.217  13.721
 6703SOL    HW220568   3.516   4.239  13.824
 6704SOL     OW20569   2.671   3.728  13.536
 6704SOL    HW120570   2.711   3.819  13.527
 6704SOL    HW220571   2.571   3.736  13.542
 6705SOL     OW20572   3.262   3.831  13.460
 6705SOL    HW120573   3.238   3.794  13.370
 6705SOL    HW220574   3.361   3.847  13.464
 6706SOL     OW20575   2.476   3.846  13.151
 6706SOL    HW120576   2.574   3.824  13.158
 6706SOL    HW220577   2.445   3.829  13.058
 6707SOL     OW20578   2.401   3.788  13.546
 6707SOL    HW120579   2.320   3.789  13.604
 6707SOL    HW220580   2.404   3.871  13.491
 6708SOL     OW20581   2.159   3.759  13.205
 6708SOL    HW120582   2.208   3.843  13.184
 6708SOL    HW220583   2.221   3.694  13.250
 6709SOL     OW20584   2.879   3.763  13.787
 6709SOL    HW120585   2.807   3.768  13.718
 6709SOL    HW220586   2.855   3.694  13.856
 6710SOL     OW20587   3.402   3.998  13.159
 6710SOL    HW120588   3.341   3.923  13.182
 6710SOL    HW220589   3.424   4.050  13.242
 6711SOL     OW20590   2.765   3.810  13.167
 6711SOL    HW120591   2.816   3.811  13.081
 6711SOL    HW220592   2.821   3.768  13.238
 6712SOL     OW20593   3.588   3.859  13.557
 6712SOL    HW120594   3.661   3.842  13.490
 6712SOL    HW220595   3.557   3.772  13.595
 6713SOL     OW20596   3.703   3.899  13.997
 6713SOL    HW120597   3.742   3.814  13.961
 6713SOL    HW220598   3.605   3.901  13.978
 6714SOL     OW20599   1.937   4.069  13.067
 6714SOL    HW120600   1.845   4.041  13.038
 6714SOL    HW220601   1.968   4.146  13.011
 6715SOL     OW20602   1.934   3.890  13.352
 6715SOL    HW120603   1.917   3.973  13.298
 6715SOL    HW220604   2.024   3.853  13.330
 6716SOL     OW20605   3.087   4.049  13.483
 6716SOL    HW120606   3.152   3.975  13.472
 6716SOL    HW220607   3.107   4.099  13.567
 6717SOL     OW20608   3.214   3.776  13.202
 6717SOL    HW120609   3.249   3.735  13.118
 6717SOL    HW220610   3.124   3.738  13.222
 6718SOL     OW20611   3.162   4.177  13.725
 6718SOL    HW120612   3.103   4.257  13.729
 6718SOL    HW220613   3.177   4.142  13.818
 6719SOL     OW20614   3.954   0.628   0.113
 6719SOL    HW120615   3.861   0.626   0.150
 6719SOL    HW220616   3.955   0.589   0.021
 6720SOL     OW20617   3.949   0.275   0.996
 6720SOL    HW120618   3.984   0.258   1.088
 6720SOL    HW220619   3.861   0.230   0.984
 6721SOL     OW20620   3.743   0.368   0.647
 6721SOL    HW120621   3.661   0.411   0.686
 6721SOL    HW220622   3.715   0.295   0.584
 6722SOL     OW20623   4.059   1.435   1.061
 6722SOL    HW120624   3.981   1.404   1.008
 6722SOL    HW220625   4.117   1.493   1.004
 6723SOL     OW20626   3.955   1.713   0.483
 6723SOL    HW120627   3.989   1.790   0.537
 6723SOL    HW220628   3.999   1.713   0.393
 6724SOL     OW20629   3.954   1.434   0.538
 6724SOL    HW120630   3.928   1.530   0.538
 6724SOL    HW220631   3.883   1.380   0.583
 6725SOL     OW20632   3.846   0.643   0.563
 6725SOL    HW120633   3.801   0.555   0.580
 6725SOL    HW220634   3.845   0.697   0.647
 6726SOL     OW20635   3.751   1.596   0.117
 6726SOL    HW120636   3.732   1.500   0.138
 6726SOL    HW220637   3.718   1.654   0.192
 6727SOL     OW20638   3.837   0.737   1.597
 6727SOL    HW120639   3.925   0.724   1.642
 6727SOL    HW220640   3.824   0.834   1.575
 6728SOL     OW20641   3.800   0.811   0.789
 6728SOL    HW120642   3.899   0.799   0.798
 6728SOL    HW220643   3.776   0.906   0.810
 6729SOL     OW20644   3.854   1.821   1.571
 6729SOL    HW120645   3.844   1.806   1.670
 6729SOL    HW220646   3.768   1.857   1.535
 6730SOL     OW20647   3.926   0.285   1.498
 6730SOL    HW120648   3.846   0.345   1.485
 6730SOL    HW220649   3.916   0.236   1.584
 6731SOL     OW20650   3.802   0.556   1.386
 6731SOL    HW120651   3.894   0.555   1.345
 6731SOL    HW220652   3.796   0.630   1.453
 6732SOL     OW20653   3.788   1.564   1.331
 6732SOL    HW120654   3.742   1.646   1.297
 6732SOL    HW220655   3.886   1.583   1.340
 6733SOL     OW20656   4.091   1.100   0.501
 6733SOL    HW120657   4.084   1.183   0.445
 6733SOL    HW220658   4.095   1.020   0.441
 6734SOL     OW20659   4.031   0.213   1.231
 6734SOL    HW120660   4.008   0.250   1.321
 6734SOL    HW220661   4.001   0.118   1.225
 6735SOL     OW20662   3.761   1.310   1.282
 6735SOL    HW120663   3.814   1.261   1.350
 6735SOL    HW220664   3.783   1.408   1.287
 6736SOL     OW20665   3.732   1.326   0.200
 6736SOL    HW120666   3.639   1.347   0.169
 6736SOL    HW220667   3.742   1.227   0.213
 6737SOL     OW20668   3.812   1.801   0.927
 6737SOL    HW120669   3.770   1.715   0.900
 6737SOL    HW220670   3.906   1.804   0.893
 6738SOL     OW20671   4.228   1.568   0.910
 6738SOL    HW120672   4.294   1.642   0.919
 6738SOL    HW220673   4.272   1.489   0.868
 6739SOL     OW20674   3.764   0.544   1.114
 6739SOL    HW120675   3.849   0.511   1.073
 6739SOL    HW220676   3.777   0.559   1.212
 6740SOL     OW20677   3.913   0.520   1.722
 6740SOL    HW120678   3.972   0.480   1.652
 6740SOL    HW220679   3.855   0.591   1.681
 6741SOL     OW20680   3.976   1.564   1.744
 6741SOL    HW120681   3.946   1.621   1.820
 6741SOL    HW220682   3.969   1.467   1.770
 6742SOL     OW20683   3.883   1.137   1.466
 6742SOL    HW120684   3.905   1.076   1.542
 6742SOL    HW220685   3.893   1.088   1.380
 6743SOL     OW20686   3.807   1.258   1.022
 6743SOL    HW120687   3.802   1.257   1.122
 6743SOL    HW220688   3.724   1.217   0.984
 6744SOL     OW20689   3.854   1.794   1.851
 6744SOL    HW120690   3.813   1.720   1.904
 6744SOL    HW220691   3.918   1.845   1.909
 6745SOL     OW20692   3.799   0.345   0.033
 6745SOL    HW120693   3.707   0.317   0.004
 6745SOL    HW220694   3.830   0.422  -0.023
 6746SOL     OW20695   3.796   0.166   0.318
 6746SOL    HW120696   3.779   0.249   0.264
 6746SOL    HW220697   3.886   0.129   0.296
 6747SOL     OW20698   3.803   1.240   0.653
 6747SOL    HW120699   3.802   1.193   0.741
 6747SOL    HW220700   3.885   1.212   0.602
 6748SOL     OW20701   3.763   1.077   0.300
 6748SOL    HW120702   3.862   1.066   0.291
 6748SOL    HW220703   3.723   0.991   0.332
 6749SOL     OW20704   3.954   0.628   1.975
 6749SOL    HW120705   3.861   0.626   2.012
 6749SOL    HW220706   3.955   0.589   1.883
 6750SOL     OW20707   3.949   0.275   2.858
 6750SOL    HW120708   3.984   0.258   2.950
 6750SOL    HW220709   3.861   0.230   2.846
 6751SOL     OW20710   3.743   0.368   2.509
 6751SOL    HW120711   3.661   0.411   2.548
 6751SOL    HW220712   3.715   0.295   2.446
 6752SOL     OW20713   4.059   1.435   2.923
 6752SOL    HW120714   3.981   1.404   2.870
 6752SOL    HW220715   4.117   1.493   2.866
 6753SOL     OW20716   3.955   1.713   2.345
 6753SOL    HW120717   3.989   1.790   2.399
 6753SOL    HW220718   3.999   1.713   2.255
 6754SOL     OW20719   3.954   1.434   2.400
 6754SOL    HW120720   3.928   1.530   2.400
 6754SOL    HW220721   3.883   1.380   2.445
 6755SOL     OW20722   3.846   0.643   2.425
 6755SOL    HW120723   3.801   0.555   2.442
 6755SOL    HW220724   3.845   0.697   2.509
 6756SOL     OW20725   3.751   1.596   1.979
 6756SOL    HW120726   3.732   1.500   2.000
 6756SOL    HW220727   3.718   1.654   2.054
 6757SOL     OW20728   3.837   0.737   3.459
 6757SOL    HW120729   3.925   0.724   3.504
 6757SOL    HW220730   3.824   0.834   3.437
 6758SOL     OW20731   3.800   0.811   2.651
 6758SOL    HW120732   3.899   0.799   2.660
 6758SOL    HW220733   3.776   0.906   2.672
 6759SOL     OW20734   3.854   1.821   3.433
 6759SOL    HW120735   3.844   1.806   3.532
 6759SOL    HW220736   3.768   1.857   3.397
 6760SOL     OW20737   3.926   0.285   3.360
 6760SOL    HW120738   3.846   0.345   3.347
 6760SOL    HW220739   3.916   0.236   3.446
 6761SOL     OW20740   3.802   0.556   3.248
 6761SOL    HW120741   3.894   0.555   3.207
 6761SOL    HW220742   3.796   0.630   3.315
 6762SOL     OW20743   4.251   0.256   2.190
 6762SOL    HW120744   4.278   0.197   2.115
 6762SOL    HW220745   4.251   0.351   2.159
 6763SOL     OW20746   3.788   1.564   3.193
 6763SOL    HW120747   3.742   1.646   3.159
 6763SOL    HW220748   3.886   1.583   3.202
 6764SOL     OW20749   4.091   1.100   2.363
 6764SOL    HW120750   4.084   1.183   2.307
 6764SOL    HW220751   4.095   1.020   2.303
 6765SOL     OW20752   4.031   0.213   3.093
 6765SOL    HW120753   4.008   0.250   3.183
 6765SOL    HW220754   4.001   0.118   3.087
 6766SOL     OW20755   3.761   1.310   3.144
 6766SOL    HW120756   3.814   1.261   3.212
 6766SOL    HW220757   3.783   1.408   3.149
 6767SOL     OW20758   3.732   1.326   2.062
 6767SOL    HW120759   3.639   1.347   2.031
 6767SOL    HW220760   3.742   1.227   2.075
 6768SOL     OW20761   3.812   1.801   2.789
 6768SOL    HW120762   3.770   1.715   2.762
 6768SOL    HW220763   3.906   1.804   2.755
 6769SOL     OW20764   4.228   1.568   2.772
 6769SOL    HW120765   4.294   1.642   2.781
 6769SOL    HW220766   4.272   1.489   2.730
 6770SOL     OW20767   3.764   0.544   2.976
 6770SOL    HW120768   3.849   0.511   2.935
 6770SOL    HW220769   3.777   0.559   3.074
 6771SOL     OW20770   3.913   0.520   3.584
 6771SOL    HW120771   3.972   0.480   3.514
 6771SOL    HW220772   3.855   0.591   3.543
 6772SOL     OW20773   3.976   1.564   3.606
 6772SOL    HW120774   3.946   1.621   3.682
 6772SOL    HW220775   3.969   1.467   3.632
 6773SOL     OW20776   3.883   1.137   3.328
 6773SOL    HW120777   3.905   1.076   3.404
 6773SOL    HW220778   3.893   1.088   3.242
 6774SOL     OW20779   3.807   1.258   2.884
 6774SOL    HW120780   3.802   1.257   2.984
 6774SOL    HW220781   3.724   1.217   2.846
 6775SOL     OW20782   3.854   1.794   3.713
 6775SOL    HW120783   3.813   1.720   3.766
 6775SOL    HW220784   3.918   1.845   3.771
 6776SOL     OW20785   3.799   0.345   1.895
 6776SOL    HW120786   3.707   0.317   1.866
 6776SOL    HW220787   3.830   0.422   1.839
 6777SOL     OW20788   3.796   0.166   2.180
 6777SOL    HW120789   3.779   0.249   2.126
 6777SOL    HW220790   3.886   0.129   2.158
 6778SOL     OW20791   3.803   1.240   2.515
 6778SOL    HW120792   3.802   1.193   2.603
 6778SOL    HW220793   3.885   1.212   2.464
 6779SOL     OW20794   3.763   1.077   2.162
 6779SOL    HW120795   3.862   1.066   2.153
 6779SOL    HW220796   3.723   0.991   2.194
 6780SOL     OW20797   3.954   0.628   3.837
 6780SOL    HW120798   3.861   0.626   3.874
 6780SOL    HW220799   3.955   0.589   3.745
 6781SOL     OW20800   3.949   0.275   4.720
 6781SOL    HW120801   3.984   0.258   4.812
 6781SOL    HW220802   3.861   0.230   4.708
 6782SOL     OW20803   3.743   0.368   4.371
 6782SOL    HW120804   3.661   0.411   4.410
 6782SOL    HW220805   3.715   0.295   4.308
 6783SOL     OW20806   4.059   1.435   4.785
 6783SOL    HW120807   3.981   1.404   4.732
 6783SOL    HW220808   4.117   1.493   4.728
 6784SOL     OW20809   3.955   1.713   4.207
 6784SOL    HW120810   3.989   1.790   4.261
 6784SOL    HW220811   3.999   1.713   4.117
 6785SOL     OW20812   3.954   1.434   4.262
 6785SOL    HW120813   3.928   1.530   4.262
 6785SOL    HW220814   3.883   1.380   4.307
 6786SOL     OW20815   3.846   0.643   4.287
 6786SOL    HW120816   3.801   0.555   4.304
 6786SOL    HW220817   3.845   0.697   4.371
 6787SOL     OW20818   3.751   1.596   3.841
 6787SOL    HW120819   3.732   1.500   3.862
 6787SOL    HW220820   3.718   1.654   3.916
 6788SOL     OW20821   3.837   0.737   5.321
 6788SOL    HW120822   3.925   0.724   5.366
 6788SOL    HW220823   3.824   0.834   5.299
 6789SOL     OW20824   3.800   0.811   4.513
 6789SOL    HW120825   3.899   0.799   4.522
 6789SOL    HW220826   3.776   0.906   4.534
 6790SOL     OW20827   3.854   1.821   5.295
 6790SOL    HW120828   3.844   1.806   5.394
 6790SOL    HW220829   3.768   1.857   5.259
 6791SOL     OW20830   3.926   0.285   5.222
 6791SOL    HW120831   3.846   0.345   5.209
 6791SOL    HW220832   3.916   0.236   5.308
 6792SOL     OW20833   3.802   0.556   5.110
 6792SOL    HW120834   3.894   0.555   5.069
 6792SOL    HW220835   3.796   0.630   5.177
 6793SOL     OW20836   4.251   0.256   4.052
 6793SOL    HW120837   4.278   0.197   3.977
 6793SOL    HW220838   4.251   0.351   4.021
 6794SOL     OW20839   3.788   1.564   5.055
 6794SOL    HW120840   3.742   1.646   5.021
 6794SOL    HW220841   3.886   1.583   5.064
 6795SOL     OW20842   4.091   1.100   4.225
 6795SOL    HW120843   4.084   1.183   4.169
 6795SOL    HW220844   4.095   1.020   4.165
 6796SOL     OW20845   4.031   0.213   4.955
 6796SOL    HW120846   4.008   0.250   5.045
 6796SOL    HW220847   4.001   0.118   4.949
 6797SOL     OW20848   3.761   1.310   5.006
 6797SOL    HW120849   3.814   1.261   5.074
 6797SOL    HW220850   3.783   1.408   5.011
 6798SOL     OW20851   3.732   1.326   3.924
 6798SOL    HW120852   3.639   1.347   3.893
 6798SOL    HW220853   3.742   1.227   3.937
 6799SOL     OW20854   3.812   1.801   4.651
 6799SOL    HW120855   3.770   1.715   4.624
 6799SOL    HW220856   3.906   1.804   4.617
 6800SOL     OW20857   4.228   1.568   4.634
 6800SOL    HW120858   4.294   1.642   4.643
 6800SOL    HW220859   4.272   1.489   4.592
 6801SOL     OW20860   3.764   0.544   4.838
 6801SOL    HW120861   3.849   0.511   4.797
 6801SOL    HW220862   3.777   0.559   4.936
 6802SOL     OW20863   3.913   0.520   5.446
 6802SOL    HW120864   3.972   0.480   5.376
 6802SOL    HW220865   3.855   0.591   5.405
 6803SOL     OW20866   3.976   1.564   5.468
 6803SOL    HW120867   3.946   1.621   5.544
 6803SOL    HW220868   3.969   1.467   5.494
 6804SOL     OW20869   3.883   1.137   5.190
 6804SOL    HW120870   3.905   1.076   5.266
 6804SOL    HW220871   3.893   1.088   5.104
 6805SOL     OW20872   3.807   1.258   4.746
 6805SOL    HW120873   3.802   1.257   4.846
 6805SOL    HW220874   3.724   1.217   4.708
 6806SOL     OW20875   3.854   1.794   5.575
 6806SOL    HW120876   3.813   1.720   5.628
 6806SOL    HW220877   3.918   1.845   5.633
 6807SOL     OW20878   3.799   0.345   3.757
 6807SOL    HW120879   3.707   0.317   3.728
 6807SOL    HW220880   3.830   0.422   3.701
 6808SOL     OW20881   3.796   0.166   4.042
 6808SOL    HW120882   3.779   0.249   3.988
 6808SOL    HW220883   3.886   0.129   4.020
 6809SOL     OW20884   3.803   1.240   4.377
 6809SOL    HW120885   3.802   1.193   4.465
 6809SOL    HW220886   3.885   1.212   4.326
 6810SOL     OW20887   3.763   1.077   4.024
 6810SOL    HW120888   3.862   1.066   4.015
 6810SOL    HW220889   3.723   0.991   4.056
 6811SOL     OW20890   3.954   0.628   5.699
 6811SOL    HW120891   3.861   0.626   5.736
 6811SOL    HW220892   3.955   0.589   5.607
 6812SOL     OW20893   3.949   0.275   6.582
 6812SOL    HW120894   3.984   0.258   6.674
 6812SOL    HW220895   3.861   0.230   6.570
 6813SOL     OW20896   3.743   0.368   6.233
 6813SOL    HW120897   3.661   0.411   6.272
 6813SOL    HW220898   3.715   0.295   6.170
 6814SOL     OW20899   4.059   1.435   6.647
 6814SOL    HW120900   3.981   1.404   6.594
 6814SOL    HW220901   4.117   1.493   6.590
 6815SOL     OW20902   3.955   1.713   6.069
 6815SOL    HW120903   3.989   1.790   6.123
 6815SOL    HW220904   3.999   1.713   5.979
 6816SOL     OW20905   3.954   1.434   6.124
 6816SOL    HW120906   3.928   1.530   6.124
 6816SOL    HW220907   3.883   1.380   6.169
 6817SOL     OW20908   3.846   0.643   6.149
 6817SOL    HW120909   3.801   0.555   6.166
 6817SOL    HW220910   3.845   0.697   6.233
 6818SOL     OW20911   3.751   1.596   5.703
 6818SOL    HW120912   3.732   1.500   5.724
 6818SOL    HW220913   3.718   1.654   5.778
 6819SOL     OW20914   3.837   0.737   7.183
 6819SOL    HW120915   3.925   0.724   7.228
 6819SOL    HW220916   3.824   0.834   7.161
 6820SOL     OW20917   3.800   0.811   6.375
 6820SOL    HW120918   3.899   0.799   6.384
 6820SOL    HW220919   3.776   0.906   6.396
 6821SOL     OW20920   3.854   1.821   7.157
 6821SOL    HW120921   3.844   1.806   7.256
 6821SOL    HW220922   3.768   1.857   7.121
 6822SOL     OW20923   3.926   0.285   7.084
 6822SOL    HW120924   3.846   0.345   7.071
 6822SOL    HW220925   3.916   0.236   7.170
 6823SOL     OW20926   3.802   0.556   6.972
 6823SOL    HW120927   3.894   0.555   6.931
 6823SOL    HW220928   3.796   0.630   7.039
 6824SOL     OW20929   4.251   0.256   5.914
 6824SOL    HW120930   4.278   0.197   5.839
 6824SOL    HW220931   4.251   0.351   5.883
 6825SOL     OW20932   3.788   1.564   6.917
 6825SOL    HW120933   3.742   1.646   6.883
 6825SOL    HW220934   3.886   1.583   6.926
 6826SOL     OW20935   4.091   1.100   6.087
 6826SOL    HW120936   4.084   1.183   6.031
 6826SOL    HW220937   4.095   1.020   6.027
 6827SOL     OW20938   4.031   0.213   6.817
 6827SOL    HW120939   4.008   0.250   6.907
 6827SOL    HW220940   4.001   0.118   6.811
 6828SOL     OW20941   3.761   1.310   6.868
 6828SOL    HW120942   3.814   1.261   6.936
 6828SOL    HW220943   3.783   1.408   6.873
 6829SOL     OW20944   3.732   1.326   5.786
 6829SOL    HW120945   3.639   1.347   5.755
 6829SOL    HW220946   3.742   1.227   5.799
 6830SOL     OW20947   3.812   1.801   6.513
 6830SOL    HW120948   3.770   1.715   6.486
 6830SOL    HW220949   3.906   1.804   6.479
 6831SOL     OW20950   4.228   1.568   6.496
 6831SOL    HW120951   4.294   1.642   6.505
 6831SOL    HW220952   4.272   1.489   6.454
 6832SOL     OW20953   3.764   0.544   6.700
 6832SOL    HW120954   3.849   0.511   6.659
 6832SOL    HW220955   3.777   0.559   6.798
 6833SOL     OW20956   3.913   0.520   7.308
 6833SOL    HW120957   3.972   0.480   7.238
 6833SOL    HW220958   3.855   0.591   7.267
 6834SOL     OW20959   3.976   1.564   7.330
 6834SOL    HW120960   3.946   1.621   7.406
 6834SOL    HW220961   3.969   1.467   7.356
 6835SOL     OW20962   3.883   1.137   7.052
 6835SOL    HW120963   3.905   1.076   7.128
 6835SOL    HW220964   3.893   1.088   6.966
 6836SOL     OW20965   3.807   1.258   6.608
 6836SOL    HW120966   3.802   1.257   6.708
 6836SOL    HW220967   3.724   1.217   6.570
 6837SOL     OW20968   3.854   1.794   7.437
 6837SOL    HW120969   3.813   1.720   7.490
 6837SOL    HW220970   3.918   1.845   7.495
 6838SOL     OW20971   3.799   0.345   5.619
 6838SOL    HW120972   3.707   0.317   5.590
 6838SOL    HW220973   3.830   0.422   5.563
 6839SOL     OW20974   3.796   0.166   5.904
 6839SOL    HW120975   3.779   0.249   5.850
 6839SOL    HW220976   3.886   0.129   5.882
 6840SOL     OW20977   3.803   1.240   6.239
 6840SOL    HW120978   3.802   1.193   6.327
 6840SOL    HW220979   3.885   1.212   6.188
 6841SOL     OW20980   3.763   1.077   5.886
 6841SOL    HW120981   3.862   1.066   5.877
 6841SOL    HW220982   3.723   0.991   5.918
 6842SOL     OW20983   3.954   0.628   7.561
 6842SOL    HW120984   3.861   0.626   7.598
 6842SOL    HW220985   3.955   0.589   7.469
 6843SOL     OW20986   3.949   0.275   8.444
 6843SOL    HW120987   3.984   0.258   8.536
 6843SOL    HW220988   3.861   0.230   8.432
 6844SOL     OW20989   3.743   0.368   8.095
 6844SOL    HW120990   3.661   0.411   8.134
 6844SOL    HW220991   3.715   0.295   8.032
 6845SOL     OW20992   4.059   1.435   8.509
 6845SOL    HW120993   3.981   1.404   8.456
 6845SOL    HW220994   4.117   1.493   8.452
 6846SOL     OW20995   3.955   1.713   7.931
 6846SOL    HW120996   3.989   1.790   7.985
 6846SOL    HW220997   3.999   1.713   7.841
 6847SOL     OW20998   3.954   1.434   7.986
 6847SOL    HW120999   3.928   1.530   7.986
 6847SOL    HW221000   3.883   1.380   8.031
 6848SOL     OW21001   3.846   0.643   8.011
 6848SOL    HW121002   3.801   0.555   8.028
 6848SOL    HW221003   3.845   0.697   8.095
 6849SOL     OW21004   3.751   1.596   7.565
 6849SOL    HW121005   3.732   1.500   7.586
 6849SOL    HW221006   3.718   1.654   7.640
 6850SOL     OW21007   3.837   0.737   9.045
 6850SOL    HW121008   3.925   0.724   9.090
 6850SOL    HW221009   3.824   0.834   9.023
 6851SOL     OW21010   3.800   0.811   8.237
 6851SOL    HW121011   3.899   0.799   8.246
 6851SOL    HW221012   3.776   0.906   8.258
 6852SOL     OW21013   3.854   1.821   9.019
 6852SOL    HW121014   3.844   1.806   9.118
 6852SOL    HW221015   3.768   1.857   8.983
 6853SOL     OW21016   3.926   0.285   8.946
 6853SOL    HW121017   3.846   0.345   8.933
 6853SOL    HW221018   3.916   0.236   9.032
 6854SOL     OW21019   3.802   0.556   8.834
 6854SOL    HW121020   3.894   0.555   8.793
 6854SOL    HW221021   3.796   0.630   8.901
 6855SOL     OW21022   4.251   0.256   7.776
 6855SOL    HW121023   4.278   0.197   7.701
 6855SOL    HW221024   4.251   0.351   7.745
 6856SOL     OW21025   3.788   1.564   8.779
 6856SOL    HW121026   3.742   1.646   8.745
 6856SOL    HW221027   3.886   1.583   8.788
 6857SOL     OW21028   4.091   1.100   7.949
 6857SOL    HW121029   4.084   1.183   7.893
 6857SOL    HW221030   4.095   1.020   7.889
 6858SOL     OW21031   4.031   0.213   8.679
 6858SOL    HW121032   4.008   0.250   8.769
 6858SOL    HW221033   4.001   0.118   8.673
 6859SOL     OW21034   3.761   1.310   8.730
 6859SOL    HW121035   3.814   1.261   8.798
 6859SOL    HW221036   3.783   1.408   8.735
 6860SOL     OW21037   3.732   1.326   7.648
 6860SOL    HW121038   3.639   1.347   7.617
 6860SOL    HW221039   3.742   1.227   7.661
 6861SOL     OW21040   3.812   1.801   8.375
 6861SOL    HW121041   3.770   1.715   8.348
 6861SOL    HW221042   3.906   1.804   8.341
 6862SOL     OW21043   4.228   1.568   8.358
 6862SOL    HW121044   4.294   1.642   8.367
 6862SOL    HW221045   4.272   1.489   8.316
 6863SOL     OW21046   3.764   0.544   8.562
 6863SOL    HW121047   3.849   0.511   8.521
 6863SOL    HW221048   3.777   0.559   8.660
 6864SOL     OW21049   3.913   0.520   9.170
 6864SOL    HW121050   3.972   0.480   9.100
 6864SOL    HW221051   3.855   0.591   9.129
 6865SOL     OW21052   3.976   1.564   9.192
 6865SOL    HW121053   3.946   1.621   9.268
 6865SOL    HW221054   3.969   1.467   9.218
 6866SOL     OW21055   3.883   1.137   8.914
 6866SOL    HW121056   3.905   1.076   8.990
 6866SOL    HW221057   3.893   1.088   8.828
 6867SOL     OW21058   3.807   1.258   8.470
 6867SOL    HW121059   3.802   1.257   8.570
 6867SOL    HW221060   3.724   1.217   8.432
 6868SOL     OW21061   3.854   1.794   9.299
 6868SOL    HW121062   3.813   1.720   9.352
 6868SOL    HW221063   3.918   1.845   9.357
 6869SOL     OW21064   3.799   0.345   7.481
 6869SOL    HW121065   3.707   0.317   7.452
 6869SOL    HW221066   3.830   0.422   7.425
 6870SOL     OW21067   3.796   0.166   7.766
 6870SOL    HW121068   3.779   0.249   7.712
 6870SOL    HW221069   3.886   0.129   7.744
 6871SOL     OW21070   3.803   1.240   8.101
 6871SOL    HW121071   3.802   1.193   8.189
 6871SOL    HW221072   3.885   1.212   8.050
 6872SOL     OW21073   3.763   1.077   7.748
 6872SOL    HW121074   3.862   1.066   7.739
 6872SOL    HW221075   3.723   0.991   7.780
 6873SOL     OW21076   3.954   0.628   9.423
 6873SOL    HW121077   3.861   0.626   9.460
 6873SOL    HW221078   3.955   0.589   9.331
 6874SOL     OW21079   3.949   0.275  10.306
 6874SOL    HW121080   3.984   0.258  10.398
 6874SOL    HW221081   3.861   0.230  10.294
 6875SOL     OW21082   3.743   0.368   9.957
 6875SOL    HW121083   3.661   0.411   9.996
 6875SOL    HW221084   3.715   0.295   9.894
 6876SOL     OW21085   4.059   1.435  10.371
 6876SOL    HW121086   3.981   1.404  10.318
 6876SOL    HW221087   4.117   1.493  10.314
 6877SOL     OW21088   3.955   1.713   9.793
 6877SOL    HW121089   3.989   1.790   9.847
 6877SOL    HW221090   3.999   1.713   9.703
 6878SOL     OW21091   3.954   1.434   9.848
 6878SOL    HW121092   3.928   1.530   9.848
 6878SOL    HW221093   3.883   1.380   9.893
 6879SOL     OW21094   3.846   0.643   9.873
 6879SOL    HW121095   3.801   0.555   9.890
 6879SOL    HW221096   3.845   0.697   9.957
 6880SOL     OW21097   3.751   1.596   9.427
 6880SOL    HW121098   3.732   1.500   9.448
 6880SOL    HW221099   3.718   1.654   9.502
 6881SOL     OW21100   3.837   0.737  10.907
 6881SOL    HW121101   3.925   0.724  10.952
 6881SOL    HW221102   3.824   0.834  10.885
 6882SOL     OW21103   3.800   0.811  10.099
 6882SOL    HW121104   3.899   0.799  10.108
 6882SOL    HW221105   3.776   0.906  10.120
 6883SOL     OW21106   3.854   1.821  10.881
 6883SOL    HW121107   3.844   1.806  10.980
 6883SOL    HW221108   3.768   1.857  10.845
 6884SOL     OW21109   3.926   0.285  10.808
 6884SOL    HW121110   3.846   0.345  10.795
 6884SOL    HW221111   3.916   0.236  10.894
 6885SOL     OW21112   3.802   0.556  10.696
 6885SOL    HW121113   3.894   0.555  10.655
 6885SOL    HW221114   3.796   0.630  10.763
 6886SOL     OW21115   4.251   0.256   9.638
 6886SOL    HW121116   4.278   0.197   9.563
 6886SOL    HW221117   4.251   0.351   9.607
 6887SOL     OW21118   3.788   1.564  10.641
 6887SOL    HW121119   3.742   1.646  10.607
 6887SOL    HW221120   3.886   1.583  10.650
 6888SOL     OW21121   4.091   1.100   9.811
 6888SOL    HW121122   4.084   1.183   9.755
 6888SOL    HW221123   4.095   1.020   9.751
 6889SOL     OW21124   4.031   0.213  10.541
 6889SOL    HW121125   4.008   0.250  10.631
 6889SOL    HW221126   4.001   0.118  10.535
 6890SOL     OW21127   3.761   1.310  10.592
 6890SOL    HW121128   3.814   1.261  10.660
 6890SOL    HW221129   3.783   1.408  10.597
 6891SOL     OW21130   3.732   1.326   9.510
 6891SOL    HW121131   3.639   1.347   9.479
 6891SOL    HW221132   3.742   1.227   9.523
 6892SOL     OW21133   3.812   1.801  10.237
 6892SOL    HW121134   3.770   1.715  10.210
 6892SOL    HW221135   3.906   1.804  10.203
 6893SOL     OW21136   4.228   1.568  10.220
 6893SOL    HW121137   4.294   1.642  10.229
 6893SOL    HW221138   4.272   1.489  10.178
 6894SOL     OW21139   3.764   0.544  10.424
 6894SOL    HW121140   3.849   0.511  10.383
 6894SOL    HW221141   3.777   0.559  10.522
 6895SOL     OW21142   3.913   0.520  11.032
 6895SOL    HW121143   3.972   0.480  10.962
 6895SOL    HW221144   3.855   0.591  10.991
 6896SOL     OW21145   3.976   1.564  11.054
 6896SOL    HW121146   3.946   1.621  11.130
 6896SOL    HW221147   3.969   1.467  11.080
 6897SOL     OW21148   3.883   1.137  10.776
 6897SOL    HW121149   3.905   1.076  10.852
 6897SOL    HW221150   3.893   1.088  10.690
 6898SOL     OW21151   3.807   1.258  10.332
 6898SOL    HW121152   3.802   1.257  10.432
 6898SOL    HW221153   3.724   1.217  10.294
 6899SOL     OW21154   3.854   1.794  11.161
 6899SOL    HW121155   3.813   1.720  11.214
 6899SOL    HW221156   3.918   1.845  11.219
 6900SOL     OW21157   3.799   0.345   9.343
 6900SOL    HW121158   3.707   0.317   9.314
 6900SOL    HW221159   3.830   0.422   9.287
 6901SOL     OW21160   3.796   0.166   9.628
 6901SOL    HW121161   3.779   0.249   9.574
 6901SOL    HW221162   3.886   0.129   9.606
 6902SOL     OW21163   3.803   1.240   9.963
 6902SOL    HW121164   3.802   1.193  10.051
 6902SOL    HW221165   3.885   1.212   9.912
 6903SOL     OW21166   3.763   1.077   9.610
 6903SOL    HW121167   3.862   1.066   9.601
 6903SOL    HW221168   3.723   0.991   9.642
 6904SOL     OW21169   3.954   0.628  11.285
 6904SOL    HW121170   3.861   0.626  11.322
 6904SOL    HW221171   3.955   0.589  11.193
 6905SOL     OW21172   3.949   0.275  12.168
 6905SOL    HW121173   3.984   0.258  12.260
 6905SOL    HW221174   3.861   0.230  12.156
 6906SOL     OW21175   3.743   0.368  11.819
 6906SOL    HW121176   3.661   0.411  11.858
 6906SOL    HW221177   3.715   0.295  11.756
 6907SOL     OW21178   4.059   1.435  12.233
 6907SOL    HW121179   3.981   1.404  12.180
 6907SOL    HW221180   4.117   1.493  12.176
 6908SOL     OW21181   3.955   1.713  11.655
 6908SOL    HW121182   3.989   1.790  11.709
 6908SOL    HW221183   3.999   1.713  11.565
 6909SOL     OW21184   3.954   1.434  11.710
 6909SOL    HW121185   3.928   1.530  11.710
 6909SOL    HW221186   3.883   1.380  11.755
 6910SOL     OW21187   3.846   0.643  11.735
 6910SOL    HW121188   3.801   0.555  11.752
 6910SOL    HW221189   3.845   0.697  11.819
 6911SOL     OW21190   3.751   1.596  11.289
 6911SOL    HW121191   3.732   1.500  11.310
 6911SOL    HW221192   3.718   1.654  11.364
 6912SOL     OW21193   3.837   0.737  12.769
 6912SOL    HW121194   3.925   0.724  12.814
 6912SOL    HW221195   3.824   0.834  12.747
 6913SOL     OW21196   3.800   0.811  11.961
 6913SOL    HW121197   3.899   0.799  11.970
 6913SOL    HW221198   3.776   0.906  11.982
 6914SOL     OW21199   3.854   1.821  12.743
 6914SOL    HW121200   3.844   1.806  12.842
 6914SOL    HW221201   3.768   1.857  12.707
 6915SOL     OW21202   3.926   0.285  12.670
 6915SOL    HW121203   3.846   0.345  12.657
 6915SOL    HW221204   3.916   0.236  12.756
 6916SOL     OW21205   3.802   0.556  12.558
 6916SOL    HW121206   3.894   0.555  12.517
 6916SOL    HW221207   3.796   0.630  12.625
 6917SOL     OW21208   4.251   0.256  11.500
 6917SOL    HW121209   4.278   0.197  11.425
 6917SOL    HW221210   4.251   0.351  11.469
 6918SOL     OW21211   3.788   1.564  12.503
 6918SOL    HW121212   3.742   1.646  12.469
 6918SOL    HW221213   3.886   1.583  12.512
 6919SOL     OW21214   4.091   1.100  11.673
 6919SOL    HW121215   4.084   1.183  11.617
 6919SOL    HW221216   4.095   1.020  11.613
 6920SOL     OW21217   4.031   0.213  12.403
 6920SOL    HW121218   4.008   0.250  12.493
 6920SOL    HW221219   4.001   0.118  12.397
 6921SOL     OW21220   3.761   1.310  12.454
 6921SOL    HW121221   3.814   1.261  12.522
 6921SOL    HW221222   3.783   1.408  12.459
 6922SOL     OW21223   3.732   1.326  11.372
 6922SOL    HW121224   3.639   1.347  11.341
 6922SOL    HW221225   3.742   1.227  11.385
 6923SOL     OW21226   3.812   1.801  12.099
 6923SOL    HW121227   3.770   1.715  12.072
 6923SOL    HW221228   3.906   1.804  12.065
 6924SOL     OW21229   4.228   1.568  12.082
 6924SOL    HW121230   4.294   1.642  12.091
 6924SOL    HW221231   4.272   1.489  12.040
 6925SOL     OW21232   3.764   0.544  12.286
 6925SOL    HW121233   3.849   0.511  12.245
 6925SOL    HW221234   3.777   0.559  12.384
 6926SOL     OW21235   3.913   0.520  12.894
 6926SOL    HW121236   3.972   0.480  12.824
 6926SOL    HW221237   3.855   0.591  12.853
 6927SOL     OW21238   3.976   1.564  12.916
 6927SOL    HW121239   3.946   1.621  12.992
 6927SOL    HW221240   3.969   1.467  12.942
 6928SOL     OW21241   3.883   1.137  12.638
 6928SOL    HW121242   3.905   1.076  12.714
 6928SOL    HW221243   3.893   1.088  12.552
 6929SOL     OW21244   3.807   1.258  12.194
 6929SOL    HW121245   3.802   1.257  12.294
 6929SOL    HW221246   3.724   1.217  12.156
 6930SOL     OW21247   3.854   1.794  13.023
 6930SOL    HW121248   3.813   1.720  13.076
 6930SOL    HW221249   3.918   1.845  13.081
 6931SOL     OW21250   3.799   0.345  11.205
 6931SOL    HW121251   3.707   0.317  11.176
 6931SOL    HW221252   3.830   0.422  11.149
 6932SOL     OW21253   3.796   0.166  11.490
 6932SOL    HW121254   3.779   0.249  11.436
 6932SOL    HW221255   3.886   0.129  11.468
 6933SOL     OW21256   3.803   1.240  11.825
 6933SOL    HW121257   3.802   1.193  11.913
 6933SOL    HW221258   3.885   1.212  11.774
 6934SOL     OW21259   3.763   1.077  11.472
 6934SOL    HW121260   3.862   1.066  11.463
 6934SOL    HW221261   3.723   0.991  11.504
 6935SOL     OW21262   3.954   0.628  13.147
 6935SOL    HW121263   3.861   0.626  13.184
 6935SOL    HW221264   3.955   0.589  13.055
 6936SOL     OW21265   3.743   0.368  13.681
 6936SOL    HW121266   3.661   0.411  13.720
 6936SOL    HW221267   3.715   0.295  13.618
 6937SOL     OW21268   3.955   1.713  13.517
 6937SOL    HW121269   3.989   1.790  13.571
 6937SOL    HW221270   3.999   1.713  13.427
 6938SOL     OW21271   3.954   1.434  13.572
 6938SOL    HW121272   3.928   1.530  13.572
 6938SOL    HW221273   3.883   1.380  13.617
 6939SOL     OW21274   3.964   1.091  13.920
 6939SOL    HW121275   3.978   1.007  13.972
 6939SOL    HW221276   3.909   1.155  13.975
 6940SOL     OW21277   3.846   0.643  13.597
 6940SOL    HW121278   3.801   0.555  13.614
 6940SOL    HW221279   3.845   0.697  13.681
 6941SOL     OW21280   3.751   1.596  13.151
 6941SOL    HW121281   3.732   1.500  13.172
 6941SOL    HW221282   3.718   1.654  13.226
 6942SOL     OW21283   3.800   0.811  13.823
 6942SOL    HW121284   3.899   0.799  13.832
 6942SOL    HW221285   3.776   0.906  13.844
 6943SOL     OW21286   4.075   1.801  13.887
 6943SOL    HW121287   4.125   1.715  13.893
 6943SOL    HW221288   4.140   1.878  13.884
 6944SOL     OW21289   4.251   0.256  13.362
 6944SOL    HW121290   4.278   0.197  13.287
 6944SOL    HW221291   4.251   0.351  13.331
 6945SOL     OW21292   4.091   1.100  13.535
 6945SOL    HW121293   4.084   1.183  13.479
 6945SOL    HW221294   4.095   1.020  13.475
 6946SOL     OW21295   3.732   1.326  13.234
 6946SOL    HW121296   3.639   1.347  13.203
 6946SOL    HW221297   3.742   1.227  13.247
 6947SOL     OW21298   4.228   1.568  13.944
 6947SOL    HW121299   4.294   1.642  13.953
 6947SOL    HW221300   4.272   1.489  13.902
 6948SOL     OW21301   3.799   0.345  13.067
 6948SOL    HW121302   3.707   0.317  13.038
 6948SOL    HW221303   3.830   0.422  13.011
 6949SOL     OW21304   3.796   0.166  13.352
 6949SOL    HW121305   3.779   0.249  13.298
 6949SOL    HW221306   3.886   0.129  13.330
 6950SOL     OW21307   3.803   1.240  13.687
 6950SOL    HW121308   3.802   1.193  13.775
 6950SOL    HW221309   3.885   1.212  13.636
 6951SOL     OW21310   3.763   1.077  13.334
 6951SOL    HW121311   3.862   1.066  13.325
 6951SOL    HW221312   3.723   0.991  13.366
 6952SOL     OW21313   3.954   2.490   0.113
 6952SOL    HW121314   3.861   2.488   0.150
 6952SOL    HW221315   3.955   2.451   0.021
 6953SOL     OW21316   3.949   2.137   0.996
 6953SOL    HW121317   3.984   2.120   1.088
 6953SOL    HW221318   3.861   2.092   0.984
 6954SOL     OW21319   3.743   2.230   0.647
 6954SOL    HW121320   3.661   2.273   0.686
 6954SOL    HW221321   3.715   2.157   0.584
 6955SOL     OW21322   4.059   3.297   1.061
 6955SOL    HW121323   3.981   3.266   1.008
 6955SOL    HW221324   4.117   3.355   1.004
 6956SOL     OW21325   3.955   3.575   0.483
 6956SOL    HW121326   3.989   3.652   0.537
 6956SOL    HW221327   3.999   3.575   0.393
 6957SOL     OW21328   3.954   3.296   0.538
 6957SOL    HW121329   3.928   3.392   0.538
 6957SOL    HW221330   3.883   3.242   0.583
 6958SOL     OW21331   3.846   2.505   0.563
 6958SOL    HW121332   3.801   2.417   0.580
 6958SOL    HW221333   3.845   2.559   0.647
 6959SOL     OW21334   3.751   3.458   0.117
 6959SOL    HW121335   3.732   3.362   0.138
 6959SOL    HW221336   3.718   3.516   0.192
 6960SOL     OW21337   3.837   2.599   1.597
 6960SOL    HW121338   3.925   2.586   1.642
 6960SOL    HW221339   3.824   2.696   1.575
 6961SOL     OW21340   3.800   2.673   0.789
 6961SOL    HW121341   3.899   2.661   0.798
 6961SOL    HW221342   3.776   2.768   0.810
 6962SOL     OW21343   3.854   3.683   1.571
 6962SOL    HW121344   3.844   3.668   1.670
 6962SOL    HW221345   3.768   3.719   1.535
 6963SOL     OW21346   3.926   2.147   1.498
 6963SOL    HW121347   3.846   2.207   1.485
 6963SOL    HW221348   3.916   2.098   1.584
 6964SOL     OW21349   3.802   2.418   1.386
 6964SOL    HW121350   3.894   2.417   1.345
 6964SOL    HW221351   3.796   2.492   1.453
 6965SOL     OW21352   3.788   3.426   1.331
 6965SOL    HW121353   3.742   3.508   1.297
 6965SOL    HW221354   3.886   3.445   1.340
 6966SOL     OW21355   4.091   2.962   0.501
 6966SOL    HW121356   4.084   3.045   0.445
 6966SOL    HW221357   4.095   2.882   0.441
 6967SOL     OW21358   4.031   2.075   1.231
 6967SOL    HW121359   4.008   2.112   1.321
 6967SOL    HW221360   4.001   1.980   1.225
 6968SOL     OW21361   3.761   3.172   1.282
 6968SOL    HW121362   3.814   3.123   1.350
 6968SOL    HW221363   3.783   3.270   1.287
 6969SOL     OW21364   4.031   1.925   0.618
 6969SOL    HW121365   4.020   2.019   0.651
 6969SOL    HW221366   4.026   1.862   0.695
 6970SOL     OW21367   3.732   3.188   0.200
 6970SOL    HW121368   3.639   3.209   0.169
 6970SOL    HW221369   3.742   3.089   0.213
 6971SOL     OW21370   3.812   3.663   0.927
 6971SOL    HW121371   3.770   3.577   0.900
 6971SOL    HW221372   3.906   3.666   0.893
 6972SOL     OW21373   4.228   3.430   0.910
 6972SOL    HW121374   4.294   3.504   0.919
 6972SOL    HW221375   4.272   3.351   0.868
 6973SOL     OW21376   3.764   2.406   1.114
 6973SOL    HW121377   3.849   2.373   1.073
 6973SOL    HW221378   3.777   2.421   1.212
 6974SOL     OW21379   3.913   2.382   1.722
 6974SOL    HW121380   3.972   2.342   1.652
 6974SOL    HW221381   3.855   2.453   1.681
 6975SOL     OW21382   3.976   3.426   1.744
 6975SOL    HW121383   3.946   3.483   1.820
 6975SOL    HW221384   3.969   3.329   1.770
 6976SOL     OW21385   3.883   2.999   1.466
 6976SOL    HW121386   3.905   2.938   1.542
 6976SOL    HW221387   3.893   2.950   1.380
 6977SOL     OW21388   3.807   3.120   1.022
 6977SOL    HW121389   3.802   3.119   1.122
 6977SOL    HW221390   3.724   3.079   0.984
 6978SOL     OW21391   3.854   3.656   1.851
 6978SOL    HW121392   3.813   3.582   1.904
 6978SOL    HW221393   3.918   3.707   1.909
 6979SOL     OW21394   3.799   2.207   0.033
 6979SOL    HW121395   3.707   2.179   0.004
 6979SOL    HW221396   3.830   2.284  -0.023
 6980SOL     OW21397   3.796   2.028   0.318
 6980SOL    HW121398   3.779   2.111   0.264
 6980SOL    HW221399   3.886   1.991   0.296
 6981SOL     OW21400   3.803   3.102   0.653
 6981SOL    HW121401   3.802   3.055   0.741
 6981SOL    HW221402   3.885   3.074   0.602
 6982SOL     OW21403   3.763   2.939   0.300
 6982SOL    HW121404   3.862   2.928   0.291
 6982SOL    HW221405   3.723   2.853   0.332
 6983SOL     OW21406   3.954   2.490   1.975
 6983SOL    HW121407   3.861   2.488   2.012
 6983SOL    HW221408   3.955   2.451   1.883
 6984SOL     OW21409   3.949   2.137   2.858
 6984SOL    HW121410   3.984   2.120   2.950
 6984SOL    HW221411   3.861   2.092   2.846
 6985SOL     OW21412   3.743   2.230   2.509
 6985SOL    HW121413   3.661   2.273   2.548
 6985SOL    HW221414   3.715   2.157   2.446
 6986SOL     OW21415   4.059   3.297   2.923
 6986SOL    HW121416   3.981   3.266   2.870
 6986SOL    HW221417   4.117   3.355   2.866
 6987SOL     OW21418   3.955   3.575   2.345
 6987SOL    HW121419   3.989   3.652   2.399
 6987SOL    HW221420   3.999   3.575   2.255
 6988SOL     OW21421   3.954   3.296   2.400
 6988SOL    HW121422   3.928   3.392   2.400
 6988SOL    HW221423   3.883   3.242   2.445
 6989SOL     OW21424   3.846   2.505   2.425
 6989SOL    HW121425   3.801   2.417   2.442
 6989SOL    HW221426   3.845   2.559   2.509
 6990SOL     OW21427   3.751   3.458   1.979
 6990SOL    HW121428   3.732   3.362   2.000
 6990SOL    HW221429   3.718   3.516   2.054
 6991SOL     OW21430   3.837   2.599   3.459
 6991SOL    HW121431   3.925   2.586   3.504
 6991SOL    HW221432   3.824   2.696   3.437
 6992SOL     OW21433   3.800   2.673   2.651
 6992SOL    HW121434   3.899   2.661   2.660
 6992SOL    HW221435   3.776   2.768   2.672
 6993SOL     OW21436   3.854   3.683   3.433
 6993SOL    HW121437   3.844   3.668   3.532
 6993SOL    HW221438   3.768   3.719   3.397
 6994SOL     OW21439   3.926   2.147   3.360
 6994SOL    HW121440   3.846   2.207   3.347
 6994SOL    HW221441   3.916   2.098   3.446
 6995SOL     OW21442   4.021   1.897   2.033
 6995SOL    HW121443   4.070   1.981   2.012
 6995SOL    HW221444   4.083   1.832   2.078
 6996SOL     OW21445   3.802   2.418   3.248
 6996SOL    HW121446   3.894   2.417   3.207
 6996SOL    HW221447   3.796   2.492   3.315
 6997SOL     OW21448   4.251   2.118   2.190
 6997SOL    HW121449   4.278   2.059   2.115
 6997SOL    HW221450   4.251   2.213   2.159
 6998SOL     OW21451   3.788   3.426   3.193
 6998SOL    HW121452   3.742   3.508   3.159
 6998SOL    HW221453   3.886   3.445   3.202
 6999SOL     OW21454   4.091   2.962   2.363
 6999SOL    HW121455   4.084   3.045   2.307
 6999SOL    HW221456   4.095   2.882   2.303
 7000SOL     OW21457   4.031   2.075   3.093
 7000SOL    HW121458   4.008   2.112   3.183
 7000SOL    HW221459   4.001   1.980   3.087
 7001SOL     OW21460   3.761   3.172   3.144
 7001SOL    HW121461   3.814   3.123   3.212
 7001SOL    HW221462   3.783   3.270   3.149
 7002SOL     OW21463   4.031   1.925   2.480
 7002SOL    HW121464   4.020   2.019   2.513
 7002SOL    HW221465   4.026   1.862   2.557
 7003SOL     OW21466   3.732   3.188   2.062
 7003SOL    HW121467   3.639   3.209   2.031
 7003SOL    HW221468   3.742   3.089   2.075
 7004SOL     OW21469   3.812   3.663   2.789
 7004SOL    HW121470   3.770   3.577   2.762
 7004SOL    HW221471   3.906   3.666   2.755
 7005SOL     OW21472   4.228   3.430   2.772
 7005SOL    HW121473   4.294   3.504   2.781
 7005SOL    HW221474   4.272   3.351   2.730
 7006SOL     OW21475   3.764   2.406   2.976
 7006SOL    HW121476   3.849   2.373   2.935
 7006SOL    HW221477   3.777   2.421   3.074
 7007SOL     OW21478   3.913   2.382   3.584
 7007SOL    HW121479   3.972   2.342   3.514
 7007SOL    HW221480   3.855   2.453   3.543
 7008SOL     OW21481   3.976   3.426   3.606
 7008SOL    HW121482   3.946   3.483   3.682
 7008SOL    HW221483   3.969   3.329   3.632
 7009SOL     OW21484   3.883   2.999   3.328
 7009SOL    HW121485   3.905   2.938   3.404
 7009SOL    HW221486   3.893   2.950   3.242
 7010SOL     OW21487   3.807   3.120   2.884
 7010SOL    HW121488   3.802   3.119   2.984
 7010SOL    HW221489   3.724   3.079   2.846
 7011SOL     OW21490   3.854   3.656   3.713
 7011SOL    HW121491   3.813   3.582   3.766
 7011SOL    HW221492   3.918   3.707   3.771
 7012SOL     OW21493   3.799   2.207   1.895
 7012SOL    HW121494   3.707   2.179   1.866
 7012SOL    HW221495   3.830   2.284   1.839
 7013SOL     OW21496   3.796   2.028   2.180
 7013SOL    HW121497   3.779   2.111   2.126
 7013SOL    HW221498   3.886   1.991   2.158
 7014SOL     OW21499   3.803   3.102   2.515
 7014SOL    HW121500   3.802   3.055   2.603
 7014SOL    HW221501   3.885   3.074   2.464
 7015SOL     OW21502   3.763   2.939   2.162
 7015SOL    HW121503   3.862   2.928   2.153
 7015SOL    HW221504   3.723   2.853   2.194
 7016SOL     OW21505   3.954   2.490   3.837
 7016SOL    HW121506   3.861   2.488   3.874
 7016SOL    HW221507   3.955   2.451   3.745
 7017SOL     OW21508   3.949   2.137   4.720
 7017SOL    HW121509   3.984   2.120   4.812
 7017SOL    HW221510   3.861   2.092   4.708
 7018SOL     OW21511   3.743   2.230   4.371
 7018SOL    HW121512   3.661   2.273   4.410
 7018SOL    HW221513   3.715   2.157   4.308
 7019SOL     OW21514   4.059   3.297   4.785
 7019SOL    HW121515   3.981   3.266   4.732
 7019SOL    HW221516   4.117   3.355   4.728
 7020SOL     OW21517   3.955   3.575   4.207
 7020SOL    HW121518   3.989   3.652   4.261
 7020SOL    HW221519   3.999   3.575   4.117
 7021SOL     OW21520   3.954   3.296   4.262
 7021SOL    HW121521   3.928   3.392   4.262
 7021SOL    HW221522   3.883   3.242   4.307
 7022SOL     OW21523   3.846   2.505   4.287
 7022SOL    HW121524   3.801   2.417   4.304
 7022SOL    HW221525   3.845   2.559   4.371
 7023SOL     OW21526   3.751   3.458   3.841
 7023SOL    HW121527   3.732   3.362   3.862
 7023SOL    HW221528   3.718   3.516   3.916
 7024SOL     OW21529   3.837   2.599   5.321
 7024SOL    HW121530   3.925   2.586   5.366
 7024SOL    HW221531   3.824   2.696   5.299
 7025SOL     OW21532   3.800   2.673   4.513
 7025SOL    HW121533   3.899   2.661   4.522
 7025SOL    HW221534   3.776   2.768   4.534
 7026SOL     OW21535   3.854   3.683   5.295
 7026SOL    HW121536   3.844   3.668   5.394
 7026SOL    HW221537   3.768   3.719   5.259
 7027SOL     OW21538   3.926   2.147   5.222
 7027SOL    HW121539   3.846   2.207   5.209
 7027SOL    HW221540   3.916   2.098   5.308
 7028SOL     OW21541   4.021   1.897   3.895
 7028SOL    HW121542   4.070   1.981   3.874
 7028SOL    HW221543   4.083   1.832   3.940
 7029SOL     OW21544   3.802   2.418   5.110
 7029SOL    HW121545   3.894   2.417   5.069
 7029SOL    HW221546   3.796   2.492   5.177
 7030SOL     OW21547   4.251   2.118   4.052
 7030SOL    HW121548   4.278   2.059   3.977
 7030SOL    HW221549   4.251   2.213   4.021
 7031SOL     OW21550   3.788   3.426   5.055
 7031SOL    HW121551   3.742   3.508   5.021
 7031SOL    HW221552   3.886   3.445   5.064
 7032SOL     OW21553   4.091   2.962   4.225
 7032SOL    HW121554   4.084   3.045   4.169
 7032SOL    HW221555   4.095   2.882   4.165
 7033SOL     OW21556   4.031   2.075   4.955
 7033SOL    HW121557   4.008   2.112   5.045
 7033SOL    HW221558   4.001   1.980   4.949
 7034SOL     OW21559   3.761   3.172   5.006
 7034SOL    HW121560   3.814   3.123   5.074
 7034SOL    HW221561   3.783   3.270   5.011
 7035SOL     OW21562   4.031   1.925   4.342
 7035SOL    HW121563   4.020   2.019   4.375
 7035SOL    HW221564   4.026   1.862   4.419
 7036SOL     OW21565   3.732   3.188   3.924
 7036SOL    HW121566   3.639   3.209   3.893
 7036SOL    HW221567   3.742   3.089   3.937
 7037SOL     OW21568   3.812   3.663   4.651
 7037SOL    HW121569   3.770   3.577   4.624
 7037SOL    HW221570   3.906   3.666   4.617
 7038SOL     OW21571   4.228   3.430   4.634
 7038SOL    HW121572   4.294   3.504   4.643
 7038SOL    HW221573   4.272   3.351   4.592
 7039SOL     OW21574   3.764   2.406   4.838
 7039SOL    HW121575   3.849   2.373   4.797
 7039SOL    HW221576   3.777   2.421   4.936
 7040SOL     OW21577   3.913   2.382   5.446
 7040SOL    HW121578   3.972   2.342   5.376
 7040SOL    HW221579   3.855   2.453   5.405
 7041SOL     OW21580   3.976   3.426   5.468
 7041SOL    HW121581   3.946   3.483   5.544
 7041SOL    HW221582   3.969   3.329   5.494
 7042SOL     OW21583   3.883   2.999   5.190
 7042SOL    HW121584   3.905   2.938   5.266
 7042SOL    HW221585   3.893   2.950   5.104
 7043SOL     OW21586   3.807   3.120   4.746
 7043SOL    HW121587   3.802   3.119   4.846
 7043SOL    HW221588   3.724   3.079   4.708
 7044SOL     OW21589   3.854   3.656   5.575
 7044SOL    HW121590   3.813   3.582   5.628
 7044SOL    HW221591   3.918   3.707   5.633
 7045SOL     OW21592   3.799   2.207   3.757
 7045SOL    HW121593   3.707   2.179   3.728
 7045SOL    HW221594   3.830   2.284   3.701
 7046SOL     OW21595   3.796   2.028   4.042
 7046SOL    HW121596   3.779   2.111   3.988
 7046SOL    HW221597   3.886   1.991   4.020
 7047SOL     OW21598   3.803   3.102   4.377
 7047SOL    HW121599   3.802   3.055   4.465
 7047SOL    HW221600   3.885   3.074   4.326
 7048SOL     OW21601   3.763   2.939   4.024
 7048SOL    HW121602   3.862   2.928   4.015
 7048SOL    HW221603   3.723   2.853   4.056
 7049SOL     OW21604   3.954   2.490   5.699
 7049SOL    HW121605   3.861   2.488   5.736
 7049SOL    HW221606   3.955   2.451   5.607
 7050SOL     OW21607   3.949   2.137   6.582
 7050SOL    HW121608   3.984   2.120   6.674
 7050SOL    HW221609   3.861   2.092   6.570
 7051SOL     OW21610   3.743   2.230   6.233
 7051SOL    HW121611   3.661   2.273   6.272
 7051SOL    HW221612   3.715   2.157   6.170
 7052SOL     OW21613   4.059   3.297   6.647
 7052SOL    HW121614   3.981   3.266   6.594
 7052SOL    HW221615   4.117   3.355   6.590
 7053SOL     OW21616   3.955   3.575   6.069
 7053SOL    HW121617   3.989   3.652   6.123
 7053SOL    HW221618   3.999   3.575   5.979
 7054SOL     OW21619   3.954   3.296   6.124
 7054SOL    HW121620   3.928   3.392   6.124
 7054SOL    HW221621   3.883   3.242   6.169
 7055SOL     OW21622   3.846   2.505   6.149
 7055SOL    HW121623   3.801   2.417   6.166
 7055SOL    HW221624   3.845   2.559   6.233
 7056SOL     OW21625   3.751   3.458   5.703
 7056SOL    HW121626   3.732   3.362   5.724
 7056SOL    HW221627   3.718   3.516   5.778
 7057SOL     OW21628   3.837   2.599   7.183
 7057SOL    HW121629   3.925   2.586   7.228
 7057SOL    HW221630   3.824   2.696   7.161
 7058SOL     OW21631   3.800   2.673   6.375
 7058SOL    HW121632   3.899   2.661   6.384
 7058SOL    HW221633   3.776   2.768   6.396
 7059SOL     OW21634   3.854   3.683   7.157
 7059SOL    HW121635   3.844   3.668   7.256
 7059SOL    HW221636   3.768   3.719   7.121
 7060SOL     OW21637   3.926   2.147   7.084
 7060SOL    HW121638   3.846   2.207   7.071
 7060SOL    HW221639   3.916   2.098   7.170
 7061SOL     OW21640   4.021   1.897   5.757
 7061SOL    HW121641   4.070   1.981   5.736
 7061SOL    HW221642   4.083   1.832   5.802
 7062SOL     OW21643   3.802   2.418   6.972
 7062SOL    HW121644   3.894   2.417   6.931
 7062SOL    HW221645   3.796   2.492   7.039
 7063SOL     OW21646   4.251   2.118   5.914
 7063SOL    HW121647   4.278   2.059   5.839
 7063SOL    HW221648   4.251   2.213   5.883
 7064SOL     OW21649   3.788   3.426   6.917
 7064SOL    HW121650   3.742   3.508   6.883
 7064SOL    HW221651   3.886   3.445   6.926
 7065SOL     OW21652   4.091   2.962   6.087
 7065SOL    HW121653   4.084   3.045   6.031
 7065SOL    HW221654   4.095   2.882   6.027
 7066SOL     OW21655   4.031   2.075   6.817
 7066SOL    HW121656   4.008   2.112   6.907
 7066SOL    HW221657   4.001   1.980   6.811
 7067SOL     OW21658   3.761   3.172   6.868
 7067SOL    HW121659   3.814   3.123   6.936
 7067SOL    HW221660   3.783   3.270   6.873
 7068SOL     OW21661   4.031   1.925   6.204
 7068SOL    HW121662   4.020   2.019   6.237
 7068SOL    HW221663   4.026   1.862   6.281
 7069SOL     OW21664   3.732   3.188   5.786
 7069SOL    HW121665   3.639   3.209   5.755
 7069SOL    HW221666   3.742   3.089   5.799
 7070SOL     OW21667   3.812   3.663   6.513
 7070SOL    HW121668   3.770   3.577   6.486
 7070SOL    HW221669   3.906   3.666   6.479
 7071SOL     OW21670   4.228   3.430   6.496
 7071SOL    HW121671   4.294   3.504   6.505
 7071SOL    HW221672   4.272   3.351   6.454
 7072SOL     OW21673   3.764   2.406   6.700
 7072SOL    HW121674   3.849   2.373   6.659
 7072SOL    HW221675   3.777   2.421   6.798
 7073SOL     OW21676   3.913   2.382   7.308
 7073SOL    HW121677   3.972   2.342   7.238
 7073SOL    HW221678   3.855   2.453   7.267
 7074SOL     OW21679   3.976   3.426   7.330
 7074SOL    HW121680   3.946   3.483   7.406
 7074SOL    HW221681   3.969   3.329   7.356
 7075SOL     OW21682   3.883   2.999   7.052
 7075SOL    HW121683   3.905   2.938   7.128
 7075SOL    HW221684   3.893   2.950   6.966
 7076SOL     OW21685   3.807   3.120   6.608
 7076SOL    HW121686   3.802   3.119   6.708
 7076SOL    HW221687   3.724   3.079   6.570
 7077SOL     OW21688   3.854   3.656   7.437
 7077SOL    HW121689   3.813   3.582   7.490
 7077SOL    HW221690   3.918   3.707   7.495
 7078SOL     OW21691   3.799   2.207   5.619
 7078SOL    HW121692   3.707   2.179   5.590
 7078SOL    HW221693   3.830   2.284   5.563
 7079SOL     OW21694   3.796   2.028   5.904
 7079SOL    HW121695   3.779   2.111   5.850
 7079SOL    HW221696   3.886   1.991   5.882
 7080SOL     OW21697   3.803   3.102   6.239
 7080SOL    HW121698   3.802   3.055   6.327
 7080SOL    HW221699   3.885   3.074   6.188
 7081SOL     OW21700   3.763   2.939   5.886
 7081SOL    HW121701   3.862   2.928   5.877
 7081SOL    HW221702   3.723   2.853   5.918
 7082SOL     OW21703   3.954   2.490   7.561
 7082SOL    HW121704   3.861   2.488   7.598
 7082SOL    HW221705   3.955   2.451   7.469
 7083SOL     OW21706   3.949   2.137   8.444
 7083SOL    HW121707   3.984   2.120   8.536
 7083SOL    HW221708   3.861   2.092   8.432
 7084SOL     OW21709   3.743   2.230   8.095
 7084SOL    HW121710   3.661   2.273   8.134
 7084SOL    HW221711   3.715   2.157   8.032
 7085SOL     OW21712   4.059   3.297   8.509
 7085SOL    HW121713   3.981   3.266   8.456
 7085SOL    HW221714   4.117   3.355   8.452
 7086SOL     OW21715   3.955   3.575   7.931
 7086SOL    HW121716   3.989   3.652   7.985
 7086SOL    HW221717   3.999   3.575   7.841
 7087SOL     OW21718   3.954   3.296   7.986
 7087SOL    HW121719   3.928   3.392   7.986
 7087SOL    HW221720   3.883   3.242   8.031
 7088SOL     OW21721   3.846   2.505   8.011
 7088SOL    HW121722   3.801   2.417   8.028
 7088SOL    HW221723   3.845   2.559   8.095
 7089SOL     OW21724   3.751   3.458   7.565
 7089SOL    HW121725   3.732   3.362   7.586
 7089SOL    HW221726   3.718   3.516   7.640
 7090SOL     OW21727   3.837   2.599   9.045
 7090SOL    HW121728   3.925   2.586   9.090
 7090SOL    HW221729   3.824   2.696   9.023
 7091SOL     OW21730   3.800   2.673   8.237
 7091SOL    HW121731   3.899   2.661   8.246
 7091SOL    HW221732   3.776   2.768   8.258
 7092SOL     OW21733   3.854   3.683   9.019
 7092SOL    HW121734   3.844   3.668   9.118
 7092SOL    HW221735   3.768   3.719   8.983
 7093SOL     OW21736   3.926   2.147   8.946
 7093SOL    HW121737   3.846   2.207   8.933
 7093SOL    HW221738   3.916   2.098   9.032
 7094SOL     OW21739   4.021   1.897   7.619
 7094SOL    HW121740   4.070   1.981   7.598
 7094SOL    HW221741   4.083   1.832   7.664
 7095SOL     OW21742   3.802   2.418   8.834
 7095SOL    HW121743   3.894   2.417   8.793
 7095SOL    HW221744   3.796   2.492   8.901
 7096SOL     OW21745   4.251   2.118   7.776
 7096SOL    HW121746   4.278   2.059   7.701
 7096SOL    HW221747   4.251   2.213   7.745
 7097SOL     OW21748   3.788   3.426   8.779
 7097SOL    HW121749   3.742   3.508   8.745
 7097SOL    HW221750   3.886   3.445   8.788
 7098SOL     OW21751   4.091   2.962   7.949
 7098SOL    HW121752   4.084   3.045   7.893
 7098SOL    HW221753   4.095   2.882   7.889
 7099SOL     OW21754   4.031   2.075   8.679
 7099SOL    HW121755   4.008   2.112   8.769
 7099SOL    HW221756   4.001   1.980   8.673
 7100SOL     OW21757   3.761   3.172   8.730
 7100SOL    HW121758   3.814   3.123   8.798
 7100SOL    HW221759   3.783   3.270   8.735
 7101SOL     OW21760   4.031   1.925   8.066
 7101SOL    HW121761   4.020   2.019   8.099
 7101SOL    HW221762   4.026   1.862   8.143
 7102SOL     OW21763   3.732   3.188   7.648
 7102SOL    HW121764   3.639   3.209   7.617
 7102SOL    HW221765   3.742   3.089   7.661
 7103SOL     OW21766   3.812   3.663   8.375
 7103SOL    HW121767   3.770   3.577   8.348
 7103SOL    HW221768   3.906   3.666   8.341
 7104SOL     OW21769   4.228   3.430   8.358
 7104SOL    HW121770   4.294   3.504   8.367
 7104SOL    HW221771   4.272   3.351   8.316
 7105SOL     OW21772   3.764   2.406   8.562
 7105SOL    HW121773   3.849   2.373   8.521
 7105SOL    HW221774   3.777   2.421   8.660
 7106SOL     OW21775   3.913   2.382   9.170
 7106SOL    HW121776   3.972   2.342   9.100
 7106SOL    HW221777   3.855   2.453   9.129
 7107SOL     OW21778   3.976   3.426   9.192
 7107SOL    HW121779   3.946   3.483   9.268
 7107SOL    HW221780   3.969   3.329   9.218
 7108SOL     OW21781   3.883   2.999   8.914
 7108SOL    HW121782   3.905   2.938   8.990
 7108SOL    HW221783   3.893   2.950   8.828
 7109SOL     OW21784   3.807   3.120   8.470
 7109SOL    HW121785   3.802   3.119   8.570
 7109SOL    HW221786   3.724   3.079   8.432
 7110SOL     OW21787   3.854   3.656   9.299
 7110SOL    HW121788   3.813   3.582   9.352
 7110SOL    HW221789   3.918   3.707   9.357
 7111SOL     OW21790   3.799   2.207   7.481
 7111SOL    HW121791   3.707   2.179   7.452
 7111SOL    HW221792   3.830   2.284   7.425
 7112SOL     OW21793   3.796   2.028   7.766
 7112SOL    HW121794   3.779   2.111   7.712
 7112SOL    HW221795   3.886   1.991   7.744
 7113SOL     OW21796   3.803   3.102   8.101
 7113SOL    HW121797   3.802   3.055   8.189
 7113SOL    HW221798   3.885   3.074   8.050
 7114SOL     OW21799   3.763   2.939   7.748
 7114SOL    HW121800   3.862   2.928   7.739
 7114SOL    HW221801   3.723   2.853   7.780
 7115SOL     OW21802   3.954   2.490   9.423
 7115SOL    HW121803   3.861   2.488   9.460
 7115SOL    HW221804   3.955   2.451   9.331
 7116SOL     OW21805   3.949   2.137  10.306
 7116SOL    HW121806   3.984   2.120  10.398
 7116SOL    HW221807   3.861   2.092  10.294
 7117SOL     OW21808   3.743   2.230   9.957
 7117SOL    HW121809   3.661   2.273   9.996
 7117SOL    HW221810   3.715   2.157   9.894
 7118SOL     OW21811   4.059   3.297  10.371
 7118SOL    HW121812   3.981   3.266  10.318
 7118SOL    HW221813   4.117   3.355  10.314
 7119SOL     OW21814   3.955   3.575   9.793
 7119SOL    HW121815   3.989   3.652   9.847
 7119SOL    HW221816   3.999   3.575   9.703
 7120SOL     OW21817   3.954   3.296   9.848
 7120SOL    HW121818   3.928   3.392   9.848
 7120SOL    HW221819   3.883   3.242   9.893
 7121SOL     OW21820   3.846   2.505   9.873
 7121SOL    HW121821   3.801   2.417   9.890
 7121SOL    HW221822   3.845   2.559   9.957
 7122SOL     OW21823   3.751   3.458   9.427
 7122SOL    HW121824   3.732   3.362   9.448
 7122SOL    HW221825   3.718   3.516   9.502
 7123SOL     OW21826   3.837   2.599  10.907
 7123SOL    HW121827   3.925   2.586  10.952
 7123SOL    HW221828   3.824   2.696  10.885
 7124SOL     OW21829   3.800   2.673  10.099
 7124SOL    HW121830   3.899   2.661  10.108
 7124SOL    HW221831   3.776   2.768  10.120
 7125SOL     OW21832   3.854   3.683  10.881
 7125SOL    HW121833   3.844   3.668  10.980
 7125SOL    HW221834   3.768   3.719  10.845
 7126SOL     OW21835   3.926   2.147  10.808
 7126SOL    HW121836   3.846   2.207  10.795
 7126SOL    HW221837   3.916   2.098  10.894
 7127SOL     OW21838   4.021   1.897   9.481
 7127SOL    HW121839   4.070   1.981   9.460
 7127SOL    HW221840   4.083   1.832   9.526
 7128SOL     OW21841   3.802   2.418  10.696
 7128SOL    HW121842   3.894   2.417  10.655
 7128SOL    HW221843   3.796   2.492  10.763
 7129SOL     OW21844   4.251   2.118   9.638
 7129SOL    HW121845   4.278   2.059   9.563
 7129SOL    HW221846   4.251   2.213   9.607
 7130SOL     OW21847   3.788   3.426  10.641
 7130SOL    HW121848   3.742   3.508  10.607
 7130SOL    HW221849   3.886   3.445  10.650
 7131SOL     OW21850   4.091   2.962   9.811
 7131SOL    HW121851   4.084   3.045   9.755
 7131SOL    HW221852   4.095   2.882   9.751
 7132SOL     OW21853   4.031   2.075  10.541
 7132SOL    HW121854   4.008   2.112  10.631
 7132SOL    HW221855   4.001   1.980  10.535
 7133SOL     OW21856   3.761   3.172  10.592
 7133SOL    HW121857   3.814   3.123  10.660
 7133SOL    HW221858   3.783   3.270  10.597
 7134SOL     OW21859   4.031   1.925   9.928
 7134SOL    HW121860   4.020   2.019   9.961
 7134SOL    HW221861   4.026   1.862  10.005
 7135SOL     OW21862   3.732   3.188   9.510
 7135SOL    HW121863   3.639   3.209   9.479
 7135SOL    HW221864   3.742   3.089   9.523
 7136SOL     OW21865   3.812   3.663  10.237
 7136SOL    HW121866   3.770   3.577  10.210
 7136SOL    HW221867   3.906   3.666  10.203
 7137SOL     OW21868   4.228   3.430  10.220
 7137SOL    HW121869   4.294   3.504  10.229
 7137SOL    HW221870   4.272   3.351  10.178
 7138SOL     OW21871   3.764   2.406  10.424
 7138SOL    HW121872   3.849   2.373  10.383
 7138SOL    HW221873   3.777   2.421  10.522
 7139SOL     OW21874   3.913   2.382  11.032
 7139SOL    HW121875   3.972   2.342  10.962
 7139SOL    HW221876   3.855   2.453  10.991
 7140SOL     OW21877   3.976   3.426  11.054
 7140SOL    HW121878   3.946   3.483  11.130
 7140SOL    HW221879   3.969   3.329  11.080
 7141SOL     OW21880   3.883   2.999  10.776
 7141SOL    HW121881   3.905   2.938  10.852
 7141SOL    HW221882   3.893   2.950  10.690
 7142SOL     OW21883   3.807   3.120  10.332
 7142SOL    HW121884   3.802   3.119  10.432
 7142SOL    HW221885   3.724   3.079  10.294
 7143SOL     OW21886   3.854   3.656  11.161
 7143SOL    HW121887   3.813   3.582  11.214
 7143SOL    HW221888   3.918   3.707  11.219
 7144SOL     OW21889   3.799   2.207   9.343
 7144SOL    HW121890   3.707   2.179   9.314
 7144SOL    HW221891   3.830   2.284   9.287
 7145SOL     OW21892   3.796   2.028   9.628
 7145SOL    HW121893   3.779   2.111   9.574
 7145SOL    HW221894   3.886   1.991   9.606
 7146SOL     OW21895   3.803   3.102   9.963
 7146SOL    HW121896   3.802   3.055  10.051
 7146SOL    HW221897   3.885   3.074   9.912
 7147SOL     OW21898   3.763   2.939   9.610
 7147SOL    HW121899   3.862   2.928   9.601
 7147SOL    HW221900   3.723   2.853   9.642
 7148SOL     OW21901   3.954   2.490  11.285
 7148SOL    HW121902   3.861   2.488  11.322
 7148SOL    HW221903   3.955   2.451  11.193
 7149SOL     OW21904   3.949   2.137  12.168
 7149SOL    HW121905   3.984   2.120  12.260
 7149SOL    HW221906   3.861   2.092  12.156
 7150SOL     OW21907   3.743   2.230  11.819
 7150SOL    HW121908   3.661   2.273  11.858
 7150SOL    HW221909   3.715   2.157  11.756
 7151SOL     OW21910   4.059   3.297  12.233
 7151SOL    HW121911   3.981   3.266  12.180
 7151SOL    HW221912   4.117   3.355  12.176
 7152SOL     OW21913   3.955   3.575  11.655
 7152SOL    HW121914   3.989   3.652  11.709
 7152SOL    HW221915   3.999   3.575  11.565
 7153SOL     OW21916   3.954   3.296  11.710
 7153SOL    HW121917   3.928   3.392  11.710
 7153SOL    HW221918   3.883   3.242  11.755
 7154SOL     OW21919   3.846   2.505  11.735
 7154SOL    HW121920   3.801   2.417  11.752
 7154SOL    HW221921   3.845   2.559  11.819
 7155SOL     OW21922   3.751   3.458  11.289
 7155SOL    HW121923   3.732   3.362  11.310
 7155SOL    HW221924   3.718   3.516  11.364
 7156SOL     OW21925   3.837   2.599  12.769
 7156SOL    HW121926   3.925   2.586  12.814
 7156SOL    HW221927   3.824   2.696  12.747
 7157SOL     OW21928   3.800   2.673  11.961
 7157SOL    HW121929   3.899   2.661  11.970
 7157SOL    HW221930   3.776   2.768  11.982
 7158SOL     OW21931   3.854   3.683  12.743
 7158SOL    HW121932   3.844   3.668  12.842
 7158SOL    HW221933   3.768   3.719  12.707
 7159SOL     OW21934   3.926   2.147  12.670
 7159SOL    HW121935   3.846   2.207  12.657
 7159SOL    HW221936   3.916   2.098  12.756
 7160SOL     OW21937   4.021   1.897  11.343
 7160SOL    HW121938   4.070   1.981  11.322
 7160SOL    HW221939   4.083   1.832  11.388
 7161SOL     OW21940   3.802   2.418  12.558
 7161SOL    HW121941   3.894   2.417  12.517
 7161SOL    HW221942   3.796   2.492  12.625
 7162SOL     OW21943   4.251   2.118  11.500
 7162SOL    HW121944   4.278   2.059  11.425
 7162SOL    HW221945   4.251   2.213  11.469
 7163SOL     OW21946   3.788   3.426  12.503
 7163SOL    HW121947   3.742   3.508  12.469
 7163SOL    HW221948   3.886   3.445  12.512
 7164SOL     OW21949   4.091   2.962  11.673
 7164SOL    HW121950   4.084   3.045  11.617
 7164SOL    HW221951   4.095   2.882  11.613
 7165SOL     OW21952   4.031   2.075  12.403
 7165SOL    HW121953   4.008   2.112  12.493
 7165SOL    HW221954   4.001   1.980  12.397
 7166SOL     OW21955   3.761   3.172  12.454
 7166SOL    HW121956   3.814   3.123  12.522
 7166SOL    HW221957   3.783   3.270  12.459
 7167SOL     OW21958   4.031   1.925  11.790
 7167SOL    HW121959   4.020   2.019  11.823
 7167SOL    HW221960   4.026   1.862  11.867
 7168SOL     OW21961   3.732   3.188  11.372
 7168SOL    HW121962   3.639   3.209  11.341
 7168SOL    HW221963   3.742   3.089  11.385
 7169SOL     OW21964   3.812   3.663  12.099
 7169SOL    HW121965   3.770   3.577  12.072
 7169SOL    HW221966   3.906   3.666  12.065
 7170SOL     OW21967   4.228   3.430  12.082
 7170SOL    HW121968   4.294   3.504  12.091
 7170SOL    HW221969   4.272   3.351  12.040
 7171SOL     OW21970   3.764   2.406  12.286
 7171SOL    HW121971   3.849   2.373  12.245
 7171SOL    HW221972   3.777   2.421  12.384
 7172SOL     OW21973   3.913   2.382  12.894
 7172SOL    HW121974   3.972   2.342  12.824
 7172SOL    HW221975   3.855   2.453  12.853
 7173SOL     OW21976   3.976   3.426  12.916
 7173SOL    HW121977   3.946   3.483  12.992
 7173SOL    HW221978   3.969   3.329  12.942
 7174SOL     OW21979   3.883   2.999  12.638
 7174SOL    HW121980   3.905   2.938  12.714
 7174SOL    HW221981   3.893   2.950  12.552
 7175SOL     OW21982   3.807   3.120  12.194
 7175SOL    HW121983   3.802   3.119  12.294
 7175SOL    HW221984   3.724   3.079  12.156
 7176SOL     OW21985   3.854   3.656  13.023
 7176SOL    HW121986   3.813   3.582  13.076
 7176SOL    HW221987   3.918   3.707  13.081
 7177SOL     OW21988   3.799   2.207  11.205
 7177SOL    HW121989   3.707   2.179  11.176
 7177SOL    HW221990   3.830   2.284  11.149
 7178SOL     OW21991   3.796   2.028  11.490
 7178SOL    HW121992   3.779   2.111  11.436
 7178SOL    HW221993   3.886   1.991  11.468
 7179SOL     OW21994   3.803   3.102  11.825
 7179SOL    HW121995   3.802   3.055  11.913
 7179SOL    HW221996   3.885   3.074  11.774
 7180SOL     OW21997   3.763   2.939  11.472
 7180SOL    HW121998   3.862   2.928  11.463
 7180SOL    HW221999   3.723   2.853  11.504
 7181SOL     OW22000   3.954   2.490  13.147
 7181SOL    HW122001   3.861   2.488  13.184
 7181SOL    HW222002   3.955   2.451  13.055
 7182SOL     OW22003   3.743   2.230  13.681
 7182SOL    HW122004   3.661   2.273  13.720
 7182SOL    HW222005   3.715   2.157  13.618
 7183SOL     OW22006   3.955   3.575  13.517
 7183SOL    HW122007   3.989   3.652  13.571
 7183SOL    HW222008   3.999   3.575  13.427
 7184SOL     OW22009   3.954   3.296  13.572
 7184SOL    HW122010   3.928   3.392  13.572
 7184SOL    HW222011   3.883   3.242  13.617
 7185SOL     OW22012   3.964   2.953  13.920
 7185SOL    HW122013   3.978   2.869  13.972
 7185SOL    HW222014   3.909   3.017  13.975
 7186SOL     OW22015   3.846   2.505  13.597
 7186SOL    HW122016   3.801   2.417  13.614
 7186SOL    HW222017   3.845   2.559  13.681
 7187SOL     OW22018   3.751   3.458  13.151
 7187SOL    HW122019   3.732   3.362  13.172
 7187SOL    HW222020   3.718   3.516  13.226
 7188SOL     OW22021   3.800   2.673  13.823
 7188SOL    HW122022   3.899   2.661  13.832
 7188SOL    HW222023   3.776   2.768  13.844
 7189SOL     OW22024   4.075   3.663  13.887
 7189SOL    HW122025   4.125   3.577  13.893
 7189SOL    HW222026   4.140   3.740  13.884
 7190SOL     OW22027   4.021   1.897  13.205
 7190SOL    HW122028   4.070   1.981  13.184
 7190SOL    HW222029   4.083   1.832  13.250
 7191SOL     OW22030   4.251   2.118  13.362
 7191SOL    HW122031   4.278   2.059  13.287
 7191SOL    HW222032   4.251   2.213  13.331
 7192SOL     OW22033   4.091   2.962  13.535
 7192SOL    HW122034   4.084   3.045  13.479
 7192SOL    HW222035   4.095   2.882  13.475
 7193SOL     OW22036   4.031   1.925  13.652
 7193SOL    HW122037   4.020   2.019  13.685
 7193SOL    HW222038   4.026   1.862  13.729
 7194SOL     OW22039   3.732   3.188  13.234
 7194SOL    HW122040   3.639   3.209  13.203
 7194SOL    HW222041   3.742   3.089  13.247
 7195SOL     OW22042   4.228   3.430  13.944
 7195SOL    HW122043   4.294   3.504  13.953
 7195SOL    HW222044   4.272   3.351  13.902
 7196SOL     OW22045   3.799   2.207  13.067
 7196SOL    HW122046   3.707   2.179  13.038
 7196SOL    HW222047   3.830   2.284  13.011
 7197SOL     OW22048   3.796   2.028  13.352
 7197SOL    HW122049   3.779   2.111  13.298
 7197SOL    HW222050   3.886   1.991  13.330
 7198SOL     OW22051   3.803   3.102  13.687
 7198SOL    HW122052   3.802   3.055  13.775
 7198SOL    HW222053   3.885   3.074  13.636
 7199SOL     OW22054   3.763   2.939  13.334
 7199SOL    HW122055   3.862   2.928  13.325
 7199SOL    HW222056   3.723   2.853  13.366
 7200SOL     OW22057   3.949   3.999   0.996
 7200SOL    HW122058   3.984   3.982   1.088
 7200SOL    HW222059   3.861   3.954   0.984
 7201SOL     OW22060   3.743   4.092   0.647
 7201SOL    HW122061   3.661   4.135   0.686
 7201SOL    HW222062   3.715   4.019   0.584
 7202SOL     OW22063   3.926   4.009   1.498
 7202SOL    HW122064   3.846   4.069   1.485
 7202SOL    HW222065   3.916   3.960   1.584
 7203SOL     OW22066   4.021   3.759   0.171
 7203SOL    HW122067   4.070   3.843   0.150
 7203SOL    HW222068   4.083   3.694   0.216
 7204SOL     OW22069   4.031   3.937   1.231
 7204SOL    HW122070   4.008   3.974   1.321
 7204SOL    HW222071   4.001   3.842   1.225
 7205SOL     OW22072   4.031   3.787   0.618
 7205SOL    HW122073   4.020   3.881   0.651
 7205SOL    HW222074   4.026   3.724   0.695
 7206SOL     OW22075   3.796   3.890   0.318
 7206SOL    HW122076   3.779   3.973   0.264
 7206SOL    HW222077   3.886   3.853   0.296
 7207SOL     OW22078   3.949   3.999   2.858
 7207SOL    HW122079   3.984   3.982   2.950
 7207SOL    HW222080   3.861   3.954   2.846
 7208SOL     OW22081   3.743   4.092   2.509
 7208SOL    HW122082   3.661   4.135   2.548
 7208SOL    HW222083   3.715   4.019   2.446
 7209SOL     OW22084   3.926   4.009   3.360
 7209SOL    HW122085   3.846   4.069   3.347
 7209SOL    HW222086   3.916   3.960   3.446
 7210SOL     OW22087   4.021   3.759   2.033
 7210SOL    HW122088   4.070   3.843   2.012
 7210SOL    HW222089   4.083   3.694   2.078
 7211SOL     OW22090   4.031   3.937   3.093
 7211SOL    HW122091   4.008   3.974   3.183
 7211SOL    HW222092   4.001   3.842   3.087
 7212SOL     OW22093   4.031   3.787   2.480
 7212SOL    HW122094   4.020   3.881   2.513
 7212SOL    HW222095   4.026   3.724   2.557
 7213SOL     OW22096   3.799   4.069   1.895
 7213SOL    HW122097   3.707   4.041   1.866
 7213SOL    HW222098   3.830   4.146   1.839
 7214SOL     OW22099   3.796   3.890   2.180
 7214SOL    HW122100   3.779   3.973   2.126
 7214SOL    HW222101   3.886   3.853   2.158
 7215SOL     OW22102   3.949   3.999   4.720
 7215SOL    HW122103   3.984   3.982   4.812
 7215SOL    HW222104   3.861   3.954   4.708
 7216SOL     OW22105   3.743   4.092   4.371
 7216SOL    HW122106   3.661   4.135   4.410
 7216SOL    HW222107   3.715   4.019   4.308
 7217SOL     OW22108   3.926   4.009   5.222
 7217SOL    HW122109   3.846   4.069   5.209
 7217SOL    HW222110   3.916   3.960   5.308
 7218SOL     OW22111   4.021   3.759   3.895
 7218SOL    HW122112   4.070   3.843   3.874
 7218SOL    HW222113   4.083   3.694   3.940
 7219SOL     OW22114   4.031   3.937   4.955
 7219SOL    HW122115   4.008   3.974   5.045
 7219SOL    HW222116   4.001   3.842   4.949
 7220SOL     OW22117   4.031   3.787   4.342
 7220SOL    HW122118   4.020   3.881   4.375
 7220SOL    HW222119   4.026   3.724   4.419
 7221SOL     OW22120   3.799   4.069   3.757
 7221SOL    HW122121   3.707   4.041   3.728
 7221SOL    HW222122   3.830   4.146   3.701
 7222SOL     OW22123   3.796   3.890   4.042
 7222SOL    HW122124   3.779   3.973   3.988
 7222SOL    HW222125   3.886   3.853   4.020
 7223SOL     OW22126   3.949   3.999   6.582
 7223SOL    HW122127   3.984   3.982   6.674
 7223SOL    HW222128   3.861   3.954   6.570
 7224SOL     OW22129   3.743   4.092   6.233
 7224SOL    HW122130   3.661   4.135   6.272
 7224SOL    HW222131   3.715   4.019   6.170
 7225SOL     OW22132   3.926   4.009   7.084
 7225SOL    HW122133   3.846   4.069   7.071
 7225SOL    HW222134   3.916   3.960   7.170
 7226SOL     OW22135   4.021   3.759   5.757
 7226SOL    HW122136   4.070   3.843   5.736
 7226SOL    HW222137   4.083   3.694   5.802
 7227SOL     OW22138   4.031   3.937   6.817
 7227SOL    HW122139   4.008   3.974   6.907
 7227SOL    HW222140   4.001   3.842   6.811
 7228SOL     OW22141   4.031   3.787   6.204
 7228SOL    HW122142   4.020   3.881   6.237
 7228SOL    HW222143   4.026   3.724   6.281
 7229SOL     OW22144   3.799   4.069   5.619
 7229SOL    HW122145   3.707   4.041   5.590
 7229SOL    HW222146   3.830   4.146   5.563
 7230SOL     OW22147   3.796   3.890   5.904
 7230SOL    HW122148   3.779   3.973   5.850
 7230SOL    HW222149   3.886   3.853   5.882
 7231SOL     OW22150   3.949   3.999   8.444
 7231SOL    HW122151   3.984   3.982   8.536
 7231SOL    HW222152   3.861   3.954   8.432
 7232SOL     OW22153   3.743   4.092   8.095
 7232SOL    HW122154   3.661   4.135   8.134
 7232SOL    HW222155   3.715   4.019   8.032
 7233SOL     OW22156   3.926   4.009   8.946
 7233SOL    HW122157   3.846   4.069   8.933
 7233SOL    HW222158   3.916   3.960   9.032
 7234SOL     OW22159   4.021   3.759   7.619
 7234SOL    HW122160   4.070   3.843   7.598
 7234SOL    HW222161   4.083   3.694   7.664
 7235SOL     OW22162   4.031   3.937   8.679
 7235SOL    HW122163   4.008   3.974   8.769
 7235SOL    HW222164   4.001   3.842   8.673
 7236SOL     OW22165   4.031   3.787   8.066
 7236SOL    HW122166   4.020   3.881   8.099
 7236SOL    HW222167   4.026   3.724   8.143
 7237SOL     OW22168   3.799   4.069   7.481
 7237SOL    HW122169   3.707   4.041   7.452
 7237SOL    HW222170   3.830   4.146   7.425
 7238SOL     OW22171   3.796   3.890   7.766
 7238SOL    HW122172   3.779   3.973   7.712
 7238SOL    HW222173   3.886   3.853   7.744
 7239SOL     OW22174   3.949   3.999  10.306
 7239SOL    HW122175   3.984   3.982  10.398
 7239SOL    HW222176   3.861   3.954  10.294
 7240SOL     OW22177   3.743   4.092   9.957
 7240SOL    HW122178   3.661   4.135   9.996
 7240SOL    HW222179   3.715   4.019   9.894
 7241SOL     OW22180   3.926   4.009  10.808
 7241SOL    HW122181   3.846   4.069  10.795
 7241SOL    HW222182   3.916   3.960  10.894
 7242SOL     OW22183   4.021   3.759   9.481
 7242SOL    HW122184   4.070   3.843   9.460
 7242SOL    HW222185   4.083   3.694   9.526
 7243SOL     OW22186   4.031   3.937  10.541
 7243SOL    HW122187   4.008   3.974  10.631
 7243SOL    HW222188   4.001   3.842  10.535
 7244SOL     OW22189   4.031   3.787   9.928
 7244SOL    HW122190   4.020   3.881   9.961
 7244SOL    HW222191   4.026   3.724  10.005
 7245SOL     OW22192   3.799   4.069   9.343
 7245SOL    HW122193   3.707   4.041   9.314
 7245SOL    HW222194   3.830   4.146   9.287
 7246SOL     OW22195   3.796   3.890   9.628
 7246SOL    HW122196   3.779   3.973   9.574
 7246SOL    HW222197   3.886   3.853   9.606
 7247SOL     OW22198   3.949   3.999  12.168
 7247SOL    HW122199   3.984   3.982  12.260
 7247SOL    HW222200   3.861   3.954  12.156
 7248SOL     OW22201   3.743   4.092  11.819
 7248SOL    HW122202   3.661   4.135  11.858
 7248SOL    HW222203   3.715   4.019  11.756
 7249SOL     OW22204   3.926   4.009  12.670
 7249SOL    HW122205   3.846   4.069  12.657
 7249SOL    HW222206   3.916   3.960  12.756
 7250SOL     OW22207   4.021   3.759  11.343
 7250SOL    HW122208   4.070   3.843  11.322
 7250SOL    HW222209   4.083   3.694  11.388
 7251SOL     OW22210   4.031   3.937  12.403
 7251SOL    HW122211   4.008   3.974  12.493
 7251SOL    HW222212   4.001   3.842  12.397
 7252SOL     OW22213   4.031   3.787  11.790
 7252SOL    HW122214   4.020   3.881  11.823
 7252SOL    HW222215   4.026   3.724  11.867
 7253SOL     OW22216   3.799   4.069  11.205
 7253SOL    HW122217   3.707   4.041  11.176
 7253SOL    HW222218   3.830   4.146  11.149
 7254SOL     OW22219   3.796   3.890  11.490
 7254SOL    HW122220   3.779   3.973  11.436
 7254SOL    HW222221   3.886   3.853  11.468
 7255SOL     OW22222   3.743   4.092  13.681
 7255SOL    HW122223   3.661   4.135  13.720
 7255SOL    HW222224   3.715   4.019  13.618
 7256SOL     OW22225   4.021   3.759  13.205
 7256SOL    HW122226   4.070   3.843  13.184
 7256SOL    HW222227   4.083   3.694  13.250
 7257SOL     OW22228   4.031   3.787  13.652
 7257SOL    HW122229   4.020   3.881  13.685
 7257SOL    HW222230   4.026   3.724  13.729
 7258SOL     OW22231   3.799   4.069  13.067
 7258SOL    HW122232   3.707   4.041  13.038
 7258SOL    HW222233   3.830   4.146  13.011
 7259SOL     OW22234   3.796   3.890  13.352
 7259SOL    HW122235   3.779   3.973  13.298
 7259SOL    HW222236   3.886   3.853  13.330
   4.00000   4.00000  13.90000
