Built with Packmol
22227
    1LIG      O    1   2.161   2.087   0.066
    1LIG      C    2   2.089   2.125   0.217
    1LIG     C1    3   2.166   2.083   0.377
    1LIG     O1    4   2.095   2.120   0.530
    1LIG     C2    5   2.166   2.082   0.681
    1LIG     C3    6   2.086   2.123   0.838
    1LIG     O2    7   2.157   2.085   0.990
    1LIG     C4    8   2.085   2.122   1.142
    1LIG     C5    9   2.165   2.079   1.300
    1LIG     O3   10   2.093   2.115   1.452
    1LIG     C6   11   2.164   2.077   1.603
    1LIG     C7   12   2.084   2.119   1.760
    1LIG     O4   13   2.154   2.081   1.913
    1LIG     C8   14   2.083   2.118   2.065
    1LIG     C9   15   2.163   2.075   2.221
    1LIG     O5   16   2.092   2.112   2.373
    1LIG    C10   17   2.163   2.074   2.525
    1LIG    C11   18   2.082   2.117   2.682
    1LIG     O6   19   2.153   2.079   2.833
    1LIG    C12   20   2.082   2.116   2.985
    1LIG    C13   21   2.163   2.073   3.142
    1LIG     O7   22   2.091   2.110   3.294
    1LIG    C14   23   2.162   2.073   3.446
    1LIG    C15   24   2.083   2.115   3.604
    1LIG     O8   25   2.153   2.077   3.757
    1LIG    C16   26   2.081   2.115   3.908
    1LIG    C17   27   2.161   2.072   4.066
    1LIG     O9   28   2.090   2.109   4.219
    1LIG    C18   29   2.162   2.071   4.369
    1LIG    C19   30   2.082   2.114   4.526
    1LIG    O10   31   2.153   2.076   4.678
    1LIG    C20   32   2.081   2.114   4.830
    1LIG    C21   33   2.162   2.071   4.986
    1LIG    O11   34   2.091   2.109   5.138
    1LIG    C22   35   2.162   2.071   5.290
    1LIG    C23   36   2.081   2.113   5.447
    1LIG    O12   37   2.152   2.075   5.598
    1LIG    C24   38   2.081   2.113   5.751
    1LIG    C25   39   2.161   2.070   5.909
    1LIG    O13   40   2.090   2.108   6.061
    1LIG    C26   41   2.162   2.070   6.212
    1LIG    C27   42   2.082   2.112   6.369
    1LIG    O14   43   2.153   2.075   6.521
    1LIG    C28   44   2.082   2.113   6.673
    1LIG    C29   45   2.162   2.071   6.831
    1LIG    O15   46   2.090   2.109   6.983
    1LIG    C30   47   2.162   2.071   7.134
    1LIG    C31   48   2.082   2.114   7.291
    1LIG    O16   49   2.153   2.076   7.442
    1LIG    C32   50   2.082   2.113   7.594
    1LIG    C33   51   2.162   2.071   7.752
    1LIG    O17   52   2.091   2.109   7.904
    1LIG    C34   53   2.163   2.071   8.056
    1LIG    C35   54   2.083   2.113   8.213
    1LIG    O18   55   2.154   2.076   8.365
    1LIG    C36   56   2.082   2.114   8.516
    1LIG    C37   57   2.162   2.072   8.674
    1LIG    O19   58   2.091   2.110   8.827
    1LIG    C38   59   2.163   2.073   8.978
    1LIG    C39   60   2.084   2.115   9.136
    1LIG    O20   61   2.155   2.077   9.288
    1LIG    C40   62   2.083   2.115   9.439
    1LIG    C41   63   2.163   2.074   9.597
    1LIG    O21   64   2.092   2.111   9.749
    1LIG    C42   65   2.164   2.073   9.900
    1LIG    C43   66   2.084   2.116  10.057
    1LIG    O22   67   2.155   2.079  10.209
    1LIG    C44   68   2.084   2.116  10.361
    1LIG    C45   69   2.165   2.074  10.518
    1LIG    O23   70   2.094   2.112  10.670
    1LIG    C46   71   2.165   2.075  10.822
    1LIG    C47   72   2.084   2.117  10.979
    1LIG    O24   73   2.156   2.080  11.130
    1LIG    C48   74   2.085   2.117  11.282
    1LIG    C49   75   2.166   2.075  11.439
    1LIG    O25   76   2.095   2.113  11.591
    1LIG    C50   77   2.166   2.076  11.743
    1LIG    C51   78   2.085   2.118  11.900
    1LIG    O26   79   2.157   2.081  12.051
    1LIG    C52   80   2.086   2.118  12.204
    1LIG    C53   81   2.167   2.077  12.360
    1LIG    O27   82   2.095   2.114  12.512
    1LIG    C54   83   2.166   2.077  12.664
    1LIG    C55   84   2.086   2.120  12.822
    1LIG    O28   85   2.158   2.083  12.974
    1LIG    C56   86   2.087   2.120  13.127
    1LIG    C57   87   2.167   2.079  13.285
    1LIG    O29   88   2.096   2.117  13.438
    1LIG    C58   89   2.168   2.079  13.589
    1LIG    C59   90   2.089   2.121  13.747
    1LIG      H   91   1.990   2.077   0.214
    1LIG     H1   92   2.073   2.233   0.215
    1LIG     H2   93   2.265   2.131   0.377
    1LIG     H3   94   2.182   1.975   0.375
    1LIG     H4   95   2.265   2.130   0.683
    1LIG     H5   96   2.182   1.973   0.682
    1LIG     H6   97   1.987   2.076   0.836
    1LIG     H7   98   2.071   2.232   0.837
    1LIG     H8   99   1.987   2.074   1.143
    1LIG     H9  100   2.070   2.230   1.145
    1LIG    H10  101   2.263   2.127   1.299
    1LIG    H11  102   2.180   1.970   1.297
    1LIG    H12  103   2.263   2.125   1.606
    1LIG    H13  104   2.180   1.968   1.604
    1LIG    H14  105   1.985   2.071   1.758
    1LIG    H15  106   2.068   2.227   1.759
    1LIG    H16  107   1.984   2.070   2.066
    1LIG    H17  108   2.067   2.227   2.067
    1LIG    H18  109   2.262   2.123   2.219
    1LIG    H19  110   2.179   1.966   2.219
    1LIG    H20  111   2.261   2.122   2.527
    1LIG    H21  112   2.178   1.966   2.527
    1LIG    H22  113   1.984   2.068   2.679
    1LIG    H23  114   2.067   2.225   2.680
    1LIG    H24  115   1.984   2.068   2.987
    1LIG    H25  116   2.067   2.224   2.988
    1LIG    H26  117   2.261   2.121   3.141
    1LIG    H27  118   2.178   1.964   3.140
    1LIG    H28  119   2.261   2.121   3.448
    1LIG    H29  120   2.178   1.964   3.448
    1LIG    H30  121   1.984   2.066   3.602
    1LIG    H31  122   2.067   2.223   3.603
    1LIG    H32  123   1.983   2.066   3.909
    1LIG    H33  124   2.066   2.223   3.910
    1LIG    H34  125   2.260   2.120   4.064
    1LIG    H35  126   2.177   1.964   4.064
    1LIG    H36  127   2.261   2.120   4.371
    1LIG    H37  128   2.178   1.963   4.371
    1LIG    H38  129   1.984   2.065   4.524
    1LIG    H39  130   2.066   2.222   4.524
    1LIG    H40  131   1.983   2.066   4.832
    1LIG    H41  132   2.066   2.222   4.832
    1LIG    H42  133   2.260   2.119   4.985
    1LIG    H43  134   2.177   1.963   4.984
    1LIG    H44  135   2.260   2.119   5.292
    1LIG    H45  136   2.177   1.962   5.292
    1LIG    H46  137   1.983   2.065   5.445
    1LIG    H47  138   2.066   2.222   5.445
    1LIG    H48  139   1.983   2.065   5.753
    1LIG    H49  140   2.066   2.221   5.753
    1LIG    H50  141   2.260   2.119   5.907
    1LIG    H51  142   2.177   1.962   5.907
    1LIG    H52  143   2.260   2.118   6.214
    1LIG    H53  144   2.177   1.961   6.214
    1LIG    H54  145   1.983   2.064   6.368
    1LIG    H55  146   2.066   2.221   6.367
    1LIG    H56  147   1.983   2.065   6.675
    1LIG    H57  148   2.066   2.221   6.675
    1LIG    H58  149   2.260   2.119   6.829
    1LIG    H59  150   2.178   1.962   6.830
    1LIG    H60  151   2.261   2.119   7.136
    1LIG    H61  152   2.178   1.963   7.136
    1LIG    H62  153   1.983   2.065   7.289
    1LIG    H63  154   2.066   2.222   7.289
    1LIG    H64  155   1.984   2.065   7.596
    1LIG    H65  156   2.067   2.222   7.596
    1LIG    H66  157   2.261   2.120   7.750
    1LIG    H67  158   2.178   1.963   7.751
    1LIG    H68  159   2.261   2.120   8.057
    1LIG    H69  160   2.178   1.963   8.057
    1LIG    H70  161   1.984   2.065   8.212
    1LIG    H71  162   2.067   2.222   8.211
    1LIG    H72  163   1.984   2.066   8.518
    1LIG    H73  164   2.067   2.223   8.518
    1LIG    H74  165   2.261   2.120   8.673
    1LIG    H75  166   2.178   1.964   8.673
    1LIG    H76  167   2.262   2.121   8.979
    1LIG    H77  168   2.179   1.964   8.979
    1LIG    H78  169   1.986   2.066   9.134
    1LIG    H79  170   2.068   2.223   9.134
    1LIG    H80  171   1.985   2.067   9.441
    1LIG    H81  172   2.067   2.224   9.440
    1LIG    H82  173   2.262   2.122   9.595
    1LIG    H83  174   2.179   1.965   9.595
    1LIG    H84  175   2.263   2.122   9.902
    1LIG    H85  176   2.180   1.965   9.902
    1LIG    H86  177   1.986   2.067  10.055
    1LIG    H87  178   2.068   2.224  10.055
    1LIG    H88  179   1.986   2.068  10.363
    1LIG    H89  180   2.068   2.225  10.363
    1LIG    H90  181   2.263   2.123  10.516
    1LIG    H91  182   2.181   1.966  10.516
    1LIG    H92  183   2.263   2.123  10.824
    1LIG    H93  184   2.181   1.966  10.824
    1LIG    H94  185   1.986   2.069  10.977
    1LIG    H95  186   2.068   2.226  10.977
    1LIG    H96  187   1.987   2.069  11.285
    1LIG    H97  188   2.069   2.226  11.284
    1LIG    H98  189   2.264   2.124  11.437
    1LIG    H99  190   2.182   1.967  11.438
    1LIG   H100  191   2.264   2.124  11.745
    1LIG   H101  192   2.182   1.967  11.746
    1LIG   H102  193   1.987   2.069  11.898
    1LIG   H103  194   2.069   2.227  11.898
    1LIG   H104  195   1.988   2.070  12.206
    1LIG   H105  196   2.070   2.227  12.206
    1LIG   H106  197   2.265   2.125  12.358
    1LIG   H107  198   2.183   1.968  12.359
    1LIG   H108  199   2.265   2.126  12.666
    1LIG   H109  200   2.182   1.969  12.666
    1LIG   H110  201   1.988   2.071  12.821
    1LIG   H111  202   2.070   2.228  12.820
    1LIG   H112  203   1.988   2.071  13.128
    1LIG   H113  204   2.070   2.229  13.128
    1LIG   H114  205   2.265   2.128  13.283
    1LIG   H115  206   2.183   1.971  13.284
    1LIG   H116  207   2.266   2.129  13.589
    1LIG   H117  208   2.183   1.971  13.590
    1LIG   H118  209   2.072   2.229  13.747
    1LIG   H119  210   2.142   2.094  13.866
    1LIG      O  211   1.861   1.866   0.066
    1LIG      C  212   1.926   1.916   0.217
    1LIG     C1  213   1.856   1.863   0.377
    1LIG     O1  214   1.919   1.912   0.530
    1LIG     C2  215   1.854   1.863   0.681
    1LIG     C3  216   1.926   1.919   0.838
    1LIG     O2  217   1.861   1.871   0.990
    1LIG     C4  218   1.925   1.920   1.142
    1LIG     C5  219   1.852   1.866   1.300
    1LIG     O3  220   1.916   1.916   1.452
    1LIG     C6  221   1.851   1.867   1.603
    1LIG     C7  222   1.922   1.923   1.760
    1LIG     O4  223   1.859   1.875   1.913
    1LIG     C8  224   1.922   1.924   2.065
    1LIG     C9  225   1.849   1.869   2.221
    1LIG     O5  226   1.913   1.918   2.373
    1LIG    C10  227   1.849   1.870   2.525
    1LIG    C11  228   1.921   1.925   2.682
    1LIG     O6  229   1.857   1.876   2.833
    1LIG    C12  230   1.920   1.925   2.985
    1LIG    C13  231   1.848   1.870   3.142
    1LIG     O7  232   1.912   1.919   3.294
    1LIG    C14  233   1.848   1.871   3.446
    1LIG    C15  234   1.919   1.926   3.604
    1LIG     O8  235   1.855   1.877   3.757
    1LIG    C16  236   1.920   1.927   3.908
    1LIG    C17  237   1.848   1.872   4.066
    1LIG     O9  238   1.911   1.921   4.219
    1LIG    C18  239   1.847   1.871   4.369
    1LIG    C19  240   1.918   1.927   4.526
    1LIG    O10  241   1.855   1.878   4.678
    1LIG    C20  242   1.919   1.927   4.830
    1LIG    C21  243   1.847   1.872   4.986
    1LIG    O11  244   1.910   1.921   5.138
    1LIG    C22  245   1.847   1.872   5.290
    1LIG    C23  246   1.919   1.928   5.447
    1LIG    O12  247   1.854   1.878   5.598
    1LIG    C24  248   1.918   1.927   5.751
    1LIG    C25  249   1.846   1.873   5.909
    1LIG    O13  250   1.910   1.922   6.061
    1LIG    C26  251   1.846   1.872   6.212
    1LIG    C27  252   1.918   1.928   6.369
    1LIG    O14  253   1.854   1.878   6.521
    1LIG    C28  254   1.918   1.927   6.673
    1LIG    C29  255   1.847   1.872   6.831
    1LIG    O15  256   1.910   1.921   6.983
    1LIG    C30  257   1.846   1.872   7.134
    1LIG    C31  258   1.919   1.927   7.291
    1LIG    O16  259   1.855   1.878   7.442
    1LIG    C32  260   1.918   1.927   7.594
    1LIG    C33  261   1.847   1.871   7.752
    1LIG    O17  262   1.911   1.920   7.904
    1LIG    C34  263   1.847   1.871   8.056
    1LIG    C35  264   1.918   1.926   8.213
    1LIG    O18  265   1.854   1.877   8.365
    1LIG    C36  266   1.919   1.926   8.516
    1LIG    C37  267   1.847   1.871   8.674
    1LIG    O19  268   1.912   1.920   8.827
    1LIG    C38  269   1.847   1.870   8.978
    1LIG    C39  270   1.919   1.924   9.136
    1LIG    O20  271   1.855   1.875   9.288
    1LIG    C40  272   1.919   1.925   9.439
    1LIG    C41  273   1.848   1.869   9.597
    1LIG    O21  274   1.912   1.918   9.749
    1LIG    C42  275   1.848   1.868   9.900
    1LIG    C43  276   1.920   1.924  10.057
    1LIG    O22  277   1.857   1.875  10.209
    1LIG    C44  278   1.920   1.924  10.361
    1LIG    C45  279   1.848   1.868  10.518
    1LIG    O23  280   1.912   1.917  10.670
    1LIG    C46  281   1.849   1.867  10.822
    1LIG    C47  282   1.921   1.923  10.979
    1LIG    O24  283   1.857   1.874  11.130
    1LIG    C48  284   1.921   1.922  11.282
    1LIG    C49  285   1.849   1.866  11.439
    1LIG    O25  286   1.912   1.916  11.591
    1LIG    C50  287   1.849   1.866  11.743
    1LIG    C51  288   1.922   1.922  11.900
    1LIG    O26  289   1.858   1.872  12.051
    1LIG    C52  290   1.921   1.921  12.204
    1LIG    C53  291   1.850   1.865  12.360
    1LIG    O27  292   1.914   1.914  12.512
    1LIG    C54  293   1.851   1.865  12.664
    1LIG    C55  294   1.922   1.920  12.822
    1LIG    O28  295   1.859   1.870  12.974
    1LIG    C56  296   1.923   1.920  13.127
    1LIG    C57  297   1.852   1.864  13.285
    1LIG    O29  298   1.915   1.913  13.438
    1LIG    C58  299   1.851   1.863  13.589
    1LIG    C59  300   1.922   1.917  13.747
    1LIG      H  301   1.924   2.025   0.214
    1LIG     H1  302   2.031   1.885   0.215
    1LIG     H2  303   1.858   1.753   0.377
    1LIG     H3  304   1.751   1.894   0.375
    1LIG     H4  305   1.857   1.754   0.683
    1LIG     H5  306   1.749   1.895   0.682
    1LIG     H6  307   1.923   2.029   0.836
    1LIG     H7  308   2.031   1.888   0.837
    1LIG     H8  309   1.922   2.030   1.143
    1LIG     H9  310   2.030   1.889   1.145
    1LIG    H10  311   1.855   1.756   1.299
    1LIG    H11  312   1.747   1.897   1.297
    1LIG    H12  313   1.854   1.757   1.606
    1LIG    H13  314   1.746   1.898   1.604
    1LIG    H14  315   1.920   2.032   1.758
    1LIG    H15  316   2.028   1.892   1.759
    1LIG    H16  317   1.919   2.034   2.066
    1LIG    H17  318   2.027   1.893   2.067
    1LIG    H18  319   1.852   1.759   2.219
    1LIG    H19  320   1.744   1.900   2.219
    1LIG    H20  321   1.852   1.760   2.527
    1LIG    H21  322   1.744   1.901   2.527
    1LIG    H22  323   1.918   2.035   2.679
    1LIG    H23  324   2.026   1.894   2.680
    1LIG    H24  325   1.918   2.035   2.987
    1LIG    H25  326   2.026   1.894   2.988
    1LIG    H26  327   1.851   1.761   3.141
    1LIG    H27  328   1.743   1.901   3.140
    1LIG    H28  329   1.851   1.761   3.448
    1LIG    H29  330   1.743   1.902   3.448
    1LIG    H30  331   1.916   2.035   3.602
    1LIG    H31  332   2.024   1.895   3.603
    1LIG    H32  333   1.917   2.036   3.909
    1LIG    H33  334   2.025   1.896   3.910
    1LIG    H34  335   1.851   1.762   4.064
    1LIG    H35  336   1.743   1.903   4.064
    1LIG    H36  337   1.850   1.762   4.371
    1LIG    H37  338   1.741   1.902   4.371
    1LIG    H38  339   1.916   2.036   4.524
    1LIG    H39  340   2.024   1.896   4.524
    1LIG    H40  341   1.916   2.037   4.832
    1LIG    H41  342   2.024   1.896   4.832
    1LIG    H42  343   1.850   1.762   4.985
    1LIG    H43  344   1.742   1.903   4.984
    1LIG    H44  345   1.849   1.762   5.292
    1LIG    H45  346   1.741   1.903   5.292
    1LIG    H46  347   1.916   2.037   5.445
    1LIG    H47  348   2.024   1.896   5.445
    1LIG    H48  349   1.915   2.037   5.753
    1LIG    H49  350   2.023   1.896   5.753
    1LIG    H50  351   1.849   1.763   5.907
    1LIG    H51  352   1.741   1.903   5.907
    1LIG    H52  353   1.848   1.763   6.214
    1LIG    H53  354   1.740   1.903   6.214
    1LIG    H54  355   1.915   2.037   6.368
    1LIG    H55  356   2.023   1.897   6.367
    1LIG    H56  357   1.915   2.037   6.675
    1LIG    H57  358   2.023   1.896   6.675
    1LIG    H58  359   1.850   1.762   6.829
    1LIG    H59  360   1.741   1.903   6.830
    1LIG    H60  361   1.849   1.762   7.136
    1LIG    H61  362   1.741   1.902   7.136
    1LIG    H62  363   1.916   2.037   7.289
    1LIG    H63  364   2.024   1.896   7.289
    1LIG    H64  365   1.915   2.036   7.596
    1LIG    H65  366   2.023   1.896   7.596
    1LIG    H66  367   1.850   1.762   7.750
    1LIG    H67  368   1.741   1.902   7.751
    1LIG    H68  369   1.850   1.761   8.057
    1LIG    H69  370   1.741   1.902   8.057
    1LIG    H70  371   1.915   2.036   8.212
    1LIG    H71  372   2.023   1.895   8.211
    1LIG    H72  373   1.916   2.036   8.518
    1LIG    H73  374   2.024   1.895   8.518
    1LIG    H74  375   1.850   1.761   8.673
    1LIG    H75  376   1.742   1.902   8.673
    1LIG    H76  377   1.851   1.760   8.979
    1LIG    H77  378   1.742   1.900   8.979
    1LIG    H78  379   1.916   2.034   9.134
    1LIG    H79  380   2.024   1.894   9.134
    1LIG    H80  381   1.916   2.034   9.441
    1LIG    H81  382   2.025   1.894   9.440
    1LIG    H82  383   1.851   1.760   9.595
    1LIG    H83  384   1.743   1.900   9.595
    1LIG    H84  385   1.851   1.759   9.902
    1LIG    H85  386   1.742   1.899   9.902
    1LIG    H86  387   1.916   2.034  10.055
    1LIG    H87  388   2.025   1.894  10.055
    1LIG    H88  389   1.917   2.033  10.363
    1LIG    H89  390   2.026   1.893  10.363
    1LIG    H90  391   1.852   1.758  10.516
    1LIG    H91  392   1.743   1.898  10.516
    1LIG    H92  393   1.852   1.758  10.824
    1LIG    H93  394   1.743   1.898  10.824
    1LIG    H94  395   1.918   2.033  10.977
    1LIG    H95  396   2.026   1.893  10.977
    1LIG    H96  397   1.917   2.032  11.285
    1LIG    H97  398   2.026   1.892  11.284
    1LIG    H98  399   1.852   1.757  11.437
    1LIG    H99  400   1.743   1.897  11.438
    1LIG   H100  401   1.853   1.757  11.745
    1LIG   H101  402   1.744   1.897  11.746
    1LIG   H102  403   1.918   2.032  11.898
    1LIG   H103  404   2.027   1.892  11.898
    1LIG   H104  405   1.918   2.031  12.206
    1LIG   H105  406   2.027   1.891  12.206
    1LIG   H106  407   1.853   1.755  12.358
    1LIG   H107  408   1.744   1.896  12.359
    1LIG   H108  409   1.854   1.755  12.666
    1LIG   H109  410   1.745   1.895  12.666
    1LIG   H110  411   1.919   2.030  12.821
    1LIG   H111  412   2.027   1.890  12.820
    1LIG   H112  413   1.919   2.029  13.128
    1LIG   H113  414   2.028   1.889  13.128
    1LIG   H114  415   1.855   1.754  13.283
    1LIG   H115  416   1.746   1.894  13.284
    1LIG   H116  417   1.856   1.753  13.589
    1LIG   H117  418   1.746   1.894  13.590
    1LIG   H118  419   2.028   1.887  13.747
    1LIG   H119  420   1.875   1.880  13.866
    1MOL     C1  421   2.674   2.203   6.396
    1MOL     H1  422   2.779   2.173   6.387
    1MOL     O1  423   2.642   2.263   6.272
    1MOL     C2  424   2.508   2.316   6.263
    1MOL     H2  425   2.436   2.234   6.275
    1MOL     C3  426   2.490   2.373   6.123
    1MOL     H3  427   2.384   2.394   6.108
    1MOL     H4  428   2.521   2.296   6.050
    1MOL     O2  429   2.569   2.491   6.110
    1MOL     H5  430   2.545   2.533   6.026
    1MOL     C4  431   2.656   2.304   6.511
    1MOL     H6  432   2.724   2.387   6.492
    1MOL     O3  433   2.690   2.253   6.638
    1MOL     H7  434   2.657   2.160   6.647
    1MOL     C5  435   2.513   2.359   6.509
    1MOL     H8  436   2.442   2.277   6.528
    1MOL     O4  437   2.499   2.458   6.610
    1MOL     H9  438   2.546   2.424   6.688
    1MOL     C6  439   2.484   2.420   6.373
    1MOL    H10  440   2.551   2.505   6.358
    1MOL     O5  441   2.348   2.464   6.373
    1MOL     C7  442   2.319   2.591   6.317
    1MOL    H11  443   2.408   2.633   6.270
    1MOL     O6  444   2.225   2.579   6.212
    1MOL     C8  445   2.096   2.528   6.252
    1MOL    H12  446   2.111   2.429   6.299
    1MOL     C9  447   2.010   2.509   6.126
    1MOL    H13  448   1.938   2.429   6.146
    1MOL    H14  449   2.077   2.475   6.046
    1MOL     O7  450   1.945   2.626   6.081
    1MOL    H15  451   1.858   2.629   6.124
    1MOL    C10  452   2.266   2.683   6.428
    1MOL    H16  453   2.254   2.784   6.386
    1MOL     O8  454   2.355   2.697   6.538
    1MOL    H17  455   2.387   2.609   6.565
    1MOL    C11  456   2.128   2.636   6.475
    1MOL    H18  457   2.138   2.536   6.522
    1MOL     O9  458   2.072   2.728   6.568
    1MOL    H19  459   2.144   2.751   6.629
    1MOL    C12  460   2.035   2.624   6.355
    1MOL    H20  461   2.025   2.722   6.307
    1MOL    O10  462   1.907   2.580   6.401
    1MOL    C13  463   1.795   2.661   6.374
    1MOL    H21  464   1.827   2.761   6.341
    1MOL    O11  465   1.719   2.609   6.266
    1MOL    C14  466   1.664   2.477   6.289
    1MOL    H22  467   1.747   2.409   6.312
    1MOL    C15  468   1.595   2.430   6.161
    1MOL    H23  469   1.602   2.320   6.157
    1MOL    H24  470   1.653   2.468   6.076
    1MOL    O12  471   1.462   2.473   6.145
    1MOL    H25  472   1.405   2.403   6.181
    1MOL    C16  473   1.711   2.670   6.501
    1MOL    H26  474   1.629   2.741   6.482
    1MOL    O13  475   1.782   2.720   6.613
    1MOL    H27  476   1.877   2.699   6.603
    1MOL    C17  477   1.649   2.534   6.532
    1MOL    H28  478   1.729   2.462   6.555
    1MOL    O14  479   1.559   2.543   6.643
    1MOL    H29  480   1.607   2.594   6.711
    1MOL    C18  481   1.571   2.485   6.411
    1MOL    H30  482   1.490   2.556   6.388
    1MOL    O15  483   1.515   2.357   6.442
    1MOL    C19  484   1.376   2.338   6.428
    1MOL    H31  485   1.326   2.434   6.414
    1MOL    O16  486   1.346   2.263   6.311
    1MOL    C20  487   1.403   2.129   6.311
    1MOL    H32  488   1.512   2.139   6.322
    1MOL    C21  489   1.374   2.064   6.175
    1MOL    H33  490   1.456   1.995   6.152
    1MOL    H34  491   1.375   2.143   6.099
    1MOL    O17  492   1.249   1.999   6.167
    1MOL    H35  493   1.264   1.905   6.188
    1MOL    C22  494   1.325   2.268   6.554
    1MOL    H36  495   1.215   2.261   6.546
    1MOL    O18  496   1.352   2.338   6.673
    1MOL    H37  497   1.436   2.388   6.663
    1MOL    C23  498   1.380   2.125   6.560
    1MOL    H38  499   1.490   2.130   6.571
    1MOL    O19  500   1.323   2.054   6.669
    1MOL    H39  501   1.328   2.114   6.746
    1MOL    C24  502   1.347   2.052   6.431
    1MOL    H40  503   1.238   2.045   6.419
    1MOL    O20  504   1.403   1.921   6.438
    1MOL    C25  505   1.318   1.810   6.420
    1MOL    H41  506   1.213   1.841   6.421
    1MOL    O21  507   1.338   1.750   6.293
    1MOL    C26  508   1.471   1.698   6.271
    1MOL    H42  509   1.543   1.781   6.277
    1MOL    C27  510   1.477   1.642   6.130
    1MOL    H43  511   1.582   1.621   6.106
    1MOL    H44  512   1.439   1.718   6.060
    1MOL    O22  513   1.399   1.523   6.124
    1MOL    H45  514   1.408   1.485   6.035
    1MOL    C28  515   1.346   1.709   6.532
    1MOL    H46  516   1.277   1.625   6.520
    1MOL    O23  517   1.325   1.762   6.661
    1MOL    H47  518   1.348   1.857   6.662
    1MOL    C29  519   1.489   1.655   6.518
    1MOL    H48  520   1.560   1.738   6.531
    1MOL    O24  521   1.513   1.555   6.616
    1MOL    H49  522   1.475   1.589   6.699
    1MOL    C30  523   1.508   1.595   6.379
    1MOL    H50  524   1.443   1.507   6.369
    1MOL    O25  525   1.645   1.558   6.367
    1MOL    C31  526   1.676   1.433   6.305
    1MOL    H51  527   1.588   1.394   6.254
    1MOL    O26  528   1.773   1.452   6.205
    1MOL    C32  529   1.900   1.503   6.252
    1MOL    H52  530   1.883   1.599   6.302
    1MOL    C33  531   1.989   1.528   6.130
    1MOL    H53  532   2.065   1.602   6.158
    1MOL    H54  533   1.925   1.573   6.053
    1MOL    O27  534   2.049   1.410   6.079
    1MOL    H55  535   2.146   1.422   6.086
    1MOL    C34  536   1.726   1.335   6.413
    1MOL    H56  537   1.740   1.237   6.365
    1MOL    O28  538   1.633   1.314   6.518
    1MOL    H57  539   1.606   1.400   6.555
    1MOL    C35  540   1.861   1.382   6.467
    1MOL    H58  541   1.847   1.478   6.518
    1MOL    O29  542   1.915   1.286   6.558
    1MOL    H59  543   1.840   1.258   6.613
    1MOL    C36  544   1.959   1.401   6.352
    1MOL    H60  545   1.974   1.307   6.298
    1MOL    O30  546   2.083   1.447   6.406
    1MOL    C37  547   2.191   1.355   6.403
    1MOL    H61  548   2.154   1.254   6.384
    1MOL    O31  549   2.281   1.383   6.298
    1MOL    C38  550   2.341   1.513   6.303
    1MOL    H62  551   2.263   1.591   6.306
    1MOL    C39  552   2.418   1.529   6.174
    1MOL    H63  553   2.486   1.444   6.161
    1MOL    H64  554   2.477   1.622   6.175
    1MOL    O32  555   2.320   1.532   6.069
    1MOL    H65  556   2.365   1.553   5.986
    1MOL    C40  557   2.265   1.361   6.537
    1MOL    H66  558   2.343   1.284   6.534
    1MOL    O33  559   2.183   1.337   6.650
    1MOL    H67  560   2.089   1.337   6.624
    1MOL    C41  561   2.334   1.497   6.551
    1MOL    H68  562   2.257   1.576   6.555
    1MOL    O34  563   2.412   1.501   6.670
    1MOL    H69  564   2.355   1.467   6.741
    1MOL    C42  565   2.425   1.524   6.432
    1MOL    H70  566   2.506   1.450   6.430
    1MOL    O35  567   2.480   1.655   6.448
    1MOL    C43  568   2.620   1.672   6.444
    1MOL    H71  569   2.670   1.575   6.441
    1MOL    O36  570   2.661   1.738   6.326
    1MOL    C44  571   2.609   1.872   6.309
    1MOL    H72  572   2.499   1.869   6.307
    1MOL    C45  573   2.659   1.921   6.174
    1MOL    H73  574   2.767   1.901   6.168
    1MOL    H74  575   2.643   2.029   6.167
    1MOL    O37  576   2.587   1.851   6.073
    1MOL    H75  577   2.624   1.877   5.988
    1MOL    C46  578   2.663   1.752   6.567
    1MOL    H76  579   2.773   1.757   6.567
    1MOL    O38  580   2.626   1.692   6.690
    1MOL    H77  581   2.540   1.645   6.680
    1MOL    C47  582   2.609   1.895   6.558
    1MOL    H78  583   2.499   1.892   6.559
    1MOL    O39  584   2.657   1.972   6.668
    1MOL    H79  585   2.646   1.915   6.746
    1MOL    C48  586   2.653   1.960   6.428
    1MOL    H80  587   2.763   1.970   6.428
    1MOL    O40  588   2.593   2.090   6.421
    1MOL     C1  589   1.315   2.203   7.504
    1MOL     H1  590   1.210   2.173   7.512
    1MOL     O1  591   1.347   2.263   7.628
    1MOL     C2  592   1.481   2.316   7.637
    1MOL     H2  593   1.553   2.234   7.625
    1MOL     C3  594   1.498   2.373   7.777
    1MOL     H3  595   1.605   2.394   7.792
    1MOL     H4  596   1.467   2.296   7.850
    1MOL     O2  597   1.420   2.491   7.790
    1MOL     H5  598   1.444   2.533   7.874
    1MOL     C4  599   1.333   2.304   7.389
    1MOL     H6  600   1.265   2.387   7.408
    1MOL     O3  601   1.299   2.253   7.262
    1MOL     H7  602   1.332   2.160   7.253
    1MOL     C5  603   1.476   2.359   7.391
    1MOL     H8  604   1.547   2.277   7.372
    1MOL     O4  605   1.490   2.458   7.290
    1MOL     H9  606   1.443   2.424   7.212
    1MOL     C6  607   1.505   2.420   7.526
    1MOL    H10  608   1.438   2.505   7.542
    1MOL     O5  609   1.641   2.464   7.527
    1MOL     C7  610   1.670   2.591   7.583
    1MOL    H11  611   1.580   2.633   7.630
    1MOL     O6  612   1.764   2.579   7.687
    1MOL     C8  613   1.893   2.528   7.647
    1MOL    H12  614   1.878   2.429   7.601
    1MOL     C9  615   1.979   2.509   7.774
    1MOL    H13  616   2.051   2.429   7.754
    1MOL    H14  617   1.912   2.475   7.854
    1MOL     O7  618   2.044   2.626   7.819
    1MOL    H15  619   2.131   2.629   7.776
    1MOL    C10  620   1.723   2.683   7.472
    1MOL    H16  621   1.735   2.784   7.514
    1MOL     O8  622   1.634   2.697   7.362
    1MOL    H17  623   1.602   2.609   7.335
    1MOL    C11  624   1.861   2.636   7.425
    1MOL    H18  625   1.851   2.536   7.378
    1MOL     O9  626   1.917   2.728   7.332
    1MOL    H19  627   1.845   2.751   7.271
    1MOL    C12  628   1.954   2.624   7.545
    1MOL    H20  629   1.964   2.722   7.593
    1MOL    O10  630   2.082   2.580   7.499
    1MOL    C13  631   2.193   2.661   7.526
    1MOL    H21  632   2.162   2.761   7.558
    1MOL    O11  633   2.270   2.609   7.634
    1MOL    C14  634   2.325   2.477   7.610
    1MOL    H22  635   2.242   2.409   7.588
    1MOL    C15  636   2.394   2.430   7.739
    1MOL    H23  637   2.387   2.320   7.743
    1MOL    H24  638   2.336   2.468   7.824
    1MOL    O12  639   2.527   2.473   7.754
    1MOL    H25  640   2.584   2.403   7.719
    1MOL    C16  641   2.278   2.670   7.399
    1MOL    H26  642   2.360   2.741   7.418
    1MOL    O13  643   2.207   2.720   7.287
    1MOL    H27  644   2.112   2.699   7.297
    1MOL    C17  645   2.340   2.534   7.368
    1MOL    H28  646   2.260   2.462   7.345
    1MOL    O14  647   2.429   2.543   7.257
    1MOL    H29  648   2.382   2.594   7.188
    1MOL    C18  649   2.418   2.485   7.489
    1MOL    H30  650   2.499   2.556   7.512
    1MOL    O15  651   2.474   2.357   7.457
    1MOL    C19  652   2.613   2.338   7.472
    1MOL    H31  653   2.663   2.434   7.486
    1MOL    O16  654   2.643   2.263   7.588
    1MOL    C20  655   2.586   2.129   7.589
    1MOL    H32  656   2.477   2.139   7.578
    1MOL    C21  657   2.615   2.064   7.725
    1MOL    H33  658   2.533   1.995   7.748
    1MOL    H34  659   2.614   2.143   7.801
    1MOL    O17  660   2.740   1.999   7.733
    1MOL    H35  661   2.724   1.905   7.712
    1MOL    C22  662   2.664   2.268   7.346
    1MOL    H36  663   2.774   2.261   7.354
    1MOL    O18  664   2.637   2.338   7.227
    1MOL    H37  665   2.553   2.388   7.237
    1MOL    C23  666   2.609   2.125   7.340
    1MOL    H38  667   2.499   2.130   7.329
    1MOL    O19  668   2.666   2.054   7.231
    1MOL    H39  669   2.661   2.114   7.154
    1MOL    C24  670   2.642   2.052   7.469
    1MOL    H40  671   2.751   2.045   7.481
    1MOL    O20  672   2.586   1.921   7.462
    1MOL    C25  673   2.671   1.810   7.480
    1MOL    H41  674   2.776   1.841   7.478
    1MOL    O21  675   2.651   1.750   7.607
    1MOL    C26  676   2.518   1.698   7.629
    1MOL    H42  677   2.446   1.781   7.623
    1MOL    C27  678   2.512   1.642   7.770
    1MOL    H43  679   2.406   1.621   7.794
    1MOL    H44  680   2.550   1.718   7.840
    1MOL    O22  681   2.590   1.523   7.776
    1MOL    H45  682   2.581   1.485   7.865
    1MOL    C28  683   2.643   1.709   7.368
    1MOL    H46  684   2.712   1.625   7.380
    1MOL    O23  685   2.664   1.762   7.238
    1MOL    H47  686   2.641   1.857   7.237
    1MOL    C29  687   2.500   1.655   7.382
    1MOL    H48  688   2.429   1.738   7.369
    1MOL    O24  689   2.476   1.555   7.284
    1MOL    H49  690   2.514   1.589   7.201
    1MOL    C30  691   2.481   1.595   7.521
    1MOL    H50  692   2.546   1.507   7.531
    1MOL    O25  693   2.344   1.558   7.533
    1MOL    C31  694   2.313   1.433   7.595
    1MOL    H51  695   2.401   1.394   7.646
    1MOL    O26  696   2.216   1.452   7.695
    1MOL    C32  697   2.088   1.503   7.648
    1MOL    H52  698   2.106   1.599   7.597
    1MOL    C33  699   2.000   1.528   7.770
    1MOL    H53  700   1.923   1.602   7.742
    1MOL    H54  701   2.063   1.573   7.847
    1MOL    O27  702   1.940   1.410   7.821
    1MOL    H55  703   1.843   1.422   7.814
    1MOL    C34  704   2.263   1.335   7.487
    1MOL    H56  705   2.249   1.237   7.535
    1MOL    O28  706   2.355   1.314   7.382
    1MOL    H57  707   2.383   1.400   7.345
    1MOL    C35  708   2.128   1.382   7.433
    1MOL    H58  709   2.142   1.478   7.382
    1MOL    O29  710   2.074   1.286   7.342
    1MOL    H59  711   2.149   1.258   7.287
    1MOL    C36  712   2.030   1.401   7.548
    1MOL    H60  713   2.015   1.307   7.602
    1MOL    O30  714   1.906   1.447   7.494
    1MOL    C37  715   1.798   1.355   7.497
    1MOL    H61  716   1.835   1.254   7.516
    1MOL    O31  717   1.708   1.383   7.602
    1MOL    C38  718   1.648   1.513   7.597
    1MOL    H62  719   1.726   1.591   7.594
    1MOL    C39  720   1.571   1.529   7.726
    1MOL    H63  721   1.503   1.444   7.739
    1MOL    H64  722   1.512   1.622   7.725
    1MOL    O32  723   1.669   1.532   7.831
    1MOL    H65  724   1.624   1.553   7.914
    1MOL    C40  725   1.724   1.361   7.363
    1MOL    H66  726   1.646   1.284   7.366
    1MOL    O33  727   1.806   1.337   7.250
    1MOL    H67  728   1.900   1.337   7.276
    1MOL    C41  729   1.655   1.497   7.349
    1MOL    H68  730   1.732   1.576   7.345
    1MOL    O34  731   1.577   1.501   7.230
    1MOL    H69  732   1.634   1.467   7.159
    1MOL    C42  733   1.564   1.524   7.468
    1MOL    H70  734   1.483   1.450   7.470
    1MOL    O35  735   1.509   1.655   7.452
    1MOL    C43  736   1.369   1.672   7.456
    1MOL    H71  737   1.319   1.575   7.459
    1MOL    O36  738   1.328   1.738   7.574
    1MOL    C44  739   1.380   1.872   7.591
    1MOL    H72  740   1.490   1.869   7.593
    1MOL    C45  741   1.330   1.921   7.725
    1MOL    H73  742   1.222   1.901   7.732
    1MOL    H74  743   1.346   2.029   7.733
    1MOL    O37  744   1.402   1.851   7.827
    1MOL    H75  745   1.365   1.877   7.912
    1MOL    C46  746   1.326   1.752   7.333
    1MOL    H76  747   1.216   1.757   7.333
    1MOL    O38  748   1.363   1.692   7.210
    1MOL    H77  749   1.448   1.645   7.220
    1MOL    C47  750   1.380   1.895   7.342
    1MOL    H78  751   1.490   1.892   7.340
    1MOL    O39  752   1.332   1.972   7.232
    1MOL    H79  753   1.343   1.915   7.154
    1MOL    C48  754   1.336   1.960   7.472
    1MOL    H80  755   1.226   1.970   7.472
    1MOL    O40  756   1.396   2.090   7.479
    2SOL     OW  757   0.230   0.628   0.113
    2SOL    HW1  758   0.137   0.626   0.150
    2SOL    HW2  759   0.231   0.589   0.021
    3SOL     OW  760   0.225   0.275   0.996
    3SOL    HW1  761   0.260   0.258   1.088
    3SOL    HW2  762   0.137   0.230   0.984
    4SOL     OW  763   0.019   0.368   0.647
    4SOL    HW1  764  -0.063   0.411   0.686
    4SOL    HW2  765  -0.009   0.295   0.584
    5SOL     OW  766   0.569   1.275   1.165
    5SOL    HW1  767   0.476   1.268   1.128
    5SOL    HW2  768   0.580   1.364   1.209
    6SOL     OW  769   1.555   1.511   0.703
    6SOL    HW1  770   1.498   1.495   0.784
    6SOL    HW2  771   1.496   1.521   0.623
    7SOL     OW  772   1.135   0.703   0.717
    7SOL    HW1  773   1.192   0.781   0.692
    7SOL    HW2  774   1.075   0.729   0.793
    8SOL     OW  775   1.755   0.607   0.231
    8SOL    HW1  776   1.743   0.594   0.132
    8SOL    HW2  777   1.725   0.526   0.280
    9SOL     OW  778   0.768   1.144   1.023
    9SOL    HW1  779   0.690   1.161   1.083
    9SOL    HW2  780   0.802   1.231   0.987
   10SOL     OW  781   0.850   0.798   1.823
   10SOL    HW1  782   0.846   0.874   1.888
   10SOL    HW2  783   0.872   0.834   1.732
   11SOL     OW  784   0.685   1.012   0.665
   11SOL    HW1  785   0.754   0.996   0.735
   11SOL    HW2  786   0.612   1.069   0.703
   12SOL     OW  787   0.686   1.161   1.803
   12SOL    HW1  788   0.746   1.240   1.817
   12SOL    HW2  789   0.600   1.192   1.762
   13SOL     OW  790   0.335   1.435   1.061
   13SOL    HW1  791   0.257   1.404   1.008
   13SOL    HW2  792   0.393   1.493   1.004
   14SOL     OW  793   1.460   1.505   1.339
   14SOL    HW1  794   1.484   1.599   1.365
   14SOL    HW2  795   1.444   1.451   1.421
   15SOL     OW  796   0.438   0.392   1.499
   15SOL    HW1  797   0.520   0.336   1.508
   15SOL    HW2  798   0.357   0.334   1.503
   16SOL     OW  799   1.603   0.447   0.737
   16SOL    HW1  800   1.529   0.493   0.687
   16SOL    HW2  801   1.654   0.515   0.790
   17SOL     OW  802   0.231   1.713   0.483
   17SOL    HW1  803   0.265   1.790   0.537
   17SOL    HW2  804   0.275   1.713   0.393
   18SOL     OW  805   1.127   1.341   1.690
   18SOL    HW1  806   1.174   1.341   1.778
   18SOL    HW2  807   1.079   1.254   1.679
   19SOL     OW  808   0.230   1.434   0.538
   19SOL    HW1  809   0.204   1.530   0.538
   19SOL    HW2  810   0.159   1.380   0.583
   20SOL     OW  811   0.240   1.091   0.886
   20SOL    HW1  812   0.254   1.007   0.938
   20SOL    HW2  813   0.185   1.155   0.941
   21SOL     OW  814   0.620   1.786   1.439
   21SOL    HW1  815   0.528   1.769   1.474
   21SOL    HW2  816   0.648   1.878   1.465
   22SOL     OW  817   0.606   0.964   0.123
   22SOL    HW1  818   0.613   1.048   0.069
   22SOL    HW2  819   0.652   0.977   0.211
   23SOL     OW  820   1.594   0.114   1.480
   23SOL    HW1  821   1.576   0.181   1.408
   23SOL    HW2  822   1.591   0.160   1.569
   24SOL     OW  823   0.122   0.643   0.563
   24SOL    HW1  824   0.077   0.555   0.580
   24SOL    HW2  825   0.121   0.697   0.647
   25SOL     OW  826   0.027   1.596   0.117
   25SOL    HW1  827   0.008   1.500   0.138
   25SOL    HW2  828  -0.006   1.654   0.192
   26SOL     OW  829   1.689   0.922   0.612
   26SOL    HW1  830   1.784   0.893   0.620
   26SOL    HW2  831   1.681   0.987   0.537
   27SOL     OW  832   1.641   1.108   0.432
   27SOL    HW1  833   1.727   1.110   0.380
   27SOL    HW2  834   1.655   1.155   0.520
   28SOL     OW  835   0.113   0.737   1.597
   28SOL    HW1  836   0.201   0.724   1.642
   28SOL    HW2  837   0.100   0.834   1.575
   29SOL     OW  838   0.613   1.365   0.726
   29SOL    HW1  839   0.564   1.278   0.735
   29SOL    HW2  840   0.590   1.408   0.639
   30SOL     OW  841   1.293   1.228   1.423
   30SOL    HW1  842   1.330   1.155   1.365
   30SOL    HW2  843   1.345   1.233   1.508
   31SOL     OW  844   0.809   0.004   0.502
   31SOL    HW1  845   0.849   0.095   0.493
   31SOL    HW2  846   0.709   0.012   0.508
   32SOL     OW  847   0.197   0.976   1.264
   32SOL    HW1  848   0.286   0.931   1.250
   32SOL    HW2  849   0.124   0.911   1.245
   33SOL     OW  850   1.525   0.999   0.190
   33SOL    HW1  851   1.462   0.923   0.203
   33SOL    HW2  852   1.573   1.017   0.276
   34SOL     OW  853   1.187   1.792   1.616
   34SOL    HW1  854   1.211   1.852   1.540
   34SOL    HW2  855   1.194   1.697   1.586
   35SOL     OW  856   0.317   0.251   1.801
   35SOL    HW1  857   0.388   0.322   1.807
   35SOL    HW2  858   0.229   0.290   1.829
   36SOL     OW  859   1.466   1.417   0.953
   36SOL    HW1  860   1.407   1.423   1.033
   36SOL    HW2  861   1.451   1.329   0.907
   37SOL     OW  862   1.667   1.714   0.572
   37SOL    HW1  863   1.626   1.691   0.484
   37SOL    HW2  864   1.649   1.640   0.637
   38SOL     OW  865   0.598   0.729   0.270
   38SOL    HW1  866   0.622   0.798   0.202
   38SOL    HW2  867   0.520   0.762   0.324
   39SOL     OW  868   1.281   0.345   0.944
   39SOL    HW1  869   1.195   0.295   0.931
   39SOL    HW2  870   1.343   0.291   1.000
   40SOL     OW  871   1.576   1.662   0.307
   40SOL    HW1  872   1.665   1.708   0.310
   40SOL    HW2  873   1.555   1.638   0.212
   41SOL     OW  874   0.807   0.605   1.465
   41SOL    HW1  875   0.760   0.602   1.554
   41SOL    HW2  876   0.756   0.550   1.399
   42SOL     OW  877   1.394   0.469   1.674
   42SOL    HW1  878   1.374   0.512   1.762
   42SOL    HW2  879   1.472   0.407   1.683
   43SOL     OW  880   0.973   0.890   1.572
   43SOL    HW1  881   1.019   0.806   1.543
   43SOL    HW2  882   0.917   0.924   1.497
   44SOL     OW  883   0.991   0.410   1.242
   44SOL    HW1  884   0.914   0.444   1.296
   44SOL    HW2  885   0.957   0.359   1.163
   45SOL     OW  886   1.041   0.701   0.429
   45SOL    HW1  887   1.067   0.697   0.525
   45SOL    HW2  888   0.956   0.650   0.415
   46SOL     OW  889   0.076   0.811   0.789
   46SOL    HW1  890   0.175   0.799   0.798
   46SOL    HW2  891   0.052   0.906   0.810
   47SOL     OW  892   0.130   1.821   1.571
   47SOL    HW1  893   0.120   1.806   1.670
   47SOL    HW2  894   0.044   1.857   1.535
   48SOL     OW  895   0.865   0.348   0.195
   48SOL    HW1  896   0.924   0.411   0.146
   48SOL    HW2  897   0.884   0.254   0.166
   49SOL     OW  898   1.719   0.585   1.831
   49SOL    HW1  899   1.693   0.674   1.795
   49SOL    HW2  900   1.717   0.517   1.758
   50SOL     OW  901   1.362   1.144   0.545
   50SOL    HW1  902   1.445   1.115   0.497
   50SOL    HW2  903   1.313   1.211   0.489
   51SOL     OW  904   0.550   0.196   0.885
   51SOL    HW1  905   0.545   0.191   0.985
   51SOL    HW2  906   0.552   0.292   0.856
   52SOL     OW  907   1.008   1.456   0.477
   52SOL    HW1  908   0.962   1.528   0.425
   52SOL    HW2  909   1.004   1.476   0.575
   53SOL     OW  910   0.351   1.801   0.853
   53SOL    HW1  911   0.401   1.715   0.859
   53SOL    HW2  912   0.416   1.878   0.850
   54SOL     OW  913   1.795   1.066   0.873
   54SOL    HW1  914   1.733   1.051   0.797
   54SOL    HW2  915   1.743   1.077   0.958
   55SOL     OW  916   1.227   1.550   1.506
   55SOL    HW1  917   1.233   1.473   1.570
   55SOL    HW2  918   1.175   1.524   1.426
   56SOL     OW  919   0.321   0.943   0.242
   56SOL    HW1  920   0.403   0.982   0.200
   56SOL    HW2  921   0.294   0.861   0.193
   57SOL     OW  922   1.458   0.735   0.728
   57SOL    HW1  923   1.453   0.670   0.803
   57SOL    HW2  924   1.538   0.794   0.741
   58SOL     OW  925   0.461   1.266   1.727
   58SOL    HW1  926   0.411   1.267   1.641
   58SOL    HW2  927   0.398   1.248   1.803
   59SOL     OW  928   1.111   1.776   0.237
   59SOL    HW1  929   1.051   1.714   0.287
   59SOL    HW2  930   1.142   1.732   0.152
   60SOL     OW  931   0.202   0.285   1.498
   60SOL    HW1  932   0.122   0.345   1.485
   60SOL    HW2  933   0.192   0.236   1.584
   61SOL     OW  934   1.632   1.377   0.081
   61SOL    HW1  935   1.600   1.471   0.071
   61SOL    HW2  936   1.556   1.314   0.069
   62SOL     OW  937   0.464   1.743   0.323
   62SOL    HW1  938   0.497   1.782   0.409
   62SOL    HW2  939   0.540   1.736   0.258
   63SOL     OW  940   1.400   0.107   0.426
   63SOL    HW1  941   1.376   0.070   0.336
   63SOL    HW2  942   1.499   0.123   0.430
   64SOL     OW  943   0.249   1.785   1.241
   64SOL    HW1  944   0.306   1.720   1.291
   64SOL    HW2  945   0.233   1.752   1.148
   65SOL     OW  946   0.940   1.698   0.904
   65SOL    HW1  947   1.020   1.641   0.925
   65SOL    HW2  948   0.891   1.658   0.827
   66SOL     OW  949   0.382   0.700   0.480
   66SOL    HW1  950   0.427   0.610   0.477
   66SOL    HW2  951   0.288   0.689   0.513
   67SOL     OW  952   1.547   0.222   1.729
   67SOL    HW1  953   1.542   0.259   1.821
   67SOL    HW2  954   1.475   0.153   1.717
   68SOL     OW  955   0.614   0.122   0.117
   68SOL    HW1  956   0.712   0.100   0.124
   68SOL    HW2  957   0.583   0.105   0.024
   69SOL     OW  958   0.781   0.264   1.749
   69SOL    HW1  959   0.848   0.203   1.792
   69SOL    HW2  960   0.708   0.283   1.814
   70SOL     OW  961   0.888   1.514   1.195
   70SOL    HW1  962   0.865   1.489   1.101
   70SOL    HW2  963   0.949   1.445   1.234
   71SOL     OW  964   1.351   0.590   1.433
   71SOL    HW1  965   1.379   0.547   1.518
   71SOL    HW2  966   1.376   0.686   1.434
   72SOL     OW  967   0.803   1.402   0.924
   72SOL    HW1  968   0.893   1.416   0.882
   72SOL    HW2  969   0.732   1.404   0.853
   73SOL     OW  970   0.922   0.503   0.899
   73SOL    HW1  971   0.897   0.494   0.803
   73SOL    HW2  972   0.970   0.421   0.930
   74SOL     OW  973   0.539   0.064   0.512
   74SOL    HW1  974   0.458   0.065   0.570
   74SOL    HW2  975   0.542   0.147   0.457
   75SOL     OW  976   1.434   1.188   0.041
   75SOL    HW1  977   1.466   1.112   0.098
   75SOL    HW2  978   1.342   1.215   0.071
   76SOL     OW  979   0.297   0.035   0.171
   76SOL    HW1  980   0.346   0.119   0.150
   76SOL    HW2  981   0.359  -0.030   0.216
   77SOL     OW  982   0.935   0.236   0.480
   77SOL    HW1  983   0.887   0.277   0.402
   77SOL    HW2  984   1.034   0.234   0.461
   78SOL     OW  985   1.076   0.683   1.464
   78SOL    HW1  986   0.996   0.622   1.467
   78SOL    HW2  987   1.157   0.630   1.440
   79SOL     OW  988   1.227   1.570   0.793
   79SOL    HW1  989   1.248   1.644   0.728
   79SOL    HW2  990   1.295   1.570   0.866
   80SOL     OW  991   0.459   1.152   0.741
   80SOL    HW1  992   0.388   1.125   0.806
   80SOL    HW2  993   0.433   1.124   0.648
   81SOL     OW  994   1.271   1.797   0.591
   81SOL    HW1  995   1.315   1.861   0.527
   81SOL    HW2  996   1.221   1.849   0.661
   82SOL     OW  997   1.032   0.549   0.016
   82SOL    HW1  998   0.991   0.631  -0.023
   82SOL    HW2  999   1.096   0.575   0.089
   83SOL     OW 1000   0.078   0.556   1.386
   83SOL    HW1 1001   0.170   0.555   1.345
   83SOL    HW2 1002   0.072   0.630   1.453
   84SOL     OW 1003   0.561   0.222   1.147
   84SOL    HW1 1004   0.599   0.138   1.184
   84SOL    HW2 1005   0.473   0.241   1.191
   85SOL     OW 1006   0.866   0.454   0.642
   85SOL    HW1 1007   0.834   0.526   0.580
   85SOL    HW2 1008   0.890   0.373   0.589
   86SOL     OW 1009   1.017   0.039   0.753
   86SOL    HW1 1010   0.945   0.044   0.684
   86SOL    HW2 1011   0.993  -0.030   0.822
   87SOL     OW 1012   1.429   1.173   0.867
   87SOL    HW1 1013   1.374   1.089   0.860
   87SOL    HW2 1014   1.455   1.202   0.775
   88SOL     OW 1015   1.466   0.590   0.992
   88SOL    HW1 1016   1.436   0.495   0.999
   88SOL    HW2 1017   1.539   0.606   1.058
   89SOL     OW 1018   1.857   0.833   0.377
   89SOL    HW1 1019   1.899   0.769   0.441
   89SOL    HW2 1020   1.819   0.782   0.299
   90SOL     OW 1021   0.488   1.385   0.174
   90SOL    HW1 1022   0.401   1.370   0.221
   90SOL    HW2 1023   0.471   1.411   0.079
   91SOL     OW 1024   1.664   1.280   0.657
   91SOL    HW1 1025   1.763   1.288   0.671
   91SOL    HW2 1026   1.619   1.364   0.688
   92SOL     OW 1027   1.390   0.575   0.078
   92SOL    HW1 1028   1.336   0.554   0.159
   92SOL    HW2 1029   1.481   0.534   0.087
   93SOL     OW 1030   0.527   0.256   0.328
   93SOL    HW1 1031   0.554   0.197   0.253
   93SOL    HW2 1032   0.527   0.351   0.297
   94SOL     OW 1033   1.754   1.223   1.588
   94SOL    HW1 1034   1.845   1.184   1.575
   94SOL    HW2 1035   1.762   1.319   1.612
   95SOL     OW 1036   1.064   1.347   1.340
   95SOL    HW1 1037   0.984   1.324   1.395
   95SOL    HW2 1038   1.147   1.321   1.389
   96SOL     OW 1039   1.592   1.629   1.625
   96SOL    HW1 1040   1.619   1.663   1.535
   96SOL    HW2 1041   1.671   1.591   1.671
   97SOL     OW 1042   1.111   1.195   1.100
   97SOL    HW1 1043   1.071   1.239   1.181
   97SOL    HW2 1044   1.070   1.232   1.017
   98SOL     OW 1045   1.638   1.099   1.079
   98SOL    HW1 1046   1.643   1.180   1.138
   98SOL    HW2 1047   1.552   1.101   1.028
   99SOL     OW 1048   0.915   0.089   1.402
   99SOL    HW1 1049   0.940   0.069   1.307
   99SOL    HW2 1050   0.987   0.145   1.444
  100SOL     OW 1051   0.980   1.116   1.719
  100SOL    HW1 1052   0.881   1.122   1.729
  100SOL    HW2 1053   1.003   1.036   1.663
  101SOL     OW 1054   0.705   1.050   0.368
  101SOL    HW1 1055   0.691   1.057   0.467
  101SOL    HW2 1056   0.789   0.999   0.350
  102SOL     OW 1057   0.410   0.813   1.251
  102SOL    HW1 1058   0.496   0.825   1.301
  102SOL    HW2 1059   0.368   0.726   1.278
  103SOL     OW 1060   1.274   0.386   1.262
  103SOL    HW1 1061   1.295   0.460   1.326
  103SOL    HW2 1062   1.185   0.403   1.219
  104SOL     OW 1063   0.064   1.564   1.331
  104SOL    HW1 1064   0.018   1.646   1.297
  104SOL    HW2 1065   0.162   1.583   1.340
  105SOL     OW 1066   0.367   1.100   0.501
  105SOL    HW1 1067   0.360   1.183   0.445
  105SOL    HW2 1068   0.371   1.020   0.441
  106SOL     OW 1069   0.566   0.537   0.865
  106SOL    HW1 1070   0.578   0.603   0.791
  106SOL    HW2 1071   0.612   0.571   0.948
  107SOL     OW 1072   1.252   1.348   0.388
  107SOL    HW1 1073   1.302   1.425   0.428
  107SOL    HW2 1074   1.157   1.350   0.420
  108SOL     OW 1075   1.272   1.445   1.142
  108SOL    HW1 1076   1.319   1.458   1.229
  108SOL    HW2 1077   1.206   1.371   1.151
  109SOL     OW 1078   1.582   0.639   0.472
  109SOL    HW1 1079   1.551   0.700   0.545
  109SOL    HW2 1080   1.632   0.691   0.403
  110SOL     OW 1081   0.354   1.510   1.329
  110SOL    HW1 1082   0.333   1.466   1.242
  110SOL    HW2 1083   0.451   1.536   1.332
  111SOL     OW 1084   0.402   0.751   1.598
  111SOL    HW1 1085   0.470   0.806   1.551
  111SOL    HW2 1086   0.442   0.663   1.625
  112SOL     OW 1087   1.587   0.779   1.670
  112SOL    HW1 1088   1.495   0.817   1.665
  112SOL    HW2 1089   1.647   0.826   1.605
  113SOL     OW 1090   1.013   0.105   1.770
  113SOL    HW1 1091   1.019   0.190   1.718
  113SOL    HW2 1092   1.045   0.029   1.713
  114SOL     OW 1093   0.504   0.050   1.740
  114SOL    HW1 1094   0.462  -0.007   1.670
  114SOL    HW2 1095   0.438   0.119   1.772
  115SOL     OW 1096   0.573   0.870   1.029
  115SOL    HW1 1097   0.617   0.959   1.020
  115SOL    HW2 1098   0.510   0.870   1.106
  116SOL     OW 1099   1.360   0.862   1.045
  116SOL    HW1 1100   1.285   0.862   0.979
  116SOL    HW2 1101   1.397   0.770   1.054
  117SOL     OW 1102   1.209   0.525   0.275
  117SOL    HW1 1103   1.222   0.441   0.329
  117SOL    HW2 1104   1.180   0.599   0.335
  118SOL     OW 1105   0.307   0.213   1.231
  118SOL    HW1 1106   0.284   0.250   1.321
  118SOL    HW2 1107   0.277   0.118   1.225
  119SOL     OW 1108   0.037   1.310   1.282
  119SOL    HW1 1109   0.090   1.261   1.350
  119SOL    HW2 1110   0.059   1.408   1.287
  120SOL     OW 1111   0.732   0.634   1.064
  120SOL    HW1 1112   0.791   0.608   0.988
  120SOL    HW2 1113   0.704   0.730   1.053
  121SOL     OW 1114   1.728   0.935   1.854
  121SOL    HW1 1115   1.682   0.928   1.765
  121SOL    HW2 1116   1.666   0.979   1.920
  122SOL     OW 1117   0.307   0.063   0.618
  122SOL    HW1 1118   0.296   0.157   0.651
  122SOL    HW2 1119   0.302   0.000   0.695
  123SOL     OW 1120   1.622   0.367   0.374
  123SOL    HW1 1121   1.624   0.291   0.438
  123SOL    HW2 1122   1.574   0.444   0.414
  124SOL     OW 1123   1.023   0.766   0.966
  124SOL    HW1 1124   1.038   0.787   1.062
  124SOL    HW2 1125   0.993   0.671   0.957
  125SOL     OW 1126   0.980   1.573   1.700
  125SOL    HW1 1127   0.960   1.617   1.612
  125SOL    HW2 1128   1.019   1.482   1.684
  126SOL     OW 1129   1.859   1.518   1.605
  126SOL    HW1 1130   1.873   1.545   1.510
  126SOL    HW2 1131   1.942   1.540   1.658
  127SOL     OW 1132   0.350   0.898   1.804
  127SOL    HW1 1133   0.426   0.942   1.852
  127SOL    HW2 1134   0.385   0.851   1.722
  128SOL     OW 1135   1.540   0.274   0.125
  128SOL    HW1 1136   1.479   0.199   0.148
  128SOL    HW2 1137   1.562   0.326   0.208
  129SOL     OW 1138   1.303   0.838   0.042
  129SOL    HW1 1139   1.337   0.745   0.057
  129SOL    HW2 1140   1.321   0.865  -0.053
  130SOL     OW 1141   1.068   1.333   0.849
  130SOL    HW1 1142   1.075   1.249   0.794
  130SOL    HW2 1143   1.130   1.402   0.813
  131SOL     OW 1144   0.319   0.810   0.949
  131SOL    HW1 1145   0.412   0.846   0.954
  131SOL    HW2 1146   0.313   0.725   1.001
  132SOL     OW 1147   0.339   0.509   1.006
  132SOL    HW1 1148   0.287   0.426   0.989
  132SOL    HW2 1149   0.416   0.514   0.942
  133SOL     OW 1150   1.138   0.380   1.678
  133SOL    HW1 1151   1.093   0.443   1.742
  133SOL    HW2 1152   1.231   0.411   1.661
  134SOL     OW 1153   1.160   0.207   1.477
  134SOL    HW1 1154   1.160   0.271   1.554
  134SOL    HW2 1155   1.188   0.255   1.394
  135SOL     OW 1156   0.008   1.326   0.200
  135SOL    HW1 1157  -0.085   1.347   0.169
  135SOL    HW2 1158   0.018   1.227   0.213
  136SOL     OW 1159   0.088   1.801   0.927
  136SOL    HW1 1160   0.046   1.715   0.900
  136SOL    HW2 1161   0.182   1.804   0.893
  137SOL     OW 1162   0.504   1.568   0.910
  137SOL    HW1 1163   0.570   1.642   0.919
  137SOL    HW2 1164   0.548   1.489   0.868
  138SOL     OW 1165   1.002   0.796   1.238
  138SOL    HW1 1166   1.043   0.764   1.324
  138SOL    HW2 1167   0.906   0.769   1.235
  139SOL     OW 1168   0.040   0.544   1.114
  139SOL    HW1 1169   0.125   0.511   1.073
  139SOL    HW2 1170   0.053   0.559   1.212
  140SOL     OW 1171   0.189   0.520   1.722
  140SOL    HW1 1172   0.248   0.480   1.652
  140SOL    HW2 1173   0.131   0.591   1.681
  141SOL     OW 1174   1.369   0.950   1.660
  141SOL    HW1 1175   1.408   1.039   1.680
  141SOL    HW2 1176   1.379   0.930   1.563
  142SOL     OW 1177   0.815   0.572   0.325
  142SOL    HW1 1178   0.822   0.483   0.279
  142SOL    HW2 1179   0.721   0.606   0.317
  143SOL     OW 1180   1.657   0.604   1.206
  143SOL    HW1 1181   1.619   0.535   1.268
  143SOL    HW2 1182   1.739   0.568   1.162
  144SOL     OW 1183   0.252   1.564   1.744
  144SOL    HW1 1184   0.222   1.621   1.820
  144SOL    HW2 1185   0.245   1.467   1.770
  145SOL     OW 1186   0.671   0.464   1.269
  145SOL    HW1 1187   0.637   0.375   1.239
  145SOL    HW2 1188   0.697   0.518   1.189
  146SOL     OW 1189   0.930   1.678   1.465
  146SOL    HW1 1190   0.906   1.660   1.370
  146SOL    HW2 1191   0.960   1.772   1.475
  147SOL     OW 1192   0.473   0.500   0.191
  147SOL    HW1 1193   0.534   0.580   0.195
  147SOL    HW2 1194   0.378   0.531   0.198
  148SOL     OW 1195   0.159   1.137   1.466
  148SOL    HW1 1196   0.181   1.076   1.542
  148SOL    HW2 1197   0.169   1.088   1.380
  149SOL     OW 1198   1.347   1.059   1.234
  149SOL    HW1 1199   1.371   0.996   1.160
  149SOL    HW2 1200   1.257   1.099   1.216
  150SOL     OW 1201   1.302   0.855   0.309
  150SOL    HW1 1202   1.216   0.824   0.351
  150SOL    HW2 1203   1.298   0.841   0.210
  151SOL     OW 1204   1.252   1.731   1.128
  151SOL    HW1 1205   1.336   1.736   1.074
  151SOL    HW2 1206   1.229   1.635   1.146
  152SOL     OW 1207   0.083   1.258   1.022
  152SOL    HW1 1208   0.078   1.257   1.122
  152SOL    HW2 1209   0.000   1.217   0.984
  153SOL     OW 1210   0.688   1.662   1.716
  153SOL    HW1 1211   0.632   1.743   1.725
  153SOL    HW2 1212   0.740   1.666   1.630
  154SOL     OW 1213   0.903   0.086   0.133
  154SOL    HW1 1214   0.954   0.087   0.047
  154SOL    HW2 1215   0.959   0.044   0.204
  155SOL     OW 1216   1.726   0.135   0.523
  155SOL    HW1 1217   1.799   0.118   0.456
  155SOL    HW2 1218   1.695   0.048   0.561
  156SOL     OW 1219   1.388   1.573   0.477
  156SOL    HW1 1220   1.455   1.585   0.403
  156SOL    HW2 1221   1.348   1.662   0.500
  157SOL     OW 1222   0.130   1.794   1.851
  157SOL    HW1 1223   0.089   1.720   1.904
  157SOL    HW2 1224   0.194   1.845   1.909
  158SOL     OW 1225   1.280   0.927   0.672
  158SOL    HW1 1226   1.340   0.846   0.674
  158SOL    HW2 1227   1.320   0.996   0.612
  159SOL     OW 1228   0.830   1.273   1.422
  159SOL    HW1 1229   0.825   1.306   1.517
  159SOL    HW2 1230   0.744   1.292   1.376
  160SOL     OW 1231   0.672   1.616   0.154
  160SOL    HW1 1232   0.681   1.626   0.055
  160SOL    HW2 1233   0.632   1.527   0.175
  161SOL     OW 1234   1.650   1.720   1.394
  161SOL    HW1 1235   1.703   1.730   1.310
  161SOL    HW2 1236   1.623   1.810   1.428
  162SOL     OW 1237   1.841   0.175   0.963
  162SOL    HW1 1238   1.880   0.090   0.927
  162SOL    HW2 1239   1.743   0.177   0.944
  163SOL     OW 1240   0.263   0.326   0.720
  163SOL    HW1 1241   0.184   0.377   0.686
  163SOL    HW2 1242   0.254   0.311   0.818
  164SOL     OW 1243   1.194   1.612   0.031
  164SOL    HW1 1244   1.200   1.519   0.068
  164SOL    HW2 1245   1.135   1.612  -0.049
  165SOL     OW 1246   0.822   1.002   1.372
  165SOL    HW1 1247   0.862   1.001   1.280
  165SOL    HW2 1248   0.832   1.094   1.412
  166SOL     OW 1249   0.916   0.910   0.291
  166SOL    HW1 1250   0.979   0.948   0.223
  166SOL    HW2 1251   0.956   0.827   0.330
  167SOL     OW 1252   1.504   1.607   0.044
  167SOL    HW1 1253   1.412   1.644   0.051
  167SOL    HW2 1254   1.542   1.627  -0.046
  168SOL     OW 1255   0.372   1.288   1.490
  168SOL    HW1 1256   0.359   1.381   1.456
  168SOL    HW2 1257   0.288   1.236   1.477
  169SOL     OW 1258   1.614   1.292   1.289
  169SOL    HW1 1259   1.674   1.295   1.369
  169SOL    HW2 1260   1.539   1.356   1.302
  170SOL     OW 1261   1.039   1.098   0.696
  170SOL    HW1 1262   0.969   1.051   0.750
  170SOL    HW2 1263   1.098   1.030   0.653
  171SOL     OW 1264   1.014   0.236   0.971
  171SOL    HW1 1265   1.006   0.200   0.878
  171SOL    HW2 1266   1.012   0.160   1.036
  172SOL     OW 1267   0.590   1.487   0.491
  172SOL    HW1 1268   0.632   1.429   0.421
  172SOL    HW2 1269   0.546   1.566   0.447
  173SOL     OW 1270   1.709   0.385   1.381
  173SOL    HW1 1271   1.782   0.454   1.385
  173SOL    HW2 1272   1.737   0.310   1.322
  174SOL     OW 1273   0.255   1.348   0.290
  174SOL    HW1 1274   0.159   1.349   0.263
  174SOL    HW2 1275   0.267   1.401   0.374
  175SOL     OW 1276   0.105   1.013   1.726
  175SOL    HW1 1277   0.028   0.980   1.780
  175SOL    HW2 1278   0.190   0.983   1.768
  176SOL     OW 1279   0.672   0.203   1.489
  176SOL    HW1 1280   0.762   0.187   1.449
  176SOL    HW2 1281   0.680   0.208   1.588
  177SOL     OW 1282   0.075   0.345   0.033
  177SOL    HW1 1283  -0.017   0.317   0.004
  177SOL    HW2 1284   0.106   0.422  -0.023
  178SOL     OW 1285   1.440   0.856   1.398
  178SOL    HW1 1286   1.383   0.908   1.335
  178SOL    HW2 1287   1.536   0.868   1.374
  179SOL     OW 1288   0.072   0.166   0.318
  179SOL    HW1 1289   0.055   0.249   0.264
  179SOL    HW2 1290   0.162   0.129   0.296
  180SOL     OW 1291   1.183   1.335   0.119
  180SOL    HW1 1292   1.084   1.324   0.121
  180SOL    HW2 1293   1.217   1.350   0.212
  181SOL     OW 1294   0.613   0.842   1.431
  181SOL    HW1 1295   0.669   0.923   1.414
  181SOL    HW2 1296   0.672   0.762   1.434
  182SOL     OW 1297   1.493   1.767   0.959
  182SOL    HW1 1298   1.526   1.831   0.890
  182SOL    HW2 1299   1.559   1.761   1.034
  183SOL     OW 1300   0.716   0.565   1.708
  183SOL    HW1 1301   0.735   0.630   1.782
  183SOL    HW2 1302   0.776   0.485   1.717
  184SOL     OW 1303   1.450   1.220   1.633
  184SOL    HW1 1304   1.441   1.210   1.732
  184SOL    HW2 1305   1.546   1.213   1.607
  185SOL     OW 1306   0.390   1.741   1.560
  185SOL    HW1 1307   0.299   1.782   1.558
  185SOL    HW2 1308   0.383   1.647   1.592
  186SOL     OW 1309   1.674   0.883   1.254
  186SOL    HW1 1310   1.647   0.794   1.217
  186SOL    HW2 1311   1.675   0.951   1.181
  187SOL     OW 1312   1.225   0.325   0.449
  187SOL    HW1 1313   1.290   0.251   0.438
  187SOL    HW2 1314   1.245   0.375   0.533
  188SOL     OW 1315   0.594   0.745   0.652
  188SOL    HW1 1316   0.644   0.830   0.633
  188SOL    HW2 1317   0.506   0.747   0.604
  189SOL     OW 1318   1.777   0.342   1.642
  189SOL    HW1 1319   1.760   0.373   1.548
  189SOL    HW2 1320   1.693   0.305   1.680
  190SOL     OW 1321   1.730   0.934   1.517
  190SOL    HW1 1322   1.768   1.025   1.532
  190SOL    HW2 1323   1.722   0.917   1.418
  191SOL     OW 1324   0.859   1.374   0.016
  191SOL    HW1 1325   0.813   1.389   0.104
  191SOL    HW2 1326   0.903   1.459  -0.014
  192SOL     OW 1327   0.661   1.790   0.953
  192SOL    HW1 1328   0.615   1.878   0.940
  192SOL    HW2 1329   0.760   1.802   0.946
  193SOL     OW 1330   0.859   0.956   0.861
  193SOL    HW1 1331   0.913   0.887   0.909
  193SOL    HW2 1332   0.827   1.025   0.927
  194SOL     OW 1333   1.083   0.984   0.087
  194SOL    HW1 1334   1.060   1.037   0.005
  194SOL    HW2 1335   1.164   0.928   0.068
  195SOL     OW 1336   1.861   1.569   0.851
  195SOL    HW1 1337   1.790   1.557   0.781
  195SOL    HW2 1338   1.862   1.490   0.911
  196SOL     OW 1339   0.221   1.314   1.844
  196SOL    HW1 1340   0.156   1.241   1.823
  196SOL    HW2 1341   0.225   1.328   1.942
  197SOL     OW 1342   0.079   1.240   0.653
  197SOL    HW1 1343   0.078   1.193   0.741
  197SOL    HW2 1344   0.161   1.212   0.602
  198SOL     OW 1345   0.672   1.391   1.624
  198SOL    HW1 1346   0.594   1.341   1.662
  198SOL    HW2 1347   0.669   1.486   1.655
  199SOL     OW 1348   1.824   0.192   1.227
  199SOL    HW1 1349   1.820   0.102   1.271
  199SOL    HW2 1350   1.827   0.181   1.128
  200SOL     OW 1351   0.428   0.424   0.520
  200SOL    HW1 1352   0.458   0.352   0.458
  200SOL    HW2 1353   0.389   0.384   0.603
  201SOL     OW 1354   1.705   1.487   1.104
  201SOL    HW1 1355   1.612   1.462   1.077
  201SOL    HW2 1356   1.731   1.437   1.186
  202SOL     OW 1357   0.317   0.547   1.280
  202SOL    HW1 1358   0.355   0.488   1.352
  202SOL    HW2 1359   0.357   0.521   1.192
  203SOL     OW 1360   0.812   1.586   0.687
  203SOL    HW1 1361   0.844   1.596   0.593
  203SOL    HW2 1362   0.733   1.524   0.689
  204SOL     OW 1363   1.424   0.214   1.112
  204SOL    HW1 1364   1.476   0.149   1.167
  204SOL    HW2 1365   1.375   0.277   1.173
  205SOL     OW 1366   1.001   0.034   1.154
  205SOL    HW1 1367   0.938  -0.038   1.123
  205SOL    HW2 1368   1.094  -0.002   1.154
  206SOL     OW 1369   0.770   1.330   0.301
  206SOL    HW1 1370   0.724   1.243   0.318
  206SOL    HW2 1371   0.861   1.327   0.342
  207SOL     OW 1372   0.618   1.567   1.284
  207SOL    HW1 1373   0.613   1.649   1.341
  207SOL    HW2 1374   0.707   1.564   1.239
  208SOL     OW 1375   1.352   0.052   0.168
  208SOL    HW1 1376   1.387   0.011   0.084
  208SOL    HW2 1377   1.262   0.014   0.188
  209SOL     OW 1378   1.300   0.453   0.691
  209SOL    HW1 1379   1.241   0.533   0.695
  209SOL    HW2 1380   1.315   0.418   0.784
  210SOL     OW 1381   1.593   0.221   0.882
  210SOL    HW1 1382   1.509   0.220   0.936
  210SOL    HW2 1383   1.595   0.304   0.826
  211SOL     OW 1384   0.039   1.077   0.300
  211SOL    HW1 1385   0.138   1.066   0.291
  211SOL    HW2 1386  -0.001   0.991   0.332
  212SOL     OW 1387   0.875   1.646   0.337
  212SOL    HW1 1388   0.798   1.611   0.283
  212SOL    HW2 1389   0.843   1.717   0.399
  213SOL     OW 1390   0.230   0.628   1.975
  213SOL    HW1 1391   0.137   0.626   2.012
  213SOL    HW2 1392   0.231   0.589   1.883
  214SOL     OW 1393   0.225   0.275   2.858
  214SOL    HW1 1394   0.260   0.258   2.950
  214SOL    HW2 1395   0.137   0.230   2.846
  215SOL     OW 1396   0.019   0.368   2.509
  215SOL    HW1 1397  -0.063   0.411   2.548
  215SOL    HW2 1398  -0.009   0.295   2.446
  216SOL     OW 1399   0.569   1.275   3.027
  216SOL    HW1 1400   0.476   1.268   2.990
  216SOL    HW2 1401   0.580   1.364   3.071
  217SOL     OW 1402   1.555   1.511   2.565
  217SOL    HW1 1403   1.498   1.495   2.646
  217SOL    HW2 1404   1.496   1.521   2.485
  218SOL     OW 1405   1.135   0.703   2.579
  218SOL    HW1 1406   1.192   0.781   2.554
  218SOL    HW2 1407   1.075   0.729   2.655
  219SOL     OW 1408   1.755   0.607   2.093
  219SOL    HW1 1409   1.743   0.594   1.994
  219SOL    HW2 1410   1.725   0.526   2.142
  220SOL     OW 1411   0.768   1.144   2.885
  220SOL    HW1 1412   0.690   1.161   2.945
  220SOL    HW2 1413   0.802   1.231   2.849
  221SOL     OW 1414   0.850   0.798   3.685
  221SOL    HW1 1415   0.846   0.874   3.750
  221SOL    HW2 1416   0.872   0.834   3.594
  222SOL     OW 1417   0.685   1.012   2.527
  222SOL    HW1 1418   0.754   0.996   2.597
  222SOL    HW2 1419   0.612   1.069   2.565
  223SOL     OW 1420   0.686   1.161   3.665
  223SOL    HW1 1421   0.746   1.240   3.679
  223SOL    HW2 1422   0.600   1.192   3.624
  224SOL     OW 1423   0.335   1.435   2.923
  224SOL    HW1 1424   0.257   1.404   2.870
  224SOL    HW2 1425   0.393   1.493   2.866
  225SOL     OW 1426   1.460   1.505   3.201
  225SOL    HW1 1427   1.484   1.599   3.227
  225SOL    HW2 1428   1.444   1.451   3.283
  226SOL     OW 1429   0.438   0.392   3.361
  226SOL    HW1 1430   0.520   0.336   3.370
  226SOL    HW2 1431   0.357   0.334   3.365
  227SOL     OW 1432   1.603   0.447   2.599
  227SOL    HW1 1433   1.529   0.493   2.549
  227SOL    HW2 1434   1.654   0.515   2.652
  228SOL     OW 1435   0.231   1.713   2.345
  228SOL    HW1 1436   0.265   1.790   2.399
  228SOL    HW2 1437   0.275   1.713   2.255
  229SOL     OW 1438   1.127   1.341   3.552
  229SOL    HW1 1439   1.174   1.341   3.640
  229SOL    HW2 1440   1.079   1.254   3.541
  230SOL     OW 1441   0.230   1.434   2.400
  230SOL    HW1 1442   0.204   1.530   2.400
  230SOL    HW2 1443   0.159   1.380   2.445
  231SOL     OW 1444   0.240   1.091   2.748
  231SOL    HW1 1445   0.254   1.007   2.800
  231SOL    HW2 1446   0.185   1.155   2.803
  232SOL     OW 1447   0.620   1.786   3.301
  232SOL    HW1 1448   0.528   1.769   3.336
  232SOL    HW2 1449   0.648   1.878   3.327
  233SOL     OW 1450   0.606   0.964   1.985
  233SOL    HW1 1451   0.613   1.048   1.931
  233SOL    HW2 1452   0.652   0.977   2.073
  234SOL     OW 1453   1.594   0.114   3.342
  234SOL    HW1 1454   1.576   0.181   3.270
  234SOL    HW2 1455   1.591   0.160   3.431
  235SOL     OW 1456   0.122   0.643   2.425
  235SOL    HW1 1457   0.077   0.555   2.442
  235SOL    HW2 1458   0.121   0.697   2.509
  236SOL     OW 1459   0.027   1.596   1.979
  236SOL    HW1 1460   0.008   1.500   2.000
  236SOL    HW2 1461  -0.006   1.654   2.054
  237SOL     OW 1462   1.689   0.922   2.474
  237SOL    HW1 1463   1.784   0.893   2.482
  237SOL    HW2 1464   1.681   0.987   2.399
  238SOL     OW 1465   1.641   1.108   2.294
  238SOL    HW1 1466   1.727   1.110   2.242
  238SOL    HW2 1467   1.655   1.155   2.382
  239SOL     OW 1468   0.113   0.737   3.459
  239SOL    HW1 1469   0.201   0.724   3.504
  239SOL    HW2 1470   0.100   0.834   3.437
  240SOL     OW 1471   0.613   1.365   2.588
  240SOL    HW1 1472   0.564   1.278   2.597
  240SOL    HW2 1473   0.590   1.408   2.501
  241SOL     OW 1474   1.293   1.228   3.285
  241SOL    HW1 1475   1.330   1.155   3.227
  241SOL    HW2 1476   1.345   1.233   3.370
  242SOL     OW 1477   0.809   0.004   2.364
  242SOL    HW1 1478   0.849   0.095   2.355
  242SOL    HW2 1479   0.709   0.012   2.370
  243SOL     OW 1480   0.197   0.976   3.126
  243SOL    HW1 1481   0.286   0.931   3.112
  243SOL    HW2 1482   0.124   0.911   3.107
  244SOL     OW 1483   1.525   0.999   2.052
  244SOL    HW1 1484   1.462   0.923   2.065
  244SOL    HW2 1485   1.573   1.017   2.138
  245SOL     OW 1486   1.187   1.792   3.478
  245SOL    HW1 1487   1.211   1.852   3.402
  245SOL    HW2 1488   1.194   1.697   3.448
  246SOL     OW 1489   0.317   0.251   3.663
  246SOL    HW1 1490   0.388   0.322   3.669
  246SOL    HW2 1491   0.229   0.290   3.691
  247SOL     OW 1492   1.466   1.417   2.815
  247SOL    HW1 1493   1.407   1.423   2.895
  247SOL    HW2 1494   1.451   1.329   2.769
  248SOL     OW 1495   1.667   1.714   2.434
  248SOL    HW1 1496   1.626   1.691   2.346
  248SOL    HW2 1497   1.649   1.640   2.499
  249SOL     OW 1498   0.598   0.729   2.132
  249SOL    HW1 1499   0.622   0.798   2.064
  249SOL    HW2 1500   0.520   0.762   2.186
  250SOL     OW 1501   1.281   0.345   2.806
  250SOL    HW1 1502   1.195   0.295   2.793
  250SOL    HW2 1503   1.343   0.291   2.862
  251SOL     OW 1504   1.576   1.662   2.169
  251SOL    HW1 1505   1.665   1.708   2.172
  251SOL    HW2 1506   1.555   1.638   2.074
  252SOL     OW 1507   0.807   0.605   3.327
  252SOL    HW1 1508   0.760   0.602   3.416
  252SOL    HW2 1509   0.756   0.550   3.261
  253SOL     OW 1510   1.394   0.469   3.536
  253SOL    HW1 1511   1.374   0.512   3.624
  253SOL    HW2 1512   1.472   0.407   3.545
  254SOL     OW 1513   0.973   0.890   3.434
  254SOL    HW1 1514   1.019   0.806   3.405
  254SOL    HW2 1515   0.917   0.924   3.359
  255SOL     OW 1516   0.991   0.410   3.104
  255SOL    HW1 1517   0.914   0.444   3.158
  255SOL    HW2 1518   0.957   0.359   3.025
  256SOL     OW 1519   1.041   0.701   2.291
  256SOL    HW1 1520   1.067   0.697   2.387
  256SOL    HW2 1521   0.956   0.650   2.277
  257SOL     OW 1522   0.076   0.811   2.651
  257SOL    HW1 1523   0.175   0.799   2.660
  257SOL    HW2 1524   0.052   0.906   2.672
  258SOL     OW 1525   0.130   1.821   3.433
  258SOL    HW1 1526   0.120   1.806   3.532
  258SOL    HW2 1527   0.044   1.857   3.397
  259SOL     OW 1528   0.865   0.348   2.057
  259SOL    HW1 1529   0.924   0.411   2.008
  259SOL    HW2 1530   0.884   0.254   2.028
  260SOL     OW 1531   1.719   0.585   3.693
  260SOL    HW1 1532   1.693   0.674   3.657
  260SOL    HW2 1533   1.717   0.517   3.620
  261SOL     OW 1534   1.362   1.144   2.407
  261SOL    HW1 1535   1.445   1.115   2.359
  261SOL    HW2 1536   1.313   1.211   2.351
  262SOL     OW 1537   0.550   0.196   2.747
  262SOL    HW1 1538   0.545   0.191   2.847
  262SOL    HW2 1539   0.552   0.292   2.718
  263SOL     OW 1540   1.008   1.456   2.339
  263SOL    HW1 1541   0.962   1.528   2.287
  263SOL    HW2 1542   1.004   1.476   2.437
  264SOL     OW 1543   0.351   1.801   2.715
  264SOL    HW1 1544   0.401   1.715   2.721
  264SOL    HW2 1545   0.416   1.878   2.712
  265SOL     OW 1546   1.795   1.066   2.735
  265SOL    HW1 1547   1.733   1.051   2.659
  265SOL    HW2 1548   1.743   1.077   2.820
  266SOL     OW 1549   1.227   1.550   3.368
  266SOL    HW1 1550   1.233   1.473   3.432
  266SOL    HW2 1551   1.175   1.524   3.288
  267SOL     OW 1552   0.321   0.943   2.104
  267SOL    HW1 1553   0.403   0.982   2.062
  267SOL    HW2 1554   0.294   0.861   2.055
  268SOL     OW 1555   1.458   0.735   2.590
  268SOL    HW1 1556   1.453   0.670   2.665
  268SOL    HW2 1557   1.538   0.794   2.603
  269SOL     OW 1558   0.461   1.266   3.589
  269SOL    HW1 1559   0.411   1.267   3.503
  269SOL    HW2 1560   0.398   1.248   3.665
  270SOL     OW 1561   1.111   1.776   2.099
  270SOL    HW1 1562   1.051   1.714   2.149
  270SOL    HW2 1563   1.142   1.732   2.014
  271SOL     OW 1564   0.202   0.285   3.360
  271SOL    HW1 1565   0.122   0.345   3.347
  271SOL    HW2 1566   0.192   0.236   3.446
  272SOL     OW 1567   1.632   1.377   1.943
  272SOL    HW1 1568   1.600   1.471   1.933
  272SOL    HW2 1569   1.556   1.314   1.931
  273SOL     OW 1570   0.464   1.743   2.185
  273SOL    HW1 1571   0.497   1.782   2.271
  273SOL    HW2 1572   0.540   1.736   2.120
  274SOL     OW 1573   1.400   0.107   2.288
  274SOL    HW1 1574   1.376   0.070   2.198
  274SOL    HW2 1575   1.499   0.123   2.292
  275SOL     OW 1576   0.249   1.785   3.103
  275SOL    HW1 1577   0.306   1.720   3.153
  275SOL    HW2 1578   0.233   1.752   3.010
  276SOL     OW 1579   0.940   1.698   2.766
  276SOL    HW1 1580   1.020   1.641   2.787
  276SOL    HW2 1581   0.891   1.658   2.689
  277SOL     OW 1582   0.382   0.700   2.342
  277SOL    HW1 1583   0.427   0.610   2.339
  277SOL    HW2 1584   0.288   0.689   2.375
  278SOL     OW 1585   1.547   0.222   3.591
  278SOL    HW1 1586   1.542   0.259   3.683
  278SOL    HW2 1587   1.475   0.153   3.579
  279SOL     OW 1588   0.614   0.122   1.979
  279SOL    HW1 1589   0.712   0.100   1.986
  279SOL    HW2 1590   0.583   0.105   1.886
  280SOL     OW 1591   0.781   0.264   3.611
  280SOL    HW1 1592   0.848   0.203   3.654
  280SOL    HW2 1593   0.708   0.283   3.676
  281SOL     OW 1594   0.888   1.514   3.057
  281SOL    HW1 1595   0.865   1.489   2.963
  281SOL    HW2 1596   0.949   1.445   3.096
  282SOL     OW 1597   1.351   0.590   3.295
  282SOL    HW1 1598   1.379   0.547   3.380
  282SOL    HW2 1599   1.376   0.686   3.296
  283SOL     OW 1600   0.803   1.402   2.786
  283SOL    HW1 1601   0.893   1.416   2.744
  283SOL    HW2 1602   0.732   1.404   2.715
  284SOL     OW 1603   0.922   0.503   2.761
  284SOL    HW1 1604   0.897   0.494   2.665
  284SOL    HW2 1605   0.970   0.421   2.792
  285SOL     OW 1606   0.539   0.064   2.374
  285SOL    HW1 1607   0.458   0.065   2.432
  285SOL    HW2 1608   0.542   0.147   2.319
  286SOL     OW 1609   1.434   1.188   1.903
  286SOL    HW1 1610   1.466   1.112   1.960
  286SOL    HW2 1611   1.342   1.215   1.933
  287SOL     OW 1612   0.297   0.035   2.033
  287SOL    HW1 1613   0.346   0.119   2.012
  287SOL    HW2 1614   0.359  -0.030   2.078
  288SOL     OW 1615   0.935   0.236   2.342
  288SOL    HW1 1616   0.887   0.277   2.264
  288SOL    HW2 1617   1.034   0.234   2.323
  289SOL     OW 1618   1.076   0.683   3.326
  289SOL    HW1 1619   0.996   0.622   3.329
  289SOL    HW2 1620   1.157   0.630   3.302
  290SOL     OW 1621   1.227   1.570   2.655
  290SOL    HW1 1622   1.248   1.644   2.590
  290SOL    HW2 1623   1.295   1.570   2.728
  291SOL     OW 1624   0.459   1.152   2.603
  291SOL    HW1 1625   0.388   1.125   2.668
  291SOL    HW2 1626   0.433   1.124   2.510
  292SOL     OW 1627   1.271   1.797   2.453
  292SOL    HW1 1628   1.315   1.861   2.389
  292SOL    HW2 1629   1.221   1.849   2.523
  293SOL     OW 1630   1.032   0.549   1.878
  293SOL    HW1 1631   0.991   0.631   1.839
  293SOL    HW2 1632   1.096   0.575   1.951
  294SOL     OW 1633   0.078   0.556   3.248
  294SOL    HW1 1634   0.170   0.555   3.207
  294SOL    HW2 1635   0.072   0.630   3.315
  295SOL     OW 1636   0.561   0.222   3.009
  295SOL    HW1 1637   0.599   0.138   3.046
  295SOL    HW2 1638   0.473   0.241   3.053
  296SOL     OW 1639   0.866   0.454   2.504
  296SOL    HW1 1640   0.834   0.526   2.442
  296SOL    HW2 1641   0.890   0.373   2.451
  297SOL     OW 1642   1.017   0.039   2.615
  297SOL    HW1 1643   0.945   0.044   2.546
  297SOL    HW2 1644   0.993  -0.030   2.684
  298SOL     OW 1645   1.429   1.173   2.729
  298SOL    HW1 1646   1.374   1.089   2.722
  298SOL    HW2 1647   1.455   1.202   2.637
  299SOL     OW 1648   1.466   0.590   2.854
  299SOL    HW1 1649   1.436   0.495   2.861
  299SOL    HW2 1650   1.539   0.606   2.920
  300SOL     OW 1651   1.857   0.833   2.239
  300SOL    HW1 1652   1.899   0.769   2.303
  300SOL    HW2 1653   1.819   0.782   2.161
  301SOL     OW 1654   0.488   1.385   2.036
  301SOL    HW1 1655   0.401   1.370   2.083
  301SOL    HW2 1656   0.471   1.411   1.941
  302SOL     OW 1657   1.664   1.280   2.519
  302SOL    HW1 1658   1.763   1.288   2.533
  302SOL    HW2 1659   1.619   1.364   2.550
  303SOL     OW 1660   1.390   0.575   1.940
  303SOL    HW1 1661   1.336   0.554   2.021
  303SOL    HW2 1662   1.481   0.534   1.949
  304SOL     OW 1663   0.527   0.256   2.190
  304SOL    HW1 1664   0.554   0.197   2.115
  304SOL    HW2 1665   0.527   0.351   2.159
  305SOL     OW 1666   1.754   1.223   3.450
  305SOL    HW1 1667   1.845   1.184   3.437
  305SOL    HW2 1668   1.762   1.319   3.474
  306SOL     OW 1669   1.064   1.347   3.202
  306SOL    HW1 1670   0.984   1.324   3.257
  306SOL    HW2 1671   1.147   1.321   3.251
  307SOL     OW 1672   1.592   1.629   3.487
  307SOL    HW1 1673   1.619   1.663   3.397
  307SOL    HW2 1674   1.671   1.591   3.533
  308SOL     OW 1675   1.111   1.195   2.962
  308SOL    HW1 1676   1.071   1.239   3.043
  308SOL    HW2 1677   1.070   1.232   2.879
  309SOL     OW 1678   1.638   1.099   2.941
  309SOL    HW1 1679   1.643   1.180   3.000
  309SOL    HW2 1680   1.552   1.101   2.890
  310SOL     OW 1681   0.915   0.089   3.264
  310SOL    HW1 1682   0.940   0.069   3.169
  310SOL    HW2 1683   0.987   0.145   3.306
  311SOL     OW 1684   0.980   1.116   3.581
  311SOL    HW1 1685   0.881   1.122   3.591
  311SOL    HW2 1686   1.003   1.036   3.525
  312SOL     OW 1687   0.705   1.050   2.230
  312SOL    HW1 1688   0.691   1.057   2.329
  312SOL    HW2 1689   0.789   0.999   2.212
  313SOL     OW 1690   0.410   0.813   3.113
  313SOL    HW1 1691   0.496   0.825   3.163
  313SOL    HW2 1692   0.368   0.726   3.140
  314SOL     OW 1693   1.274   0.386   3.124
  314SOL    HW1 1694   1.295   0.460   3.188
  314SOL    HW2 1695   1.185   0.403   3.081
  315SOL     OW 1696   0.064   1.564   3.193
  315SOL    HW1 1697   0.018   1.646   3.159
  315SOL    HW2 1698   0.162   1.583   3.202
  316SOL     OW 1699   0.367   1.100   2.363
  316SOL    HW1 1700   0.360   1.183   2.307
  316SOL    HW2 1701   0.371   1.020   2.303
  317SOL     OW 1702   0.566   0.537   2.727
  317SOL    HW1 1703   0.578   0.603   2.653
  317SOL    HW2 1704   0.612   0.571   2.810
  318SOL     OW 1705   1.252   1.348   2.250
  318SOL    HW1 1706   1.302   1.425   2.290
  318SOL    HW2 1707   1.157   1.350   2.282
  319SOL     OW 1708   1.272   1.445   3.004
  319SOL    HW1 1709   1.319   1.458   3.091
  319SOL    HW2 1710   1.206   1.371   3.013
  320SOL     OW 1711   1.582   0.639   2.334
  320SOL    HW1 1712   1.551   0.700   2.407
  320SOL    HW2 1713   1.632   0.691   2.265
  321SOL     OW 1714   0.354   1.510   3.191
  321SOL    HW1 1715   0.333   1.466   3.104
  321SOL    HW2 1716   0.451   1.536   3.194
  322SOL     OW 1717   0.402   0.751   3.460
  322SOL    HW1 1718   0.470   0.806   3.413
  322SOL    HW2 1719   0.442   0.663   3.487
  323SOL     OW 1720   1.587   0.779   3.532
  323SOL    HW1 1721   1.495   0.817   3.527
  323SOL    HW2 1722   1.647   0.826   3.467
  324SOL     OW 1723   1.013   0.105   3.632
  324SOL    HW1 1724   1.019   0.190   3.580
  324SOL    HW2 1725   1.045   0.029   3.575
  325SOL     OW 1726   0.504   0.050   3.602
  325SOL    HW1 1727   0.462  -0.007   3.532
  325SOL    HW2 1728   0.438   0.119   3.634
  326SOL     OW 1729   0.573   0.870   2.891
  326SOL    HW1 1730   0.617   0.959   2.882
  326SOL    HW2 1731   0.510   0.870   2.968
  327SOL     OW 1732   1.360   0.862   2.907
  327SOL    HW1 1733   1.285   0.862   2.841
  327SOL    HW2 1734   1.397   0.770   2.916
  328SOL     OW 1735   1.209   0.525   2.137
  328SOL    HW1 1736   1.222   0.441   2.191
  328SOL    HW2 1737   1.180   0.599   2.197
  329SOL     OW 1738   0.307   0.213   3.093
  329SOL    HW1 1739   0.284   0.250   3.183
  329SOL    HW2 1740   0.277   0.118   3.087
  330SOL     OW 1741   0.037   1.310   3.144
  330SOL    HW1 1742   0.090   1.261   3.212
  330SOL    HW2 1743   0.059   1.408   3.149
  331SOL     OW 1744   0.732   0.634   2.926
  331SOL    HW1 1745   0.791   0.608   2.850
  331SOL    HW2 1746   0.704   0.730   2.915
  332SOL     OW 1747   1.728   0.935   3.716
  332SOL    HW1 1748   1.682   0.928   3.627
  332SOL    HW2 1749   1.666   0.979   3.782
  333SOL     OW 1750   0.307   0.063   2.480
  333SOL    HW1 1751   0.296   0.157   2.513
  333SOL    HW2 1752   0.302   0.000   2.557
  334SOL     OW 1753   1.622   0.367   2.236
  334SOL    HW1 1754   1.624   0.291   2.300
  334SOL    HW2 1755   1.574   0.444   2.276
  335SOL     OW 1756   1.023   0.766   2.828
  335SOL    HW1 1757   1.038   0.787   2.924
  335SOL    HW2 1758   0.993   0.671   2.819
  336SOL     OW 1759   0.980   1.573   3.562
  336SOL    HW1 1760   0.960   1.617   3.474
  336SOL    HW2 1761   1.019   1.482   3.546
  337SOL     OW 1762   1.859   1.518   3.467
  337SOL    HW1 1763   1.873   1.545   3.372
  337SOL    HW2 1764   1.942   1.540   3.520
  338SOL     OW 1765   0.350   0.898   3.666
  338SOL    HW1 1766   0.426   0.942   3.714
  338SOL    HW2 1767   0.385   0.851   3.584
  339SOL     OW 1768   1.540   0.274   1.987
  339SOL    HW1 1769   1.479   0.199   2.010
  339SOL    HW2 1770   1.562   0.326   2.070
  340SOL     OW 1771   1.303   0.838   1.904
  340SOL    HW1 1772   1.337   0.745   1.919
  340SOL    HW2 1773   1.321   0.865   1.809
  341SOL     OW 1774   1.068   1.333   2.711
  341SOL    HW1 1775   1.075   1.249   2.656
  341SOL    HW2 1776   1.130   1.402   2.675
  342SOL     OW 1777   0.319   0.810   2.811
  342SOL    HW1 1778   0.412   0.846   2.816
  342SOL    HW2 1779   0.313   0.725   2.863
  343SOL     OW 1780   0.339   0.509   2.868
  343SOL    HW1 1781   0.287   0.426   2.851
  343SOL    HW2 1782   0.416   0.514   2.804
  344SOL     OW 1783   1.138   0.380   3.540
  344SOL    HW1 1784   1.093   0.443   3.604
  344SOL    HW2 1785   1.231   0.411   3.523
  345SOL     OW 1786   1.160   0.207   3.339
  345SOL    HW1 1787   1.160   0.271   3.416
  345SOL    HW2 1788   1.188   0.255   3.256
  346SOL     OW 1789   0.008   1.326   2.062
  346SOL    HW1 1790  -0.085   1.347   2.031
  346SOL    HW2 1791   0.018   1.227   2.075
  347SOL     OW 1792   0.088   1.801   2.789
  347SOL    HW1 1793   0.046   1.715   2.762
  347SOL    HW2 1794   0.182   1.804   2.755
  348SOL     OW 1795   0.504   1.568   2.772
  348SOL    HW1 1796   0.570   1.642   2.781
  348SOL    HW2 1797   0.548   1.489   2.730
  349SOL     OW 1798   1.002   0.796   3.100
  349SOL    HW1 1799   1.043   0.764   3.186
  349SOL    HW2 1800   0.906   0.769   3.097
  350SOL     OW 1801   0.040   0.544   2.976
  350SOL    HW1 1802   0.125   0.511   2.935
  350SOL    HW2 1803   0.053   0.559   3.074
  351SOL     OW 1804   0.189   0.520   3.584
  351SOL    HW1 1805   0.248   0.480   3.514
  351SOL    HW2 1806   0.131   0.591   3.543
  352SOL     OW 1807   1.369   0.950   3.522
  352SOL    HW1 1808   1.408   1.039   3.542
  352SOL    HW2 1809   1.379   0.930   3.425
  353SOL     OW 1810   0.815   0.572   2.187
  353SOL    HW1 1811   0.822   0.483   2.141
  353SOL    HW2 1812   0.721   0.606   2.179
  354SOL     OW 1813   1.657   0.604   3.068
  354SOL    HW1 1814   1.619   0.535   3.130
  354SOL    HW2 1815   1.739   0.568   3.024
  355SOL     OW 1816   0.252   1.564   3.606
  355SOL    HW1 1817   0.222   1.621   3.682
  355SOL    HW2 1818   0.245   1.467   3.632
  356SOL     OW 1819   0.671   0.464   3.131
  356SOL    HW1 1820   0.637   0.375   3.101
  356SOL    HW2 1821   0.697   0.518   3.051
  357SOL     OW 1822   0.930   1.678   3.327
  357SOL    HW1 1823   0.906   1.660   3.232
  357SOL    HW2 1824   0.960   1.772   3.337
  358SOL     OW 1825   0.473   0.500   2.053
  358SOL    HW1 1826   0.534   0.580   2.057
  358SOL    HW2 1827   0.378   0.531   2.060
  359SOL     OW 1828   0.159   1.137   3.328
  359SOL    HW1 1829   0.181   1.076   3.404
  359SOL    HW2 1830   0.169   1.088   3.242
  360SOL     OW 1831   1.347   1.059   3.096
  360SOL    HW1 1832   1.371   0.996   3.022
  360SOL    HW2 1833   1.257   1.099   3.078
  361SOL     OW 1834   1.302   0.855   2.171
  361SOL    HW1 1835   1.216   0.824   2.213
  361SOL    HW2 1836   1.298   0.841   2.072
  362SOL     OW 1837   1.252   1.731   2.990
  362SOL    HW1 1838   1.336   1.736   2.936
  362SOL    HW2 1839   1.229   1.635   3.008
  363SOL     OW 1840   0.083   1.258   2.884
  363SOL    HW1 1841   0.078   1.257   2.984
  363SOL    HW2 1842   0.000   1.217   2.846
  364SOL     OW 1843   0.688   1.662   3.578
  364SOL    HW1 1844   0.632   1.743   3.587
  364SOL    HW2 1845   0.740   1.666   3.492
  365SOL     OW 1846   1.726   0.135   2.385
  365SOL    HW1 1847   1.799   0.118   2.318
  365SOL    HW2 1848   1.695   0.048   2.423
  366SOL     OW 1849   1.388   1.573   2.339
  366SOL    HW1 1850   1.455   1.585   2.265
  366SOL    HW2 1851   1.348   1.662   2.362
  367SOL     OW 1852   0.130   1.794   3.713
  367SOL    HW1 1853   0.089   1.720   3.766
  367SOL    HW2 1854   0.194   1.845   3.771
  368SOL     OW 1855   1.280   0.927   2.534
  368SOL    HW1 1856   1.340   0.846   2.536
  368SOL    HW2 1857   1.320   0.996   2.474
  369SOL     OW 1858   0.830   1.273   3.284
  369SOL    HW1 1859   0.825   1.306   3.379
  369SOL    HW2 1860   0.744   1.292   3.238
  370SOL     OW 1861   0.672   1.616   2.016
  370SOL    HW1 1862   0.681   1.626   1.917
  370SOL    HW2 1863   0.632   1.527   2.037
  371SOL     OW 1864   1.650   1.720   3.256
  371SOL    HW1 1865   1.703   1.730   3.172
  371SOL    HW2 1866   1.623   1.810   3.290
  372SOL     OW 1867   1.841   0.175   2.825
  372SOL    HW1 1868   1.880   0.090   2.789
  372SOL    HW2 1869   1.743   0.177   2.806
  373SOL     OW 1870   0.263   0.326   2.582
  373SOL    HW1 1871   0.184   0.377   2.548
  373SOL    HW2 1872   0.254   0.311   2.680
  374SOL     OW 1873   1.194   1.612   1.893
  374SOL    HW1 1874   1.200   1.519   1.930
  374SOL    HW2 1875   1.135   1.612   1.813
  375SOL     OW 1876   0.822   1.002   3.234
  375SOL    HW1 1877   0.862   1.001   3.142
  375SOL    HW2 1878   0.832   1.094   3.274
  376SOL     OW 1879   0.916   0.910   2.153
  376SOL    HW1 1880   0.979   0.948   2.085
  376SOL    HW2 1881   0.956   0.827   2.192
  377SOL     OW 1882   1.504   1.607   1.906
  377SOL    HW1 1883   1.412   1.644   1.913
  377SOL    HW2 1884   1.542   1.627   1.816
  378SOL     OW 1885   0.372   1.288   3.352
  378SOL    HW1 1886   0.359   1.381   3.318
  378SOL    HW2 1887   0.288   1.236   3.339
  379SOL     OW 1888   1.614   1.292   3.151
  379SOL    HW1 1889   1.674   1.295   3.231
  379SOL    HW2 1890   1.539   1.356   3.164
  380SOL     OW 1891   1.039   1.098   2.558
  380SOL    HW1 1892   0.969   1.051   2.612
  380SOL    HW2 1893   1.098   1.030   2.515
  381SOL     OW 1894   1.014   0.236   2.833
  381SOL    HW1 1895   1.006   0.200   2.740
  381SOL    HW2 1896   1.012   0.160   2.898
  382SOL     OW 1897   0.590   1.487   2.353
  382SOL    HW1 1898   0.632   1.429   2.283
  382SOL    HW2 1899   0.546   1.566   2.309
  383SOL     OW 1900   1.709   0.385   3.243
  383SOL    HW1 1901   1.782   0.454   3.247
  383SOL    HW2 1902   1.737   0.310   3.184
  384SOL     OW 1903   0.255   1.348   2.152
  384SOL    HW1 1904   0.159   1.349   2.125
  384SOL    HW2 1905   0.267   1.401   2.236
  385SOL     OW 1906   0.105   1.013   3.588
  385SOL    HW1 1907   0.028   0.980   3.642
  385SOL    HW2 1908   0.190   0.983   3.630
  386SOL     OW 1909   0.672   0.203   3.351
  386SOL    HW1 1910   0.762   0.187   3.311
  386SOL    HW2 1911   0.680   0.208   3.450
  387SOL     OW 1912   0.075   0.345   1.895
  387SOL    HW1 1913  -0.017   0.317   1.866
  387SOL    HW2 1914   0.106   0.422   1.839
  388SOL     OW 1915   1.440   0.856   3.260
  388SOL    HW1 1916   1.383   0.908   3.197
  388SOL    HW2 1917   1.536   0.868   3.236
  389SOL     OW 1918   0.072   0.166   2.180
  389SOL    HW1 1919   0.055   0.249   2.126
  389SOL    HW2 1920   0.162   0.129   2.158
  390SOL     OW 1921   1.183   1.335   1.981
  390SOL    HW1 1922   1.084   1.324   1.983
  390SOL    HW2 1923   1.217   1.350   2.074
  391SOL     OW 1924   0.613   0.842   3.293
  391SOL    HW1 1925   0.669   0.923   3.276
  391SOL    HW2 1926   0.672   0.762   3.296
  392SOL     OW 1927   1.493   1.767   2.821
  392SOL    HW1 1928   1.526   1.831   2.752
  392SOL    HW2 1929   1.559   1.761   2.896
  393SOL     OW 1930   0.716   0.565   3.570
  393SOL    HW1 1931   0.735   0.630   3.644
  393SOL    HW2 1932   0.776   0.485   3.579
  394SOL     OW 1933   1.450   1.220   3.495
  394SOL    HW1 1934   1.441   1.210   3.594
  394SOL    HW2 1935   1.546   1.213   3.469
  395SOL     OW 1936   0.390   1.741   3.422
  395SOL    HW1 1937   0.299   1.782   3.420
  395SOL    HW2 1938   0.383   1.647   3.454
  396SOL     OW 1939   1.674   0.883   3.116
  396SOL    HW1 1940   1.647   0.794   3.079
  396SOL    HW2 1941   1.675   0.951   3.043
  397SOL     OW 1942   1.225   0.325   2.311
  397SOL    HW1 1943   1.290   0.251   2.300
  397SOL    HW2 1944   1.245   0.375   2.395
  398SOL     OW 1945   0.594   0.745   2.514
  398SOL    HW1 1946   0.644   0.830   2.495
  398SOL    HW2 1947   0.506   0.747   2.466
  399SOL     OW 1948   1.777   0.342   3.504
  399SOL    HW1 1949   1.760   0.373   3.410
  399SOL    HW2 1950   1.693   0.305   3.542
  400SOL     OW 1951   1.730   0.934   3.379
  400SOL    HW1 1952   1.768   1.025   3.394
  400SOL    HW2 1953   1.722   0.917   3.280
  401SOL     OW 1954   0.859   1.374   1.878
  401SOL    HW1 1955   0.813   1.389   1.966
  401SOL    HW2 1956   0.903   1.459   1.848
  402SOL     OW 1957   0.661   1.790   2.815
  402SOL    HW1 1958   0.615   1.878   2.802
  402SOL    HW2 1959   0.760   1.802   2.808
  403SOL     OW 1960   0.859   0.956   2.723
  403SOL    HW1 1961   0.913   0.887   2.771
  403SOL    HW2 1962   0.827   1.025   2.789
  404SOL     OW 1963   1.083   0.984   1.949
  404SOL    HW1 1964   1.060   1.037   1.867
  404SOL    HW2 1965   1.164   0.928   1.930
  405SOL     OW 1966   1.861   1.569   2.713
  405SOL    HW1 1967   1.790   1.557   2.643
  405SOL    HW2 1968   1.862   1.490   2.773
  406SOL     OW 1969   0.221   1.314   3.706
  406SOL    HW1 1970   0.156   1.241   3.685
  406SOL    HW2 1971   0.225   1.328   3.804
  407SOL     OW 1972   0.079   1.240   2.515
  407SOL    HW1 1973   0.078   1.193   2.603
  407SOL    HW2 1974   0.161   1.212   2.464
  408SOL     OW 1975   0.672   1.391   3.486
  408SOL    HW1 1976   0.594   1.341   3.524
  408SOL    HW2 1977   0.669   1.486   3.517
  409SOL     OW 1978   1.824   0.192   3.089
  409SOL    HW1 1979   1.820   0.102   3.133
  409SOL    HW2 1980   1.827   0.181   2.990
  410SOL     OW 1981   0.428   0.424   2.382
  410SOL    HW1 1982   0.458   0.352   2.320
  410SOL    HW2 1983   0.389   0.384   2.465
  411SOL     OW 1984   1.705   1.487   2.966
  411SOL    HW1 1985   1.612   1.462   2.939
  411SOL    HW2 1986   1.731   1.437   3.048
  412SOL     OW 1987   0.317   0.547   3.142
  412SOL    HW1 1988   0.355   0.488   3.214
  412SOL    HW2 1989   0.357   0.521   3.054
  413SOL     OW 1990   0.812   1.586   2.549
  413SOL    HW1 1991   0.844   1.596   2.455
  413SOL    HW2 1992   0.733   1.524   2.551
  414SOL     OW 1993   1.424   0.214   2.974
  414SOL    HW1 1994   1.476   0.149   3.029
  414SOL    HW2 1995   1.375   0.277   3.035
  415SOL     OW 1996   1.001   0.034   3.016
  415SOL    HW1 1997   0.938  -0.038   2.985
  415SOL    HW2 1998   1.094  -0.002   3.016
  416SOL     OW 1999   0.770   1.330   2.163
  416SOL    HW1 2000   0.724   1.243   2.180
  416SOL    HW2 2001   0.861   1.327   2.204
  417SOL     OW 2002   0.618   1.567   3.146
  417SOL    HW1 2003   0.613   1.649   3.203
  417SOL    HW2 2004   0.707   1.564   3.101
  418SOL     OW 2005   1.352   0.052   2.030
  418SOL    HW1 2006   1.387   0.011   1.946
  418SOL    HW2 2007   1.262   0.014   2.050
  419SOL     OW 2008   1.300   0.453   2.553
  419SOL    HW1 2009   1.241   0.533   2.557
  419SOL    HW2 2010   1.315   0.418   2.646
  420SOL     OW 2011   1.593   0.221   2.744
  420SOL    HW1 2012   1.509   0.220   2.798
  420SOL    HW2 2013   1.595   0.304   2.688
  421SOL     OW 2014   0.039   1.077   2.162
  421SOL    HW1 2015   0.138   1.066   2.153
  421SOL    HW2 2016  -0.001   0.991   2.194
  422SOL     OW 2017   0.875   1.646   2.199
  422SOL    HW1 2018   0.798   1.611   2.145
  422SOL    HW2 2019   0.843   1.717   2.261
  423SOL     OW 2020   0.230   0.628   3.837
  423SOL    HW1 2021   0.137   0.626   3.874
  423SOL    HW2 2022   0.231   0.589   3.745
  424SOL     OW 2023   0.225   0.275   4.720
  424SOL    HW1 2024   0.260   0.258   4.812
  424SOL    HW2 2025   0.137   0.230   4.708
  425SOL     OW 2026   0.019   0.368   4.371
  425SOL    HW1 2027  -0.063   0.411   4.410
  425SOL    HW2 2028  -0.009   0.295   4.308
  426SOL     OW 2029   0.569   1.275   4.889
  426SOL    HW1 2030   0.476   1.268   4.852
  426SOL    HW2 2031   0.580   1.364   4.933
  427SOL     OW 2032   1.555   1.511   4.427
  427SOL    HW1 2033   1.498   1.495   4.508
  427SOL    HW2 2034   1.496   1.521   4.347
  428SOL     OW 2035   1.135   0.703   4.441
  428SOL    HW1 2036   1.192   0.781   4.416
  428SOL    HW2 2037   1.075   0.729   4.517
  429SOL     OW 2038   1.755   0.607   3.955
  429SOL    HW1 2039   1.743   0.594   3.856
  429SOL    HW2 2040   1.725   0.526   4.004
  430SOL     OW 2041   0.768   1.144   4.747
  430SOL    HW1 2042   0.690   1.161   4.807
  430SOL    HW2 2043   0.802   1.231   4.711
  431SOL     OW 2044   0.850   0.798   5.547
  431SOL    HW1 2045   0.846   0.874   5.612
  431SOL    HW2 2046   0.872   0.834   5.456
  432SOL     OW 2047   0.685   1.012   4.389
  432SOL    HW1 2048   0.754   0.996   4.459
  432SOL    HW2 2049   0.612   1.069   4.427
  433SOL     OW 2050   0.686   1.161   5.527
  433SOL    HW1 2051   0.746   1.240   5.541
  433SOL    HW2 2052   0.600   1.192   5.486
  434SOL     OW 2053   0.335   1.435   4.785
  434SOL    HW1 2054   0.257   1.404   4.732
  434SOL    HW2 2055   0.393   1.493   4.728
  435SOL     OW 2056   1.460   1.505   5.063
  435SOL    HW1 2057   1.484   1.599   5.089
  435SOL    HW2 2058   1.444   1.451   5.145
  436SOL     OW 2059   0.438   0.392   5.223
  436SOL    HW1 2060   0.520   0.336   5.232
  436SOL    HW2 2061   0.357   0.334   5.227
  437SOL     OW 2062   1.603   0.447   4.461
  437SOL    HW1 2063   1.529   0.493   4.411
  437SOL    HW2 2064   1.654   0.515   4.514
  438SOL     OW 2065   0.231   1.713   4.207
  438SOL    HW1 2066   0.265   1.790   4.261
  438SOL    HW2 2067   0.275   1.713   4.117
  439SOL     OW 2068   1.127   1.341   5.414
  439SOL    HW1 2069   1.174   1.341   5.502
  439SOL    HW2 2070   1.079   1.254   5.403
  440SOL     OW 2071   0.230   1.434   4.262
  440SOL    HW1 2072   0.204   1.530   4.262
  440SOL    HW2 2073   0.159   1.380   4.307
  441SOL     OW 2074   0.240   1.091   4.610
  441SOL    HW1 2075   0.254   1.007   4.662
  441SOL    HW2 2076   0.185   1.155   4.665
  442SOL     OW 2077   0.620   1.786   5.163
  442SOL    HW1 2078   0.528   1.769   5.198
  442SOL    HW2 2079   0.648   1.878   5.189
  443SOL     OW 2080   0.606   0.964   3.847
  443SOL    HW1 2081   0.613   1.048   3.793
  443SOL    HW2 2082   0.652   0.977   3.935
  444SOL     OW 2083   1.594   0.114   5.204
  444SOL    HW1 2084   1.576   0.181   5.132
  444SOL    HW2 2085   1.591   0.160   5.293
  445SOL     OW 2086   0.122   0.643   4.287
  445SOL    HW1 2087   0.077   0.555   4.304
  445SOL    HW2 2088   0.121   0.697   4.371
  446SOL     OW 2089   0.027   1.596   3.841
  446SOL    HW1 2090   0.008   1.500   3.862
  446SOL    HW2 2091  -0.006   1.654   3.916
  447SOL     OW 2092   1.689   0.922   4.336
  447SOL    HW1 2093   1.784   0.893   4.344
  447SOL    HW2 2094   1.681   0.987   4.261
  448SOL     OW 2095   1.641   1.108   4.156
  448SOL    HW1 2096   1.727   1.110   4.104
  448SOL    HW2 2097   1.655   1.155   4.244
  449SOL     OW 2098   0.113   0.737   5.321
  449SOL    HW1 2099   0.201   0.724   5.366
  449SOL    HW2 2100   0.100   0.834   5.299
  450SOL     OW 2101   0.613   1.365   4.450
  450SOL    HW1 2102   0.564   1.278   4.459
  450SOL    HW2 2103   0.590   1.408   4.363
  451SOL     OW 2104   1.293   1.228   5.147
  451SOL    HW1 2105   1.330   1.155   5.089
  451SOL    HW2 2106   1.345   1.233   5.232
  452SOL     OW 2107   0.809   0.004   4.226
  452SOL    HW1 2108   0.849   0.095   4.217
  452SOL    HW2 2109   0.709   0.012   4.232
  453SOL     OW 2110   0.197   0.976   4.988
  453SOL    HW1 2111   0.286   0.931   4.974
  453SOL    HW2 2112   0.124   0.911   4.969
  454SOL     OW 2113   1.525   0.999   3.914
  454SOL    HW1 2114   1.462   0.923   3.927
  454SOL    HW2 2115   1.573   1.017   4.000
  455SOL     OW 2116   1.187   1.792   5.340
  455SOL    HW1 2117   1.211   1.852   5.264
  455SOL    HW2 2118   1.194   1.697   5.310
  456SOL     OW 2119   0.317   0.251   5.525
  456SOL    HW1 2120   0.388   0.322   5.531
  456SOL    HW2 2121   0.229   0.290   5.553
  457SOL     OW 2122   1.466   1.417   4.677
  457SOL    HW1 2123   1.407   1.423   4.757
  457SOL    HW2 2124   1.451   1.329   4.631
  458SOL     OW 2125   1.667   1.714   4.296
  458SOL    HW1 2126   1.626   1.691   4.208
  458SOL    HW2 2127   1.649   1.640   4.361
  459SOL     OW 2128   0.598   0.729   3.994
  459SOL    HW1 2129   0.622   0.798   3.926
  459SOL    HW2 2130   0.520   0.762   4.048
  460SOL     OW 2131   1.281   0.345   4.668
  460SOL    HW1 2132   1.195   0.295   4.655
  460SOL    HW2 2133   1.343   0.291   4.724
  461SOL     OW 2134   1.576   1.662   4.031
  461SOL    HW1 2135   1.665   1.708   4.034
  461SOL    HW2 2136   1.555   1.638   3.936
  462SOL     OW 2137   0.807   0.605   5.189
  462SOL    HW1 2138   0.760   0.602   5.278
  462SOL    HW2 2139   0.756   0.550   5.123
  463SOL     OW 2140   1.394   0.469   5.398
  463SOL    HW1 2141   1.374   0.512   5.486
  463SOL    HW2 2142   1.472   0.407   5.407
  464SOL     OW 2143   0.973   0.890   5.296
  464SOL    HW1 2144   1.019   0.806   5.267
  464SOL    HW2 2145   0.917   0.924   5.221
  465SOL     OW 2146   0.991   0.410   4.966
  465SOL    HW1 2147   0.914   0.444   5.020
  465SOL    HW2 2148   0.957   0.359   4.887
  466SOL     OW 2149   1.041   0.701   4.153
  466SOL    HW1 2150   1.067   0.697   4.249
  466SOL    HW2 2151   0.956   0.650   4.139
  467SOL     OW 2152   0.076   0.811   4.513
  467SOL    HW1 2153   0.175   0.799   4.522
  467SOL    HW2 2154   0.052   0.906   4.534
  468SOL     OW 2155   0.130   1.821   5.295
  468SOL    HW1 2156   0.120   1.806   5.394
  468SOL    HW2 2157   0.044   1.857   5.259
  469SOL     OW 2158   0.865   0.348   3.919
  469SOL    HW1 2159   0.924   0.411   3.870
  469SOL    HW2 2160   0.884   0.254   3.890
  470SOL     OW 2161   1.719   0.585   5.555
  470SOL    HW1 2162   1.693   0.674   5.519
  470SOL    HW2 2163   1.717   0.517   5.482
  471SOL     OW 2164   1.362   1.144   4.269
  471SOL    HW1 2165   1.445   1.115   4.221
  471SOL    HW2 2166   1.313   1.211   4.213
  472SOL     OW 2167   0.550   0.196   4.609
  472SOL    HW1 2168   0.545   0.191   4.709
  472SOL    HW2 2169   0.552   0.292   4.580
  473SOL     OW 2170   1.008   1.456   4.201
  473SOL    HW1 2171   0.962   1.528   4.149
  473SOL    HW2 2172   1.004   1.476   4.299
  474SOL     OW 2173   0.351   1.801   4.577
  474SOL    HW1 2174   0.401   1.715   4.583
  474SOL    HW2 2175   0.416   1.878   4.574
  475SOL     OW 2176   1.795   1.066   4.597
  475SOL    HW1 2177   1.733   1.051   4.521
  475SOL    HW2 2178   1.743   1.077   4.682
  476SOL     OW 2179   1.227   1.550   5.230
  476SOL    HW1 2180   1.233   1.473   5.294
  476SOL    HW2 2181   1.175   1.524   5.150
  477SOL     OW 2182   0.321   0.943   3.966
  477SOL    HW1 2183   0.403   0.982   3.924
  477SOL    HW2 2184   0.294   0.861   3.917
  478SOL     OW 2185   1.458   0.735   4.452
  478SOL    HW1 2186   1.453   0.670   4.527
  478SOL    HW2 2187   1.538   0.794   4.465
  479SOL     OW 2188   0.461   1.266   5.451
  479SOL    HW1 2189   0.411   1.267   5.365
  479SOL    HW2 2190   0.398   1.248   5.527
  480SOL     OW 2191   1.111   1.776   3.961
  480SOL    HW1 2192   1.051   1.714   4.011
  480SOL    HW2 2193   1.142   1.732   3.876
  481SOL     OW 2194   0.202   0.285   5.222
  481SOL    HW1 2195   0.122   0.345   5.209
  481SOL    HW2 2196   0.192   0.236   5.308
  482SOL     OW 2197   1.632   1.377   3.805
  482SOL    HW1 2198   1.600   1.471   3.795
  482SOL    HW2 2199   1.556   1.314   3.793
  483SOL     OW 2200   0.464   1.743   4.047
  483SOL    HW1 2201   0.497   1.782   4.133
  483SOL    HW2 2202   0.540   1.736   3.982
  484SOL     OW 2203   1.400   0.107   4.150
  484SOL    HW1 2204   1.376   0.070   4.060
  484SOL    HW2 2205   1.499   0.123   4.154
  485SOL     OW 2206   0.249   1.785   4.965
  485SOL    HW1 2207   0.306   1.720   5.015
  485SOL    HW2 2208   0.233   1.752   4.872
  486SOL     OW 2209   0.940   1.698   4.628
  486SOL    HW1 2210   1.020   1.641   4.649
  486SOL    HW2 2211   0.891   1.658   4.551
  487SOL     OW 2212   0.382   0.700   4.204
  487SOL    HW1 2213   0.427   0.610   4.201
  487SOL    HW2 2214   0.288   0.689   4.237
  488SOL     OW 2215   1.547   0.222   5.453
  488SOL    HW1 2216   1.542   0.259   5.545
  488SOL    HW2 2217   1.475   0.153   5.441
  489SOL     OW 2218   0.614   0.122   3.841
  489SOL    HW1 2219   0.712   0.100   3.848
  489SOL    HW2 2220   0.583   0.105   3.748
  490SOL     OW 2221   0.781   0.264   5.473
  490SOL    HW1 2222   0.848   0.203   5.516
  490SOL    HW2 2223   0.708   0.283   5.538
  491SOL     OW 2224   0.888   1.514   4.919
  491SOL    HW1 2225   0.865   1.489   4.825
  491SOL    HW2 2226   0.949   1.445   4.958
  492SOL     OW 2227   1.351   0.590   5.157
  492SOL    HW1 2228   1.379   0.547   5.242
  492SOL    HW2 2229   1.376   0.686   5.158
  493SOL     OW 2230   0.803   1.402   4.648
  493SOL    HW1 2231   0.893   1.416   4.606
  493SOL    HW2 2232   0.732   1.404   4.577
  494SOL     OW 2233   0.922   0.503   4.623
  494SOL    HW1 2234   0.897   0.494   4.527
  494SOL    HW2 2235   0.970   0.421   4.654
  495SOL     OW 2236   0.539   0.064   4.236
  495SOL    HW1 2237   0.458   0.065   4.294
  495SOL    HW2 2238   0.542   0.147   4.181
  496SOL     OW 2239   1.434   1.188   3.765
  496SOL    HW1 2240   1.466   1.112   3.822
  496SOL    HW2 2241   1.342   1.215   3.795
  497SOL     OW 2242   0.297   0.035   3.895
  497SOL    HW1 2243   0.346   0.119   3.874
  497SOL    HW2 2244   0.359  -0.030   3.940
  498SOL     OW 2245   0.935   0.236   4.204
  498SOL    HW1 2246   0.887   0.277   4.126
  498SOL    HW2 2247   1.034   0.234   4.185
  499SOL     OW 2248   1.076   0.683   5.188
  499SOL    HW1 2249   0.996   0.622   5.191
  499SOL    HW2 2250   1.157   0.630   5.164
  500SOL     OW 2251   1.227   1.570   4.517
  500SOL    HW1 2252   1.248   1.644   4.452
  500SOL    HW2 2253   1.295   1.570   4.590
  501SOL     OW 2254   0.459   1.152   4.465
  501SOL    HW1 2255   0.388   1.125   4.530
  501SOL    HW2 2256   0.433   1.124   4.372
  502SOL     OW 2257   1.271   1.797   4.315
  502SOL    HW1 2258   1.315   1.861   4.251
  502SOL    HW2 2259   1.221   1.849   4.385
  503SOL     OW 2260   1.032   0.549   3.740
  503SOL    HW1 2261   0.991   0.631   3.701
  503SOL    HW2 2262   1.096   0.575   3.813
  504SOL     OW 2263   0.078   0.556   5.110
  504SOL    HW1 2264   0.170   0.555   5.069
  504SOL    HW2 2265   0.072   0.630   5.177
  505SOL     OW 2266   0.561   0.222   4.871
  505SOL    HW1 2267   0.599   0.138   4.908
  505SOL    HW2 2268   0.473   0.241   4.915
  506SOL     OW 2269   0.866   0.454   4.366
  506SOL    HW1 2270   0.834   0.526   4.304
  506SOL    HW2 2271   0.890   0.373   4.313
  507SOL     OW 2272   1.017   0.039   4.477
  507SOL    HW1 2273   0.945   0.044   4.408
  507SOL    HW2 2274   0.993  -0.030   4.546
  508SOL     OW 2275   1.429   1.173   4.591
  508SOL    HW1 2276   1.374   1.089   4.584
  508SOL    HW2 2277   1.455   1.202   4.499
  509SOL     OW 2278   1.466   0.590   4.716
  509SOL    HW1 2279   1.436   0.495   4.723
  509SOL    HW2 2280   1.539   0.606   4.782
  510SOL     OW 2281   1.857   0.833   4.101
  510SOL    HW1 2282   1.899   0.769   4.165
  510SOL    HW2 2283   1.819   0.782   4.023
  511SOL     OW 2284   0.488   1.385   3.898
  511SOL    HW1 2285   0.401   1.370   3.945
  511SOL    HW2 2286   0.471   1.411   3.803
  512SOL     OW 2287   1.664   1.280   4.381
  512SOL    HW1 2288   1.763   1.288   4.395
  512SOL    HW2 2289   1.619   1.364   4.412
  513SOL     OW 2290   1.390   0.575   3.802
  513SOL    HW1 2291   1.336   0.554   3.883
  513SOL    HW2 2292   1.481   0.534   3.811
  514SOL     OW 2293   0.527   0.256   4.052
  514SOL    HW1 2294   0.554   0.197   3.977
  514SOL    HW2 2295   0.527   0.351   4.021
  515SOL     OW 2296   1.754   1.223   5.312
  515SOL    HW1 2297   1.845   1.184   5.299
  515SOL    HW2 2298   1.762   1.319   5.336
  516SOL     OW 2299   1.064   1.347   5.064
  516SOL    HW1 2300   0.984   1.324   5.119
  516SOL    HW2 2301   1.147   1.321   5.113
  517SOL     OW 2302   1.592   1.629   5.349
  517SOL    HW1 2303   1.619   1.663   5.259
  517SOL    HW2 2304   1.671   1.591   5.395
  518SOL     OW 2305   1.111   1.195   4.824
  518SOL    HW1 2306   1.071   1.239   4.905
  518SOL    HW2 2307   1.070   1.232   4.741
  519SOL     OW 2308   1.638   1.099   4.803
  519SOL    HW1 2309   1.643   1.180   4.862
  519SOL    HW2 2310   1.552   1.101   4.752
  520SOL     OW 2311   0.915   0.089   5.126
  520SOL    HW1 2312   0.940   0.069   5.031
  520SOL    HW2 2313   0.987   0.145   5.168
  521SOL     OW 2314   0.980   1.116   5.443
  521SOL    HW1 2315   0.881   1.122   5.453
  521SOL    HW2 2316   1.003   1.036   5.387
  522SOL     OW 2317   0.705   1.050   4.092
  522SOL    HW1 2318   0.691   1.057   4.191
  522SOL    HW2 2319   0.789   0.999   4.074
  523SOL     OW 2320   0.410   0.813   4.975
  523SOL    HW1 2321   0.496   0.825   5.025
  523SOL    HW2 2322   0.368   0.726   5.002
  524SOL     OW 2323   1.274   0.386   4.986
  524SOL    HW1 2324   1.295   0.460   5.050
  524SOL    HW2 2325   1.185   0.403   4.943
  525SOL     OW 2326   0.064   1.564   5.055
  525SOL    HW1 2327   0.018   1.646   5.021
  525SOL    HW2 2328   0.162   1.583   5.064
  526SOL     OW 2329   0.367   1.100   4.225
  526SOL    HW1 2330   0.360   1.183   4.169
  526SOL    HW2 2331   0.371   1.020   4.165
  527SOL     OW 2332   0.566   0.537   4.589
  527SOL    HW1 2333   0.578   0.603   4.515
  527SOL    HW2 2334   0.612   0.571   4.672
  528SOL     OW 2335   1.252   1.348   4.112
  528SOL    HW1 2336   1.302   1.425   4.152
  528SOL    HW2 2337   1.157   1.350   4.144
  529SOL     OW 2338   1.272   1.445   4.866
  529SOL    HW1 2339   1.319   1.458   4.953
  529SOL    HW2 2340   1.206   1.371   4.875
  530SOL     OW 2341   1.582   0.639   4.196
  530SOL    HW1 2342   1.551   0.700   4.269
  530SOL    HW2 2343   1.632   0.691   4.127
  531SOL     OW 2344   0.354   1.510   5.053
  531SOL    HW1 2345   0.333   1.466   4.966
  531SOL    HW2 2346   0.451   1.536   5.056
  532SOL     OW 2347   0.402   0.751   5.322
  532SOL    HW1 2348   0.470   0.806   5.275
  532SOL    HW2 2349   0.442   0.663   5.349
  533SOL     OW 2350   1.587   0.779   5.394
  533SOL    HW1 2351   1.495   0.817   5.389
  533SOL    HW2 2352   1.647   0.826   5.329
  534SOL     OW 2353   1.013   0.105   5.494
  534SOL    HW1 2354   1.019   0.190   5.442
  534SOL    HW2 2355   1.045   0.029   5.437
  535SOL     OW 2356   0.504   0.050   5.464
  535SOL    HW1 2357   0.462  -0.007   5.394
  535SOL    HW2 2358   0.438   0.119   5.496
  536SOL     OW 2359   0.573   0.870   4.753
  536SOL    HW1 2360   0.617   0.959   4.744
  536SOL    HW2 2361   0.510   0.870   4.830
  537SOL     OW 2362   1.360   0.862   4.769
  537SOL    HW1 2363   1.285   0.862   4.703
  537SOL    HW2 2364   1.397   0.770   4.778
  538SOL     OW 2365   1.209   0.525   3.999
  538SOL    HW1 2366   1.222   0.441   4.053
  538SOL    HW2 2367   1.180   0.599   4.059
  539SOL     OW 2368   0.307   0.213   4.955
  539SOL    HW1 2369   0.284   0.250   5.045
  539SOL    HW2 2370   0.277   0.118   4.949
  540SOL     OW 2371   0.037   1.310   5.006
  540SOL    HW1 2372   0.090   1.261   5.074
  540SOL    HW2 2373   0.059   1.408   5.011
  541SOL     OW 2374   0.732   0.634   4.788
  541SOL    HW1 2375   0.791   0.608   4.712
  541SOL    HW2 2376   0.704   0.730   4.777
  542SOL     OW 2377   1.728   0.935   5.578
  542SOL    HW1 2378   1.682   0.928   5.489
  542SOL    HW2 2379   1.666   0.979   5.644
  543SOL     OW 2380   0.307   0.063   4.342
  543SOL    HW1 2381   0.296   0.157   4.375
  543SOL    HW2 2382   0.302   0.000   4.419
  544SOL     OW 2383   1.622   0.367   4.098
  544SOL    HW1 2384   1.624   0.291   4.162
  544SOL    HW2 2385   1.574   0.444   4.138
  545SOL     OW 2386   1.023   0.766   4.690
  545SOL    HW1 2387   1.038   0.787   4.786
  545SOL    HW2 2388   0.993   0.671   4.681
  546SOL     OW 2389   0.980   1.573   5.424
  546SOL    HW1 2390   0.960   1.617   5.336
  546SOL    HW2 2391   1.019   1.482   5.408
  547SOL     OW 2392   1.859   1.518   5.329
  547SOL    HW1 2393   1.873   1.545   5.234
  547SOL    HW2 2394   1.942   1.540   5.382
  548SOL     OW 2395   0.350   0.898   5.528
  548SOL    HW1 2396   0.426   0.942   5.576
  548SOL    HW2 2397   0.385   0.851   5.446
  549SOL     OW 2398   1.540   0.274   3.849
  549SOL    HW1 2399   1.479   0.199   3.872
  549SOL    HW2 2400   1.562   0.326   3.932
  550SOL     OW 2401   1.303   0.838   3.766
  550SOL    HW1 2402   1.337   0.745   3.781
  550SOL    HW2 2403   1.321   0.865   3.671
  551SOL     OW 2404   1.068   1.333   4.573
  551SOL    HW1 2405   1.075   1.249   4.518
  551SOL    HW2 2406   1.130   1.402   4.537
  552SOL     OW 2407   0.319   0.810   4.673
  552SOL    HW1 2408   0.412   0.846   4.678
  552SOL    HW2 2409   0.313   0.725   4.725
  553SOL     OW 2410   0.339   0.509   4.730
  553SOL    HW1 2411   0.287   0.426   4.713
  553SOL    HW2 2412   0.416   0.514   4.666
  554SOL     OW 2413   1.138   0.380   5.402
  554SOL    HW1 2414   1.093   0.443   5.466
  554SOL    HW2 2415   1.231   0.411   5.385
  555SOL     OW 2416   1.160   0.207   5.201
  555SOL    HW1 2417   1.160   0.271   5.278
  555SOL    HW2 2418   1.188   0.255   5.118
  556SOL     OW 2419   0.008   1.326   3.924
  556SOL    HW1 2420  -0.085   1.347   3.893
  556SOL    HW2 2421   0.018   1.227   3.937
  557SOL     OW 2422   0.088   1.801   4.651
  557SOL    HW1 2423   0.046   1.715   4.624
  557SOL    HW2 2424   0.182   1.804   4.617
  558SOL     OW 2425   0.504   1.568   4.634
  558SOL    HW1 2426   0.570   1.642   4.643
  558SOL    HW2 2427   0.548   1.489   4.592
  559SOL     OW 2428   1.002   0.796   4.962
  559SOL    HW1 2429   1.043   0.764   5.048
  559SOL    HW2 2430   0.906   0.769   4.959
  560SOL     OW 2431   0.040   0.544   4.838
  560SOL    HW1 2432   0.125   0.511   4.797
  560SOL    HW2 2433   0.053   0.559   4.936
  561SOL     OW 2434   0.189   0.520   5.446
  561SOL    HW1 2435   0.248   0.480   5.376
  561SOL    HW2 2436   0.131   0.591   5.405
  562SOL     OW 2437   1.369   0.950   5.384
  562SOL    HW1 2438   1.408   1.039   5.404
  562SOL    HW2 2439   1.379   0.930   5.287
  563SOL     OW 2440   0.815   0.572   4.049
  563SOL    HW1 2441   0.822   0.483   4.003
  563SOL    HW2 2442   0.721   0.606   4.041
  564SOL     OW 2443   1.657   0.604   4.930
  564SOL    HW1 2444   1.619   0.535   4.992
  564SOL    HW2 2445   1.739   0.568   4.886
  565SOL     OW 2446   0.252   1.564   5.468
  565SOL    HW1 2447   0.222   1.621   5.544
  565SOL    HW2 2448   0.245   1.467   5.494
  566SOL     OW 2449   0.671   0.464   4.993
  566SOL    HW1 2450   0.637   0.375   4.963
  566SOL    HW2 2451   0.697   0.518   4.913
  567SOL     OW 2452   0.930   1.678   5.189
  567SOL    HW1 2453   0.906   1.660   5.094
  567SOL    HW2 2454   0.960   1.772   5.199
  568SOL     OW 2455   0.473   0.500   3.915
  568SOL    HW1 2456   0.534   0.580   3.919
  568SOL    HW2 2457   0.378   0.531   3.922
  569SOL     OW 2458   0.159   1.137   5.190
  569SOL    HW1 2459   0.181   1.076   5.266
  569SOL    HW2 2460   0.169   1.088   5.104
  570SOL     OW 2461   1.347   1.059   4.958
  570SOL    HW1 2462   1.371   0.996   4.884
  570SOL    HW2 2463   1.257   1.099   4.940
  571SOL     OW 2464   1.302   0.855   4.033
  571SOL    HW1 2465   1.216   0.824   4.075
  571SOL    HW2 2466   1.298   0.841   3.934
  572SOL     OW 2467   1.252   1.731   4.852
  572SOL    HW1 2468   1.336   1.736   4.798
  572SOL    HW2 2469   1.229   1.635   4.870
  573SOL     OW 2470   0.083   1.258   4.746
  573SOL    HW1 2471   0.078   1.257   4.846
  573SOL    HW2 2472   0.000   1.217   4.708
  574SOL     OW 2473   0.688   1.662   5.440
  574SOL    HW1 2474   0.632   1.743   5.449
  574SOL    HW2 2475   0.740   1.666   5.354
  575SOL     OW 2476   1.726   0.135   4.247
  575SOL    HW1 2477   1.799   0.118   4.180
  575SOL    HW2 2478   1.695   0.048   4.285
  576SOL     OW 2479   1.388   1.573   4.201
  576SOL    HW1 2480   1.455   1.585   4.127
  576SOL    HW2 2481   1.348   1.662   4.224
  577SOL     OW 2482   0.130   1.794   5.575
  577SOL    HW1 2483   0.089   1.720   5.628
  577SOL    HW2 2484   0.194   1.845   5.633
  578SOL     OW 2485   1.280   0.927   4.396
  578SOL    HW1 2486   1.340   0.846   4.398
  578SOL    HW2 2487   1.320   0.996   4.336
  579SOL     OW 2488   0.830   1.273   5.146
  579SOL    HW1 2489   0.825   1.306   5.241
  579SOL    HW2 2490   0.744   1.292   5.100
  580SOL     OW 2491   0.672   1.616   3.878
  580SOL    HW1 2492   0.681   1.626   3.779
  580SOL    HW2 2493   0.632   1.527   3.899
  581SOL     OW 2494   1.650   1.720   5.118
  581SOL    HW1 2495   1.703   1.730   5.034
  581SOL    HW2 2496   1.623   1.810   5.152
  582SOL     OW 2497   1.841   0.175   4.687
  582SOL    HW1 2498   1.880   0.090   4.651
  582SOL    HW2 2499   1.743   0.177   4.668
  583SOL     OW 2500   0.263   0.326   4.444
  583SOL    HW1 2501   0.184   0.377   4.410
  583SOL    HW2 2502   0.254   0.311   4.542
  584SOL     OW 2503   1.194   1.612   3.755
  584SOL    HW1 2504   1.200   1.519   3.792
  584SOL    HW2 2505   1.135   1.612   3.675
  585SOL     OW 2506   0.822   1.002   5.096
  585SOL    HW1 2507   0.862   1.001   5.004
  585SOL    HW2 2508   0.832   1.094   5.136
  586SOL     OW 2509   0.916   0.910   4.015
  586SOL    HW1 2510   0.979   0.948   3.947
  586SOL    HW2 2511   0.956   0.827   4.054
  587SOL     OW 2512   1.504   1.607   3.768
  587SOL    HW1 2513   1.412   1.644   3.775
  587SOL    HW2 2514   1.542   1.627   3.678
  588SOL     OW 2515   0.372   1.288   5.214
  588SOL    HW1 2516   0.359   1.381   5.180
  588SOL    HW2 2517   0.288   1.236   5.201
  589SOL     OW 2518   1.614   1.292   5.013
  589SOL    HW1 2519   1.674   1.295   5.093
  589SOL    HW2 2520   1.539   1.356   5.026
  590SOL     OW 2521   1.039   1.098   4.420
  590SOL    HW1 2522   0.969   1.051   4.474
  590SOL    HW2 2523   1.098   1.030   4.377
  591SOL     OW 2524   1.014   0.236   4.695
  591SOL    HW1 2525   1.006   0.200   4.602
  591SOL    HW2 2526   1.012   0.160   4.760
  592SOL     OW 2527   0.590   1.487   4.215
  592SOL    HW1 2528   0.632   1.429   4.145
  592SOL    HW2 2529   0.546   1.566   4.171
  593SOL     OW 2530   1.709   0.385   5.105
  593SOL    HW1 2531   1.782   0.454   5.109
  593SOL    HW2 2532   1.737   0.310   5.046
  594SOL     OW 2533   0.255   1.348   4.014
  594SOL    HW1 2534   0.159   1.349   3.987
  594SOL    HW2 2535   0.267   1.401   4.098
  595SOL     OW 2536   0.105   1.013   5.450
  595SOL    HW1 2537   0.028   0.980   5.504
  595SOL    HW2 2538   0.190   0.983   5.492
  596SOL     OW 2539   0.672   0.203   5.213
  596SOL    HW1 2540   0.762   0.187   5.173
  596SOL    HW2 2541   0.680   0.208   5.312
  597SOL     OW 2542   0.075   0.345   3.757
  597SOL    HW1 2543  -0.017   0.317   3.728
  597SOL    HW2 2544   0.106   0.422   3.701
  598SOL     OW 2545   1.440   0.856   5.122
  598SOL    HW1 2546   1.383   0.908   5.059
  598SOL    HW2 2547   1.536   0.868   5.098
  599SOL     OW 2548   0.072   0.166   4.042
  599SOL    HW1 2549   0.055   0.249   3.988
  599SOL    HW2 2550   0.162   0.129   4.020
  600SOL     OW 2551   1.183   1.335   3.843
  600SOL    HW1 2552   1.084   1.324   3.845
  600SOL    HW2 2553   1.217   1.350   3.936
  601SOL     OW 2554   0.613   0.842   5.155
  601SOL    HW1 2555   0.669   0.923   5.138
  601SOL    HW2 2556   0.672   0.762   5.158
  602SOL     OW 2557   1.493   1.767   4.683
  602SOL    HW1 2558   1.526   1.831   4.614
  602SOL    HW2 2559   1.559   1.761   4.758
  603SOL     OW 2560   0.716   0.565   5.432
  603SOL    HW1 2561   0.735   0.630   5.506
  603SOL    HW2 2562   0.776   0.485   5.441
  604SOL     OW 2563   1.450   1.220   5.357
  604SOL    HW1 2564   1.441   1.210   5.456
  604SOL    HW2 2565   1.546   1.213   5.331
  605SOL     OW 2566   0.390   1.741   5.284
  605SOL    HW1 2567   0.299   1.782   5.282
  605SOL    HW2 2568   0.383   1.647   5.316
  606SOL     OW 2569   1.674   0.883   4.978
  606SOL    HW1 2570   1.647   0.794   4.941
  606SOL    HW2 2571   1.675   0.951   4.905
  607SOL     OW 2572   1.225   0.325   4.173
  607SOL    HW1 2573   1.290   0.251   4.162
  607SOL    HW2 2574   1.245   0.375   4.257
  608SOL     OW 2575   0.594   0.745   4.376
  608SOL    HW1 2576   0.644   0.830   4.357
  608SOL    HW2 2577   0.506   0.747   4.328
  609SOL     OW 2578   1.777   0.342   5.366
  609SOL    HW1 2579   1.760   0.373   5.272
  609SOL    HW2 2580   1.693   0.305   5.404
  610SOL     OW 2581   1.730   0.934   5.241
  610SOL    HW1 2582   1.768   1.025   5.256
  610SOL    HW2 2583   1.722   0.917   5.142
  611SOL     OW 2584   0.859   1.374   3.740
  611SOL    HW1 2585   0.813   1.389   3.828
  611SOL    HW2 2586   0.903   1.459   3.710
  612SOL     OW 2587   0.661   1.790   4.677
  612SOL    HW1 2588   0.615   1.878   4.664
  612SOL    HW2 2589   0.760   1.802   4.670
  613SOL     OW 2590   0.859   0.956   4.585
  613SOL    HW1 2591   0.913   0.887   4.633
  613SOL    HW2 2592   0.827   1.025   4.651
  614SOL     OW 2593   1.083   0.984   3.811
  614SOL    HW1 2594   1.060   1.037   3.729
  614SOL    HW2 2595   1.164   0.928   3.792
  615SOL     OW 2596   1.861   1.569   4.575
  615SOL    HW1 2597   1.790   1.557   4.505
  615SOL    HW2 2598   1.862   1.490   4.635
  616SOL     OW 2599   0.221   1.314   5.568
  616SOL    HW1 2600   0.156   1.241   5.547
  616SOL    HW2 2601   0.225   1.328   5.666
  617SOL     OW 2602   0.079   1.240   4.377
  617SOL    HW1 2603   0.078   1.193   4.465
  617SOL    HW2 2604   0.161   1.212   4.326
  618SOL     OW 2605   0.672   1.391   5.348
  618SOL    HW1 2606   0.594   1.341   5.386
  618SOL    HW2 2607   0.669   1.486   5.379
  619SOL     OW 2608   1.824   0.192   4.951
  619SOL    HW1 2609   1.820   0.102   4.995
  619SOL    HW2 2610   1.827   0.181   4.852
  620SOL     OW 2611   0.428   0.424   4.244
  620SOL    HW1 2612   0.458   0.352   4.182
  620SOL    HW2 2613   0.389   0.384   4.327
  621SOL     OW 2614   1.705   1.487   4.828
  621SOL    HW1 2615   1.612   1.462   4.801
  621SOL    HW2 2616   1.731   1.437   4.910
  622SOL     OW 2617   0.317   0.547   5.004
  622SOL    HW1 2618   0.355   0.488   5.076
  622SOL    HW2 2619   0.357   0.521   4.916
  623SOL     OW 2620   0.812   1.586   4.411
  623SOL    HW1 2621   0.844   1.596   4.317
  623SOL    HW2 2622   0.733   1.524   4.413
  624SOL     OW 2623   1.424   0.214   4.836
  624SOL    HW1 2624   1.476   0.149   4.891
  624SOL    HW2 2625   1.375   0.277   4.897
  625SOL     OW 2626   1.001   0.034   4.878
  625SOL    HW1 2627   0.938  -0.038   4.847
  625SOL    HW2 2628   1.094  -0.002   4.878
  626SOL     OW 2629   0.770   1.330   4.025
  626SOL    HW1 2630   0.724   1.243   4.042
  626SOL    HW2 2631   0.861   1.327   4.066
  627SOL     OW 2632   0.618   1.567   5.008
  627SOL    HW1 2633   0.613   1.649   5.065
  627SOL    HW2 2634   0.707   1.564   4.963
  628SOL     OW 2635   1.352   0.052   3.892
  628SOL    HW1 2636   1.387   0.011   3.808
  628SOL    HW2 2637   1.262   0.014   3.912
  629SOL     OW 2638   1.300   0.453   4.415
  629SOL    HW1 2639   1.241   0.533   4.419
  629SOL    HW2 2640   1.315   0.418   4.508
  630SOL     OW 2641   1.593   0.221   4.606
  630SOL    HW1 2642   1.509   0.220   4.660
  630SOL    HW2 2643   1.595   0.304   4.550
  631SOL     OW 2644   0.039   1.077   4.024
  631SOL    HW1 2645   0.138   1.066   4.015
  631SOL    HW2 2646  -0.001   0.991   4.056
  632SOL     OW 2647   0.875   1.646   4.061
  632SOL    HW1 2648   0.798   1.611   4.007
  632SOL    HW2 2649   0.843   1.717   4.123
  633SOL     OW 2650   0.230   0.628   5.699
  633SOL    HW1 2651   0.137   0.626   5.736
  633SOL    HW2 2652   0.231   0.589   5.607
  634SOL     OW 2653   0.225   0.275   6.582
  634SOL    HW1 2654   0.260   0.258   6.674
  634SOL    HW2 2655   0.137   0.230   6.570
  635SOL     OW 2656   0.019   0.368   6.233
  635SOL    HW1 2657  -0.063   0.411   6.272
  635SOL    HW2 2658  -0.009   0.295   6.170
  636SOL     OW 2659   0.569   1.275   6.751
  636SOL    HW1 2660   0.476   1.268   6.714
  636SOL    HW2 2661   0.580   1.364   6.795
  637SOL     OW 2662   1.135   0.703   6.303
  637SOL    HW1 2663   1.192   0.781   6.278
  637SOL    HW2 2664   1.075   0.729   6.379
  638SOL     OW 2665   1.755   0.607   5.817
  638SOL    HW1 2666   1.743   0.594   5.718
  638SOL    HW2 2667   1.725   0.526   5.866
  639SOL     OW 2668   0.768   1.144   6.609
  639SOL    HW1 2669   0.690   1.161   6.669
  639SOL    HW2 2670   0.802   1.231   6.573
  640SOL     OW 2671   0.850   0.798   7.409
  640SOL    HW1 2672   0.846   0.874   7.474
  640SOL    HW2 2673   0.872   0.834   7.318
  641SOL     OW 2674   0.685   1.012   6.251
  641SOL    HW1 2675   0.754   0.996   6.321
  641SOL    HW2 2676   0.612   1.069   6.289
  642SOL     OW 2677   0.686   1.161   7.389
  642SOL    HW1 2678   0.746   1.240   7.403
  642SOL    HW2 2679   0.600   1.192   7.348
  643SOL     OW 2680   0.335   1.435   6.647
  643SOL    HW1 2681   0.257   1.404   6.594
  643SOL    HW2 2682   0.393   1.493   6.590
  644SOL     OW 2683   1.460   1.505   6.925
  644SOL    HW1 2684   1.484   1.599   6.951
  644SOL    HW2 2685   1.444   1.451   7.007
  645SOL     OW 2686   0.438   0.392   7.085
  645SOL    HW1 2687   0.520   0.336   7.094
  645SOL    HW2 2688   0.357   0.334   7.089
  646SOL     OW 2689   1.603   0.447   6.323
  646SOL    HW1 2690   1.529   0.493   6.273
  646SOL    HW2 2691   1.654   0.515   6.376
  647SOL     OW 2692   0.231   1.713   6.069
  647SOL    HW1 2693   0.265   1.790   6.123
  647SOL    HW2 2694   0.275   1.713   5.979
  648SOL     OW 2695   1.127   1.341   7.276
  648SOL    HW1 2696   1.174   1.341   7.364
  648SOL    HW2 2697   1.079   1.254   7.265
  649SOL     OW 2698   0.230   1.434   6.124
  649SOL    HW1 2699   0.204   1.530   6.124
  649SOL    HW2 2700   0.159   1.380   6.169
  650SOL     OW 2701   0.240   1.091   6.472
  650SOL    HW1 2702   0.254   1.007   6.524
  650SOL    HW2 2703   0.185   1.155   6.527
  651SOL     OW 2704   0.620   1.786   7.025
  651SOL    HW1 2705   0.528   1.769   7.060
  651SOL    HW2 2706   0.648   1.878   7.051
  652SOL     OW 2707   0.606   0.964   5.709
  652SOL    HW1 2708   0.613   1.048   5.655
  652SOL    HW2 2709   0.652   0.977   5.797
  653SOL     OW 2710   1.594   0.114   7.066
  653SOL    HW1 2711   1.576   0.181   6.994
  653SOL    HW2 2712   1.591   0.160   7.155
  654SOL     OW 2713   0.122   0.643   6.149
  654SOL    HW1 2714   0.077   0.555   6.166
  654SOL    HW2 2715   0.121   0.697   6.233
  655SOL     OW 2716   0.027   1.596   5.703
  655SOL    HW1 2717   0.008   1.500   5.724
  655SOL    HW2 2718  -0.006   1.654   5.778
  656SOL     OW 2719   1.689   0.922   6.198
  656SOL    HW1 2720   1.784   0.893   6.206
  656SOL    HW2 2721   1.681   0.987   6.123
  657SOL     OW 2722   1.641   1.108   6.018
  657SOL    HW1 2723   1.727   1.110   5.966
  657SOL    HW2 2724   1.655   1.155   6.106
  658SOL     OW 2725   0.113   0.737   7.183
  658SOL    HW1 2726   0.201   0.724   7.228
  658SOL    HW2 2727   0.100   0.834   7.161
  659SOL     OW 2728   0.613   1.365   6.312
  659SOL    HW1 2729   0.564   1.278   6.321
  659SOL    HW2 2730   0.590   1.408   6.225
  660SOL     OW 2731   1.293   1.228   7.009
  660SOL    HW1 2732   1.330   1.155   6.951
  660SOL    HW2 2733   1.345   1.233   7.094
  661SOL     OW 2734   0.809   0.004   6.088
  661SOL    HW1 2735   0.849   0.095   6.079
  661SOL    HW2 2736   0.709   0.012   6.094
  662SOL     OW 2737   0.197   0.976   6.850
  662SOL    HW1 2738   0.286   0.931   6.836
  662SOL    HW2 2739   0.124   0.911   6.831
  663SOL     OW 2740   1.525   0.999   5.776
  663SOL    HW1 2741   1.462   0.923   5.789
  663SOL    HW2 2742   1.573   1.017   5.862
  664SOL     OW 2743   0.317   0.251   7.387
  664SOL    HW1 2744   0.388   0.322   7.393
  664SOL    HW2 2745   0.229   0.290   7.415
  665SOL     OW 2746   0.598   0.729   5.856
  665SOL    HW1 2747   0.622   0.798   5.788
  665SOL    HW2 2748   0.520   0.762   5.910
  666SOL     OW 2749   1.281   0.345   6.530
  666SOL    HW1 2750   1.195   0.295   6.517
  666SOL    HW2 2751   1.343   0.291   6.586
  667SOL     OW 2752   1.576   1.662   5.893
  667SOL    HW1 2753   1.665   1.708   5.896
  667SOL    HW2 2754   1.555   1.638   5.798
  668SOL     OW 2755   0.807   0.605   7.051
  668SOL    HW1 2756   0.760   0.602   7.140
  668SOL    HW2 2757   0.756   0.550   6.985
  669SOL     OW 2758   1.394   0.469   7.260
  669SOL    HW1 2759   1.374   0.512   7.348
  669SOL    HW2 2760   1.472   0.407   7.269
  670SOL     OW 2761   0.973   0.890   7.158
  670SOL    HW1 2762   1.019   0.806   7.129
  670SOL    HW2 2763   0.917   0.924   7.083
  671SOL     OW 2764   0.991   0.410   6.828
  671SOL    HW1 2765   0.914   0.444   6.882
  671SOL    HW2 2766   0.957   0.359   6.749
  672SOL     OW 2767   1.041   0.701   6.015
  672SOL    HW1 2768   1.067   0.697   6.111
  672SOL    HW2 2769   0.956   0.650   6.001
  673SOL     OW 2770   0.076   0.811   6.375
  673SOL    HW1 2771   0.175   0.799   6.384
  673SOL    HW2 2772   0.052   0.906   6.396
  674SOL     OW 2773   0.130   1.821   7.157
  674SOL    HW1 2774   0.120   1.806   7.256
  674SOL    HW2 2775   0.044   1.857   7.121
  675SOL     OW 2776   0.865   0.348   5.781
  675SOL    HW1 2777   0.924   0.411   5.732
  675SOL    HW2 2778   0.884   0.254   5.752
  676SOL     OW 2779   1.719   0.585   7.417
  676SOL    HW1 2780   1.693   0.674   7.381
  676SOL    HW2 2781   1.717   0.517   7.344
  677SOL     OW 2782   1.362   1.144   6.131
  677SOL    HW1 2783   1.445   1.115   6.083
  677SOL    HW2 2784   1.313   1.211   6.075
  678SOL     OW 2785   0.550   0.196   6.471
  678SOL    HW1 2786   0.545   0.191   6.571
  678SOL    HW2 2787   0.552   0.292   6.442
  679SOL     OW 2788   1.008   1.456   6.063
  679SOL    HW1 2789   0.962   1.528   6.011
  679SOL    HW2 2790   1.004   1.476   6.161
  680SOL     OW 2791   0.351   1.801   6.439
  680SOL    HW1 2792   0.401   1.715   6.445
  680SOL    HW2 2793   0.416   1.878   6.436
  681SOL     OW 2794   1.795   1.066   6.459
  681SOL    HW1 2795   1.733   1.051   6.383
  681SOL    HW2 2796   1.743   1.077   6.544
  682SOL     OW 2797   1.227   1.550   7.092
  682SOL    HW1 2798   1.233   1.473   7.156
  682SOL    HW2 2799   1.175   1.524   7.012
  683SOL     OW 2800   0.321   0.943   5.828
  683SOL    HW1 2801   0.403   0.982   5.786
  683SOL    HW2 2802   0.294   0.861   5.779
  684SOL     OW 2803   1.458   0.735   6.314
  684SOL    HW1 2804   1.453   0.670   6.389
  684SOL    HW2 2805   1.538   0.794   6.327
  685SOL     OW 2806   0.461   1.266   7.313
  685SOL    HW1 2807   0.411   1.267   7.227
  685SOL    HW2 2808   0.398   1.248   7.389
  686SOL     OW 2809   1.111   1.776   5.823
  686SOL    HW1 2810   1.051   1.714   5.873
  686SOL    HW2 2811   1.142   1.732   5.738
  687SOL     OW 2812   0.202   0.285   7.084
  687SOL    HW1 2813   0.122   0.345   7.071
  687SOL    HW2 2814   0.192   0.236   7.170
  688SOL     OW 2815   1.632   1.377   5.667
  688SOL    HW1 2816   1.600   1.471   5.657
  688SOL    HW2 2817   1.556   1.314   5.655
  689SOL     OW 2818   0.464   1.743   5.909
  689SOL    HW1 2819   0.497   1.782   5.995
  689SOL    HW2 2820   0.540   1.736   5.844
  690SOL     OW 2821   1.400   0.107   6.012
  690SOL    HW1 2822   1.376   0.070   5.922
  690SOL    HW2 2823   1.499   0.123   6.016
  691SOL     OW 2824   0.249   1.785   6.827
  691SOL    HW1 2825   0.306   1.720   6.877
  691SOL    HW2 2826   0.233   1.752   6.734
  692SOL     OW 2827   0.940   1.698   6.490
  692SOL    HW1 2828   1.020   1.641   6.511
  692SOL    HW2 2829   0.891   1.658   6.413
  693SOL     OW 2830   0.382   0.700   6.066
  693SOL    HW1 2831   0.427   0.610   6.063
  693SOL    HW2 2832   0.288   0.689   6.099
  694SOL     OW 2833   1.547   0.222   7.315
  694SOL    HW1 2834   1.542   0.259   7.407
  694SOL    HW2 2835   1.475   0.153   7.303
  695SOL     OW 2836   0.614   0.122   5.703
  695SOL    HW1 2837   0.712   0.100   5.710
  695SOL    HW2 2838   0.583   0.105   5.610
  696SOL     OW 2839   0.781   0.264   7.335
  696SOL    HW1 2840   0.848   0.203   7.378
  696SOL    HW2 2841   0.708   0.283   7.400
  697SOL     OW 2842   0.888   1.514   6.781
  697SOL    HW1 2843   0.865   1.489   6.687
  697SOL    HW2 2844   0.949   1.445   6.820
  698SOL     OW 2845   1.351   0.590   7.019
  698SOL    HW1 2846   1.379   0.547   7.104
  698SOL    HW2 2847   1.376   0.686   7.020
  699SOL     OW 2848   0.803   1.402   6.510
  699SOL    HW1 2849   0.893   1.416   6.468
  699SOL    HW2 2850   0.732   1.404   6.439
  700SOL     OW 2851   0.922   0.503   6.485
  700SOL    HW1 2852   0.897   0.494   6.389
  700SOL    HW2 2853   0.970   0.421   6.516
  701SOL     OW 2854   0.539   0.064   6.098
  701SOL    HW1 2855   0.458   0.065   6.156
  701SOL    HW2 2856   0.542   0.147   6.043
  702SOL     OW 2857   1.434   1.188   5.627
  702SOL    HW1 2858   1.466   1.112   5.684
  702SOL    HW2 2859   1.342   1.215   5.657
  703SOL     OW 2860   0.297   0.035   5.757
  703SOL    HW1 2861   0.346   0.119   5.736
  703SOL    HW2 2862   0.359  -0.030   5.802
  704SOL     OW 2863   0.935   0.236   6.066
  704SOL    HW1 2864   0.887   0.277   5.988
  704SOL    HW2 2865   1.034   0.234   6.047
  705SOL     OW 2866   1.076   0.683   7.050
  705SOL    HW1 2867   0.996   0.622   7.053
  705SOL    HW2 2868   1.157   0.630   7.026
  706SOL     OW 2869   0.459   1.152   6.327
  706SOL    HW1 2870   0.388   1.125   6.392
  706SOL    HW2 2871   0.433   1.124   6.234
  707SOL     OW 2872   1.032   0.549   5.602
  707SOL    HW1 2873   0.991   0.631   5.563
  707SOL    HW2 2874   1.096   0.575   5.675
  708SOL     OW 2875   0.078   0.556   6.972
  708SOL    HW1 2876   0.170   0.555   6.931
  708SOL    HW2 2877   0.072   0.630   7.039
  709SOL     OW 2878   0.561   0.222   6.733
  709SOL    HW1 2879   0.599   0.138   6.770
  709SOL    HW2 2880   0.473   0.241   6.777
  710SOL     OW 2881   0.866   0.454   6.228
  710SOL    HW1 2882   0.834   0.526   6.166
  710SOL    HW2 2883   0.890   0.373   6.175
  711SOL     OW 2884   1.017   0.039   6.339
  711SOL    HW1 2885   0.945   0.044   6.270
  711SOL    HW2 2886   0.993  -0.030   6.408
  712SOL     OW 2887   1.429   1.173   6.453
  712SOL    HW1 2888   1.374   1.089   6.446
  712SOL    HW2 2889   1.455   1.202   6.361
  713SOL     OW 2890   1.466   0.590   6.578
  713SOL    HW1 2891   1.436   0.495   6.585
  713SOL    HW2 2892   1.539   0.606   6.644
  714SOL     OW 2893   1.857   0.833   5.963
  714SOL    HW1 2894   1.899   0.769   6.027
  714SOL    HW2 2895   1.819   0.782   5.885
  715SOL     OW 2896   0.488   1.385   5.760
  715SOL    HW1 2897   0.401   1.370   5.807
  715SOL    HW2 2898   0.471   1.411   5.665
  716SOL     OW 2899   1.390   0.575   5.664
  716SOL    HW1 2900   1.336   0.554   5.745
  716SOL    HW2 2901   1.481   0.534   5.673
  717SOL     OW 2902   0.527   0.256   5.914
  717SOL    HW1 2903   0.554   0.197   5.839
  717SOL    HW2 2904   0.527   0.351   5.883
  718SOL     OW 2905   1.064   1.347   6.926
  718SOL    HW1 2906   0.984   1.324   6.981
  718SOL    HW2 2907   1.147   1.321   6.975
  719SOL     OW 2908   1.111   1.195   6.686
  719SOL    HW1 2909   1.071   1.239   6.767
  719SOL    HW2 2910   1.070   1.232   6.603
  720SOL     OW 2911   1.638   1.099   6.665
  720SOL    HW1 2912   1.643   1.180   6.724
  720SOL    HW2 2913   1.552   1.101   6.614
  721SOL     OW 2914   0.915   0.089   6.988
  721SOL    HW1 2915   0.940   0.069   6.893
  721SOL    HW2 2916   0.987   0.145   7.030
  722SOL     OW 2917   0.980   1.116   7.305
  722SOL    HW1 2918   0.881   1.122   7.315
  722SOL    HW2 2919   1.003   1.036   7.249
  723SOL     OW 2920   0.705   1.050   5.954
  723SOL    HW1 2921   0.691   1.057   6.053
  723SOL    HW2 2922   0.789   0.999   5.936
  724SOL     OW 2923   0.410   0.813   6.837
  724SOL    HW1 2924   0.496   0.825   6.887
  724SOL    HW2 2925   0.368   0.726   6.864
  725SOL     OW 2926   1.274   0.386   6.848
  725SOL    HW1 2927   1.295   0.460   6.912
  725SOL    HW2 2928   1.185   0.403   6.805
  726SOL     OW 2929   0.064   1.564   6.917
  726SOL    HW1 2930   0.018   1.646   6.883
  726SOL    HW2 2931   0.162   1.583   6.926
  727SOL     OW 2932   0.367   1.100   6.087
  727SOL    HW1 2933   0.360   1.183   6.031
  727SOL    HW2 2934   0.371   1.020   6.027
  728SOL     OW 2935   0.566   0.537   6.451
  728SOL    HW1 2936   0.578   0.603   6.377
  728SOL    HW2 2937   0.612   0.571   6.534
  729SOL     OW 2938   1.272   1.445   6.728
  729SOL    HW1 2939   1.319   1.458   6.815
  729SOL    HW2 2940   1.206   1.371   6.737
  730SOL     OW 2941   1.582   0.639   6.058
  730SOL    HW1 2942   1.551   0.700   6.131
  730SOL    HW2 2943   1.632   0.691   5.989
  731SOL     OW 2944   0.354   1.510   6.915
  731SOL    HW1 2945   0.333   1.466   6.828
  731SOL    HW2 2946   0.451   1.536   6.918
  732SOL     OW 2947   0.402   0.751   7.184
  732SOL    HW1 2948   0.470   0.806   7.137
  732SOL    HW2 2949   0.442   0.663   7.211
  733SOL     OW 2950   1.587   0.779   7.256
  733SOL    HW1 2951   1.495   0.817   7.251
  733SOL    HW2 2952   1.647   0.826   7.191
  734SOL     OW 2953   1.013   0.105   7.356
  734SOL    HW1 2954   1.019   0.190   7.304
  734SOL    HW2 2955   1.045   0.029   7.299
  735SOL     OW 2956   0.504   0.050   7.326
  735SOL    HW1 2957   0.462  -0.007   7.256
  735SOL    HW2 2958   0.438   0.119   7.358
  736SOL     OW 2959   0.573   0.870   6.615
  736SOL    HW1 2960   0.617   0.959   6.606
  736SOL    HW2 2961   0.510   0.870   6.692
  737SOL     OW 2962   1.360   0.862   6.631
  737SOL    HW1 2963   1.285   0.862   6.565
  737SOL    HW2 2964   1.397   0.770   6.640
  738SOL     OW 2965   1.209   0.525   5.861
  738SOL    HW1 2966   1.222   0.441   5.915
  738SOL    HW2 2967   1.180   0.599   5.921
  739SOL     OW 2968   0.307   0.213   6.817
  739SOL    HW1 2969   0.284   0.250   6.907
  739SOL    HW2 2970   0.277   0.118   6.811
  740SOL     OW 2971   0.037   1.310   6.868
  740SOL    HW1 2972   0.090   1.261   6.936
  740SOL    HW2 2973   0.059   1.408   6.873
  741SOL     OW 2974   0.732   0.634   6.650
  741SOL    HW1 2975   0.791   0.608   6.574
  741SOL    HW2 2976   0.704   0.730   6.639
  742SOL     OW 2977   1.728   0.935   7.440
  742SOL    HW1 2978   1.682   0.928   7.351
  742SOL    HW2 2979   1.666   0.979   7.506
  743SOL     OW 2980   0.307   0.063   6.204
  743SOL    HW1 2981   0.296   0.157   6.237
  743SOL    HW2 2982   0.302   0.000   6.281
  744SOL     OW 2983   1.622   0.367   5.960
  744SOL    HW1 2984   1.624   0.291   6.024
  744SOL    HW2 2985   1.574   0.444   6.000
  745SOL     OW 2986   1.023   0.766   6.552
  745SOL    HW1 2987   1.038   0.787   6.648
  745SOL    HW2 2988   0.993   0.671   6.543
  746SOL     OW 2989   0.980   1.573   7.286
  746SOL    HW1 2990   0.960   1.617   7.198
  746SOL    HW2 2991   1.019   1.482   7.270
  747SOL     OW 2992   1.859   1.518   7.191
  747SOL    HW1 2993   1.873   1.545   7.096
  747SOL    HW2 2994   1.942   1.540   7.244
  748SOL     OW 2995   0.350   0.898   7.390
  748SOL    HW1 2996   0.426   0.942   7.438
  748SOL    HW2 2997   0.385   0.851   7.308
  749SOL     OW 2998   1.540   0.274   5.711
  749SOL    HW1 2999   1.479   0.199   5.734
  749SOL    HW2 3000   1.562   0.326   5.794
  750SOL     OW 3001   1.303   0.838   5.628
  750SOL    HW1 3002   1.337   0.745   5.643
  750SOL    HW2 3003   1.321   0.865   5.533
  751SOL     OW 3004   1.068   1.333   6.435
  751SOL    HW1 3005   1.075   1.249   6.380
  751SOL    HW2 3006   1.130   1.402   6.399
  752SOL     OW 3007   0.319   0.810   6.535
  752SOL    HW1 3008   0.412   0.846   6.540
  752SOL    HW2 3009   0.313   0.725   6.587
  753SOL     OW 3010   0.339   0.509   6.592
  753SOL    HW1 3011   0.287   0.426   6.575
  753SOL    HW2 3012   0.416   0.514   6.528
  754SOL     OW 3013   1.138   0.380   7.264
  754SOL    HW1 3014   1.093   0.443   7.328
  754SOL    HW2 3015   1.231   0.411   7.247
  755SOL     OW 3016   1.160   0.207   7.063
  755SOL    HW1 3017   1.160   0.271   7.140
  755SOL    HW2 3018   1.188   0.255   6.980
  756SOL     OW 3019   0.008   1.326   5.786
  756SOL    HW1 3020  -0.085   1.347   5.755
  756SOL    HW2 3021   0.018   1.227   5.799
  757SOL     OW 3022   0.088   1.801   6.513
  757SOL    HW1 3023   0.046   1.715   6.486
  757SOL    HW2 3024   0.182   1.804   6.479
  758SOL     OW 3025   0.504   1.568   6.496
  758SOL    HW1 3026   0.570   1.642   6.505
  758SOL    HW2 3027   0.548   1.489   6.454
  759SOL     OW 3028   1.002   0.796   6.824
  759SOL    HW1 3029   1.043   0.764   6.910
  759SOL    HW2 3030   0.906   0.769   6.821
  760SOL     OW 3031   0.040   0.544   6.700
  760SOL    HW1 3032   0.125   0.511   6.659
  760SOL    HW2 3033   0.053   0.559   6.798
  761SOL     OW 3034   0.189   0.520   7.308
  761SOL    HW1 3035   0.248   0.480   7.238
  761SOL    HW2 3036   0.131   0.591   7.267
  762SOL     OW 3037   1.369   0.950   7.246
  762SOL    HW1 3038   1.408   1.039   7.266
  762SOL    HW2 3039   1.379   0.930   7.149
  763SOL     OW 3040   0.815   0.572   5.911
  763SOL    HW1 3041   0.822   0.483   5.865
  763SOL    HW2 3042   0.721   0.606   5.903
  764SOL     OW 3043   1.657   0.604   6.792
  764SOL    HW1 3044   1.619   0.535   6.854
  764SOL    HW2 3045   1.739   0.568   6.748
  765SOL     OW 3046   0.252   1.564   7.330
  765SOL    HW1 3047   0.222   1.621   7.406
  765SOL    HW2 3048   0.245   1.467   7.356
  766SOL     OW 3049   0.671   0.464   6.855
  766SOL    HW1 3050   0.637   0.375   6.825
  766SOL    HW2 3051   0.697   0.518   6.775
  767SOL     OW 3052   0.930   1.678   7.051
  767SOL    HW1 3053   0.906   1.660   6.956
  767SOL    HW2 3054   0.960   1.772   7.061
  768SOL     OW 3055   0.473   0.500   5.777
  768SOL    HW1 3056   0.534   0.580   5.781
  768SOL    HW2 3057   0.378   0.531   5.784
  769SOL     OW 3058   0.159   1.137   7.052
  769SOL    HW1 3059   0.181   1.076   7.128
  769SOL    HW2 3060   0.169   1.088   6.966
  770SOL     OW 3061   1.347   1.059   6.820
  770SOL    HW1 3062   1.371   0.996   6.746
  770SOL    HW2 3063   1.257   1.099   6.802
  771SOL     OW 3064   1.302   0.855   5.895
  771SOL    HW1 3065   1.216   0.824   5.937
  771SOL    HW2 3066   1.298   0.841   5.796
  772SOL     OW 3067   0.083   1.258   6.608
  772SOL    HW1 3068   0.078   1.257   6.708
  772SOL    HW2 3069   0.000   1.217   6.570
  773SOL     OW 3070   0.688   1.662   7.302
  773SOL    HW1 3071   0.632   1.743   7.311
  773SOL    HW2 3072   0.740   1.666   7.216
  774SOL     OW 3073   1.726   0.135   6.109
  774SOL    HW1 3074   1.799   0.118   6.042
  774SOL    HW2 3075   1.695   0.048   6.147
  775SOL     OW 3076   0.130   1.794   7.437
  775SOL    HW1 3077   0.089   1.720   7.490
  775SOL    HW2 3078   0.194   1.845   7.495
  776SOL     OW 3079   1.280   0.927   6.258
  776SOL    HW1 3080   1.340   0.846   6.260
  776SOL    HW2 3081   1.320   0.996   6.198
  777SOL     OW 3082   0.830   1.273   7.008
  777SOL    HW1 3083   0.825   1.306   7.103
  777SOL    HW2 3084   0.744   1.292   6.962
  778SOL     OW 3085   0.672   1.616   5.740
  778SOL    HW1 3086   0.681   1.626   5.641
  778SOL    HW2 3087   0.632   1.527   5.761
  779SOL     OW 3088   1.650   1.720   6.980
  779SOL    HW1 3089   1.703   1.730   6.896
  779SOL    HW2 3090   1.623   1.810   7.014
  780SOL     OW 3091   1.841   0.175   6.549
  780SOL    HW1 3092   1.880   0.090   6.513
  780SOL    HW2 3093   1.743   0.177   6.530
  781SOL     OW 3094   0.263   0.326   6.306
  781SOL    HW1 3095   0.184   0.377   6.272
  781SOL    HW2 3096   0.254   0.311   6.404
  782SOL     OW 3097   1.194   1.612   5.617
  782SOL    HW1 3098   1.200   1.519   5.654
  782SOL    HW2 3099   1.135   1.612   5.537
  783SOL     OW 3100   0.822   1.002   6.958
  783SOL    HW1 3101   0.862   1.001   6.866
  783SOL    HW2 3102   0.832   1.094   6.998
  784SOL     OW 3103   0.916   0.910   5.877
  784SOL    HW1 3104   0.979   0.948   5.809
  784SOL    HW2 3105   0.956   0.827   5.916
  785SOL     OW 3106   1.504   1.607   5.630
  785SOL    HW1 3107   1.412   1.644   5.637
  785SOL    HW2 3108   1.542   1.627   5.540
  786SOL     OW 3109   0.372   1.288   7.076
  786SOL    HW1 3110   0.359   1.381   7.042
  786SOL    HW2 3111   0.288   1.236   7.063
  787SOL     OW 3112   1.614   1.292   6.875
  787SOL    HW1 3113   1.674   1.295   6.955
  787SOL    HW2 3114   1.539   1.356   6.888
  788SOL     OW 3115   1.039   1.098   6.282
  788SOL    HW1 3116   0.969   1.051   6.336
  788SOL    HW2 3117   1.098   1.030   6.239
  789SOL     OW 3118   1.014   0.236   6.557
  789SOL    HW1 3119   1.006   0.200   6.464
  789SOL    HW2 3120   1.012   0.160   6.622
  790SOL     OW 3121   0.590   1.487   6.077
  790SOL    HW1 3122   0.632   1.429   6.007
  790SOL    HW2 3123   0.546   1.566   6.033
  791SOL     OW 3124   1.709   0.385   6.967
  791SOL    HW1 3125   1.782   0.454   6.971
  791SOL    HW2 3126   1.737   0.310   6.908
  792SOL     OW 3127   0.255   1.348   5.876
  792SOL    HW1 3128   0.159   1.349   5.849
  792SOL    HW2 3129   0.267   1.401   5.960
  793SOL     OW 3130   0.105   1.013   7.312
  793SOL    HW1 3131   0.028   0.980   7.366
  793SOL    HW2 3132   0.190   0.983   7.354
  794SOL     OW 3133   0.672   0.203   7.075
  794SOL    HW1 3134   0.762   0.187   7.035
  794SOL    HW2 3135   0.680   0.208   7.174
  795SOL     OW 3136   0.075   0.345   5.619
  795SOL    HW1 3137  -0.017   0.317   5.590
  795SOL    HW2 3138   0.106   0.422   5.563
  796SOL     OW 3139   1.440   0.856   6.984
  796SOL    HW1 3140   1.383   0.908   6.921
  796SOL    HW2 3141   1.536   0.868   6.960
  797SOL     OW 3142   0.072   0.166   5.904
  797SOL    HW1 3143   0.055   0.249   5.850
  797SOL    HW2 3144   0.162   0.129   5.882
  798SOL     OW 3145   1.183   1.335   5.705
  798SOL    HW1 3146   1.084   1.324   5.707
  798SOL    HW2 3147   1.217   1.350   5.798
  799SOL     OW 3148   0.613   0.842   7.017
  799SOL    HW1 3149   0.669   0.923   7.000
  799SOL    HW2 3150   0.672   0.762   7.020
  800SOL     OW 3151   0.716   0.565   7.294
  800SOL    HW1 3152   0.735   0.630   7.368
  800SOL    HW2 3153   0.776   0.485   7.303
  801SOL     OW 3154   1.450   1.220   7.219
  801SOL    HW1 3155   1.441   1.210   7.318
  801SOL    HW2 3156   1.546   1.213   7.193
  802SOL     OW 3157   0.390   1.741   7.146
  802SOL    HW1 3158   0.299   1.782   7.144
  802SOL    HW2 3159   0.383   1.647   7.178
  803SOL     OW 3160   1.674   0.883   6.840
  803SOL    HW1 3161   1.647   0.794   6.803
  803SOL    HW2 3162   1.675   0.951   6.767
  804SOL     OW 3163   1.225   0.325   6.035
  804SOL    HW1 3164   1.290   0.251   6.024
  804SOL    HW2 3165   1.245   0.375   6.119
  805SOL     OW 3166   0.594   0.745   6.238
  805SOL    HW1 3167   0.644   0.830   6.219
  805SOL    HW2 3168   0.506   0.747   6.190
  806SOL     OW 3169   1.777   0.342   7.228
  806SOL    HW1 3170   1.760   0.373   7.134
  806SOL    HW2 3171   1.693   0.305   7.266
  807SOL     OW 3172   1.730   0.934   7.103
  807SOL    HW1 3173   1.768   1.025   7.118
  807SOL    HW2 3174   1.722   0.917   7.004
  808SOL     OW 3175   0.859   1.374   5.602
  808SOL    HW1 3176   0.813   1.389   5.690
  808SOL    HW2 3177   0.903   1.459   5.572
  809SOL     OW 3178   0.661   1.790   6.539
  809SOL    HW1 3179   0.615   1.878   6.526
  809SOL    HW2 3180   0.760   1.802   6.532
  810SOL     OW 3181   0.859   0.956   6.447
  810SOL    HW1 3182   0.913   0.887   6.495
  810SOL    HW2 3183   0.827   1.025   6.513
  811SOL     OW 3184   1.083   0.984   5.673
  811SOL    HW1 3185   1.060   1.037   5.591
  811SOL    HW2 3186   1.164   0.928   5.654
  812SOL     OW 3187   0.221   1.314   7.430
  812SOL    HW1 3188   0.156   1.241   7.409
  812SOL    HW2 3189   0.225   1.328   7.528
  813SOL     OW 3190   0.079   1.240   6.239
  813SOL    HW1 3191   0.078   1.193   6.327
  813SOL    HW2 3192   0.161   1.212   6.188
  814SOL     OW 3193   0.672   1.391   7.210
  814SOL    HW1 3194   0.594   1.341   7.248
  814SOL    HW2 3195   0.669   1.486   7.241
  815SOL     OW 3196   1.824   0.192   6.813
  815SOL    HW1 3197   1.820   0.102   6.857
  815SOL    HW2 3198   1.827   0.181   6.714
  816SOL     OW 3199   0.428   0.424   6.106
  816SOL    HW1 3200   0.458   0.352   6.044
  816SOL    HW2 3201   0.389   0.384   6.189
  817SOL     OW 3202   0.317   0.547   6.866
  817SOL    HW1 3203   0.355   0.488   6.938
  817SOL    HW2 3204   0.357   0.521   6.778
  818SOL     OW 3205   0.812   1.586   6.273
  818SOL    HW1 3206   0.844   1.596   6.179
  818SOL    HW2 3207   0.733   1.524   6.275
  819SOL     OW 3208   1.424   0.214   6.698
  819SOL    HW1 3209   1.476   0.149   6.753
  819SOL    HW2 3210   1.375   0.277   6.759
  820SOL     OW 3211   1.001   0.034   6.740
  820SOL    HW1 3212   0.938  -0.038   6.709
  820SOL    HW2 3213   1.094  -0.002   6.740
  821SOL     OW 3214   0.770   1.330   5.887
  821SOL    HW1 3215   0.724   1.243   5.904
  821SOL    HW2 3216   0.861   1.327   5.928
  822SOL     OW 3217   0.618   1.567   6.870
  822SOL    HW1 3218   0.613   1.649   6.927
  822SOL    HW2 3219   0.707   1.564   6.825
  823SOL     OW 3220   1.352   0.052   5.754
  823SOL    HW1 3221   1.387   0.011   5.670
  823SOL    HW2 3222   1.262   0.014   5.774
  824SOL     OW 3223   1.300   0.453   6.277
  824SOL    HW1 3224   1.241   0.533   6.281
  824SOL    HW2 3225   1.315   0.418   6.370
  825SOL     OW 3226   1.593   0.221   6.468
  825SOL    HW1 3227   1.509   0.220   6.522
  825SOL    HW2 3228   1.595   0.304   6.412
  826SOL     OW 3229   0.039   1.077   5.886
  826SOL    HW1 3230   0.138   1.066   5.877
  826SOL    HW2 3231  -0.001   0.991   5.918
  827SOL     OW 3232   0.875   1.646   5.923
  827SOL    HW1 3233   0.798   1.611   5.869
  827SOL    HW2 3234   0.843   1.717   5.985
  828SOL     OW 3235   0.230   0.628   7.561
  828SOL    HW1 3236   0.137   0.626   7.598
  828SOL    HW2 3237   0.231   0.589   7.469
  829SOL     OW 3238   0.225   0.275   8.444
  829SOL    HW1 3239   0.260   0.258   8.536
  829SOL    HW2 3240   0.137   0.230   8.432
  830SOL     OW 3241   0.019   0.368   8.095
  830SOL    HW1 3242  -0.063   0.411   8.134
  830SOL    HW2 3243  -0.009   0.295   8.032
  831SOL     OW 3244   0.569   1.275   8.613
  831SOL    HW1 3245   0.476   1.268   8.576
  831SOL    HW2 3246   0.580   1.364   8.657
  832SOL     OW 3247   1.555   1.511   8.151
  832SOL    HW1 3248   1.498   1.495   8.232
  832SOL    HW2 3249   1.496   1.521   8.071
  833SOL     OW 3250   1.135   0.703   8.165
  833SOL    HW1 3251   1.192   0.781   8.140
  833SOL    HW2 3252   1.075   0.729   8.241
  834SOL     OW 3253   1.755   0.607   7.679
  834SOL    HW1 3254   1.743   0.594   7.580
  834SOL    HW2 3255   1.725   0.526   7.728
  835SOL     OW 3256   0.768   1.144   8.471
  835SOL    HW1 3257   0.690   1.161   8.531
  835SOL    HW2 3258   0.802   1.231   8.435
  836SOL     OW 3259   0.850   0.798   9.271
  836SOL    HW1 3260   0.846   0.874   9.336
  836SOL    HW2 3261   0.872   0.834   9.180
  837SOL     OW 3262   0.685   1.012   8.113
  837SOL    HW1 3263   0.754   0.996   8.183
  837SOL    HW2 3264   0.612   1.069   8.151
  838SOL     OW 3265   0.686   1.161   9.251
  838SOL    HW1 3266   0.746   1.240   9.265
  838SOL    HW2 3267   0.600   1.192   9.210
  839SOL     OW 3268   0.335   1.435   8.509
  839SOL    HW1 3269   0.257   1.404   8.456
  839SOL    HW2 3270   0.393   1.493   8.452
  840SOL     OW 3271   1.460   1.505   8.787
  840SOL    HW1 3272   1.484   1.599   8.813
  840SOL    HW2 3273   1.444   1.451   8.869
  841SOL     OW 3274   0.438   0.392   8.947
  841SOL    HW1 3275   0.520   0.336   8.956
  841SOL    HW2 3276   0.357   0.334   8.951
  842SOL     OW 3277   1.603   0.447   8.185
  842SOL    HW1 3278   1.529   0.493   8.135
  842SOL    HW2 3279   1.654   0.515   8.238
  843SOL     OW 3280   0.231   1.713   7.931
  843SOL    HW1 3281   0.265   1.790   7.985
  843SOL    HW2 3282   0.275   1.713   7.841
  844SOL     OW 3283   1.127   1.341   9.138
  844SOL    HW1 3284   1.174   1.341   9.226
  844SOL    HW2 3285   1.079   1.254   9.127
  845SOL     OW 3286   0.230   1.434   7.986
  845SOL    HW1 3287   0.204   1.530   7.986
  845SOL    HW2 3288   0.159   1.380   8.031
  846SOL     OW 3289   0.240   1.091   8.334
  846SOL    HW1 3290   0.254   1.007   8.386
  846SOL    HW2 3291   0.185   1.155   8.389
  847SOL     OW 3292   0.620   1.786   8.887
  847SOL    HW1 3293   0.528   1.769   8.922
  847SOL    HW2 3294   0.648   1.878   8.913
  848SOL     OW 3295   0.606   0.964   7.571
  848SOL    HW1 3296   0.613   1.048   7.517
  848SOL    HW2 3297   0.652   0.977   7.659
  849SOL     OW 3298   1.594   0.114   8.928
  849SOL    HW1 3299   1.576   0.181   8.856
  849SOL    HW2 3300   1.591   0.160   9.017
  850SOL     OW 3301   0.122   0.643   8.011
  850SOL    HW1 3302   0.077   0.555   8.028
  850SOL    HW2 3303   0.121   0.697   8.095
  851SOL     OW 3304   0.027   1.596   7.565
  851SOL    HW1 3305   0.008   1.500   7.586
  851SOL    HW2 3306  -0.006   1.654   7.640
  852SOL     OW 3307   1.689   0.922   8.060
  852SOL    HW1 3308   1.784   0.893   8.068
  852SOL    HW2 3309   1.681   0.987   7.985
  853SOL     OW 3310   1.641   1.108   7.880
  853SOL    HW1 3311   1.727   1.110   7.828
  853SOL    HW2 3312   1.655   1.155   7.968
  854SOL     OW 3313   0.113   0.737   9.045
  854SOL    HW1 3314   0.201   0.724   9.090
  854SOL    HW2 3315   0.100   0.834   9.023
  855SOL     OW 3316   0.613   1.365   8.174
  855SOL    HW1 3317   0.564   1.278   8.183
  855SOL    HW2 3318   0.590   1.408   8.087
  856SOL     OW 3319   1.293   1.228   8.871
  856SOL    HW1 3320   1.330   1.155   8.813
  856SOL    HW2 3321   1.345   1.233   8.956
  857SOL     OW 3322   0.809   0.004   7.950
  857SOL    HW1 3323   0.849   0.095   7.941
  857SOL    HW2 3324   0.709   0.012   7.956
  858SOL     OW 3325   0.197   0.976   8.712
  858SOL    HW1 3326   0.286   0.931   8.698
  858SOL    HW2 3327   0.124   0.911   8.693
  859SOL     OW 3328   1.525   0.999   7.638
  859SOL    HW1 3329   1.462   0.923   7.651
  859SOL    HW2 3330   1.573   1.017   7.724
  860SOL     OW 3331   1.187   1.792   9.064
  860SOL    HW1 3332   1.211   1.852   8.988
  860SOL    HW2 3333   1.194   1.697   9.034
  861SOL     OW 3334   0.317   0.251   9.249
  861SOL    HW1 3335   0.388   0.322   9.255
  861SOL    HW2 3336   0.229   0.290   9.277
  862SOL     OW 3337   1.466   1.417   8.401
  862SOL    HW1 3338   1.407   1.423   8.481
  862SOL    HW2 3339   1.451   1.329   8.355
  863SOL     OW 3340   1.667   1.714   8.020
  863SOL    HW1 3341   1.626   1.691   7.932
  863SOL    HW2 3342   1.649   1.640   8.085
  864SOL     OW 3343   0.598   0.729   7.718
  864SOL    HW1 3344   0.622   0.798   7.650
  864SOL    HW2 3345   0.520   0.762   7.772
  865SOL     OW 3346   1.281   0.345   8.392
  865SOL    HW1 3347   1.195   0.295   8.379
  865SOL    HW2 3348   1.343   0.291   8.448
  866SOL     OW 3349   0.807   0.605   8.913
  866SOL    HW1 3350   0.760   0.602   9.002
  866SOL    HW2 3351   0.756   0.550   8.847
  867SOL     OW 3352   1.394   0.469   9.122
  867SOL    HW1 3353   1.374   0.512   9.210
  867SOL    HW2 3354   1.472   0.407   9.131
  868SOL     OW 3355   0.973   0.890   9.020
  868SOL    HW1 3356   1.019   0.806   8.991
  868SOL    HW2 3357   0.917   0.924   8.945
  869SOL     OW 3358   0.991   0.410   8.690
  869SOL    HW1 3359   0.914   0.444   8.744
  869SOL    HW2 3360   0.957   0.359   8.611
  870SOL     OW 3361   1.041   0.701   7.877
  870SOL    HW1 3362   1.067   0.697   7.973
  870SOL    HW2 3363   0.956   0.650   7.863
  871SOL     OW 3364   0.076   0.811   8.237
  871SOL    HW1 3365   0.175   0.799   8.246
  871SOL    HW2 3366   0.052   0.906   8.258
  872SOL     OW 3367   0.130   1.821   9.019
  872SOL    HW1 3368   0.120   1.806   9.118
  872SOL    HW2 3369   0.044   1.857   8.983
  873SOL     OW 3370   0.865   0.348   7.643
  873SOL    HW1 3371   0.924   0.411   7.594
  873SOL    HW2 3372   0.884   0.254   7.614
  874SOL     OW 3373   1.719   0.585   9.279
  874SOL    HW1 3374   1.693   0.674   9.243
  874SOL    HW2 3375   1.717   0.517   9.206
  875SOL     OW 3376   1.362   1.144   7.993
  875SOL    HW1 3377   1.445   1.115   7.945
  875SOL    HW2 3378   1.313   1.211   7.937
  876SOL     OW 3379   0.550   0.196   8.333
  876SOL    HW1 3380   0.545   0.191   8.433
  876SOL    HW2 3381   0.552   0.292   8.304
  877SOL     OW 3382   1.008   1.456   7.925
  877SOL    HW1 3383   0.962   1.528   7.873
  877SOL    HW2 3384   1.004   1.476   8.023
  878SOL     OW 3385   0.351   1.801   8.301
  878SOL    HW1 3386   0.401   1.715   8.307
  878SOL    HW2 3387   0.416   1.878   8.298
  879SOL     OW 3388   1.795   1.066   8.321
  879SOL    HW1 3389   1.733   1.051   8.245
  879SOL    HW2 3390   1.743   1.077   8.406
  880SOL     OW 3391   1.227   1.550   8.954
  880SOL    HW1 3392   1.233   1.473   9.018
  880SOL    HW2 3393   1.175   1.524   8.874
  881SOL     OW 3394   0.321   0.943   7.690
  881SOL    HW1 3395   0.403   0.982   7.648
  881SOL    HW2 3396   0.294   0.861   7.641
  882SOL     OW 3397   1.458   0.735   8.176
  882SOL    HW1 3398   1.453   0.670   8.251
  882SOL    HW2 3399   1.538   0.794   8.189
  883SOL     OW 3400   0.461   1.266   9.175
  883SOL    HW1 3401   0.411   1.267   9.089
  883SOL    HW2 3402   0.398   1.248   9.251
  884SOL     OW 3403   1.111   1.776   7.685
  884SOL    HW1 3404   1.051   1.714   7.735
  884SOL    HW2 3405   1.142   1.732   7.600
  885SOL     OW 3406   0.202   0.285   8.946
  885SOL    HW1 3407   0.122   0.345   8.933
  885SOL    HW2 3408   0.192   0.236   9.032
  886SOL     OW 3409   0.464   1.743   7.771
  886SOL    HW1 3410   0.497   1.782   7.857
  886SOL    HW2 3411   0.540   1.736   7.706
  887SOL     OW 3412   1.400   0.107   7.874
  887SOL    HW1 3413   1.376   0.070   7.784
  887SOL    HW2 3414   1.499   0.123   7.878
  888SOL     OW 3415   0.249   1.785   8.689
  888SOL    HW1 3416   0.306   1.720   8.739
  888SOL    HW2 3417   0.233   1.752   8.596
  889SOL     OW 3418   0.940   1.698   8.352
  889SOL    HW1 3419   1.020   1.641   8.373
  889SOL    HW2 3420   0.891   1.658   8.275
  890SOL     OW 3421   0.382   0.700   7.928
  890SOL    HW1 3422   0.427   0.610   7.925
  890SOL    HW2 3423   0.288   0.689   7.961
  891SOL     OW 3424   1.547   0.222   9.177
  891SOL    HW1 3425   1.542   0.259   9.269
  891SOL    HW2 3426   1.475   0.153   9.165
  892SOL     OW 3427   0.614   0.122   7.565
  892SOL    HW1 3428   0.712   0.100   7.572
  892SOL    HW2 3429   0.583   0.105   7.472
  893SOL     OW 3430   0.781   0.264   9.197
  893SOL    HW1 3431   0.848   0.203   9.240
  893SOL    HW2 3432   0.708   0.283   9.262
  894SOL     OW 3433   0.888   1.514   8.643
  894SOL    HW1 3434   0.865   1.489   8.549
  894SOL    HW2 3435   0.949   1.445   8.682
  895SOL     OW 3436   1.351   0.590   8.881
  895SOL    HW1 3437   1.379   0.547   8.966
  895SOL    HW2 3438   1.376   0.686   8.882
  896SOL     OW 3439   0.803   1.402   8.372
  896SOL    HW1 3440   0.893   1.416   8.330
  896SOL    HW2 3441   0.732   1.404   8.301
  897SOL     OW 3442   0.922   0.503   8.347
  897SOL    HW1 3443   0.897   0.494   8.251
  897SOL    HW2 3444   0.970   0.421   8.378
  898SOL     OW 3445   0.539   0.064   7.960
  898SOL    HW1 3446   0.458   0.065   8.018
  898SOL    HW2 3447   0.542   0.147   7.905
  899SOL     OW 3448   1.434   1.188   7.489
  899SOL    HW1 3449   1.466   1.112   7.546
  899SOL    HW2 3450   1.342   1.215   7.519
  900SOL     OW 3451   0.297   0.035   7.619
  900SOL    HW1 3452   0.346   0.119   7.598
  900SOL    HW2 3453   0.359  -0.030   7.664
  901SOL     OW 3454   0.935   0.236   7.928
  901SOL    HW1 3455   0.887   0.277   7.850
  901SOL    HW2 3456   1.034   0.234   7.909
  902SOL     OW 3457   1.076   0.683   8.912
  902SOL    HW1 3458   0.996   0.622   8.915
  902SOL    HW2 3459   1.157   0.630   8.888
  903SOL     OW 3460   1.227   1.570   8.241
  903SOL    HW1 3461   1.248   1.644   8.176
  903SOL    HW2 3462   1.295   1.570   8.314
  904SOL     OW 3463   0.459   1.152   8.189
  904SOL    HW1 3464   0.388   1.125   8.254
  904SOL    HW2 3465   0.433   1.124   8.096
  905SOL     OW 3466   1.032   0.549   7.464
  905SOL    HW1 3467   0.991   0.631   7.425
  905SOL    HW2 3468   1.096   0.575   7.537
  906SOL     OW 3469   0.078   0.556   8.834
  906SOL    HW1 3470   0.170   0.555   8.793
  906SOL    HW2 3471   0.072   0.630   8.901
  907SOL     OW 3472   0.561   0.222   8.595
  907SOL    HW1 3473   0.599   0.138   8.632
  907SOL    HW2 3474   0.473   0.241   8.639
  908SOL     OW 3475   0.866   0.454   8.090
  908SOL    HW1 3476   0.834   0.526   8.028
  908SOL    HW2 3477   0.890   0.373   8.037
  909SOL     OW 3478   1.017   0.039   8.201
  909SOL    HW1 3479   0.945   0.044   8.132
  909SOL    HW2 3480   0.993  -0.030   8.270
  910SOL     OW 3481   1.429   1.173   8.315
  910SOL    HW1 3482   1.374   1.089   8.308
  910SOL    HW2 3483   1.455   1.202   8.223
  911SOL     OW 3484   1.466   0.590   8.440
  911SOL    HW1 3485   1.436   0.495   8.447
  911SOL    HW2 3486   1.539   0.606   8.506
  912SOL     OW 3487   1.857   0.833   7.825
  912SOL    HW1 3488   1.899   0.769   7.889
  912SOL    HW2 3489   1.819   0.782   7.747
  913SOL     OW 3490   0.488   1.385   7.622
  913SOL    HW1 3491   0.401   1.370   7.669
  913SOL    HW2 3492   0.471   1.411   7.527
  914SOL     OW 3493   1.664   1.280   8.105
  914SOL    HW1 3494   1.763   1.288   8.119
  914SOL    HW2 3495   1.619   1.364   8.136
  915SOL     OW 3496   1.390   0.575   7.526
  915SOL    HW1 3497   1.336   0.554   7.607
  915SOL    HW2 3498   1.481   0.534   7.535
  916SOL     OW 3499   0.527   0.256   7.776
  916SOL    HW1 3500   0.554   0.197   7.701
  916SOL    HW2 3501   0.527   0.351   7.745
  917SOL     OW 3502   1.754   1.223   9.036
  917SOL    HW1 3503   1.845   1.184   9.023
  917SOL    HW2 3504   1.762   1.319   9.060
  918SOL     OW 3505   1.064   1.347   8.788
  918SOL    HW1 3506   0.984   1.324   8.843
  918SOL    HW2 3507   1.147   1.321   8.837
  919SOL     OW 3508   1.592   1.629   9.073
  919SOL    HW1 3509   1.619   1.663   8.983
  919SOL    HW2 3510   1.671   1.591   9.119
  920SOL     OW 3511   1.111   1.195   8.548
  920SOL    HW1 3512   1.071   1.239   8.629
  920SOL    HW2 3513   1.070   1.232   8.465
  921SOL     OW 3514   1.638   1.099   8.527
  921SOL    HW1 3515   1.643   1.180   8.586
  921SOL    HW2 3516   1.552   1.101   8.476
  922SOL     OW 3517   0.915   0.089   8.850
  922SOL    HW1 3518   0.940   0.069   8.755
  922SOL    HW2 3519   0.987   0.145   8.892
  923SOL     OW 3520   0.980   1.116   9.167
  923SOL    HW1 3521   0.881   1.122   9.177
  923SOL    HW2 3522   1.003   1.036   9.111
  924SOL     OW 3523   0.705   1.050   7.816
  924SOL    HW1 3524   0.691   1.057   7.915
  924SOL    HW2 3525   0.789   0.999   7.798
  925SOL     OW 3526   0.410   0.813   8.699
  925SOL    HW1 3527   0.496   0.825   8.749
  925SOL    HW2 3528   0.368   0.726   8.726
  926SOL     OW 3529   1.274   0.386   8.710
  926SOL    HW1 3530   1.295   0.460   8.774
  926SOL    HW2 3531   1.185   0.403   8.667
  927SOL     OW 3532   0.064   1.564   8.779
  927SOL    HW1 3533   0.018   1.646   8.745
  927SOL    HW2 3534   0.162   1.583   8.788
  928SOL     OW 3535   0.367   1.100   7.949
  928SOL    HW1 3536   0.360   1.183   7.893
  928SOL    HW2 3537   0.371   1.020   7.889
  929SOL     OW 3538   0.566   0.537   8.313
  929SOL    HW1 3539   0.578   0.603   8.239
  929SOL    HW2 3540   0.612   0.571   8.396
  930SOL     OW 3541   1.252   1.348   7.836
  930SOL    HW1 3542   1.302   1.425   7.876
  930SOL    HW2 3543   1.157   1.350   7.868
  931SOL     OW 3544   1.272   1.445   8.590
  931SOL    HW1 3545   1.319   1.458   8.677
  931SOL    HW2 3546   1.206   1.371   8.599
  932SOL     OW 3547   1.582   0.639   7.920
  932SOL    HW1 3548   1.551   0.700   7.993
  932SOL    HW2 3549   1.632   0.691   7.851
  933SOL     OW 3550   0.354   1.510   8.777
  933SOL    HW1 3551   0.333   1.466   8.690
  933SOL    HW2 3552   0.451   1.536   8.780
  934SOL     OW 3553   0.402   0.751   9.046
  934SOL    HW1 3554   0.470   0.806   8.999
  934SOL    HW2 3555   0.442   0.663   9.073
  935SOL     OW 3556   1.587   0.779   9.118
  935SOL    HW1 3557   1.495   0.817   9.113
  935SOL    HW2 3558   1.647   0.826   9.053
  936SOL     OW 3559   1.013   0.105   9.218
  936SOL    HW1 3560   1.019   0.190   9.166
  936SOL    HW2 3561   1.045   0.029   9.161
  937SOL     OW 3562   0.504   0.050   9.188
  937SOL    HW1 3563   0.462  -0.007   9.118
  937SOL    HW2 3564   0.438   0.119   9.220
  938SOL     OW 3565   0.573   0.870   8.477
  938SOL    HW1 3566   0.617   0.959   8.468
  938SOL    HW2 3567   0.510   0.870   8.554
  939SOL     OW 3568   1.360   0.862   8.493
  939SOL    HW1 3569   1.285   0.862   8.427
  939SOL    HW2 3570   1.397   0.770   8.502
  940SOL     OW 3571   1.209   0.525   7.723
  940SOL    HW1 3572   1.222   0.441   7.777
  940SOL    HW2 3573   1.180   0.599   7.783
  941SOL     OW 3574   0.307   0.213   8.679
  941SOL    HW1 3575   0.284   0.250   8.769
  941SOL    HW2 3576   0.277   0.118   8.673
  942SOL     OW 3577   0.037   1.310   8.730
  942SOL    HW1 3578   0.090   1.261   8.798
  942SOL    HW2 3579   0.059   1.408   8.735
  943SOL     OW 3580   0.732   0.634   8.512
  943SOL    HW1 3581   0.791   0.608   8.436
  943SOL    HW2 3582   0.704   0.730   8.501
  944SOL     OW 3583   1.728   0.935   9.302
  944SOL    HW1 3584   1.682   0.928   9.213
  944SOL    HW2 3585   1.666   0.979   9.368
  945SOL     OW 3586   0.307   0.063   8.066
  945SOL    HW1 3587   0.296   0.157   8.099
  945SOL    HW2 3588   0.302   0.000   8.143
  946SOL     OW 3589   1.622   0.367   7.822
  946SOL    HW1 3590   1.624   0.291   7.886
  946SOL    HW2 3591   1.574   0.444   7.862
  947SOL     OW 3592   1.023   0.766   8.414
  947SOL    HW1 3593   1.038   0.787   8.510
  947SOL    HW2 3594   0.993   0.671   8.405
  948SOL     OW 3595   0.980   1.573   9.148
  948SOL    HW1 3596   0.960   1.617   9.060
  948SOL    HW2 3597   1.019   1.482   9.132
  949SOL     OW 3598   1.859   1.518   9.053
  949SOL    HW1 3599   1.873   1.545   8.958
  949SOL    HW2 3600   1.942   1.540   9.106
  950SOL     OW 3601   0.350   0.898   9.252
  950SOL    HW1 3602   0.426   0.942   9.300
  950SOL    HW2 3603   0.385   0.851   9.170
  951SOL     OW 3604   1.540   0.274   7.573
  951SOL    HW1 3605   1.479   0.199   7.596
  951SOL    HW2 3606   1.562   0.326   7.656
  952SOL     OW 3607   1.303   0.838   7.490
  952SOL    HW1 3608   1.337   0.745   7.505
  952SOL    HW2 3609   1.321   0.865   7.395
  953SOL     OW 3610   1.068   1.333   8.297
  953SOL    HW1 3611   1.075   1.249   8.242
  953SOL    HW2 3612   1.130   1.402   8.261
  954SOL     OW 3613   0.319   0.810   8.397
  954SOL    HW1 3614   0.412   0.846   8.402
  954SOL    HW2 3615   0.313   0.725   8.449
  955SOL     OW 3616   0.339   0.509   8.454
  955SOL    HW1 3617   0.287   0.426   8.437
  955SOL    HW2 3618   0.416   0.514   8.390
  956SOL     OW 3619   1.138   0.380   9.126
  956SOL    HW1 3620   1.093   0.443   9.190
  956SOL    HW2 3621   1.231   0.411   9.109
  957SOL     OW 3622   1.160   0.207   8.925
  957SOL    HW1 3623   1.160   0.271   9.002
  957SOL    HW2 3624   1.188   0.255   8.842
  958SOL     OW 3625   0.008   1.326   7.648
  958SOL    HW1 3626  -0.085   1.347   7.617
  958SOL    HW2 3627   0.018   1.227   7.661
  959SOL     OW 3628   0.088   1.801   8.375
  959SOL    HW1 3629   0.046   1.715   8.348
  959SOL    HW2 3630   0.182   1.804   8.341
  960SOL     OW 3631   0.504   1.568   8.358
  960SOL    HW1 3632   0.570   1.642   8.367
  960SOL    HW2 3633   0.548   1.489   8.316
  961SOL     OW 3634   1.002   0.796   8.686
  961SOL    HW1 3635   1.043   0.764   8.772
  961SOL    HW2 3636   0.906   0.769   8.683
  962SOL     OW 3637   0.040   0.544   8.562
  962SOL    HW1 3638   0.125   0.511   8.521
  962SOL    HW2 3639   0.053   0.559   8.660
  963SOL     OW 3640   0.189   0.520   9.170
  963SOL    HW1 3641   0.248   0.480   9.100
  963SOL    HW2 3642   0.131   0.591   9.129
  964SOL     OW 3643   1.369   0.950   9.108
  964SOL    HW1 3644   1.408   1.039   9.128
  964SOL    HW2 3645   1.379   0.930   9.011
  965SOL     OW 3646   0.815   0.572   7.773
  965SOL    HW1 3647   0.822   0.483   7.727
  965SOL    HW2 3648   0.721   0.606   7.765
  966SOL     OW 3649   1.657   0.604   8.654
  966SOL    HW1 3650   1.619   0.535   8.716
  966SOL    HW2 3651   1.739   0.568   8.610
  967SOL     OW 3652   0.252   1.564   9.192
  967SOL    HW1 3653   0.222   1.621   9.268
  967SOL    HW2 3654   0.245   1.467   9.218
  968SOL     OW 3655   0.671   0.464   8.717
  968SOL    HW1 3656   0.637   0.375   8.687
  968SOL    HW2 3657   0.697   0.518   8.637
  969SOL     OW 3658   0.930   1.678   8.913
  969SOL    HW1 3659   0.906   1.660   8.818
  969SOL    HW2 3660   0.960   1.772   8.923
  970SOL     OW 3661   0.473   0.500   7.639
  970SOL    HW1 3662   0.534   0.580   7.643
  970SOL    HW2 3663   0.378   0.531   7.646
  971SOL     OW 3664   0.159   1.137   8.914
  971SOL    HW1 3665   0.181   1.076   8.990
  971SOL    HW2 3666   0.169   1.088   8.828
  972SOL     OW 3667   1.347   1.059   8.682
  972SOL    HW1 3668   1.371   0.996   8.608
  972SOL    HW2 3669   1.257   1.099   8.664
  973SOL     OW 3670   1.302   0.855   7.757
  973SOL    HW1 3671   1.216   0.824   7.799
  973SOL    HW2 3672   1.298   0.841   7.658
  974SOL     OW 3673   1.252   1.731   8.576
  974SOL    HW1 3674   1.336   1.736   8.522
  974SOL    HW2 3675   1.229   1.635   8.594
  975SOL     OW 3676   0.083   1.258   8.470
  975SOL    HW1 3677   0.078   1.257   8.570
  975SOL    HW2 3678   0.000   1.217   8.432
  976SOL     OW 3679   0.688   1.662   9.164
  976SOL    HW1 3680   0.632   1.743   9.173
  976SOL    HW2 3681   0.740   1.666   9.078
  977SOL     OW 3682   1.726   0.135   7.971
  977SOL    HW1 3683   1.799   0.118   7.904
  977SOL    HW2 3684   1.695   0.048   8.009
  978SOL     OW 3685   1.388   1.573   7.925
  978SOL    HW1 3686   1.455   1.585   7.851
  978SOL    HW2 3687   1.348   1.662   7.948
  979SOL     OW 3688   0.130   1.794   9.299
  979SOL    HW1 3689   0.089   1.720   9.352
  979SOL    HW2 3690   0.194   1.845   9.357
  980SOL     OW 3691   1.280   0.927   8.120
  980SOL    HW1 3692   1.340   0.846   8.122
  980SOL    HW2 3693   1.320   0.996   8.060
  981SOL     OW 3694   0.830   1.273   8.870
  981SOL    HW1 3695   0.825   1.306   8.965
  981SOL    HW2 3696   0.744   1.292   8.824
  982SOL     OW 3697   0.672   1.616   7.602
  982SOL    HW1 3698   0.681   1.626   7.503
  982SOL    HW2 3699   0.632   1.527   7.623
  983SOL     OW 3700   1.650   1.720   8.842
  983SOL    HW1 3701   1.703   1.730   8.758
  983SOL    HW2 3702   1.623   1.810   8.876
  984SOL     OW 3703   1.841   0.175   8.411
  984SOL    HW1 3704   1.880   0.090   8.375
  984SOL    HW2 3705   1.743   0.177   8.392
  985SOL     OW 3706   0.263   0.326   8.168
  985SOL    HW1 3707   0.184   0.377   8.134
  985SOL    HW2 3708   0.254   0.311   8.266
  986SOL     OW 3709   0.822   1.002   8.820
  986SOL    HW1 3710   0.862   1.001   8.728
  986SOL    HW2 3711   0.832   1.094   8.860
  987SOL     OW 3712   0.916   0.910   7.739
  987SOL    HW1 3713   0.979   0.948   7.671
  987SOL    HW2 3714   0.956   0.827   7.778
  988SOL     OW 3715   0.372   1.288   8.938
  988SOL    HW1 3716   0.359   1.381   8.904
  988SOL    HW2 3717   0.288   1.236   8.925
  989SOL     OW 3718   1.614   1.292   8.737
  989SOL    HW1 3719   1.674   1.295   8.817
  989SOL    HW2 3720   1.539   1.356   8.750
  990SOL     OW 3721   1.039   1.098   8.144
  990SOL    HW1 3722   0.969   1.051   8.198
  990SOL    HW2 3723   1.098   1.030   8.101
  991SOL     OW 3724   1.014   0.236   8.419
  991SOL    HW1 3725   1.006   0.200   8.326
  991SOL    HW2 3726   1.012   0.160   8.484
  992SOL     OW 3727   0.590   1.487   7.939
  992SOL    HW1 3728   0.632   1.429   7.869
  992SOL    HW2 3729   0.546   1.566   7.895
  993SOL     OW 3730   1.709   0.385   8.829
  993SOL    HW1 3731   1.782   0.454   8.833
  993SOL    HW2 3732   1.737   0.310   8.770
  994SOL     OW 3733   0.255   1.348   7.738
  994SOL    HW1 3734   0.159   1.349   7.711
  994SOL    HW2 3735   0.267   1.401   7.822
  995SOL     OW 3736   0.105   1.013   9.174
  995SOL    HW1 3737   0.028   0.980   9.228
  995SOL    HW2 3738   0.190   0.983   9.216
  996SOL     OW 3739   0.672   0.203   8.937
  996SOL    HW1 3740   0.762   0.187   8.897
  996SOL    HW2 3741   0.680   0.208   9.036
  997SOL     OW 3742   0.075   0.345   7.481
  997SOL    HW1 3743  -0.017   0.317   7.452
  997SOL    HW2 3744   0.106   0.422   7.425
  998SOL     OW 3745   1.440   0.856   8.846
  998SOL    HW1 3746   1.383   0.908   8.783
  998SOL    HW2 3747   1.536   0.868   8.822
  999SOL     OW 3748   0.072   0.166   7.766
  999SOL    HW1 3749   0.055   0.249   7.712
  999SOL    HW2 3750   0.162   0.129   7.744
 1000SOL     OW 3751   1.183   1.335   7.567
 1000SOL    HW1 3752   1.084   1.324   7.569
 1000SOL    HW2 3753   1.217   1.350   7.660
 1001SOL     OW 3754   0.613   0.842   8.879
 1001SOL    HW1 3755   0.669   0.923   8.862
 1001SOL    HW2 3756   0.672   0.762   8.882
 1002SOL     OW 3757   1.493   1.767   8.407
 1002SOL    HW1 3758   1.526   1.831   8.338
 1002SOL    HW2 3759   1.559   1.761   8.482
 1003SOL     OW 3760   0.716   0.565   9.156
 1003SOL    HW1 3761   0.735   0.630   9.230
 1003SOL    HW2 3762   0.776   0.485   9.165
 1004SOL     OW 3763   1.450   1.220   9.081
 1004SOL    HW1 3764   1.441   1.210   9.180
 1004SOL    HW2 3765   1.546   1.213   9.055
 1005SOL     OW 3766   0.390   1.741   9.008
 1005SOL    HW1 3767   0.299   1.782   9.006
 1005SOL    HW2 3768   0.383   1.647   9.040
 1006SOL     OW 3769   1.674   0.883   8.702
 1006SOL    HW1 3770   1.647   0.794   8.665
 1006SOL    HW2 3771   1.675   0.951   8.629
 1007SOL     OW 3772   1.225   0.325   7.897
 1007SOL    HW1 3773   1.290   0.251   7.886
 1007SOL    HW2 3774   1.245   0.375   7.981
 1008SOL     OW 3775   0.594   0.745   8.100
 1008SOL    HW1 3776   0.644   0.830   8.081
 1008SOL    HW2 3777   0.506   0.747   8.052
 1009SOL     OW 3778   1.777   0.342   9.090
 1009SOL    HW1 3779   1.760   0.373   8.996
 1009SOL    HW2 3780   1.693   0.305   9.128
 1010SOL     OW 3781   1.730   0.934   8.965
 1010SOL    HW1 3782   1.768   1.025   8.980
 1010SOL    HW2 3783   1.722   0.917   8.866
 1011SOL     OW 3784   0.859   1.374   7.464
 1011SOL    HW1 3785   0.813   1.389   7.552
 1011SOL    HW2 3786   0.903   1.459   7.434
 1012SOL     OW 3787   0.661   1.790   8.401
 1012SOL    HW1 3788   0.615   1.878   8.388
 1012SOL    HW2 3789   0.760   1.802   8.394
 1013SOL     OW 3790   0.859   0.956   8.309
 1013SOL    HW1 3791   0.913   0.887   8.357
 1013SOL    HW2 3792   0.827   1.025   8.375
 1014SOL     OW 3793   1.083   0.984   7.535
 1014SOL    HW1 3794   1.060   1.037   7.453
 1014SOL    HW2 3795   1.164   0.928   7.516
 1015SOL     OW 3796   1.861   1.569   8.299
 1015SOL    HW1 3797   1.790   1.557   8.229
 1015SOL    HW2 3798   1.862   1.490   8.359
 1016SOL     OW 3799   0.221   1.314   9.292
 1016SOL    HW1 3800   0.156   1.241   9.271
 1016SOL    HW2 3801   0.225   1.328   9.390
 1017SOL     OW 3802   0.079   1.240   8.101
 1017SOL    HW1 3803   0.078   1.193   8.189
 1017SOL    HW2 3804   0.161   1.212   8.050
 1018SOL     OW 3805   0.672   1.391   9.072
 1018SOL    HW1 3806   0.594   1.341   9.110
 1018SOL    HW2 3807   0.669   1.486   9.103
 1019SOL     OW 3808   1.824   0.192   8.675
 1019SOL    HW1 3809   1.820   0.102   8.719
 1019SOL    HW2 3810   1.827   0.181   8.576
 1020SOL     OW 3811   0.428   0.424   7.968
 1020SOL    HW1 3812   0.458   0.352   7.906
 1020SOL    HW2 3813   0.389   0.384   8.051
 1021SOL     OW 3814   1.705   1.487   8.552
 1021SOL    HW1 3815   1.612   1.462   8.525
 1021SOL    HW2 3816   1.731   1.437   8.634
 1022SOL     OW 3817   0.317   0.547   8.728
 1022SOL    HW1 3818   0.355   0.488   8.800
 1022SOL    HW2 3819   0.357   0.521   8.640
 1023SOL     OW 3820   0.812   1.586   8.135
 1023SOL    HW1 3821   0.844   1.596   8.041
 1023SOL    HW2 3822   0.733   1.524   8.137
 1024SOL     OW 3823   1.424   0.214   8.560
 1024SOL    HW1 3824   1.476   0.149   8.615
 1024SOL    HW2 3825   1.375   0.277   8.621
 1025SOL     OW 3826   1.001   0.034   8.602
 1025SOL    HW1 3827   0.938  -0.038   8.571
 1025SOL    HW2 3828   1.094  -0.002   8.602
 1026SOL     OW 3829   0.770   1.330   7.749
 1026SOL    HW1 3830   0.724   1.243   7.766
 1026SOL    HW2 3831   0.861   1.327   7.790
 1027SOL     OW 3832   0.618   1.567   8.732
 1027SOL    HW1 3833   0.613   1.649   8.789
 1027SOL    HW2 3834   0.707   1.564   8.687
 1028SOL     OW 3835   1.352   0.052   7.616
 1028SOL    HW1 3836   1.387   0.011   7.532
 1028SOL    HW2 3837   1.262   0.014   7.636
 1029SOL     OW 3838   1.300   0.453   8.139
 1029SOL    HW1 3839   1.241   0.533   8.143
 1029SOL    HW2 3840   1.315   0.418   8.232
 1030SOL     OW 3841   1.593   0.221   8.330
 1030SOL    HW1 3842   1.509   0.220   8.384
 1030SOL    HW2 3843   1.595   0.304   8.274
 1031SOL     OW 3844   0.039   1.077   7.748
 1031SOL    HW1 3845   0.138   1.066   7.739
 1031SOL    HW2 3846  -0.001   0.991   7.780
 1032SOL     OW 3847   0.875   1.646   7.785
 1032SOL    HW1 3848   0.798   1.611   7.731
 1032SOL    HW2 3849   0.843   1.717   7.847
 1033SOL     OW 3850   0.230   0.628   9.423
 1033SOL    HW1 3851   0.137   0.626   9.460
 1033SOL    HW2 3852   0.231   0.589   9.331
 1034SOL     OW 3853   0.225   0.275  10.306
 1034SOL    HW1 3854   0.260   0.258  10.398
 1034SOL    HW2 3855   0.137   0.230  10.294
 1035SOL     OW 3856   0.019   0.368   9.957
 1035SOL    HW1 3857  -0.063   0.411   9.996
 1035SOL    HW2 3858  -0.009   0.295   9.894
 1036SOL     OW 3859   0.569   1.275  10.475
 1036SOL    HW1 3860   0.476   1.268  10.438
 1036SOL    HW2 3861   0.580   1.364  10.519
 1037SOL     OW 3862   1.555   1.511  10.013
 1037SOL    HW1 3863   1.498   1.495  10.094
 1037SOL    HW2 3864   1.496   1.521   9.933
 1038SOL     OW 3865   1.135   0.703  10.027
 1038SOL    HW1 3866   1.192   0.781  10.002
 1038SOL    HW2 3867   1.075   0.729  10.103
 1039SOL     OW 3868   1.755   0.607   9.541
 1039SOL    HW1 3869   1.743   0.594   9.442
 1039SOL    HW2 3870   1.725   0.526   9.590
 1040SOL     OW 3871   0.768   1.144  10.333
 1040SOL    HW1 3872   0.690   1.161  10.393
 1040SOL    HW2 3873   0.802   1.231  10.297
 1041SOL     OW 3874   0.850   0.798  11.133
 1041SOL    HW1 3875   0.846   0.874  11.198
 1041SOL    HW2 3876   0.872   0.834  11.042
 1042SOL     OW 3877   0.685   1.012   9.975
 1042SOL    HW1 3878   0.754   0.996  10.045
 1042SOL    HW2 3879   0.612   1.069  10.013
 1043SOL     OW 3880   0.686   1.161  11.113
 1043SOL    HW1 3881   0.746   1.240  11.127
 1043SOL    HW2 3882   0.600   1.192  11.072
 1044SOL     OW 3883   0.335   1.435  10.371
 1044SOL    HW1 3884   0.257   1.404  10.318
 1044SOL    HW2 3885   0.393   1.493  10.314
 1045SOL     OW 3886   1.460   1.505  10.649
 1045SOL    HW1 3887   1.484   1.599  10.675
 1045SOL    HW2 3888   1.444   1.451  10.731
 1046SOL     OW 3889   0.438   0.392  10.809
 1046SOL    HW1 3890   0.520   0.336  10.818
 1046SOL    HW2 3891   0.357   0.334  10.813
 1047SOL     OW 3892   1.603   0.447  10.047
 1047SOL    HW1 3893   1.529   0.493   9.997
 1047SOL    HW2 3894   1.654   0.515  10.100
 1048SOL     OW 3895   0.231   1.713   9.793
 1048SOL    HW1 3896   0.265   1.790   9.847
 1048SOL    HW2 3897   0.275   1.713   9.703
 1049SOL     OW 3898   1.127   1.341  11.000
 1049SOL    HW1 3899   1.174   1.341  11.088
 1049SOL    HW2 3900   1.079   1.254  10.989
 1050SOL     OW 3901   0.230   1.434   9.848
 1050SOL    HW1 3902   0.204   1.530   9.848
 1050SOL    HW2 3903   0.159   1.380   9.893
 1051SOL     OW 3904   0.240   1.091  10.196
 1051SOL    HW1 3905   0.254   1.007  10.248
 1051SOL    HW2 3906   0.185   1.155  10.251
 1052SOL     OW 3907   0.620   1.786  10.749
 1052SOL    HW1 3908   0.528   1.769  10.784
 1052SOL    HW2 3909   0.648   1.878  10.775
 1053SOL     OW 3910   0.606   0.964   9.433
 1053SOL    HW1 3911   0.613   1.048   9.379
 1053SOL    HW2 3912   0.652   0.977   9.521
 1054SOL     OW 3913   1.594   0.114  10.790
 1054SOL    HW1 3914   1.576   0.181  10.718
 1054SOL    HW2 3915   1.591   0.160  10.879
 1055SOL     OW 3916   0.122   0.643   9.873
 1055SOL    HW1 3917   0.077   0.555   9.890
 1055SOL    HW2 3918   0.121   0.697   9.957
 1056SOL     OW 3919   0.027   1.596   9.427
 1056SOL    HW1 3920   0.008   1.500   9.448
 1056SOL    HW2 3921  -0.006   1.654   9.502
 1057SOL     OW 3922   1.689   0.922   9.922
 1057SOL    HW1 3923   1.784   0.893   9.930
 1057SOL    HW2 3924   1.681   0.987   9.847
 1058SOL     OW 3925   1.641   1.108   9.742
 1058SOL    HW1 3926   1.727   1.110   9.690
 1058SOL    HW2 3927   1.655   1.155   9.830
 1059SOL     OW 3928   0.113   0.737  10.907
 1059SOL    HW1 3929   0.201   0.724  10.952
 1059SOL    HW2 3930   0.100   0.834  10.885
 1060SOL     OW 3931   0.613   1.365  10.036
 1060SOL    HW1 3932   0.564   1.278  10.045
 1060SOL    HW2 3933   0.590   1.408   9.949
 1061SOL     OW 3934   1.293   1.228  10.733
 1061SOL    HW1 3935   1.330   1.155  10.675
 1061SOL    HW2 3936   1.345   1.233  10.818
 1062SOL     OW 3937   0.809   0.004   9.812
 1062SOL    HW1 3938   0.849   0.095   9.803
 1062SOL    HW2 3939   0.709   0.012   9.818
 1063SOL     OW 3940   0.197   0.976  10.574
 1063SOL    HW1 3941   0.286   0.931  10.560
 1063SOL    HW2 3942   0.124   0.911  10.555
 1064SOL     OW 3943   1.525   0.999   9.500
 1064SOL    HW1 3944   1.462   0.923   9.513
 1064SOL    HW2 3945   1.573   1.017   9.586
 1065SOL     OW 3946   1.187   1.792  10.926
 1065SOL    HW1 3947   1.211   1.852  10.850
 1065SOL    HW2 3948   1.194   1.697  10.896
 1066SOL     OW 3949   0.317   0.251  11.111
 1066SOL    HW1 3950   0.388   0.322  11.117
 1066SOL    HW2 3951   0.229   0.290  11.139
 1067SOL     OW 3952   1.466   1.417  10.263
 1067SOL    HW1 3953   1.407   1.423  10.343
 1067SOL    HW2 3954   1.451   1.329  10.217
 1068SOL     OW 3955   1.667   1.714   9.882
 1068SOL    HW1 3956   1.626   1.691   9.794
 1068SOL    HW2 3957   1.649   1.640   9.947
 1069SOL     OW 3958   0.598   0.729   9.580
 1069SOL    HW1 3959   0.622   0.798   9.512
 1069SOL    HW2 3960   0.520   0.762   9.634
 1070SOL     OW 3961   1.281   0.345  10.254
 1070SOL    HW1 3962   1.195   0.295  10.241
 1070SOL    HW2 3963   1.343   0.291  10.310
 1071SOL     OW 3964   1.576   1.662   9.617
 1071SOL    HW1 3965   1.665   1.708   9.620
 1071SOL    HW2 3966   1.555   1.638   9.522
 1072SOL     OW 3967   0.807   0.605  10.775
 1072SOL    HW1 3968   0.760   0.602  10.864
 1072SOL    HW2 3969   0.756   0.550  10.709
 1073SOL     OW 3970   1.394   0.469  10.984
 1073SOL    HW1 3971   1.374   0.512  11.072
 1073SOL    HW2 3972   1.472   0.407  10.993
 1074SOL     OW 3973   0.973   0.890  10.882
 1074SOL    HW1 3974   1.019   0.806  10.853
 1074SOL    HW2 3975   0.917   0.924  10.807
 1075SOL     OW 3976   0.991   0.410  10.552
 1075SOL    HW1 3977   0.914   0.444  10.606
 1075SOL    HW2 3978   0.957   0.359  10.473
 1076SOL     OW 3979   1.041   0.701   9.739
 1076SOL    HW1 3980   1.067   0.697   9.835
 1076SOL    HW2 3981   0.956   0.650   9.725
 1077SOL     OW 3982   0.076   0.811  10.099
 1077SOL    HW1 3983   0.175   0.799  10.108
 1077SOL    HW2 3984   0.052   0.906  10.120
 1078SOL     OW 3985   0.130   1.821  10.881
 1078SOL    HW1 3986   0.120   1.806  10.980
 1078SOL    HW2 3987   0.044   1.857  10.845
 1079SOL     OW 3988   0.865   0.348   9.505
 1079SOL    HW1 3989   0.924   0.411   9.456
 1079SOL    HW2 3990   0.884   0.254   9.476
 1080SOL     OW 3991   1.719   0.585  11.141
 1080SOL    HW1 3992   1.693   0.674  11.105
 1080SOL    HW2 3993   1.717   0.517  11.068
 1081SOL     OW 3994   1.362   1.144   9.855
 1081SOL    HW1 3995   1.445   1.115   9.807
 1081SOL    HW2 3996   1.313   1.211   9.799
 1082SOL     OW 3997   0.550   0.196  10.195
 1082SOL    HW1 3998   0.545   0.191  10.295
 1082SOL    HW2 3999   0.552   0.292  10.166
 1083SOL     OW 4000   1.008   1.456   9.787
 1083SOL    HW1 4001   0.962   1.528   9.735
 1083SOL    HW2 4002   1.004   1.476   9.885
 1084SOL     OW 4003   0.351   1.801  10.163
 1084SOL    HW1 4004   0.401   1.715  10.169
 1084SOL    HW2 4005   0.416   1.878  10.160
 1085SOL     OW 4006   1.795   1.066  10.183
 1085SOL    HW1 4007   1.733   1.051  10.107
 1085SOL    HW2 4008   1.743   1.077  10.268
 1086SOL     OW 4009   1.227   1.550  10.816
 1086SOL    HW1 4010   1.233   1.473  10.880
 1086SOL    HW2 4011   1.175   1.524  10.736
 1087SOL     OW 4012   0.321   0.943   9.552
 1087SOL    HW1 4013   0.403   0.982   9.510
 1087SOL    HW2 4014   0.294   0.861   9.503
 1088SOL     OW 4015   1.458   0.735  10.038
 1088SOL    HW1 4016   1.453   0.670  10.113
 1088SOL    HW2 4017   1.538   0.794  10.051
 1089SOL     OW 4018   0.461   1.266  11.037
 1089SOL    HW1 4019   0.411   1.267  10.951
 1089SOL    HW2 4020   0.398   1.248  11.113
 1090SOL     OW 4021   1.111   1.776   9.547
 1090SOL    HW1 4022   1.051   1.714   9.597
 1090SOL    HW2 4023   1.142   1.732   9.462
 1091SOL     OW 4024   0.202   0.285  10.808
 1091SOL    HW1 4025   0.122   0.345  10.795
 1091SOL    HW2 4026   0.192   0.236  10.894
 1092SOL     OW 4027   1.632   1.377   9.391
 1092SOL    HW1 4028   1.600   1.471   9.381
 1092SOL    HW2 4029   1.556   1.314   9.379
 1093SOL     OW 4030   0.464   1.743   9.633
 1093SOL    HW1 4031   0.497   1.782   9.719
 1093SOL    HW2 4032   0.540   1.736   9.568
 1094SOL     OW 4033   1.400   0.107   9.736
 1094SOL    HW1 4034   1.376   0.070   9.646
 1094SOL    HW2 4035   1.499   0.123   9.740
 1095SOL     OW 4036   0.249   1.785  10.551
 1095SOL    HW1 4037   0.306   1.720  10.601
 1095SOL    HW2 4038   0.233   1.752  10.458
 1096SOL     OW 4039   0.940   1.698  10.214
 1096SOL    HW1 4040   1.020   1.641  10.235
 1096SOL    HW2 4041   0.891   1.658  10.137
 1097SOL     OW 4042   0.382   0.700   9.790
 1097SOL    HW1 4043   0.427   0.610   9.787
 1097SOL    HW2 4044   0.288   0.689   9.823
 1098SOL     OW 4045   1.547   0.222  11.039
 1098SOL    HW1 4046   1.542   0.259  11.131
 1098SOL    HW2 4047   1.475   0.153  11.027
 1099SOL     OW 4048   0.614   0.122   9.427
 1099SOL    HW1 4049   0.712   0.100   9.434
 1099SOL    HW2 4050   0.583   0.105   9.334
 1100SOL     OW 4051   0.781   0.264  11.059
 1100SOL    HW1 4052   0.848   0.203  11.102
 1100SOL    HW2 4053   0.708   0.283  11.124
 1101SOL     OW 4054   0.888   1.514  10.505
 1101SOL    HW1 4055   0.865   1.489  10.411
 1101SOL    HW2 4056   0.949   1.445  10.544
 1102SOL     OW 4057   1.351   0.590  10.743
 1102SOL    HW1 4058   1.379   0.547  10.828
 1102SOL    HW2 4059   1.376   0.686  10.744
 1103SOL     OW 4060   0.803   1.402  10.234
 1103SOL    HW1 4061   0.893   1.416  10.192
 1103SOL    HW2 4062   0.732   1.404  10.163
 1104SOL     OW 4063   0.922   0.503  10.209
 1104SOL    HW1 4064   0.897   0.494  10.113
 1104SOL    HW2 4065   0.970   0.421  10.240
 1105SOL     OW 4066   0.539   0.064   9.822
 1105SOL    HW1 4067   0.458   0.065   9.880
 1105SOL    HW2 4068   0.542   0.147   9.767
 1106SOL     OW 4069   1.434   1.188   9.351
 1106SOL    HW1 4070   1.466   1.112   9.408
 1106SOL    HW2 4071   1.342   1.215   9.381
 1107SOL     OW 4072   0.297   0.035   9.481
 1107SOL    HW1 4073   0.346   0.119   9.460
 1107SOL    HW2 4074   0.359  -0.030   9.526
 1108SOL     OW 4075   0.935   0.236   9.790
 1108SOL    HW1 4076   0.887   0.277   9.712
 1108SOL    HW2 4077   1.034   0.234   9.771
 1109SOL     OW 4078   1.076   0.683  10.774
 1109SOL    HW1 4079   0.996   0.622  10.777
 1109SOL    HW2 4080   1.157   0.630  10.750
 1110SOL     OW 4081   1.227   1.570  10.103
 1110SOL    HW1 4082   1.248   1.644  10.038
 1110SOL    HW2 4083   1.295   1.570  10.176
 1111SOL     OW 4084   0.459   1.152  10.051
 1111SOL    HW1 4085   0.388   1.125  10.116
 1111SOL    HW2 4086   0.433   1.124   9.958
 1112SOL     OW 4087   1.271   1.797   9.901
 1112SOL    HW1 4088   1.315   1.861   9.837
 1112SOL    HW2 4089   1.221   1.849   9.971
 1113SOL     OW 4090   1.032   0.549   9.326
 1113SOL    HW1 4091   0.991   0.631   9.287
 1113SOL    HW2 4092   1.096   0.575   9.399
 1114SOL     OW 4093   0.078   0.556  10.696
 1114SOL    HW1 4094   0.170   0.555  10.655
 1114SOL    HW2 4095   0.072   0.630  10.763
 1115SOL     OW 4096   0.561   0.222  10.457
 1115SOL    HW1 4097   0.599   0.138  10.494
 1115SOL    HW2 4098   0.473   0.241  10.501
 1116SOL     OW 4099   0.866   0.454   9.952
 1116SOL    HW1 4100   0.834   0.526   9.890
 1116SOL    HW2 4101   0.890   0.373   9.899
 1117SOL     OW 4102   1.017   0.039  10.063
 1117SOL    HW1 4103   0.945   0.044   9.994
 1117SOL    HW2 4104   0.993  -0.030  10.132
 1118SOL     OW 4105   1.429   1.173  10.177
 1118SOL    HW1 4106   1.374   1.089  10.170
 1118SOL    HW2 4107   1.455   1.202  10.085
 1119SOL     OW 4108   1.466   0.590  10.302
 1119SOL    HW1 4109   1.436   0.495  10.309
 1119SOL    HW2 4110   1.539   0.606  10.368
 1120SOL     OW 4111   1.857   0.833   9.687
 1120SOL    HW1 4112   1.899   0.769   9.751
 1120SOL    HW2 4113   1.819   0.782   9.609
 1121SOL     OW 4114   0.488   1.385   9.484
 1121SOL    HW1 4115   0.401   1.370   9.531
 1121SOL    HW2 4116   0.471   1.411   9.389
 1122SOL     OW 4117   1.664   1.280   9.967
 1122SOL    HW1 4118   1.763   1.288   9.981
 1122SOL    HW2 4119   1.619   1.364   9.998
 1123SOL     OW 4120   1.390   0.575   9.388
 1123SOL    HW1 4121   1.336   0.554   9.469
 1123SOL    HW2 4122   1.481   0.534   9.397
 1124SOL     OW 4123   0.527   0.256   9.638
 1124SOL    HW1 4124   0.554   0.197   9.563
 1124SOL    HW2 4125   0.527   0.351   9.607
 1125SOL     OW 4126   1.754   1.223  10.898
 1125SOL    HW1 4127   1.845   1.184  10.885
 1125SOL    HW2 4128   1.762   1.319  10.922
 1126SOL     OW 4129   1.064   1.347  10.650
 1126SOL    HW1 4130   0.984   1.324  10.705
 1126SOL    HW2 4131   1.147   1.321  10.699
 1127SOL     OW 4132   1.592   1.629  10.935
 1127SOL    HW1 4133   1.619   1.663  10.845
 1127SOL    HW2 4134   1.671   1.591  10.981
 1128SOL     OW 4135   1.111   1.195  10.410
 1128SOL    HW1 4136   1.071   1.239  10.491
 1128SOL    HW2 4137   1.070   1.232  10.327
 1129SOL     OW 4138   1.638   1.099  10.389
 1129SOL    HW1 4139   1.643   1.180  10.448
 1129SOL    HW2 4140   1.552   1.101  10.338
 1130SOL     OW 4141   0.915   0.089  10.712
 1130SOL    HW1 4142   0.940   0.069  10.617
 1130SOL    HW2 4143   0.987   0.145  10.754
 1131SOL     OW 4144   0.980   1.116  11.029
 1131SOL    HW1 4145   0.881   1.122  11.039
 1131SOL    HW2 4146   1.003   1.036  10.973
 1132SOL     OW 4147   0.705   1.050   9.678
 1132SOL    HW1 4148   0.691   1.057   9.777
 1132SOL    HW2 4149   0.789   0.999   9.660
 1133SOL     OW 4150   0.410   0.813  10.561
 1133SOL    HW1 4151   0.496   0.825  10.611
 1133SOL    HW2 4152   0.368   0.726  10.588
 1134SOL     OW 4153   1.274   0.386  10.572
 1134SOL    HW1 4154   1.295   0.460  10.636
 1134SOL    HW2 4155   1.185   0.403  10.529
 1135SOL     OW 4156   0.064   1.564  10.641
 1135SOL    HW1 4157   0.018   1.646  10.607
 1135SOL    HW2 4158   0.162   1.583  10.650
 1136SOL     OW 4159   0.367   1.100   9.811
 1136SOL    HW1 4160   0.360   1.183   9.755
 1136SOL    HW2 4161   0.371   1.020   9.751
 1137SOL     OW 4162   0.566   0.537  10.175
 1137SOL    HW1 4163   0.578   0.603  10.101
 1137SOL    HW2 4164   0.612   0.571  10.258
 1138SOL     OW 4165   1.252   1.348   9.698
 1138SOL    HW1 4166   1.302   1.425   9.738
 1138SOL    HW2 4167   1.157   1.350   9.730
 1139SOL     OW 4168   1.272   1.445  10.452
 1139SOL    HW1 4169   1.319   1.458  10.539
 1139SOL    HW2 4170   1.206   1.371  10.461
 1140SOL     OW 4171   1.582   0.639   9.782
 1140SOL    HW1 4172   1.551   0.700   9.855
 1140SOL    HW2 4173   1.632   0.691   9.713
 1141SOL     OW 4174   0.354   1.510  10.639
 1141SOL    HW1 4175   0.333   1.466  10.552
 1141SOL    HW2 4176   0.451   1.536  10.642
 1142SOL     OW 4177   0.402   0.751  10.908
 1142SOL    HW1 4178   0.470   0.806  10.861
 1142SOL    HW2 4179   0.442   0.663  10.935
 1143SOL     OW 4180   1.587   0.779  10.980
 1143SOL    HW1 4181   1.495   0.817  10.975
 1143SOL    HW2 4182   1.647   0.826  10.915
 1144SOL     OW 4183   1.013   0.105  11.080
 1144SOL    HW1 4184   1.019   0.190  11.028
 1144SOL    HW2 4185   1.045   0.029  11.023
 1145SOL     OW 4186   0.504   0.050  11.050
 1145SOL    HW1 4187   0.462  -0.007  10.980
 1145SOL    HW2 4188   0.438   0.119  11.082
 1146SOL     OW 4189   0.573   0.870  10.339
 1146SOL    HW1 4190   0.617   0.959  10.330
 1146SOL    HW2 4191   0.510   0.870  10.416
 1147SOL     OW 4192   1.360   0.862  10.355
 1147SOL    HW1 4193   1.285   0.862  10.289
 1147SOL    HW2 4194   1.397   0.770  10.364
 1148SOL     OW 4195   1.209   0.525   9.585
 1148SOL    HW1 4196   1.222   0.441   9.639
 1148SOL    HW2 4197   1.180   0.599   9.645
 1149SOL     OW 4198   0.307   0.213  10.541
 1149SOL    HW1 4199   0.284   0.250  10.631
 1149SOL    HW2 4200   0.277   0.118  10.535
 1150SOL     OW 4201   0.037   1.310  10.592
 1150SOL    HW1 4202   0.090   1.261  10.660
 1150SOL    HW2 4203   0.059   1.408  10.597
 1151SOL     OW 4204   0.732   0.634  10.374
 1151SOL    HW1 4205   0.791   0.608  10.298
 1151SOL    HW2 4206   0.704   0.730  10.363
 1152SOL     OW 4207   1.728   0.935  11.164
 1152SOL    HW1 4208   1.682   0.928  11.075
 1152SOL    HW2 4209   1.666   0.979  11.230
 1153SOL     OW 4210   0.307   0.063   9.928
 1153SOL    HW1 4211   0.296   0.157   9.961
 1153SOL    HW2 4212   0.302   0.000  10.005
 1154SOL     OW 4213   1.622   0.367   9.684
 1154SOL    HW1 4214   1.624   0.291   9.748
 1154SOL    HW2 4215   1.574   0.444   9.724
 1155SOL     OW 4216   1.023   0.766  10.276
 1155SOL    HW1 4217   1.038   0.787  10.372
 1155SOL    HW2 4218   0.993   0.671  10.267
 1156SOL     OW 4219   0.980   1.573  11.010
 1156SOL    HW1 4220   0.960   1.617  10.922
 1156SOL    HW2 4221   1.019   1.482  10.994
 1157SOL     OW 4222   1.859   1.518  10.915
 1157SOL    HW1 4223   1.873   1.545  10.820
 1157SOL    HW2 4224   1.942   1.540  10.968
 1158SOL     OW 4225   0.350   0.898  11.114
 1158SOL    HW1 4226   0.426   0.942  11.162
 1158SOL    HW2 4227   0.385   0.851  11.032
 1159SOL     OW 4228   1.540   0.274   9.435
 1159SOL    HW1 4229   1.479   0.199   9.458
 1159SOL    HW2 4230   1.562   0.326   9.518
 1160SOL     OW 4231   1.303   0.838   9.352
 1160SOL    HW1 4232   1.337   0.745   9.367
 1160SOL    HW2 4233   1.321   0.865   9.257
 1161SOL     OW 4234   1.068   1.333  10.159
 1161SOL    HW1 4235   1.075   1.249  10.104
 1161SOL    HW2 4236   1.130   1.402  10.123
 1162SOL     OW 4237   0.319   0.810  10.259
 1162SOL    HW1 4238   0.412   0.846  10.264
 1162SOL    HW2 4239   0.313   0.725  10.311
 1163SOL     OW 4240   0.339   0.509  10.316
 1163SOL    HW1 4241   0.287   0.426  10.299
 1163SOL    HW2 4242   0.416   0.514  10.252
 1164SOL     OW 4243   1.138   0.380  10.988
 1164SOL    HW1 4244   1.093   0.443  11.052
 1164SOL    HW2 4245   1.231   0.411  10.971
 1165SOL     OW 4246   1.160   0.207  10.787
 1165SOL    HW1 4247   1.160   0.271  10.864
 1165SOL    HW2 4248   1.188   0.255  10.704
 1166SOL     OW 4249   0.008   1.326   9.510
 1166SOL    HW1 4250  -0.085   1.347   9.479
 1166SOL    HW2 4251   0.018   1.227   9.523
 1167SOL     OW 4252   0.088   1.801  10.237
 1167SOL    HW1 4253   0.046   1.715  10.210
 1167SOL    HW2 4254   0.182   1.804  10.203
 1168SOL     OW 4255   0.504   1.568  10.220
 1168SOL    HW1 4256   0.570   1.642  10.229
 1168SOL    HW2 4257   0.548   1.489  10.178
 1169SOL     OW 4258   1.002   0.796  10.548
 1169SOL    HW1 4259   1.043   0.764  10.634
 1169SOL    HW2 4260   0.906   0.769  10.545
 1170SOL     OW 4261   0.040   0.544  10.424
 1170SOL    HW1 4262   0.125   0.511  10.383
 1170SOL    HW2 4263   0.053   0.559  10.522
 1171SOL     OW 4264   0.189   0.520  11.032
 1171SOL    HW1 4265   0.248   0.480  10.962
 1171SOL    HW2 4266   0.131   0.591  10.991
 1172SOL     OW 4267   1.369   0.950  10.970
 1172SOL    HW1 4268   1.408   1.039  10.990
 1172SOL    HW2 4269   1.379   0.930  10.873
 1173SOL     OW 4270   0.815   0.572   9.635
 1173SOL    HW1 4271   0.822   0.483   9.589
 1173SOL    HW2 4272   0.721   0.606   9.627
 1174SOL     OW 4273   1.657   0.604  10.516
 1174SOL    HW1 4274   1.619   0.535  10.578
 1174SOL    HW2 4275   1.739   0.568  10.472
 1175SOL     OW 4276   0.252   1.564  11.054
 1175SOL    HW1 4277   0.222   1.621  11.130
 1175SOL    HW2 4278   0.245   1.467  11.080
 1176SOL     OW 4279   0.671   0.464  10.579
 1176SOL    HW1 4280   0.637   0.375  10.549
 1176SOL    HW2 4281   0.697   0.518  10.499
 1177SOL     OW 4282   0.930   1.678  10.775
 1177SOL    HW1 4283   0.906   1.660  10.680
 1177SOL    HW2 4284   0.960   1.772  10.785
 1178SOL     OW 4285   0.473   0.500   9.501
 1178SOL    HW1 4286   0.534   0.580   9.505
 1178SOL    HW2 4287   0.378   0.531   9.508
 1179SOL     OW 4288   0.159   1.137  10.776
 1179SOL    HW1 4289   0.181   1.076  10.852
 1179SOL    HW2 4290   0.169   1.088  10.690
 1180SOL     OW 4291   1.347   1.059  10.544
 1180SOL    HW1 4292   1.371   0.996  10.470
 1180SOL    HW2 4293   1.257   1.099  10.526
 1181SOL     OW 4294   1.302   0.855   9.619
 1181SOL    HW1 4295   1.216   0.824   9.661
 1181SOL    HW2 4296   1.298   0.841   9.520
 1182SOL     OW 4297   1.252   1.731  10.438
 1182SOL    HW1 4298   1.336   1.736  10.384
 1182SOL    HW2 4299   1.229   1.635  10.456
 1183SOL     OW 4300   0.083   1.258  10.332
 1183SOL    HW1 4301   0.078   1.257  10.432
 1183SOL    HW2 4302   0.000   1.217  10.294
 1184SOL     OW 4303   0.688   1.662  11.026
 1184SOL    HW1 4304   0.632   1.743  11.035
 1184SOL    HW2 4305   0.740   1.666  10.940
 1185SOL     OW 4306   1.726   0.135   9.833
 1185SOL    HW1 4307   1.799   0.118   9.766
 1185SOL    HW2 4308   1.695   0.048   9.871
 1186SOL     OW 4309   1.388   1.573   9.787
 1186SOL    HW1 4310   1.455   1.585   9.713
 1186SOL    HW2 4311   1.348   1.662   9.810
 1187SOL     OW 4312   0.130   1.794  11.161
 1187SOL    HW1 4313   0.089   1.720  11.214
 1187SOL    HW2 4314   0.194   1.845  11.219
 1188SOL     OW 4315   1.280   0.927   9.982
 1188SOL    HW1 4316   1.340   0.846   9.984
 1188SOL    HW2 4317   1.320   0.996   9.922
 1189SOL     OW 4318   0.830   1.273  10.732
 1189SOL    HW1 4319   0.825   1.306  10.827
 1189SOL    HW2 4320   0.744   1.292  10.686
 1190SOL     OW 4321   0.672   1.616   9.464
 1190SOL    HW1 4322   0.681   1.626   9.365
 1190SOL    HW2 4323   0.632   1.527   9.485
 1191SOL     OW 4324   1.650   1.720  10.704
 1191SOL    HW1 4325   1.703   1.730  10.620
 1191SOL    HW2 4326   1.623   1.810  10.738
 1192SOL     OW 4327   1.841   0.175  10.273
 1192SOL    HW1 4328   1.880   0.090  10.237
 1192SOL    HW2 4329   1.743   0.177  10.254
 1193SOL     OW 4330   0.263   0.326  10.030
 1193SOL    HW1 4331   0.184   0.377   9.996
 1193SOL    HW2 4332   0.254   0.311  10.128
 1194SOL     OW 4333   1.194   1.612   9.341
 1194SOL    HW1 4334   1.200   1.519   9.378
 1194SOL    HW2 4335   1.135   1.612   9.261
 1195SOL     OW 4336   0.822   1.002  10.682
 1195SOL    HW1 4337   0.862   1.001  10.590
 1195SOL    HW2 4338   0.832   1.094  10.722
 1196SOL     OW 4339   0.916   0.910   9.601
 1196SOL    HW1 4340   0.979   0.948   9.533
 1196SOL    HW2 4341   0.956   0.827   9.640
 1197SOL     OW 4342   1.504   1.607   9.354
 1197SOL    HW1 4343   1.412   1.644   9.361
 1197SOL    HW2 4344   1.542   1.627   9.264
 1198SOL     OW 4345   0.372   1.288  10.800
 1198SOL    HW1 4346   0.359   1.381  10.766
 1198SOL    HW2 4347   0.288   1.236  10.787
 1199SOL     OW 4348   1.614   1.292  10.599
 1199SOL    HW1 4349   1.674   1.295  10.679
 1199SOL    HW2 4350   1.539   1.356  10.612
 1200SOL     OW 4351   1.039   1.098  10.006
 1200SOL    HW1 4352   0.969   1.051  10.060
 1200SOL    HW2 4353   1.098   1.030   9.963
 1201SOL     OW 4354   1.014   0.236  10.281
 1201SOL    HW1 4355   1.006   0.200  10.188
 1201SOL    HW2 4356   1.012   0.160  10.346
 1202SOL     OW 4357   0.590   1.487   9.801
 1202SOL    HW1 4358   0.632   1.429   9.731
 1202SOL    HW2 4359   0.546   1.566   9.757
 1203SOL     OW 4360   1.709   0.385  10.691
 1203SOL    HW1 4361   1.782   0.454  10.695
 1203SOL    HW2 4362   1.737   0.310  10.632
 1204SOL     OW 4363   0.255   1.348   9.600
 1204SOL    HW1 4364   0.159   1.349   9.573
 1204SOL    HW2 4365   0.267   1.401   9.684
 1205SOL     OW 4366   0.105   1.013  11.036
 1205SOL    HW1 4367   0.028   0.980  11.090
 1205SOL    HW2 4368   0.190   0.983  11.078
 1206SOL     OW 4369   0.672   0.203  10.799
 1206SOL    HW1 4370   0.762   0.187  10.759
 1206SOL    HW2 4371   0.680   0.208  10.898
 1207SOL     OW 4372   0.075   0.345   9.343
 1207SOL    HW1 4373  -0.017   0.317   9.314
 1207SOL    HW2 4374   0.106   0.422   9.287
 1208SOL     OW 4375   1.440   0.856  10.708
 1208SOL    HW1 4376   1.383   0.908  10.645
 1208SOL    HW2 4377   1.536   0.868  10.684
 1209SOL     OW 4378   0.072   0.166   9.628
 1209SOL    HW1 4379   0.055   0.249   9.574
 1209SOL    HW2 4380   0.162   0.129   9.606
 1210SOL     OW 4381   1.183   1.335   9.429
 1210SOL    HW1 4382   1.084   1.324   9.431
 1210SOL    HW2 4383   1.217   1.350   9.522
 1211SOL     OW 4384   0.613   0.842  10.741
 1211SOL    HW1 4385   0.669   0.923  10.724
 1211SOL    HW2 4386   0.672   0.762  10.744
 1212SOL     OW 4387   1.493   1.767  10.269
 1212SOL    HW1 4388   1.526   1.831  10.200
 1212SOL    HW2 4389   1.559   1.761  10.344
 1213SOL     OW 4390   0.716   0.565  11.018
 1213SOL    HW1 4391   0.735   0.630  11.092
 1213SOL    HW2 4392   0.776   0.485  11.027
 1214SOL     OW 4393   1.450   1.220  10.943
 1214SOL    HW1 4394   1.441   1.210  11.042
 1214SOL    HW2 4395   1.546   1.213  10.917
 1215SOL     OW 4396   0.390   1.741  10.870
 1215SOL    HW1 4397   0.299   1.782  10.868
 1215SOL    HW2 4398   0.383   1.647  10.902
 1216SOL     OW 4399   1.674   0.883  10.564
 1216SOL    HW1 4400   1.647   0.794  10.527
 1216SOL    HW2 4401   1.675   0.951  10.491
 1217SOL     OW 4402   1.225   0.325   9.759
 1217SOL    HW1 4403   1.290   0.251   9.748
 1217SOL    HW2 4404   1.245   0.375   9.843
 1218SOL     OW 4405   0.594   0.745   9.962
 1218SOL    HW1 4406   0.644   0.830   9.943
 1218SOL    HW2 4407   0.506   0.747   9.914
 1219SOL     OW 4408   1.777   0.342  10.952
 1219SOL    HW1 4409   1.760   0.373  10.858
 1219SOL    HW2 4410   1.693   0.305  10.990
 1220SOL     OW 4411   1.730   0.934  10.827
 1220SOL    HW1 4412   1.768   1.025  10.842
 1220SOL    HW2 4413   1.722   0.917  10.728
 1221SOL     OW 4414   0.859   1.374   9.326
 1221SOL    HW1 4415   0.813   1.389   9.414
 1221SOL    HW2 4416   0.903   1.459   9.296
 1222SOL     OW 4417   0.661   1.790  10.263
 1222SOL    HW1 4418   0.615   1.878  10.250
 1222SOL    HW2 4419   0.760   1.802  10.256
 1223SOL     OW 4420   0.859   0.956  10.171
 1223SOL    HW1 4421   0.913   0.887  10.219
 1223SOL    HW2 4422   0.827   1.025  10.237
 1224SOL     OW 4423   1.083   0.984   9.397
 1224SOL    HW1 4424   1.060   1.037   9.315
 1224SOL    HW2 4425   1.164   0.928   9.378
 1225SOL     OW 4426   1.861   1.569  10.161
 1225SOL    HW1 4427   1.790   1.557  10.091
 1225SOL    HW2 4428   1.862   1.490  10.221
 1226SOL     OW 4429   0.221   1.314  11.154
 1226SOL    HW1 4430   0.156   1.241  11.133
 1226SOL    HW2 4431   0.225   1.328  11.252
 1227SOL     OW 4432   0.079   1.240   9.963
 1227SOL    HW1 4433   0.078   1.193  10.051
 1227SOL    HW2 4434   0.161   1.212   9.912
 1228SOL     OW 4435   0.672   1.391  10.934
 1228SOL    HW1 4436   0.594   1.341  10.972
 1228SOL    HW2 4437   0.669   1.486  10.965
 1229SOL     OW 4438   1.824   0.192  10.537
 1229SOL    HW1 4439   1.820   0.102  10.581
 1229SOL    HW2 4440   1.827   0.181  10.438
 1230SOL     OW 4441   0.428   0.424   9.830
 1230SOL    HW1 4442   0.458   0.352   9.768
 1230SOL    HW2 4443   0.389   0.384   9.913
 1231SOL     OW 4444   1.705   1.487  10.414
 1231SOL    HW1 4445   1.612   1.462  10.387
 1231SOL    HW2 4446   1.731   1.437  10.496
 1232SOL     OW 4447   0.317   0.547  10.590
 1232SOL    HW1 4448   0.355   0.488  10.662
 1232SOL    HW2 4449   0.357   0.521  10.502
 1233SOL     OW 4450   0.812   1.586   9.997
 1233SOL    HW1 4451   0.844   1.596   9.903
 1233SOL    HW2 4452   0.733   1.524   9.999
 1234SOL     OW 4453   1.424   0.214  10.422
 1234SOL    HW1 4454   1.476   0.149  10.477
 1234SOL    HW2 4455   1.375   0.277  10.483
 1235SOL     OW 4456   1.001   0.034  10.464
 1235SOL    HW1 4457   0.938  -0.038  10.433
 1235SOL    HW2 4458   1.094  -0.002  10.464
 1236SOL     OW 4459   0.770   1.330   9.611
 1236SOL    HW1 4460   0.724   1.243   9.628
 1236SOL    HW2 4461   0.861   1.327   9.652
 1237SOL     OW 4462   0.618   1.567  10.594
 1237SOL    HW1 4463   0.613   1.649  10.651
 1237SOL    HW2 4464   0.707   1.564  10.549
 1238SOL     OW 4465   1.352   0.052   9.478
 1238SOL    HW1 4466   1.387   0.011   9.394
 1238SOL    HW2 4467   1.262   0.014   9.498
 1239SOL     OW 4468   1.300   0.453  10.001
 1239SOL    HW1 4469   1.241   0.533  10.005
 1239SOL    HW2 4470   1.315   0.418  10.094
 1240SOL     OW 4471   1.593   0.221  10.192
 1240SOL    HW1 4472   1.509   0.220  10.246
 1240SOL    HW2 4473   1.595   0.304  10.136
 1241SOL     OW 4474   0.039   1.077   9.610
 1241SOL    HW1 4475   0.138   1.066   9.601
 1241SOL    HW2 4476  -0.001   0.991   9.642
 1242SOL     OW 4477   0.875   1.646   9.647
 1242SOL    HW1 4478   0.798   1.611   9.593
 1242SOL    HW2 4479   0.843   1.717   9.709
 1243SOL     OW 4480   0.230   0.628  11.285
 1243SOL    HW1 4481   0.137   0.626  11.322
 1243SOL    HW2 4482   0.231   0.589  11.193
 1244SOL     OW 4483   0.225   0.275  12.168
 1244SOL    HW1 4484   0.260   0.258  12.260
 1244SOL    HW2 4485   0.137   0.230  12.156
 1245SOL     OW 4486   0.019   0.368  11.819
 1245SOL    HW1 4487  -0.063   0.411  11.858
 1245SOL    HW2 4488  -0.009   0.295  11.756
 1246SOL     OW 4489   0.569   1.275  12.337
 1246SOL    HW1 4490   0.476   1.268  12.300
 1246SOL    HW2 4491   0.580   1.364  12.381
 1247SOL     OW 4492   1.555   1.511  11.875
 1247SOL    HW1 4493   1.498   1.495  11.956
 1247SOL    HW2 4494   1.496   1.521  11.795
 1248SOL     OW 4495   1.135   0.703  11.889
 1248SOL    HW1 4496   1.192   0.781  11.864
 1248SOL    HW2 4497   1.075   0.729  11.965
 1249SOL     OW 4498   1.755   0.607  11.403
 1249SOL    HW1 4499   1.743   0.594  11.304
 1249SOL    HW2 4500   1.725   0.526  11.452
 1250SOL     OW 4501   0.768   1.144  12.195
 1250SOL    HW1 4502   0.690   1.161  12.255
 1250SOL    HW2 4503   0.802   1.231  12.159
 1251SOL     OW 4504   0.850   0.798  12.995
 1251SOL    HW1 4505   0.846   0.874  13.060
 1251SOL    HW2 4506   0.872   0.834  12.904
 1252SOL     OW 4507   0.685   1.012  11.837
 1252SOL    HW1 4508   0.754   0.996  11.907
 1252SOL    HW2 4509   0.612   1.069  11.875
 1253SOL     OW 4510   0.686   1.161  12.975
 1253SOL    HW1 4511   0.746   1.240  12.989
 1253SOL    HW2 4512   0.600   1.192  12.934
 1254SOL     OW 4513   0.335   1.435  12.233
 1254SOL    HW1 4514   0.257   1.404  12.180
 1254SOL    HW2 4515   0.393   1.493  12.176
 1255SOL     OW 4516   1.460   1.505  12.511
 1255SOL    HW1 4517   1.484   1.599  12.537
 1255SOL    HW2 4518   1.444   1.451  12.593
 1256SOL     OW 4519   0.438   0.392  12.671
 1256SOL    HW1 4520   0.520   0.336  12.680
 1256SOL    HW2 4521   0.357   0.334  12.675
 1257SOL     OW 4522   1.603   0.447  11.909
 1257SOL    HW1 4523   1.529   0.493  11.859
 1257SOL    HW2 4524   1.654   0.515  11.962
 1258SOL     OW 4525   0.231   1.713  11.655
 1258SOL    HW1 4526   0.265   1.790  11.709
 1258SOL    HW2 4527   0.275   1.713  11.565
 1259SOL     OW 4528   1.127   1.341  12.862
 1259SOL    HW1 4529   1.174   1.341  12.950
 1259SOL    HW2 4530   1.079   1.254  12.851
 1260SOL     OW 4531   0.230   1.434  11.710
 1260SOL    HW1 4532   0.204   1.530  11.710
 1260SOL    HW2 4533   0.159   1.380  11.755
 1261SOL     OW 4534   0.240   1.091  12.058
 1261SOL    HW1 4535   0.254   1.007  12.110
 1261SOL    HW2 4536   0.185   1.155  12.113
 1262SOL     OW 4537   0.620   1.786  12.611
 1262SOL    HW1 4538   0.528   1.769  12.646
 1262SOL    HW2 4539   0.648   1.878  12.637
 1263SOL     OW 4540   0.606   0.964  11.295
 1263SOL    HW1 4541   0.613   1.048  11.241
 1263SOL    HW2 4542   0.652   0.977  11.383
 1264SOL     OW 4543   1.594   0.114  12.652
 1264SOL    HW1 4544   1.576   0.181  12.580
 1264SOL    HW2 4545   1.591   0.160  12.741
 1265SOL     OW 4546   0.122   0.643  11.735
 1265SOL    HW1 4547   0.077   0.555  11.752
 1265SOL    HW2 4548   0.121   0.697  11.819
 1266SOL     OW 4549   0.027   1.596  11.289
 1266SOL    HW1 4550   0.008   1.500  11.310
 1266SOL    HW2 4551  -0.006   1.654  11.364
 1267SOL     OW 4552   1.689   0.922  11.784
 1267SOL    HW1 4553   1.784   0.893  11.792
 1267SOL    HW2 4554   1.681   0.987  11.709
 1268SOL     OW 4555   1.641   1.108  11.604
 1268SOL    HW1 4556   1.727   1.110  11.552
 1268SOL    HW2 4557   1.655   1.155  11.692
 1269SOL     OW 4558   0.113   0.737  12.769
 1269SOL    HW1 4559   0.201   0.724  12.814
 1269SOL    HW2 4560   0.100   0.834  12.747
 1270SOL     OW 4561   0.613   1.365  11.898
 1270SOL    HW1 4562   0.564   1.278  11.907
 1270SOL    HW2 4563   0.590   1.408  11.811
 1271SOL     OW 4564   1.293   1.228  12.595
 1271SOL    HW1 4565   1.330   1.155  12.537
 1271SOL    HW2 4566   1.345   1.233  12.680
 1272SOL     OW 4567   0.809   0.004  11.674
 1272SOL    HW1 4568   0.849   0.095  11.665
 1272SOL    HW2 4569   0.709   0.012  11.680
 1273SOL     OW 4570   0.197   0.976  12.436
 1273SOL    HW1 4571   0.286   0.931  12.422
 1273SOL    HW2 4572   0.124   0.911  12.417
 1274SOL     OW 4573   1.525   0.999  11.362
 1274SOL    HW1 4574   1.462   0.923  11.375
 1274SOL    HW2 4575   1.573   1.017  11.448
 1275SOL     OW 4576   1.187   1.792  12.788
 1275SOL    HW1 4577   1.211   1.852  12.712
 1275SOL    HW2 4578   1.194   1.697  12.758
 1276SOL     OW 4579   0.317   0.251  12.973
 1276SOL    HW1 4580   0.388   0.322  12.979
 1276SOL    HW2 4581   0.229   0.290  13.001
 1277SOL     OW 4582   1.466   1.417  12.125
 1277SOL    HW1 4583   1.407   1.423  12.205
 1277SOL    HW2 4584   1.451   1.329  12.079
 1278SOL     OW 4585   1.667   1.714  11.744
 1278SOL    HW1 4586   1.626   1.691  11.656
 1278SOL    HW2 4587   1.649   1.640  11.809
 1279SOL     OW 4588   0.598   0.729  11.442
 1279SOL    HW1 4589   0.622   0.798  11.374
 1279SOL    HW2 4590   0.520   0.762  11.496
 1280SOL     OW 4591   1.281   0.345  12.116
 1280SOL    HW1 4592   1.195   0.295  12.103
 1280SOL    HW2 4593   1.343   0.291  12.172
 1281SOL     OW 4594   1.576   1.662  11.479
 1281SOL    HW1 4595   1.665   1.708  11.482
 1281SOL    HW2 4596   1.555   1.638  11.384
 1282SOL     OW 4597   0.807   0.605  12.637
 1282SOL    HW1 4598   0.760   0.602  12.726
 1282SOL    HW2 4599   0.756   0.550  12.571
 1283SOL     OW 4600   1.394   0.469  12.846
 1283SOL    HW1 4601   1.374   0.512  12.934
 1283SOL    HW2 4602   1.472   0.407  12.855
 1284SOL     OW 4603   0.973   0.890  12.744
 1284SOL    HW1 4604   1.019   0.806  12.715
 1284SOL    HW2 4605   0.917   0.924  12.669
 1285SOL     OW 4606   0.991   0.410  12.414
 1285SOL    HW1 4607   0.914   0.444  12.468
 1285SOL    HW2 4608   0.957   0.359  12.335
 1286SOL     OW 4609   1.041   0.701  11.601
 1286SOL    HW1 4610   1.067   0.697  11.697
 1286SOL    HW2 4611   0.956   0.650  11.587
 1287SOL     OW 4612   0.076   0.811  11.961
 1287SOL    HW1 4613   0.175   0.799  11.970
 1287SOL    HW2 4614   0.052   0.906  11.982
 1288SOL     OW 4615   0.130   1.821  12.743
 1288SOL    HW1 4616   0.120   1.806  12.842
 1288SOL    HW2 4617   0.044   1.857  12.707
 1289SOL     OW 4618   0.865   0.348  11.367
 1289SOL    HW1 4619   0.924   0.411  11.318
 1289SOL    HW2 4620   0.884   0.254  11.338
 1290SOL     OW 4621   1.719   0.585  13.003
 1290SOL    HW1 4622   1.693   0.674  12.967
 1290SOL    HW2 4623   1.717   0.517  12.930
 1291SOL     OW 4624   1.362   1.144  11.717
 1291SOL    HW1 4625   1.445   1.115  11.669
 1291SOL    HW2 4626   1.313   1.211  11.661
 1292SOL     OW 4627   0.550   0.196  12.057
 1292SOL    HW1 4628   0.545   0.191  12.157
 1292SOL    HW2 4629   0.552   0.292  12.028
 1293SOL     OW 4630   1.008   1.456  11.649
 1293SOL    HW1 4631   0.962   1.528  11.597
 1293SOL    HW2 4632   1.004   1.476  11.747
 1294SOL     OW 4633   0.351   1.801  12.025
 1294SOL    HW1 4634   0.401   1.715  12.031
 1294SOL    HW2 4635   0.416   1.878  12.022
 1295SOL     OW 4636   1.795   1.066  12.045
 1295SOL    HW1 4637   1.733   1.051  11.969
 1295SOL    HW2 4638   1.743   1.077  12.130
 1296SOL     OW 4639   1.227   1.550  12.678
 1296SOL    HW1 4640   1.233   1.473  12.742
 1296SOL    HW2 4641   1.175   1.524  12.598
 1297SOL     OW 4642   0.321   0.943  11.414
 1297SOL    HW1 4643   0.403   0.982  11.372
 1297SOL    HW2 4644   0.294   0.861  11.365
 1298SOL     OW 4645   1.458   0.735  11.900
 1298SOL    HW1 4646   1.453   0.670  11.975
 1298SOL    HW2 4647   1.538   0.794  11.913
 1299SOL     OW 4648   0.461   1.266  12.899
 1299SOL    HW1 4649   0.411   1.267  12.813
 1299SOL    HW2 4650   0.398   1.248  12.975
 1300SOL     OW 4651   1.111   1.776  11.409
 1300SOL    HW1 4652   1.051   1.714  11.459
 1300SOL    HW2 4653   1.142   1.732  11.324
 1301SOL     OW 4654   0.202   0.285  12.670
 1301SOL    HW1 4655   0.122   0.345  12.657
 1301SOL    HW2 4656   0.192   0.236  12.756
 1302SOL     OW 4657   1.632   1.377  11.253
 1302SOL    HW1 4658   1.600   1.471  11.243
 1302SOL    HW2 4659   1.556   1.314  11.241
 1303SOL     OW 4660   0.464   1.743  11.495
 1303SOL    HW1 4661   0.497   1.782  11.581
 1303SOL    HW2 4662   0.540   1.736  11.430
 1304SOL     OW 4663   1.400   0.107  11.598
 1304SOL    HW1 4664   1.376   0.070  11.508
 1304SOL    HW2 4665   1.499   0.123  11.602
 1305SOL     OW 4666   0.249   1.785  12.413
 1305SOL    HW1 4667   0.306   1.720  12.463
 1305SOL    HW2 4668   0.233   1.752  12.320
 1306SOL     OW 4669   0.940   1.698  12.076
 1306SOL    HW1 4670   1.020   1.641  12.097
 1306SOL    HW2 4671   0.891   1.658  11.999
 1307SOL     OW 4672   0.382   0.700  11.652
 1307SOL    HW1 4673   0.427   0.610  11.649
 1307SOL    HW2 4674   0.288   0.689  11.685
 1308SOL     OW 4675   1.547   0.222  12.901
 1308SOL    HW1 4676   1.542   0.259  12.993
 1308SOL    HW2 4677   1.475   0.153  12.889
 1309SOL     OW 4678   0.614   0.122  11.289
 1309SOL    HW1 4679   0.712   0.100  11.296
 1309SOL    HW2 4680   0.583   0.105  11.196
 1310SOL     OW 4681   0.781   0.264  12.921
 1310SOL    HW1 4682   0.848   0.203  12.964
 1310SOL    HW2 4683   0.708   0.283  12.986
 1311SOL     OW 4684   0.888   1.514  12.367
 1311SOL    HW1 4685   0.865   1.489  12.273
 1311SOL    HW2 4686   0.949   1.445  12.406
 1312SOL     OW 4687   1.351   0.590  12.605
 1312SOL    HW1 4688   1.379   0.547  12.690
 1312SOL    HW2 4689   1.376   0.686  12.606
 1313SOL     OW 4690   0.803   1.402  12.096
 1313SOL    HW1 4691   0.893   1.416  12.054
 1313SOL    HW2 4692   0.732   1.404  12.025
 1314SOL     OW 4693   0.922   0.503  12.071
 1314SOL    HW1 4694   0.897   0.494  11.975
 1314SOL    HW2 4695   0.970   0.421  12.102
 1315SOL     OW 4696   0.539   0.064  11.684
 1315SOL    HW1 4697   0.458   0.065  11.742
 1315SOL    HW2 4698   0.542   0.147  11.629
 1316SOL     OW 4699   1.434   1.188  11.213
 1316SOL    HW1 4700   1.466   1.112  11.270
 1316SOL    HW2 4701   1.342   1.215  11.243
 1317SOL     OW 4702   0.297   0.035  11.343
 1317SOL    HW1 4703   0.346   0.119  11.322
 1317SOL    HW2 4704   0.359  -0.030  11.388
 1318SOL     OW 4705   0.935   0.236  11.652
 1318SOL    HW1 4706   0.887   0.277  11.574
 1318SOL    HW2 4707   1.034   0.234  11.633
 1319SOL     OW 4708   1.076   0.683  12.636
 1319SOL    HW1 4709   0.996   0.622  12.639
 1319SOL    HW2 4710   1.157   0.630  12.612
 1320SOL     OW 4711   1.227   1.570  11.965
 1320SOL    HW1 4712   1.248   1.644  11.900
 1320SOL    HW2 4713   1.295   1.570  12.038
 1321SOL     OW 4714   0.459   1.152  11.913
 1321SOL    HW1 4715   0.388   1.125  11.978
 1321SOL    HW2 4716   0.433   1.124  11.820
 1322SOL     OW 4717   1.271   1.797  11.763
 1322SOL    HW1 4718   1.315   1.861  11.699
 1322SOL    HW2 4719   1.221   1.849  11.833
 1323SOL     OW 4720   1.032   0.549  11.188
 1323SOL    HW1 4721   0.991   0.631  11.149
 1323SOL    HW2 4722   1.096   0.575  11.261
 1324SOL     OW 4723   0.078   0.556  12.558
 1324SOL    HW1 4724   0.170   0.555  12.517
 1324SOL    HW2 4725   0.072   0.630  12.625
 1325SOL     OW 4726   0.561   0.222  12.319
 1325SOL    HW1 4727   0.599   0.138  12.356
 1325SOL    HW2 4728   0.473   0.241  12.363
 1326SOL     OW 4729   0.866   0.454  11.814
 1326SOL    HW1 4730   0.834   0.526  11.752
 1326SOL    HW2 4731   0.890   0.373  11.761
 1327SOL     OW 4732   1.017   0.039  11.925
 1327SOL    HW1 4733   0.945   0.044  11.856
 1327SOL    HW2 4734   0.993  -0.030  11.994
 1328SOL     OW 4735   1.429   1.173  12.039
 1328SOL    HW1 4736   1.374   1.089  12.032
 1328SOL    HW2 4737   1.455   1.202  11.947
 1329SOL     OW 4738   1.466   0.590  12.164
 1329SOL    HW1 4739   1.436   0.495  12.171
 1329SOL    HW2 4740   1.539   0.606  12.230
 1330SOL     OW 4741   1.857   0.833  11.549
 1330SOL    HW1 4742   1.899   0.769  11.613
 1330SOL    HW2 4743   1.819   0.782  11.471
 1331SOL     OW 4744   0.488   1.385  11.346
 1331SOL    HW1 4745   0.401   1.370  11.393
 1331SOL    HW2 4746   0.471   1.411  11.251
 1332SOL     OW 4747   1.664   1.280  11.829
 1332SOL    HW1 4748   1.763   1.288  11.843
 1332SOL    HW2 4749   1.619   1.364  11.860
 1333SOL     OW 4750   1.390   0.575  11.250
 1333SOL    HW1 4751   1.336   0.554  11.331
 1333SOL    HW2 4752   1.481   0.534  11.259
 1334SOL     OW 4753   0.527   0.256  11.500
 1334SOL    HW1 4754   0.554   0.197  11.425
 1334SOL    HW2 4755   0.527   0.351  11.469
 1335SOL     OW 4756   1.754   1.223  12.760
 1335SOL    HW1 4757   1.845   1.184  12.747
 1335SOL    HW2 4758   1.762   1.319  12.784
 1336SOL     OW 4759   1.064   1.347  12.512
 1336SOL    HW1 4760   0.984   1.324  12.567
 1336SOL    HW2 4761   1.147   1.321  12.561
 1337SOL     OW 4762   1.592   1.629  12.797
 1337SOL    HW1 4763   1.619   1.663  12.707
 1337SOL    HW2 4764   1.671   1.591  12.843
 1338SOL     OW 4765   1.111   1.195  12.272
 1338SOL    HW1 4766   1.071   1.239  12.353
 1338SOL    HW2 4767   1.070   1.232  12.189
 1339SOL     OW 4768   1.638   1.099  12.251
 1339SOL    HW1 4769   1.643   1.180  12.310
 1339SOL    HW2 4770   1.552   1.101  12.200
 1340SOL     OW 4771   0.915   0.089  12.574
 1340SOL    HW1 4772   0.940   0.069  12.479
 1340SOL    HW2 4773   0.987   0.145  12.616
 1341SOL     OW 4774   0.980   1.116  12.891
 1341SOL    HW1 4775   0.881   1.122  12.901
 1341SOL    HW2 4776   1.003   1.036  12.835
 1342SOL     OW 4777   0.705   1.050  11.540
 1342SOL    HW1 4778   0.691   1.057  11.639
 1342SOL    HW2 4779   0.789   0.999  11.522
 1343SOL     OW 4780   0.410   0.813  12.423
 1343SOL    HW1 4781   0.496   0.825  12.473
 1343SOL    HW2 4782   0.368   0.726  12.450
 1344SOL     OW 4783   1.274   0.386  12.434
 1344SOL    HW1 4784   1.295   0.460  12.498
 1344SOL    HW2 4785   1.185   0.403  12.391
 1345SOL     OW 4786   0.064   1.564  12.503
 1345SOL    HW1 4787   0.018   1.646  12.469
 1345SOL    HW2 4788   0.162   1.583  12.512
 1346SOL     OW 4789   0.367   1.100  11.673
 1346SOL    HW1 4790   0.360   1.183  11.617
 1346SOL    HW2 4791   0.371   1.020  11.613
 1347SOL     OW 4792   0.566   0.537  12.037
 1347SOL    HW1 4793   0.578   0.603  11.963
 1347SOL    HW2 4794   0.612   0.571  12.120
 1348SOL     OW 4795   1.252   1.348  11.560
 1348SOL    HW1 4796   1.302   1.425  11.600
 1348SOL    HW2 4797   1.157   1.350  11.592
 1349SOL     OW 4798   1.272   1.445  12.314
 1349SOL    HW1 4799   1.319   1.458  12.401
 1349SOL    HW2 4800   1.206   1.371  12.323
 1350SOL     OW 4801   1.582   0.639  11.644
 1350SOL    HW1 4802   1.551   0.700  11.717
 1350SOL    HW2 4803   1.632   0.691  11.575
 1351SOL     OW 4804   0.354   1.510  12.501
 1351SOL    HW1 4805   0.333   1.466  12.414
 1351SOL    HW2 4806   0.451   1.536  12.504
 1352SOL     OW 4807   0.402   0.751  12.770
 1352SOL    HW1 4808   0.470   0.806  12.723
 1352SOL    HW2 4809   0.442   0.663  12.797
 1353SOL     OW 4810   1.587   0.779  12.842
 1353SOL    HW1 4811   1.495   0.817  12.837
 1353SOL    HW2 4812   1.647   0.826  12.777
 1354SOL     OW 4813   1.013   0.105  12.942
 1354SOL    HW1 4814   1.019   0.190  12.890
 1354SOL    HW2 4815   1.045   0.029  12.885
 1355SOL     OW 4816   0.504   0.050  12.912
 1355SOL    HW1 4817   0.462  -0.007  12.842
 1355SOL    HW2 4818   0.438   0.119  12.944
 1356SOL     OW 4819   0.573   0.870  12.201
 1356SOL    HW1 4820   0.617   0.959  12.192
 1356SOL    HW2 4821   0.510   0.870  12.278
 1357SOL     OW 4822   1.360   0.862  12.217
 1357SOL    HW1 4823   1.285   0.862  12.151
 1357SOL    HW2 4824   1.397   0.770  12.226
 1358SOL     OW 4825   1.209   0.525  11.447
 1358SOL    HW1 4826   1.222   0.441  11.501
 1358SOL    HW2 4827   1.180   0.599  11.507
 1359SOL     OW 4828   0.307   0.213  12.403
 1359SOL    HW1 4829   0.284   0.250  12.493
 1359SOL    HW2 4830   0.277   0.118  12.397
 1360SOL     OW 4831   0.037   1.310  12.454
 1360SOL    HW1 4832   0.090   1.261  12.522
 1360SOL    HW2 4833   0.059   1.408  12.459
 1361SOL     OW 4834   0.732   0.634  12.236
 1361SOL    HW1 4835   0.791   0.608  12.160
 1361SOL    HW2 4836   0.704   0.730  12.225
 1362SOL     OW 4837   1.728   0.935  13.026
 1362SOL    HW1 4838   1.682   0.928  12.937
 1362SOL    HW2 4839   1.666   0.979  13.092
 1363SOL     OW 4840   0.307   0.063  11.790
 1363SOL    HW1 4841   0.296   0.157  11.823
 1363SOL    HW2 4842   0.302   0.000  11.867
 1364SOL     OW 4843   1.622   0.367  11.546
 1364SOL    HW1 4844   1.624   0.291  11.610
 1364SOL    HW2 4845   1.574   0.444  11.586
 1365SOL     OW 4846   1.023   0.766  12.138
 1365SOL    HW1 4847   1.038   0.787  12.234
 1365SOL    HW2 4848   0.993   0.671  12.129
 1366SOL     OW 4849   0.980   1.573  12.872
 1366SOL    HW1 4850   0.960   1.617  12.784
 1366SOL    HW2 4851   1.019   1.482  12.856
 1367SOL     OW 4852   1.859   1.518  12.777
 1367SOL    HW1 4853   1.873   1.545  12.682
 1367SOL    HW2 4854   1.942   1.540  12.830
 1368SOL     OW 4855   0.350   0.898  12.976
 1368SOL    HW1 4856   0.426   0.942  13.024
 1368SOL    HW2 4857   0.385   0.851  12.894
 1369SOL     OW 4858   1.540   0.274  11.297
 1369SOL    HW1 4859   1.479   0.199  11.320
 1369SOL    HW2 4860   1.562   0.326  11.380
 1370SOL     OW 4861   1.303   0.838  11.214
 1370SOL    HW1 4862   1.337   0.745  11.229
 1370SOL    HW2 4863   1.321   0.865  11.119
 1371SOL     OW 4864   1.068   1.333  12.021
 1371SOL    HW1 4865   1.075   1.249  11.966
 1371SOL    HW2 4866   1.130   1.402  11.985
 1372SOL     OW 4867   0.319   0.810  12.121
 1372SOL    HW1 4868   0.412   0.846  12.126
 1372SOL    HW2 4869   0.313   0.725  12.173
 1373SOL     OW 4870   0.339   0.509  12.178
 1373SOL    HW1 4871   0.287   0.426  12.161
 1373SOL    HW2 4872   0.416   0.514  12.114
 1374SOL     OW 4873   1.138   0.380  12.850
 1374SOL    HW1 4874   1.093   0.443  12.914
 1374SOL    HW2 4875   1.231   0.411  12.833
 1375SOL     OW 4876   1.160   0.207  12.649
 1375SOL    HW1 4877   1.160   0.271  12.726
 1375SOL    HW2 4878   1.188   0.255  12.566
 1376SOL     OW 4879   0.008   1.326  11.372
 1376SOL    HW1 4880  -0.085   1.347  11.341
 1376SOL    HW2 4881   0.018   1.227  11.385
 1377SOL     OW 4882   0.088   1.801  12.099
 1377SOL    HW1 4883   0.046   1.715  12.072
 1377SOL    HW2 4884   0.182   1.804  12.065
 1378SOL     OW 4885   0.504   1.568  12.082
 1378SOL    HW1 4886   0.570   1.642  12.091
 1378SOL    HW2 4887   0.548   1.489  12.040
 1379SOL     OW 4888   1.002   0.796  12.410
 1379SOL    HW1 4889   1.043   0.764  12.496
 1379SOL    HW2 4890   0.906   0.769  12.407
 1380SOL     OW 4891   0.040   0.544  12.286
 1380SOL    HW1 4892   0.125   0.511  12.245
 1380SOL    HW2 4893   0.053   0.559  12.384
 1381SOL     OW 4894   0.189   0.520  12.894
 1381SOL    HW1 4895   0.248   0.480  12.824
 1381SOL    HW2 4896   0.131   0.591  12.853
 1382SOL     OW 4897   1.369   0.950  12.832
 1382SOL    HW1 4898   1.408   1.039  12.852
 1382SOL    HW2 4899   1.379   0.930  12.735
 1383SOL     OW 4900   0.815   0.572  11.497
 1383SOL    HW1 4901   0.822   0.483  11.451
 1383SOL    HW2 4902   0.721   0.606  11.489
 1384SOL     OW 4903   1.657   0.604  12.378
 1384SOL    HW1 4904   1.619   0.535  12.440
 1384SOL    HW2 4905   1.739   0.568  12.334
 1385SOL     OW 4906   0.252   1.564  12.916
 1385SOL    HW1 4907   0.222   1.621  12.992
 1385SOL    HW2 4908   0.245   1.467  12.942
 1386SOL     OW 4909   0.671   0.464  12.441
 1386SOL    HW1 4910   0.637   0.375  12.411
 1386SOL    HW2 4911   0.697   0.518  12.361
 1387SOL     OW 4912   0.930   1.678  12.637
 1387SOL    HW1 4913   0.906   1.660  12.542
 1387SOL    HW2 4914   0.960   1.772  12.647
 1388SOL     OW 4915   0.473   0.500  11.363
 1388SOL    HW1 4916   0.534   0.580  11.367
 1388SOL    HW2 4917   0.378   0.531  11.370
 1389SOL     OW 4918   0.159   1.137  12.638
 1389SOL    HW1 4919   0.181   1.076  12.714
 1389SOL    HW2 4920   0.169   1.088  12.552
 1390SOL     OW 4921   1.347   1.059  12.406
 1390SOL    HW1 4922   1.371   0.996  12.332
 1390SOL    HW2 4923   1.257   1.099  12.388
 1391SOL     OW 4924   1.302   0.855  11.481
 1391SOL    HW1 4925   1.216   0.824  11.523
 1391SOL    HW2 4926   1.298   0.841  11.382
 1392SOL     OW 4927   1.252   1.731  12.300
 1392SOL    HW1 4928   1.336   1.736  12.246
 1392SOL    HW2 4929   1.229   1.635  12.318
 1393SOL     OW 4930   0.083   1.258  12.194
 1393SOL    HW1 4931   0.078   1.257  12.294
 1393SOL    HW2 4932   0.000   1.217  12.156
 1394SOL     OW 4933   0.688   1.662  12.888
 1394SOL    HW1 4934   0.632   1.743  12.897
 1394SOL    HW2 4935   0.740   1.666  12.802
 1395SOL     OW 4936   1.726   0.135  11.695
 1395SOL    HW1 4937   1.799   0.118  11.628
 1395SOL    HW2 4938   1.695   0.048  11.733
 1396SOL     OW 4939   1.388   1.573  11.649
 1396SOL    HW1 4940   1.455   1.585  11.575
 1396SOL    HW2 4941   1.348   1.662  11.672
 1397SOL     OW 4942   0.130   1.794  13.023
 1397SOL    HW1 4943   0.089   1.720  13.076
 1397SOL    HW2 4944   0.194   1.845  13.081
 1398SOL     OW 4945   1.280   0.927  11.844
 1398SOL    HW1 4946   1.340   0.846  11.846
 1398SOL    HW2 4947   1.320   0.996  11.784
 1399SOL     OW 4948   0.830   1.273  12.594
 1399SOL    HW1 4949   0.825   1.306  12.689
 1399SOL    HW2 4950   0.744   1.292  12.548
 1400SOL     OW 4951   0.672   1.616  11.326
 1400SOL    HW1 4952   0.681   1.626  11.227
 1400SOL    HW2 4953   0.632   1.527  11.347
 1401SOL     OW 4954   1.650   1.720  12.566
 1401SOL    HW1 4955   1.703   1.730  12.482
 1401SOL    HW2 4956   1.623   1.810  12.600
 1402SOL     OW 4957   1.841   0.175  12.135
 1402SOL    HW1 4958   1.880   0.090  12.099
 1402SOL    HW2 4959   1.743   0.177  12.116
 1403SOL     OW 4960   0.263   0.326  11.892
 1403SOL    HW1 4961   0.184   0.377  11.858
 1403SOL    HW2 4962   0.254   0.311  11.990
 1404SOL     OW 4963   1.194   1.612  11.203
 1404SOL    HW1 4964   1.200   1.519  11.240
 1404SOL    HW2 4965   1.135   1.612  11.123
 1405SOL     OW 4966   0.822   1.002  12.544
 1405SOL    HW1 4967   0.862   1.001  12.452
 1405SOL    HW2 4968   0.832   1.094  12.584
 1406SOL     OW 4969   0.916   0.910  11.463
 1406SOL    HW1 4970   0.979   0.948  11.395
 1406SOL    HW2 4971   0.956   0.827  11.502
 1407SOL     OW 4972   1.504   1.607  11.216
 1407SOL    HW1 4973   1.412   1.644  11.223
 1407SOL    HW2 4974   1.542   1.627  11.126
 1408SOL     OW 4975   0.372   1.288  12.662
 1408SOL    HW1 4976   0.359   1.381  12.628
 1408SOL    HW2 4977   0.288   1.236  12.649
 1409SOL     OW 4978   1.614   1.292  12.461
 1409SOL    HW1 4979   1.674   1.295  12.541
 1409SOL    HW2 4980   1.539   1.356  12.474
 1410SOL     OW 4981   1.039   1.098  11.868
 1410SOL    HW1 4982   0.969   1.051  11.922
 1410SOL    HW2 4983   1.098   1.030  11.825
 1411SOL     OW 4984   1.014   0.236  12.143
 1411SOL    HW1 4985   1.006   0.200  12.050
 1411SOL    HW2 4986   1.012   0.160  12.208
 1412SOL     OW 4987   0.590   1.487  11.663
 1412SOL    HW1 4988   0.632   1.429  11.593
 1412SOL    HW2 4989   0.546   1.566  11.619
 1413SOL     OW 4990   1.709   0.385  12.553
 1413SOL    HW1 4991   1.782   0.454  12.557
 1413SOL    HW2 4992   1.737   0.310  12.494
 1414SOL     OW 4993   0.255   1.348  11.462
 1414SOL    HW1 4994   0.159   1.349  11.435
 1414SOL    HW2 4995   0.267   1.401  11.546
 1415SOL     OW 4996   0.105   1.013  12.898
 1415SOL    HW1 4997   0.028   0.980  12.952
 1415SOL    HW2 4998   0.190   0.983  12.940
 1416SOL     OW 4999   0.672   0.203  12.661
 1416SOL    HW1 5000   0.762   0.187  12.621
 1416SOL    HW2 5001   0.680   0.208  12.760
 1417SOL     OW 5002   0.075   0.345  11.205
 1417SOL    HW1 5003  -0.017   0.317  11.176
 1417SOL    HW2 5004   0.106   0.422  11.149
 1418SOL     OW 5005   1.440   0.856  12.570
 1418SOL    HW1 5006   1.383   0.908  12.507
 1418SOL    HW2 5007   1.536   0.868  12.546
 1419SOL     OW 5008   0.072   0.166  11.490
 1419SOL    HW1 5009   0.055   0.249  11.436
 1419SOL    HW2 5010   0.162   0.129  11.468
 1420SOL     OW 5011   1.183   1.335  11.291
 1420SOL    HW1 5012   1.084   1.324  11.293
 1420SOL    HW2 5013   1.217   1.350  11.384
 1421SOL     OW 5014   0.613   0.842  12.603
 1421SOL    HW1 5015   0.669   0.923  12.586
 1421SOL    HW2 5016   0.672   0.762  12.606
 1422SOL     OW 5017   1.493   1.767  12.131
 1422SOL    HW1 5018   1.526   1.831  12.062
 1422SOL    HW2 5019   1.559   1.761  12.206
 1423SOL     OW 5020   0.716   0.565  12.880
 1423SOL    HW1 5021   0.735   0.630  12.954
 1423SOL    HW2 5022   0.776   0.485  12.889
 1424SOL     OW 5023   1.450   1.220  12.805
 1424SOL    HW1 5024   1.441   1.210  12.904
 1424SOL    HW2 5025   1.546   1.213  12.779
 1425SOL     OW 5026   0.390   1.741  12.732
 1425SOL    HW1 5027   0.299   1.782  12.730
 1425SOL    HW2 5028   0.383   1.647  12.764
 1426SOL     OW 5029   1.674   0.883  12.426
 1426SOL    HW1 5030   1.647   0.794  12.389
 1426SOL    HW2 5031   1.675   0.951  12.353
 1427SOL     OW 5032   1.225   0.325  11.621
 1427SOL    HW1 5033   1.290   0.251  11.610
 1427SOL    HW2 5034   1.245   0.375  11.705
 1428SOL     OW 5035   0.594   0.745  11.824
 1428SOL    HW1 5036   0.644   0.830  11.805
 1428SOL    HW2 5037   0.506   0.747  11.776
 1429SOL     OW 5038   1.777   0.342  12.814
 1429SOL    HW1 5039   1.760   0.373  12.720
 1429SOL    HW2 5040   1.693   0.305  12.852
 1430SOL     OW 5041   1.730   0.934  12.689
 1430SOL    HW1 5042   1.768   1.025  12.704
 1430SOL    HW2 5043   1.722   0.917  12.590
 1431SOL     OW 5044   0.859   1.374  11.188
 1431SOL    HW1 5045   0.813   1.389  11.276
 1431SOL    HW2 5046   0.903   1.459  11.158
 1432SOL     OW 5047   0.661   1.790  12.125
 1432SOL    HW1 5048   0.615   1.878  12.112
 1432SOL    HW2 5049   0.760   1.802  12.118
 1433SOL     OW 5050   0.859   0.956  12.033
 1433SOL    HW1 5051   0.913   0.887  12.081
 1433SOL    HW2 5052   0.827   1.025  12.099
 1434SOL     OW 5053   1.083   0.984  11.259
 1434SOL    HW1 5054   1.060   1.037  11.177
 1434SOL    HW2 5055   1.164   0.928  11.240
 1435SOL     OW 5056   1.861   1.569  12.023
 1435SOL    HW1 5057   1.790   1.557  11.953
 1435SOL    HW2 5058   1.862   1.490  12.083
 1436SOL     OW 5059   0.221   1.314  13.016
 1436SOL    HW1 5060   0.156   1.241  12.995
 1436SOL    HW2 5061   0.225   1.328  13.114
 1437SOL     OW 5062   0.079   1.240  11.825
 1437SOL    HW1 5063   0.078   1.193  11.913
 1437SOL    HW2 5064   0.161   1.212  11.774
 1438SOL     OW 5065   0.672   1.391  12.796
 1438SOL    HW1 5066   0.594   1.341  12.834
 1438SOL    HW2 5067   0.669   1.486  12.827
 1439SOL     OW 5068   1.824   0.192  12.399
 1439SOL    HW1 5069   1.820   0.102  12.443
 1439SOL    HW2 5070   1.827   0.181  12.300
 1440SOL     OW 5071   0.428   0.424  11.692
 1440SOL    HW1 5072   0.458   0.352  11.630
 1440SOL    HW2 5073   0.389   0.384  11.775
 1441SOL     OW 5074   1.705   1.487  12.276
 1441SOL    HW1 5075   1.612   1.462  12.249
 1441SOL    HW2 5076   1.731   1.437  12.358
 1442SOL     OW 5077   0.317   0.547  12.452
 1442SOL    HW1 5078   0.355   0.488  12.524
 1442SOL    HW2 5079   0.357   0.521  12.364
 1443SOL     OW 5080   0.812   1.586  11.859
 1443SOL    HW1 5081   0.844   1.596  11.765
 1443SOL    HW2 5082   0.733   1.524  11.861
 1444SOL     OW 5083   1.424   0.214  12.284
 1444SOL    HW1 5084   1.476   0.149  12.339
 1444SOL    HW2 5085   1.375   0.277  12.345
 1445SOL     OW 5086   1.001   0.034  12.326
 1445SOL    HW1 5087   0.938  -0.038  12.295
 1445SOL    HW2 5088   1.094  -0.002  12.326
 1446SOL     OW 5089   0.770   1.330  11.473
 1446SOL    HW1 5090   0.724   1.243  11.490
 1446SOL    HW2 5091   0.861   1.327  11.514
 1447SOL     OW 5092   0.618   1.567  12.456
 1447SOL    HW1 5093   0.613   1.649  12.513
 1447SOL    HW2 5094   0.707   1.564  12.411
 1448SOL     OW 5095   1.352   0.052  11.340
 1448SOL    HW1 5096   1.387   0.011  11.256
 1448SOL    HW2 5097   1.262   0.014  11.360
 1449SOL     OW 5098   1.300   0.453  11.863
 1449SOL    HW1 5099   1.241   0.533  11.867
 1449SOL    HW2 5100   1.315   0.418  11.956
 1450SOL     OW 5101   1.593   0.221  12.054
 1450SOL    HW1 5102   1.509   0.220  12.108
 1450SOL    HW2 5103   1.595   0.304  11.998
 1451SOL     OW 5104   0.039   1.077  11.472
 1451SOL    HW1 5105   0.138   1.066  11.463
 1451SOL    HW2 5106  -0.001   0.991  11.504
 1452SOL     OW 5107   0.875   1.646  11.509
 1452SOL    HW1 5108   0.798   1.611  11.455
 1452SOL    HW2 5109   0.843   1.717  11.571
 1453SOL     OW 5110   0.230   0.628  13.147
 1453SOL    HW1 5111   0.137   0.626  13.184
 1453SOL    HW2 5112   0.231   0.589  13.055
 1454SOL     OW 5113   0.225   0.275  14.030
 1454SOL    HW1 5114   0.260   0.258  14.122
 1454SOL    HW2 5115   0.137   0.230  14.018
 1455SOL     OW 5116   0.019   0.368  13.681
 1455SOL    HW1 5117  -0.063   0.411  13.720
 1455SOL    HW2 5118  -0.009   0.295  13.618
 1456SOL     OW 5119   1.555   1.511  13.737
 1456SOL    HW1 5120   1.498   1.495  13.818
 1456SOL    HW2 5121   1.496   1.521  13.657
 1457SOL     OW 5122   1.135   0.703  13.751
 1457SOL    HW1 5123   1.192   0.781  13.726
 1457SOL    HW2 5124   1.075   0.729  13.827
 1458SOL     OW 5125   1.755   0.607  13.265
 1458SOL    HW1 5126   1.743   0.594  13.166
 1458SOL    HW2 5127   1.725   0.526  13.314
 1459SOL     OW 5128   0.685   1.012  13.699
 1459SOL    HW1 5129   0.754   0.996  13.769
 1459SOL    HW2 5130   0.612   1.069  13.737
 1460SOL     OW 5131   1.603   0.447  13.771
 1460SOL    HW1 5132   1.529   0.493  13.721
 1460SOL    HW2 5133   1.654   0.515  13.824
 1461SOL     OW 5134   0.231   1.713  13.517
 1461SOL    HW1 5135   0.265   1.790  13.571
 1461SOL    HW2 5136   0.275   1.713  13.427
 1462SOL     OW 5137   0.230   1.434  13.572
 1462SOL    HW1 5138   0.204   1.530  13.572
 1462SOL    HW2 5139   0.159   1.380  13.617
 1463SOL     OW 5140   0.240   1.091  13.920
 1463SOL    HW1 5141   0.254   1.007  13.972
 1463SOL    HW2 5142   0.185   1.155  13.975
 1464SOL     OW 5143   0.606   0.964  13.157
 1464SOL    HW1 5144   0.613   1.048  13.103
 1464SOL    HW2 5145   0.652   0.977  13.245
 1465SOL     OW 5146   0.122   0.643  13.597
 1465SOL    HW1 5147   0.077   0.555  13.614
 1465SOL    HW2 5148   0.121   0.697  13.681
 1466SOL     OW 5149   0.027   1.596  13.151
 1466SOL    HW1 5150   0.008   1.500  13.172
 1466SOL    HW2 5151  -0.006   1.654  13.226
 1467SOL     OW 5152   1.689   0.922  13.646
 1467SOL    HW1 5153   1.784   0.893  13.654
 1467SOL    HW2 5154   1.681   0.987  13.571
 1468SOL     OW 5155   1.641   1.108  13.466
 1468SOL    HW1 5156   1.727   1.110  13.414
 1468SOL    HW2 5157   1.655   1.155  13.554
 1469SOL     OW 5158   0.613   1.365  13.760
 1469SOL    HW1 5159   0.564   1.278  13.769
 1469SOL    HW2 5160   0.590   1.408  13.673
 1470SOL     OW 5161   0.809   0.004  13.536
 1470SOL    HW1 5162   0.849   0.095  13.527
 1470SOL    HW2 5163   0.709   0.012  13.542
 1471SOL     OW 5164   1.525   0.999  13.224
 1471SOL    HW1 5165   1.462   0.923  13.237
 1471SOL    HW2 5166   1.573   1.017  13.310
 1472SOL     OW 5167   1.667   1.714  13.606
 1472SOL    HW1 5168   1.626   1.691  13.518
 1472SOL    HW2 5169   1.649   1.640  13.671
 1473SOL     OW 5170   0.598   0.729  13.304
 1473SOL    HW1 5171   0.622   0.798  13.236
 1473SOL    HW2 5172   0.520   0.762  13.358
 1474SOL     OW 5173   1.281   0.345  13.978
 1474SOL    HW1 5174   1.195   0.295  13.965
 1474SOL    HW2 5175   1.343   0.291  14.034
 1475SOL     OW 5176   1.576   1.662  13.341
 1475SOL    HW1 5177   1.665   1.708  13.344
 1475SOL    HW2 5178   1.555   1.638  13.246
 1476SOL     OW 5179   1.041   0.701  13.463
 1476SOL    HW1 5180   1.067   0.697  13.559
 1476SOL    HW2 5181   0.956   0.650  13.449
 1477SOL     OW 5182   0.076   0.811  13.823
 1477SOL    HW1 5183   0.175   0.799  13.832
 1477SOL    HW2 5184   0.052   0.906  13.844
 1478SOL     OW 5185   0.865   0.348  13.229
 1478SOL    HW1 5186   0.924   0.411  13.180
 1478SOL    HW2 5187   0.884   0.254  13.200
 1479SOL     OW 5188   1.362   1.144  13.579
 1479SOL    HW1 5189   1.445   1.115  13.531
 1479SOL    HW2 5190   1.313   1.211  13.523
 1480SOL     OW 5191   1.008   1.456  13.511
 1480SOL    HW1 5192   0.962   1.528  13.459
 1480SOL    HW2 5193   1.004   1.476  13.609
 1481SOL     OW 5194   0.351   1.801  13.887
 1481SOL    HW1 5195   0.401   1.715  13.893
 1481SOL    HW2 5196   0.416   1.878  13.884
 1482SOL     OW 5197   1.795   1.066  13.907
 1482SOL    HW1 5198   1.733   1.051  13.831
 1482SOL    HW2 5199   1.743   1.077  13.992
 1483SOL     OW 5200   0.321   0.943  13.276
 1483SOL    HW1 5201   0.403   0.982  13.234
 1483SOL    HW2 5202   0.294   0.861  13.227
 1484SOL     OW 5203   1.458   0.735  13.762
 1484SOL    HW1 5204   1.453   0.670  13.837
 1484SOL    HW2 5205   1.538   0.794  13.775
 1485SOL     OW 5206   1.111   1.776  13.271
 1485SOL    HW1 5207   1.051   1.714  13.321
 1485SOL    HW2 5208   1.142   1.732  13.186
 1486SOL     OW 5209   1.632   1.377  13.115
 1486SOL    HW1 5210   1.600   1.471  13.105
 1486SOL    HW2 5211   1.556   1.314  13.103
 1487SOL     OW 5212   0.464   1.743  13.357
 1487SOL    HW1 5213   0.497   1.782  13.443
 1487SOL    HW2 5214   0.540   1.736  13.292
 1488SOL     OW 5215   1.400   0.107  13.460
 1488SOL    HW1 5216   1.376   0.070  13.370
 1488SOL    HW2 5217   1.499   0.123  13.464
 1489SOL     OW 5218   0.940   1.698  13.938
 1489SOL    HW1 5219   1.020   1.641  13.959
 1489SOL    HW2 5220   0.891   1.658  13.861
 1490SOL     OW 5221   0.382   0.700  13.514
 1490SOL    HW1 5222   0.427   0.610  13.511
 1490SOL    HW2 5223   0.288   0.689  13.547
 1491SOL     OW 5224   0.614   0.122  13.151
 1491SOL    HW1 5225   0.712   0.100  13.158
 1491SOL    HW2 5226   0.583   0.105  13.058
 1492SOL     OW 5227   0.539   0.064  13.546
 1492SOL    HW1 5228   0.458   0.065  13.604
 1492SOL    HW2 5229   0.542   0.147  13.491
 1493SOL     OW 5230   1.434   1.188  13.075
 1493SOL    HW1 5231   1.466   1.112  13.132
 1493SOL    HW2 5232   1.342   1.215  13.105
 1494SOL     OW 5233   0.297   0.035  13.205
 1494SOL    HW1 5234   0.346   0.119  13.184
 1494SOL    HW2 5235   0.359  -0.030  13.250
 1495SOL     OW 5236   0.935   0.236  13.514
 1495SOL    HW1 5237   0.887   0.277  13.436
 1495SOL    HW2 5238   1.034   0.234  13.495
 1496SOL     OW 5239   0.459   1.152  13.775
 1496SOL    HW1 5240   0.388   1.125  13.840
 1496SOL    HW2 5241   0.433   1.124  13.682
 1497SOL     OW 5242   1.271   1.797  13.625
 1497SOL    HW1 5243   1.315   1.861  13.561
 1497SOL    HW2 5244   1.221   1.849  13.695
 1498SOL     OW 5245   1.032   0.549  13.050
 1498SOL    HW1 5246   0.991   0.631  13.011
 1498SOL    HW2 5247   1.096   0.575  13.123
 1499SOL     OW 5248   0.866   0.454  13.676
 1499SOL    HW1 5249   0.834   0.526  13.614
 1499SOL    HW2 5250   0.890   0.373  13.623
 1500SOL     OW 5251   1.017   0.039  13.787
 1500SOL    HW1 5252   0.945   0.044  13.718
 1500SOL    HW2 5253   0.993  -0.030  13.856
 1501SOL     OW 5254   1.857   0.833  13.411
 1501SOL    HW1 5255   1.899   0.769  13.475
 1501SOL    HW2 5256   1.819   0.782  13.333
 1502SOL     OW 5257   0.488   1.385  13.208
 1502SOL    HW1 5258   0.401   1.370  13.255
 1502SOL    HW2 5259   0.471   1.411  13.113
 1503SOL     OW 5260   1.664   1.280  13.691
 1503SOL    HW1 5261   1.763   1.288  13.705
 1503SOL    HW2 5262   1.619   1.364  13.722
 1504SOL     OW 5263   1.390   0.575  13.112
 1504SOL    HW1 5264   1.336   0.554  13.193
 1504SOL    HW2 5265   1.481   0.534  13.121
 1505SOL     OW 5266   0.527   0.256  13.362
 1505SOL    HW1 5267   0.554   0.197  13.287
 1505SOL    HW2 5268   0.527   0.351  13.331
 1506SOL     OW 5269   0.705   1.050  13.402
 1506SOL    HW1 5270   0.691   1.057  13.501
 1506SOL    HW2 5271   0.789   0.999  13.384
 1507SOL     OW 5272   0.367   1.100  13.535
 1507SOL    HW1 5273   0.360   1.183  13.479
 1507SOL    HW2 5274   0.371   1.020  13.475
 1508SOL     OW 5275   0.566   0.537  13.899
 1508SOL    HW1 5276   0.578   0.603  13.825
 1508SOL    HW2 5277   0.612   0.571  13.982
 1509SOL     OW 5278   1.252   1.348  13.422
 1509SOL    HW1 5279   1.302   1.425  13.462
 1509SOL    HW2 5280   1.157   1.350  13.454
 1510SOL     OW 5281   1.582   0.639  13.506
 1510SOL    HW1 5282   1.551   0.700  13.579
 1510SOL    HW2 5283   1.632   0.691  13.437
 1511SOL     OW 5284   1.209   0.525  13.309
 1511SOL    HW1 5285   1.222   0.441  13.363
 1511SOL    HW2 5286   1.180   0.599  13.369
 1512SOL     OW 5287   0.307   0.063  13.652
 1512SOL    HW1 5288   0.296   0.157  13.685
 1512SOL    HW2 5289   0.302   0.000  13.729
 1513SOL     OW 5290   1.622   0.367  13.408
 1513SOL    HW1 5291   1.624   0.291  13.472
 1513SOL    HW2 5292   1.574   0.444  13.448
 1514SOL     OW 5293   1.540   0.274  13.159
 1514SOL    HW1 5294   1.479   0.199  13.182
 1514SOL    HW2 5295   1.562   0.326  13.242
 1515SOL     OW 5296   1.303   0.838  13.076
 1515SOL    HW1 5297   1.337   0.745  13.091
 1515SOL    HW2 5298   1.321   0.865  12.981
 1516SOL     OW 5299   0.008   1.326  13.234
 1516SOL    HW1 5300  -0.085   1.347  13.203
 1516SOL    HW2 5301   0.018   1.227  13.247
 1517SOL     OW 5302   0.815   0.572  13.359
 1517SOL    HW1 5303   0.822   0.483  13.313
 1517SOL    HW2 5304   0.721   0.606  13.351
 1518SOL     OW 5305   0.473   0.500  13.225
 1518SOL    HW1 5306   0.534   0.580  13.229
 1518SOL    HW2 5307   0.378   0.531  13.232
 1519SOL     OW 5308   1.302   0.855  13.343
 1519SOL    HW1 5309   1.216   0.824  13.385
 1519SOL    HW2 5310   1.298   0.841  13.244
 1520SOL     OW 5311   1.726   0.135  13.557
 1520SOL    HW1 5312   1.799   0.118  13.490
 1520SOL    HW2 5313   1.695   0.048  13.595
 1521SOL     OW 5314   1.388   1.573  13.511
 1521SOL    HW1 5315   1.455   1.585  13.437
 1521SOL    HW2 5316   1.348   1.662  13.534
 1522SOL     OW 5317   1.280   0.927  13.706
 1522SOL    HW1 5318   1.340   0.846  13.708
 1522SOL    HW2 5319   1.320   0.996  13.646
 1523SOL     OW 5320   0.672   1.616  13.188
 1523SOL    HW1 5321   0.681   1.626  13.089
 1523SOL    HW2 5322   0.632   1.527  13.209
 1524SOL     OW 5323   1.841   0.175  13.997
 1524SOL    HW1 5324   1.880   0.090  13.961
 1524SOL    HW2 5325   1.743   0.177  13.978
 1525SOL     OW 5326   0.263   0.326  13.754
 1525SOL    HW1 5327   0.184   0.377  13.720
 1525SOL    HW2 5328   0.254   0.311  13.852
 1526SOL     OW 5329   1.194   1.612  13.065
 1526SOL    HW1 5330   1.200   1.519  13.102
 1526SOL    HW2 5331   1.135   1.612  12.985
 1527SOL     OW 5332   0.916   0.910  13.325
 1527SOL    HW1 5333   0.979   0.948  13.257
 1527SOL    HW2 5334   0.956   0.827  13.364
 1528SOL     OW 5335   1.504   1.607  13.078
 1528SOL    HW1 5336   1.412   1.644  13.085
 1528SOL    HW2 5337   1.542   1.627  12.988
 1529SOL     OW 5338   1.039   1.098  13.730
 1529SOL    HW1 5339   0.969   1.051  13.784
 1529SOL    HW2 5340   1.098   1.030  13.687
 1530SOL     OW 5341   0.590   1.487  13.525
 1530SOL    HW1 5342   0.632   1.429  13.455
 1530SOL    HW2 5343   0.546   1.566  13.481
 1531SOL     OW 5344   0.255   1.348  13.324
 1531SOL    HW1 5345   0.159   1.349  13.297
 1531SOL    HW2 5346   0.267   1.401  13.408
 1532SOL     OW 5347   0.075   0.345  13.067
 1532SOL    HW1 5348  -0.017   0.317  13.038
 1532SOL    HW2 5349   0.106   0.422  13.011
 1533SOL     OW 5350   0.072   0.166  13.352
 1533SOL    HW1 5351   0.055   0.249  13.298
 1533SOL    HW2 5352   0.162   0.129  13.330
 1534SOL     OW 5353   1.183   1.335  13.153
 1534SOL    HW1 5354   1.084   1.324  13.155
 1534SOL    HW2 5355   1.217   1.350  13.246
 1535SOL     OW 5356   1.225   0.325  13.483
 1535SOL    HW1 5357   1.290   0.251  13.472
 1535SOL    HW2 5358   1.245   0.375  13.567
 1536SOL     OW 5359   0.594   0.745  13.686
 1536SOL    HW1 5360   0.644   0.830  13.667
 1536SOL    HW2 5361   0.506   0.747  13.638
 1537SOL     OW 5362   0.859   1.374  13.050
 1537SOL    HW1 5363   0.813   1.389  13.138
 1537SOL    HW2 5364   0.903   1.459  13.020
 1538SOL     OW 5365   0.661   1.790  13.987
 1538SOL    HW1 5366   0.615   1.878  13.974
 1538SOL    HW2 5367   0.760   1.802  13.980
 1539SOL     OW 5368   0.859   0.956  13.895
 1539SOL    HW1 5369   0.913   0.887  13.943
 1539SOL    HW2 5370   0.827   1.025  13.961
 1540SOL     OW 5371   1.083   0.984  13.121
 1540SOL    HW1 5372   1.060   1.037  13.039
 1540SOL    HW2 5373   1.164   0.928  13.102
 1541SOL     OW 5374   0.079   1.240  13.687
 1541SOL    HW1 5375   0.078   1.193  13.775
 1541SOL    HW2 5376   0.161   1.212  13.636
 1542SOL     OW 5377   0.428   0.424  13.554
 1542SOL    HW1 5378   0.458   0.352  13.492
 1542SOL    HW2 5379   0.389   0.384  13.637
 1543SOL     OW 5380   1.705   1.487  14.138
 1543SOL    HW1 5381   1.612   1.462  14.111
 1543SOL    HW2 5382   1.731   1.437  14.220
 1544SOL     OW 5383   0.812   1.586  13.721
 1544SOL    HW1 5384   0.844   1.596  13.627
 1544SOL    HW2 5385   0.733   1.524  13.723
 1545SOL     OW 5386   0.770   1.330  13.335
 1545SOL    HW1 5387   0.724   1.243  13.352
 1545SOL    HW2 5388   0.861   1.327  13.376
 1546SOL     OW 5389   1.352   0.052  13.202
 1546SOL    HW1 5390   1.387   0.011  13.118
 1546SOL    HW2 5391   1.262   0.014  13.222
 1547SOL     OW 5392   1.300   0.453  13.725
 1547SOL    HW1 5393   1.241   0.533  13.729
 1547SOL    HW2 5394   1.315   0.418  13.818
 1548SOL     OW 5395   0.039   1.077  13.334
 1548SOL    HW1 5396   0.138   1.066  13.325
 1548SOL    HW2 5397  -0.001   0.991  13.366
 1549SOL     OW 5398   0.875   1.646  13.371
 1549SOL    HW1 5399   0.798   1.611  13.317
 1549SOL    HW2 5400   0.843   1.717  13.433
 1550SOL     OW 5401   0.230   2.490   0.113
 1550SOL    HW1 5402   0.137   2.488   0.150
 1550SOL    HW2 5403   0.231   2.451   0.021
 1551SOL     OW 5404   0.225   2.137   0.996
 1551SOL    HW1 5405   0.260   2.120   1.088
 1551SOL    HW2 5406   0.137   2.092   0.984
 1552SOL     OW 5407   0.019   2.230   0.647
 1552SOL    HW1 5408  -0.063   2.273   0.686
 1552SOL    HW2 5409  -0.009   2.157   0.584
 1553SOL     OW 5410   0.569   3.137   1.165
 1553SOL    HW1 5411   0.476   3.130   1.128
 1553SOL    HW2 5412   0.580   3.226   1.209
 1554SOL     OW 5413   1.555   3.373   0.703
 1554SOL    HW1 5414   1.498   3.357   0.784
 1554SOL    HW2 5415   1.496   3.383   0.623
 1555SOL     OW 5416   1.135   2.565   0.717
 1555SOL    HW1 5417   1.192   2.643   0.692
 1555SOL    HW2 5418   1.075   2.591   0.793
 1556SOL     OW 5419   1.755   2.469   0.231
 1556SOL    HW1 5420   1.743   2.456   0.132
 1556SOL    HW2 5421   1.725   2.388   0.280
 1557SOL     OW 5422   0.768   3.006   1.023
 1557SOL    HW1 5423   0.690   3.023   1.083
 1557SOL    HW2 5424   0.802   3.093   0.987
 1558SOL     OW 5425   0.850   2.660   1.823
 1558SOL    HW1 5426   0.846   2.736   1.888
 1558SOL    HW2 5427   0.872   2.696   1.732
 1559SOL     OW 5428   0.685   2.874   0.665
 1559SOL    HW1 5429   0.754   2.858   0.735
 1559SOL    HW2 5430   0.612   2.931   0.703
 1560SOL     OW 5431   0.686   3.023   1.803
 1560SOL    HW1 5432   0.746   3.102   1.817
 1560SOL    HW2 5433   0.600   3.054   1.762
 1561SOL     OW 5434   0.335   3.297   1.061
 1561SOL    HW1 5435   0.257   3.266   1.008
 1561SOL    HW2 5436   0.393   3.355   1.004
 1562SOL     OW 5437   1.460   3.367   1.339
 1562SOL    HW1 5438   1.484   3.461   1.365
 1562SOL    HW2 5439   1.444   3.313   1.421
 1563SOL     OW 5440   0.438   2.254   1.499
 1563SOL    HW1 5441   0.520   2.198   1.508
 1563SOL    HW2 5442   0.357   2.196   1.503
 1564SOL     OW 5443   1.603   2.309   0.737
 1564SOL    HW1 5444   1.529   2.355   0.687
 1564SOL    HW2 5445   1.654   2.377   0.790
 1565SOL     OW 5446   0.231   3.575   0.483
 1565SOL    HW1 5447   0.265   3.652   0.537
 1565SOL    HW2 5448   0.275   3.575   0.393
 1566SOL     OW 5449   1.127   3.203   1.690
 1566SOL    HW1 5450   1.174   3.203   1.778
 1566SOL    HW2 5451   1.079   3.116   1.679
 1567SOL     OW 5452   0.230   3.296   0.538
 1567SOL    HW1 5453   0.204   3.392   0.538
 1567SOL    HW2 5454   0.159   3.242   0.583
 1568SOL     OW 5455   0.240   2.953   0.886
 1568SOL    HW1 5456   0.254   2.869   0.938
 1568SOL    HW2 5457   0.185   3.017   0.941
 1569SOL     OW 5458   0.620   3.648   1.439
 1569SOL    HW1 5459   0.528   3.631   1.474
 1569SOL    HW2 5460   0.648   3.740   1.465
 1570SOL     OW 5461   0.606   2.826   0.123
 1570SOL    HW1 5462   0.613   2.910   0.069
 1570SOL    HW2 5463   0.652   2.839   0.211
 1571SOL     OW 5464   1.594   1.976   1.480
 1571SOL    HW1 5465   1.576   2.043   1.408
 1571SOL    HW2 5466   1.591   2.022   1.569
 1572SOL     OW 5467   0.122   2.505   0.563
 1572SOL    HW1 5468   0.077   2.417   0.580
 1572SOL    HW2 5469   0.121   2.559   0.647
 1573SOL     OW 5470   1.842   3.629   0.359
 1573SOL    HW1 5471   1.896   3.600   0.439
 1573SOL    HW2 5472   1.872   3.719   0.330
 1574SOL     OW 5473   0.027   3.458   0.117
 1574SOL    HW1 5474   0.008   3.362   0.138
 1574SOL    HW2 5475  -0.006   3.516   0.192
 1575SOL     OW 5476   1.689   2.784   0.612
 1575SOL    HW1 5477   1.784   2.755   0.620
 1575SOL    HW2 5478   1.681   2.849   0.537
 1576SOL     OW 5479   1.641   2.970   0.432
 1576SOL    HW1 5480   1.727   2.972   0.380
 1576SOL    HW2 5481   1.655   3.017   0.520
 1577SOL     OW 5482   0.113   2.599   1.597
 1577SOL    HW1 5483   0.201   2.586   1.642
 1577SOL    HW2 5484   0.100   2.696   1.575
 1578SOL     OW 5485   0.613   3.227   0.726
 1578SOL    HW1 5486   0.564   3.140   0.735
 1578SOL    HW2 5487   0.590   3.270   0.639
 1579SOL     OW 5488   1.293   3.090   1.423
 1579SOL    HW1 5489   1.330   3.017   1.365
 1579SOL    HW2 5490   1.345   3.095   1.508
 1580SOL     OW 5491   0.809   1.866   0.502
 1580SOL    HW1 5492   0.849   1.957   0.493
 1580SOL    HW2 5493   0.709   1.874   0.508
 1581SOL     OW 5494   0.197   2.838   1.264
 1581SOL    HW1 5495   0.286   2.793   1.250
 1581SOL    HW2 5496   0.124   2.773   1.245
 1582SOL     OW 5497   1.525   2.861   0.190
 1582SOL    HW1 5498   1.462   2.785   0.203
 1582SOL    HW2 5499   1.573   2.879   0.276
 1583SOL     OW 5500   1.187   3.654   1.616
 1583SOL    HW1 5501   1.211   3.714   1.540
 1583SOL    HW2 5502   1.194   3.559   1.586
 1584SOL     OW 5503   0.317   2.113   1.801
 1584SOL    HW1 5504   0.388   2.184   1.807
 1584SOL    HW2 5505   0.229   2.152   1.829
 1585SOL     OW 5506   1.466   3.279   0.953
 1585SOL    HW1 5507   1.407   3.285   1.033
 1585SOL    HW2 5508   1.451   3.191   0.907
 1586SOL     OW 5509   1.667   3.576   0.572
 1586SOL    HW1 5510   1.626   3.553   0.484
 1586SOL    HW2 5511   1.649   3.502   0.637
 1587SOL     OW 5512   0.598   2.591   0.270
 1587SOL    HW1 5513   0.622   2.660   0.202
 1587SOL    HW2 5514   0.520   2.624   0.324
 1588SOL     OW 5515   1.281   2.207   0.944
 1588SOL    HW1 5516   1.195   2.157   0.931
 1588SOL    HW2 5517   1.343   2.153   1.000
 1589SOL     OW 5518   1.576   3.524   0.307
 1589SOL    HW1 5519   1.665   3.570   0.310
 1589SOL    HW2 5520   1.555   3.500   0.212
 1590SOL     OW 5521   0.807   2.467   1.465
 1590SOL    HW1 5522   0.760   2.464   1.554
 1590SOL    HW2 5523   0.756   2.412   1.399
 1591SOL     OW 5524   1.394   2.331   1.674
 1591SOL    HW1 5525   1.374   2.374   1.762
 1591SOL    HW2 5526   1.472   2.269   1.683
 1592SOL     OW 5527   0.973   2.752   1.572
 1592SOL    HW1 5528   1.019   2.668   1.543
 1592SOL    HW2 5529   0.917   2.786   1.497
 1593SOL     OW 5530   0.991   2.272   1.242
 1593SOL    HW1 5531   0.914   2.306   1.296
 1593SOL    HW2 5532   0.957   2.221   1.163
 1594SOL     OW 5533   1.041   2.563   0.429
 1594SOL    HW1 5534   1.067   2.559   0.525
 1594SOL    HW2 5535   0.956   2.512   0.415
 1595SOL     OW 5536   0.076   2.673   0.789
 1595SOL    HW1 5537   0.175   2.661   0.798
 1595SOL    HW2 5538   0.052   2.768   0.810
 1596SOL     OW 5539   0.130   3.683   1.571
 1596SOL    HW1 5540   0.120   3.668   1.670
 1596SOL    HW2 5541   0.044   3.719   1.535
 1597SOL     OW 5542   0.865   2.210   0.195
 1597SOL    HW1 5543   0.924   2.273   0.146
 1597SOL    HW2 5544   0.884   2.116   0.166
 1598SOL     OW 5545   1.719   2.447   1.831
 1598SOL    HW1 5546   1.693   2.536   1.795
 1598SOL    HW2 5547   1.717   2.379   1.758
 1599SOL     OW 5548   1.362   3.006   0.545
 1599SOL    HW1 5549   1.445   2.977   0.497
 1599SOL    HW2 5550   1.313   3.073   0.489
 1600SOL     OW 5551   0.550   2.058   0.885
 1600SOL    HW1 5552   0.545   2.053   0.985
 1600SOL    HW2 5553   0.552   2.154   0.856
 1601SOL     OW 5554   1.008   3.318   0.477
 1601SOL    HW1 5555   0.962   3.390   0.425
 1601SOL    HW2 5556   1.004   3.338   0.575
 1602SOL     OW 5557   0.351   3.663   0.853
 1602SOL    HW1 5558   0.401   3.577   0.859
 1602SOL    HW2 5559   0.416   3.740   0.850
 1603SOL     OW 5560   1.795   2.928   0.873
 1603SOL    HW1 5561   1.733   2.913   0.797
 1603SOL    HW2 5562   1.743   2.939   0.958
 1604SOL     OW 5563   1.227   3.412   1.506
 1604SOL    HW1 5564   1.233   3.335   1.570
 1604SOL    HW2 5565   1.175   3.386   1.426
 1605SOL     OW 5566   0.321   2.805   0.242
 1605SOL    HW1 5567   0.403   2.844   0.200
 1605SOL    HW2 5568   0.294   2.723   0.193
 1606SOL     OW 5569   1.458   2.597   0.728
 1606SOL    HW1 5570   1.453   2.532   0.803
 1606SOL    HW2 5571   1.538   2.656   0.741
 1607SOL     OW 5572   0.461   3.128   1.727
 1607SOL    HW1 5573   0.411   3.129   1.641
 1607SOL    HW2 5574   0.398   3.110   1.803
 1608SOL     OW 5575   1.111   3.638   0.237
 1608SOL    HW1 5576   1.051   3.576   0.287
 1608SOL    HW2 5577   1.142   3.594   0.152
 1609SOL     OW 5578   0.202   2.147   1.498
 1609SOL    HW1 5579   0.122   2.207   1.485
 1609SOL    HW2 5580   0.192   2.098   1.584
 1610SOL     OW 5581   1.632   3.239   0.081
 1610SOL    HW1 5582   1.600   3.333   0.071
 1610SOL    HW2 5583   1.556   3.176   0.069
 1611SOL     OW 5584   0.464   3.605   0.323
 1611SOL    HW1 5585   0.497   3.644   0.409
 1611SOL    HW2 5586   0.540   3.598   0.258
 1612SOL     OW 5587   1.400   1.969   0.426
 1612SOL    HW1 5588   1.376   1.932   0.336
 1612SOL    HW2 5589   1.499   1.985   0.430
 1613SOL     OW 5590   0.249   3.647   1.241
 1613SOL    HW1 5591   0.306   3.582   1.291
 1613SOL    HW2 5592   0.233   3.614   1.148
 1614SOL     OW 5593   0.940   3.560   0.904
 1614SOL    HW1 5594   1.020   3.503   0.925
 1614SOL    HW2 5595   0.891   3.520   0.827
 1615SOL     OW 5596   0.382   2.562   0.480
 1615SOL    HW1 5597   0.427   2.472   0.477
 1615SOL    HW2 5598   0.288   2.551   0.513
 1616SOL     OW 5599   1.547   2.084   1.729
 1616SOL    HW1 5600   1.542   2.121   1.821
 1616SOL    HW2 5601   1.475   2.015   1.717
 1617SOL     OW 5602   0.781   2.126   1.749
 1617SOL    HW1 5603   0.848   2.065   1.792
 1617SOL    HW2 5604   0.708   2.145   1.814
 1618SOL     OW 5605   0.888   3.376   1.195
 1618SOL    HW1 5606   0.865   3.351   1.101
 1618SOL    HW2 5607   0.949   3.307   1.234
 1619SOL     OW 5608   1.351   2.452   1.433
 1619SOL    HW1 5609   1.379   2.409   1.518
 1619SOL    HW2 5610   1.376   2.548   1.434
 1620SOL     OW 5611   0.803   3.264   0.924
 1620SOL    HW1 5612   0.893   3.278   0.882
 1620SOL    HW2 5613   0.732   3.266   0.853
 1621SOL     OW 5614   0.922   2.365   0.899
 1621SOL    HW1 5615   0.897   2.356   0.803
 1621SOL    HW2 5616   0.970   2.283   0.930
 1622SOL     OW 5617   0.539   1.926   0.512
 1622SOL    HW1 5618   0.458   1.927   0.570
 1622SOL    HW2 5619   0.542   2.009   0.457
 1623SOL     OW 5620   1.434   3.050   0.041
 1623SOL    HW1 5621   1.466   2.974   0.098
 1623SOL    HW2 5622   1.342   3.077   0.071
 1624SOL     OW 5623   0.297   1.897   0.171
 1624SOL    HW1 5624   0.346   1.981   0.150
 1624SOL    HW2 5625   0.359   1.832   0.216
 1625SOL     OW 5626   0.935   2.098   0.480
 1625SOL    HW1 5627   0.887   2.139   0.402
 1625SOL    HW2 5628   1.034   2.096   0.461
 1626SOL     OW 5629   1.076   2.545   1.464
 1626SOL    HW1 5630   0.996   2.484   1.467
 1626SOL    HW2 5631   1.157   2.492   1.440
 1627SOL     OW 5632   1.227   3.432   0.793
 1627SOL    HW1 5633   1.248   3.506   0.728
 1627SOL    HW2 5634   1.295   3.432   0.866
 1628SOL     OW 5635   0.459   3.014   0.741
 1628SOL    HW1 5636   0.388   2.987   0.806
 1628SOL    HW2 5637   0.433   2.986   0.648
 1629SOL     OW 5638   1.271   3.659   0.591
 1629SOL    HW1 5639   1.315   3.723   0.527
 1629SOL    HW2 5640   1.221   3.711   0.661
 1630SOL     OW 5641   1.032   2.411   0.016
 1630SOL    HW1 5642   0.991   2.493  -0.023
 1630SOL    HW2 5643   1.096   2.437   0.089
 1631SOL     OW 5644   0.078   2.418   1.386
 1631SOL    HW1 5645   0.170   2.417   1.345
 1631SOL    HW2 5646   0.072   2.492   1.453
 1632SOL     OW 5647   0.561   2.084   1.147
 1632SOL    HW1 5648   0.599   2.000   1.184
 1632SOL    HW2 5649   0.473   2.103   1.191
 1633SOL     OW 5650   0.866   2.316   0.642
 1633SOL    HW1 5651   0.834   2.388   0.580
 1633SOL    HW2 5652   0.890   2.235   0.589
 1634SOL     OW 5653   1.017   1.901   0.753
 1634SOL    HW1 5654   0.945   1.906   0.684
 1634SOL    HW2 5655   0.993   1.832   0.822
 1635SOL     OW 5656   1.429   3.035   0.867
 1635SOL    HW1 5657   1.374   2.951   0.860
 1635SOL    HW2 5658   1.455   3.064   0.775
 1636SOL     OW 5659   1.466   2.452   0.992
 1636SOL    HW1 5660   1.436   2.357   0.999
 1636SOL    HW2 5661   1.539   2.468   1.058
 1637SOL     OW 5662   1.857   2.695   0.377
 1637SOL    HW1 5663   1.899   2.631   0.441
 1637SOL    HW2 5664   1.819   2.644   0.299
 1638SOL     OW 5665   0.488   3.247   0.174
 1638SOL    HW1 5666   0.401   3.232   0.221
 1638SOL    HW2 5667   0.471   3.273   0.079
 1639SOL     OW 5668   1.664   3.142   0.657
 1639SOL    HW1 5669   1.763   3.150   0.671
 1639SOL    HW2 5670   1.619   3.226   0.688
 1640SOL     OW 5671   1.390   2.437   0.078
 1640SOL    HW1 5672   1.336   2.416   0.159
 1640SOL    HW2 5673   1.481   2.396   0.087
 1641SOL     OW 5674   0.527   2.118   0.328
 1641SOL    HW1 5675   0.554   2.059   0.253
 1641SOL    HW2 5676   0.527   2.213   0.297
 1642SOL     OW 5677   1.754   3.085   1.588
 1642SOL    HW1 5678   1.845   3.046   1.575
 1642SOL    HW2 5679   1.762   3.181   1.612
 1643SOL     OW 5680   1.064   3.209   1.340
 1643SOL    HW1 5681   0.984   3.186   1.395
 1643SOL    HW2 5682   1.147   3.183   1.389
 1644SOL     OW 5683   1.592   3.491   1.625
 1644SOL    HW1 5684   1.619   3.525   1.535
 1644SOL    HW2 5685   1.671   3.453   1.671
 1645SOL     OW 5686   1.111   3.057   1.100
 1645SOL    HW1 5687   1.071   3.101   1.181
 1645SOL    HW2 5688   1.070   3.094   1.017
 1646SOL     OW 5689   1.638   2.961   1.079
 1646SOL    HW1 5690   1.643   3.042   1.138
 1646SOL    HW2 5691   1.552   2.963   1.028
 1647SOL     OW 5692   0.915   1.951   1.402
 1647SOL    HW1 5693   0.940   1.931   1.307
 1647SOL    HW2 5694   0.987   2.007   1.444
 1648SOL     OW 5695   0.980   2.978   1.719
 1648SOL    HW1 5696   0.881   2.984   1.729
 1648SOL    HW2 5697   1.003   2.898   1.663
 1649SOL     OW 5698   0.705   2.912   0.368
 1649SOL    HW1 5699   0.691   2.919   0.467
 1649SOL    HW2 5700   0.789   2.861   0.350
 1650SOL     OW 5701   0.410   2.675   1.251
 1650SOL    HW1 5702   0.496   2.687   1.301
 1650SOL    HW2 5703   0.368   2.588   1.278
 1651SOL     OW 5704   1.274   2.248   1.262
 1651SOL    HW1 5705   1.295   2.322   1.326
 1651SOL    HW2 5706   1.185   2.265   1.219
 1652SOL     OW 5707   0.064   3.426   1.331
 1652SOL    HW1 5708   0.018   3.508   1.297
 1652SOL    HW2 5709   0.162   3.445   1.340
 1653SOL     OW 5710   0.367   2.962   0.501
 1653SOL    HW1 5711   0.360   3.045   0.445
 1653SOL    HW2 5712   0.371   2.882   0.441
 1654SOL     OW 5713   0.566   2.399   0.865
 1654SOL    HW1 5714   0.578   2.465   0.791
 1654SOL    HW2 5715   0.612   2.433   0.948
 1655SOL     OW 5716   1.252   3.210   0.388
 1655SOL    HW1 5717   1.302   3.287   0.428
 1655SOL    HW2 5718   1.157   3.212   0.420
 1656SOL     OW 5719   1.272   3.307   1.142
 1656SOL    HW1 5720   1.319   3.320   1.229
 1656SOL    HW2 5721   1.206   3.233   1.151
 1657SOL     OW 5722   1.582   2.501   0.472
 1657SOL    HW1 5723   1.551   2.562   0.545
 1657SOL    HW2 5724   1.632   2.553   0.403
 1658SOL     OW 5725   0.354   3.372   1.329
 1658SOL    HW1 5726   0.333   3.328   1.242
 1658SOL    HW2 5727   0.451   3.398   1.332
 1659SOL     OW 5728   0.402   2.613   1.598
 1659SOL    HW1 5729   0.470   2.668   1.551
 1659SOL    HW2 5730   0.442   2.525   1.625
 1660SOL     OW 5731   1.587   2.641   1.670
 1660SOL    HW1 5732   1.495   2.679   1.665
 1660SOL    HW2 5733   1.647   2.688   1.605
 1661SOL     OW 5734   1.013   1.967   1.770
 1661SOL    HW1 5735   1.019   2.052   1.718
 1661SOL    HW2 5736   1.045   1.891   1.713
 1662SOL     OW 5737   0.504   1.912   1.740
 1662SOL    HW1 5738   0.462   1.855   1.670
 1662SOL    HW2 5739   0.438   1.981   1.772
 1663SOL     OW 5740   0.573   2.732   1.029
 1663SOL    HW1 5741   0.617   2.821   1.020
 1663SOL    HW2 5742   0.510   2.732   1.106
 1664SOL     OW 5743   1.360   2.724   1.045
 1664SOL    HW1 5744   1.285   2.724   0.979
 1664SOL    HW2 5745   1.397   2.632   1.054
 1665SOL     OW 5746   1.209   2.387   0.275
 1665SOL    HW1 5747   1.222   2.303   0.329
 1665SOL    HW2 5748   1.180   2.461   0.335
 1666SOL     OW 5749   0.307   2.075   1.231
 1666SOL    HW1 5750   0.284   2.112   1.321
 1666SOL    HW2 5751   0.277   1.980   1.225
 1667SOL     OW 5752   0.037   3.172   1.282
 1667SOL    HW1 5753   0.090   3.123   1.350
 1667SOL    HW2 5754   0.059   3.270   1.287
 1668SOL     OW 5755   0.732   2.496   1.064
 1668SOL    HW1 5756   0.791   2.470   0.988
 1668SOL    HW2 5757   0.704   2.592   1.053
 1669SOL     OW 5758   1.728   2.797   1.854
 1669SOL    HW1 5759   1.682   2.790   1.765
 1669SOL    HW2 5760   1.666   2.841   1.920
 1670SOL     OW 5761   0.307   1.925   0.618
 1670SOL    HW1 5762   0.296   2.019   0.651
 1670SOL    HW2 5763   0.302   1.862   0.695
 1671SOL     OW 5764   1.622   2.229   0.374
 1671SOL    HW1 5765   1.624   2.153   0.438
 1671SOL    HW2 5766   1.574   2.306   0.414
 1672SOL     OW 5767   1.023   2.628   0.966
 1672SOL    HW1 5768   1.038   2.649   1.062
 1672SOL    HW2 5769   0.993   2.533   0.957
 1673SOL     OW 5770   0.980   3.435   1.700
 1673SOL    HW1 5771   0.960   3.479   1.612
 1673SOL    HW2 5772   1.019   3.344   1.684
 1674SOL     OW 5773   1.859   3.380   1.605
 1674SOL    HW1 5774   1.873   3.407   1.510
 1674SOL    HW2 5775   1.942   3.402   1.658
 1675SOL     OW 5776   0.350   2.760   1.804
 1675SOL    HW1 5777   0.426   2.804   1.852
 1675SOL    HW2 5778   0.385   2.713   1.722
 1676SOL     OW 5779   1.540   2.136   0.125
 1676SOL    HW1 5780   1.479   2.061   0.148
 1676SOL    HW2 5781   1.562   2.188   0.208
 1677SOL     OW 5782   1.303   2.700   0.042
 1677SOL    HW1 5783   1.337   2.607   0.057
 1677SOL    HW2 5784   1.321   2.727  -0.053
 1678SOL     OW 5785   1.068   3.195   0.849
 1678SOL    HW1 5786   1.075   3.111   0.794
 1678SOL    HW2 5787   1.130   3.264   0.813
 1679SOL     OW 5788   0.319   2.672   0.949
 1679SOL    HW1 5789   0.412   2.708   0.954
 1679SOL    HW2 5790   0.313   2.587   1.001
 1680SOL     OW 5791   0.339   2.371   1.006
 1680SOL    HW1 5792   0.287   2.288   0.989
 1680SOL    HW2 5793   0.416   2.376   0.942
 1681SOL     OW 5794   1.138   2.242   1.678
 1681SOL    HW1 5795   1.093   2.305   1.742
 1681SOL    HW2 5796   1.231   2.273   1.661
 1682SOL     OW 5797   1.160   2.069   1.477
 1682SOL    HW1 5798   1.160   2.133   1.554
 1682SOL    HW2 5799   1.188   2.117   1.394
 1683SOL     OW 5800   0.008   3.188   0.200
 1683SOL    HW1 5801  -0.085   3.209   0.169
 1683SOL    HW2 5802   0.018   3.089   0.213
 1684SOL     OW 5803   0.088   3.663   0.927
 1684SOL    HW1 5804   0.046   3.577   0.900
 1684SOL    HW2 5805   0.182   3.666   0.893
 1685SOL     OW 5806   0.504   3.430   0.910
 1685SOL    HW1 5807   0.570   3.504   0.919
 1685SOL    HW2 5808   0.548   3.351   0.868
 1686SOL     OW 5809   1.002   2.658   1.238
 1686SOL    HW1 5810   1.043   2.626   1.324
 1686SOL    HW2 5811   0.906   2.631   1.235
 1687SOL     OW 5812   0.040   2.406   1.114
 1687SOL    HW1 5813   0.125   2.373   1.073
 1687SOL    HW2 5814   0.053   2.421   1.212
 1688SOL     OW 5815   0.189   2.382   1.722
 1688SOL    HW1 5816   0.248   2.342   1.652
 1688SOL    HW2 5817   0.131   2.453   1.681
 1689SOL     OW 5818   1.369   2.812   1.660
 1689SOL    HW1 5819   1.408   2.901   1.680
 1689SOL    HW2 5820   1.379   2.792   1.563
 1690SOL     OW 5821   0.815   2.434   0.325
 1690SOL    HW1 5822   0.822   2.345   0.279
 1690SOL    HW2 5823   0.721   2.468   0.317
 1691SOL     OW 5824   1.657   2.466   1.206
 1691SOL    HW1 5825   1.619   2.397   1.268
 1691SOL    HW2 5826   1.739   2.430   1.162
 1692SOL     OW 5827   0.252   3.426   1.744
 1692SOL    HW1 5828   0.222   3.483   1.820
 1692SOL    HW2 5829   0.245   3.329   1.770
 1693SOL     OW 5830   0.671   2.326   1.269
 1693SOL    HW1 5831   0.637   2.237   1.239
 1693SOL    HW2 5832   0.697   2.380   1.189
 1694SOL     OW 5833   0.930   3.540   1.465
 1694SOL    HW1 5834   0.906   3.522   1.370
 1694SOL    HW2 5835   0.960   3.634   1.475
 1695SOL     OW 5836   0.473   2.362   0.191
 1695SOL    HW1 5837   0.534   2.442   0.195
 1695SOL    HW2 5838   0.378   2.393   0.198
 1696SOL     OW 5839   0.159   2.999   1.466
 1696SOL    HW1 5840   0.181   2.938   1.542
 1696SOL    HW2 5841   0.169   2.950   1.380
 1697SOL     OW 5842   1.347   2.921   1.234
 1697SOL    HW1 5843   1.371   2.858   1.160
 1697SOL    HW2 5844   1.257   2.961   1.216
 1698SOL     OW 5845   1.302   2.717   0.309
 1698SOL    HW1 5846   1.216   2.686   0.351
 1698SOL    HW2 5847   1.298   2.703   0.210
 1699SOL     OW 5848   1.759   3.609   1.154
 1699SOL    HW1 5849   1.820   3.639   1.081
 1699SOL    HW2 5850   1.721   3.520   1.132
 1700SOL     OW 5851   1.252   3.593   1.128
 1700SOL    HW1 5852   1.336   3.598   1.074
 1700SOL    HW2 5853   1.229   3.497   1.146
 1701SOL     OW 5854   0.083   3.120   1.022
 1701SOL    HW1 5855   0.078   3.119   1.122
 1701SOL    HW2 5856   0.000   3.079   0.984
 1702SOL     OW 5857   0.688   3.524   1.716
 1702SOL    HW1 5858   0.632   3.605   1.725
 1702SOL    HW2 5859   0.740   3.528   1.630
 1703SOL     OW 5860   0.903   1.948   0.133
 1703SOL    HW1 5861   0.954   1.949   0.047
 1703SOL    HW2 5862   0.959   1.906   0.204
 1704SOL     OW 5863   1.388   3.435   0.477
 1704SOL    HW1 5864   1.455   3.447   0.403
 1704SOL    HW2 5865   1.348   3.524   0.500
 1705SOL     OW 5866   0.130   3.656   1.851
 1705SOL    HW1 5867   0.089   3.582   1.904
 1705SOL    HW2 5868   0.194   3.707   1.909
 1706SOL     OW 5869   1.280   2.789   0.672
 1706SOL    HW1 5870   1.340   2.708   0.674
 1706SOL    HW2 5871   1.320   2.858   0.612
 1707SOL     OW 5872   0.830   3.135   1.422
 1707SOL    HW1 5873   0.825   3.168   1.517
 1707SOL    HW2 5874   0.744   3.154   1.376
 1708SOL     OW 5875   0.672   3.478   0.154
 1708SOL    HW1 5876   0.681   3.488   0.055
 1708SOL    HW2 5877   0.632   3.389   0.175
 1709SOL     OW 5878   1.650   3.582   1.394
 1709SOL    HW1 5879   1.703   3.592   1.310
 1709SOL    HW2 5880   1.623   3.672   1.428
 1710SOL     OW 5881   0.263   2.188   0.720
 1710SOL    HW1 5882   0.184   2.239   0.686
 1710SOL    HW2 5883   0.254   2.173   0.818
 1711SOL     OW 5884   1.194   3.474   0.031
 1711SOL    HW1 5885   1.200   3.381   0.068
 1711SOL    HW2 5886   1.135   3.474  -0.049
 1712SOL     OW 5887   0.822   2.864   1.372
 1712SOL    HW1 5888   0.862   2.863   1.280
 1712SOL    HW2 5889   0.832   2.956   1.412
 1713SOL     OW 5890   0.916   2.772   0.291
 1713SOL    HW1 5891   0.979   2.810   0.223
 1713SOL    HW2 5892   0.956   2.689   0.330
 1714SOL     OW 5893   1.504   3.469   0.044
 1714SOL    HW1 5894   1.412   3.506   0.051
 1714SOL    HW2 5895   1.542   3.489  -0.046
 1715SOL     OW 5896   0.372   3.150   1.490
 1715SOL    HW1 5897   0.359   3.243   1.456
 1715SOL    HW2 5898   0.288   3.098   1.477
 1716SOL     OW 5899   1.614   3.154   1.289
 1716SOL    HW1 5900   1.674   3.157   1.369
 1716SOL    HW2 5901   1.539   3.218   1.302
 1717SOL     OW 5902   1.039   2.960   0.696
 1717SOL    HW1 5903   0.969   2.913   0.750
 1717SOL    HW2 5904   1.098   2.892   0.653
 1718SOL     OW 5905   1.014   2.098   0.971
 1718SOL    HW1 5906   1.006   2.062   0.878
 1718SOL    HW2 5907   1.012   2.022   1.036
 1719SOL     OW 5908   0.590   3.349   0.491
 1719SOL    HW1 5909   0.632   3.291   0.421
 1719SOL    HW2 5910   0.546   3.428   0.447
 1720SOL     OW 5911   1.709   2.247   1.381
 1720SOL    HW1 5912   1.782   2.316   1.385
 1720SOL    HW2 5913   1.737   2.172   1.322
 1721SOL     OW 5914   0.255   3.210   0.290
 1721SOL    HW1 5915   0.159   3.211   0.263
 1721SOL    HW2 5916   0.267   3.263   0.374
 1722SOL     OW 5917   0.105   2.875   1.726
 1722SOL    HW1 5918   0.028   2.842   1.780
 1722SOL    HW2 5919   0.190   2.845   1.768
 1723SOL     OW 5920   0.672   2.065   1.489
 1723SOL    HW1 5921   0.762   2.049   1.449
 1723SOL    HW2 5922   0.680   2.070   1.588
 1724SOL     OW 5923   0.075   2.207   0.033
 1724SOL    HW1 5924  -0.017   2.179   0.004
 1724SOL    HW2 5925   0.106   2.284  -0.023
 1725SOL     OW 5926   1.440   2.718   1.398
 1725SOL    HW1 5927   1.383   2.770   1.335
 1725SOL    HW2 5928   1.536   2.730   1.374
 1726SOL     OW 5929   0.072   2.028   0.318
 1726SOL    HW1 5930   0.055   2.111   0.264
 1726SOL    HW2 5931   0.162   1.991   0.296
 1727SOL     OW 5932   1.183   3.197   0.119
 1727SOL    HW1 5933   1.084   3.186   0.121
 1727SOL    HW2 5934   1.217   3.212   0.212
 1728SOL     OW 5935   0.613   2.704   1.431
 1728SOL    HW1 5936   0.669   2.785   1.414
 1728SOL    HW2 5937   0.672   2.624   1.434
 1729SOL     OW 5938   1.493   3.629   0.959
 1729SOL    HW1 5939   1.526   3.693   0.890
 1729SOL    HW2 5940   1.559   3.623   1.034
 1730SOL     OW 5941   0.716   2.427   1.708
 1730SOL    HW1 5942   0.735   2.492   1.782
 1730SOL    HW2 5943   0.776   2.347   1.717
 1731SOL     OW 5944   1.450   3.082   1.633
 1731SOL    HW1 5945   1.441   3.072   1.732
 1731SOL    HW2 5946   1.546   3.075   1.607
 1732SOL     OW 5947   0.390   3.603   1.560
 1732SOL    HW1 5948   0.299   3.644   1.558
 1732SOL    HW2 5949   0.383   3.509   1.592
 1733SOL     OW 5950   1.674   2.745   1.254
 1733SOL    HW1 5951   1.647   2.656   1.217
 1733SOL    HW2 5952   1.675   2.813   1.181
 1734SOL     OW 5953   1.225   2.187   0.449
 1734SOL    HW1 5954   1.290   2.113   0.438
 1734SOL    HW2 5955   1.245   2.237   0.533
 1735SOL     OW 5956   0.594   2.607   0.652
 1735SOL    HW1 5957   0.644   2.692   0.633
 1735SOL    HW2 5958   0.506   2.609   0.604
 1736SOL     OW 5959   1.777   2.204   1.642
 1736SOL    HW1 5960   1.760   2.235   1.548
 1736SOL    HW2 5961   1.693   2.167   1.680
 1737SOL     OW 5962   1.730   2.796   1.517
 1737SOL    HW1 5963   1.768   2.887   1.532
 1737SOL    HW2 5964   1.722   2.779   1.418
 1738SOL     OW 5965   0.859   3.236   0.016
 1738SOL    HW1 5966   0.813   3.251   0.104
 1738SOL    HW2 5967   0.903   3.321  -0.014
 1739SOL     OW 5968   0.661   3.652   0.953
 1739SOL    HW1 5969   0.615   3.740   0.940
 1739SOL    HW2 5970   0.760   3.664   0.946
 1740SOL     OW 5971   0.859   2.818   0.861
 1740SOL    HW1 5972   0.913   2.749   0.909
 1740SOL    HW2 5973   0.827   2.887   0.927
 1741SOL     OW 5974   1.083   2.846   0.087
 1741SOL    HW1 5975   1.060   2.899   0.005
 1741SOL    HW2 5976   1.164   2.790   0.068
 1742SOL     OW 5977   1.861   3.431   0.851
 1742SOL    HW1 5978   1.790   3.419   0.781
 1742SOL    HW2 5979   1.862   3.352   0.911
 1743SOL     OW 5980   0.221   3.176   1.844
 1743SOL    HW1 5981   0.156   3.103   1.823
 1743SOL    HW2 5982   0.225   3.190   1.942
 1744SOL     OW 5983   0.079   3.102   0.653
 1744SOL    HW1 5984   0.078   3.055   0.741
 1744SOL    HW2 5985   0.161   3.074   0.602
 1745SOL     OW 5986   0.672   3.253   1.624
 1745SOL    HW1 5987   0.594   3.203   1.662
 1745SOL    HW2 5988   0.669   3.348   1.655
 1746SOL     OW 5989   0.428   2.286   0.520
 1746SOL    HW1 5990   0.458   2.214   0.458
 1746SOL    HW2 5991   0.389   2.246   0.603
 1747SOL     OW 5992   1.705   3.349   1.104
 1747SOL    HW1 5993   1.612   3.324   1.077
 1747SOL    HW2 5994   1.731   3.299   1.186
 1748SOL     OW 5995   0.317   2.409   1.280
 1748SOL    HW1 5996   0.355   2.350   1.352
 1748SOL    HW2 5997   0.357   2.383   1.192
 1749SOL     OW 5998   0.812   3.448   0.687
 1749SOL    HW1 5999   0.844   3.458   0.593
 1749SOL    HW2 6000   0.733   3.386   0.689
 1750SOL     OW 6001   1.424   2.076   1.112
 1750SOL    HW1 6002   1.476   2.011   1.167
 1750SOL    HW2 6003   1.375   2.139   1.173
 1751SOL     OW 6004   1.001   1.896   1.154
 1751SOL    HW1 6005   0.938   1.824   1.123
 1751SOL    HW2 6006   1.094   1.860   1.154
 1752SOL     OW 6007   0.770   3.192   0.301
 1752SOL    HW1 6008   0.724   3.105   0.318
 1752SOL    HW2 6009   0.861   3.189   0.342
 1753SOL     OW 6010   0.618   3.429   1.284
 1753SOL    HW1 6011   0.613   3.511   1.341
 1753SOL    HW2 6012   0.707   3.426   1.239
 1754SOL     OW 6013   1.352   1.914   0.168
 1754SOL    HW1 6014   1.387   1.873   0.084
 1754SOL    HW2 6015   1.262   1.876   0.188
 1755SOL     OW 6016   1.300   2.315   0.691
 1755SOL    HW1 6017   1.241   2.395   0.695
 1755SOL    HW2 6018   1.315   2.280   0.784
 1756SOL     OW 6019   1.593   2.083   0.882
 1756SOL    HW1 6020   1.509   2.082   0.936
 1756SOL    HW2 6021   1.595   2.166   0.826
 1757SOL     OW 6022   0.039   2.939   0.300
 1757SOL    HW1 6023   0.138   2.928   0.291
 1757SOL    HW2 6024  -0.001   2.853   0.332
 1758SOL     OW 6025   0.875   3.508   0.337
 1758SOL    HW1 6026   0.798   3.473   0.283
 1758SOL    HW2 6027   0.843   3.579   0.399
 1759SOL     OW 6028   0.230   2.490   1.975
 1759SOL    HW1 6029   0.137   2.488   2.012
 1759SOL    HW2 6030   0.231   2.451   1.883
 1760SOL     OW 6031   0.225   2.137   2.858
 1760SOL    HW1 6032   0.260   2.120   2.950
 1760SOL    HW2 6033   0.137   2.092   2.846
 1761SOL     OW 6034   0.019   2.230   2.509
 1761SOL    HW1 6035  -0.063   2.273   2.548
 1761SOL    HW2 6036  -0.009   2.157   2.446
 1762SOL     OW 6037   0.569   3.137   3.027
 1762SOL    HW1 6038   0.476   3.130   2.990
 1762SOL    HW2 6039   0.580   3.226   3.071
 1763SOL     OW 6040   1.555   3.373   2.565
 1763SOL    HW1 6041   1.498   3.357   2.646
 1763SOL    HW2 6042   1.496   3.383   2.485
 1764SOL     OW 6043   1.135   2.565   2.579
 1764SOL    HW1 6044   1.192   2.643   2.554
 1764SOL    HW2 6045   1.075   2.591   2.655
 1765SOL     OW 6046   1.755   2.469   2.093
 1765SOL    HW1 6047   1.743   2.456   1.994
 1765SOL    HW2 6048   1.725   2.388   2.142
 1766SOL     OW 6049   0.768   3.006   2.885
 1766SOL    HW1 6050   0.690   3.023   2.945
 1766SOL    HW2 6051   0.802   3.093   2.849
 1767SOL     OW 6052   0.850   2.660   3.685
 1767SOL    HW1 6053   0.846   2.736   3.750
 1767SOL    HW2 6054   0.872   2.696   3.594
 1768SOL     OW 6055   0.685   2.874   2.527
 1768SOL    HW1 6056   0.754   2.858   2.597
 1768SOL    HW2 6057   0.612   2.931   2.565
 1769SOL     OW 6058   0.686   3.023   3.665
 1769SOL    HW1 6059   0.746   3.102   3.679
 1769SOL    HW2 6060   0.600   3.054   3.624
 1770SOL     OW 6061   0.335   3.297   2.923
 1770SOL    HW1 6062   0.257   3.266   2.870
 1770SOL    HW2 6063   0.393   3.355   2.866
 1771SOL     OW 6064   1.460   3.367   3.201
 1771SOL    HW1 6065   1.484   3.461   3.227
 1771SOL    HW2 6066   1.444   3.313   3.283
 1772SOL     OW 6067   0.438   2.254   3.361
 1772SOL    HW1 6068   0.520   2.198   3.370
 1772SOL    HW2 6069   0.357   2.196   3.365
 1773SOL     OW 6070   1.603   2.309   2.599
 1773SOL    HW1 6071   1.529   2.355   2.549
 1773SOL    HW2 6072   1.654   2.377   2.652
 1774SOL     OW 6073   0.231   3.575   2.345
 1774SOL    HW1 6074   0.265   3.652   2.399
 1774SOL    HW2 6075   0.275   3.575   2.255
 1775SOL     OW 6076   1.127   3.203   3.552
 1775SOL    HW1 6077   1.174   3.203   3.640
 1775SOL    HW2 6078   1.079   3.116   3.541
 1776SOL     OW 6079   0.230   3.296   2.400
 1776SOL    HW1 6080   0.204   3.392   2.400
 1776SOL    HW2 6081   0.159   3.242   2.445
 1777SOL     OW 6082   0.240   2.953   2.748
 1777SOL    HW1 6083   0.254   2.869   2.800
 1777SOL    HW2 6084   0.185   3.017   2.803
 1778SOL     OW 6085   0.620   3.648   3.301
 1778SOL    HW1 6086   0.528   3.631   3.336
 1778SOL    HW2 6087   0.648   3.740   3.327
 1779SOL     OW 6088   0.606   2.826   1.985
 1779SOL    HW1 6089   0.613   2.910   1.931
 1779SOL    HW2 6090   0.652   2.839   2.073
 1780SOL     OW 6091   1.594   1.976   3.342
 1780SOL    HW1 6092   1.576   2.043   3.270
 1780SOL    HW2 6093   1.591   2.022   3.431
 1781SOL     OW 6094   0.122   2.505   2.425
 1781SOL    HW1 6095   0.077   2.417   2.442
 1781SOL    HW2 6096   0.121   2.559   2.509
 1782SOL     OW 6097   1.842   3.629   2.221
 1782SOL    HW1 6098   1.896   3.600   2.301
 1782SOL    HW2 6099   1.872   3.719   2.192
 1783SOL     OW 6100   0.027   3.458   1.979
 1783SOL    HW1 6101   0.008   3.362   2.000
 1783SOL    HW2 6102  -0.006   3.516   2.054
 1784SOL     OW 6103   1.689   2.784   2.474
 1784SOL    HW1 6104   1.784   2.755   2.482
 1784SOL    HW2 6105   1.681   2.849   2.399
 1785SOL     OW 6106   1.641   2.970   2.294
 1785SOL    HW1 6107   1.727   2.972   2.242
 1785SOL    HW2 6108   1.655   3.017   2.382
 1786SOL     OW 6109   0.113   2.599   3.459
 1786SOL    HW1 6110   0.201   2.586   3.504
 1786SOL    HW2 6111   0.100   2.696   3.437
 1787SOL     OW 6112   0.613   3.227   2.588
 1787SOL    HW1 6113   0.564   3.140   2.597
 1787SOL    HW2 6114   0.590   3.270   2.501
 1788SOL     OW 6115   1.293   3.090   3.285
 1788SOL    HW1 6116   1.330   3.017   3.227
 1788SOL    HW2 6117   1.345   3.095   3.370
 1789SOL     OW 6118   0.809   1.866   2.364
 1789SOL    HW1 6119   0.849   1.957   2.355
 1789SOL    HW2 6120   0.709   1.874   2.370
 1790SOL     OW 6121   0.197   2.838   3.126
 1790SOL    HW1 6122   0.286   2.793   3.112
 1790SOL    HW2 6123   0.124   2.773   3.107
 1791SOL     OW 6124   1.525   2.861   2.052
 1791SOL    HW1 6125   1.462   2.785   2.065
 1791SOL    HW2 6126   1.573   2.879   2.138
 1792SOL     OW 6127   1.187   3.654   3.478
 1792SOL    HW1 6128   1.211   3.714   3.402
 1792SOL    HW2 6129   1.194   3.559   3.448
 1793SOL     OW 6130   0.317   2.113   3.663
 1793SOL    HW1 6131   0.388   2.184   3.669
 1793SOL    HW2 6132   0.229   2.152   3.691
 1794SOL     OW 6133   1.466   3.279   2.815
 1794SOL    HW1 6134   1.407   3.285   2.895
 1794SOL    HW2 6135   1.451   3.191   2.769
 1795SOL     OW 6136   1.667   3.576   2.434
 1795SOL    HW1 6137   1.626   3.553   2.346
 1795SOL    HW2 6138   1.649   3.502   2.499
 1796SOL     OW 6139   0.598   2.591   2.132
 1796SOL    HW1 6140   0.622   2.660   2.064
 1796SOL    HW2 6141   0.520   2.624   2.186
 1797SOL     OW 6142   1.281   2.207   2.806
 1797SOL    HW1 6143   1.195   2.157   2.793
 1797SOL    HW2 6144   1.343   2.153   2.862
 1798SOL     OW 6145   1.576   3.524   2.169
 1798SOL    HW1 6146   1.665   3.570   2.172
 1798SOL    HW2 6147   1.555   3.500   2.074
 1799SOL     OW 6148   0.807   2.467   3.327
 1799SOL    HW1 6149   0.760   2.464   3.416
 1799SOL    HW2 6150   0.756   2.412   3.261
 1800SOL     OW 6151   1.394   2.331   3.536
 1800SOL    HW1 6152   1.374   2.374   3.624
 1800SOL    HW2 6153   1.472   2.269   3.545
 1801SOL     OW 6154   0.973   2.752   3.434
 1801SOL    HW1 6155   1.019   2.668   3.405
 1801SOL    HW2 6156   0.917   2.786   3.359
 1802SOL     OW 6157   0.991   2.272   3.104
 1802SOL    HW1 6158   0.914   2.306   3.158
 1802SOL    HW2 6159   0.957   2.221   3.025
 1803SOL     OW 6160   1.041   2.563   2.291
 1803SOL    HW1 6161   1.067   2.559   2.387
 1803SOL    HW2 6162   0.956   2.512   2.277
 1804SOL     OW 6163   0.076   2.673   2.651
 1804SOL    HW1 6164   0.175   2.661   2.660
 1804SOL    HW2 6165   0.052   2.768   2.672
 1805SOL     OW 6166   0.130   3.683   3.433
 1805SOL    HW1 6167   0.120   3.668   3.532
 1805SOL    HW2 6168   0.044   3.719   3.397
 1806SOL     OW 6169   0.865   2.210   2.057
 1806SOL    HW1 6170   0.924   2.273   2.008
 1806SOL    HW2 6171   0.884   2.116   2.028
 1807SOL     OW 6172   1.719   2.447   3.693
 1807SOL    HW1 6173   1.693   2.536   3.657
 1807SOL    HW2 6174   1.717   2.379   3.620
 1808SOL     OW 6175   1.362   3.006   2.407
 1808SOL    HW1 6176   1.445   2.977   2.359
 1808SOL    HW2 6177   1.313   3.073   2.351
 1809SOL     OW 6178   0.550   2.058   2.747
 1809SOL    HW1 6179   0.545   2.053   2.847
 1809SOL    HW2 6180   0.552   2.154   2.718
 1810SOL     OW 6181   1.008   3.318   2.339
 1810SOL    HW1 6182   0.962   3.390   2.287
 1810SOL    HW2 6183   1.004   3.338   2.437
 1811SOL     OW 6184   0.351   3.663   2.715
 1811SOL    HW1 6185   0.401   3.577   2.721
 1811SOL    HW2 6186   0.416   3.740   2.712
 1812SOL     OW 6187   1.795   2.928   2.735
 1812SOL    HW1 6188   1.733   2.913   2.659
 1812SOL    HW2 6189   1.743   2.939   2.820
 1813SOL     OW 6190   1.227   3.412   3.368
 1813SOL    HW1 6191   1.233   3.335   3.432
 1813SOL    HW2 6192   1.175   3.386   3.288
 1814SOL     OW 6193   0.321   2.805   2.104
 1814SOL    HW1 6194   0.403   2.844   2.062
 1814SOL    HW2 6195   0.294   2.723   2.055
 1815SOL     OW 6196   1.458   2.597   2.590
 1815SOL    HW1 6197   1.453   2.532   2.665
 1815SOL    HW2 6198   1.538   2.656   2.603
 1816SOL     OW 6199   0.461   3.128   3.589
 1816SOL    HW1 6200   0.411   3.129   3.503
 1816SOL    HW2 6201   0.398   3.110   3.665
 1817SOL     OW 6202   1.111   3.638   2.099
 1817SOL    HW1 6203   1.051   3.576   2.149
 1817SOL    HW2 6204   1.142   3.594   2.014
 1818SOL     OW 6205   0.202   2.147   3.360
 1818SOL    HW1 6206   0.122   2.207   3.347
 1818SOL    HW2 6207   0.192   2.098   3.446
 1819SOL     OW 6208   1.632   3.239   1.943
 1819SOL    HW1 6209   1.600   3.333   1.933
 1819SOL    HW2 6210   1.556   3.176   1.931
 1820SOL     OW 6211   0.464   3.605   2.185
 1820SOL    HW1 6212   0.497   3.644   2.271
 1820SOL    HW2 6213   0.540   3.598   2.120
 1821SOL     OW 6214   1.400   1.969   2.288
 1821SOL    HW1 6215   1.376   1.932   2.198
 1821SOL    HW2 6216   1.499   1.985   2.292
 1822SOL     OW 6217   0.249   3.647   3.103
 1822SOL    HW1 6218   0.306   3.582   3.153
 1822SOL    HW2 6219   0.233   3.614   3.010
 1823SOL     OW 6220   0.940   3.560   2.766
 1823SOL    HW1 6221   1.020   3.503   2.787
 1823SOL    HW2 6222   0.891   3.520   2.689
 1824SOL     OW 6223   0.382   2.562   2.342
 1824SOL    HW1 6224   0.427   2.472   2.339
 1824SOL    HW2 6225   0.288   2.551   2.375
 1825SOL     OW 6226   1.547   2.084   3.591
 1825SOL    HW1 6227   1.542   2.121   3.683
 1825SOL    HW2 6228   1.475   2.015   3.579
 1826SOL     OW 6229   0.614   1.984   1.979
 1826SOL    HW1 6230   0.712   1.962   1.986
 1826SOL    HW2 6231   0.583   1.967   1.886
 1827SOL     OW 6232   0.781   2.126   3.611
 1827SOL    HW1 6233   0.848   2.065   3.654
 1827SOL    HW2 6234   0.708   2.145   3.676
 1828SOL     OW 6235   0.888   3.376   3.057
 1828SOL    HW1 6236   0.865   3.351   2.963
 1828SOL    HW2 6237   0.949   3.307   3.096
 1829SOL     OW 6238   1.351   2.452   3.295
 1829SOL    HW1 6239   1.379   2.409   3.380
 1829SOL    HW2 6240   1.376   2.548   3.296
 1830SOL     OW 6241   0.803   3.264   2.786
 1830SOL    HW1 6242   0.893   3.278   2.744
 1830SOL    HW2 6243   0.732   3.266   2.715
 1831SOL     OW 6244   0.922   2.365   2.761
 1831SOL    HW1 6245   0.897   2.356   2.665
 1831SOL    HW2 6246   0.970   2.283   2.792
 1832SOL     OW 6247   0.539   1.926   2.374
 1832SOL    HW1 6248   0.458   1.927   2.432
 1832SOL    HW2 6249   0.542   2.009   2.319
 1833SOL     OW 6250   1.434   3.050   1.903
 1833SOL    HW1 6251   1.466   2.974   1.960
 1833SOL    HW2 6252   1.342   3.077   1.933
 1834SOL     OW 6253   0.297   1.897   2.033
 1834SOL    HW1 6254   0.346   1.981   2.012
 1834SOL    HW2 6255   0.359   1.832   2.078
 1835SOL     OW 6256   0.935   2.098   2.342
 1835SOL    HW1 6257   0.887   2.139   2.264
 1835SOL    HW2 6258   1.034   2.096   2.323
 1836SOL     OW 6259   1.076   2.545   3.326
 1836SOL    HW1 6260   0.996   2.484   3.329
 1836SOL    HW2 6261   1.157   2.492   3.302
 1837SOL     OW 6262   1.227   3.432   2.655
 1837SOL    HW1 6263   1.248   3.506   2.590
 1837SOL    HW2 6264   1.295   3.432   2.728
 1838SOL     OW 6265   0.459   3.014   2.603
 1838SOL    HW1 6266   0.388   2.987   2.668
 1838SOL    HW2 6267   0.433   2.986   2.510
 1839SOL     OW 6268   1.271   3.659   2.453
 1839SOL    HW1 6269   1.315   3.723   2.389
 1839SOL    HW2 6270   1.221   3.711   2.523
 1840SOL     OW 6271   1.032   2.411   1.878
 1840SOL    HW1 6272   0.991   2.493   1.839
 1840SOL    HW2 6273   1.096   2.437   1.951
 1841SOL     OW 6274   0.078   2.418   3.248
 1841SOL    HW1 6275   0.170   2.417   3.207
 1841SOL    HW2 6276   0.072   2.492   3.315
 1842SOL     OW 6277   0.561   2.084   3.009
 1842SOL    HW1 6278   0.599   2.000   3.046
 1842SOL    HW2 6279   0.473   2.103   3.053
 1843SOL     OW 6280   0.866   2.316   2.504
 1843SOL    HW1 6281   0.834   2.388   2.442
 1843SOL    HW2 6282   0.890   2.235   2.451
 1844SOL     OW 6283   1.017   1.901   2.615
 1844SOL    HW1 6284   0.945   1.906   2.546
 1844SOL    HW2 6285   0.993   1.832   2.684
 1845SOL     OW 6286   1.429   3.035   2.729
 1845SOL    HW1 6287   1.374   2.951   2.722
 1845SOL    HW2 6288   1.455   3.064   2.637
 1846SOL     OW 6289   1.466   2.452   2.854
 1846SOL    HW1 6290   1.436   2.357   2.861
 1846SOL    HW2 6291   1.539   2.468   2.920
 1847SOL     OW 6292   1.857   2.695   2.239
 1847SOL    HW1 6293   1.899   2.631   2.303
 1847SOL    HW2 6294   1.819   2.644   2.161
 1848SOL     OW 6295   0.488   3.247   2.036
 1848SOL    HW1 6296   0.401   3.232   2.083
 1848SOL    HW2 6297   0.471   3.273   1.941
 1849SOL     OW 6298   1.664   3.142   2.519
 1849SOL    HW1 6299   1.763   3.150   2.533
 1849SOL    HW2 6300   1.619   3.226   2.550
 1850SOL     OW 6301   1.390   2.437   1.940
 1850SOL    HW1 6302   1.336   2.416   2.021
 1850SOL    HW2 6303   1.481   2.396   1.949
 1851SOL     OW 6304   0.527   2.118   2.190
 1851SOL    HW1 6305   0.554   2.059   2.115
 1851SOL    HW2 6306   0.527   2.213   2.159
 1852SOL     OW 6307   1.754   3.085   3.450
 1852SOL    HW1 6308   1.845   3.046   3.437
 1852SOL    HW2 6309   1.762   3.181   3.474
 1853SOL     OW 6310   1.064   3.209   3.202
 1853SOL    HW1 6311   0.984   3.186   3.257
 1853SOL    HW2 6312   1.147   3.183   3.251
 1854SOL     OW 6313   1.592   3.491   3.487
 1854SOL    HW1 6314   1.619   3.525   3.397
 1854SOL    HW2 6315   1.671   3.453   3.533
 1855SOL     OW 6316   1.111   3.057   2.962
 1855SOL    HW1 6317   1.071   3.101   3.043
 1855SOL    HW2 6318   1.070   3.094   2.879
 1856SOL     OW 6319   1.638   2.961   2.941
 1856SOL    HW1 6320   1.643   3.042   3.000
 1856SOL    HW2 6321   1.552   2.963   2.890
 1857SOL     OW 6322   0.915   1.951   3.264
 1857SOL    HW1 6323   0.940   1.931   3.169
 1857SOL    HW2 6324   0.987   2.007   3.306
 1858SOL     OW 6325   0.980   2.978   3.581
 1858SOL    HW1 6326   0.881   2.984   3.591
 1858SOL    HW2 6327   1.003   2.898   3.525
 1859SOL     OW 6328   0.705   2.912   2.230
 1859SOL    HW1 6329   0.691   2.919   2.329
 1859SOL    HW2 6330   0.789   2.861   2.212
 1860SOL     OW 6331   0.410   2.675   3.113
 1860SOL    HW1 6332   0.496   2.687   3.163
 1860SOL    HW2 6333   0.368   2.588   3.140
 1861SOL     OW 6334   1.274   2.248   3.124
 1861SOL    HW1 6335   1.295   2.322   3.188
 1861SOL    HW2 6336   1.185   2.265   3.081
 1862SOL     OW 6337   0.064   3.426   3.193
 1862SOL    HW1 6338   0.018   3.508   3.159
 1862SOL    HW2 6339   0.162   3.445   3.202
 1863SOL     OW 6340   0.367   2.962   2.363
 1863SOL    HW1 6341   0.360   3.045   2.307
 1863SOL    HW2 6342   0.371   2.882   2.303
 1864SOL     OW 6343   0.566   2.399   2.727
 1864SOL    HW1 6344   0.578   2.465   2.653
 1864SOL    HW2 6345   0.612   2.433   2.810
 1865SOL     OW 6346   1.252   3.210   2.250
 1865SOL    HW1 6347   1.302   3.287   2.290
 1865SOL    HW2 6348   1.157   3.212   2.282
 1866SOL     OW 6349   1.272   3.307   3.004
 1866SOL    HW1 6350   1.319   3.320   3.091
 1866SOL    HW2 6351   1.206   3.233   3.013
 1867SOL     OW 6352   1.582   2.501   2.334
 1867SOL    HW1 6353   1.551   2.562   2.407
 1867SOL    HW2 6354   1.632   2.553   2.265
 1868SOL     OW 6355   0.354   3.372   3.191
 1868SOL    HW1 6356   0.333   3.328   3.104
 1868SOL    HW2 6357   0.451   3.398   3.194
 1869SOL     OW 6358   0.402   2.613   3.460
 1869SOL    HW1 6359   0.470   2.668   3.413
 1869SOL    HW2 6360   0.442   2.525   3.487
 1870SOL     OW 6361   1.587   2.641   3.532
 1870SOL    HW1 6362   1.495   2.679   3.527
 1870SOL    HW2 6363   1.647   2.688   3.467
 1871SOL     OW 6364   1.013   1.967   3.632
 1871SOL    HW1 6365   1.019   2.052   3.580
 1871SOL    HW2 6366   1.045   1.891   3.575
 1872SOL     OW 6367   0.504   1.912   3.602
 1872SOL    HW1 6368   0.462   1.855   3.532
 1872SOL    HW2 6369   0.438   1.981   3.634
 1873SOL     OW 6370   0.573   2.732   2.891
 1873SOL    HW1 6371   0.617   2.821   2.882
 1873SOL    HW2 6372   0.510   2.732   2.968
 1874SOL     OW 6373   1.360   2.724   2.907
 1874SOL    HW1 6374   1.285   2.724   2.841
 1874SOL    HW2 6375   1.397   2.632   2.916
 1875SOL     OW 6376   1.209   2.387   2.137
 1875SOL    HW1 6377   1.222   2.303   2.191
 1875SOL    HW2 6378   1.180   2.461   2.197
 1876SOL     OW 6379   0.307   2.075   3.093
 1876SOL    HW1 6380   0.284   2.112   3.183
 1876SOL    HW2 6381   0.277   1.980   3.087
 1877SOL     OW 6382   0.037   3.172   3.144
 1877SOL    HW1 6383   0.090   3.123   3.212
 1877SOL    HW2 6384   0.059   3.270   3.149
 1878SOL     OW 6385   0.732   2.496   2.926
 1878SOL    HW1 6386   0.791   2.470   2.850
 1878SOL    HW2 6387   0.704   2.592   2.915
 1879SOL     OW 6388   1.728   2.797   3.716
 1879SOL    HW1 6389   1.682   2.790   3.627
 1879SOL    HW2 6390   1.666   2.841   3.782
 1880SOL     OW 6391   0.307   1.925   2.480
 1880SOL    HW1 6392   0.296   2.019   2.513
 1880SOL    HW2 6393   0.302   1.862   2.557
 1881SOL     OW 6394   1.622   2.229   2.236
 1881SOL    HW1 6395   1.624   2.153   2.300
 1881SOL    HW2 6396   1.574   2.306   2.276
 1882SOL     OW 6397   1.023   2.628   2.828
 1882SOL    HW1 6398   1.038   2.649   2.924
 1882SOL    HW2 6399   0.993   2.533   2.819
 1883SOL     OW 6400   0.980   3.435   3.562
 1883SOL    HW1 6401   0.960   3.479   3.474
 1883SOL    HW2 6402   1.019   3.344   3.546
 1884SOL     OW 6403   1.859   3.380   3.467
 1884SOL    HW1 6404   1.873   3.407   3.372
 1884SOL    HW2 6405   1.942   3.402   3.520
 1885SOL     OW 6406   0.350   2.760   3.666
 1885SOL    HW1 6407   0.426   2.804   3.714
 1885SOL    HW2 6408   0.385   2.713   3.584
 1886SOL     OW 6409   1.540   2.136   1.987
 1886SOL    HW1 6410   1.479   2.061   2.010
 1886SOL    HW2 6411   1.562   2.188   2.070
 1887SOL     OW 6412   1.303   2.700   1.904
 1887SOL    HW1 6413   1.337   2.607   1.919
 1887SOL    HW2 6414   1.321   2.727   1.809
 1888SOL     OW 6415   1.068   3.195   2.711
 1888SOL    HW1 6416   1.075   3.111   2.656
 1888SOL    HW2 6417   1.130   3.264   2.675
 1889SOL     OW 6418   0.319   2.672   2.811
 1889SOL    HW1 6419   0.412   2.708   2.816
 1889SOL    HW2 6420   0.313   2.587   2.863
 1890SOL     OW 6421   0.339   2.371   2.868
 1890SOL    HW1 6422   0.287   2.288   2.851
 1890SOL    HW2 6423   0.416   2.376   2.804
 1891SOL     OW 6424   1.138   2.242   3.540
 1891SOL    HW1 6425   1.093   2.305   3.604
 1891SOL    HW2 6426   1.231   2.273   3.523
 1892SOL     OW 6427   1.160   2.069   3.339
 1892SOL    HW1 6428   1.160   2.133   3.416
 1892SOL    HW2 6429   1.188   2.117   3.256
 1893SOL     OW 6430   0.008   3.188   2.062
 1893SOL    HW1 6431  -0.085   3.209   2.031
 1893SOL    HW2 6432   0.018   3.089   2.075
 1894SOL     OW 6433   0.088   3.663   2.789
 1894SOL    HW1 6434   0.046   3.577   2.762
 1894SOL    HW2 6435   0.182   3.666   2.755
 1895SOL     OW 6436   0.504   3.430   2.772
 1895SOL    HW1 6437   0.570   3.504   2.781
 1895SOL    HW2 6438   0.548   3.351   2.730
 1896SOL     OW 6439   1.002   2.658   3.100
 1896SOL    HW1 6440   1.043   2.626   3.186
 1896SOL    HW2 6441   0.906   2.631   3.097
 1897SOL     OW 6442   0.040   2.406   2.976
 1897SOL    HW1 6443   0.125   2.373   2.935
 1897SOL    HW2 6444   0.053   2.421   3.074
 1898SOL     OW 6445   0.189   2.382   3.584
 1898SOL    HW1 6446   0.248   2.342   3.514
 1898SOL    HW2 6447   0.131   2.453   3.543
 1899SOL     OW 6448   1.369   2.812   3.522
 1899SOL    HW1 6449   1.408   2.901   3.542
 1899SOL    HW2 6450   1.379   2.792   3.425
 1900SOL     OW 6451   0.815   2.434   2.187
 1900SOL    HW1 6452   0.822   2.345   2.141
 1900SOL    HW2 6453   0.721   2.468   2.179
 1901SOL     OW 6454   1.657   2.466   3.068
 1901SOL    HW1 6455   1.619   2.397   3.130
 1901SOL    HW2 6456   1.739   2.430   3.024
 1902SOL     OW 6457   0.252   3.426   3.606
 1902SOL    HW1 6458   0.222   3.483   3.682
 1902SOL    HW2 6459   0.245   3.329   3.632
 1903SOL     OW 6460   0.671   2.326   3.131
 1903SOL    HW1 6461   0.637   2.237   3.101
 1903SOL    HW2 6462   0.697   2.380   3.051
 1904SOL     OW 6463   0.930   3.540   3.327
 1904SOL    HW1 6464   0.906   3.522   3.232
 1904SOL    HW2 6465   0.960   3.634   3.337
 1905SOL     OW 6466   0.473   2.362   2.053
 1905SOL    HW1 6467   0.534   2.442   2.057
 1905SOL    HW2 6468   0.378   2.393   2.060
 1906SOL     OW 6469   0.159   2.999   3.328
 1906SOL    HW1 6470   0.181   2.938   3.404
 1906SOL    HW2 6471   0.169   2.950   3.242
 1907SOL     OW 6472   1.347   2.921   3.096
 1907SOL    HW1 6473   1.371   2.858   3.022
 1907SOL    HW2 6474   1.257   2.961   3.078
 1908SOL     OW 6475   1.302   2.717   2.171
 1908SOL    HW1 6476   1.216   2.686   2.213
 1908SOL    HW2 6477   1.298   2.703   2.072
 1909SOL     OW 6478   1.759   3.609   3.016
 1909SOL    HW1 6479   1.820   3.639   2.943
 1909SOL    HW2 6480   1.721   3.520   2.994
 1910SOL     OW 6481   1.252   3.593   2.990
 1910SOL    HW1 6482   1.336   3.598   2.936
 1910SOL    HW2 6483   1.229   3.497   3.008
 1911SOL     OW 6484   0.083   3.120   2.884
 1911SOL    HW1 6485   0.078   3.119   2.984
 1911SOL    HW2 6486   0.000   3.079   2.846
 1912SOL     OW 6487   0.688   3.524   3.578
 1912SOL    HW1 6488   0.632   3.605   3.587
 1912SOL    HW2 6489   0.740   3.528   3.492
 1913SOL     OW 6490   1.388   3.435   2.339
 1913SOL    HW1 6491   1.455   3.447   2.265
 1913SOL    HW2 6492   1.348   3.524   2.362
 1914SOL     OW 6493   0.130   3.656   3.713
 1914SOL    HW1 6494   0.089   3.582   3.766
 1914SOL    HW2 6495   0.194   3.707   3.771
 1915SOL     OW 6496   1.280   2.789   2.534
 1915SOL    HW1 6497   1.340   2.708   2.536
 1915SOL    HW2 6498   1.320   2.858   2.474
 1916SOL     OW 6499   0.830   3.135   3.284
 1916SOL    HW1 6500   0.825   3.168   3.379
 1916SOL    HW2 6501   0.744   3.154   3.238
 1917SOL     OW 6502   0.672   3.478   2.016
 1917SOL    HW1 6503   0.681   3.488   1.917
 1917SOL    HW2 6504   0.632   3.389   2.037
 1918SOL     OW 6505   1.650   3.582   3.256
 1918SOL    HW1 6506   1.703   3.592   3.172
 1918SOL    HW2 6507   1.623   3.672   3.290
 1919SOL     OW 6508   0.263   2.188   2.582
 1919SOL    HW1 6509   0.184   2.239   2.548
 1919SOL    HW2 6510   0.254   2.173   2.680
 1920SOL     OW 6511   1.194   3.474   1.893
 1920SOL    HW1 6512   1.200   3.381   1.930
 1920SOL    HW2 6513   1.135   3.474   1.813
 1921SOL     OW 6514   0.822   2.864   3.234
 1921SOL    HW1 6515   0.862   2.863   3.142
 1921SOL    HW2 6516   0.832   2.956   3.274
 1922SOL     OW 6517   0.916   2.772   2.153
 1922SOL    HW1 6518   0.979   2.810   2.085
 1922SOL    HW2 6519   0.956   2.689   2.192
 1923SOL     OW 6520   1.504   3.469   1.906
 1923SOL    HW1 6521   1.412   3.506   1.913
 1923SOL    HW2 6522   1.542   3.489   1.816
 1924SOL     OW 6523   0.372   3.150   3.352
 1924SOL    HW1 6524   0.359   3.243   3.318
 1924SOL    HW2 6525   0.288   3.098   3.339
 1925SOL     OW 6526   1.614   3.154   3.151
 1925SOL    HW1 6527   1.674   3.157   3.231
 1925SOL    HW2 6528   1.539   3.218   3.164
 1926SOL     OW 6529   1.039   2.960   2.558
 1926SOL    HW1 6530   0.969   2.913   2.612
 1926SOL    HW2 6531   1.098   2.892   2.515
 1927SOL     OW 6532   1.014   2.098   2.833
 1927SOL    HW1 6533   1.006   2.062   2.740
 1927SOL    HW2 6534   1.012   2.022   2.898
 1928SOL     OW 6535   0.590   3.349   2.353
 1928SOL    HW1 6536   0.632   3.291   2.283
 1928SOL    HW2 6537   0.546   3.428   2.309
 1929SOL     OW 6538   1.709   2.247   3.243
 1929SOL    HW1 6539   1.782   2.316   3.247
 1929SOL    HW2 6540   1.737   2.172   3.184
 1930SOL     OW 6541   0.255   3.210   2.152
 1930SOL    HW1 6542   0.159   3.211   2.125
 1930SOL    HW2 6543   0.267   3.263   2.236
 1931SOL     OW 6544   0.105   2.875   3.588
 1931SOL    HW1 6545   0.028   2.842   3.642
 1931SOL    HW2 6546   0.190   2.845   3.630
 1932SOL     OW 6547   0.672   2.065   3.351
 1932SOL    HW1 6548   0.762   2.049   3.311
 1932SOL    HW2 6549   0.680   2.070   3.450
 1933SOL     OW 6550   0.075   2.207   1.895
 1933SOL    HW1 6551  -0.017   2.179   1.866
 1933SOL    HW2 6552   0.106   2.284   1.839
 1934SOL     OW 6553   1.440   2.718   3.260
 1934SOL    HW1 6554   1.383   2.770   3.197
 1934SOL    HW2 6555   1.536   2.730   3.236
 1935SOL     OW 6556   0.072   2.028   2.180
 1935SOL    HW1 6557   0.055   2.111   2.126
 1935SOL    HW2 6558   0.162   1.991   2.158
 1936SOL     OW 6559   1.183   3.197   1.981
 1936SOL    HW1 6560   1.084   3.186   1.983
 1936SOL    HW2 6561   1.217   3.212   2.074
 1937SOL     OW 6562   0.613   2.704   3.293
 1937SOL    HW1 6563   0.669   2.785   3.276
 1937SOL    HW2 6564   0.672   2.624   3.296
 1938SOL     OW 6565   1.493   3.629   2.821
 1938SOL    HW1 6566   1.526   3.693   2.752
 1938SOL    HW2 6567   1.559   3.623   2.896
 1939SOL     OW 6568   0.716   2.427   3.570
 1939SOL    HW1 6569   0.735   2.492   3.644
 1939SOL    HW2 6570   0.776   2.347   3.579
 1940SOL     OW 6571   1.450   3.082   3.495
 1940SOL    HW1 6572   1.441   3.072   3.594
 1940SOL    HW2 6573   1.546   3.075   3.469
 1941SOL     OW 6574   0.390   3.603   3.422
 1941SOL    HW1 6575   0.299   3.644   3.420
 1941SOL    HW2 6576   0.383   3.509   3.454
 1942SOL     OW 6577   1.674   2.745   3.116
 1942SOL    HW1 6578   1.647   2.656   3.079
 1942SOL    HW2 6579   1.675   2.813   3.043
 1943SOL     OW 6580   1.225   2.187   2.311
 1943SOL    HW1 6581   1.290   2.113   2.300
 1943SOL    HW2 6582   1.245   2.237   2.395
 1944SOL     OW 6583   0.594   2.607   2.514
 1944SOL    HW1 6584   0.644   2.692   2.495
 1944SOL    HW2 6585   0.506   2.609   2.466
 1945SOL     OW 6586   1.777   2.204   3.504
 1945SOL    HW1 6587   1.760   2.235   3.410
 1945SOL    HW2 6588   1.693   2.167   3.542
 1946SOL     OW 6589   1.730   2.796   3.379
 1946SOL    HW1 6590   1.768   2.887   3.394
 1946SOL    HW2 6591   1.722   2.779   3.280
 1947SOL     OW 6592   0.859   3.236   1.878
 1947SOL    HW1 6593   0.813   3.251   1.966
 1947SOL    HW2 6594   0.903   3.321   1.848
 1948SOL     OW 6595   0.661   3.652   2.815
 1948SOL    HW1 6596   0.615   3.740   2.802
 1948SOL    HW2 6597   0.760   3.664   2.808
 1949SOL     OW 6598   0.859   2.818   2.723
 1949SOL    HW1 6599   0.913   2.749   2.771
 1949SOL    HW2 6600   0.827   2.887   2.789
 1950SOL     OW 6601   1.083   2.846   1.949
 1950SOL    HW1 6602   1.060   2.899   1.867
 1950SOL    HW2 6603   1.164   2.790   1.930
 1951SOL     OW 6604   1.861   3.431   2.713
 1951SOL    HW1 6605   1.790   3.419   2.643
 1951SOL    HW2 6606   1.862   3.352   2.773
 1952SOL     OW 6607   0.221   3.176   3.706
 1952SOL    HW1 6608   0.156   3.103   3.685
 1952SOL    HW2 6609   0.225   3.190   3.804
 1953SOL     OW 6610   0.079   3.102   2.515
 1953SOL    HW1 6611   0.078   3.055   2.603
 1953SOL    HW2 6612   0.161   3.074   2.464
 1954SOL     OW 6613   0.672   3.253   3.486
 1954SOL    HW1 6614   0.594   3.203   3.524
 1954SOL    HW2 6615   0.669   3.348   3.517
 1955SOL     OW 6616   0.428   2.286   2.382
 1955SOL    HW1 6617   0.458   2.214   2.320
 1955SOL    HW2 6618   0.389   2.246   2.465
 1956SOL     OW 6619   1.705   3.349   2.966
 1956SOL    HW1 6620   1.612   3.324   2.939
 1956SOL    HW2 6621   1.731   3.299   3.048
 1957SOL     OW 6622   0.317   2.409   3.142
 1957SOL    HW1 6623   0.355   2.350   3.214
 1957SOL    HW2 6624   0.357   2.383   3.054
 1958SOL     OW 6625   0.812   3.448   2.549
 1958SOL    HW1 6626   0.844   3.458   2.455
 1958SOL    HW2 6627   0.733   3.386   2.551
 1959SOL     OW 6628   1.424   2.076   2.974
 1959SOL    HW1 6629   1.476   2.011   3.029
 1959SOL    HW2 6630   1.375   2.139   3.035
 1960SOL     OW 6631   1.001   1.896   3.016
 1960SOL    HW1 6632   0.938   1.824   2.985
 1960SOL    HW2 6633   1.094   1.860   3.016
 1961SOL     OW 6634   0.770   3.192   2.163
 1961SOL    HW1 6635   0.724   3.105   2.180
 1961SOL    HW2 6636   0.861   3.189   2.204
 1962SOL     OW 6637   0.618   3.429   3.146
 1962SOL    HW1 6638   0.613   3.511   3.203
 1962SOL    HW2 6639   0.707   3.426   3.101
 1963SOL     OW 6640   1.352   1.914   2.030
 1963SOL    HW1 6641   1.387   1.873   1.946
 1963SOL    HW2 6642   1.262   1.876   2.050
 1964SOL     OW 6643   1.300   2.315   2.553
 1964SOL    HW1 6644   1.241   2.395   2.557
 1964SOL    HW2 6645   1.315   2.280   2.646
 1965SOL     OW 6646   1.593   2.083   2.744
 1965SOL    HW1 6647   1.509   2.082   2.798
 1965SOL    HW2 6648   1.595   2.166   2.688
 1966SOL     OW 6649   0.039   2.939   2.162
 1966SOL    HW1 6650   0.138   2.928   2.153
 1966SOL    HW2 6651  -0.001   2.853   2.194
 1967SOL     OW 6652   0.875   3.508   2.199
 1967SOL    HW1 6653   0.798   3.473   2.145
 1967SOL    HW2 6654   0.843   3.579   2.261
 1968SOL     OW 6655   0.230   2.490   3.837
 1968SOL    HW1 6656   0.137   2.488   3.874
 1968SOL    HW2 6657   0.231   2.451   3.745
 1969SOL     OW 6658   0.225   2.137   4.720
 1969SOL    HW1 6659   0.260   2.120   4.812
 1969SOL    HW2 6660   0.137   2.092   4.708
 1970SOL     OW 6661   0.019   2.230   4.371
 1970SOL    HW1 6662  -0.063   2.273   4.410
 1970SOL    HW2 6663  -0.009   2.157   4.308
 1971SOL     OW 6664   0.569   3.137   4.889
 1971SOL    HW1 6665   0.476   3.130   4.852
 1971SOL    HW2 6666   0.580   3.226   4.933
 1972SOL     OW 6667   1.555   3.373   4.427
 1972SOL    HW1 6668   1.498   3.357   4.508
 1972SOL    HW2 6669   1.496   3.383   4.347
 1973SOL     OW 6670   1.135   2.565   4.441
 1973SOL    HW1 6671   1.192   2.643   4.416
 1973SOL    HW2 6672   1.075   2.591   4.517
 1974SOL     OW 6673   1.755   2.469   3.955
 1974SOL    HW1 6674   1.743   2.456   3.856
 1974SOL    HW2 6675   1.725   2.388   4.004
 1975SOL     OW 6676   0.768   3.006   4.747
 1975SOL    HW1 6677   0.690   3.023   4.807
 1975SOL    HW2 6678   0.802   3.093   4.711
 1976SOL     OW 6679   0.850   2.660   5.547
 1976SOL    HW1 6680   0.846   2.736   5.612
 1976SOL    HW2 6681   0.872   2.696   5.456
 1977SOL     OW 6682   0.685   2.874   4.389
 1977SOL    HW1 6683   0.754   2.858   4.459
 1977SOL    HW2 6684   0.612   2.931   4.427
 1978SOL     OW 6685   0.686   3.023   5.527
 1978SOL    HW1 6686   0.746   3.102   5.541
 1978SOL    HW2 6687   0.600   3.054   5.486
 1979SOL     OW 6688   0.335   3.297   4.785
 1979SOL    HW1 6689   0.257   3.266   4.732
 1979SOL    HW2 6690   0.393   3.355   4.728
 1980SOL     OW 6691   1.460   3.367   5.063
 1980SOL    HW1 6692   1.484   3.461   5.089
 1980SOL    HW2 6693   1.444   3.313   5.145
 1981SOL     OW 6694   0.438   2.254   5.223
 1981SOL    HW1 6695   0.520   2.198   5.232
 1981SOL    HW2 6696   0.357   2.196   5.227
 1982SOL     OW 6697   1.603   2.309   4.461
 1982SOL    HW1 6698   1.529   2.355   4.411
 1982SOL    HW2 6699   1.654   2.377   4.514
 1983SOL     OW 6700   0.231   3.575   4.207
 1983SOL    HW1 6701   0.265   3.652   4.261
 1983SOL    HW2 6702   0.275   3.575   4.117
 1984SOL     OW 6703   1.127   3.203   5.414
 1984SOL    HW1 6704   1.174   3.203   5.502
 1984SOL    HW2 6705   1.079   3.116   5.403
 1985SOL     OW 6706   0.230   3.296   4.262
 1985SOL    HW1 6707   0.204   3.392   4.262
 1985SOL    HW2 6708   0.159   3.242   4.307
 1986SOL     OW 6709   0.240   2.953   4.610
 1986SOL    HW1 6710   0.254   2.869   4.662
 1986SOL    HW2 6711   0.185   3.017   4.665
 1987SOL     OW 6712   0.620   3.648   5.163
 1987SOL    HW1 6713   0.528   3.631   5.198
 1987SOL    HW2 6714   0.648   3.740   5.189
 1988SOL     OW 6715   0.606   2.826   3.847
 1988SOL    HW1 6716   0.613   2.910   3.793
 1988SOL    HW2 6717   0.652   2.839   3.935
 1989SOL     OW 6718   1.594   1.976   5.204
 1989SOL    HW1 6719   1.576   2.043   5.132
 1989SOL    HW2 6720   1.591   2.022   5.293
 1990SOL     OW 6721   0.122   2.505   4.287
 1990SOL    HW1 6722   0.077   2.417   4.304
 1990SOL    HW2 6723   0.121   2.559   4.371
 1991SOL     OW 6724   1.842   3.629   4.083
 1991SOL    HW1 6725   1.896   3.600   4.163
 1991SOL    HW2 6726   1.872   3.719   4.054
 1992SOL     OW 6727   0.027   3.458   3.841
 1992SOL    HW1 6728   0.008   3.362   3.862
 1992SOL    HW2 6729  -0.006   3.516   3.916
 1993SOL     OW 6730   1.689   2.784   4.336
 1993SOL    HW1 6731   1.784   2.755   4.344
 1993SOL    HW2 6732   1.681   2.849   4.261
 1994SOL     OW 6733   1.641   2.970   4.156
 1994SOL    HW1 6734   1.727   2.972   4.104
 1994SOL    HW2 6735   1.655   3.017   4.244
 1995SOL     OW 6736   0.113   2.599   5.321
 1995SOL    HW1 6737   0.201   2.586   5.366
 1995SOL    HW2 6738   0.100   2.696   5.299
 1996SOL     OW 6739   0.613   3.227   4.450
 1996SOL    HW1 6740   0.564   3.140   4.459
 1996SOL    HW2 6741   0.590   3.270   4.363
 1997SOL     OW 6742   1.293   3.090   5.147
 1997SOL    HW1 6743   1.330   3.017   5.089
 1997SOL    HW2 6744   1.345   3.095   5.232
 1998SOL     OW 6745   0.809   1.866   4.226
 1998SOL    HW1 6746   0.849   1.957   4.217
 1998SOL    HW2 6747   0.709   1.874   4.232
 1999SOL     OW 6748   0.197   2.838   4.988
 1999SOL    HW1 6749   0.286   2.793   4.974
 1999SOL    HW2 6750   0.124   2.773   4.969
 2000SOL     OW 6751   1.525   2.861   3.914
 2000SOL    HW1 6752   1.462   2.785   3.927
 2000SOL    HW2 6753   1.573   2.879   4.000
 2001SOL     OW 6754   1.187   3.654   5.340
 2001SOL    HW1 6755   1.211   3.714   5.264
 2001SOL    HW2 6756   1.194   3.559   5.310
 2002SOL     OW 6757   0.317   2.113   5.525
 2002SOL    HW1 6758   0.388   2.184   5.531
 2002SOL    HW2 6759   0.229   2.152   5.553
 2003SOL     OW 6760   1.466   3.279   4.677
 2003SOL    HW1 6761   1.407   3.285   4.757
 2003SOL    HW2 6762   1.451   3.191   4.631
 2004SOL     OW 6763   1.667   3.576   4.296
 2004SOL    HW1 6764   1.626   3.553   4.208
 2004SOL    HW2 6765   1.649   3.502   4.361
 2005SOL     OW 6766   0.598   2.591   3.994
 2005SOL    HW1 6767   0.622   2.660   3.926
 2005SOL    HW2 6768   0.520   2.624   4.048
 2006SOL     OW 6769   1.281   2.207   4.668
 2006SOL    HW1 6770   1.195   2.157   4.655
 2006SOL    HW2 6771   1.343   2.153   4.724
 2007SOL     OW 6772   1.576   3.524   4.031
 2007SOL    HW1 6773   1.665   3.570   4.034
 2007SOL    HW2 6774   1.555   3.500   3.936
 2008SOL     OW 6775   0.807   2.467   5.189
 2008SOL    HW1 6776   0.760   2.464   5.278
 2008SOL    HW2 6777   0.756   2.412   5.123
 2009SOL     OW 6778   1.394   2.331   5.398
 2009SOL    HW1 6779   1.374   2.374   5.486
 2009SOL    HW2 6780   1.472   2.269   5.407
 2010SOL     OW 6781   0.973   2.752   5.296
 2010SOL    HW1 6782   1.019   2.668   5.267
 2010SOL    HW2 6783   0.917   2.786   5.221
 2011SOL     OW 6784   0.991   2.272   4.966
 2011SOL    HW1 6785   0.914   2.306   5.020
 2011SOL    HW2 6786   0.957   2.221   4.887
 2012SOL     OW 6787   1.041   2.563   4.153
 2012SOL    HW1 6788   1.067   2.559   4.249
 2012SOL    HW2 6789   0.956   2.512   4.139
 2013SOL     OW 6790   0.076   2.673   4.513
 2013SOL    HW1 6791   0.175   2.661   4.522
 2013SOL    HW2 6792   0.052   2.768   4.534
 2014SOL     OW 6793   0.130   3.683   5.295
 2014SOL    HW1 6794   0.120   3.668   5.394
 2014SOL    HW2 6795   0.044   3.719   5.259
 2015SOL     OW 6796   0.865   2.210   3.919
 2015SOL    HW1 6797   0.924   2.273   3.870
 2015SOL    HW2 6798   0.884   2.116   3.890
 2016SOL     OW 6799   1.719   2.447   5.555
 2016SOL    HW1 6800   1.693   2.536   5.519
 2016SOL    HW2 6801   1.717   2.379   5.482
 2017SOL     OW 6802   1.362   3.006   4.269
 2017SOL    HW1 6803   1.445   2.977   4.221
 2017SOL    HW2 6804   1.313   3.073   4.213
 2018SOL     OW 6805   0.550   2.058   4.609
 2018SOL    HW1 6806   0.545   2.053   4.709
 2018SOL    HW2 6807   0.552   2.154   4.580
 2019SOL     OW 6808   1.008   3.318   4.201
 2019SOL    HW1 6809   0.962   3.390   4.149
 2019SOL    HW2 6810   1.004   3.338   4.299
 2020SOL     OW 6811   0.351   3.663   4.577
 2020SOL    HW1 6812   0.401   3.577   4.583
 2020SOL    HW2 6813   0.416   3.740   4.574
 2021SOL     OW 6814   1.795   2.928   4.597
 2021SOL    HW1 6815   1.733   2.913   4.521
 2021SOL    HW2 6816   1.743   2.939   4.682
 2022SOL     OW 6817   1.227   3.412   5.230
 2022SOL    HW1 6818   1.233   3.335   5.294
 2022SOL    HW2 6819   1.175   3.386   5.150
 2023SOL     OW 6820   0.321   2.805   3.966
 2023SOL    HW1 6821   0.403   2.844   3.924
 2023SOL    HW2 6822   0.294   2.723   3.917
 2024SOL     OW 6823   1.458   2.597   4.452
 2024SOL    HW1 6824   1.453   2.532   4.527
 2024SOL    HW2 6825   1.538   2.656   4.465
 2025SOL     OW 6826   0.461   3.128   5.451
 2025SOL    HW1 6827   0.411   3.129   5.365
 2025SOL    HW2 6828   0.398   3.110   5.527
 2026SOL     OW 6829   1.111   3.638   3.961
 2026SOL    HW1 6830   1.051   3.576   4.011
 2026SOL    HW2 6831   1.142   3.594   3.876
 2027SOL     OW 6832   0.202   2.147   5.222
 2027SOL    HW1 6833   0.122   2.207   5.209
 2027SOL    HW2 6834   0.192   2.098   5.308
 2028SOL     OW 6835   1.632   3.239   3.805
 2028SOL    HW1 6836   1.600   3.333   3.795
 2028SOL    HW2 6837   1.556   3.176   3.793
 2029SOL     OW 6838   0.464   3.605   4.047
 2029SOL    HW1 6839   0.497   3.644   4.133
 2029SOL    HW2 6840   0.540   3.598   3.982
 2030SOL     OW 6841   1.400   1.969   4.150
 2030SOL    HW1 6842   1.376   1.932   4.060
 2030SOL    HW2 6843   1.499   1.985   4.154
 2031SOL     OW 6844   0.249   3.647   4.965
 2031SOL    HW1 6845   0.306   3.582   5.015
 2031SOL    HW2 6846   0.233   3.614   4.872
 2032SOL     OW 6847   0.940   3.560   4.628
 2032SOL    HW1 6848   1.020   3.503   4.649
 2032SOL    HW2 6849   0.891   3.520   4.551
 2033SOL     OW 6850   0.382   2.562   4.204
 2033SOL    HW1 6851   0.427   2.472   4.201
 2033SOL    HW2 6852   0.288   2.551   4.237
 2034SOL     OW 6853   1.547   2.084   5.453
 2034SOL    HW1 6854   1.542   2.121   5.545
 2034SOL    HW2 6855   1.475   2.015   5.441
 2035SOL     OW 6856   0.614   1.984   3.841
 2035SOL    HW1 6857   0.712   1.962   3.848
 2035SOL    HW2 6858   0.583   1.967   3.748
 2036SOL     OW 6859   0.781   2.126   5.473
 2036SOL    HW1 6860   0.848   2.065   5.516
 2036SOL    HW2 6861   0.708   2.145   5.538
 2037SOL     OW 6862   0.888   3.376   4.919
 2037SOL    HW1 6863   0.865   3.351   4.825
 2037SOL    HW2 6864   0.949   3.307   4.958
 2038SOL     OW 6865   1.351   2.452   5.157
 2038SOL    HW1 6866   1.379   2.409   5.242
 2038SOL    HW2 6867   1.376   2.548   5.158
 2039SOL     OW 6868   0.803   3.264   4.648
 2039SOL    HW1 6869   0.893   3.278   4.606
 2039SOL    HW2 6870   0.732   3.266   4.577
 2040SOL     OW 6871   0.922   2.365   4.623
 2040SOL    HW1 6872   0.897   2.356   4.527
 2040SOL    HW2 6873   0.970   2.283   4.654
 2041SOL     OW 6874   0.539   1.926   4.236
 2041SOL    HW1 6875   0.458   1.927   4.294
 2041SOL    HW2 6876   0.542   2.009   4.181
 2042SOL     OW 6877   1.434   3.050   3.765
 2042SOL    HW1 6878   1.466   2.974   3.822
 2042SOL    HW2 6879   1.342   3.077   3.795
 2043SOL     OW 6880   0.297   1.897   3.895
 2043SOL    HW1 6881   0.346   1.981   3.874
 2043SOL    HW2 6882   0.359   1.832   3.940
 2044SOL     OW 6883   0.935   2.098   4.204
 2044SOL    HW1 6884   0.887   2.139   4.126
 2044SOL    HW2 6885   1.034   2.096   4.185
 2045SOL     OW 6886   1.076   2.545   5.188
 2045SOL    HW1 6887   0.996   2.484   5.191
 2045SOL    HW2 6888   1.157   2.492   5.164
 2046SOL     OW 6889   1.227   3.432   4.517
 2046SOL    HW1 6890   1.248   3.506   4.452
 2046SOL    HW2 6891   1.295   3.432   4.590
 2047SOL     OW 6892   0.459   3.014   4.465
 2047SOL    HW1 6893   0.388   2.987   4.530
 2047SOL    HW2 6894   0.433   2.986   4.372
 2048SOL     OW 6895   1.271   3.659   4.315
 2048SOL    HW1 6896   1.315   3.723   4.251
 2048SOL    HW2 6897   1.221   3.711   4.385
 2049SOL     OW 6898   1.032   2.411   3.740
 2049SOL    HW1 6899   0.991   2.493   3.701
 2049SOL    HW2 6900   1.096   2.437   3.813
 2050SOL     OW 6901   0.078   2.418   5.110
 2050SOL    HW1 6902   0.170   2.417   5.069
 2050SOL    HW2 6903   0.072   2.492   5.177
 2051SOL     OW 6904   0.561   2.084   4.871
 2051SOL    HW1 6905   0.599   2.000   4.908
 2051SOL    HW2 6906   0.473   2.103   4.915
 2052SOL     OW 6907   0.866   2.316   4.366
 2052SOL    HW1 6908   0.834   2.388   4.304
 2052SOL    HW2 6909   0.890   2.235   4.313
 2053SOL     OW 6910   1.017   1.901   4.477
 2053SOL    HW1 6911   0.945   1.906   4.408
 2053SOL    HW2 6912   0.993   1.832   4.546
 2054SOL     OW 6913   1.429   3.035   4.591
 2054SOL    HW1 6914   1.374   2.951   4.584
 2054SOL    HW2 6915   1.455   3.064   4.499
 2055SOL     OW 6916   1.466   2.452   4.716
 2055SOL    HW1 6917   1.436   2.357   4.723
 2055SOL    HW2 6918   1.539   2.468   4.782
 2056SOL     OW 6919   1.857   2.695   4.101
 2056SOL    HW1 6920   1.899   2.631   4.165
 2056SOL    HW2 6921   1.819   2.644   4.023
 2057SOL     OW 6922   0.488   3.247   3.898
 2057SOL    HW1 6923   0.401   3.232   3.945
 2057SOL    HW2 6924   0.471   3.273   3.803
 2058SOL     OW 6925   1.664   3.142   4.381
 2058SOL    HW1 6926   1.763   3.150   4.395
 2058SOL    HW2 6927   1.619   3.226   4.412
 2059SOL     OW 6928   1.390   2.437   3.802
 2059SOL    HW1 6929   1.336   2.416   3.883
 2059SOL    HW2 6930   1.481   2.396   3.811
 2060SOL     OW 6931   0.527   2.118   4.052
 2060SOL    HW1 6932   0.554   2.059   3.977
 2060SOL    HW2 6933   0.527   2.213   4.021
 2061SOL     OW 6934   1.754   3.085   5.312
 2061SOL    HW1 6935   1.845   3.046   5.299
 2061SOL    HW2 6936   1.762   3.181   5.336
 2062SOL     OW 6937   1.064   3.209   5.064
 2062SOL    HW1 6938   0.984   3.186   5.119
 2062SOL    HW2 6939   1.147   3.183   5.113
 2063SOL     OW 6940   1.592   3.491   5.349
 2063SOL    HW1 6941   1.619   3.525   5.259
 2063SOL    HW2 6942   1.671   3.453   5.395
 2064SOL     OW 6943   1.111   3.057   4.824
 2064SOL    HW1 6944   1.071   3.101   4.905
 2064SOL    HW2 6945   1.070   3.094   4.741
 2065SOL     OW 6946   1.638   2.961   4.803
 2065SOL    HW1 6947   1.643   3.042   4.862
 2065SOL    HW2 6948   1.552   2.963   4.752
 2066SOL     OW 6949   0.915   1.951   5.126
 2066SOL    HW1 6950   0.940   1.931   5.031
 2066SOL    HW2 6951   0.987   2.007   5.168
 2067SOL     OW 6952   0.980   2.978   5.443
 2067SOL    HW1 6953   0.881   2.984   5.453
 2067SOL    HW2 6954   1.003   2.898   5.387
 2068SOL     OW 6955   0.705   2.912   4.092
 2068SOL    HW1 6956   0.691   2.919   4.191
 2068SOL    HW2 6957   0.789   2.861   4.074
 2069SOL     OW 6958   0.410   2.675   4.975
 2069SOL    HW1 6959   0.496   2.687   5.025
 2069SOL    HW2 6960   0.368   2.588   5.002
 2070SOL     OW 6961   1.274   2.248   4.986
 2070SOL    HW1 6962   1.295   2.322   5.050
 2070SOL    HW2 6963   1.185   2.265   4.943
 2071SOL     OW 6964   0.064   3.426   5.055
 2071SOL    HW1 6965   0.018   3.508   5.021
 2071SOL    HW2 6966   0.162   3.445   5.064
 2072SOL     OW 6967   0.367   2.962   4.225
 2072SOL    HW1 6968   0.360   3.045   4.169
 2072SOL    HW2 6969   0.371   2.882   4.165
 2073SOL     OW 6970   0.566   2.399   4.589
 2073SOL    HW1 6971   0.578   2.465   4.515
 2073SOL    HW2 6972   0.612   2.433   4.672
 2074SOL     OW 6973   1.252   3.210   4.112
 2074SOL    HW1 6974   1.302   3.287   4.152
 2074SOL    HW2 6975   1.157   3.212   4.144
 2075SOL     OW 6976   1.272   3.307   4.866
 2075SOL    HW1 6977   1.319   3.320   4.953
 2075SOL    HW2 6978   1.206   3.233   4.875
 2076SOL     OW 6979   1.582   2.501   4.196
 2076SOL    HW1 6980   1.551   2.562   4.269
 2076SOL    HW2 6981   1.632   2.553   4.127
 2077SOL     OW 6982   0.354   3.372   5.053
 2077SOL    HW1 6983   0.333   3.328   4.966
 2077SOL    HW2 6984   0.451   3.398   5.056
 2078SOL     OW 6985   0.402   2.613   5.322
 2078SOL    HW1 6986   0.470   2.668   5.275
 2078SOL    HW2 6987   0.442   2.525   5.349
 2079SOL     OW 6988   1.587   2.641   5.394
 2079SOL    HW1 6989   1.495   2.679   5.389
 2079SOL    HW2 6990   1.647   2.688   5.329
 2080SOL     OW 6991   1.013   1.967   5.494
 2080SOL    HW1 6992   1.019   2.052   5.442
 2080SOL    HW2 6993   1.045   1.891   5.437
 2081SOL     OW 6994   0.504   1.912   5.464
 2081SOL    HW1 6995   0.462   1.855   5.394
 2081SOL    HW2 6996   0.438   1.981   5.496
 2082SOL     OW 6997   0.573   2.732   4.753
 2082SOL    HW1 6998   0.617   2.821   4.744
 2082SOL    HW2 6999   0.510   2.732   4.830
 2083SOL     OW 7000   1.360   2.724   4.769
 2083SOL    HW1 7001   1.285   2.724   4.703
 2083SOL    HW2 7002   1.397   2.632   4.778
 2084SOL     OW 7003   1.209   2.387   3.999
 2084SOL    HW1 7004   1.222   2.303   4.053
 2084SOL    HW2 7005   1.180   2.461   4.059
 2085SOL     OW 7006   0.307   2.075   4.955
 2085SOL    HW1 7007   0.284   2.112   5.045
 2085SOL    HW2 7008   0.277   1.980   4.949
 2086SOL     OW 7009   0.037   3.172   5.006
 2086SOL    HW1 7010   0.090   3.123   5.074
 2086SOL    HW2 7011   0.059   3.270   5.011
 2087SOL     OW 7012   0.732   2.496   4.788
 2087SOL    HW1 7013   0.791   2.470   4.712
 2087SOL    HW2 7014   0.704   2.592   4.777
 2088SOL     OW 7015   1.728   2.797   5.578
 2088SOL    HW1 7016   1.682   2.790   5.489
 2088SOL    HW2 7017   1.666   2.841   5.644
 2089SOL     OW 7018   0.307   1.925   4.342
 2089SOL    HW1 7019   0.296   2.019   4.375
 2089SOL    HW2 7020   0.302   1.862   4.419
 2090SOL     OW 7021   1.622   2.229   4.098
 2090SOL    HW1 7022   1.624   2.153   4.162
 2090SOL    HW2 7023   1.574   2.306   4.138
 2091SOL     OW 7024   1.023   2.628   4.690
 2091SOL    HW1 7025   1.038   2.649   4.786
 2091SOL    HW2 7026   0.993   2.533   4.681
 2092SOL     OW 7027   0.980   3.435   5.424
 2092SOL    HW1 7028   0.960   3.479   5.336
 2092SOL    HW2 7029   1.019   3.344   5.408
 2093SOL     OW 7030   1.859   3.380   5.329
 2093SOL    HW1 7031   1.873   3.407   5.234
 2093SOL    HW2 7032   1.942   3.402   5.382
 2094SOL     OW 7033   0.350   2.760   5.528
 2094SOL    HW1 7034   0.426   2.804   5.576
 2094SOL    HW2 7035   0.385   2.713   5.446
 2095SOL     OW 7036   1.540   2.136   3.849
 2095SOL    HW1 7037   1.479   2.061   3.872
 2095SOL    HW2 7038   1.562   2.188   3.932
 2096SOL     OW 7039   1.303   2.700   3.766
 2096SOL    HW1 7040   1.337   2.607   3.781
 2096SOL    HW2 7041   1.321   2.727   3.671
 2097SOL     OW 7042   1.068   3.195   4.573
 2097SOL    HW1 7043   1.075   3.111   4.518
 2097SOL    HW2 7044   1.130   3.264   4.537
 2098SOL     OW 7045   0.319   2.672   4.673
 2098SOL    HW1 7046   0.412   2.708   4.678
 2098SOL    HW2 7047   0.313   2.587   4.725
 2099SOL     OW 7048   0.339   2.371   4.730
 2099SOL    HW1 7049   0.287   2.288   4.713
 2099SOL    HW2 7050   0.416   2.376   4.666
 2100SOL     OW 7051   1.138   2.242   5.402
 2100SOL    HW1 7052   1.093   2.305   5.466
 2100SOL    HW2 7053   1.231   2.273   5.385
 2101SOL     OW 7054   1.160   2.069   5.201
 2101SOL    HW1 7055   1.160   2.133   5.278
 2101SOL    HW2 7056   1.188   2.117   5.118
 2102SOL     OW 7057   0.008   3.188   3.924
 2102SOL    HW1 7058  -0.085   3.209   3.893
 2102SOL    HW2 7059   0.018   3.089   3.937
 2103SOL     OW 7060   0.088   3.663   4.651
 2103SOL    HW1 7061   0.046   3.577   4.624
 2103SOL    HW2 7062   0.182   3.666   4.617
 2104SOL     OW 7063   0.504   3.430   4.634
 2104SOL    HW1 7064   0.570   3.504   4.643
 2104SOL    HW2 7065   0.548   3.351   4.592
 2105SOL     OW 7066   1.002   2.658   4.962
 2105SOL    HW1 7067   1.043   2.626   5.048
 2105SOL    HW2 7068   0.906   2.631   4.959
 2106SOL     OW 7069   0.040   2.406   4.838
 2106SOL    HW1 7070   0.125   2.373   4.797
 2106SOL    HW2 7071   0.053   2.421   4.936
 2107SOL     OW 7072   0.189   2.382   5.446
 2107SOL    HW1 7073   0.248   2.342   5.376
 2107SOL    HW2 7074   0.131   2.453   5.405
 2108SOL     OW 7075   1.369   2.812   5.384
 2108SOL    HW1 7076   1.408   2.901   5.404
 2108SOL    HW2 7077   1.379   2.792   5.287
 2109SOL     OW 7078   0.815   2.434   4.049
 2109SOL    HW1 7079   0.822   2.345   4.003
 2109SOL    HW2 7080   0.721   2.468   4.041
 2110SOL     OW 7081   1.657   2.466   4.930
 2110SOL    HW1 7082   1.619   2.397   4.992
 2110SOL    HW2 7083   1.739   2.430   4.886
 2111SOL     OW 7084   0.252   3.426   5.468
 2111SOL    HW1 7085   0.222   3.483   5.544
 2111SOL    HW2 7086   0.245   3.329   5.494
 2112SOL     OW 7087   0.671   2.326   4.993
 2112SOL    HW1 7088   0.637   2.237   4.963
 2112SOL    HW2 7089   0.697   2.380   4.913
 2113SOL     OW 7090   0.930   3.540   5.189
 2113SOL    HW1 7091   0.906   3.522   5.094
 2113SOL    HW2 7092   0.960   3.634   5.199
 2114SOL     OW 7093   0.473   2.362   3.915
 2114SOL    HW1 7094   0.534   2.442   3.919
 2114SOL    HW2 7095   0.378   2.393   3.922
 2115SOL     OW 7096   0.159   2.999   5.190
 2115SOL    HW1 7097   0.181   2.938   5.266
 2115SOL    HW2 7098   0.169   2.950   5.104
 2116SOL     OW 7099   1.347   2.921   4.958
 2116SOL    HW1 7100   1.371   2.858   4.884
 2116SOL    HW2 7101   1.257   2.961   4.940
 2117SOL     OW 7102   1.302   2.717   4.033
 2117SOL    HW1 7103   1.216   2.686   4.075
 2117SOL    HW2 7104   1.298   2.703   3.934
 2118SOL     OW 7105   1.759   3.609   4.878
 2118SOL    HW1 7106   1.820   3.639   4.805
 2118SOL    HW2 7107   1.721   3.520   4.856
 2119SOL     OW 7108   1.252   3.593   4.852
 2119SOL    HW1 7109   1.336   3.598   4.798
 2119SOL    HW2 7110   1.229   3.497   4.870
 2120SOL     OW 7111   0.083   3.120   4.746
 2120SOL    HW1 7112   0.078   3.119   4.846
 2120SOL    HW2 7113   0.000   3.079   4.708
 2121SOL     OW 7114   0.688   3.524   5.440
 2121SOL    HW1 7115   0.632   3.605   5.449
 2121SOL    HW2 7116   0.740   3.528   5.354
 2122SOL     OW 7117   1.388   3.435   4.201
 2122SOL    HW1 7118   1.455   3.447   4.127
 2122SOL    HW2 7119   1.348   3.524   4.224
 2123SOL     OW 7120   0.130   3.656   5.575
 2123SOL    HW1 7121   0.089   3.582   5.628
 2123SOL    HW2 7122   0.194   3.707   5.633
 2124SOL     OW 7123   1.280   2.789   4.396
 2124SOL    HW1 7124   1.340   2.708   4.398
 2124SOL    HW2 7125   1.320   2.858   4.336
 2125SOL     OW 7126   0.830   3.135   5.146
 2125SOL    HW1 7127   0.825   3.168   5.241
 2125SOL    HW2 7128   0.744   3.154   5.100
 2126SOL     OW 7129   0.672   3.478   3.878
 2126SOL    HW1 7130   0.681   3.488   3.779
 2126SOL    HW2 7131   0.632   3.389   3.899
 2127SOL     OW 7132   1.650   3.582   5.118
 2127SOL    HW1 7133   1.703   3.592   5.034
 2127SOL    HW2 7134   1.623   3.672   5.152
 2128SOL     OW 7135   0.263   2.188   4.444
 2128SOL    HW1 7136   0.184   2.239   4.410
 2128SOL    HW2 7137   0.254   2.173   4.542
 2129SOL     OW 7138   1.194   3.474   3.755
 2129SOL    HW1 7139   1.200   3.381   3.792
 2129SOL    HW2 7140   1.135   3.474   3.675
 2130SOL     OW 7141   0.822   2.864   5.096
 2130SOL    HW1 7142   0.862   2.863   5.004
 2130SOL    HW2 7143   0.832   2.956   5.136
 2131SOL     OW 7144   0.916   2.772   4.015
 2131SOL    HW1 7145   0.979   2.810   3.947
 2131SOL    HW2 7146   0.956   2.689   4.054
 2132SOL     OW 7147   1.504   3.469   3.768
 2132SOL    HW1 7148   1.412   3.506   3.775
 2132SOL    HW2 7149   1.542   3.489   3.678
 2133SOL     OW 7150   0.372   3.150   5.214
 2133SOL    HW1 7151   0.359   3.243   5.180
 2133SOL    HW2 7152   0.288   3.098   5.201
 2134SOL     OW 7153   1.614   3.154   5.013
 2134SOL    HW1 7154   1.674   3.157   5.093
 2134SOL    HW2 7155   1.539   3.218   5.026
 2135SOL     OW 7156   1.039   2.960   4.420
 2135SOL    HW1 7157   0.969   2.913   4.474
 2135SOL    HW2 7158   1.098   2.892   4.377
 2136SOL     OW 7159   1.014   2.098   4.695
 2136SOL    HW1 7160   1.006   2.062   4.602
 2136SOL    HW2 7161   1.012   2.022   4.760
 2137SOL     OW 7162   0.590   3.349   4.215
 2137SOL    HW1 7163   0.632   3.291   4.145
 2137SOL    HW2 7164   0.546   3.428   4.171
 2138SOL     OW 7165   1.709   2.247   5.105
 2138SOL    HW1 7166   1.782   2.316   5.109
 2138SOL    HW2 7167   1.737   2.172   5.046
 2139SOL     OW 7168   0.255   3.210   4.014
 2139SOL    HW1 7169   0.159   3.211   3.987
 2139SOL    HW2 7170   0.267   3.263   4.098
 2140SOL     OW 7171   0.105   2.875   5.450
 2140SOL    HW1 7172   0.028   2.842   5.504
 2140SOL    HW2 7173   0.190   2.845   5.492
 2141SOL     OW 7174   0.672   2.065   5.213
 2141SOL    HW1 7175   0.762   2.049   5.173
 2141SOL    HW2 7176   0.680   2.070   5.312
 2142SOL     OW 7177   0.075   2.207   3.757
 2142SOL    HW1 7178  -0.017   2.179   3.728
 2142SOL    HW2 7179   0.106   2.284   3.701
 2143SOL     OW 7180   1.440   2.718   5.122
 2143SOL    HW1 7181   1.383   2.770   5.059
 2143SOL    HW2 7182   1.536   2.730   5.098
 2144SOL     OW 7183   0.072   2.028   4.042
 2144SOL    HW1 7184   0.055   2.111   3.988
 2144SOL    HW2 7185   0.162   1.991   4.020
 2145SOL     OW 7186   1.183   3.197   3.843
 2145SOL    HW1 7187   1.084   3.186   3.845
 2145SOL    HW2 7188   1.217   3.212   3.936
 2146SOL     OW 7189   0.613   2.704   5.155
 2146SOL    HW1 7190   0.669   2.785   5.138
 2146SOL    HW2 7191   0.672   2.624   5.158
 2147SOL     OW 7192   1.493   3.629   4.683
 2147SOL    HW1 7193   1.526   3.693   4.614
 2147SOL    HW2 7194   1.559   3.623   4.758
 2148SOL     OW 7195   0.716   2.427   5.432
 2148SOL    HW1 7196   0.735   2.492   5.506
 2148SOL    HW2 7197   0.776   2.347   5.441
 2149SOL     OW 7198   1.450   3.082   5.357
 2149SOL    HW1 7199   1.441   3.072   5.456
 2149SOL    HW2 7200   1.546   3.075   5.331
 2150SOL     OW 7201   0.390   3.603   5.284
 2150SOL    HW1 7202   0.299   3.644   5.282
 2150SOL    HW2 7203   0.383   3.509   5.316
 2151SOL     OW 7204   1.674   2.745   4.978
 2151SOL    HW1 7205   1.647   2.656   4.941
 2151SOL    HW2 7206   1.675   2.813   4.905
 2152SOL     OW 7207   1.225   2.187   4.173
 2152SOL    HW1 7208   1.290   2.113   4.162
 2152SOL    HW2 7209   1.245   2.237   4.257
 2153SOL     OW 7210   0.594   2.607   4.376
 2153SOL    HW1 7211   0.644   2.692   4.357
 2153SOL    HW2 7212   0.506   2.609   4.328
 2154SOL     OW 7213   1.777   2.204   5.366
 2154SOL    HW1 7214   1.760   2.235   5.272
 2154SOL    HW2 7215   1.693   2.167   5.404
 2155SOL     OW 7216   1.730   2.796   5.241
 2155SOL    HW1 7217   1.768   2.887   5.256
 2155SOL    HW2 7218   1.722   2.779   5.142
 2156SOL     OW 7219   0.859   3.236   3.740
 2156SOL    HW1 7220   0.813   3.251   3.828
 2156SOL    HW2 7221   0.903   3.321   3.710
 2157SOL     OW 7222   0.661   3.652   4.677
 2157SOL    HW1 7223   0.615   3.740   4.664
 2157SOL    HW2 7224   0.760   3.664   4.670
 2158SOL     OW 7225   0.859   2.818   4.585
 2158SOL    HW1 7226   0.913   2.749   4.633
 2158SOL    HW2 7227   0.827   2.887   4.651
 2159SOL     OW 7228   1.083   2.846   3.811
 2159SOL    HW1 7229   1.060   2.899   3.729
 2159SOL    HW2 7230   1.164   2.790   3.792
 2160SOL     OW 7231   1.861   3.431   4.575
 2160SOL    HW1 7232   1.790   3.419   4.505
 2160SOL    HW2 7233   1.862   3.352   4.635
 2161SOL     OW 7234   0.221   3.176   5.568
 2161SOL    HW1 7235   0.156   3.103   5.547
 2161SOL    HW2 7236   0.225   3.190   5.666
 2162SOL     OW 7237   0.079   3.102   4.377
 2162SOL    HW1 7238   0.078   3.055   4.465
 2162SOL    HW2 7239   0.161   3.074   4.326
 2163SOL     OW 7240   0.672   3.253   5.348
 2163SOL    HW1 7241   0.594   3.203   5.386
 2163SOL    HW2 7242   0.669   3.348   5.379
 2164SOL     OW 7243   0.428   2.286   4.244
 2164SOL    HW1 7244   0.458   2.214   4.182
 2164SOL    HW2 7245   0.389   2.246   4.327
 2165SOL     OW 7246   1.705   3.349   4.828
 2165SOL    HW1 7247   1.612   3.324   4.801
 2165SOL    HW2 7248   1.731   3.299   4.910
 2166SOL     OW 7249   0.317   2.409   5.004
 2166SOL    HW1 7250   0.355   2.350   5.076
 2166SOL    HW2 7251   0.357   2.383   4.916
 2167SOL     OW 7252   0.812   3.448   4.411
 2167SOL    HW1 7253   0.844   3.458   4.317
 2167SOL    HW2 7254   0.733   3.386   4.413
 2168SOL     OW 7255   1.424   2.076   4.836
 2168SOL    HW1 7256   1.476   2.011   4.891
 2168SOL    HW2 7257   1.375   2.139   4.897
 2169SOL     OW 7258   1.001   1.896   4.878
 2169SOL    HW1 7259   0.938   1.824   4.847
 2169SOL    HW2 7260   1.094   1.860   4.878
 2170SOL     OW 7261   0.770   3.192   4.025
 2170SOL    HW1 7262   0.724   3.105   4.042
 2170SOL    HW2 7263   0.861   3.189   4.066
 2171SOL     OW 7264   0.618   3.429   5.008
 2171SOL    HW1 7265   0.613   3.511   5.065
 2171SOL    HW2 7266   0.707   3.426   4.963
 2172SOL     OW 7267   1.352   1.914   3.892
 2172SOL    HW1 7268   1.387   1.873   3.808
 2172SOL    HW2 7269   1.262   1.876   3.912
 2173SOL     OW 7270   1.300   2.315   4.415
 2173SOL    HW1 7271   1.241   2.395   4.419
 2173SOL    HW2 7272   1.315   2.280   4.508
 2174SOL     OW 7273   1.593   2.083   4.606
 2174SOL    HW1 7274   1.509   2.082   4.660
 2174SOL    HW2 7275   1.595   2.166   4.550
 2175SOL     OW 7276   0.039   2.939   4.024
 2175SOL    HW1 7277   0.138   2.928   4.015
 2175SOL    HW2 7278  -0.001   2.853   4.056
 2176SOL     OW 7279   0.875   3.508   4.061
 2176SOL    HW1 7280   0.798   3.473   4.007
 2176SOL    HW2 7281   0.843   3.579   4.123
 2177SOL     OW 7282   0.230   2.490   5.699
 2177SOL    HW1 7283   0.137   2.488   5.736
 2177SOL    HW2 7284   0.231   2.451   5.607
 2178SOL     OW 7285   0.225   2.137   6.582
 2178SOL    HW1 7286   0.260   2.120   6.674
 2178SOL    HW2 7287   0.137   2.092   6.570
 2179SOL     OW 7288   0.019   2.230   6.233
 2179SOL    HW1 7289  -0.063   2.273   6.272
 2179SOL    HW2 7290  -0.009   2.157   6.170
 2180SOL     OW 7291   0.569   3.137   6.751
 2180SOL    HW1 7292   0.476   3.130   6.714
 2180SOL    HW2 7293   0.580   3.226   6.795
 2181SOL     OW 7294   1.555   3.373   6.289
 2181SOL    HW1 7295   1.498   3.357   6.370
 2181SOL    HW2 7296   1.496   3.383   6.209
 2182SOL     OW 7297   1.135   2.565   6.303
 2182SOL    HW1 7298   1.192   2.643   6.278
 2182SOL    HW2 7299   1.075   2.591   6.379
 2183SOL     OW 7300   1.755   2.469   5.817
 2183SOL    HW1 7301   1.743   2.456   5.718
 2183SOL    HW2 7302   1.725   2.388   5.866
 2184SOL     OW 7303   0.768   3.006   6.609
 2184SOL    HW1 7304   0.690   3.023   6.669
 2184SOL    HW2 7305   0.802   3.093   6.573
 2185SOL     OW 7306   0.850   2.660   7.409
 2185SOL    HW1 7307   0.846   2.736   7.474
 2185SOL    HW2 7308   0.872   2.696   7.318
 2186SOL     OW 7309   0.685   2.874   6.251
 2186SOL    HW1 7310   0.754   2.858   6.321
 2186SOL    HW2 7311   0.612   2.931   6.289
 2187SOL     OW 7312   0.686   3.023   7.389
 2187SOL    HW1 7313   0.746   3.102   7.403
 2187SOL    HW2 7314   0.600   3.054   7.348
 2188SOL     OW 7315   0.335   3.297   6.647
 2188SOL    HW1 7316   0.257   3.266   6.594
 2188SOL    HW2 7317   0.393   3.355   6.590
 2189SOL     OW 7318   1.460   3.367   6.925
 2189SOL    HW1 7319   1.484   3.461   6.951
 2189SOL    HW2 7320   1.444   3.313   7.007
 2190SOL     OW 7321   0.438   2.254   7.085
 2190SOL    HW1 7322   0.520   2.198   7.094
 2190SOL    HW2 7323   0.357   2.196   7.089
 2191SOL     OW 7324   0.231   3.575   6.069
 2191SOL    HW1 7325   0.265   3.652   6.123
 2191SOL    HW2 7326   0.275   3.575   5.979
 2192SOL     OW 7327   1.127   3.203   7.276
 2192SOL    HW1 7328   1.174   3.203   7.364
 2192SOL    HW2 7329   1.079   3.116   7.265
 2193SOL     OW 7330   0.230   3.296   6.124
 2193SOL    HW1 7331   0.204   3.392   6.124
 2193SOL    HW2 7332   0.159   3.242   6.169
 2194SOL     OW 7333   0.240   2.953   6.472
 2194SOL    HW1 7334   0.254   2.869   6.524
 2194SOL    HW2 7335   0.185   3.017   6.527
 2195SOL     OW 7336   0.620   3.648   7.025
 2195SOL    HW1 7337   0.528   3.631   7.060
 2195SOL    HW2 7338   0.648   3.740   7.051
 2196SOL     OW 7339   0.606   2.826   5.709
 2196SOL    HW1 7340   0.613   2.910   5.655
 2196SOL    HW2 7341   0.652   2.839   5.797
 2197SOL     OW 7342   1.594   1.976   7.066
 2197SOL    HW1 7343   1.576   2.043   6.994
 2197SOL    HW2 7344   1.591   2.022   7.155
 2198SOL     OW 7345   0.122   2.505   6.149
 2198SOL    HW1 7346   0.077   2.417   6.166
 2198SOL    HW2 7347   0.121   2.559   6.233
 2199SOL     OW 7348   1.842   3.629   5.945
 2199SOL    HW1 7349   1.896   3.600   6.025
 2199SOL    HW2 7350   1.872   3.719   5.916
 2200SOL     OW 7351   0.027   3.458   5.703
 2200SOL    HW1 7352   0.008   3.362   5.724
 2200SOL    HW2 7353  -0.006   3.516   5.778
 2201SOL     OW 7354   1.689   2.784   6.198
 2201SOL    HW1 7355   1.784   2.755   6.206
 2201SOL    HW2 7356   1.681   2.849   6.123
 2202SOL     OW 7357   1.641   2.970   6.018
 2202SOL    HW1 7358   1.727   2.972   5.966
 2202SOL    HW2 7359   1.655   3.017   6.106
 2203SOL     OW 7360   0.113   2.599   7.183
 2203SOL    HW1 7361   0.201   2.586   7.228
 2203SOL    HW2 7362   0.100   2.696   7.161
 2204SOL     OW 7363   0.613   3.227   6.312
 2204SOL    HW1 7364   0.564   3.140   6.321
 2204SOL    HW2 7365   0.590   3.270   6.225
 2205SOL     OW 7366   1.293   3.090   7.009
 2205SOL    HW1 7367   1.330   3.017   6.951
 2205SOL    HW2 7368   1.345   3.095   7.094
 2206SOL     OW 7369   0.809   1.866   6.088
 2206SOL    HW1 7370   0.849   1.957   6.079
 2206SOL    HW2 7371   0.709   1.874   6.094
 2207SOL     OW 7372   0.197   2.838   6.850
 2207SOL    HW1 7373   0.286   2.793   6.836
 2207SOL    HW2 7374   0.124   2.773   6.831
 2208SOL     OW 7375   1.525   2.861   5.776
 2208SOL    HW1 7376   1.462   2.785   5.789
 2208SOL    HW2 7377   1.573   2.879   5.862
 2209SOL     OW 7378   1.187   3.654   7.202
 2209SOL    HW1 7379   1.211   3.714   7.126
 2209SOL    HW2 7380   1.194   3.559   7.172
 2210SOL     OW 7381   0.317   2.113   7.387
 2210SOL    HW1 7382   0.388   2.184   7.393
 2210SOL    HW2 7383   0.229   2.152   7.415
 2211SOL     OW 7384   1.466   3.279   6.539
 2211SOL    HW1 7385   1.407   3.285   6.619
 2211SOL    HW2 7386   1.451   3.191   6.493
 2212SOL     OW 7387   1.667   3.576   6.158
 2212SOL    HW1 7388   1.626   3.553   6.070
 2212SOL    HW2 7389   1.649   3.502   6.223
 2213SOL     OW 7390   0.598   2.591   5.856
 2213SOL    HW1 7391   0.622   2.660   5.788
 2213SOL    HW2 7392   0.520   2.624   5.910
 2214SOL     OW 7393   1.576   3.524   5.893
 2214SOL    HW1 7394   1.665   3.570   5.896
 2214SOL    HW2 7395   1.555   3.500   5.798
 2215SOL     OW 7396   0.807   2.467   7.051
 2215SOL    HW1 7397   0.760   2.464   7.140
 2215SOL    HW2 7398   0.756   2.412   6.985
 2216SOL     OW 7399   0.973   2.752   7.158
 2216SOL    HW1 7400   1.019   2.668   7.129
 2216SOL    HW2 7401   0.917   2.786   7.083
 2217SOL     OW 7402   0.991   2.272   6.828
 2217SOL    HW1 7403   0.914   2.306   6.882
 2217SOL    HW2 7404   0.957   2.221   6.749
 2218SOL     OW 7405   1.041   2.563   6.015
 2218SOL    HW1 7406   1.067   2.559   6.111
 2218SOL    HW2 7407   0.956   2.512   6.001
 2219SOL     OW 7408   0.076   2.673   6.375
 2219SOL    HW1 7409   0.175   2.661   6.384
 2219SOL    HW2 7410   0.052   2.768   6.396
 2220SOL     OW 7411   0.130   3.683   7.157
 2220SOL    HW1 7412   0.120   3.668   7.256
 2220SOL    HW2 7413   0.044   3.719   7.121
 2221SOL     OW 7414   0.865   2.210   5.781
 2221SOL    HW1 7415   0.924   2.273   5.732
 2221SOL    HW2 7416   0.884   2.116   5.752
 2222SOL     OW 7417   1.362   3.006   6.131
 2222SOL    HW1 7418   1.445   2.977   6.083
 2222SOL    HW2 7419   1.313   3.073   6.075
 2223SOL     OW 7420   0.550   2.058   6.471
 2223SOL    HW1 7421   0.545   2.053   6.571
 2223SOL    HW2 7422   0.552   2.154   6.442
 2224SOL     OW 7423   1.008   3.318   6.063
 2224SOL    HW1 7424   0.962   3.390   6.011
 2224SOL    HW2 7425   1.004   3.338   6.161
 2225SOL     OW 7426   0.351   3.663   6.439
 2225SOL    HW1 7427   0.401   3.577   6.445
 2225SOL    HW2 7428   0.416   3.740   6.436
 2226SOL     OW 7429   1.795   2.928   6.459
 2226SOL    HW1 7430   1.733   2.913   6.383
 2226SOL    HW2 7431   1.743   2.939   6.544
 2227SOL     OW 7432   1.227   3.412   7.092
 2227SOL    HW1 7433   1.233   3.335   7.156
 2227SOL    HW2 7434   1.175   3.386   7.012
 2228SOL     OW 7435   0.321   2.805   5.828
 2228SOL    HW1 7436   0.403   2.844   5.786
 2228SOL    HW2 7437   0.294   2.723   5.779
 2229SOL     OW 7438   0.461   3.128   7.313
 2229SOL    HW1 7439   0.411   3.129   7.227
 2229SOL    HW2 7440   0.398   3.110   7.389
 2230SOL     OW 7441   1.111   3.638   5.823
 2230SOL    HW1 7442   1.051   3.576   5.873
 2230SOL    HW2 7443   1.142   3.594   5.738
 2231SOL     OW 7444   0.202   2.147   7.084
 2231SOL    HW1 7445   0.122   2.207   7.071
 2231SOL    HW2 7446   0.192   2.098   7.170
 2232SOL     OW 7447   1.632   3.239   5.667
 2232SOL    HW1 7448   1.600   3.333   5.657
 2232SOL    HW2 7449   1.556   3.176   5.655
 2233SOL     OW 7450   0.464   3.605   5.909
 2233SOL    HW1 7451   0.497   3.644   5.995
 2233SOL    HW2 7452   0.540   3.598   5.844
 2234SOL     OW 7453   0.249   3.647   6.827
 2234SOL    HW1 7454   0.306   3.582   6.877
 2234SOL    HW2 7455   0.233   3.614   6.734
 2235SOL     OW 7456   0.940   3.560   6.490
 2235SOL    HW1 7457   1.020   3.503   6.511
 2235SOL    HW2 7458   0.891   3.520   6.413
 2236SOL     OW 7459   0.382   2.562   6.066
 2236SOL    HW1 7460   0.427   2.472   6.063
 2236SOL    HW2 7461   0.288   2.551   6.099
 2237SOL     OW 7462   0.614   1.984   5.703
 2237SOL    HW1 7463   0.712   1.962   5.710
 2237SOL    HW2 7464   0.583   1.967   5.610
 2238SOL     OW 7465   0.781   2.126   7.335
 2238SOL    HW1 7466   0.848   2.065   7.378
 2238SOL    HW2 7467   0.708   2.145   7.400
 2239SOL     OW 7468   0.888   3.376   6.781
 2239SOL    HW1 7469   0.865   3.351   6.687
 2239SOL    HW2 7470   0.949   3.307   6.820
 2240SOL     OW 7471   0.803   3.264   6.510
 2240SOL    HW1 7472   0.893   3.278   6.468
 2240SOL    HW2 7473   0.732   3.266   6.439
 2241SOL     OW 7474   0.922   2.365   6.485
 2241SOL    HW1 7475   0.897   2.356   6.389
 2241SOL    HW2 7476   0.970   2.283   6.516
 2242SOL     OW 7477   0.539   1.926   6.098
 2242SOL    HW1 7478   0.458   1.927   6.156
 2242SOL    HW2 7479   0.542   2.009   6.043
 2243SOL     OW 7480   1.434   3.050   5.627
 2243SOL    HW1 7481   1.466   2.974   5.684
 2243SOL    HW2 7482   1.342   3.077   5.657
 2244SOL     OW 7483   0.297   1.897   5.757
 2244SOL    HW1 7484   0.346   1.981   5.736
 2244SOL    HW2 7485   0.359   1.832   5.802
 2245SOL     OW 7486   0.935   2.098   6.066
 2245SOL    HW1 7487   0.887   2.139   5.988
 2245SOL    HW2 7488   1.034   2.096   6.047
 2246SOL     OW 7489   1.076   2.545   7.050
 2246SOL    HW1 7490   0.996   2.484   7.053
 2246SOL    HW2 7491   1.157   2.492   7.026
 2247SOL     OW 7492   1.227   3.432   6.379
 2247SOL    HW1 7493   1.248   3.506   6.314
 2247SOL    HW2 7494   1.295   3.432   6.452
 2248SOL     OW 7495   0.459   3.014   6.327
 2248SOL    HW1 7496   0.388   2.987   6.392
 2248SOL    HW2 7497   0.433   2.986   6.234
 2249SOL     OW 7498   1.271   3.659   6.177
 2249SOL    HW1 7499   1.315   3.723   6.113
 2249SOL    HW2 7500   1.221   3.711   6.247
 2250SOL     OW 7501   1.032   2.411   5.602
 2250SOL    HW1 7502   0.991   2.493   5.563
 2250SOL    HW2 7503   1.096   2.437   5.675
 2251SOL     OW 7504   0.078   2.418   6.972
 2251SOL    HW1 7505   0.170   2.417   6.931
 2251SOL    HW2 7506   0.072   2.492   7.039
 2252SOL     OW 7507   0.561   2.084   6.733
 2252SOL    HW1 7508   0.599   2.000   6.770
 2252SOL    HW2 7509   0.473   2.103   6.777
 2253SOL     OW 7510   0.866   2.316   6.228
 2253SOL    HW1 7511   0.834   2.388   6.166
 2253SOL    HW2 7512   0.890   2.235   6.175
 2254SOL     OW 7513   1.017   1.901   6.339
 2254SOL    HW1 7514   0.945   1.906   6.270
 2254SOL    HW2 7515   0.993   1.832   6.408
 2255SOL     OW 7516   1.429   3.035   6.453
 2255SOL    HW1 7517   1.374   2.951   6.446
 2255SOL    HW2 7518   1.455   3.064   6.361
 2256SOL     OW 7519   0.488   3.247   5.760
 2256SOL    HW1 7520   0.401   3.232   5.807
 2256SOL    HW2 7521   0.471   3.273   5.665
 2257SOL     OW 7522   1.664   3.142   6.243
 2257SOL    HW1 7523   1.763   3.150   6.257
 2257SOL    HW2 7524   1.619   3.226   6.274
 2258SOL     OW 7525   1.390   2.437   5.664
 2258SOL    HW1 7526   1.336   2.416   5.745
 2258SOL    HW2 7527   1.481   2.396   5.673
 2259SOL     OW 7528   0.527   2.118   5.914
 2259SOL    HW1 7529   0.554   2.059   5.839
 2259SOL    HW2 7530   0.527   2.213   5.883
 2260SOL     OW 7531   1.754   3.085   7.174
 2260SOL    HW1 7532   1.845   3.046   7.161
 2260SOL    HW2 7533   1.762   3.181   7.198
 2261SOL     OW 7534   1.064   3.209   6.926
 2261SOL    HW1 7535   0.984   3.186   6.981
 2261SOL    HW2 7536   1.147   3.183   6.975
 2262SOL     OW 7537   1.592   3.491   7.211
 2262SOL    HW1 7538   1.619   3.525   7.121
 2262SOL    HW2 7539   1.671   3.453   7.257
 2263SOL     OW 7540   1.111   3.057   6.686
 2263SOL    HW1 7541   1.071   3.101   6.767
 2263SOL    HW2 7542   1.070   3.094   6.603
 2264SOL     OW 7543   1.638   2.961   6.665
 2264SOL    HW1 7544   1.643   3.042   6.724
 2264SOL    HW2 7545   1.552   2.963   6.614
 2265SOL     OW 7546   0.915   1.951   6.988
 2265SOL    HW1 7547   0.940   1.931   6.893
 2265SOL    HW2 7548   0.987   2.007   7.030
 2266SOL     OW 7549   0.980   2.978   7.305
 2266SOL    HW1 7550   0.881   2.984   7.315
 2266SOL    HW2 7551   1.003   2.898   7.249
 2267SOL     OW 7552   0.705   2.912   5.954
 2267SOL    HW1 7553   0.691   2.919   6.053
 2267SOL    HW2 7554   0.789   2.861   5.936
 2268SOL     OW 7555   0.410   2.675   6.837
 2268SOL    HW1 7556   0.496   2.687   6.887
 2268SOL    HW2 7557   0.368   2.588   6.864
 2269SOL     OW 7558   1.274   2.248   6.848
 2269SOL    HW1 7559   1.295   2.322   6.912
 2269SOL    HW2 7560   1.185   2.265   6.805
 2270SOL     OW 7561   0.064   3.426   6.917
 2270SOL    HW1 7562   0.018   3.508   6.883
 2270SOL    HW2 7563   0.162   3.445   6.926
 2271SOL     OW 7564   0.367   2.962   6.087
 2271SOL    HW1 7565   0.360   3.045   6.031
 2271SOL    HW2 7566   0.371   2.882   6.027
 2272SOL     OW 7567   0.566   2.399   6.451
 2272SOL    HW1 7568   0.578   2.465   6.377
 2272SOL    HW2 7569   0.612   2.433   6.534
 2273SOL     OW 7570   1.252   3.210   5.974
 2273SOL    HW1 7571   1.302   3.287   6.014
 2273SOL    HW2 7572   1.157   3.212   6.006
 2274SOL     OW 7573   1.272   3.307   6.728
 2274SOL    HW1 7574   1.319   3.320   6.815
 2274SOL    HW2 7575   1.206   3.233   6.737
 2275SOL     OW 7576   0.354   3.372   6.915
 2275SOL    HW1 7577   0.333   3.328   6.828
 2275SOL    HW2 7578   0.451   3.398   6.918
 2276SOL     OW 7579   0.402   2.613   7.184
 2276SOL    HW1 7580   0.470   2.668   7.137
 2276SOL    HW2 7581   0.442   2.525   7.211
 2277SOL     OW 7582   1.013   1.967   7.356
 2277SOL    HW1 7583   1.019   2.052   7.304
 2277SOL    HW2 7584   1.045   1.891   7.299
 2278SOL     OW 7585   0.504   1.912   7.326
 2278SOL    HW1 7586   0.462   1.855   7.256
 2278SOL    HW2 7587   0.438   1.981   7.358
 2279SOL     OW 7588   0.573   2.732   6.615
 2279SOL    HW1 7589   0.617   2.821   6.606
 2279SOL    HW2 7590   0.510   2.732   6.692
 2280SOL     OW 7591   1.360   2.724   6.631
 2280SOL    HW1 7592   1.285   2.724   6.565
 2280SOL    HW2 7593   1.397   2.632   6.640
 2281SOL     OW 7594   1.209   2.387   5.861
 2281SOL    HW1 7595   1.222   2.303   5.915
 2281SOL    HW2 7596   1.180   2.461   5.921
 2282SOL     OW 7597   0.307   2.075   6.817
 2282SOL    HW1 7598   0.284   2.112   6.907
 2282SOL    HW2 7599   0.277   1.980   6.811
 2283SOL     OW 7600   0.037   3.172   6.868
 2283SOL    HW1 7601   0.090   3.123   6.936
 2283SOL    HW2 7602   0.059   3.270   6.873
 2284SOL     OW 7603   0.732   2.496   6.650
 2284SOL    HW1 7604   0.791   2.470   6.574
 2284SOL    HW2 7605   0.704   2.592   6.639
 2285SOL     OW 7606   0.307   1.925   6.204
 2285SOL    HW1 7607   0.296   2.019   6.237
 2285SOL    HW2 7608   0.302   1.862   6.281
 2286SOL     OW 7609   1.622   2.229   5.960
 2286SOL    HW1 7610   1.624   2.153   6.024
 2286SOL    HW2 7611   1.574   2.306   6.000
 2287SOL     OW 7612   1.023   2.628   6.552
 2287SOL    HW1 7613   1.038   2.649   6.648
 2287SOL    HW2 7614   0.993   2.533   6.543
 2288SOL     OW 7615   0.980   3.435   7.286
 2288SOL    HW1 7616   0.960   3.479   7.198
 2288SOL    HW2 7617   1.019   3.344   7.270
 2289SOL     OW 7618   1.859   3.380   7.191
 2289SOL    HW1 7619   1.873   3.407   7.096
 2289SOL    HW2 7620   1.942   3.402   7.244
 2290SOL     OW 7621   0.350   2.760   7.390
 2290SOL    HW1 7622   0.426   2.804   7.438
 2290SOL    HW2 7623   0.385   2.713   7.308
 2291SOL     OW 7624   1.540   2.136   5.711
 2291SOL    HW1 7625   1.479   2.061   5.734
 2291SOL    HW2 7626   1.562   2.188   5.794
 2292SOL     OW 7627   1.303   2.700   5.628
 2292SOL    HW1 7628   1.337   2.607   5.643
 2292SOL    HW2 7629   1.321   2.727   5.533
 2293SOL     OW 7630   1.068   3.195   6.435
 2293SOL    HW1 7631   1.075   3.111   6.380
 2293SOL    HW2 7632   1.130   3.264   6.399
 2294SOL     OW 7633   0.319   2.672   6.535
 2294SOL    HW1 7634   0.412   2.708   6.540
 2294SOL    HW2 7635   0.313   2.587   6.587
 2295SOL     OW 7636   0.339   2.371   6.592
 2295SOL    HW1 7637   0.287   2.288   6.575
 2295SOL    HW2 7638   0.416   2.376   6.528
 2296SOL     OW 7639   1.160   2.069   7.063
 2296SOL    HW1 7640   1.160   2.133   7.140
 2296SOL    HW2 7641   1.188   2.117   6.980
 2297SOL     OW 7642   0.008   3.188   5.786
 2297SOL    HW1 7643  -0.085   3.209   5.755
 2297SOL    HW2 7644   0.018   3.089   5.799
 2298SOL     OW 7645   0.088   3.663   6.513
 2298SOL    HW1 7646   0.046   3.577   6.486
 2298SOL    HW2 7647   0.182   3.666   6.479
 2299SOL     OW 7648   0.504   3.430   6.496
 2299SOL    HW1 7649   0.570   3.504   6.505
 2299SOL    HW2 7650   0.548   3.351   6.454
 2300SOL     OW 7651   1.002   2.658   6.824
 2300SOL    HW1 7652   1.043   2.626   6.910
 2300SOL    HW2 7653   0.906   2.631   6.821
 2301SOL     OW 7654   0.040   2.406   6.700
 2301SOL    HW1 7655   0.125   2.373   6.659
 2301SOL    HW2 7656   0.053   2.421   6.798
 2302SOL     OW 7657   0.189   2.382   7.308
 2302SOL    HW1 7658   0.248   2.342   7.238
 2302SOL    HW2 7659   0.131   2.453   7.267
 2303SOL     OW 7660   1.369   2.812   7.246
 2303SOL    HW1 7661   1.408   2.901   7.266
 2303SOL    HW2 7662   1.379   2.792   7.149
 2304SOL     OW 7663   0.815   2.434   5.911
 2304SOL    HW1 7664   0.822   2.345   5.865
 2304SOL    HW2 7665   0.721   2.468   5.903
 2305SOL     OW 7666   1.657   2.466   6.792
 2305SOL    HW1 7667   1.619   2.397   6.854
 2305SOL    HW2 7668   1.739   2.430   6.748
 2306SOL     OW 7669   0.252   3.426   7.330
 2306SOL    HW1 7670   0.222   3.483   7.406
 2306SOL    HW2 7671   0.245   3.329   7.356
 2307SOL     OW 7672   0.671   2.326   6.855
 2307SOL    HW1 7673   0.637   2.237   6.825
 2307SOL    HW2 7674   0.697   2.380   6.775
 2308SOL     OW 7675   0.930   3.540   7.051
 2308SOL    HW1 7676   0.906   3.522   6.956
 2308SOL    HW2 7677   0.960   3.634   7.061
 2309SOL     OW 7678   0.473   2.362   5.777
 2309SOL    HW1 7679   0.534   2.442   5.781
 2309SOL    HW2 7680   0.378   2.393   5.784
 2310SOL     OW 7681   0.159   2.999   7.052
 2310SOL    HW1 7682   0.181   2.938   7.128
 2310SOL    HW2 7683   0.169   2.950   6.966
 2311SOL     OW 7684   1.347   2.921   6.820
 2311SOL    HW1 7685   1.371   2.858   6.746
 2311SOL    HW2 7686   1.257   2.961   6.802
 2312SOL     OW 7687   1.302   2.717   5.895
 2312SOL    HW1 7688   1.216   2.686   5.937
 2312SOL    HW2 7689   1.298   2.703   5.796
 2313SOL     OW 7690   1.759   3.609   6.740
 2313SOL    HW1 7691   1.820   3.639   6.667
 2313SOL    HW2 7692   1.721   3.520   6.718
 2314SOL     OW 7693   1.252   3.593   6.714
 2314SOL    HW1 7694   1.336   3.598   6.660
 2314SOL    HW2 7695   1.229   3.497   6.732
 2315SOL     OW 7696   0.083   3.120   6.608
 2315SOL    HW1 7697   0.078   3.119   6.708
 2315SOL    HW2 7698   0.000   3.079   6.570
 2316SOL     OW 7699   0.688   3.524   7.302
 2316SOL    HW1 7700   0.632   3.605   7.311
 2316SOL    HW2 7701   0.740   3.528   7.216
 2317SOL     OW 7702   1.388   3.435   6.063
 2317SOL    HW1 7703   1.455   3.447   5.989
 2317SOL    HW2 7704   1.348   3.524   6.086
 2318SOL     OW 7705   0.130   3.656   7.437
 2318SOL    HW1 7706   0.089   3.582   7.490
 2318SOL    HW2 7707   0.194   3.707   7.495
 2319SOL     OW 7708   1.280   2.789   6.258
 2319SOL    HW1 7709   1.340   2.708   6.260
 2319SOL    HW2 7710   1.320   2.858   6.198
 2320SOL     OW 7711   0.830   3.135   7.008
 2320SOL    HW1 7712   0.825   3.168   7.103
 2320SOL    HW2 7713   0.744   3.154   6.962
 2321SOL     OW 7714   0.672   3.478   5.740
 2321SOL    HW1 7715   0.681   3.488   5.641
 2321SOL    HW2 7716   0.632   3.389   5.761
 2322SOL     OW 7717   1.650   3.582   6.980
 2322SOL    HW1 7718   1.703   3.592   6.896
 2322SOL    HW2 7719   1.623   3.672   7.014
 2323SOL     OW 7720   0.263   2.188   6.306
 2323SOL    HW1 7721   0.184   2.239   6.272
 2323SOL    HW2 7722   0.254   2.173   6.404
 2324SOL     OW 7723   1.194   3.474   5.617
 2324SOL    HW1 7724   1.200   3.381   5.654
 2324SOL    HW2 7725   1.135   3.474   5.537
 2325SOL     OW 7726   0.822   2.864   6.958
 2325SOL    HW1 7727   0.862   2.863   6.866
 2325SOL    HW2 7728   0.832   2.956   6.998
 2326SOL     OW 7729   0.916   2.772   5.877
 2326SOL    HW1 7730   0.979   2.810   5.809
 2326SOL    HW2 7731   0.956   2.689   5.916
 2327SOL     OW 7732   1.504   3.469   5.630
 2327SOL    HW1 7733   1.412   3.506   5.637
 2327SOL    HW2 7734   1.542   3.489   5.540
 2328SOL     OW 7735   0.372   3.150   7.076
 2328SOL    HW1 7736   0.359   3.243   7.042
 2328SOL    HW2 7737   0.288   3.098   7.063
 2329SOL     OW 7738   1.614   3.154   6.875
 2329SOL    HW1 7739   1.674   3.157   6.955
 2329SOL    HW2 7740   1.539   3.218   6.888
 2330SOL     OW 7741   1.039   2.960   6.282
 2330SOL    HW1 7742   0.969   2.913   6.336
 2330SOL    HW2 7743   1.098   2.892   6.239
 2331SOL     OW 7744   1.014   2.098   6.557
 2331SOL    HW1 7745   1.006   2.062   6.464
 2331SOL    HW2 7746   1.012   2.022   6.622
 2332SOL     OW 7747   0.590   3.349   6.077
 2332SOL    HW1 7748   0.632   3.291   6.007
 2332SOL    HW2 7749   0.546   3.428   6.033
 2333SOL     OW 7750   1.709   2.247   6.967
 2333SOL    HW1 7751   1.782   2.316   6.971
 2333SOL    HW2 7752   1.737   2.172   6.908
 2334SOL     OW 7753   0.255   3.210   5.876
 2334SOL    HW1 7754   0.159   3.211   5.849
 2334SOL    HW2 7755   0.267   3.263   5.960
 2335SOL     OW 7756   0.105   2.875   7.312
 2335SOL    HW1 7757   0.028   2.842   7.366
 2335SOL    HW2 7758   0.190   2.845   7.354
 2336SOL     OW 7759   0.672   2.065   7.075
 2336SOL    HW1 7760   0.762   2.049   7.035
 2336SOL    HW2 7761   0.680   2.070   7.174
 2337SOL     OW 7762   0.075   2.207   5.619
 2337SOL    HW1 7763  -0.017   2.179   5.590
 2337SOL    HW2 7764   0.106   2.284   5.563
 2338SOL     OW 7765   1.440   2.718   6.984
 2338SOL    HW1 7766   1.383   2.770   6.921
 2338SOL    HW2 7767   1.536   2.730   6.960
 2339SOL     OW 7768   0.072   2.028   5.904
 2339SOL    HW1 7769   0.055   2.111   5.850
 2339SOL    HW2 7770   0.162   1.991   5.882
 2340SOL     OW 7771   1.183   3.197   5.705
 2340SOL    HW1 7772   1.084   3.186   5.707
 2340SOL    HW2 7773   1.217   3.212   5.798
 2341SOL     OW 7774   0.613   2.704   7.017
 2341SOL    HW1 7775   0.669   2.785   7.000
 2341SOL    HW2 7776   0.672   2.624   7.020
 2342SOL     OW 7777   1.493   3.629   6.545
 2342SOL    HW1 7778   1.526   3.693   6.476
 2342SOL    HW2 7779   1.559   3.623   6.620
 2343SOL     OW 7780   0.716   2.427   7.294
 2343SOL    HW1 7781   0.735   2.492   7.368
 2343SOL    HW2 7782   0.776   2.347   7.303
 2344SOL     OW 7783   1.450   3.082   7.219
 2344SOL    HW1 7784   1.441   3.072   7.318
 2344SOL    HW2 7785   1.546   3.075   7.193
 2345SOL     OW 7786   0.390   3.603   7.146
 2345SOL    HW1 7787   0.299   3.644   7.144
 2345SOL    HW2 7788   0.383   3.509   7.178
 2346SOL     OW 7789   0.594   2.607   6.238
 2346SOL    HW1 7790   0.644   2.692   6.219
 2346SOL    HW2 7791   0.506   2.609   6.190
 2347SOL     OW 7792   1.777   2.204   7.228
 2347SOL    HW1 7793   1.760   2.235   7.134
 2347SOL    HW2 7794   1.693   2.167   7.266
 2348SOL     OW 7795   1.730   2.796   7.103
 2348SOL    HW1 7796   1.768   2.887   7.118
 2348SOL    HW2 7797   1.722   2.779   7.004
 2349SOL     OW 7798   0.859   3.236   5.602
 2349SOL    HW1 7799   0.813   3.251   5.690
 2349SOL    HW2 7800   0.903   3.321   5.572
 2350SOL     OW 7801   0.661   3.652   6.539
 2350SOL    HW1 7802   0.615   3.740   6.526
 2350SOL    HW2 7803   0.760   3.664   6.532
 2351SOL     OW 7804   0.859   2.818   6.447
 2351SOL    HW1 7805   0.913   2.749   6.495
 2351SOL    HW2 7806   0.827   2.887   6.513
 2352SOL     OW 7807   1.083   2.846   5.673
 2352SOL    HW1 7808   1.060   2.899   5.591
 2352SOL    HW2 7809   1.164   2.790   5.654
 2353SOL     OW 7810   1.861   3.431   6.437
 2353SOL    HW1 7811   1.790   3.419   6.367
 2353SOL    HW2 7812   1.862   3.352   6.497
 2354SOL     OW 7813   0.221   3.176   7.430
 2354SOL    HW1 7814   0.156   3.103   7.409
 2354SOL    HW2 7815   0.225   3.190   7.528
 2355SOL     OW 7816   0.079   3.102   6.239
 2355SOL    HW1 7817   0.078   3.055   6.327
 2355SOL    HW2 7818   0.161   3.074   6.188
 2356SOL     OW 7819   0.672   3.253   7.210
 2356SOL    HW1 7820   0.594   3.203   7.248
 2356SOL    HW2 7821   0.669   3.348   7.241
 2357SOL     OW 7822   0.428   2.286   6.106
 2357SOL    HW1 7823   0.458   2.214   6.044
 2357SOL    HW2 7824   0.389   2.246   6.189
 2358SOL     OW 7825   1.705   3.349   6.690
 2358SOL    HW1 7826   1.612   3.324   6.663
 2358SOL    HW2 7827   1.731   3.299   6.772
 2359SOL     OW 7828   0.317   2.409   6.866
 2359SOL    HW1 7829   0.355   2.350   6.938
 2359SOL    HW2 7830   0.357   2.383   6.778
 2360SOL     OW 7831   0.812   3.448   6.273
 2360SOL    HW1 7832   0.844   3.458   6.179
 2360SOL    HW2 7833   0.733   3.386   6.275
 2361SOL     OW 7834   1.001   1.896   6.740
 2361SOL    HW1 7835   0.938   1.824   6.709
 2361SOL    HW2 7836   1.094   1.860   6.740
 2362SOL     OW 7837   0.770   3.192   5.887
 2362SOL    HW1 7838   0.724   3.105   5.904
 2362SOL    HW2 7839   0.861   3.189   5.928
 2363SOL     OW 7840   0.618   3.429   6.870
 2363SOL    HW1 7841   0.613   3.511   6.927
 2363SOL    HW2 7842   0.707   3.426   6.825
 2364SOL     OW 7843   1.352   1.914   5.754
 2364SOL    HW1 7844   1.387   1.873   5.670
 2364SOL    HW2 7845   1.262   1.876   5.774
 2365SOL     OW 7846   0.039   2.939   5.886
 2365SOL    HW1 7847   0.138   2.928   5.877
 2365SOL    HW2 7848  -0.001   2.853   5.918
 2366SOL     OW 7849   0.875   3.508   5.923
 2366SOL    HW1 7850   0.798   3.473   5.869
 2366SOL    HW2 7851   0.843   3.579   5.985
 2367SOL     OW 7852   0.230   2.490   7.561
 2367SOL    HW1 7853   0.137   2.488   7.598
 2367SOL    HW2 7854   0.231   2.451   7.469
 2368SOL     OW 7855   0.225   2.137   8.444
 2368SOL    HW1 7856   0.260   2.120   8.536
 2368SOL    HW2 7857   0.137   2.092   8.432
 2369SOL     OW 7858   0.019   2.230   8.095
 2369SOL    HW1 7859  -0.063   2.273   8.134
 2369SOL    HW2 7860  -0.009   2.157   8.032
 2370SOL     OW 7861   0.569   3.137   8.613
 2370SOL    HW1 7862   0.476   3.130   8.576
 2370SOL    HW2 7863   0.580   3.226   8.657
 2371SOL     OW 7864   1.555   3.373   8.151
 2371SOL    HW1 7865   1.498   3.357   8.232
 2371SOL    HW2 7866   1.496   3.383   8.071
 2372SOL     OW 7867   1.135   2.565   8.165
 2372SOL    HW1 7868   1.192   2.643   8.140
 2372SOL    HW2 7869   1.075   2.591   8.241
 2373SOL     OW 7870   0.768   3.006   8.471
 2373SOL    HW1 7871   0.690   3.023   8.531
 2373SOL    HW2 7872   0.802   3.093   8.435
 2374SOL     OW 7873   0.850   2.660   9.271
 2374SOL    HW1 7874   0.846   2.736   9.336
 2374SOL    HW2 7875   0.872   2.696   9.180
 2375SOL     OW 7876   0.685   2.874   8.113
 2375SOL    HW1 7877   0.754   2.858   8.183
 2375SOL    HW2 7878   0.612   2.931   8.151
 2376SOL     OW 7879   0.686   3.023   9.251
 2376SOL    HW1 7880   0.746   3.102   9.265
 2376SOL    HW2 7881   0.600   3.054   9.210
 2377SOL     OW 7882   0.335   3.297   8.509
 2377SOL    HW1 7883   0.257   3.266   8.456
 2377SOL    HW2 7884   0.393   3.355   8.452
 2378SOL     OW 7885   1.460   3.367   8.787
 2378SOL    HW1 7886   1.484   3.461   8.813
 2378SOL    HW2 7887   1.444   3.313   8.869
 2379SOL     OW 7888   0.438   2.254   8.947
 2379SOL    HW1 7889   0.520   2.198   8.956
 2379SOL    HW2 7890   0.357   2.196   8.951
 2380SOL     OW 7891   1.603   2.309   8.185
 2380SOL    HW1 7892   1.529   2.355   8.135
 2380SOL    HW2 7893   1.654   2.377   8.238
 2381SOL     OW 7894   0.231   3.575   7.931
 2381SOL    HW1 7895   0.265   3.652   7.985
 2381SOL    HW2 7896   0.275   3.575   7.841
 2382SOL     OW 7897   1.127   3.203   9.138
 2382SOL    HW1 7898   1.174   3.203   9.226
 2382SOL    HW2 7899   1.079   3.116   9.127
 2383SOL     OW 7900   0.230   3.296   7.986
 2383SOL    HW1 7901   0.204   3.392   7.986
 2383SOL    HW2 7902   0.159   3.242   8.031
 2384SOL     OW 7903   0.240   2.953   8.334
 2384SOL    HW1 7904   0.254   2.869   8.386
 2384SOL    HW2 7905   0.185   3.017   8.389
 2385SOL     OW 7906   0.620   3.648   8.887
 2385SOL    HW1 7907   0.528   3.631   8.922
 2385SOL    HW2 7908   0.648   3.740   8.913
 2386SOL     OW 7909   0.606   2.826   7.571
 2386SOL    HW1 7910   0.613   2.910   7.517
 2386SOL    HW2 7911   0.652   2.839   7.659
 2387SOL     OW 7912   1.594   1.976   8.928
 2387SOL    HW1 7913   1.576   2.043   8.856
 2387SOL    HW2 7914   1.591   2.022   9.017
 2388SOL     OW 7915   0.122   2.505   8.011
 2388SOL    HW1 7916   0.077   2.417   8.028
 2388SOL    HW2 7917   0.121   2.559   8.095
 2389SOL     OW 7918   1.842   3.629   7.807
 2389SOL    HW1 7919   1.896   3.600   7.887
 2389SOL    HW2 7920   1.872   3.719   7.778
 2390SOL     OW 7921   0.027   3.458   7.565
 2390SOL    HW1 7922   0.008   3.362   7.586
 2390SOL    HW2 7923  -0.006   3.516   7.640
 2391SOL     OW 7924   1.689   2.784   8.060
 2391SOL    HW1 7925   1.784   2.755   8.068
 2391SOL    HW2 7926   1.681   2.849   7.985
 2392SOL     OW 7927   1.641   2.970   7.880
 2392SOL    HW1 7928   1.727   2.972   7.828
 2392SOL    HW2 7929   1.655   3.017   7.968
 2393SOL     OW 7930   0.113   2.599   9.045
 2393SOL    HW1 7931   0.201   2.586   9.090
 2393SOL    HW2 7932   0.100   2.696   9.023
 2394SOL     OW 7933   0.613   3.227   8.174
 2394SOL    HW1 7934   0.564   3.140   8.183
 2394SOL    HW2 7935   0.590   3.270   8.087
 2395SOL     OW 7936   1.293   3.090   8.871
 2395SOL    HW1 7937   1.330   3.017   8.813
 2395SOL    HW2 7938   1.345   3.095   8.956
 2396SOL     OW 7939   0.809   1.866   7.950
 2396SOL    HW1 7940   0.849   1.957   7.941
 2396SOL    HW2 7941   0.709   1.874   7.956
 2397SOL     OW 7942   0.197   2.838   8.712
 2397SOL    HW1 7943   0.286   2.793   8.698
 2397SOL    HW2 7944   0.124   2.773   8.693
 2398SOL     OW 7945   1.525   2.861   7.638
 2398SOL    HW1 7946   1.462   2.785   7.651
 2398SOL    HW2 7947   1.573   2.879   7.724
 2399SOL     OW 7948   1.187   3.654   9.064
 2399SOL    HW1 7949   1.211   3.714   8.988
 2399SOL    HW2 7950   1.194   3.559   9.034
 2400SOL     OW 7951   0.317   2.113   9.249
 2400SOL    HW1 7952   0.388   2.184   9.255
 2400SOL    HW2 7953   0.229   2.152   9.277
 2401SOL     OW 7954   1.466   3.279   8.401
 2401SOL    HW1 7955   1.407   3.285   8.481
 2401SOL    HW2 7956   1.451   3.191   8.355
 2402SOL     OW 7957   1.667   3.576   8.020
 2402SOL    HW1 7958   1.626   3.553   7.932
 2402SOL    HW2 7959   1.649   3.502   8.085
 2403SOL     OW 7960   0.598   2.591   7.718
 2403SOL    HW1 7961   0.622   2.660   7.650
 2403SOL    HW2 7962   0.520   2.624   7.772
 2404SOL     OW 7963   1.281   2.207   8.392
 2404SOL    HW1 7964   1.195   2.157   8.379
 2404SOL    HW2 7965   1.343   2.153   8.448
 2405SOL     OW 7966   1.576   3.524   7.755
 2405SOL    HW1 7967   1.665   3.570   7.758
 2405SOL    HW2 7968   1.555   3.500   7.660
 2406SOL     OW 7969   0.807   2.467   8.913
 2406SOL    HW1 7970   0.760   2.464   9.002
 2406SOL    HW2 7971   0.756   2.412   8.847
 2407SOL     OW 7972   1.394   2.331   9.122
 2407SOL    HW1 7973   1.374   2.374   9.210
 2407SOL    HW2 7974   1.472   2.269   9.131
 2408SOL     OW 7975   0.973   2.752   9.020
 2408SOL    HW1 7976   1.019   2.668   8.991
 2408SOL    HW2 7977   0.917   2.786   8.945
 2409SOL     OW 7978   0.991   2.272   8.690
 2409SOL    HW1 7979   0.914   2.306   8.744
 2409SOL    HW2 7980   0.957   2.221   8.611
 2410SOL     OW 7981   1.041   2.563   7.877
 2410SOL    HW1 7982   1.067   2.559   7.973
 2410SOL    HW2 7983   0.956   2.512   7.863
 2411SOL     OW 7984   0.076   2.673   8.237
 2411SOL    HW1 7985   0.175   2.661   8.246
 2411SOL    HW2 7986   0.052   2.768   8.258
 2412SOL     OW 7987   0.130   3.683   9.019
 2412SOL    HW1 7988   0.120   3.668   9.118
 2412SOL    HW2 7989   0.044   3.719   8.983
 2413SOL     OW 7990   0.865   2.210   7.643
 2413SOL    HW1 7991   0.924   2.273   7.594
 2413SOL    HW2 7992   0.884   2.116   7.614
 2414SOL     OW 7993   1.719   2.447   9.279
 2414SOL    HW1 7994   1.693   2.536   9.243
 2414SOL    HW2 7995   1.717   2.379   9.206
 2415SOL     OW 7996   1.362   3.006   7.993
 2415SOL    HW1 7997   1.445   2.977   7.945
 2415SOL    HW2 7998   1.313   3.073   7.937
 2416SOL     OW 7999   0.550   2.058   8.333
 2416SOL    HW1 8000   0.545   2.053   8.433
 2416SOL    HW2 8001   0.552   2.154   8.304
 2417SOL     OW 8002   1.008   3.318   7.925
 2417SOL    HW1 8003   0.962   3.390   7.873
 2417SOL    HW2 8004   1.004   3.338   8.023
 2418SOL     OW 8005   0.351   3.663   8.301
 2418SOL    HW1 8006   0.401   3.577   8.307
 2418SOL    HW2 8007   0.416   3.740   8.298
 2419SOL     OW 8008   1.795   2.928   8.321
 2419SOL    HW1 8009   1.733   2.913   8.245
 2419SOL    HW2 8010   1.743   2.939   8.406
 2420SOL     OW 8011   1.227   3.412   8.954
 2420SOL    HW1 8012   1.233   3.335   9.018
 2420SOL    HW2 8013   1.175   3.386   8.874
 2421SOL     OW 8014   0.321   2.805   7.690
 2421SOL    HW1 8015   0.403   2.844   7.648
 2421SOL    HW2 8016   0.294   2.723   7.641
 2422SOL     OW 8017   1.458   2.597   8.176
 2422SOL    HW1 8018   1.453   2.532   8.251
 2422SOL    HW2 8019   1.538   2.656   8.189
 2423SOL     OW 8020   0.461   3.128   9.175
 2423SOL    HW1 8021   0.411   3.129   9.089
 2423SOL    HW2 8022   0.398   3.110   9.251
 2424SOL     OW 8023   1.111   3.638   7.685
 2424SOL    HW1 8024   1.051   3.576   7.735
 2424SOL    HW2 8025   1.142   3.594   7.600
 2425SOL     OW 8026   0.202   2.147   8.946
 2425SOL    HW1 8027   0.122   2.207   8.933
 2425SOL    HW2 8028   0.192   2.098   9.032
 2426SOL     OW 8029   1.632   3.239   7.529
 2426SOL    HW1 8030   1.600   3.333   7.519
 2426SOL    HW2 8031   1.556   3.176   7.517
 2427SOL     OW 8032   0.464   3.605   7.771
 2427SOL    HW1 8033   0.497   3.644   7.857
 2427SOL    HW2 8034   0.540   3.598   7.706
 2428SOL     OW 8035   0.249   3.647   8.689
 2428SOL    HW1 8036   0.306   3.582   8.739
 2428SOL    HW2 8037   0.233   3.614   8.596
 2429SOL     OW 8038   0.940   3.560   8.352
 2429SOL    HW1 8039   1.020   3.503   8.373
 2429SOL    HW2 8040   0.891   3.520   8.275
 2430SOL     OW 8041   0.382   2.562   7.928
 2430SOL    HW1 8042   0.427   2.472   7.925
 2430SOL    HW2 8043   0.288   2.551   7.961
 2431SOL     OW 8044   1.547   2.084   9.177
 2431SOL    HW1 8045   1.542   2.121   9.269
 2431SOL    HW2 8046   1.475   2.015   9.165
 2432SOL     OW 8047   0.614   1.984   7.565
 2432SOL    HW1 8048   0.712   1.962   7.572
 2432SOL    HW2 8049   0.583   1.967   7.472
 2433SOL     OW 8050   0.781   2.126   9.197
 2433SOL    HW1 8051   0.848   2.065   9.240
 2433SOL    HW2 8052   0.708   2.145   9.262
 2434SOL     OW 8053   0.888   3.376   8.643
 2434SOL    HW1 8054   0.865   3.351   8.549
 2434SOL    HW2 8055   0.949   3.307   8.682
 2435SOL     OW 8056   1.351   2.452   8.881
 2435SOL    HW1 8057   1.379   2.409   8.966
 2435SOL    HW2 8058   1.376   2.548   8.882
 2436SOL     OW 8059   0.803   3.264   8.372
 2436SOL    HW1 8060   0.893   3.278   8.330
 2436SOL    HW2 8061   0.732   3.266   8.301
 2437SOL     OW 8062   0.922   2.365   8.347
 2437SOL    HW1 8063   0.897   2.356   8.251
 2437SOL    HW2 8064   0.970   2.283   8.378
 2438SOL     OW 8065   0.539   1.926   7.960
 2438SOL    HW1 8066   0.458   1.927   8.018
 2438SOL    HW2 8067   0.542   2.009   7.905
 2439SOL     OW 8068   1.434   3.050   7.489
 2439SOL    HW1 8069   1.466   2.974   7.546
 2439SOL    HW2 8070   1.342   3.077   7.519
 2440SOL     OW 8071   0.297   1.897   7.619
 2440SOL    HW1 8072   0.346   1.981   7.598
 2440SOL    HW2 8073   0.359   1.832   7.664
 2441SOL     OW 8074   0.935   2.098   7.928
 2441SOL    HW1 8075   0.887   2.139   7.850
 2441SOL    HW2 8076   1.034   2.096   7.909
 2442SOL     OW 8077   1.076   2.545   8.912
 2442SOL    HW1 8078   0.996   2.484   8.915
 2442SOL    HW2 8079   1.157   2.492   8.888
 2443SOL     OW 8080   1.227   3.432   8.241
 2443SOL    HW1 8081   1.248   3.506   8.176
 2443SOL    HW2 8082   1.295   3.432   8.314
 2444SOL     OW 8083   0.459   3.014   8.189
 2444SOL    HW1 8084   0.388   2.987   8.254
 2444SOL    HW2 8085   0.433   2.986   8.096
 2445SOL     OW 8086   1.271   3.659   8.039
 2445SOL    HW1 8087   1.315   3.723   7.975
 2445SOL    HW2 8088   1.221   3.711   8.109
 2446SOL     OW 8089   1.032   2.411   7.464
 2446SOL    HW1 8090   0.991   2.493   7.425
 2446SOL    HW2 8091   1.096   2.437   7.537
 2447SOL     OW 8092   0.078   2.418   8.834
 2447SOL    HW1 8093   0.170   2.417   8.793
 2447SOL    HW2 8094   0.072   2.492   8.901
 2448SOL     OW 8095   0.561   2.084   8.595
 2448SOL    HW1 8096   0.599   2.000   8.632
 2448SOL    HW2 8097   0.473   2.103   8.639
 2449SOL     OW 8098   0.866   2.316   8.090
 2449SOL    HW1 8099   0.834   2.388   8.028
 2449SOL    HW2 8100   0.890   2.235   8.037
 2450SOL     OW 8101   1.017   1.901   8.201
 2450SOL    HW1 8102   0.945   1.906   8.132
 2450SOL    HW2 8103   0.993   1.832   8.270
 2451SOL     OW 8104   1.429   3.035   8.315
 2451SOL    HW1 8105   1.374   2.951   8.308
 2451SOL    HW2 8106   1.455   3.064   8.223
 2452SOL     OW 8107   1.466   2.452   8.440
 2452SOL    HW1 8108   1.436   2.357   8.447
 2452SOL    HW2 8109   1.539   2.468   8.506
 2453SOL     OW 8110   0.488   3.247   7.622
 2453SOL    HW1 8111   0.401   3.232   7.669
 2453SOL    HW2 8112   0.471   3.273   7.527
 2454SOL     OW 8113   1.664   3.142   8.105
 2454SOL    HW1 8114   1.763   3.150   8.119
 2454SOL    HW2 8115   1.619   3.226   8.136
 2455SOL     OW 8116   0.527   2.118   7.776
 2455SOL    HW1 8117   0.554   2.059   7.701
 2455SOL    HW2 8118   0.527   2.213   7.745
 2456SOL     OW 8119   1.754   3.085   9.036
 2456SOL    HW1 8120   1.845   3.046   9.023
 2456SOL    HW2 8121   1.762   3.181   9.060
 2457SOL     OW 8122   1.064   3.209   8.788
 2457SOL    HW1 8123   0.984   3.186   8.843
 2457SOL    HW2 8124   1.147   3.183   8.837
 2458SOL     OW 8125   1.592   3.491   9.073
 2458SOL    HW1 8126   1.619   3.525   8.983
 2458SOL    HW2 8127   1.671   3.453   9.119
 2459SOL     OW 8128   1.111   3.057   8.548
 2459SOL    HW1 8129   1.071   3.101   8.629
 2459SOL    HW2 8130   1.070   3.094   8.465
 2460SOL     OW 8131   1.638   2.961   8.527
 2460SOL    HW1 8132   1.643   3.042   8.586
 2460SOL    HW2 8133   1.552   2.963   8.476
 2461SOL     OW 8134   0.915   1.951   8.850
 2461SOL    HW1 8135   0.940   1.931   8.755
 2461SOL    HW2 8136   0.987   2.007   8.892
 2462SOL     OW 8137   0.980   2.978   9.167
 2462SOL    HW1 8138   0.881   2.984   9.177
 2462SOL    HW2 8139   1.003   2.898   9.111
 2463SOL     OW 8140   0.705   2.912   7.816
 2463SOL    HW1 8141   0.691   2.919   7.915
 2463SOL    HW2 8142   0.789   2.861   7.798
 2464SOL     OW 8143   0.410   2.675   8.699
 2464SOL    HW1 8144   0.496   2.687   8.749
 2464SOL    HW2 8145   0.368   2.588   8.726
 2465SOL     OW 8146   1.274   2.248   8.710
 2465SOL    HW1 8147   1.295   2.322   8.774
 2465SOL    HW2 8148   1.185   2.265   8.667
 2466SOL     OW 8149   0.064   3.426   8.779
 2466SOL    HW1 8150   0.018   3.508   8.745
 2466SOL    HW2 8151   0.162   3.445   8.788
 2467SOL     OW 8152   0.367   2.962   7.949
 2467SOL    HW1 8153   0.360   3.045   7.893
 2467SOL    HW2 8154   0.371   2.882   7.889
 2468SOL     OW 8155   0.566   2.399   8.313
 2468SOL    HW1 8156   0.578   2.465   8.239
 2468SOL    HW2 8157   0.612   2.433   8.396
 2469SOL     OW 8158   1.252   3.210   7.836
 2469SOL    HW1 8159   1.302   3.287   7.876
 2469SOL    HW2 8160   1.157   3.212   7.868
 2470SOL     OW 8161   1.272   3.307   8.590
 2470SOL    HW1 8162   1.319   3.320   8.677
 2470SOL    HW2 8163   1.206   3.233   8.599
 2471SOL     OW 8164   0.354   3.372   8.777
 2471SOL    HW1 8165   0.333   3.328   8.690
 2471SOL    HW2 8166   0.451   3.398   8.780
 2472SOL     OW 8167   0.402   2.613   9.046
 2472SOL    HW1 8168   0.470   2.668   8.999
 2472SOL    HW2 8169   0.442   2.525   9.073
 2473SOL     OW 8170   1.587   2.641   9.118
 2473SOL    HW1 8171   1.495   2.679   9.113
 2473SOL    HW2 8172   1.647   2.688   9.053
 2474SOL     OW 8173   1.013   1.967   9.218
 2474SOL    HW1 8174   1.019   2.052   9.166
 2474SOL    HW2 8175   1.045   1.891   9.161
 2475SOL     OW 8176   0.504   1.912   9.188
 2475SOL    HW1 8177   0.462   1.855   9.118
 2475SOL    HW2 8178   0.438   1.981   9.220
 2476SOL     OW 8179   0.573   2.732   8.477
 2476SOL    HW1 8180   0.617   2.821   8.468
 2476SOL    HW2 8181   0.510   2.732   8.554
 2477SOL     OW 8182   1.360   2.724   8.493
 2477SOL    HW1 8183   1.285   2.724   8.427
 2477SOL    HW2 8184   1.397   2.632   8.502
 2478SOL     OW 8185   1.209   2.387   7.723
 2478SOL    HW1 8186   1.222   2.303   7.777
 2478SOL    HW2 8187   1.180   2.461   7.783
 2479SOL     OW 8188   0.307   2.075   8.679
 2479SOL    HW1 8189   0.284   2.112   8.769
 2479SOL    HW2 8190   0.277   1.980   8.673
 2480SOL     OW 8191   0.037   3.172   8.730
 2480SOL    HW1 8192   0.090   3.123   8.798
 2480SOL    HW2 8193   0.059   3.270   8.735
 2481SOL     OW 8194   0.732   2.496   8.512
 2481SOL    HW1 8195   0.791   2.470   8.436
 2481SOL    HW2 8196   0.704   2.592   8.501
 2482SOL     OW 8197   1.728   2.797   9.302
 2482SOL    HW1 8198   1.682   2.790   9.213
 2482SOL    HW2 8199   1.666   2.841   9.368
 2483SOL     OW 8200   0.307   1.925   8.066
 2483SOL    HW1 8201   0.296   2.019   8.099
 2483SOL    HW2 8202   0.302   1.862   8.143
 2484SOL     OW 8203   1.023   2.628   8.414
 2484SOL    HW1 8204   1.038   2.649   8.510
 2484SOL    HW2 8205   0.993   2.533   8.405
 2485SOL     OW 8206   0.980   3.435   9.148
 2485SOL    HW1 8207   0.960   3.479   9.060
 2485SOL    HW2 8208   1.019   3.344   9.132
 2486SOL     OW 8209   1.859   3.380   9.053
 2486SOL    HW1 8210   1.873   3.407   8.958
 2486SOL    HW2 8211   1.942   3.402   9.106
 2487SOL     OW 8212   0.350   2.760   9.252
 2487SOL    HW1 8213   0.426   2.804   9.300
 2487SOL    HW2 8214   0.385   2.713   9.170
 2488SOL     OW 8215   1.303   2.700   7.490
 2488SOL    HW1 8216   1.337   2.607   7.505
 2488SOL    HW2 8217   1.321   2.727   7.395
 2489SOL     OW 8218   1.068   3.195   8.297
 2489SOL    HW1 8219   1.075   3.111   8.242
 2489SOL    HW2 8220   1.130   3.264   8.261
 2490SOL     OW 8221   0.319   2.672   8.397
 2490SOL    HW1 8222   0.412   2.708   8.402
 2490SOL    HW2 8223   0.313   2.587   8.449
 2491SOL     OW 8224   0.339   2.371   8.454
 2491SOL    HW1 8225   0.287   2.288   8.437
 2491SOL    HW2 8226   0.416   2.376   8.390
 2492SOL     OW 8227   1.138   2.242   9.126
 2492SOL    HW1 8228   1.093   2.305   9.190
 2492SOL    HW2 8229   1.231   2.273   9.109
 2493SOL     OW 8230   1.160   2.069   8.925
 2493SOL    HW1 8231   1.160   2.133   9.002
 2493SOL    HW2 8232   1.188   2.117   8.842
 2494SOL     OW 8233   0.008   3.188   7.648
 2494SOL    HW1 8234  -0.085   3.209   7.617
 2494SOL    HW2 8235   0.018   3.089   7.661
 2495SOL     OW 8236   0.088   3.663   8.375
 2495SOL    HW1 8237   0.046   3.577   8.348
 2495SOL    HW2 8238   0.182   3.666   8.341
 2496SOL     OW 8239   0.504   3.430   8.358
 2496SOL    HW1 8240   0.570   3.504   8.367
 2496SOL    HW2 8241   0.548   3.351   8.316
 2497SOL     OW 8242   1.002   2.658   8.686
 2497SOL    HW1 8243   1.043   2.626   8.772
 2497SOL    HW2 8244   0.906   2.631   8.683
 2498SOL     OW 8245   0.040   2.406   8.562
 2498SOL    HW1 8246   0.125   2.373   8.521
 2498SOL    HW2 8247   0.053   2.421   8.660
 2499SOL     OW 8248   0.189   2.382   9.170
 2499SOL    HW1 8249   0.248   2.342   9.100
 2499SOL    HW2 8250   0.131   2.453   9.129
 2500SOL     OW 8251   1.369   2.812   9.108
 2500SOL    HW1 8252   1.408   2.901   9.128
 2500SOL    HW2 8253   1.379   2.792   9.011
 2501SOL     OW 8254   0.815   2.434   7.773
 2501SOL    HW1 8255   0.822   2.345   7.727
 2501SOL    HW2 8256   0.721   2.468   7.765
 2502SOL     OW 8257   1.657   2.466   8.654
 2502SOL    HW1 8258   1.619   2.397   8.716
 2502SOL    HW2 8259   1.739   2.430   8.610
 2503SOL     OW 8260   0.252   3.426   9.192
 2503SOL    HW1 8261   0.222   3.483   9.268
 2503SOL    HW2 8262   0.245   3.329   9.218
 2504SOL     OW 8263   0.671   2.326   8.717
 2504SOL    HW1 8264   0.637   2.237   8.687
 2504SOL    HW2 8265   0.697   2.380   8.637
 2505SOL     OW 8266   0.930   3.540   8.913
 2505SOL    HW1 8267   0.906   3.522   8.818
 2505SOL    HW2 8268   0.960   3.634   8.923
 2506SOL     OW 8269   0.473   2.362   7.639
 2506SOL    HW1 8270   0.534   2.442   7.643
 2506SOL    HW2 8271   0.378   2.393   7.646
 2507SOL     OW 8272   0.159   2.999   8.914
 2507SOL    HW1 8273   0.181   2.938   8.990
 2507SOL    HW2 8274   0.169   2.950   8.828
 2508SOL     OW 8275   1.347   2.921   8.682
 2508SOL    HW1 8276   1.371   2.858   8.608
 2508SOL    HW2 8277   1.257   2.961   8.664
 2509SOL     OW 8278   1.302   2.717   7.757
 2509SOL    HW1 8279   1.216   2.686   7.799
 2509SOL    HW2 8280   1.298   2.703   7.658
 2510SOL     OW 8281   1.759   3.609   8.602
 2510SOL    HW1 8282   1.820   3.639   8.529
 2510SOL    HW2 8283   1.721   3.520   8.580
 2511SOL     OW 8284   1.252   3.593   8.576
 2511SOL    HW1 8285   1.336   3.598   8.522
 2511SOL    HW2 8286   1.229   3.497   8.594
 2512SOL     OW 8287   0.083   3.120   8.470
 2512SOL    HW1 8288   0.078   3.119   8.570
 2512SOL    HW2 8289   0.000   3.079   8.432
 2513SOL     OW 8290   0.688   3.524   9.164
 2513SOL    HW1 8291   0.632   3.605   9.173
 2513SOL    HW2 8292   0.740   3.528   9.078
 2514SOL     OW 8293   1.388   3.435   7.925
 2514SOL    HW1 8294   1.455   3.447   7.851
 2514SOL    HW2 8295   1.348   3.524   7.948
 2515SOL     OW 8296   0.130   3.656   9.299
 2515SOL    HW1 8297   0.089   3.582   9.352
 2515SOL    HW2 8298   0.194   3.707   9.357
 2516SOL     OW 8299   1.280   2.789   8.120
 2516SOL    HW1 8300   1.340   2.708   8.122
 2516SOL    HW2 8301   1.320   2.858   8.060
 2517SOL     OW 8302   0.830   3.135   8.870
 2517SOL    HW1 8303   0.825   3.168   8.965
 2517SOL    HW2 8304   0.744   3.154   8.824
 2518SOL     OW 8305   0.672   3.478   7.602
 2518SOL    HW1 8306   0.681   3.488   7.503
 2518SOL    HW2 8307   0.632   3.389   7.623
 2519SOL     OW 8308   1.650   3.582   8.842
 2519SOL    HW1 8309   1.703   3.592   8.758
 2519SOL    HW2 8310   1.623   3.672   8.876
 2520SOL     OW 8311   0.263   2.188   8.168
 2520SOL    HW1 8312   0.184   2.239   8.134
 2520SOL    HW2 8313   0.254   2.173   8.266
 2521SOL     OW 8314   1.194   3.474   7.479
 2521SOL    HW1 8315   1.200   3.381   7.516
 2521SOL    HW2 8316   1.135   3.474   7.399
 2522SOL     OW 8317   0.822   2.864   8.820
 2522SOL    HW1 8318   0.862   2.863   8.728
 2522SOL    HW2 8319   0.832   2.956   8.860
 2523SOL     OW 8320   0.916   2.772   7.739
 2523SOL    HW1 8321   0.979   2.810   7.671
 2523SOL    HW2 8322   0.956   2.689   7.778
 2524SOL     OW 8323   1.504   3.469   7.492
 2524SOL    HW1 8324   1.412   3.506   7.499
 2524SOL    HW2 8325   1.542   3.489   7.402
 2525SOL     OW 8326   0.372   3.150   8.938
 2525SOL    HW1 8327   0.359   3.243   8.904
 2525SOL    HW2 8328   0.288   3.098   8.925
 2526SOL     OW 8329   1.614   3.154   8.737
 2526SOL    HW1 8330   1.674   3.157   8.817
 2526SOL    HW2 8331   1.539   3.218   8.750
 2527SOL     OW 8332   1.039   2.960   8.144
 2527SOL    HW1 8333   0.969   2.913   8.198
 2527SOL    HW2 8334   1.098   2.892   8.101
 2528SOL     OW 8335   1.014   2.098   8.419
 2528SOL    HW1 8336   1.006   2.062   8.326
 2528SOL    HW2 8337   1.012   2.022   8.484
 2529SOL     OW 8338   0.590   3.349   7.939
 2529SOL    HW1 8339   0.632   3.291   7.869
 2529SOL    HW2 8340   0.546   3.428   7.895
 2530SOL     OW 8341   1.709   2.247   8.829
 2530SOL    HW1 8342   1.782   2.316   8.833
 2530SOL    HW2 8343   1.737   2.172   8.770
 2531SOL     OW 8344   0.255   3.210   7.738
 2531SOL    HW1 8345   0.159   3.211   7.711
 2531SOL    HW2 8346   0.267   3.263   7.822
 2532SOL     OW 8347   0.105   2.875   9.174
 2532SOL    HW1 8348   0.028   2.842   9.228
 2532SOL    HW2 8349   0.190   2.845   9.216
 2533SOL     OW 8350   0.672   2.065   8.937
 2533SOL    HW1 8351   0.762   2.049   8.897
 2533SOL    HW2 8352   0.680   2.070   9.036
 2534SOL     OW 8353   0.075   2.207   7.481
 2534SOL    HW1 8354  -0.017   2.179   7.452
 2534SOL    HW2 8355   0.106   2.284   7.425
 2535SOL     OW 8356   1.440   2.718   8.846
 2535SOL    HW1 8357   1.383   2.770   8.783
 2535SOL    HW2 8358   1.536   2.730   8.822
 2536SOL     OW 8359   0.072   2.028   7.766
 2536SOL    HW1 8360   0.055   2.111   7.712
 2536SOL    HW2 8361   0.162   1.991   7.744
 2537SOL     OW 8362   1.183   3.197   7.567
 2537SOL    HW1 8363   1.084   3.186   7.569
 2537SOL    HW2 8364   1.217   3.212   7.660
 2538SOL     OW 8365   0.613   2.704   8.879
 2538SOL    HW1 8366   0.669   2.785   8.862
 2538SOL    HW2 8367   0.672   2.624   8.882
 2539SOL     OW 8368   1.493   3.629   8.407
 2539SOL    HW1 8369   1.526   3.693   8.338
 2539SOL    HW2 8370   1.559   3.623   8.482
 2540SOL     OW 8371   0.716   2.427   9.156
 2540SOL    HW1 8372   0.735   2.492   9.230
 2540SOL    HW2 8373   0.776   2.347   9.165
 2541SOL     OW 8374   1.450   3.082   9.081
 2541SOL    HW1 8375   1.441   3.072   9.180
 2541SOL    HW2 8376   1.546   3.075   9.055
 2542SOL     OW 8377   0.390   3.603   9.008
 2542SOL    HW1 8378   0.299   3.644   9.006
 2542SOL    HW2 8379   0.383   3.509   9.040
 2543SOL     OW 8380   1.674   2.745   8.702
 2543SOL    HW1 8381   1.647   2.656   8.665
 2543SOL    HW2 8382   1.675   2.813   8.629
 2544SOL     OW 8383   1.225   2.187   7.897
 2544SOL    HW1 8384   1.290   2.113   7.886
 2544SOL    HW2 8385   1.245   2.237   7.981
 2545SOL     OW 8386   0.594   2.607   8.100
 2545SOL    HW1 8387   0.644   2.692   8.081
 2545SOL    HW2 8388   0.506   2.609   8.052
 2546SOL     OW 8389   1.777   2.204   9.090
 2546SOL    HW1 8390   1.760   2.235   8.996
 2546SOL    HW2 8391   1.693   2.167   9.128
 2547SOL     OW 8392   1.730   2.796   8.965
 2547SOL    HW1 8393   1.768   2.887   8.980
 2547SOL    HW2 8394   1.722   2.779   8.866
 2548SOL     OW 8395   0.859   3.236   7.464
 2548SOL    HW1 8396   0.813   3.251   7.552
 2548SOL    HW2 8397   0.903   3.321   7.434
 2549SOL     OW 8398   0.661   3.652   8.401
 2549SOL    HW1 8399   0.615   3.740   8.388
 2549SOL    HW2 8400   0.760   3.664   8.394
 2550SOL     OW 8401   0.859   2.818   8.309
 2550SOL    HW1 8402   0.913   2.749   8.357
 2550SOL    HW2 8403   0.827   2.887   8.375
 2551SOL     OW 8404   1.083   2.846   7.535
 2551SOL    HW1 8405   1.060   2.899   7.453
 2551SOL    HW2 8406   1.164   2.790   7.516
 2552SOL     OW 8407   1.861   3.431   8.299
 2552SOL    HW1 8408   1.790   3.419   8.229
 2552SOL    HW2 8409   1.862   3.352   8.359
 2553SOL     OW 8410   0.221   3.176   9.292
 2553SOL    HW1 8411   0.156   3.103   9.271
 2553SOL    HW2 8412   0.225   3.190   9.390
 2554SOL     OW 8413   0.079   3.102   8.101
 2554SOL    HW1 8414   0.078   3.055   8.189
 2554SOL    HW2 8415   0.161   3.074   8.050
 2555SOL     OW 8416   0.672   3.253   9.072
 2555SOL    HW1 8417   0.594   3.203   9.110
 2555SOL    HW2 8418   0.669   3.348   9.103
 2556SOL     OW 8419   0.428   2.286   7.968
 2556SOL    HW1 8420   0.458   2.214   7.906
 2556SOL    HW2 8421   0.389   2.246   8.051
 2557SOL     OW 8422   1.705   3.349   8.552
 2557SOL    HW1 8423   1.612   3.324   8.525
 2557SOL    HW2 8424   1.731   3.299   8.634
 2558SOL     OW 8425   0.317   2.409   8.728
 2558SOL    HW1 8426   0.355   2.350   8.800
 2558SOL    HW2 8427   0.357   2.383   8.640
 2559SOL     OW 8428   0.812   3.448   8.135
 2559SOL    HW1 8429   0.844   3.458   8.041
 2559SOL    HW2 8430   0.733   3.386   8.137
 2560SOL     OW 8431   1.424   2.076   8.560
 2560SOL    HW1 8432   1.476   2.011   8.615
 2560SOL    HW2 8433   1.375   2.139   8.621
 2561SOL     OW 8434   1.001   1.896   8.602
 2561SOL    HW1 8435   0.938   1.824   8.571
 2561SOL    HW2 8436   1.094   1.860   8.602
 2562SOL     OW 8437   0.770   3.192   7.749
 2562SOL    HW1 8438   0.724   3.105   7.766
 2562SOL    HW2 8439   0.861   3.189   7.790
 2563SOL     OW 8440   0.618   3.429   8.732
 2563SOL    HW1 8441   0.613   3.511   8.789
 2563SOL    HW2 8442   0.707   3.426   8.687
 2564SOL     OW 8443   1.300   2.315   8.139
 2564SOL    HW1 8444   1.241   2.395   8.143
 2564SOL    HW2 8445   1.315   2.280   8.232
 2565SOL     OW 8446   1.593   2.083   8.330
 2565SOL    HW1 8447   1.509   2.082   8.384
 2565SOL    HW2 8448   1.595   2.166   8.274
 2566SOL     OW 8449   0.039   2.939   7.748
 2566SOL    HW1 8450   0.138   2.928   7.739
 2566SOL    HW2 8451  -0.001   2.853   7.780
 2567SOL     OW 8452   0.875   3.508   7.785
 2567SOL    HW1 8453   0.798   3.473   7.731
 2567SOL    HW2 8454   0.843   3.579   7.847
 2568SOL     OW 8455   0.230   2.490   9.423
 2568SOL    HW1 8456   0.137   2.488   9.460
 2568SOL    HW2 8457   0.231   2.451   9.331
 2569SOL     OW 8458   0.225   2.137  10.306
 2569SOL    HW1 8459   0.260   2.120  10.398
 2569SOL    HW2 8460   0.137   2.092  10.294
 2570SOL     OW 8461   0.019   2.230   9.957
 2570SOL    HW1 8462  -0.063   2.273   9.996
 2570SOL    HW2 8463  -0.009   2.157   9.894
 2571SOL     OW 8464   0.569   3.137  10.475
 2571SOL    HW1 8465   0.476   3.130  10.438
 2571SOL    HW2 8466   0.580   3.226  10.519
 2572SOL     OW 8467   1.555   3.373  10.013
 2572SOL    HW1 8468   1.498   3.357  10.094
 2572SOL    HW2 8469   1.496   3.383   9.933
 2573SOL     OW 8470   1.135   2.565  10.027
 2573SOL    HW1 8471   1.192   2.643  10.002
 2573SOL    HW2 8472   1.075   2.591  10.103
 2574SOL     OW 8473   1.755   2.469   9.541
 2574SOL    HW1 8474   1.743   2.456   9.442
 2574SOL    HW2 8475   1.725   2.388   9.590
 2575SOL     OW 8476   0.768   3.006  10.333
 2575SOL    HW1 8477   0.690   3.023  10.393
 2575SOL    HW2 8478   0.802   3.093  10.297
 2576SOL     OW 8479   0.850   2.660  11.133
 2576SOL    HW1 8480   0.846   2.736  11.198
 2576SOL    HW2 8481   0.872   2.696  11.042
 2577SOL     OW 8482   0.685   2.874   9.975
 2577SOL    HW1 8483   0.754   2.858  10.045
 2577SOL    HW2 8484   0.612   2.931  10.013
 2578SOL     OW 8485   0.686   3.023  11.113
 2578SOL    HW1 8486   0.746   3.102  11.127
 2578SOL    HW2 8487   0.600   3.054  11.072
 2579SOL     OW 8488   0.335   3.297  10.371
 2579SOL    HW1 8489   0.257   3.266  10.318
 2579SOL    HW2 8490   0.393   3.355  10.314
 2580SOL     OW 8491   1.460   3.367  10.649
 2580SOL    HW1 8492   1.484   3.461  10.675
 2580SOL    HW2 8493   1.444   3.313  10.731
 2581SOL     OW 8494   0.438   2.254  10.809
 2581SOL    HW1 8495   0.520   2.198  10.818
 2581SOL    HW2 8496   0.357   2.196  10.813
 2582SOL     OW 8497   1.603   2.309  10.047
 2582SOL    HW1 8498   1.529   2.355   9.997
 2582SOL    HW2 8499   1.654   2.377  10.100
 2583SOL     OW 8500   0.231   3.575   9.793
 2583SOL    HW1 8501   0.265   3.652   9.847
 2583SOL    HW2 8502   0.275   3.575   9.703
 2584SOL     OW 8503   1.127   3.203  11.000
 2584SOL    HW1 8504   1.174   3.203  11.088
 2584SOL    HW2 8505   1.079   3.116  10.989
 2585SOL     OW 8506   0.230   3.296   9.848
 2585SOL    HW1 8507   0.204   3.392   9.848
 2585SOL    HW2 8508   0.159   3.242   9.893
 2586SOL     OW 8509   0.240   2.953  10.196
 2586SOL    HW1 8510   0.254   2.869  10.248
 2586SOL    HW2 8511   0.185   3.017  10.251
 2587SOL     OW 8512   0.620   3.648  10.749
 2587SOL    HW1 8513   0.528   3.631  10.784
 2587SOL    HW2 8514   0.648   3.740  10.775
 2588SOL     OW 8515   0.606   2.826   9.433
 2588SOL    HW1 8516   0.613   2.910   9.379
 2588SOL    HW2 8517   0.652   2.839   9.521
 2589SOL     OW 8518   1.594   1.976  10.790
 2589SOL    HW1 8519   1.576   2.043  10.718
 2589SOL    HW2 8520   1.591   2.022  10.879
 2590SOL     OW 8521   0.122   2.505   9.873
 2590SOL    HW1 8522   0.077   2.417   9.890
 2590SOL    HW2 8523   0.121   2.559   9.957
 2591SOL     OW 8524   1.842   3.629   9.669
 2591SOL    HW1 8525   1.896   3.600   9.749
 2591SOL    HW2 8526   1.872   3.719   9.640
 2592SOL     OW 8527   0.027   3.458   9.427
 2592SOL    HW1 8528   0.008   3.362   9.448
 2592SOL    HW2 8529  -0.006   3.516   9.502
 2593SOL     OW 8530   1.689   2.784   9.922
 2593SOL    HW1 8531   1.784   2.755   9.930
 2593SOL    HW2 8532   1.681   2.849   9.847
 2594SOL     OW 8533   1.641   2.970   9.742
 2594SOL    HW1 8534   1.727   2.972   9.690
 2594SOL    HW2 8535   1.655   3.017   9.830
 2595SOL     OW 8536   0.113   2.599  10.907
 2595SOL    HW1 8537   0.201   2.586  10.952
 2595SOL    HW2 8538   0.100   2.696  10.885
 2596SOL     OW 8539   0.613   3.227  10.036
 2596SOL    HW1 8540   0.564   3.140  10.045
 2596SOL    HW2 8541   0.590   3.270   9.949
 2597SOL     OW 8542   1.293   3.090  10.733
 2597SOL    HW1 8543   1.330   3.017  10.675
 2597SOL    HW2 8544   1.345   3.095  10.818
 2598SOL     OW 8545   0.809   1.866   9.812
 2598SOL    HW1 8546   0.849   1.957   9.803
 2598SOL    HW2 8547   0.709   1.874   9.818
 2599SOL     OW 8548   0.197   2.838  10.574
 2599SOL    HW1 8549   0.286   2.793  10.560
 2599SOL    HW2 8550   0.124   2.773  10.555
 2600SOL     OW 8551   1.525   2.861   9.500
 2600SOL    HW1 8552   1.462   2.785   9.513
 2600SOL    HW2 8553   1.573   2.879   9.586
 2601SOL     OW 8554   1.187   3.654  10.926
 2601SOL    HW1 8555   1.211   3.714  10.850
 2601SOL    HW2 8556   1.194   3.559  10.896
 2602SOL     OW 8557   0.317   2.113  11.111
 2602SOL    HW1 8558   0.388   2.184  11.117
 2602SOL    HW2 8559   0.229   2.152  11.139
 2603SOL     OW 8560   1.466   3.279  10.263
 2603SOL    HW1 8561   1.407   3.285  10.343
 2603SOL    HW2 8562   1.451   3.191  10.217
 2604SOL     OW 8563   1.667   3.576   9.882
 2604SOL    HW1 8564   1.626   3.553   9.794
 2604SOL    HW2 8565   1.649   3.502   9.947
 2605SOL     OW 8566   0.598   2.591   9.580
 2605SOL    HW1 8567   0.622   2.660   9.512
 2605SOL    HW2 8568   0.520   2.624   9.634
 2606SOL     OW 8569   1.281   2.207  10.254
 2606SOL    HW1 8570   1.195   2.157  10.241
 2606SOL    HW2 8571   1.343   2.153  10.310
 2607SOL     OW 8572   1.576   3.524   9.617
 2607SOL    HW1 8573   1.665   3.570   9.620
 2607SOL    HW2 8574   1.555   3.500   9.522
 2608SOL     OW 8575   0.807   2.467  10.775
 2608SOL    HW1 8576   0.760   2.464  10.864
 2608SOL    HW2 8577   0.756   2.412  10.709
 2609SOL     OW 8578   1.394   2.331  10.984
 2609SOL    HW1 8579   1.374   2.374  11.072
 2609SOL    HW2 8580   1.472   2.269  10.993
 2610SOL     OW 8581   0.973   2.752  10.882
 2610SOL    HW1 8582   1.019   2.668  10.853
 2610SOL    HW2 8583   0.917   2.786  10.807
 2611SOL     OW 8584   0.991   2.272  10.552
 2611SOL    HW1 8585   0.914   2.306  10.606
 2611SOL    HW2 8586   0.957   2.221  10.473
 2612SOL     OW 8587   1.041   2.563   9.739
 2612SOL    HW1 8588   1.067   2.559   9.835
 2612SOL    HW2 8589   0.956   2.512   9.725
 2613SOL     OW 8590   0.076   2.673  10.099
 2613SOL    HW1 8591   0.175   2.661  10.108
 2613SOL    HW2 8592   0.052   2.768  10.120
 2614SOL     OW 8593   0.130   3.683  10.881
 2614SOL    HW1 8594   0.120   3.668  10.980
 2614SOL    HW2 8595   0.044   3.719  10.845
 2615SOL     OW 8596   0.865   2.210   9.505
 2615SOL    HW1 8597   0.924   2.273   9.456
 2615SOL    HW2 8598   0.884   2.116   9.476
 2616SOL     OW 8599   1.719   2.447  11.141
 2616SOL    HW1 8600   1.693   2.536  11.105
 2616SOL    HW2 8601   1.717   2.379  11.068
 2617SOL     OW 8602   1.362   3.006   9.855
 2617SOL    HW1 8603   1.445   2.977   9.807
 2617SOL    HW2 8604   1.313   3.073   9.799
 2618SOL     OW 8605   0.550   2.058  10.195
 2618SOL    HW1 8606   0.545   2.053  10.295
 2618SOL    HW2 8607   0.552   2.154  10.166
 2619SOL     OW 8608   1.008   3.318   9.787
 2619SOL    HW1 8609   0.962   3.390   9.735
 2619SOL    HW2 8610   1.004   3.338   9.885
 2620SOL     OW 8611   0.351   3.663  10.163
 2620SOL    HW1 8612   0.401   3.577  10.169
 2620SOL    HW2 8613   0.416   3.740  10.160
 2621SOL     OW 8614   1.795   2.928  10.183
 2621SOL    HW1 8615   1.733   2.913  10.107
 2621SOL    HW2 8616   1.743   2.939  10.268
 2622SOL     OW 8617   1.227   3.412  10.816
 2622SOL    HW1 8618   1.233   3.335  10.880
 2622SOL    HW2 8619   1.175   3.386  10.736
 2623SOL     OW 8620   0.321   2.805   9.552
 2623SOL    HW1 8621   0.403   2.844   9.510
 2623SOL    HW2 8622   0.294   2.723   9.503
 2624SOL     OW 8623   1.458   2.597  10.038
 2624SOL    HW1 8624   1.453   2.532  10.113
 2624SOL    HW2 8625   1.538   2.656  10.051
 2625SOL     OW 8626   0.461   3.128  11.037
 2625SOL    HW1 8627   0.411   3.129  10.951
 2625SOL    HW2 8628   0.398   3.110  11.113
 2626SOL     OW 8629   1.111   3.638   9.547
 2626SOL    HW1 8630   1.051   3.576   9.597
 2626SOL    HW2 8631   1.142   3.594   9.462
 2627SOL     OW 8632   0.202   2.147  10.808
 2627SOL    HW1 8633   0.122   2.207  10.795
 2627SOL    HW2 8634   0.192   2.098  10.894
 2628SOL     OW 8635   1.632   3.239   9.391
 2628SOL    HW1 8636   1.600   3.333   9.381
 2628SOL    HW2 8637   1.556   3.176   9.379
 2629SOL     OW 8638   0.464   3.605   9.633
 2629SOL    HW1 8639   0.497   3.644   9.719
 2629SOL    HW2 8640   0.540   3.598   9.568
 2630SOL     OW 8641   1.400   1.969   9.736
 2630SOL    HW1 8642   1.376   1.932   9.646
 2630SOL    HW2 8643   1.499   1.985   9.740
 2631SOL     OW 8644   0.249   3.647  10.551
 2631SOL    HW1 8645   0.306   3.582  10.601
 2631SOL    HW2 8646   0.233   3.614  10.458
 2632SOL     OW 8647   0.940   3.560  10.214
 2632SOL    HW1 8648   1.020   3.503  10.235
 2632SOL    HW2 8649   0.891   3.520  10.137
 2633SOL     OW 8650   0.382   2.562   9.790
 2633SOL    HW1 8651   0.427   2.472   9.787
 2633SOL    HW2 8652   0.288   2.551   9.823
 2634SOL     OW 8653   1.547   2.084  11.039
 2634SOL    HW1 8654   1.542   2.121  11.131
 2634SOL    HW2 8655   1.475   2.015  11.027
 2635SOL     OW 8656   0.614   1.984   9.427
 2635SOL    HW1 8657   0.712   1.962   9.434
 2635SOL    HW2 8658   0.583   1.967   9.334
 2636SOL     OW 8659   0.781   2.126  11.059
 2636SOL    HW1 8660   0.848   2.065  11.102
 2636SOL    HW2 8661   0.708   2.145  11.124
 2637SOL     OW 8662   0.888   3.376  10.505
 2637SOL    HW1 8663   0.865   3.351  10.411
 2637SOL    HW2 8664   0.949   3.307  10.544
 2638SOL     OW 8665   1.351   2.452  10.743
 2638SOL    HW1 8666   1.379   2.409  10.828
 2638SOL    HW2 8667   1.376   2.548  10.744
 2639SOL     OW 8668   0.803   3.264  10.234
 2639SOL    HW1 8669   0.893   3.278  10.192
 2639SOL    HW2 8670   0.732   3.266  10.163
 2640SOL     OW 8671   0.922   2.365  10.209
 2640SOL    HW1 8672   0.897   2.356  10.113
 2640SOL    HW2 8673   0.970   2.283  10.240
 2641SOL     OW 8674   0.539   1.926   9.822
 2641SOL    HW1 8675   0.458   1.927   9.880
 2641SOL    HW2 8676   0.542   2.009   9.767
 2642SOL     OW 8677   1.434   3.050   9.351
 2642SOL    HW1 8678   1.466   2.974   9.408
 2642SOL    HW2 8679   1.342   3.077   9.381
 2643SOL     OW 8680   0.297   1.897   9.481
 2643SOL    HW1 8681   0.346   1.981   9.460
 2643SOL    HW2 8682   0.359   1.832   9.526
 2644SOL     OW 8683   0.935   2.098   9.790
 2644SOL    HW1 8684   0.887   2.139   9.712
 2644SOL    HW2 8685   1.034   2.096   9.771
 2645SOL     OW 8686   1.076   2.545  10.774
 2645SOL    HW1 8687   0.996   2.484  10.777
 2645SOL    HW2 8688   1.157   2.492  10.750
 2646SOL     OW 8689   1.227   3.432  10.103
 2646SOL    HW1 8690   1.248   3.506  10.038
 2646SOL    HW2 8691   1.295   3.432  10.176
 2647SOL     OW 8692   0.459   3.014  10.051
 2647SOL    HW1 8693   0.388   2.987  10.116
 2647SOL    HW2 8694   0.433   2.986   9.958
 2648SOL     OW 8695   1.271   3.659   9.901
 2648SOL    HW1 8696   1.315   3.723   9.837
 2648SOL    HW2 8697   1.221   3.711   9.971
 2649SOL     OW 8698   1.032   2.411   9.326
 2649SOL    HW1 8699   0.991   2.493   9.287
 2649SOL    HW2 8700   1.096   2.437   9.399
 2650SOL     OW 8701   0.078   2.418  10.696
 2650SOL    HW1 8702   0.170   2.417  10.655
 2650SOL    HW2 8703   0.072   2.492  10.763
 2651SOL     OW 8704   0.561   2.084  10.457
 2651SOL    HW1 8705   0.599   2.000  10.494
 2651SOL    HW2 8706   0.473   2.103  10.501
 2652SOL     OW 8707   0.866   2.316   9.952
 2652SOL    HW1 8708   0.834   2.388   9.890
 2652SOL    HW2 8709   0.890   2.235   9.899
 2653SOL     OW 8710   1.017   1.901  10.063
 2653SOL    HW1 8711   0.945   1.906   9.994
 2653SOL    HW2 8712   0.993   1.832  10.132
 2654SOL     OW 8713   1.429   3.035  10.177
 2654SOL    HW1 8714   1.374   2.951  10.170
 2654SOL    HW2 8715   1.455   3.064  10.085
 2655SOL     OW 8716   1.466   2.452  10.302
 2655SOL    HW1 8717   1.436   2.357  10.309
 2655SOL    HW2 8718   1.539   2.468  10.368
 2656SOL     OW 8719   1.857   2.695   9.687
 2656SOL    HW1 8720   1.899   2.631   9.751
 2656SOL    HW2 8721   1.819   2.644   9.609
 2657SOL     OW 8722   0.488   3.247   9.484
 2657SOL    HW1 8723   0.401   3.232   9.531
 2657SOL    HW2 8724   0.471   3.273   9.389
 2658SOL     OW 8725   1.664   3.142   9.967
 2658SOL    HW1 8726   1.763   3.150   9.981
 2658SOL    HW2 8727   1.619   3.226   9.998
 2659SOL     OW 8728   1.390   2.437   9.388
 2659SOL    HW1 8729   1.336   2.416   9.469
 2659SOL    HW2 8730   1.481   2.396   9.397
 2660SOL     OW 8731   0.527   2.118   9.638
 2660SOL    HW1 8732   0.554   2.059   9.563
 2660SOL    HW2 8733   0.527   2.213   9.607
 2661SOL     OW 8734   1.754   3.085  10.898
 2661SOL    HW1 8735   1.845   3.046  10.885
 2661SOL    HW2 8736   1.762   3.181  10.922
 2662SOL     OW 8737   1.064   3.209  10.650
 2662SOL    HW1 8738   0.984   3.186  10.705
 2662SOL    HW2 8739   1.147   3.183  10.699
 2663SOL     OW 8740   1.592   3.491  10.935
 2663SOL    HW1 8741   1.619   3.525  10.845
 2663SOL    HW2 8742   1.671   3.453  10.981
 2664SOL     OW 8743   1.111   3.057  10.410
 2664SOL    HW1 8744   1.071   3.101  10.491
 2664SOL    HW2 8745   1.070   3.094  10.327
 2665SOL     OW 8746   1.638   2.961  10.389
 2665SOL    HW1 8747   1.643   3.042  10.448
 2665SOL    HW2 8748   1.552   2.963  10.338
 2666SOL     OW 8749   0.915   1.951  10.712
 2666SOL    HW1 8750   0.940   1.931  10.617
 2666SOL    HW2 8751   0.987   2.007  10.754
 2667SOL     OW 8752   0.980   2.978  11.029
 2667SOL    HW1 8753   0.881   2.984  11.039
 2667SOL    HW2 8754   1.003   2.898  10.973
 2668SOL     OW 8755   0.705   2.912   9.678
 2668SOL    HW1 8756   0.691   2.919   9.777
 2668SOL    HW2 8757   0.789   2.861   9.660
 2669SOL     OW 8758   0.410   2.675  10.561
 2669SOL    HW1 8759   0.496   2.687  10.611
 2669SOL    HW2 8760   0.368   2.588  10.588
 2670SOL     OW 8761   1.274   2.248  10.572
 2670SOL    HW1 8762   1.295   2.322  10.636
 2670SOL    HW2 8763   1.185   2.265  10.529
 2671SOL     OW 8764   0.064   3.426  10.641
 2671SOL    HW1 8765   0.018   3.508  10.607
 2671SOL    HW2 8766   0.162   3.445  10.650
 2672SOL     OW 8767   0.367   2.962   9.811
 2672SOL    HW1 8768   0.360   3.045   9.755
 2672SOL    HW2 8769   0.371   2.882   9.751
 2673SOL     OW 8770   0.566   2.399  10.175
 2673SOL    HW1 8771   0.578   2.465  10.101
 2673SOL    HW2 8772   0.612   2.433  10.258
 2674SOL     OW 8773   1.252   3.210   9.698
 2674SOL    HW1 8774   1.302   3.287   9.738
 2674SOL    HW2 8775   1.157   3.212   9.730
 2675SOL     OW 8776   1.272   3.307  10.452
 2675SOL    HW1 8777   1.319   3.320  10.539
 2675SOL    HW2 8778   1.206   3.233  10.461
 2676SOL     OW 8779   1.582   2.501   9.782
 2676SOL    HW1 8780   1.551   2.562   9.855
 2676SOL    HW2 8781   1.632   2.553   9.713
 2677SOL     OW 8782   0.354   3.372  10.639
 2677SOL    HW1 8783   0.333   3.328  10.552
 2677SOL    HW2 8784   0.451   3.398  10.642
 2678SOL     OW 8785   0.402   2.613  10.908
 2678SOL    HW1 8786   0.470   2.668  10.861
 2678SOL    HW2 8787   0.442   2.525  10.935
 2679SOL     OW 8788   1.587   2.641  10.980
 2679SOL    HW1 8789   1.495   2.679  10.975
 2679SOL    HW2 8790   1.647   2.688  10.915
 2680SOL     OW 8791   1.013   1.967  11.080
 2680SOL    HW1 8792   1.019   2.052  11.028
 2680SOL    HW2 8793   1.045   1.891  11.023
 2681SOL     OW 8794   0.504   1.912  11.050
 2681SOL    HW1 8795   0.462   1.855  10.980
 2681SOL    HW2 8796   0.438   1.981  11.082
 2682SOL     OW 8797   0.573   2.732  10.339
 2682SOL    HW1 8798   0.617   2.821  10.330
 2682SOL    HW2 8799   0.510   2.732  10.416
 2683SOL     OW 8800   1.360   2.724  10.355
 2683SOL    HW1 8801   1.285   2.724  10.289
 2683SOL    HW2 8802   1.397   2.632  10.364
 2684SOL     OW 8803   1.209   2.387   9.585
 2684SOL    HW1 8804   1.222   2.303   9.639
 2684SOL    HW2 8805   1.180   2.461   9.645
 2685SOL     OW 8806   0.307   2.075  10.541
 2685SOL    HW1 8807   0.284   2.112  10.631
 2685SOL    HW2 8808   0.277   1.980  10.535
 2686SOL     OW 8809   0.037   3.172  10.592
 2686SOL    HW1 8810   0.090   3.123  10.660
 2686SOL    HW2 8811   0.059   3.270  10.597
 2687SOL     OW 8812   0.732   2.496  10.374
 2687SOL    HW1 8813   0.791   2.470  10.298
 2687SOL    HW2 8814   0.704   2.592  10.363
 2688SOL     OW 8815   1.728   2.797  11.164
 2688SOL    HW1 8816   1.682   2.790  11.075
 2688SOL    HW2 8817   1.666   2.841  11.230
 2689SOL     OW 8818   0.307   1.925   9.928
 2689SOL    HW1 8819   0.296   2.019   9.961
 2689SOL    HW2 8820   0.302   1.862  10.005
 2690SOL     OW 8821   1.622   2.229   9.684
 2690SOL    HW1 8822   1.624   2.153   9.748
 2690SOL    HW2 8823   1.574   2.306   9.724
 2691SOL     OW 8824   1.023   2.628  10.276
 2691SOL    HW1 8825   1.038   2.649  10.372
 2691SOL    HW2 8826   0.993   2.533  10.267
 2692SOL     OW 8827   0.980   3.435  11.010
 2692SOL    HW1 8828   0.960   3.479  10.922
 2692SOL    HW2 8829   1.019   3.344  10.994
 2693SOL     OW 8830   1.859   3.380  10.915
 2693SOL    HW1 8831   1.873   3.407  10.820
 2693SOL    HW2 8832   1.942   3.402  10.968
 2694SOL     OW 8833   0.350   2.760  11.114
 2694SOL    HW1 8834   0.426   2.804  11.162
 2694SOL    HW2 8835   0.385   2.713  11.032
 2695SOL     OW 8836   1.540   2.136   9.435
 2695SOL    HW1 8837   1.479   2.061   9.458
 2695SOL    HW2 8838   1.562   2.188   9.518
 2696SOL     OW 8839   1.303   2.700   9.352
 2696SOL    HW1 8840   1.337   2.607   9.367
 2696SOL    HW2 8841   1.321   2.727   9.257
 2697SOL     OW 8842   1.068   3.195  10.159
 2697SOL    HW1 8843   1.075   3.111  10.104
 2697SOL    HW2 8844   1.130   3.264  10.123
 2698SOL     OW 8845   0.319   2.672  10.259
 2698SOL    HW1 8846   0.412   2.708  10.264
 2698SOL    HW2 8847   0.313   2.587  10.311
 2699SOL     OW 8848   0.339   2.371  10.316
 2699SOL    HW1 8849   0.287   2.288  10.299
 2699SOL    HW2 8850   0.416   2.376  10.252
 2700SOL     OW 8851   1.138   2.242  10.988
 2700SOL    HW1 8852   1.093   2.305  11.052
 2700SOL    HW2 8853   1.231   2.273  10.971
 2701SOL     OW 8854   1.160   2.069  10.787
 2701SOL    HW1 8855   1.160   2.133  10.864
 2701SOL    HW2 8856   1.188   2.117  10.704
 2702SOL     OW 8857   0.008   3.188   9.510
 2702SOL    HW1 8858  -0.085   3.209   9.479
 2702SOL    HW2 8859   0.018   3.089   9.523
 2703SOL     OW 8860   0.088   3.663  10.237
 2703SOL    HW1 8861   0.046   3.577  10.210
 2703SOL    HW2 8862   0.182   3.666  10.203
 2704SOL     OW 8863   0.504   3.430  10.220
 2704SOL    HW1 8864   0.570   3.504  10.229
 2704SOL    HW2 8865   0.548   3.351  10.178
 2705SOL     OW 8866   1.002   2.658  10.548
 2705SOL    HW1 8867   1.043   2.626  10.634
 2705SOL    HW2 8868   0.906   2.631  10.545
 2706SOL     OW 8869   0.040   2.406  10.424
 2706SOL    HW1 8870   0.125   2.373  10.383
 2706SOL    HW2 8871   0.053   2.421  10.522
 2707SOL     OW 8872   0.189   2.382  11.032
 2707SOL    HW1 8873   0.248   2.342  10.962
 2707SOL    HW2 8874   0.131   2.453  10.991
 2708SOL     OW 8875   1.369   2.812  10.970
 2708SOL    HW1 8876   1.408   2.901  10.990
 2708SOL    HW2 8877   1.379   2.792  10.873
 2709SOL     OW 8878   0.815   2.434   9.635
 2709SOL    HW1 8879   0.822   2.345   9.589
 2709SOL    HW2 8880   0.721   2.468   9.627
 2710SOL     OW 8881   1.657   2.466  10.516
 2710SOL    HW1 8882   1.619   2.397  10.578
 2710SOL    HW2 8883   1.739   2.430  10.472
 2711SOL     OW 8884   0.252   3.426  11.054
 2711SOL    HW1 8885   0.222   3.483  11.130
 2711SOL    HW2 8886   0.245   3.329  11.080
 2712SOL     OW 8887   0.671   2.326  10.579
 2712SOL    HW1 8888   0.637   2.237  10.549
 2712SOL    HW2 8889   0.697   2.380  10.499
 2713SOL     OW 8890   0.930   3.540  10.775
 2713SOL    HW1 8891   0.906   3.522  10.680
 2713SOL    HW2 8892   0.960   3.634  10.785
 2714SOL     OW 8893   0.473   2.362   9.501
 2714SOL    HW1 8894   0.534   2.442   9.505
 2714SOL    HW2 8895   0.378   2.393   9.508
 2715SOL     OW 8896   0.159   2.999  10.776
 2715SOL    HW1 8897   0.181   2.938  10.852
 2715SOL    HW2 8898   0.169   2.950  10.690
 2716SOL     OW 8899   1.347   2.921  10.544
 2716SOL    HW1 8900   1.371   2.858  10.470
 2716SOL    HW2 8901   1.257   2.961  10.526
 2717SOL     OW 8902   1.302   2.717   9.619
 2717SOL    HW1 8903   1.216   2.686   9.661
 2717SOL    HW2 8904   1.298   2.703   9.520
 2718SOL     OW 8905   1.759   3.609  10.464
 2718SOL    HW1 8906   1.820   3.639  10.391
 2718SOL    HW2 8907   1.721   3.520  10.442
 2719SOL     OW 8908   1.252   3.593  10.438
 2719SOL    HW1 8909   1.336   3.598  10.384
 2719SOL    HW2 8910   1.229   3.497  10.456
 2720SOL     OW 8911   0.083   3.120  10.332
 2720SOL    HW1 8912   0.078   3.119  10.432
 2720SOL    HW2 8913   0.000   3.079  10.294
 2721SOL     OW 8914   0.688   3.524  11.026
 2721SOL    HW1 8915   0.632   3.605  11.035
 2721SOL    HW2 8916   0.740   3.528  10.940
 2722SOL     OW 8917   1.388   3.435   9.787
 2722SOL    HW1 8918   1.455   3.447   9.713
 2722SOL    HW2 8919   1.348   3.524   9.810
 2723SOL     OW 8920   0.130   3.656  11.161
 2723SOL    HW1 8921   0.089   3.582  11.214
 2723SOL    HW2 8922   0.194   3.707  11.219
 2724SOL     OW 8923   1.280   2.789   9.982
 2724SOL    HW1 8924   1.340   2.708   9.984
 2724SOL    HW2 8925   1.320   2.858   9.922
 2725SOL     OW 8926   0.830   3.135  10.732
 2725SOL    HW1 8927   0.825   3.168  10.827
 2725SOL    HW2 8928   0.744   3.154  10.686
 2726SOL     OW 8929   0.672   3.478   9.464
 2726SOL    HW1 8930   0.681   3.488   9.365
 2726SOL    HW2 8931   0.632   3.389   9.485
 2727SOL     OW 8932   1.650   3.582  10.704
 2727SOL    HW1 8933   1.703   3.592  10.620
 2727SOL    HW2 8934   1.623   3.672  10.738
 2728SOL     OW 8935   0.263   2.188  10.030
 2728SOL    HW1 8936   0.184   2.239   9.996
 2728SOL    HW2 8937   0.254   2.173  10.128
 2729SOL     OW 8938   1.194   3.474   9.341
 2729SOL    HW1 8939   1.200   3.381   9.378
 2729SOL    HW2 8940   1.135   3.474   9.261
 2730SOL     OW 8941   0.822   2.864  10.682
 2730SOL    HW1 8942   0.862   2.863  10.590
 2730SOL    HW2 8943   0.832   2.956  10.722
 2731SOL     OW 8944   0.916   2.772   9.601
 2731SOL    HW1 8945   0.979   2.810   9.533
 2731SOL    HW2 8946   0.956   2.689   9.640
 2732SOL     OW 8947   1.504   3.469   9.354
 2732SOL    HW1 8948   1.412   3.506   9.361
 2732SOL    HW2 8949   1.542   3.489   9.264
 2733SOL     OW 8950   0.372   3.150  10.800
 2733SOL    HW1 8951   0.359   3.243  10.766
 2733SOL    HW2 8952   0.288   3.098  10.787
 2734SOL     OW 8953   1.614   3.154  10.599
 2734SOL    HW1 8954   1.674   3.157  10.679
 2734SOL    HW2 8955   1.539   3.218  10.612
 2735SOL     OW 8956   1.039   2.960  10.006
 2735SOL    HW1 8957   0.969   2.913  10.060
 2735SOL    HW2 8958   1.098   2.892   9.963
 2736SOL     OW 8959   1.014   2.098  10.281
 2736SOL    HW1 8960   1.006   2.062  10.188
 2736SOL    HW2 8961   1.012   2.022  10.346
 2737SOL     OW 8962   0.590   3.349   9.801
 2737SOL    HW1 8963   0.632   3.291   9.731
 2737SOL    HW2 8964   0.546   3.428   9.757
 2738SOL     OW 8965   1.709   2.247  10.691
 2738SOL    HW1 8966   1.782   2.316  10.695
 2738SOL    HW2 8967   1.737   2.172  10.632
 2739SOL     OW 8968   0.255   3.210   9.600
 2739SOL    HW1 8969   0.159   3.211   9.573
 2739SOL    HW2 8970   0.267   3.263   9.684
 2740SOL     OW 8971   0.105   2.875  11.036
 2740SOL    HW1 8972   0.028   2.842  11.090
 2740SOL    HW2 8973   0.190   2.845  11.078
 2741SOL     OW 8974   0.672   2.065  10.799
 2741SOL    HW1 8975   0.762   2.049  10.759
 2741SOL    HW2 8976   0.680   2.070  10.898
 2742SOL     OW 8977   0.075   2.207   9.343
 2742SOL    HW1 8978  -0.017   2.179   9.314
 2742SOL    HW2 8979   0.106   2.284   9.287
 2743SOL     OW 8980   1.440   2.718  10.708
 2743SOL    HW1 8981   1.383   2.770  10.645
 2743SOL    HW2 8982   1.536   2.730  10.684
 2744SOL     OW 8983   0.072   2.028   9.628
 2744SOL    HW1 8984   0.055   2.111   9.574
 2744SOL    HW2 8985   0.162   1.991   9.606
 2745SOL     OW 8986   1.183   3.197   9.429
 2745SOL    HW1 8987   1.084   3.186   9.431
 2745SOL    HW2 8988   1.217   3.212   9.522
 2746SOL     OW 8989   0.613   2.704  10.741
 2746SOL    HW1 8990   0.669   2.785  10.724
 2746SOL    HW2 8991   0.672   2.624  10.744
 2747SOL     OW 8992   1.493   3.629  10.269
 2747SOL    HW1 8993   1.526   3.693  10.200
 2747SOL    HW2 8994   1.559   3.623  10.344
 2748SOL     OW 8995   0.716   2.427  11.018
 2748SOL    HW1 8996   0.735   2.492  11.092
 2748SOL    HW2 8997   0.776   2.347  11.027
 2749SOL     OW 8998   1.450   3.082  10.943
 2749SOL    HW1 8999   1.441   3.072  11.042
 2749SOL    HW2 9000   1.546   3.075  10.917
 2750SOL     OW 9001   0.390   3.603  10.870
 2750SOL    HW1 9002   0.299   3.644  10.868
 2750SOL    HW2 9003   0.383   3.509  10.902
 2751SOL     OW 9004   1.674   2.745  10.564
 2751SOL    HW1 9005   1.647   2.656  10.527
 2751SOL    HW2 9006   1.675   2.813  10.491
 2752SOL     OW 9007   1.225   2.187   9.759
 2752SOL    HW1 9008   1.290   2.113   9.748
 2752SOL    HW2 9009   1.245   2.237   9.843
 2753SOL     OW 9010   0.594   2.607   9.962
 2753SOL    HW1 9011   0.644   2.692   9.943
 2753SOL    HW2 9012   0.506   2.609   9.914
 2754SOL     OW 9013   1.777   2.204  10.952
 2754SOL    HW1 9014   1.760   2.235  10.858
 2754SOL    HW2 9015   1.693   2.167  10.990
 2755SOL     OW 9016   1.730   2.796  10.827
 2755SOL    HW1 9017   1.768   2.887  10.842
 2755SOL    HW2 9018   1.722   2.779  10.728
 2756SOL     OW 9019   0.859   3.236   9.326
 2756SOL    HW1 9020   0.813   3.251   9.414
 2756SOL    HW2 9021   0.903   3.321   9.296
 2757SOL     OW 9022   0.661   3.652  10.263
 2757SOL    HW1 9023   0.615   3.740  10.250
 2757SOL    HW2 9024   0.760   3.664  10.256
 2758SOL     OW 9025   0.859   2.818  10.171
 2758SOL    HW1 9026   0.913   2.749  10.219
 2758SOL    HW2 9027   0.827   2.887  10.237
 2759SOL     OW 9028   1.083   2.846   9.397
 2759SOL    HW1 9029   1.060   2.899   9.315
 2759SOL    HW2 9030   1.164   2.790   9.378
 2760SOL     OW 9031   1.861   3.431  10.161
 2760SOL    HW1 9032   1.790   3.419  10.091
 2760SOL    HW2 9033   1.862   3.352  10.221
 2761SOL     OW 9034   0.221   3.176  11.154
 2761SOL    HW1 9035   0.156   3.103  11.133
 2761SOL    HW2 9036   0.225   3.190  11.252
 2762SOL     OW 9037   0.079   3.102   9.963
 2762SOL    HW1 9038   0.078   3.055  10.051
 2762SOL    HW2 9039   0.161   3.074   9.912
 2763SOL     OW 9040   0.672   3.253  10.934
 2763SOL    HW1 9041   0.594   3.203  10.972
 2763SOL    HW2 9042   0.669   3.348  10.965
 2764SOL     OW 9043   0.428   2.286   9.830
 2764SOL    HW1 9044   0.458   2.214   9.768
 2764SOL    HW2 9045   0.389   2.246   9.913
 2765SOL     OW 9046   1.705   3.349  10.414
 2765SOL    HW1 9047   1.612   3.324  10.387
 2765SOL    HW2 9048   1.731   3.299  10.496
 2766SOL     OW 9049   0.317   2.409  10.590
 2766SOL    HW1 9050   0.355   2.350  10.662
 2766SOL    HW2 9051   0.357   2.383  10.502
 2767SOL     OW 9052   0.812   3.448   9.997
 2767SOL    HW1 9053   0.844   3.458   9.903
 2767SOL    HW2 9054   0.733   3.386   9.999
 2768SOL     OW 9055   1.424   2.076  10.422
 2768SOL    HW1 9056   1.476   2.011  10.477
 2768SOL    HW2 9057   1.375   2.139  10.483
 2769SOL     OW 9058   1.001   1.896  10.464
 2769SOL    HW1 9059   0.938   1.824  10.433
 2769SOL    HW2 9060   1.094   1.860  10.464
 2770SOL     OW 9061   0.770   3.192   9.611
 2770SOL    HW1 9062   0.724   3.105   9.628
 2770SOL    HW2 9063   0.861   3.189   9.652
 2771SOL     OW 9064   0.618   3.429  10.594
 2771SOL    HW1 9065   0.613   3.511  10.651
 2771SOL    HW2 9066   0.707   3.426  10.549
 2772SOL     OW 9067   1.352   1.914   9.478
 2772SOL    HW1 9068   1.387   1.873   9.394
 2772SOL    HW2 9069   1.262   1.876   9.498
 2773SOL     OW 9070   1.300   2.315  10.001
 2773SOL    HW1 9071   1.241   2.395  10.005
 2773SOL    HW2 9072   1.315   2.280  10.094
 2774SOL     OW 9073   1.593   2.083  10.192
 2774SOL    HW1 9074   1.509   2.082  10.246
 2774SOL    HW2 9075   1.595   2.166  10.136
 2775SOL     OW 9076   0.039   2.939   9.610
 2775SOL    HW1 9077   0.138   2.928   9.601
 2775SOL    HW2 9078  -0.001   2.853   9.642
 2776SOL     OW 9079   0.875   3.508   9.647
 2776SOL    HW1 9080   0.798   3.473   9.593
 2776SOL    HW2 9081   0.843   3.579   9.709
 2777SOL     OW 9082   0.230   2.490  11.285
 2777SOL    HW1 9083   0.137   2.488  11.322
 2777SOL    HW2 9084   0.231   2.451  11.193
 2778SOL     OW 9085   0.225   2.137  12.168
 2778SOL    HW1 9086   0.260   2.120  12.260
 2778SOL    HW2 9087   0.137   2.092  12.156
 2779SOL     OW 9088   0.019   2.230  11.819
 2779SOL    HW1 9089  -0.063   2.273  11.858
 2779SOL    HW2 9090  -0.009   2.157  11.756
 2780SOL     OW 9091   0.569   3.137  12.337
 2780SOL    HW1 9092   0.476   3.130  12.300
 2780SOL    HW2 9093   0.580   3.226  12.381
 2781SOL     OW 9094   1.555   3.373  11.875
 2781SOL    HW1 9095   1.498   3.357  11.956
 2781SOL    HW2 9096   1.496   3.383  11.795
 2782SOL     OW 9097   1.135   2.565  11.889
 2782SOL    HW1 9098   1.192   2.643  11.864
 2782SOL    HW2 9099   1.075   2.591  11.965
 2783SOL     OW 9100   1.755   2.469  11.403
 2783SOL    HW1 9101   1.743   2.456  11.304
 2783SOL    HW2 9102   1.725   2.388  11.452
 2784SOL     OW 9103   0.768   3.006  12.195
 2784SOL    HW1 9104   0.690   3.023  12.255
 2784SOL    HW2 9105   0.802   3.093  12.159
 2785SOL     OW 9106   0.850   2.660  12.995
 2785SOL    HW1 9107   0.846   2.736  13.060
 2785SOL    HW2 9108   0.872   2.696  12.904
 2786SOL     OW 9109   0.685   2.874  11.837
 2786SOL    HW1 9110   0.754   2.858  11.907
 2786SOL    HW2 9111   0.612   2.931  11.875
 2787SOL     OW 9112   0.686   3.023  12.975
 2787SOL    HW1 9113   0.746   3.102  12.989
 2787SOL    HW2 9114   0.600   3.054  12.934
 2788SOL     OW 9115   0.335   3.297  12.233
 2788SOL    HW1 9116   0.257   3.266  12.180
 2788SOL    HW2 9117   0.393   3.355  12.176
 2789SOL     OW 9118   1.460   3.367  12.511
 2789SOL    HW1 9119   1.484   3.461  12.537
 2789SOL    HW2 9120   1.444   3.313  12.593
 2790SOL     OW 9121   0.438   2.254  12.671
 2790SOL    HW1 9122   0.520   2.198  12.680
 2790SOL    HW2 9123   0.357   2.196  12.675
 2791SOL     OW 9124   1.603   2.309  11.909
 2791SOL    HW1 9125   1.529   2.355  11.859
 2791SOL    HW2 9126   1.654   2.377  11.962
 2792SOL     OW 9127   0.231   3.575  11.655
 2792SOL    HW1 9128   0.265   3.652  11.709
 2792SOL    HW2 9129   0.275   3.575  11.565
 2793SOL     OW 9130   1.127   3.203  12.862
 2793SOL    HW1 9131   1.174   3.203  12.950
 2793SOL    HW2 9132   1.079   3.116  12.851
 2794SOL     OW 9133   0.230   3.296  11.710
 2794SOL    HW1 9134   0.204   3.392  11.710
 2794SOL    HW2 9135   0.159   3.242  11.755
 2795SOL     OW 9136   0.240   2.953  12.058
 2795SOL    HW1 9137   0.254   2.869  12.110
 2795SOL    HW2 9138   0.185   3.017  12.113
 2796SOL     OW 9139   0.620   3.648  12.611
 2796SOL    HW1 9140   0.528   3.631  12.646
 2796SOL    HW2 9141   0.648   3.740  12.637
 2797SOL     OW 9142   0.606   2.826  11.295
 2797SOL    HW1 9143   0.613   2.910  11.241
 2797SOL    HW2 9144   0.652   2.839  11.383
 2798SOL     OW 9145   1.594   1.976  12.652
 2798SOL    HW1 9146   1.576   2.043  12.580
 2798SOL    HW2 9147   1.591   2.022  12.741
 2799SOL     OW 9148   0.122   2.505  11.735
 2799SOL    HW1 9149   0.077   2.417  11.752
 2799SOL    HW2 9150   0.121   2.559  11.819
 2800SOL     OW 9151   1.842   3.629  11.531
 2800SOL    HW1 9152   1.896   3.600  11.611
 2800SOL    HW2 9153   1.872   3.719  11.502
 2801SOL     OW 9154   0.027   3.458  11.289
 2801SOL    HW1 9155   0.008   3.362  11.310
 2801SOL    HW2 9156  -0.006   3.516  11.364
 2802SOL     OW 9157   1.689   2.784  11.784
 2802SOL    HW1 9158   1.784   2.755  11.792
 2802SOL    HW2 9159   1.681   2.849  11.709
 2803SOL     OW 9160   1.641   2.970  11.604
 2803SOL    HW1 9161   1.727   2.972  11.552
 2803SOL    HW2 9162   1.655   3.017  11.692
 2804SOL     OW 9163   0.113   2.599  12.769
 2804SOL    HW1 9164   0.201   2.586  12.814
 2804SOL    HW2 9165   0.100   2.696  12.747
 2805SOL     OW 9166   0.613   3.227  11.898
 2805SOL    HW1 9167   0.564   3.140  11.907
 2805SOL    HW2 9168   0.590   3.270  11.811
 2806SOL     OW 9169   1.293   3.090  12.595
 2806SOL    HW1 9170   1.330   3.017  12.537
 2806SOL    HW2 9171   1.345   3.095  12.680
 2807SOL     OW 9172   0.809   1.866  11.674
 2807SOL    HW1 9173   0.849   1.957  11.665
 2807SOL    HW2 9174   0.709   1.874  11.680
 2808SOL     OW 9175   0.197   2.838  12.436
 2808SOL    HW1 9176   0.286   2.793  12.422
 2808SOL    HW2 9177   0.124   2.773  12.417
 2809SOL     OW 9178   1.525   2.861  11.362
 2809SOL    HW1 9179   1.462   2.785  11.375
 2809SOL    HW2 9180   1.573   2.879  11.448
 2810SOL     OW 9181   1.187   3.654  12.788
 2810SOL    HW1 9182   1.211   3.714  12.712
 2810SOL    HW2 9183   1.194   3.559  12.758
 2811SOL     OW 9184   0.317   2.113  12.973
 2811SOL    HW1 9185   0.388   2.184  12.979
 2811SOL    HW2 9186   0.229   2.152  13.001
 2812SOL     OW 9187   1.466   3.279  12.125
 2812SOL    HW1 9188   1.407   3.285  12.205
 2812SOL    HW2 9189   1.451   3.191  12.079
 2813SOL     OW 9190   1.667   3.576  11.744
 2813SOL    HW1 9191   1.626   3.553  11.656
 2813SOL    HW2 9192   1.649   3.502  11.809
 2814SOL     OW 9193   0.598   2.591  11.442
 2814SOL    HW1 9194   0.622   2.660  11.374
 2814SOL    HW2 9195   0.520   2.624  11.496
 2815SOL     OW 9196   1.281   2.207  12.116
 2815SOL    HW1 9197   1.195   2.157  12.103
 2815SOL    HW2 9198   1.343   2.153  12.172
 2816SOL     OW 9199   1.576   3.524  11.479
 2816SOL    HW1 9200   1.665   3.570  11.482
 2816SOL    HW2 9201   1.555   3.500  11.384
 2817SOL     OW 9202   0.807   2.467  12.637
 2817SOL    HW1 9203   0.760   2.464  12.726
 2817SOL    HW2 9204   0.756   2.412  12.571
 2818SOL     OW 9205   1.394   2.331  12.846
 2818SOL    HW1 9206   1.374   2.374  12.934
 2818SOL    HW2 9207   1.472   2.269  12.855
 2819SOL     OW 9208   0.973   2.752  12.744
 2819SOL    HW1 9209   1.019   2.668  12.715
 2819SOL    HW2 9210   0.917   2.786  12.669
 2820SOL     OW 9211   0.991   2.272  12.414
 2820SOL    HW1 9212   0.914   2.306  12.468
 2820SOL    HW2 9213   0.957   2.221  12.335
 2821SOL     OW 9214   1.041   2.563  11.601
 2821SOL    HW1 9215   1.067   2.559  11.697
 2821SOL    HW2 9216   0.956   2.512  11.587
 2822SOL     OW 9217   0.076   2.673  11.961
 2822SOL    HW1 9218   0.175   2.661  11.970
 2822SOL    HW2 9219   0.052   2.768  11.982
 2823SOL     OW 9220   0.130   3.683  12.743
 2823SOL    HW1 9221   0.120   3.668  12.842
 2823SOL    HW2 9222   0.044   3.719  12.707
 2824SOL     OW 9223   0.865   2.210  11.367
 2824SOL    HW1 9224   0.924   2.273  11.318
 2824SOL    HW2 9225   0.884   2.116  11.338
 2825SOL     OW 9226   1.719   2.447  13.003
 2825SOL    HW1 9227   1.693   2.536  12.967
 2825SOL    HW2 9228   1.717   2.379  12.930
 2826SOL     OW 9229   1.362   3.006  11.717
 2826SOL    HW1 9230   1.445   2.977  11.669
 2826SOL    HW2 9231   1.313   3.073  11.661
 2827SOL     OW 9232   0.550   2.058  12.057
 2827SOL    HW1 9233   0.545   2.053  12.157
 2827SOL    HW2 9234   0.552   2.154  12.028
 2828SOL     OW 9235   1.008   3.318  11.649
 2828SOL    HW1 9236   0.962   3.390  11.597
 2828SOL    HW2 9237   1.004   3.338  11.747
 2829SOL     OW 9238   0.351   3.663  12.025
 2829SOL    HW1 9239   0.401   3.577  12.031
 2829SOL    HW2 9240   0.416   3.740  12.022
 2830SOL     OW 9241   1.795   2.928  12.045
 2830SOL    HW1 9242   1.733   2.913  11.969
 2830SOL    HW2 9243   1.743   2.939  12.130
 2831SOL     OW 9244   1.227   3.412  12.678
 2831SOL    HW1 9245   1.233   3.335  12.742
 2831SOL    HW2 9246   1.175   3.386  12.598
 2832SOL     OW 9247   0.321   2.805  11.414
 2832SOL    HW1 9248   0.403   2.844  11.372
 2832SOL    HW2 9249   0.294   2.723  11.365
 2833SOL     OW 9250   1.458   2.597  11.900
 2833SOL    HW1 9251   1.453   2.532  11.975
 2833SOL    HW2 9252   1.538   2.656  11.913
 2834SOL     OW 9253   0.461   3.128  12.899
 2834SOL    HW1 9254   0.411   3.129  12.813
 2834SOL    HW2 9255   0.398   3.110  12.975
 2835SOL     OW 9256   1.111   3.638  11.409
 2835SOL    HW1 9257   1.051   3.576  11.459
 2835SOL    HW2 9258   1.142   3.594  11.324
 2836SOL     OW 9259   0.202   2.147  12.670
 2836SOL    HW1 9260   0.122   2.207  12.657
 2836SOL    HW2 9261   0.192   2.098  12.756
 2837SOL     OW 9262   1.632   3.239  11.253
 2837SOL    HW1 9263   1.600   3.333  11.243
 2837SOL    HW2 9264   1.556   3.176  11.241
 2838SOL     OW 9265   0.464   3.605  11.495
 2838SOL    HW1 9266   0.497   3.644  11.581
 2838SOL    HW2 9267   0.540   3.598  11.430
 2839SOL     OW 9268   1.400   1.969  11.598
 2839SOL    HW1 9269   1.376   1.932  11.508
 2839SOL    HW2 9270   1.499   1.985  11.602
 2840SOL     OW 9271   0.249   3.647  12.413
 2840SOL    HW1 9272   0.306   3.582  12.463
 2840SOL    HW2 9273   0.233   3.614  12.320
 2841SOL     OW 9274   0.940   3.560  12.076
 2841SOL    HW1 9275   1.020   3.503  12.097
 2841SOL    HW2 9276   0.891   3.520  11.999
 2842SOL     OW 9277   0.382   2.562  11.652
 2842SOL    HW1 9278   0.427   2.472  11.649
 2842SOL    HW2 9279   0.288   2.551  11.685
 2843SOL     OW 9280   1.547   2.084  12.901
 2843SOL    HW1 9281   1.542   2.121  12.993
 2843SOL    HW2 9282   1.475   2.015  12.889
 2844SOL     OW 9283   0.614   1.984  11.289
 2844SOL    HW1 9284   0.712   1.962  11.296
 2844SOL    HW2 9285   0.583   1.967  11.196
 2845SOL     OW 9286   0.781   2.126  12.921
 2845SOL    HW1 9287   0.848   2.065  12.964
 2845SOL    HW2 9288   0.708   2.145  12.986
 2846SOL     OW 9289   0.888   3.376  12.367
 2846SOL    HW1 9290   0.865   3.351  12.273
 2846SOL    HW2 9291   0.949   3.307  12.406
 2847SOL     OW 9292   1.351   2.452  12.605
 2847SOL    HW1 9293   1.379   2.409  12.690
 2847SOL    HW2 9294   1.376   2.548  12.606
 2848SOL     OW 9295   0.803   3.264  12.096
 2848SOL    HW1 9296   0.893   3.278  12.054
 2848SOL    HW2 9297   0.732   3.266  12.025
 2849SOL     OW 9298   0.922   2.365  12.071
 2849SOL    HW1 9299   0.897   2.356  11.975
 2849SOL    HW2 9300   0.970   2.283  12.102
 2850SOL     OW 9301   0.539   1.926  11.684
 2850SOL    HW1 9302   0.458   1.927  11.742
 2850SOL    HW2 9303   0.542   2.009  11.629
 2851SOL     OW 9304   1.434   3.050  11.213
 2851SOL    HW1 9305   1.466   2.974  11.270
 2851SOL    HW2 9306   1.342   3.077  11.243
 2852SOL     OW 9307   0.297   1.897  11.343
 2852SOL    HW1 9308   0.346   1.981  11.322
 2852SOL    HW2 9309   0.359   1.832  11.388
 2853SOL     OW 9310   0.935   2.098  11.652
 2853SOL    HW1 9311   0.887   2.139  11.574
 2853SOL    HW2 9312   1.034   2.096  11.633
 2854SOL     OW 9313   1.076   2.545  12.636
 2854SOL    HW1 9314   0.996   2.484  12.639
 2854SOL    HW2 9315   1.157   2.492  12.612
 2855SOL     OW 9316   1.227   3.432  11.965
 2855SOL    HW1 9317   1.248   3.506  11.900
 2855SOL    HW2 9318   1.295   3.432  12.038
 2856SOL     OW 9319   0.459   3.014  11.913
 2856SOL    HW1 9320   0.388   2.987  11.978
 2856SOL    HW2 9321   0.433   2.986  11.820
 2857SOL     OW 9322   1.271   3.659  11.763
 2857SOL    HW1 9323   1.315   3.723  11.699
 2857SOL    HW2 9324   1.221   3.711  11.833
 2858SOL     OW 9325   1.032   2.411  11.188
 2858SOL    HW1 9326   0.991   2.493  11.149
 2858SOL    HW2 9327   1.096   2.437  11.261
 2859SOL     OW 9328   0.078   2.418  12.558
 2859SOL    HW1 9329   0.170   2.417  12.517
 2859SOL    HW2 9330   0.072   2.492  12.625
 2860SOL     OW 9331   0.561   2.084  12.319
 2860SOL    HW1 9332   0.599   2.000  12.356
 2860SOL    HW2 9333   0.473   2.103  12.363
 2861SOL     OW 9334   0.866   2.316  11.814
 2861SOL    HW1 9335   0.834   2.388  11.752
 2861SOL    HW2 9336   0.890   2.235  11.761
 2862SOL     OW 9337   1.017   1.901  11.925
 2862SOL    HW1 9338   0.945   1.906  11.856
 2862SOL    HW2 9339   0.993   1.832  11.994
 2863SOL     OW 9340   1.429   3.035  12.039
 2863SOL    HW1 9341   1.374   2.951  12.032
 2863SOL    HW2 9342   1.455   3.064  11.947
 2864SOL     OW 9343   1.466   2.452  12.164
 2864SOL    HW1 9344   1.436   2.357  12.171
 2864SOL    HW2 9345   1.539   2.468  12.230
 2865SOL     OW 9346   1.857   2.695  11.549
 2865SOL    HW1 9347   1.899   2.631  11.613
 2865SOL    HW2 9348   1.819   2.644  11.471
 2866SOL     OW 9349   0.488   3.247  11.346
 2866SOL    HW1 9350   0.401   3.232  11.393
 2866SOL    HW2 9351   0.471   3.273  11.251
 2867SOL     OW 9352   1.664   3.142  11.829
 2867SOL    HW1 9353   1.763   3.150  11.843
 2867SOL    HW2 9354   1.619   3.226  11.860
 2868SOL     OW 9355   1.390   2.437  11.250
 2868SOL    HW1 9356   1.336   2.416  11.331
 2868SOL    HW2 9357   1.481   2.396  11.259
 2869SOL     OW 9358   0.527   2.118  11.500
 2869SOL    HW1 9359   0.554   2.059  11.425
 2869SOL    HW2 9360   0.527   2.213  11.469
 2870SOL     OW 9361   1.754   3.085  12.760
 2870SOL    HW1 9362   1.845   3.046  12.747
 2870SOL    HW2 9363   1.762   3.181  12.784
 2871SOL     OW 9364   1.064   3.209  12.512
 2871SOL    HW1 9365   0.984   3.186  12.567
 2871SOL    HW2 9366   1.147   3.183  12.561
 2872SOL     OW 9367   1.592   3.491  12.797
 2872SOL    HW1 9368   1.619   3.525  12.707
 2872SOL    HW2 9369   1.671   3.453  12.843
 2873SOL     OW 9370   1.111   3.057  12.272
 2873SOL    HW1 9371   1.071   3.101  12.353
 2873SOL    HW2 9372   1.070   3.094  12.189
 2874SOL     OW 9373   1.638   2.961  12.251
 2874SOL    HW1 9374   1.643   3.042  12.310
 2874SOL    HW2 9375   1.552   2.963  12.200
 2875SOL     OW 9376   0.915   1.951  12.574
 2875SOL    HW1 9377   0.940   1.931  12.479
 2875SOL    HW2 9378   0.987   2.007  12.616
 2876SOL     OW 9379   0.980   2.978  12.891
 2876SOL    HW1 9380   0.881   2.984  12.901
 2876SOL    HW2 9381   1.003   2.898  12.835
 2877SOL     OW 9382   0.705   2.912  11.540
 2877SOL    HW1 9383   0.691   2.919  11.639
 2877SOL    HW2 9384   0.789   2.861  11.522
 2878SOL     OW 9385   0.410   2.675  12.423
 2878SOL    HW1 9386   0.496   2.687  12.473
 2878SOL    HW2 9387   0.368   2.588  12.450
 2879SOL     OW 9388   1.274   2.248  12.434
 2879SOL    HW1 9389   1.295   2.322  12.498
 2879SOL    HW2 9390   1.185   2.265  12.391
 2880SOL     OW 9391   0.064   3.426  12.503
 2880SOL    HW1 9392   0.018   3.508  12.469
 2880SOL    HW2 9393   0.162   3.445  12.512
 2881SOL     OW 9394   0.367   2.962  11.673
 2881SOL    HW1 9395   0.360   3.045  11.617
 2881SOL    HW2 9396   0.371   2.882  11.613
 2882SOL     OW 9397   0.566   2.399  12.037
 2882SOL    HW1 9398   0.578   2.465  11.963
 2882SOL    HW2 9399   0.612   2.433  12.120
 2883SOL     OW 9400   1.252   3.210  11.560
 2883SOL    HW1 9401   1.302   3.287  11.600
 2883SOL    HW2 9402   1.157   3.212  11.592
 2884SOL     OW 9403   1.272   3.307  12.314
 2884SOL    HW1 9404   1.319   3.320  12.401
 2884SOL    HW2 9405   1.206   3.233  12.323
 2885SOL     OW 9406   1.582   2.501  11.644
 2885SOL    HW1 9407   1.551   2.562  11.717
 2885SOL    HW2 9408   1.632   2.553  11.575
 2886SOL     OW 9409   0.354   3.372  12.501
 2886SOL    HW1 9410   0.333   3.328  12.414
 2886SOL    HW2 9411   0.451   3.398  12.504
 2887SOL     OW 9412   0.402   2.613  12.770
 2887SOL    HW1 9413   0.470   2.668  12.723
 2887SOL    HW2 9414   0.442   2.525  12.797
 2888SOL     OW 9415   1.587   2.641  12.842
 2888SOL    HW1 9416   1.495   2.679  12.837
 2888SOL    HW2 9417   1.647   2.688  12.777
 2889SOL     OW 9418   1.013   1.967  12.942
 2889SOL    HW1 9419   1.019   2.052  12.890
 2889SOL    HW2 9420   1.045   1.891  12.885
 2890SOL     OW 9421   0.504   1.912  12.912
 2890SOL    HW1 9422   0.462   1.855  12.842
 2890SOL    HW2 9423   0.438   1.981  12.944
 2891SOL     OW 9424   0.573   2.732  12.201
 2891SOL    HW1 9425   0.617   2.821  12.192
 2891SOL    HW2 9426   0.510   2.732  12.278
 2892SOL     OW 9427   1.360   2.724  12.217
 2892SOL    HW1 9428   1.285   2.724  12.151
 2892SOL    HW2 9429   1.397   2.632  12.226
 2893SOL     OW 9430   1.209   2.387  11.447
 2893SOL    HW1 9431   1.222   2.303  11.501
 2893SOL    HW2 9432   1.180   2.461  11.507
 2894SOL     OW 9433   0.307   2.075  12.403
 2894SOL    HW1 9434   0.284   2.112  12.493
 2894SOL    HW2 9435   0.277   1.980  12.397
 2895SOL     OW 9436   0.037   3.172  12.454
 2895SOL    HW1 9437   0.090   3.123  12.522
 2895SOL    HW2 9438   0.059   3.270  12.459
 2896SOL     OW 9439   0.732   2.496  12.236
 2896SOL    HW1 9440   0.791   2.470  12.160
 2896SOL    HW2 9441   0.704   2.592  12.225
 2897SOL     OW 9442   1.728   2.797  13.026
 2897SOL    HW1 9443   1.682   2.790  12.937
 2897SOL    HW2 9444   1.666   2.841  13.092
 2898SOL     OW 9445   0.307   1.925  11.790
 2898SOL    HW1 9446   0.296   2.019  11.823
 2898SOL    HW2 9447   0.302   1.862  11.867
 2899SOL     OW 9448   1.622   2.229  11.546
 2899SOL    HW1 9449   1.624   2.153  11.610
 2899SOL    HW2 9450   1.574   2.306  11.586
 2900SOL     OW 9451   1.023   2.628  12.138
 2900SOL    HW1 9452   1.038   2.649  12.234
 2900SOL    HW2 9453   0.993   2.533  12.129
 2901SOL     OW 9454   0.980   3.435  12.872
 2901SOL    HW1 9455   0.960   3.479  12.784
 2901SOL    HW2 9456   1.019   3.344  12.856
 2902SOL     OW 9457   1.859   3.380  12.777
 2902SOL    HW1 9458   1.873   3.407  12.682
 2902SOL    HW2 9459   1.942   3.402  12.830
 2903SOL     OW 9460   0.350   2.760  12.976
 2903SOL    HW1 9461   0.426   2.804  13.024
 2903SOL    HW2 9462   0.385   2.713  12.894
 2904SOL     OW 9463   1.540   2.136  11.297
 2904SOL    HW1 9464   1.479   2.061  11.320
 2904SOL    HW2 9465   1.562   2.188  11.380
 2905SOL     OW 9466   1.303   2.700  11.214
 2905SOL    HW1 9467   1.337   2.607  11.229
 2905SOL    HW2 9468   1.321   2.727  11.119
 2906SOL     OW 9469   1.068   3.195  12.021
 2906SOL    HW1 9470   1.075   3.111  11.966
 2906SOL    HW2 9471   1.130   3.264  11.985
 2907SOL     OW 9472   0.319   2.672  12.121
 2907SOL    HW1 9473   0.412   2.708  12.126
 2907SOL    HW2 9474   0.313   2.587  12.173
 2908SOL     OW 9475   0.339   2.371  12.178
 2908SOL    HW1 9476   0.287   2.288  12.161
 2908SOL    HW2 9477   0.416   2.376  12.114
 2909SOL     OW 9478   1.138   2.242  12.850
 2909SOL    HW1 9479   1.093   2.305  12.914
 2909SOL    HW2 9480   1.231   2.273  12.833
 2910SOL     OW 9481   1.160   2.069  12.649
 2910SOL    HW1 9482   1.160   2.133  12.726
 2910SOL    HW2 9483   1.188   2.117  12.566
 2911SOL     OW 9484   0.008   3.188  11.372
 2911SOL    HW1 9485  -0.085   3.209  11.341
 2911SOL    HW2 9486   0.018   3.089  11.385
 2912SOL     OW 9487   0.088   3.663  12.099
 2912SOL    HW1 9488   0.046   3.577  12.072
 2912SOL    HW2 9489   0.182   3.666  12.065
 2913SOL     OW 9490   0.504   3.430  12.082
 2913SOL    HW1 9491   0.570   3.504  12.091
 2913SOL    HW2 9492   0.548   3.351  12.040
 2914SOL     OW 9493   1.002   2.658  12.410
 2914SOL    HW1 9494   1.043   2.626  12.496
 2914SOL    HW2 9495   0.906   2.631  12.407
 2915SOL     OW 9496   0.040   2.406  12.286
 2915SOL    HW1 9497   0.125   2.373  12.245
 2915SOL    HW2 9498   0.053   2.421  12.384
 2916SOL     OW 9499   0.189   2.382  12.894
 2916SOL    HW1 9500   0.248   2.342  12.824
 2916SOL    HW2 9501   0.131   2.453  12.853
 2917SOL     OW 9502   1.369   2.812  12.832
 2917SOL    HW1 9503   1.408   2.901  12.852
 2917SOL    HW2 9504   1.379   2.792  12.735
 2918SOL     OW 9505   0.815   2.434  11.497
 2918SOL    HW1 9506   0.822   2.345  11.451
 2918SOL    HW2 9507   0.721   2.468  11.489
 2919SOL     OW 9508   1.657   2.466  12.378
 2919SOL    HW1 9509   1.619   2.397  12.440
 2919SOL    HW2 9510   1.739   2.430  12.334
 2920SOL     OW 9511   0.252   3.426  12.916
 2920SOL    HW1 9512   0.222   3.483  12.992
 2920SOL    HW2 9513   0.245   3.329  12.942
 2921SOL     OW 9514   0.671   2.326  12.441
 2921SOL    HW1 9515   0.637   2.237  12.411
 2921SOL    HW2 9516   0.697   2.380  12.361
 2922SOL     OW 9517   0.930   3.540  12.637
 2922SOL    HW1 9518   0.906   3.522  12.542
 2922SOL    HW2 9519   0.960   3.634  12.647
 2923SOL     OW 9520   0.473   2.362  11.363
 2923SOL    HW1 9521   0.534   2.442  11.367
 2923SOL    HW2 9522   0.378   2.393  11.370
 2924SOL     OW 9523   0.159   2.999  12.638
 2924SOL    HW1 9524   0.181   2.938  12.714
 2924SOL    HW2 9525   0.169   2.950  12.552
 2925SOL     OW 9526   1.347   2.921  12.406
 2925SOL    HW1 9527   1.371   2.858  12.332
 2925SOL    HW2 9528   1.257   2.961  12.388
 2926SOL     OW 9529   1.302   2.717  11.481
 2926SOL    HW1 9530   1.216   2.686  11.523
 2926SOL    HW2 9531   1.298   2.703  11.382
 2927SOL     OW 9532   1.759   3.609  12.326
 2927SOL    HW1 9533   1.820   3.639  12.253
 2927SOL    HW2 9534   1.721   3.520  12.304
 2928SOL     OW 9535   1.252   3.593  12.300
 2928SOL    HW1 9536   1.336   3.598  12.246
 2928SOL    HW2 9537   1.229   3.497  12.318
 2929SOL     OW 9538   0.083   3.120  12.194
 2929SOL    HW1 9539   0.078   3.119  12.294
 2929SOL    HW2 9540   0.000   3.079  12.156
 2930SOL     OW 9541   0.688   3.524  12.888
 2930SOL    HW1 9542   0.632   3.605  12.897
 2930SOL    HW2 9543   0.740   3.528  12.802
 2931SOL     OW 9544   1.388   3.435  11.649
 2931SOL    HW1 9545   1.455   3.447  11.575
 2931SOL    HW2 9546   1.348   3.524  11.672
 2932SOL     OW 9547   0.130   3.656  13.023
 2932SOL    HW1 9548   0.089   3.582  13.076
 2932SOL    HW2 9549   0.194   3.707  13.081
 2933SOL     OW 9550   1.280   2.789  11.844
 2933SOL    HW1 9551   1.340   2.708  11.846
 2933SOL    HW2 9552   1.320   2.858  11.784
 2934SOL     OW 9553   0.830   3.135  12.594
 2934SOL    HW1 9554   0.825   3.168  12.689
 2934SOL    HW2 9555   0.744   3.154  12.548
 2935SOL     OW 9556   0.672   3.478  11.326
 2935SOL    HW1 9557   0.681   3.488  11.227
 2935SOL    HW2 9558   0.632   3.389  11.347
 2936SOL     OW 9559   1.650   3.582  12.566
 2936SOL    HW1 9560   1.703   3.592  12.482
 2936SOL    HW2 9561   1.623   3.672  12.600
 2937SOL     OW 9562   0.263   2.188  11.892
 2937SOL    HW1 9563   0.184   2.239  11.858
 2937SOL    HW2 9564   0.254   2.173  11.990
 2938SOL     OW 9565   1.194   3.474  11.203
 2938SOL    HW1 9566   1.200   3.381  11.240
 2938SOL    HW2 9567   1.135   3.474  11.123
 2939SOL     OW 9568   0.822   2.864  12.544
 2939SOL    HW1 9569   0.862   2.863  12.452
 2939SOL    HW2 9570   0.832   2.956  12.584
 2940SOL     OW 9571   0.916   2.772  11.463
 2940SOL    HW1 9572   0.979   2.810  11.395
 2940SOL    HW2 9573   0.956   2.689  11.502
 2941SOL     OW 9574   1.504   3.469  11.216
 2941SOL    HW1 9575   1.412   3.506  11.223
 2941SOL    HW2 9576   1.542   3.489  11.126
 2942SOL     OW 9577   0.372   3.150  12.662
 2942SOL    HW1 9578   0.359   3.243  12.628
 2942SOL    HW2 9579   0.288   3.098  12.649
 2943SOL     OW 9580   1.614   3.154  12.461
 2943SOL    HW1 9581   1.674   3.157  12.541
 2943SOL    HW2 9582   1.539   3.218  12.474
 2944SOL     OW 9583   1.039   2.960  11.868
 2944SOL    HW1 9584   0.969   2.913  11.922
 2944SOL    HW2 9585   1.098   2.892  11.825
 2945SOL     OW 9586   1.014   2.098  12.143
 2945SOL    HW1 9587   1.006   2.062  12.050
 2945SOL    HW2 9588   1.012   2.022  12.208
 2946SOL     OW 9589   0.590   3.349  11.663
 2946SOL    HW1 9590   0.632   3.291  11.593
 2946SOL    HW2 9591   0.546   3.428  11.619
 2947SOL     OW 9592   1.709   2.247  12.553
 2947SOL    HW1 9593   1.782   2.316  12.557
 2947SOL    HW2 9594   1.737   2.172  12.494
 2948SOL     OW 9595   0.255   3.210  11.462
 2948SOL    HW1 9596   0.159   3.211  11.435
 2948SOL    HW2 9597   0.267   3.263  11.546
 2949SOL     OW 9598   0.105   2.875  12.898
 2949SOL    HW1 9599   0.028   2.842  12.952
 2949SOL    HW2 9600   0.190   2.845  12.940
 2950SOL     OW 9601   0.672   2.065  12.661
 2950SOL    HW1 9602   0.762   2.049  12.621
 2950SOL    HW2 9603   0.680   2.070  12.760
 2951SOL     OW 9604   0.075   2.207  11.205
 2951SOL    HW1 9605  -0.017   2.179  11.176
 2951SOL    HW2 9606   0.106   2.284  11.149
 2952SOL     OW 9607   1.440   2.718  12.570
 2952SOL    HW1 9608   1.383   2.770  12.507
 2952SOL    HW2 9609   1.536   2.730  12.546
 2953SOL     OW 9610   0.072   2.028  11.490
 2953SOL    HW1 9611   0.055   2.111  11.436
 2953SOL    HW2 9612   0.162   1.991  11.468
 2954SOL     OW 9613   1.183   3.197  11.291
 2954SOL    HW1 9614   1.084   3.186  11.293
 2954SOL    HW2 9615   1.217   3.212  11.384
 2955SOL     OW 9616   0.613   2.704  12.603
 2955SOL    HW1 9617   0.669   2.785  12.586
 2955SOL    HW2 9618   0.672   2.624  12.606
 2956SOL     OW 9619   1.493   3.629  12.131
 2956SOL    HW1 9620   1.526   3.693  12.062
 2956SOL    HW2 9621   1.559   3.623  12.206
 2957SOL     OW 9622   0.716   2.427  12.880
 2957SOL    HW1 9623   0.735   2.492  12.954
 2957SOL    HW2 9624   0.776   2.347  12.889
 2958SOL     OW 9625   1.450   3.082  12.805
 2958SOL    HW1 9626   1.441   3.072  12.904
 2958SOL    HW2 9627   1.546   3.075  12.779
 2959SOL     OW 9628   0.390   3.603  12.732
 2959SOL    HW1 9629   0.299   3.644  12.730
 2959SOL    HW2 9630   0.383   3.509  12.764
 2960SOL     OW 9631   1.674   2.745  12.426
 2960SOL    HW1 9632   1.647   2.656  12.389
 2960SOL    HW2 9633   1.675   2.813  12.353
 2961SOL     OW 9634   1.225   2.187  11.621
 2961SOL    HW1 9635   1.290   2.113  11.610
 2961SOL    HW2 9636   1.245   2.237  11.705
 2962SOL     OW 9637   0.594   2.607  11.824
 2962SOL    HW1 9638   0.644   2.692  11.805
 2962SOL    HW2 9639   0.506   2.609  11.776
 2963SOL     OW 9640   1.777   2.204  12.814
 2963SOL    HW1 9641   1.760   2.235  12.720
 2963SOL    HW2 9642   1.693   2.167  12.852
 2964SOL     OW 9643   1.730   2.796  12.689
 2964SOL    HW1 9644   1.768   2.887  12.704
 2964SOL    HW2 9645   1.722   2.779  12.590
 2965SOL     OW 9646   0.859   3.236  11.188
 2965SOL    HW1 9647   0.813   3.251  11.276
 2965SOL    HW2 9648   0.903   3.321  11.158
 2966SOL     OW 9649   0.661   3.652  12.125
 2966SOL    HW1 9650   0.615   3.740  12.112
 2966SOL    HW2 9651   0.760   3.664  12.118
 2967SOL     OW 9652   0.859   2.818  12.033
 2967SOL    HW1 9653   0.913   2.749  12.081
 2967SOL    HW2 9654   0.827   2.887  12.099
 2968SOL     OW 9655   1.083   2.846  11.259
 2968SOL    HW1 9656   1.060   2.899  11.177
 2968SOL    HW2 9657   1.164   2.790  11.240
 2969SOL     OW 9658   1.861   3.431  12.023
 2969SOL    HW1 9659   1.790   3.419  11.953
 2969SOL    HW2 9660   1.862   3.352  12.083
 2970SOL     OW 9661   0.221   3.176  13.016
 2970SOL    HW1 9662   0.156   3.103  12.995
 2970SOL    HW2 9663   0.225   3.190  13.114
 2971SOL     OW 9664   0.079   3.102  11.825
 2971SOL    HW1 9665   0.078   3.055  11.913
 2971SOL    HW2 9666   0.161   3.074  11.774
 2972SOL     OW 9667   0.672   3.253  12.796
 2972SOL    HW1 9668   0.594   3.203  12.834
 2972SOL    HW2 9669   0.669   3.348  12.827
 2973SOL     OW 9670   0.428   2.286  11.692
 2973SOL    HW1 9671   0.458   2.214  11.630
 2973SOL    HW2 9672   0.389   2.246  11.775
 2974SOL     OW 9673   1.705   3.349  12.276
 2974SOL    HW1 9674   1.612   3.324  12.249
 2974SOL    HW2 9675   1.731   3.299  12.358
 2975SOL     OW 9676   0.317   2.409  12.452
 2975SOL    HW1 9677   0.355   2.350  12.524
 2975SOL    HW2 9678   0.357   2.383  12.364
 2976SOL     OW 9679   0.812   3.448  11.859
 2976SOL    HW1 9680   0.844   3.458  11.765
 2976SOL    HW2 9681   0.733   3.386  11.861
 2977SOL     OW 9682   1.424   2.076  12.284
 2977SOL    HW1 9683   1.476   2.011  12.339
 2977SOL    HW2 9684   1.375   2.139  12.345
 2978SOL     OW 9685   1.001   1.896  12.326
 2978SOL    HW1 9686   0.938   1.824  12.295
 2978SOL    HW2 9687   1.094   1.860  12.326
 2979SOL     OW 9688   0.770   3.192  11.473
 2979SOL    HW1 9689   0.724   3.105  11.490
 2979SOL    HW2 9690   0.861   3.189  11.514
 2980SOL     OW 9691   0.618   3.429  12.456
 2980SOL    HW1 9692   0.613   3.511  12.513
 2980SOL    HW2 9693   0.707   3.426  12.411
 2981SOL     OW 9694   1.352   1.914  11.340
 2981SOL    HW1 9695   1.387   1.873  11.256
 2981SOL    HW2 9696   1.262   1.876  11.360
 2982SOL     OW 9697   1.300   2.315  11.863
 2982SOL    HW1 9698   1.241   2.395  11.867
 2982SOL    HW2 9699   1.315   2.280  11.956
 2983SOL     OW 9700   1.593   2.083  12.054
 2983SOL    HW1 9701   1.509   2.082  12.108
 2983SOL    HW2 9702   1.595   2.166  11.998
 2984SOL     OW 9703   0.039   2.939  11.472
 2984SOL    HW1 9704   0.138   2.928  11.463
 2984SOL    HW2 9705  -0.001   2.853  11.504
 2985SOL     OW 9706   0.875   3.508  11.509
 2985SOL    HW1 9707   0.798   3.473  11.455
 2985SOL    HW2 9708   0.843   3.579  11.571
 2986SOL     OW 9709   0.230   2.490  13.147
 2986SOL    HW1 9710   0.137   2.488  13.184
 2986SOL    HW2 9711   0.231   2.451  13.055
 2987SOL     OW 9712   0.225   2.137  14.030
 2987SOL    HW1 9713   0.260   2.120  14.122
 2987SOL    HW2 9714   0.137   2.092  14.018
 2988SOL     OW 9715   0.019   2.230  13.681
 2988SOL    HW1 9716  -0.063   2.273  13.720
 2988SOL    HW2 9717  -0.009   2.157  13.618
 2989SOL     OW 9718   1.555   3.373  13.737
 2989SOL    HW1 9719   1.498   3.357  13.818
 2989SOL    HW2 9720   1.496   3.383  13.657
 2990SOL     OW 9721   1.135   2.565  13.751
 2990SOL    HW1 9722   1.192   2.643  13.726
 2990SOL    HW2 9723   1.075   2.591  13.827
 2991SOL     OW 9724   1.755   2.469  13.265
 2991SOL    HW1 9725   1.743   2.456  13.166
 2991SOL    HW2 9726   1.725   2.388  13.314
 2992SOL     OW 9727   0.685   2.874  13.699
 2992SOL    HW1 9728   0.754   2.858  13.769
 2992SOL    HW2 9729   0.612   2.931  13.737
 2993SOL     OW 9730   1.603   2.309  13.771
 2993SOL    HW1 9731   1.529   2.355  13.721
 2993SOL    HW2 9732   1.654   2.377  13.824
 2994SOL     OW 9733   0.231   3.575  13.517
 2994SOL    HW1 9734   0.265   3.652  13.571
 2994SOL    HW2 9735   0.275   3.575  13.427
 2995SOL     OW 9736   0.230   3.296  13.572
 2995SOL    HW1 9737   0.204   3.392  13.572
 2995SOL    HW2 9738   0.159   3.242  13.617
 2996SOL     OW 9739   0.240   2.953  13.920
 2996SOL    HW1 9740   0.254   2.869  13.972
 2996SOL    HW2 9741   0.185   3.017  13.975
 2997SOL     OW 9742   0.606   2.826  13.157
 2997SOL    HW1 9743   0.613   2.910  13.103
 2997SOL    HW2 9744   0.652   2.839  13.245
 2998SOL     OW 9745   0.122   2.505  13.597
 2998SOL    HW1 9746   0.077   2.417  13.614
 2998SOL    HW2 9747   0.121   2.559  13.681
 2999SOL     OW 9748   1.842   3.629  13.393
 2999SOL    HW1 9749   1.896   3.600  13.473
 2999SOL    HW2 9750   1.872   3.719  13.364
 3000SOL     OW 9751   0.027   3.458  13.151
 3000SOL    HW1 9752   0.008   3.362  13.172
 3000SOL    HW2 9753  -0.006   3.516  13.226
 3001SOL     OW 9754   1.689   2.784  13.646
 3001SOL    HW1 9755   1.784   2.755  13.654
 3001SOL    HW2 9756   1.681   2.849  13.571
 3002SOL     OW 9757   1.641   2.970  13.466
 3002SOL    HW1 9758   1.727   2.972  13.414
 3002SOL    HW2 9759   1.655   3.017  13.554
 3003SOL     OW 9760   0.613   3.227  13.760
 3003SOL    HW1 9761   0.564   3.140  13.769
 3003SOL    HW2 9762   0.590   3.270  13.673
 3004SOL     OW 9763   0.809   1.866  13.536
 3004SOL    HW1 9764   0.849   1.957  13.527
 3004SOL    HW2 9765   0.709   1.874  13.542
 3005SOL     OW 9766   1.525   2.861  13.224
 3005SOL    HW1 9767   1.462   2.785  13.237
 3005SOL    HW2 9768   1.573   2.879  13.310
 3006SOL     OW 9769   1.667   3.576  13.606
 3006SOL    HW1 9770   1.626   3.553  13.518
 3006SOL    HW2 9771   1.649   3.502  13.671
 3007SOL     OW 9772   0.598   2.591  13.304
 3007SOL    HW1 9773   0.622   2.660  13.236
 3007SOL    HW2 9774   0.520   2.624  13.358
 3008SOL     OW 9775   1.281   2.207  13.978
 3008SOL    HW1 9776   1.195   2.157  13.965
 3008SOL    HW2 9777   1.343   2.153  14.034
 3009SOL     OW 9778   1.576   3.524  13.341
 3009SOL    HW1 9779   1.665   3.570  13.344
 3009SOL    HW2 9780   1.555   3.500  13.246
 3010SOL     OW 9781   1.041   2.563  13.463
 3010SOL    HW1 9782   1.067   2.559  13.559
 3010SOL    HW2 9783   0.956   2.512  13.449
 3011SOL     OW 9784   0.076   2.673  13.823
 3011SOL    HW1 9785   0.175   2.661  13.832
 3011SOL    HW2 9786   0.052   2.768  13.844
 3012SOL     OW 9787   0.865   2.210  13.229
 3012SOL    HW1 9788   0.924   2.273  13.180
 3012SOL    HW2 9789   0.884   2.116  13.200
 3013SOL     OW 9790   1.362   3.006  13.579
 3013SOL    HW1 9791   1.445   2.977  13.531
 3013SOL    HW2 9792   1.313   3.073  13.523
 3014SOL     OW 9793   1.008   3.318  13.511
 3014SOL    HW1 9794   0.962   3.390  13.459
 3014SOL    HW2 9795   1.004   3.338  13.609
 3015SOL     OW 9796   0.351   3.663  13.887
 3015SOL    HW1 9797   0.401   3.577  13.893
 3015SOL    HW2 9798   0.416   3.740  13.884
 3016SOL     OW 9799   1.795   2.928  13.907
 3016SOL    HW1 9800   1.733   2.913  13.831
 3016SOL    HW2 9801   1.743   2.939  13.992
 3017SOL     OW 9802   0.321   2.805  13.276
 3017SOL    HW1 9803   0.403   2.844  13.234
 3017SOL    HW2 9804   0.294   2.723  13.227
 3018SOL     OW 9805   1.458   2.597  13.762
 3018SOL    HW1 9806   1.453   2.532  13.837
 3018SOL    HW2 9807   1.538   2.656  13.775
 3019SOL     OW 9808   1.111   3.638  13.271
 3019SOL    HW1 9809   1.051   3.576  13.321
 3019SOL    HW2 9810   1.142   3.594  13.186
 3020SOL     OW 9811   1.632   3.239  13.115
 3020SOL    HW1 9812   1.600   3.333  13.105
 3020SOL    HW2 9813   1.556   3.176  13.103
 3021SOL     OW 9814   0.464   3.605  13.357
 3021SOL    HW1 9815   0.497   3.644  13.443
 3021SOL    HW2 9816   0.540   3.598  13.292
 3022SOL     OW 9817   1.400   1.969  13.460
 3022SOL    HW1 9818   1.376   1.932  13.370
 3022SOL    HW2 9819   1.499   1.985  13.464
 3023SOL     OW 9820   0.940   3.560  13.938
 3023SOL    HW1 9821   1.020   3.503  13.959
 3023SOL    HW2 9822   0.891   3.520  13.861
 3024SOL     OW 9823   0.382   2.562  13.514
 3024SOL    HW1 9824   0.427   2.472  13.511
 3024SOL    HW2 9825   0.288   2.551  13.547
 3025SOL     OW 9826   0.614   1.984  13.151
 3025SOL    HW1 9827   0.712   1.962  13.158
 3025SOL    HW2 9828   0.583   1.967  13.058
 3026SOL     OW 9829   0.539   1.926  13.546
 3026SOL    HW1 9830   0.458   1.927  13.604
 3026SOL    HW2 9831   0.542   2.009  13.491
 3027SOL     OW 9832   1.434   3.050  13.075
 3027SOL    HW1 9833   1.466   2.974  13.132
 3027SOL    HW2 9834   1.342   3.077  13.105
 3028SOL     OW 9835   0.297   1.897  13.205
 3028SOL    HW1 9836   0.346   1.981  13.184
 3028SOL    HW2 9837   0.359   1.832  13.250
 3029SOL     OW 9838   0.935   2.098  13.514
 3029SOL    HW1 9839   0.887   2.139  13.436
 3029SOL    HW2 9840   1.034   2.096  13.495
 3030SOL     OW 9841   0.459   3.014  13.775
 3030SOL    HW1 9842   0.388   2.987  13.840
 3030SOL    HW2 9843   0.433   2.986  13.682
 3031SOL     OW 9844   1.271   3.659  13.625
 3031SOL    HW1 9845   1.315   3.723  13.561
 3031SOL    HW2 9846   1.221   3.711  13.695
 3032SOL     OW 9847   1.032   2.411  13.050
 3032SOL    HW1 9848   0.991   2.493  13.011
 3032SOL    HW2 9849   1.096   2.437  13.123
 3033SOL     OW 9850   0.866   2.316  13.676
 3033SOL    HW1 9851   0.834   2.388  13.614
 3033SOL    HW2 9852   0.890   2.235  13.623
 3034SOL     OW 9853   1.017   1.901  13.787
 3034SOL    HW1 9854   0.945   1.906  13.718
 3034SOL    HW2 9855   0.993   1.832  13.856
 3035SOL     OW 9856   1.857   2.695  13.411
 3035SOL    HW1 9857   1.899   2.631  13.475
 3035SOL    HW2 9858   1.819   2.644  13.333
 3036SOL     OW 9859   0.488   3.247  13.208
 3036SOL    HW1 9860   0.401   3.232  13.255
 3036SOL    HW2 9861   0.471   3.273  13.113
 3037SOL     OW 9862   1.664   3.142  13.691
 3037SOL    HW1 9863   1.763   3.150  13.705
 3037SOL    HW2 9864   1.619   3.226  13.722
 3038SOL     OW 9865   1.390   2.437  13.112
 3038SOL    HW1 9866   1.336   2.416  13.193
 3038SOL    HW2 9867   1.481   2.396  13.121
 3039SOL     OW 9868   0.527   2.118  13.362
 3039SOL    HW1 9869   0.554   2.059  13.287
 3039SOL    HW2 9870   0.527   2.213  13.331
 3040SOL     OW 9871   0.705   2.912  13.402
 3040SOL    HW1 9872   0.691   2.919  13.501
 3040SOL    HW2 9873   0.789   2.861  13.384
 3041SOL     OW 9874   0.367   2.962  13.535
 3041SOL    HW1 9875   0.360   3.045  13.479
 3041SOL    HW2 9876   0.371   2.882  13.475
 3042SOL     OW 9877   0.566   2.399  13.899
 3042SOL    HW1 9878   0.578   2.465  13.825
 3042SOL    HW2 9879   0.612   2.433  13.982
 3043SOL     OW 9880   1.252   3.210  13.422
 3043SOL    HW1 9881   1.302   3.287  13.462
 3043SOL    HW2 9882   1.157   3.212  13.454
 3044SOL     OW 9883   1.582   2.501  13.506
 3044SOL    HW1 9884   1.551   2.562  13.579
 3044SOL    HW2 9885   1.632   2.553  13.437
 3045SOL     OW 9886   1.209   2.387  13.309
 3045SOL    HW1 9887   1.222   2.303  13.363
 3045SOL    HW2 9888   1.180   2.461  13.369
 3046SOL     OW 9889   0.307   1.925  13.652
 3046SOL    HW1 9890   0.296   2.019  13.685
 3046SOL    HW2 9891   0.302   1.862  13.729
 3047SOL     OW 9892   1.622   2.229  13.408
 3047SOL    HW1 9893   1.624   2.153  13.472
 3047SOL    HW2 9894   1.574   2.306  13.448
 3048SOL     OW 9895   1.540   2.136  13.159
 3048SOL    HW1 9896   1.479   2.061  13.182
 3048SOL    HW2 9897   1.562   2.188  13.242
 3049SOL     OW 9898   1.303   2.700  13.076
 3049SOL    HW1 9899   1.337   2.607  13.091
 3049SOL    HW2 9900   1.321   2.727  12.981
 3050SOL     OW 9901   0.008   3.188  13.234
 3050SOL    HW1 9902  -0.085   3.209  13.203
 3050SOL    HW2 9903   0.018   3.089  13.247
 3051SOL     OW 9904   0.815   2.434  13.359
 3051SOL    HW1 9905   0.822   2.345  13.313
 3051SOL    HW2 9906   0.721   2.468  13.351
 3052SOL     OW 9907   0.473   2.362  13.225
 3052SOL    HW1 9908   0.534   2.442  13.229
 3052SOL    HW2 9909   0.378   2.393  13.232
 3053SOL     OW 9910   1.302   2.717  13.343
 3053SOL    HW1 9911   1.216   2.686  13.385
 3053SOL    HW2 9912   1.298   2.703  13.244
 3054SOL     OW 9913   1.388   3.435  13.511
 3054SOL    HW1 9914   1.455   3.447  13.437
 3054SOL    HW2 9915   1.348   3.524  13.534
 3055SOL     OW 9916   1.280   2.789  13.706
 3055SOL    HW1 9917   1.340   2.708  13.708
 3055SOL    HW2 9918   1.320   2.858  13.646
 3056SOL     OW 9919   0.672   3.478  13.188
 3056SOL    HW1 9920   0.681   3.488  13.089
 3056SOL    HW2 9921   0.632   3.389  13.209
 3057SOL     OW 9922   0.263   2.188  13.754
 3057SOL    HW1 9923   0.184   2.239  13.720
 3057SOL    HW2 9924   0.254   2.173  13.852
 3058SOL     OW 9925   1.194   3.474  13.065
 3058SOL    HW1 9926   1.200   3.381  13.102
 3058SOL    HW2 9927   1.135   3.474  12.985
 3059SOL     OW 9928   0.916   2.772  13.325
 3059SOL    HW1 9929   0.979   2.810  13.257
 3059SOL    HW2 9930   0.956   2.689  13.364
 3060SOL     OW 9931   1.504   3.469  13.078
 3060SOL    HW1 9932   1.412   3.506  13.085
 3060SOL    HW2 9933   1.542   3.489  12.988
 3061SOL     OW 9934   1.039   2.960  13.730
 3061SOL    HW1 9935   0.969   2.913  13.784
 3061SOL    HW2 9936   1.098   2.892  13.687
 3062SOL     OW 9937   0.590   3.349  13.525
 3062SOL    HW1 9938   0.632   3.291  13.455
 3062SOL    HW2 9939   0.546   3.428  13.481
 3063SOL     OW 9940   0.255   3.210  13.324
 3063SOL    HW1 9941   0.159   3.211  13.297
 3063SOL    HW2 9942   0.267   3.263  13.408
 3064SOL     OW 9943   0.075   2.207  13.067
 3064SOL    HW1 9944  -0.017   2.179  13.038
 3064SOL    HW2 9945   0.106   2.284  13.011
 3065SOL     OW 9946   0.072   2.028  13.352
 3065SOL    HW1 9947   0.055   2.111  13.298
 3065SOL    HW2 9948   0.162   1.991  13.330
 3066SOL     OW 9949   1.183   3.197  13.153
 3066SOL    HW1 9950   1.084   3.186  13.155
 3066SOL    HW2 9951   1.217   3.212  13.246
 3067SOL     OW 9952   1.225   2.187  13.483
 3067SOL    HW1 9953   1.290   2.113  13.472
 3067SOL    HW2 9954   1.245   2.237  13.567
 3068SOL     OW 9955   0.594   2.607  13.686
 3068SOL    HW1 9956   0.644   2.692  13.667
 3068SOL    HW2 9957   0.506   2.609  13.638
 3069SOL     OW 9958   0.859   3.236  13.050
 3069SOL    HW1 9959   0.813   3.251  13.138
 3069SOL    HW2 9960   0.903   3.321  13.020
 3070SOL     OW 9961   0.661   3.652  13.987
 3070SOL    HW1 9962   0.615   3.740  13.974
 3070SOL    HW2 9963   0.760   3.664  13.980
 3071SOL     OW 9964   0.859   2.818  13.895
 3071SOL    HW1 9965   0.913   2.749  13.943
 3071SOL    HW2 9966   0.827   2.887  13.961
 3072SOL     OW 9967   1.083   2.846  13.121
 3072SOL    HW1 9968   1.060   2.899  13.039
 3072SOL    HW2 9969   1.164   2.790  13.102
 3073SOL     OW 9970   0.079   3.102  13.687
 3073SOL    HW1 9971   0.078   3.055  13.775
 3073SOL    HW2 9972   0.161   3.074  13.636
 3074SOL     OW 9973   0.428   2.286  13.554
 3074SOL    HW1 9974   0.458   2.214  13.492
 3074SOL    HW2 9975   0.389   2.246  13.637
 3075SOL     OW 9976   1.705   3.349  14.138
 3075SOL    HW1 9977   1.612   3.324  14.111
 3075SOL    HW2 9978   1.731   3.299  14.220
 3076SOL     OW 9979   0.812   3.448  13.721
 3076SOL    HW1 9980   0.844   3.458  13.627
 3076SOL    HW2 9981   0.733   3.386  13.723
 3077SOL     OW 9982   0.770   3.192  13.335
 3077SOL    HW1 9983   0.724   3.105  13.352
 3077SOL    HW2 9984   0.861   3.189  13.376
 3078SOL     OW 9985   1.352   1.914  13.202
 3078SOL    HW1 9986   1.387   1.873  13.118
 3078SOL    HW2 9987   1.262   1.876  13.222
 3079SOL     OW 9988   1.300   2.315  13.725
 3079SOL    HW1 9989   1.241   2.395  13.729
 3079SOL    HW2 9990   1.315   2.280  13.818
 3080SOL     OW 9991   0.039   2.939  13.334
 3080SOL    HW1 9992   0.138   2.928  13.325
 3080SOL    HW2 9993  -0.001   2.853  13.366
 3081SOL     OW 9994   0.875   3.508  13.371
 3081SOL    HW1 9995   0.798   3.473  13.317
 3081SOL    HW2 9996   0.843   3.579  13.433
 3082SOL     OW 9997   0.225   3.999   0.996
 3082SOL    HW1 9998   0.260   3.982   1.088
 3082SOL    HW2 9999   0.137   3.954   0.984
 3083SOL     OW10000   0.019   4.092   0.647
 3083SOL    HW110001  -0.063   4.135   0.686
 3083SOL    HW210002  -0.009   4.019   0.584
 3084SOL     OW10003   1.755   4.331   0.231
 3084SOL    HW110004   1.743   4.318   0.132
 3084SOL    HW210005   1.725   4.250   0.280
 3085SOL     OW10006   0.438   4.116   1.499
 3085SOL    HW110007   0.520   4.060   1.508
 3085SOL    HW210008   0.357   4.058   1.503
 3086SOL     OW10009   1.594   3.838   1.480
 3086SOL    HW110010   1.576   3.905   1.408
 3086SOL    HW210011   1.591   3.884   1.569
 3087SOL     OW10012   0.809   3.728   0.502
 3087SOL    HW110013   0.849   3.819   0.493
 3087SOL    HW210014   0.709   3.736   0.508
 3088SOL     OW10015   1.281   4.069   0.944
 3088SOL    HW110016   1.195   4.019   0.931
 3088SOL    HW210017   1.343   4.015   1.000
 3089SOL     OW10018   0.550   3.920   0.885
 3089SOL    HW110019   0.545   3.915   0.985
 3089SOL    HW210020   0.552   4.016   0.856
 3090SOL     OW10021   0.202   4.009   1.498
 3090SOL    HW110022   0.122   4.069   1.485
 3090SOL    HW210023   0.192   3.960   1.584
 3091SOL     OW10024   1.400   3.831   0.426
 3091SOL    HW110025   1.376   3.794   0.336
 3091SOL    HW210026   1.499   3.847   0.430
 3092SOL     OW10027   1.547   3.946   1.729
 3092SOL    HW110028   1.542   3.983   1.821
 3092SOL    HW210029   1.475   3.877   1.717
 3093SOL     OW10030   0.781   3.988   1.749
 3093SOL    HW110031   0.848   3.927   1.792
 3093SOL    HW210032   0.708   4.007   1.814
 3094SOL     OW10033   0.539   3.788   0.512
 3094SOL    HW110034   0.458   3.789   0.570
 3094SOL    HW210035   0.542   3.871   0.457
 3095SOL     OW10036   0.297   3.759   0.171
 3095SOL    HW110037   0.346   3.843   0.150
 3095SOL    HW210038   0.359   3.694   0.216
 3096SOL     OW10039   0.561   3.946   1.147
 3096SOL    HW110040   0.599   3.862   1.184
 3096SOL    HW210041   0.473   3.965   1.191
 3097SOL     OW10042   1.017   3.763   0.753
 3097SOL    HW110043   0.945   3.768   0.684
 3097SOL    HW210044   0.993   3.694   0.822
 3098SOL     OW10045   0.915   3.813   1.402
 3098SOL    HW110046   0.940   3.793   1.307
 3098SOL    HW210047   0.987   3.869   1.444
 3099SOL     OW10048   1.274   4.110   1.262
 3099SOL    HW110049   1.295   4.184   1.326
 3099SOL    HW210050   1.185   4.127   1.219
 3100SOL     OW10051   0.504   3.774   1.740
 3100SOL    HW110052   0.462   3.717   1.670
 3100SOL    HW210053   0.438   3.843   1.772
 3101SOL     OW10054   0.307   3.937   1.231
 3101SOL    HW110055   0.284   3.974   1.321
 3101SOL    HW210056   0.277   3.842   1.225
 3102SOL     OW10057   1.540   3.998   0.125
 3102SOL    HW110058   1.479   3.923   0.148
 3102SOL    HW210059   1.562   4.050   0.208
 3103SOL     OW10060   1.160   3.931   1.477
 3103SOL    HW110061   1.160   3.995   1.554
 3103SOL    HW210062   1.188   3.979   1.394
 3104SOL     OW10063   0.903   3.810   0.133
 3104SOL    HW110064   0.954   3.811   0.047
 3104SOL    HW210065   0.959   3.768   0.204
 3105SOL     OW10066   1.726   3.859   0.523
 3105SOL    HW110067   1.799   3.842   0.456
 3105SOL    HW210068   1.695   3.772   0.561
 3106SOL     OW10069   1.841   3.899   0.963
 3106SOL    HW110070   1.880   3.814   0.927
 3106SOL    HW210071   1.743   3.901   0.944
 3107SOL     OW10072   0.672   3.927   1.489
 3107SOL    HW110073   0.762   3.911   1.449
 3107SOL    HW210074   0.680   3.932   1.588
 3108SOL     OW10075   0.075   4.069   0.033
 3108SOL    HW110076  -0.017   4.041   0.004
 3108SOL    HW210077   0.106   4.146  -0.023
 3109SOL     OW10078   0.072   3.890   0.318
 3109SOL    HW110079   0.055   3.973   0.264
 3109SOL    HW210080   0.162   3.853   0.296
 3110SOL     OW10081   1.225   4.049   0.449
 3110SOL    HW110082   1.290   3.975   0.438
 3110SOL    HW210083   1.245   4.099   0.533
 3111SOL     OW10084   1.777   4.066   1.642
 3111SOL    HW110085   1.760   4.097   1.548
 3111SOL    HW210086   1.693   4.029   1.680
 3112SOL     OW10087   1.824   3.916   1.227
 3112SOL    HW110088   1.820   3.826   1.271
 3112SOL    HW210089   1.827   3.905   1.128
 3113SOL     OW10090   1.424   3.938   1.112
 3113SOL    HW110091   1.476   3.873   1.167
 3113SOL    HW210092   1.375   4.001   1.173
 3114SOL     OW10093   1.001   3.758   1.154
 3114SOL    HW110094   0.938   3.686   1.123
 3114SOL    HW210095   1.094   3.722   1.154
 3115SOL     OW10096   1.352   3.776   0.168
 3115SOL    HW110097   1.387   3.735   0.084
 3115SOL    HW210098   1.262   3.738   0.188
 3116SOL     OW10099   1.300   4.177   0.691
 3116SOL    HW110100   1.241   4.257   0.695
 3116SOL    HW210101   1.315   4.142   0.784
 3117SOL     OW10102   1.593   3.945   0.882
 3117SOL    HW110103   1.509   3.944   0.936
 3117SOL    HW210104   1.595   4.028   0.826
 3118SOL     OW10105   0.225   3.999   2.858
 3118SOL    HW110106   0.260   3.982   2.950
 3118SOL    HW210107   0.137   3.954   2.846
 3119SOL     OW10108   0.019   4.092   2.509
 3119SOL    HW110109  -0.063   4.135   2.548
 3119SOL    HW210110  -0.009   4.019   2.446
 3120SOL     OW10111   1.755   4.331   2.093
 3120SOL    HW110112   1.743   4.318   1.994
 3120SOL    HW210113   1.725   4.250   2.142
 3121SOL     OW10114   0.438   4.116   3.361
 3121SOL    HW110115   0.520   4.060   3.370
 3121SOL    HW210116   0.357   4.058   3.365
 3122SOL     OW10117   1.594   3.838   3.342
 3122SOL    HW110118   1.576   3.905   3.270
 3122SOL    HW210119   1.591   3.884   3.431
 3123SOL     OW10120   0.809   3.728   2.364
 3123SOL    HW110121   0.849   3.819   2.355
 3123SOL    HW210122   0.709   3.736   2.370
 3124SOL     OW10123   1.281   4.069   2.806
 3124SOL    HW110124   1.195   4.019   2.793
 3124SOL    HW210125   1.343   4.015   2.862
 3125SOL     OW10126   0.550   3.920   2.747
 3125SOL    HW110127   0.545   3.915   2.847
 3125SOL    HW210128   0.552   4.016   2.718
 3126SOL     OW10129   0.202   4.009   3.360
 3126SOL    HW110130   0.122   4.069   3.347
 3126SOL    HW210131   0.192   3.960   3.446
 3127SOL     OW10132   1.400   3.831   2.288
 3127SOL    HW110133   1.376   3.794   2.198
 3127SOL    HW210134   1.499   3.847   2.292
 3128SOL     OW10135   1.547   3.946   3.591
 3128SOL    HW110136   1.542   3.983   3.683
 3128SOL    HW210137   1.475   3.877   3.579
 3129SOL     OW10138   0.614   3.846   1.979
 3129SOL    HW110139   0.712   3.824   1.986
 3129SOL    HW210140   0.583   3.829   1.886
 3130SOL     OW10141   0.781   3.988   3.611
 3130SOL    HW110142   0.848   3.927   3.654
 3130SOL    HW210143   0.708   4.007   3.676
 3131SOL     OW10144   0.539   3.788   2.374
 3131SOL    HW110145   0.458   3.789   2.432
 3131SOL    HW210146   0.542   3.871   2.319
 3132SOL     OW10147   0.297   3.759   2.033
 3132SOL    HW110148   0.346   3.843   2.012
 3132SOL    HW210149   0.359   3.694   2.078
 3133SOL     OW10150   0.561   3.946   3.009
 3133SOL    HW110151   0.599   3.862   3.046
 3133SOL    HW210152   0.473   3.965   3.053
 3134SOL     OW10153   1.017   3.763   2.615
 3134SOL    HW110154   0.945   3.768   2.546
 3134SOL    HW210155   0.993   3.694   2.684
 3135SOL     OW10156   0.915   3.813   3.264
 3135SOL    HW110157   0.940   3.793   3.169
 3135SOL    HW210158   0.987   3.869   3.306
 3136SOL     OW10159   1.274   4.110   3.124
 3136SOL    HW110160   1.295   4.184   3.188
 3136SOL    HW210161   1.185   4.127   3.081
 3137SOL     OW10162   0.504   3.774   3.602
 3137SOL    HW110163   0.462   3.717   3.532
 3137SOL    HW210164   0.438   3.843   3.634
 3138SOL     OW10165   0.307   3.937   3.093
 3138SOL    HW110166   0.284   3.974   3.183
 3138SOL    HW210167   0.277   3.842   3.087
 3139SOL     OW10168   1.540   3.998   1.987
 3139SOL    HW110169   1.479   3.923   2.010
 3139SOL    HW210170   1.562   4.050   2.070
 3140SOL     OW10171   1.160   3.931   3.339
 3140SOL    HW110172   1.160   3.995   3.416
 3140SOL    HW210173   1.188   3.979   3.256
 3141SOL     OW10174   0.903   3.810   1.995
 3141SOL    HW110175   0.954   3.811   1.909
 3141SOL    HW210176   0.959   3.768   2.066
 3142SOL     OW10177   1.726   3.859   2.385
 3142SOL    HW110178   1.799   3.842   2.318
 3142SOL    HW210179   1.695   3.772   2.423
 3143SOL     OW10180   1.841   3.899   2.825
 3143SOL    HW110181   1.880   3.814   2.789
 3143SOL    HW210182   1.743   3.901   2.806
 3144SOL     OW10183   0.672   3.927   3.351
 3144SOL    HW110184   0.762   3.911   3.311
 3144SOL    HW210185   0.680   3.932   3.450
 3145SOL     OW10186   0.075   4.069   1.895
 3145SOL    HW110187  -0.017   4.041   1.866
 3145SOL    HW210188   0.106   4.146   1.839
 3146SOL     OW10189   0.072   3.890   2.180
 3146SOL    HW110190   0.055   3.973   2.126
 3146SOL    HW210191   0.162   3.853   2.158
 3147SOL     OW10192   1.225   4.049   2.311
 3147SOL    HW110193   1.290   3.975   2.300
 3147SOL    HW210194   1.245   4.099   2.395
 3148SOL     OW10195   1.777   4.066   3.504
 3148SOL    HW110196   1.760   4.097   3.410
 3148SOL    HW210197   1.693   4.029   3.542
 3149SOL     OW10198   1.824   3.916   3.089
 3149SOL    HW110199   1.820   3.826   3.133
 3149SOL    HW210200   1.827   3.905   2.990
 3150SOL     OW10201   1.424   3.938   2.974
 3150SOL    HW110202   1.476   3.873   3.029
 3150SOL    HW210203   1.375   4.001   3.035
 3151SOL     OW10204   1.001   3.758   3.016
 3151SOL    HW110205   0.938   3.686   2.985
 3151SOL    HW210206   1.094   3.722   3.016
 3152SOL     OW10207   1.352   3.776   2.030
 3152SOL    HW110208   1.387   3.735   1.946
 3152SOL    HW210209   1.262   3.738   2.050
 3153SOL     OW10210   1.300   4.177   2.553
 3153SOL    HW110211   1.241   4.257   2.557
 3153SOL    HW210212   1.315   4.142   2.646
 3154SOL     OW10213   1.593   3.945   2.744
 3154SOL    HW110214   1.509   3.944   2.798
 3154SOL    HW210215   1.595   4.028   2.688
 3155SOL     OW10216   0.225   3.999   4.720
 3155SOL    HW110217   0.260   3.982   4.812
 3155SOL    HW210218   0.137   3.954   4.708
 3156SOL     OW10219   0.019   4.092   4.371
 3156SOL    HW110220  -0.063   4.135   4.410
 3156SOL    HW210221  -0.009   4.019   4.308
 3157SOL     OW10222   1.755   4.331   3.955
 3157SOL    HW110223   1.743   4.318   3.856
 3157SOL    HW210224   1.725   4.250   4.004
 3158SOL     OW10225   0.438   4.116   5.223
 3158SOL    HW110226   0.520   4.060   5.232
 3158SOL    HW210227   0.357   4.058   5.227
 3159SOL     OW10228   1.594   3.838   5.204
 3159SOL    HW110229   1.576   3.905   5.132
 3159SOL    HW210230   1.591   3.884   5.293
 3160SOL     OW10231   0.809   3.728   4.226
 3160SOL    HW110232   0.849   3.819   4.217
 3160SOL    HW210233   0.709   3.736   4.232
 3161SOL     OW10234   1.281   4.069   4.668
 3161SOL    HW110235   1.195   4.019   4.655
 3161SOL    HW210236   1.343   4.015   4.724
 3162SOL     OW10237   0.550   3.920   4.609
 3162SOL    HW110238   0.545   3.915   4.709
 3162SOL    HW210239   0.552   4.016   4.580
 3163SOL     OW10240   0.202   4.009   5.222
 3163SOL    HW110241   0.122   4.069   5.209
 3163SOL    HW210242   0.192   3.960   5.308
 3164SOL     OW10243   1.400   3.831   4.150
 3164SOL    HW110244   1.376   3.794   4.060
 3164SOL    HW210245   1.499   3.847   4.154
 3165SOL     OW10246   1.547   3.946   5.453
 3165SOL    HW110247   1.542   3.983   5.545
 3165SOL    HW210248   1.475   3.877   5.441
 3166SOL     OW10249   0.614   3.846   3.841
 3166SOL    HW110250   0.712   3.824   3.848
 3166SOL    HW210251   0.583   3.829   3.748
 3167SOL     OW10252   0.781   3.988   5.473
 3167SOL    HW110253   0.848   3.927   5.516
 3167SOL    HW210254   0.708   4.007   5.538
 3168SOL     OW10255   0.539   3.788   4.236
 3168SOL    HW110256   0.458   3.789   4.294
 3168SOL    HW210257   0.542   3.871   4.181
 3169SOL     OW10258   0.297   3.759   3.895
 3169SOL    HW110259   0.346   3.843   3.874
 3169SOL    HW210260   0.359   3.694   3.940
 3170SOL     OW10261   0.561   3.946   4.871
 3170SOL    HW110262   0.599   3.862   4.908
 3170SOL    HW210263   0.473   3.965   4.915
 3171SOL     OW10264   1.017   3.763   4.477
 3171SOL    HW110265   0.945   3.768   4.408
 3171SOL    HW210266   0.993   3.694   4.546
 3172SOL     OW10267   0.915   3.813   5.126
 3172SOL    HW110268   0.940   3.793   5.031
 3172SOL    HW210269   0.987   3.869   5.168
 3173SOL     OW10270   1.274   4.110   4.986
 3173SOL    HW110271   1.295   4.184   5.050
 3173SOL    HW210272   1.185   4.127   4.943
 3174SOL     OW10273   0.504   3.774   5.464
 3174SOL    HW110274   0.462   3.717   5.394
 3174SOL    HW210275   0.438   3.843   5.496
 3175SOL     OW10276   0.307   3.937   4.955
 3175SOL    HW110277   0.284   3.974   5.045
 3175SOL    HW210278   0.277   3.842   4.949
 3176SOL     OW10279   1.540   3.998   3.849
 3176SOL    HW110280   1.479   3.923   3.872
 3176SOL    HW210281   1.562   4.050   3.932
 3177SOL     OW10282   1.160   3.931   5.201
 3177SOL    HW110283   1.160   3.995   5.278
 3177SOL    HW210284   1.188   3.979   5.118
 3178SOL     OW10285   0.903   3.810   3.857
 3178SOL    HW110286   0.954   3.811   3.771
 3178SOL    HW210287   0.959   3.768   3.928
 3179SOL     OW10288   1.726   3.859   4.247
 3179SOL    HW110289   1.799   3.842   4.180
 3179SOL    HW210290   1.695   3.772   4.285
 3180SOL     OW10291   1.841   3.899   4.687
 3180SOL    HW110292   1.880   3.814   4.651
 3180SOL    HW210293   1.743   3.901   4.668
 3181SOL     OW10294   0.672   3.927   5.213
 3181SOL    HW110295   0.762   3.911   5.173
 3181SOL    HW210296   0.680   3.932   5.312
 3182SOL     OW10297   0.075   4.069   3.757
 3182SOL    HW110298  -0.017   4.041   3.728
 3182SOL    HW210299   0.106   4.146   3.701
 3183SOL     OW10300   0.072   3.890   4.042
 3183SOL    HW110301   0.055   3.973   3.988
 3183SOL    HW210302   0.162   3.853   4.020
 3184SOL     OW10303   1.225   4.049   4.173
 3184SOL    HW110304   1.290   3.975   4.162
 3184SOL    HW210305   1.245   4.099   4.257
 3185SOL     OW10306   1.777   4.066   5.366
 3185SOL    HW110307   1.760   4.097   5.272
 3185SOL    HW210308   1.693   4.029   5.404
 3186SOL     OW10309   1.824   3.916   4.951
 3186SOL    HW110310   1.820   3.826   4.995
 3186SOL    HW210311   1.827   3.905   4.852
 3187SOL     OW10312   1.424   3.938   4.836
 3187SOL    HW110313   1.476   3.873   4.891
 3187SOL    HW210314   1.375   4.001   4.897
 3188SOL     OW10315   1.001   3.758   4.878
 3188SOL    HW110316   0.938   3.686   4.847
 3188SOL    HW210317   1.094   3.722   4.878
 3189SOL     OW10318   1.352   3.776   3.892
 3189SOL    HW110319   1.387   3.735   3.808
 3189SOL    HW210320   1.262   3.738   3.912
 3190SOL     OW10321   1.300   4.177   4.415
 3190SOL    HW110322   1.241   4.257   4.419
 3190SOL    HW210323   1.315   4.142   4.508
 3191SOL     OW10324   1.593   3.945   4.606
 3191SOL    HW110325   1.509   3.944   4.660
 3191SOL    HW210326   1.595   4.028   4.550
 3192SOL     OW10327   0.225   3.999   6.582
 3192SOL    HW110328   0.260   3.982   6.674
 3192SOL    HW210329   0.137   3.954   6.570
 3193SOL     OW10330   0.019   4.092   6.233
 3193SOL    HW110331  -0.063   4.135   6.272
 3193SOL    HW210332  -0.009   4.019   6.170
 3194SOL     OW10333   1.755   4.331   5.817
 3194SOL    HW110334   1.743   4.318   5.718
 3194SOL    HW210335   1.725   4.250   5.866
 3195SOL     OW10336   0.438   4.116   7.085
 3195SOL    HW110337   0.520   4.060   7.094
 3195SOL    HW210338   0.357   4.058   7.089
 3196SOL     OW10339   1.594   3.838   7.066
 3196SOL    HW110340   1.576   3.905   6.994
 3196SOL    HW210341   1.591   3.884   7.155
 3197SOL     OW10342   0.809   3.728   6.088
 3197SOL    HW110343   0.849   3.819   6.079
 3197SOL    HW210344   0.709   3.736   6.094
 3198SOL     OW10345   1.281   4.069   6.530
 3198SOL    HW110346   1.195   4.019   6.517
 3198SOL    HW210347   1.343   4.015   6.586
 3199SOL     OW10348   0.550   3.920   6.471
 3199SOL    HW110349   0.545   3.915   6.571
 3199SOL    HW210350   0.552   4.016   6.442
 3200SOL     OW10351   0.202   4.009   7.084
 3200SOL    HW110352   0.122   4.069   7.071
 3200SOL    HW210353   0.192   3.960   7.170
 3201SOL     OW10354   1.400   3.831   6.012
 3201SOL    HW110355   1.376   3.794   5.922
 3201SOL    HW210356   1.499   3.847   6.016
 3202SOL     OW10357   1.547   3.946   7.315
 3202SOL    HW110358   1.542   3.983   7.407
 3202SOL    HW210359   1.475   3.877   7.303
 3203SOL     OW10360   0.614   3.846   5.703
 3203SOL    HW110361   0.712   3.824   5.710
 3203SOL    HW210362   0.583   3.829   5.610
 3204SOL     OW10363   0.781   3.988   7.335
 3204SOL    HW110364   0.848   3.927   7.378
 3204SOL    HW210365   0.708   4.007   7.400
 3205SOL     OW10366   0.539   3.788   6.098
 3205SOL    HW110367   0.458   3.789   6.156
 3205SOL    HW210368   0.542   3.871   6.043
 3206SOL     OW10369   0.297   3.759   5.757
 3206SOL    HW110370   0.346   3.843   5.736
 3206SOL    HW210371   0.359   3.694   5.802
 3207SOL     OW10372   0.561   3.946   6.733
 3207SOL    HW110373   0.599   3.862   6.770
 3207SOL    HW210374   0.473   3.965   6.777
 3208SOL     OW10375   1.017   3.763   6.339
 3208SOL    HW110376   0.945   3.768   6.270
 3208SOL    HW210377   0.993   3.694   6.408
 3209SOL     OW10378   0.915   3.813   6.988
 3209SOL    HW110379   0.940   3.793   6.893
 3209SOL    HW210380   0.987   3.869   7.030
 3210SOL     OW10381   1.274   4.110   6.848
 3210SOL    HW110382   1.295   4.184   6.912
 3210SOL    HW210383   1.185   4.127   6.805
 3211SOL     OW10384   0.504   3.774   7.326
 3211SOL    HW110385   0.462   3.717   7.256
 3211SOL    HW210386   0.438   3.843   7.358
 3212SOL     OW10387   0.307   3.937   6.817
 3212SOL    HW110388   0.284   3.974   6.907
 3212SOL    HW210389   0.277   3.842   6.811
 3213SOL     OW10390   1.540   3.998   5.711
 3213SOL    HW110391   1.479   3.923   5.734
 3213SOL    HW210392   1.562   4.050   5.794
 3214SOL     OW10393   1.160   3.931   7.063
 3214SOL    HW110394   1.160   3.995   7.140
 3214SOL    HW210395   1.188   3.979   6.980
 3215SOL     OW10396   0.903   3.810   5.719
 3215SOL    HW110397   0.954   3.811   5.633
 3215SOL    HW210398   0.959   3.768   5.790
 3216SOL     OW10399   1.726   3.859   6.109
 3216SOL    HW110400   1.799   3.842   6.042
 3216SOL    HW210401   1.695   3.772   6.147
 3217SOL     OW10402   1.841   3.899   6.549
 3217SOL    HW110403   1.880   3.814   6.513
 3217SOL    HW210404   1.743   3.901   6.530
 3218SOL     OW10405   0.672   3.927   7.075
 3218SOL    HW110406   0.762   3.911   7.035
 3218SOL    HW210407   0.680   3.932   7.174
 3219SOL     OW10408   0.075   4.069   5.619
 3219SOL    HW110409  -0.017   4.041   5.590
 3219SOL    HW210410   0.106   4.146   5.563
 3220SOL     OW10411   0.072   3.890   5.904
 3220SOL    HW110412   0.055   3.973   5.850
 3220SOL    HW210413   0.162   3.853   5.882
 3221SOL     OW10414   1.225   4.049   6.035
 3221SOL    HW110415   1.290   3.975   6.024
 3221SOL    HW210416   1.245   4.099   6.119
 3222SOL     OW10417   1.777   4.066   7.228
 3222SOL    HW110418   1.760   4.097   7.134
 3222SOL    HW210419   1.693   4.029   7.266
 3223SOL     OW10420   1.824   3.916   6.813
 3223SOL    HW110421   1.820   3.826   6.857
 3223SOL    HW210422   1.827   3.905   6.714
 3224SOL     OW10423   1.424   3.938   6.698
 3224SOL    HW110424   1.476   3.873   6.753
 3224SOL    HW210425   1.375   4.001   6.759
 3225SOL     OW10426   1.001   3.758   6.740
 3225SOL    HW110427   0.938   3.686   6.709
 3225SOL    HW210428   1.094   3.722   6.740
 3226SOL     OW10429   1.352   3.776   5.754
 3226SOL    HW110430   1.387   3.735   5.670
 3226SOL    HW210431   1.262   3.738   5.774
 3227SOL     OW10432   1.300   4.177   6.277
 3227SOL    HW110433   1.241   4.257   6.281
 3227SOL    HW210434   1.315   4.142   6.370
 3228SOL     OW10435   1.593   3.945   6.468
 3228SOL    HW110436   1.509   3.944   6.522
 3228SOL    HW210437   1.595   4.028   6.412
 3229SOL     OW10438   0.225   3.999   8.444
 3229SOL    HW110439   0.260   3.982   8.536
 3229SOL    HW210440   0.137   3.954   8.432
 3230SOL     OW10441   0.019   4.092   8.095
 3230SOL    HW110442  -0.063   4.135   8.134
 3230SOL    HW210443  -0.009   4.019   8.032
 3231SOL     OW10444   1.755   4.331   7.679
 3231SOL    HW110445   1.743   4.318   7.580
 3231SOL    HW210446   1.725   4.250   7.728
 3232SOL     OW10447   0.438   4.116   8.947
 3232SOL    HW110448   0.520   4.060   8.956
 3232SOL    HW210449   0.357   4.058   8.951
 3233SOL     OW10450   1.594   3.838   8.928
 3233SOL    HW110451   1.576   3.905   8.856
 3233SOL    HW210452   1.591   3.884   9.017
 3234SOL     OW10453   0.809   3.728   7.950
 3234SOL    HW110454   0.849   3.819   7.941
 3234SOL    HW210455   0.709   3.736   7.956
 3235SOL     OW10456   1.281   4.069   8.392
 3235SOL    HW110457   1.195   4.019   8.379
 3235SOL    HW210458   1.343   4.015   8.448
 3236SOL     OW10459   0.550   3.920   8.333
 3236SOL    HW110460   0.545   3.915   8.433
 3236SOL    HW210461   0.552   4.016   8.304
 3237SOL     OW10462   0.202   4.009   8.946
 3237SOL    HW110463   0.122   4.069   8.933
 3237SOL    HW210464   0.192   3.960   9.032
 3238SOL     OW10465   1.400   3.831   7.874
 3238SOL    HW110466   1.376   3.794   7.784
 3238SOL    HW210467   1.499   3.847   7.878
 3239SOL     OW10468   1.547   3.946   9.177
 3239SOL    HW110469   1.542   3.983   9.269
 3239SOL    HW210470   1.475   3.877   9.165
 3240SOL     OW10471   0.614   3.846   7.565
 3240SOL    HW110472   0.712   3.824   7.572
 3240SOL    HW210473   0.583   3.829   7.472
 3241SOL     OW10474   0.781   3.988   9.197
 3241SOL    HW110475   0.848   3.927   9.240
 3241SOL    HW210476   0.708   4.007   9.262
 3242SOL     OW10477   0.539   3.788   7.960
 3242SOL    HW110478   0.458   3.789   8.018
 3242SOL    HW210479   0.542   3.871   7.905
 3243SOL     OW10480   0.297   3.759   7.619
 3243SOL    HW110481   0.346   3.843   7.598
 3243SOL    HW210482   0.359   3.694   7.664
 3244SOL     OW10483   0.561   3.946   8.595
 3244SOL    HW110484   0.599   3.862   8.632
 3244SOL    HW210485   0.473   3.965   8.639
 3245SOL     OW10486   1.017   3.763   8.201
 3245SOL    HW110487   0.945   3.768   8.132
 3245SOL    HW210488   0.993   3.694   8.270
 3246SOL     OW10489   0.915   3.813   8.850
 3246SOL    HW110490   0.940   3.793   8.755
 3246SOL    HW210491   0.987   3.869   8.892
 3247SOL     OW10492   1.274   4.110   8.710
 3247SOL    HW110493   1.295   4.184   8.774
 3247SOL    HW210494   1.185   4.127   8.667
 3248SOL     OW10495   0.504   3.774   9.188
 3248SOL    HW110496   0.462   3.717   9.118
 3248SOL    HW210497   0.438   3.843   9.220
 3249SOL     OW10498   0.307   3.937   8.679
 3249SOL    HW110499   0.284   3.974   8.769
 3249SOL    HW210500   0.277   3.842   8.673
 3250SOL     OW10501   1.540   3.998   7.573
 3250SOL    HW110502   1.479   3.923   7.596
 3250SOL    HW210503   1.562   4.050   7.656
 3251SOL     OW10504   1.160   3.931   8.925
 3251SOL    HW110505   1.160   3.995   9.002
 3251SOL    HW210506   1.188   3.979   8.842
 3252SOL     OW10507   0.903   3.810   7.581
 3252SOL    HW110508   0.954   3.811   7.495
 3252SOL    HW210509   0.959   3.768   7.652
 3253SOL     OW10510   1.726   3.859   7.971
 3253SOL    HW110511   1.799   3.842   7.904
 3253SOL    HW210512   1.695   3.772   8.009
 3254SOL     OW10513   1.841   3.899   8.411
 3254SOL    HW110514   1.880   3.814   8.375
 3254SOL    HW210515   1.743   3.901   8.392
 3255SOL     OW10516   0.672   3.927   8.937
 3255SOL    HW110517   0.762   3.911   8.897
 3255SOL    HW210518   0.680   3.932   9.036
 3256SOL     OW10519   0.075   4.069   7.481
 3256SOL    HW110520  -0.017   4.041   7.452
 3256SOL    HW210521   0.106   4.146   7.425
 3257SOL     OW10522   0.072   3.890   7.766
 3257SOL    HW110523   0.055   3.973   7.712
 3257SOL    HW210524   0.162   3.853   7.744
 3258SOL     OW10525   1.225   4.049   7.897
 3258SOL    HW110526   1.290   3.975   7.886
 3258SOL    HW210527   1.245   4.099   7.981
 3259SOL     OW10528   1.777   4.066   9.090
 3259SOL    HW110529   1.760   4.097   8.996
 3259SOL    HW210530   1.693   4.029   9.128
 3260SOL     OW10531   1.824   3.916   8.675
 3260SOL    HW110532   1.820   3.826   8.719
 3260SOL    HW210533   1.827   3.905   8.576
 3261SOL     OW10534   1.424   3.938   8.560
 3261SOL    HW110535   1.476   3.873   8.615
 3261SOL    HW210536   1.375   4.001   8.621
 3262SOL     OW10537   1.001   3.758   8.602
 3262SOL    HW110538   0.938   3.686   8.571
 3262SOL    HW210539   1.094   3.722   8.602
 3263SOL     OW10540   1.352   3.776   7.616
 3263SOL    HW110541   1.387   3.735   7.532
 3263SOL    HW210542   1.262   3.738   7.636
 3264SOL     OW10543   1.300   4.177   8.139
 3264SOL    HW110544   1.241   4.257   8.143
 3264SOL    HW210545   1.315   4.142   8.232
 3265SOL     OW10546   1.593   3.945   8.330
 3265SOL    HW110547   1.509   3.944   8.384
 3265SOL    HW210548   1.595   4.028   8.274
 3266SOL     OW10549   0.225   3.999  10.306
 3266SOL    HW110550   0.260   3.982  10.398
 3266SOL    HW210551   0.137   3.954  10.294
 3267SOL     OW10552   0.019   4.092   9.957
 3267SOL    HW110553  -0.063   4.135   9.996
 3267SOL    HW210554  -0.009   4.019   9.894
 3268SOL     OW10555   1.755   4.331   9.541
 3268SOL    HW110556   1.743   4.318   9.442
 3268SOL    HW210557   1.725   4.250   9.590
 3269SOL     OW10558   0.438   4.116  10.809
 3269SOL    HW110559   0.520   4.060  10.818
 3269SOL    HW210560   0.357   4.058  10.813
 3270SOL     OW10561   1.594   3.838  10.790
 3270SOL    HW110562   1.576   3.905  10.718
 3270SOL    HW210563   1.591   3.884  10.879
 3271SOL     OW10564   0.809   3.728   9.812
 3271SOL    HW110565   0.849   3.819   9.803
 3271SOL    HW210566   0.709   3.736   9.818
 3272SOL     OW10567   1.281   4.069  10.254
 3272SOL    HW110568   1.195   4.019  10.241
 3272SOL    HW210569   1.343   4.015  10.310
 3273SOL     OW10570   0.550   3.920  10.195
 3273SOL    HW110571   0.545   3.915  10.295
 3273SOL    HW210572   0.552   4.016  10.166
 3274SOL     OW10573   0.202   4.009  10.808
 3274SOL    HW110574   0.122   4.069  10.795
 3274SOL    HW210575   0.192   3.960  10.894
 3275SOL     OW10576   1.400   3.831   9.736
 3275SOL    HW110577   1.376   3.794   9.646
 3275SOL    HW210578   1.499   3.847   9.740
 3276SOL     OW10579   1.547   3.946  11.039
 3276SOL    HW110580   1.542   3.983  11.131
 3276SOL    HW210581   1.475   3.877  11.027
 3277SOL     OW10582   0.614   3.846   9.427
 3277SOL    HW110583   0.712   3.824   9.434
 3277SOL    HW210584   0.583   3.829   9.334
 3278SOL     OW10585   0.781   3.988  11.059
 3278SOL    HW110586   0.848   3.927  11.102
 3278SOL    HW210587   0.708   4.007  11.124
 3279SOL     OW10588   0.539   3.788   9.822
 3279SOL    HW110589   0.458   3.789   9.880
 3279SOL    HW210590   0.542   3.871   9.767
 3280SOL     OW10591   0.297   3.759   9.481
 3280SOL    HW110592   0.346   3.843   9.460
 3280SOL    HW210593   0.359   3.694   9.526
 3281SOL     OW10594   0.561   3.946  10.457
 3281SOL    HW110595   0.599   3.862  10.494
 3281SOL    HW210596   0.473   3.965  10.501
 3282SOL     OW10597   1.017   3.763  10.063
 3282SOL    HW110598   0.945   3.768   9.994
 3282SOL    HW210599   0.993   3.694  10.132
 3283SOL     OW10600   0.915   3.813  10.712
 3283SOL    HW110601   0.940   3.793  10.617
 3283SOL    HW210602   0.987   3.869  10.754
 3284SOL     OW10603   1.274   4.110  10.572
 3284SOL    HW110604   1.295   4.184  10.636
 3284SOL    HW210605   1.185   4.127  10.529
 3285SOL     OW10606   0.504   3.774  11.050
 3285SOL    HW110607   0.462   3.717  10.980
 3285SOL    HW210608   0.438   3.843  11.082
 3286SOL     OW10609   0.307   3.937  10.541
 3286SOL    HW110610   0.284   3.974  10.631
 3286SOL    HW210611   0.277   3.842  10.535
 3287SOL     OW10612   1.540   3.998   9.435
 3287SOL    HW110613   1.479   3.923   9.458
 3287SOL    HW210614   1.562   4.050   9.518
 3288SOL     OW10615   1.160   3.931  10.787
 3288SOL    HW110616   1.160   3.995  10.864
 3288SOL    HW210617   1.188   3.979  10.704
 3289SOL     OW10618   0.903   3.810   9.443
 3289SOL    HW110619   0.954   3.811   9.357
 3289SOL    HW210620   0.959   3.768   9.514
 3290SOL     OW10621   1.726   3.859   9.833
 3290SOL    HW110622   1.799   3.842   9.766
 3290SOL    HW210623   1.695   3.772   9.871
 3291SOL     OW10624   1.841   3.899  10.273
 3291SOL    HW110625   1.880   3.814  10.237
 3291SOL    HW210626   1.743   3.901  10.254
 3292SOL     OW10627   0.672   3.927  10.799
 3292SOL    HW110628   0.762   3.911  10.759
 3292SOL    HW210629   0.680   3.932  10.898
 3293SOL     OW10630   0.075   4.069   9.343
 3293SOL    HW110631  -0.017   4.041   9.314
 3293SOL    HW210632   0.106   4.146   9.287
 3294SOL     OW10633   0.072   3.890   9.628
 3294SOL    HW110634   0.055   3.973   9.574
 3294SOL    HW210635   0.162   3.853   9.606
 3295SOL     OW10636   1.225   4.049   9.759
 3295SOL    HW110637   1.290   3.975   9.748
 3295SOL    HW210638   1.245   4.099   9.843
 3296SOL     OW10639   1.777   4.066  10.952
 3296SOL    HW110640   1.760   4.097  10.858
 3296SOL    HW210641   1.693   4.029  10.990
 3297SOL     OW10642   1.824   3.916  10.537
 3297SOL    HW110643   1.820   3.826  10.581
 3297SOL    HW210644   1.827   3.905  10.438
 3298SOL     OW10645   1.424   3.938  10.422
 3298SOL    HW110646   1.476   3.873  10.477
 3298SOL    HW210647   1.375   4.001  10.483
 3299SOL     OW10648   1.001   3.758  10.464
 3299SOL    HW110649   0.938   3.686  10.433
 3299SOL    HW210650   1.094   3.722  10.464
 3300SOL     OW10651   1.352   3.776   9.478
 3300SOL    HW110652   1.387   3.735   9.394
 3300SOL    HW210653   1.262   3.738   9.498
 3301SOL     OW10654   1.300   4.177  10.001
 3301SOL    HW110655   1.241   4.257  10.005
 3301SOL    HW210656   1.315   4.142  10.094
 3302SOL     OW10657   1.593   3.945  10.192
 3302SOL    HW110658   1.509   3.944  10.246
 3302SOL    HW210659   1.595   4.028  10.136
 3303SOL     OW10660   0.225   3.999  12.168
 3303SOL    HW110661   0.260   3.982  12.260
 3303SOL    HW210662   0.137   3.954  12.156
 3304SOL     OW10663   0.019   4.092  11.819
 3304SOL    HW110664  -0.063   4.135  11.858
 3304SOL    HW210665  -0.009   4.019  11.756
 3305SOL     OW10666   1.755   4.331  11.403
 3305SOL    HW110667   1.743   4.318  11.304
 3305SOL    HW210668   1.725   4.250  11.452
 3306SOL     OW10669   0.438   4.116  12.671
 3306SOL    HW110670   0.520   4.060  12.680
 3306SOL    HW210671   0.357   4.058  12.675
 3307SOL     OW10672   1.594   3.838  12.652
 3307SOL    HW110673   1.576   3.905  12.580
 3307SOL    HW210674   1.591   3.884  12.741
 3308SOL     OW10675   0.809   3.728  11.674
 3308SOL    HW110676   0.849   3.819  11.665
 3308SOL    HW210677   0.709   3.736  11.680
 3309SOL     OW10678   1.281   4.069  12.116
 3309SOL    HW110679   1.195   4.019  12.103
 3309SOL    HW210680   1.343   4.015  12.172
 3310SOL     OW10681   0.550   3.920  12.057
 3310SOL    HW110682   0.545   3.915  12.157
 3310SOL    HW210683   0.552   4.016  12.028
 3311SOL     OW10684   0.202   4.009  12.670
 3311SOL    HW110685   0.122   4.069  12.657
 3311SOL    HW210686   0.192   3.960  12.756
 3312SOL     OW10687   1.400   3.831  11.598
 3312SOL    HW110688   1.376   3.794  11.508
 3312SOL    HW210689   1.499   3.847  11.602
 3313SOL     OW10690   1.547   3.946  12.901
 3313SOL    HW110691   1.542   3.983  12.993
 3313SOL    HW210692   1.475   3.877  12.889
 3314SOL     OW10693   0.614   3.846  11.289
 3314SOL    HW110694   0.712   3.824  11.296
 3314SOL    HW210695   0.583   3.829  11.196
 3315SOL     OW10696   0.781   3.988  12.921
 3315SOL    HW110697   0.848   3.927  12.964
 3315SOL    HW210698   0.708   4.007  12.986
 3316SOL     OW10699   0.539   3.788  11.684
 3316SOL    HW110700   0.458   3.789  11.742
 3316SOL    HW210701   0.542   3.871  11.629
 3317SOL     OW10702   0.297   3.759  11.343
 3317SOL    HW110703   0.346   3.843  11.322
 3317SOL    HW210704   0.359   3.694  11.388
 3318SOL     OW10705   0.561   3.946  12.319
 3318SOL    HW110706   0.599   3.862  12.356
 3318SOL    HW210707   0.473   3.965  12.363
 3319SOL     OW10708   1.017   3.763  11.925
 3319SOL    HW110709   0.945   3.768  11.856
 3319SOL    HW210710   0.993   3.694  11.994
 3320SOL     OW10711   0.915   3.813  12.574
 3320SOL    HW110712   0.940   3.793  12.479
 3320SOL    HW210713   0.987   3.869  12.616
 3321SOL     OW10714   1.274   4.110  12.434
 3321SOL    HW110715   1.295   4.184  12.498
 3321SOL    HW210716   1.185   4.127  12.391
 3322SOL     OW10717   0.504   3.774  12.912
 3322SOL    HW110718   0.462   3.717  12.842
 3322SOL    HW210719   0.438   3.843  12.944
 3323SOL     OW10720   0.307   3.937  12.403
 3323SOL    HW110721   0.284   3.974  12.493
 3323SOL    HW210722   0.277   3.842  12.397
 3324SOL     OW10723   1.540   3.998  11.297
 3324SOL    HW110724   1.479   3.923  11.320
 3324SOL    HW210725   1.562   4.050  11.380
 3325SOL     OW10726   1.160   3.931  12.649
 3325SOL    HW110727   1.160   3.995  12.726
 3325SOL    HW210728   1.188   3.979  12.566
 3326SOL     OW10729   0.903   3.810  11.305
 3326SOL    HW110730   0.954   3.811  11.219
 3326SOL    HW210731   0.959   3.768  11.376
 3327SOL     OW10732   1.726   3.859  11.695
 3327SOL    HW110733   1.799   3.842  11.628
 3327SOL    HW210734   1.695   3.772  11.733
 3328SOL     OW10735   1.841   3.899  12.135
 3328SOL    HW110736   1.880   3.814  12.099
 3328SOL    HW210737   1.743   3.901  12.116
 3329SOL     OW10738   0.672   3.927  12.661
 3329SOL    HW110739   0.762   3.911  12.621
 3329SOL    HW210740   0.680   3.932  12.760
 3330SOL     OW10741   0.075   4.069  11.205
 3330SOL    HW110742  -0.017   4.041  11.176
 3330SOL    HW210743   0.106   4.146  11.149
 3331SOL     OW10744   0.072   3.890  11.490
 3331SOL    HW110745   0.055   3.973  11.436
 3331SOL    HW210746   0.162   3.853  11.468
 3332SOL     OW10747   1.225   4.049  11.621
 3332SOL    HW110748   1.290   3.975  11.610
 3332SOL    HW210749   1.245   4.099  11.705
 3333SOL     OW10750   1.777   4.066  12.814
 3333SOL    HW110751   1.760   4.097  12.720
 3333SOL    HW210752   1.693   4.029  12.852
 3334SOL     OW10753   1.824   3.916  12.399
 3334SOL    HW110754   1.820   3.826  12.443
 3334SOL    HW210755   1.827   3.905  12.300
 3335SOL     OW10756   1.424   3.938  12.284
 3335SOL    HW110757   1.476   3.873  12.339
 3335SOL    HW210758   1.375   4.001  12.345
 3336SOL     OW10759   1.001   3.758  12.326
 3336SOL    HW110760   0.938   3.686  12.295
 3336SOL    HW210761   1.094   3.722  12.326
 3337SOL     OW10762   1.352   3.776  11.340
 3337SOL    HW110763   1.387   3.735  11.256
 3337SOL    HW210764   1.262   3.738  11.360
 3338SOL     OW10765   1.300   4.177  11.863
 3338SOL    HW110766   1.241   4.257  11.867
 3338SOL    HW210767   1.315   4.142  11.956
 3339SOL     OW10768   1.593   3.945  12.054
 3339SOL    HW110769   1.509   3.944  12.108
 3339SOL    HW210770   1.595   4.028  11.998
 3340SOL     OW10771   0.019   4.092  13.681
 3340SOL    HW110772  -0.063   4.135  13.720
 3340SOL    HW210773  -0.009   4.019  13.618
 3341SOL     OW10774   1.755   4.331  13.265
 3341SOL    HW110775   1.743   4.318  13.166
 3341SOL    HW210776   1.725   4.250  13.314
 3342SOL     OW10777   1.603   4.171  13.771
 3342SOL    HW110778   1.529   4.217  13.721
 3342SOL    HW210779   1.654   4.239  13.824
 3343SOL     OW10780   0.809   3.728  13.536
 3343SOL    HW110781   0.849   3.819  13.527
 3343SOL    HW210782   0.709   3.736  13.542
 3344SOL     OW10783   1.400   3.831  13.460
 3344SOL    HW110784   1.376   3.794  13.370
 3344SOL    HW210785   1.499   3.847  13.464
 3345SOL     OW10786   0.614   3.846  13.151
 3345SOL    HW110787   0.712   3.824  13.158
 3345SOL    HW210788   0.583   3.829  13.058
 3346SOL     OW10789   0.539   3.788  13.546
 3346SOL    HW110790   0.458   3.789  13.604
 3346SOL    HW210791   0.542   3.871  13.491
 3347SOL     OW10792   0.297   3.759  13.205
 3347SOL    HW110793   0.346   3.843  13.184
 3347SOL    HW210794   0.359   3.694  13.250
 3348SOL     OW10795   1.017   3.763  13.787
 3348SOL    HW110796   0.945   3.768  13.718
 3348SOL    HW210797   0.993   3.694  13.856
 3349SOL     OW10798   1.540   3.998  13.159
 3349SOL    HW110799   1.479   3.923  13.182
 3349SOL    HW210800   1.562   4.050  13.242
 3350SOL     OW10801   0.903   3.810  13.167
 3350SOL    HW110802   0.954   3.811  13.081
 3350SOL    HW210803   0.959   3.768  13.238
 3351SOL     OW10804   1.726   3.859  13.557
 3351SOL    HW110805   1.799   3.842  13.490
 3351SOL    HW210806   1.695   3.772  13.595
 3352SOL     OW10807   1.841   3.899  13.997
 3352SOL    HW110808   1.880   3.814  13.961
 3352SOL    HW210809   1.743   3.901  13.978
 3353SOL     OW10810   0.075   4.069  13.067
 3353SOL    HW110811  -0.017   4.041  13.038
 3353SOL    HW210812   0.106   4.146  13.011
 3354SOL     OW10813   0.072   3.890  13.352
 3354SOL    HW110814   0.055   3.973  13.298
 3354SOL    HW210815   0.162   3.853  13.330
 3355SOL     OW10816   1.225   4.049  13.483
 3355SOL    HW110817   1.290   3.975  13.472
 3355SOL    HW210818   1.245   4.099  13.567
 3356SOL     OW10819   1.352   3.776  13.202
 3356SOL    HW110820   1.387   3.735  13.118
 3356SOL    HW210821   1.262   3.738  13.222
 3357SOL     OW10822   1.300   4.177  13.725
 3357SOL    HW110823   1.241   4.257  13.729
 3357SOL    HW210824   1.315   4.142  13.818
 3358SOL     OW10825   2.092   0.628   0.113
 3358SOL    HW110826   1.999   0.626   0.150
 3358SOL    HW210827   2.093   0.589   0.021
 3359SOL     OW10828   2.087   0.275   0.996
 3359SOL    HW110829   2.122   0.258   1.088
 3359SOL    HW210830   1.999   0.230   0.984
 3360SOL     OW10831   1.881   0.368   0.647
 3360SOL    HW110832   1.799   0.411   0.686
 3360SOL    HW210833   1.853   0.295   0.584
 3361SOL     OW10834   2.431   1.275   1.165
 3361SOL    HW110835   2.338   1.268   1.128
 3361SOL    HW210836   2.442   1.364   1.209
 3362SOL     OW10837   3.417   1.511   0.703
 3362SOL    HW110838   3.360   1.495   0.784
 3362SOL    HW210839   3.358   1.521   0.623
 3363SOL     OW10840   2.997   0.703   0.717
 3363SOL    HW110841   3.054   0.781   0.692
 3363SOL    HW210842   2.937   0.729   0.793
 3364SOL     OW10843   3.617   0.607   0.231
 3364SOL    HW110844   3.605   0.594   0.132
 3364SOL    HW210845   3.587   0.526   0.280
 3365SOL     OW10846   2.630   1.144   1.023
 3365SOL    HW110847   2.552   1.161   1.083
 3365SOL    HW210848   2.664   1.231   0.987
 3366SOL     OW10849   2.712   0.798   1.823
 3366SOL    HW110850   2.708   0.874   1.888
 3366SOL    HW210851   2.734   0.834   1.732
 3367SOL     OW10852   2.547   1.012   0.665
 3367SOL    HW110853   2.616   0.996   0.735
 3367SOL    HW210854   2.474   1.069   0.703
 3368SOL     OW10855   2.548   1.161   1.803
 3368SOL    HW110856   2.608   1.240   1.817
 3368SOL    HW210857   2.462   1.192   1.762
 3369SOL     OW10858   2.197   1.435   1.061
 3369SOL    HW110859   2.119   1.404   1.008
 3369SOL    HW210860   2.255   1.493   1.004
 3370SOL     OW10861   3.322   1.505   1.339
 3370SOL    HW110862   3.346   1.599   1.365
 3370SOL    HW210863   3.306   1.451   1.421
 3371SOL     OW10864   2.300   0.392   1.499
 3371SOL    HW110865   2.382   0.336   1.508
 3371SOL    HW210866   2.219   0.334   1.503
 3372SOL     OW10867   3.465   0.447   0.737
 3372SOL    HW110868   3.391   0.493   0.687
 3372SOL    HW210869   3.516   0.515   0.790
 3373SOL     OW10870   2.093   1.713   0.483
 3373SOL    HW110871   2.127   1.790   0.537
 3373SOL    HW210872   2.137   1.713   0.393
 3374SOL     OW10873   2.989   1.341   1.690
 3374SOL    HW110874   3.036   1.341   1.778
 3374SOL    HW210875   2.941   1.254   1.679
 3375SOL     OW10876   2.092   1.434   0.538
 3375SOL    HW110877   2.066   1.530   0.538
 3375SOL    HW210878   2.021   1.380   0.583
 3376SOL     OW10879   2.102   1.091   0.886
 3376SOL    HW110880   2.116   1.007   0.938
 3376SOL    HW210881   2.047   1.155   0.941
 3377SOL     OW10882   2.482   1.786   1.439
 3377SOL    HW110883   2.390   1.769   1.474
 3377SOL    HW210884   2.510   1.878   1.465
 3378SOL     OW10885   2.468   0.964   0.123
 3378SOL    HW110886   2.475   1.048   0.069
 3378SOL    HW210887   2.514   0.977   0.211
 3379SOL     OW10888   3.456   0.114   1.480
 3379SOL    HW110889   3.438   0.181   1.408
 3379SOL    HW210890   3.453   0.160   1.569
 3380SOL     OW10891   1.984   0.643   0.563
 3380SOL    HW110892   1.939   0.555   0.580
 3380SOL    HW210893   1.983   0.697   0.647
 3381SOL     OW10894   3.704   1.767   0.359
 3381SOL    HW110895   3.758   1.738   0.439
 3381SOL    HW210896   3.734   1.857   0.330
 3382SOL     OW10897   1.889   1.596   0.117
 3382SOL    HW110898   1.870   1.500   0.138
 3382SOL    HW210899   1.856   1.654   0.192
 3383SOL     OW10900   3.551   0.922   0.612
 3383SOL    HW110901   3.646   0.893   0.620
 3383SOL    HW210902   3.543   0.987   0.537
 3384SOL     OW10903   3.503   1.108   0.432
 3384SOL    HW110904   3.589   1.110   0.380
 3384SOL    HW210905   3.517   1.155   0.520
 3385SOL     OW10906   1.975   0.737   1.597
 3385SOL    HW110907   2.063   0.724   1.642
 3385SOL    HW210908   1.962   0.834   1.575
 3386SOL     OW10909   2.475   1.365   0.726
 3386SOL    HW110910   2.426   1.278   0.735
 3386SOL    HW210911   2.452   1.408   0.639
 3387SOL     OW10912   3.155   1.228   1.423
 3387SOL    HW110913   3.192   1.155   1.365
 3387SOL    HW210914   3.207   1.233   1.508
 3388SOL     OW10915   2.671   0.004   0.502
 3388SOL    HW110916   2.711   0.095   0.493
 3388SOL    HW210917   2.571   0.012   0.508
 3389SOL     OW10918   2.059   0.976   1.264
 3389SOL    HW110919   2.148   0.931   1.250
 3389SOL    HW210920   1.986   0.911   1.245
 3390SOL     OW10921   3.387   0.999   0.190
 3390SOL    HW110922   3.324   0.923   0.203
 3390SOL    HW210923   3.435   1.017   0.276
 3391SOL     OW10924   3.049   1.792   1.616
 3391SOL    HW110925   3.073   1.852   1.540
 3391SOL    HW210926   3.056   1.697   1.586
 3392SOL     OW10927   2.179   0.251   1.801
 3392SOL    HW110928   2.250   0.322   1.807
 3392SOL    HW210929   2.091   0.290   1.829
 3393SOL     OW10930   3.328   1.417   0.953
 3393SOL    HW110931   3.269   1.423   1.033
 3393SOL    HW210932   3.313   1.329   0.907
 3394SOL     OW10933   3.529   1.714   0.572
 3394SOL    HW110934   3.488   1.691   0.484
 3394SOL    HW210935   3.511   1.640   0.637
 3395SOL     OW10936   2.460   0.729   0.270
 3395SOL    HW110937   2.484   0.798   0.202
 3395SOL    HW210938   2.382   0.762   0.324
 3396SOL     OW10939   3.143   0.345   0.944
 3396SOL    HW110940   3.057   0.295   0.931
 3396SOL    HW210941   3.205   0.291   1.000
 3397SOL     OW10942   3.438   1.662   0.307
 3397SOL    HW110943   3.527   1.708   0.310
 3397SOL    HW210944   3.417   1.638   0.212
 3398SOL     OW10945   2.669   0.605   1.465
 3398SOL    HW110946   2.622   0.602   1.554
 3398SOL    HW210947   2.618   0.550   1.399
 3399SOL     OW10948   3.256   0.469   1.674
 3399SOL    HW110949   3.236   0.512   1.762
 3399SOL    HW210950   3.334   0.407   1.683
 3400SOL     OW10951   2.835   0.890   1.572
 3400SOL    HW110952   2.881   0.806   1.543
 3400SOL    HW210953   2.779   0.924   1.497
 3401SOL     OW10954   2.853   0.410   1.242
 3401SOL    HW110955   2.776   0.444   1.296
 3401SOL    HW210956   2.819   0.359   1.163
 3402SOL     OW10957   2.903   0.701   0.429
 3402SOL    HW110958   2.929   0.697   0.525
 3402SOL    HW210959   2.818   0.650   0.415
 3403SOL     OW10960   1.938   0.811   0.789
 3403SOL    HW110961   2.037   0.799   0.798
 3403SOL    HW210962   1.914   0.906   0.810
 3404SOL     OW10963   2.727   0.348   0.195
 3404SOL    HW110964   2.786   0.411   0.146
 3404SOL    HW210965   2.746   0.254   0.166
 3405SOL     OW10966   3.581   0.585   1.831
 3405SOL    HW110967   3.555   0.674   1.795
 3405SOL    HW210968   3.579   0.517   1.758
 3406SOL     OW10969   3.224   1.144   0.545
 3406SOL    HW110970   3.307   1.115   0.497
 3406SOL    HW210971   3.175   1.211   0.489
 3407SOL     OW10972   2.412   0.196   0.885
 3407SOL    HW110973   2.407   0.191   0.985
 3407SOL    HW210974   2.414   0.292   0.856
 3408SOL     OW10975   2.870   1.456   0.477
 3408SOL    HW110976   2.824   1.528   0.425
 3408SOL    HW210977   2.866   1.476   0.575
 3409SOL     OW10978   2.213   1.801   0.853
 3409SOL    HW110979   2.263   1.715   0.859
 3409SOL    HW210980   2.278   1.878   0.850
 3410SOL     OW10981   3.657   1.066   0.873
 3410SOL    HW110982   3.595   1.051   0.797
 3410SOL    HW210983   3.605   1.077   0.958
 3411SOL     OW10984   3.089   1.550   1.506
 3411SOL    HW110985   3.095   1.473   1.570
 3411SOL    HW210986   3.037   1.524   1.426
 3412SOL     OW10987   2.183   0.943   0.242
 3412SOL    HW110988   2.265   0.982   0.200
 3412SOL    HW210989   2.156   0.861   0.193
 3413SOL     OW10990   3.320   0.735   0.728
 3413SOL    HW110991   3.315   0.670   0.803
 3413SOL    HW210992   3.400   0.794   0.741
 3414SOL     OW10993   2.323   1.266   1.727
 3414SOL    HW110994   2.273   1.267   1.641
 3414SOL    HW210995   2.260   1.248   1.803
 3415SOL     OW10996   2.973   1.776   0.237
 3415SOL    HW110997   2.913   1.714   0.287
 3415SOL    HW210998   3.004   1.732   0.152
 3416SOL     OW10999   2.064   0.285   1.498
 3416SOL    HW111000   1.984   0.345   1.485
 3416SOL    HW211001   2.054   0.236   1.584
 3417SOL     OW11002   3.494   1.377   0.081
 3417SOL    HW111003   3.462   1.471   0.071
 3417SOL    HW211004   3.418   1.314   0.069
 3418SOL     OW11005   2.326   1.743   0.323
 3418SOL    HW111006   2.359   1.782   0.409
 3418SOL    HW211007   2.402   1.736   0.258
 3419SOL     OW11008   3.262   0.107   0.426
 3419SOL    HW111009   3.238   0.070   0.336
 3419SOL    HW211010   3.361   0.123   0.430
 3420SOL     OW11011   2.111   1.785   1.241
 3420SOL    HW111012   2.168   1.720   1.291
 3420SOL    HW211013   2.095   1.752   1.148
 3421SOL     OW11014   2.802   1.698   0.904
 3421SOL    HW111015   2.882   1.641   0.925
 3421SOL    HW211016   2.753   1.658   0.827
 3422SOL     OW11017   2.244   0.700   0.480
 3422SOL    HW111018   2.289   0.610   0.477
 3422SOL    HW211019   2.150   0.689   0.513
 3423SOL     OW11020   3.409   0.222   1.729
 3423SOL    HW111021   3.404   0.259   1.821
 3423SOL    HW211022   3.337   0.153   1.717
 3424SOL     OW11023   2.476   0.122   0.117
 3424SOL    HW111024   2.574   0.100   0.124
 3424SOL    HW211025   2.445   0.105   0.024
 3425SOL     OW11026   2.643   0.264   1.749
 3425SOL    HW111027   2.710   0.203   1.792
 3425SOL    HW211028   2.570   0.283   1.814
 3426SOL     OW11029   2.750   1.514   1.195
 3426SOL    HW111030   2.727   1.489   1.101
 3426SOL    HW211031   2.811   1.445   1.234
 3427SOL     OW11032   3.213   0.590   1.433
 3427SOL    HW111033   3.241   0.547   1.518
 3427SOL    HW211034   3.238   0.686   1.434
 3428SOL     OW11035   2.665   1.402   0.924
 3428SOL    HW111036   2.755   1.416   0.882
 3428SOL    HW211037   2.594   1.404   0.853
 3429SOL     OW11038   2.784   0.503   0.899
 3429SOL    HW111039   2.759   0.494   0.803
 3429SOL    HW211040   2.832   0.421   0.930
 3430SOL     OW11041   2.401   0.064   0.512
 3430SOL    HW111042   2.320   0.065   0.570
 3430SOL    HW211043   2.404   0.147   0.457
 3431SOL     OW11044   3.296   1.188   0.041
 3431SOL    HW111045   3.328   1.112   0.098
 3431SOL    HW211046   3.204   1.215   0.071
 3432SOL     OW11047   2.159   0.035   0.171
 3432SOL    HW111048   2.208   0.119   0.150
 3432SOL    HW211049   2.221  -0.030   0.216
 3433SOL     OW11050   2.797   0.236   0.480
 3433SOL    HW111051   2.749   0.277   0.402
 3433SOL    HW211052   2.896   0.234   0.461
 3434SOL     OW11053   2.938   0.683   1.464
 3434SOL    HW111054   2.858   0.622   1.467
 3434SOL    HW211055   3.019   0.630   1.440
 3435SOL     OW11056   3.089   1.570   0.793
 3435SOL    HW111057   3.110   1.644   0.728
 3435SOL    HW211058   3.157   1.570   0.866
 3436SOL     OW11059   2.321   1.152   0.741
 3436SOL    HW111060   2.250   1.125   0.806
 3436SOL    HW211061   2.295   1.124   0.648
 3437SOL     OW11062   3.133   1.797   0.591
 3437SOL    HW111063   3.177   1.861   0.527
 3437SOL    HW211064   3.083   1.849   0.661
 3438SOL     OW11065   2.894   0.549   0.016
 3438SOL    HW111066   2.853   0.631  -0.023
 3438SOL    HW211067   2.958   0.575   0.089
 3439SOL     OW11068   1.940   0.556   1.386
 3439SOL    HW111069   2.032   0.555   1.345
 3439SOL    HW211070   1.934   0.630   1.453
 3440SOL     OW11071   2.423   0.222   1.147
 3440SOL    HW111072   2.461   0.138   1.184
 3440SOL    HW211073   2.335   0.241   1.191
 3441SOL     OW11074   2.728   0.454   0.642
 3441SOL    HW111075   2.696   0.526   0.580
 3441SOL    HW211076   2.752   0.373   0.589
 3442SOL     OW11077   2.879   0.039   0.753
 3442SOL    HW111078   2.807   0.044   0.684
 3442SOL    HW211079   2.855  -0.030   0.822
 3443SOL     OW11080   3.291   1.173   0.867
 3443SOL    HW111081   3.236   1.089   0.860
 3443SOL    HW211082   3.317   1.202   0.775
 3444SOL     OW11083   3.328   0.590   0.992
 3444SOL    HW111084   3.298   0.495   0.999
 3444SOL    HW211085   3.401   0.606   1.058
 3445SOL     OW11086   3.719   0.833   0.377
 3445SOL    HW111087   3.761   0.769   0.441
 3445SOL    HW211088   3.681   0.782   0.299
 3446SOL     OW11089   2.350   1.385   0.174
 3446SOL    HW111090   2.263   1.370   0.221
 3446SOL    HW211091   2.333   1.411   0.079
 3447SOL     OW11092   3.526   1.280   0.657
 3447SOL    HW111093   3.625   1.288   0.671
 3447SOL    HW211094   3.481   1.364   0.688
 3448SOL     OW11095   3.252   0.575   0.078
 3448SOL    HW111096   3.198   0.554   0.159
 3448SOL    HW211097   3.343   0.534   0.087
 3449SOL     OW11098   2.389   0.256   0.328
 3449SOL    HW111099   2.416   0.197   0.253
 3449SOL    HW211100   2.389   0.351   0.297
 3450SOL     OW11101   3.616   1.223   1.588
 3450SOL    HW111102   3.707   1.184   1.575
 3450SOL    HW211103   3.624   1.319   1.612
 3451SOL     OW11104   2.926   1.347   1.340
 3451SOL    HW111105   2.846   1.324   1.395
 3451SOL    HW211106   3.009   1.321   1.389
 3452SOL     OW11107   3.454   1.629   1.625
 3452SOL    HW111108   3.481   1.663   1.535
 3452SOL    HW211109   3.533   1.591   1.671
 3453SOL     OW11110   2.973   1.195   1.100
 3453SOL    HW111111   2.933   1.239   1.181
 3453SOL    HW211112   2.932   1.232   1.017
 3454SOL     OW11113   3.500   1.099   1.079
 3454SOL    HW111114   3.505   1.180   1.138
 3454SOL    HW211115   3.414   1.101   1.028
 3455SOL     OW11116   2.777   0.089   1.402
 3455SOL    HW111117   2.802   0.069   1.307
 3455SOL    HW211118   2.849   0.145   1.444
 3456SOL     OW11119   2.842   1.116   1.719
 3456SOL    HW111120   2.743   1.122   1.729
 3456SOL    HW211121   2.865   1.036   1.663
 3457SOL     OW11122   2.567   1.050   0.368
 3457SOL    HW111123   2.553   1.057   0.467
 3457SOL    HW211124   2.651   0.999   0.350
 3458SOL     OW11125   2.272   0.813   1.251
 3458SOL    HW111126   2.358   0.825   1.301
 3458SOL    HW211127   2.230   0.726   1.278
 3459SOL     OW11128   3.136   0.386   1.262
 3459SOL    HW111129   3.157   0.460   1.326
 3459SOL    HW211130   3.047   0.403   1.219
 3460SOL     OW11131   2.229   1.100   0.501
 3460SOL    HW111132   2.222   1.183   0.445
 3460SOL    HW211133   2.233   1.020   0.441
 3461SOL     OW11134   2.428   0.537   0.865
 3461SOL    HW111135   2.440   0.603   0.791
 3461SOL    HW211136   2.474   0.571   0.948
 3462SOL     OW11137   3.114   1.348   0.388
 3462SOL    HW111138   3.164   1.425   0.428
 3462SOL    HW211139   3.019   1.350   0.420
 3463SOL     OW11140   3.134   1.445   1.142
 3463SOL    HW111141   3.181   1.458   1.229
 3463SOL    HW211142   3.068   1.371   1.151
 3464SOL     OW11143   3.444   0.639   0.472
 3464SOL    HW111144   3.413   0.700   0.545
 3464SOL    HW211145   3.494   0.691   0.403
 3465SOL     OW11146   2.216   1.510   1.329
 3465SOL    HW111147   2.195   1.466   1.242
 3465SOL    HW211148   2.313   1.536   1.332
 3466SOL     OW11149   2.264   0.751   1.598
 3466SOL    HW111150   2.332   0.806   1.551
 3466SOL    HW211151   2.304   0.663   1.625
 3467SOL     OW11152   3.449   0.779   1.670
 3467SOL    HW111153   3.357   0.817   1.665
 3467SOL    HW211154   3.509   0.826   1.605
 3468SOL     OW11155   2.875   0.105   1.770
 3468SOL    HW111156   2.881   0.190   1.718
 3468SOL    HW211157   2.907   0.029   1.713
 3469SOL     OW11158   2.366   0.050   1.740
 3469SOL    HW111159   2.324  -0.007   1.670
 3469SOL    HW211160   2.300   0.119   1.772
 3470SOL     OW11161   2.435   0.870   1.029
 3470SOL    HW111162   2.479   0.959   1.020
 3470SOL    HW211163   2.372   0.870   1.106
 3471SOL     OW11164   3.222   0.862   1.045
 3471SOL    HW111165   3.147   0.862   0.979
 3471SOL    HW211166   3.259   0.770   1.054
 3472SOL     OW11167   3.071   0.525   0.275
 3472SOL    HW111168   3.084   0.441   0.329
 3472SOL    HW211169   3.042   0.599   0.335
 3473SOL     OW11170   2.169   0.213   1.231
 3473SOL    HW111171   2.146   0.250   1.321
 3473SOL    HW211172   2.139   0.118   1.225
 3474SOL     OW11173   1.899   1.310   1.282
 3474SOL    HW111174   1.952   1.261   1.350
 3474SOL    HW211175   1.921   1.408   1.287
 3475SOL     OW11176   2.594   0.634   1.064
 3475SOL    HW111177   2.653   0.608   0.988
 3475SOL    HW211178   2.566   0.730   1.053
 3476SOL     OW11179   3.590   0.935   1.854
 3476SOL    HW111180   3.544   0.928   1.765
 3476SOL    HW211181   3.528   0.979   1.920
 3477SOL     OW11182   2.169   0.063   0.618
 3477SOL    HW111183   2.158   0.157   0.651
 3477SOL    HW211184   2.164   0.000   0.695
 3478SOL     OW11185   3.484   0.367   0.374
 3478SOL    HW111186   3.486   0.291   0.438
 3478SOL    HW211187   3.436   0.444   0.414
 3479SOL     OW11188   2.885   0.766   0.966
 3479SOL    HW111189   2.900   0.787   1.062
 3479SOL    HW211190   2.855   0.671   0.957
 3480SOL     OW11191   2.842   1.573   1.700
 3480SOL    HW111192   2.822   1.617   1.612
 3480SOL    HW211193   2.881   1.482   1.684
 3481SOL     OW11194   3.721   1.518   1.605
 3481SOL    HW111195   3.735   1.545   1.510
 3481SOL    HW211196   3.804   1.540   1.658
 3482SOL     OW11197   2.212   0.898   1.804
 3482SOL    HW111198   2.288   0.942   1.852
 3482SOL    HW211199   2.247   0.851   1.722
 3483SOL     OW11200   3.402   0.274   0.125
 3483SOL    HW111201   3.341   0.199   0.148
 3483SOL    HW211202   3.424   0.326   0.208
 3484SOL     OW11203   3.165   0.838   0.042
 3484SOL    HW111204   3.199   0.745   0.057
 3484SOL    HW211205   3.183   0.865  -0.053
 3485SOL     OW11206   2.930   1.333   0.849
 3485SOL    HW111207   2.937   1.249   0.794
 3485SOL    HW211208   2.992   1.402   0.813
 3486SOL     OW11209   2.181   0.810   0.949
 3486SOL    HW111210   2.274   0.846   0.954
 3486SOL    HW211211   2.175   0.725   1.001
 3487SOL     OW11212   2.201   0.509   1.006
 3487SOL    HW111213   2.149   0.426   0.989
 3487SOL    HW211214   2.278   0.514   0.942
 3488SOL     OW11215   3.000   0.380   1.678
 3488SOL    HW111216   2.955   0.443   1.742
 3488SOL    HW211217   3.093   0.411   1.661
 3489SOL     OW11218   3.022   0.207   1.477
 3489SOL    HW111219   3.022   0.271   1.554
 3489SOL    HW211220   3.050   0.255   1.394
 3490SOL     OW11221   1.870   1.326   0.200
 3490SOL    HW111222   1.777   1.347   0.169
 3490SOL    HW211223   1.880   1.227   0.213
 3491SOL     OW11224   2.366   1.568   0.910
 3491SOL    HW111225   2.432   1.642   0.919
 3491SOL    HW211226   2.410   1.489   0.868
 3492SOL     OW11227   2.864   0.796   1.238
 3492SOL    HW111228   2.905   0.764   1.324
 3492SOL    HW211229   2.768   0.769   1.235
 3493SOL     OW11230   1.902   0.544   1.114
 3493SOL    HW111231   1.987   0.511   1.073
 3493SOL    HW211232   1.915   0.559   1.212
 3494SOL     OW11233   2.051   0.520   1.722
 3494SOL    HW111234   2.110   0.480   1.652
 3494SOL    HW211235   1.993   0.591   1.681
 3495SOL     OW11236   3.231   0.950   1.660
 3495SOL    HW111237   3.270   1.039   1.680
 3495SOL    HW211238   3.241   0.930   1.563
 3496SOL     OW11239   2.677   0.572   0.325
 3496SOL    HW111240   2.684   0.483   0.279
 3496SOL    HW211241   2.583   0.606   0.317
 3497SOL     OW11242   3.519   0.604   1.206
 3497SOL    HW111243   3.481   0.535   1.268
 3497SOL    HW211244   3.601   0.568   1.162
 3498SOL     OW11245   2.114   1.564   1.744
 3498SOL    HW111246   2.084   1.621   1.820
 3498SOL    HW211247   2.107   1.467   1.770
 3499SOL     OW11248   2.533   0.464   1.269
 3499SOL    HW111249   2.499   0.375   1.239
 3499SOL    HW211250   2.559   0.518   1.189
 3500SOL     OW11251   2.792   1.678   1.465
 3500SOL    HW111252   2.768   1.660   1.370
 3500SOL    HW211253   2.822   1.772   1.475
 3501SOL     OW11254   2.335   0.500   0.191
 3501SOL    HW111255   2.396   0.580   0.195
 3501SOL    HW211256   2.240   0.531   0.198
 3502SOL     OW11257   2.021   1.137   1.466
 3502SOL    HW111258   2.043   1.076   1.542
 3502SOL    HW211259   2.031   1.088   1.380
 3503SOL     OW11260   3.209   1.059   1.234
 3503SOL    HW111261   3.233   0.996   1.160
 3503SOL    HW211262   3.119   1.099   1.216
 3504SOL     OW11263   3.164   0.855   0.309
 3504SOL    HW111264   3.078   0.824   0.351
 3504SOL    HW211265   3.160   0.841   0.210
 3505SOL     OW11266   3.621   1.747   1.154
 3505SOL    HW111267   3.682   1.777   1.081
 3505SOL    HW211268   3.583   1.658   1.132
 3506SOL     OW11269   3.114   1.731   1.128
 3506SOL    HW111270   3.198   1.736   1.074
 3506SOL    HW211271   3.091   1.635   1.146
 3507SOL     OW11272   1.945   1.258   1.022
 3507SOL    HW111273   1.940   1.257   1.122
 3507SOL    HW211274   1.862   1.217   0.984
 3508SOL     OW11275   2.550   1.662   1.716
 3508SOL    HW111276   2.494   1.743   1.725
 3508SOL    HW211277   2.602   1.666   1.630
 3509SOL     OW11278   2.765   0.086   0.133
 3509SOL    HW111279   2.816   0.087   0.047
 3509SOL    HW211280   2.821   0.044   0.204
 3510SOL     OW11281   3.588   0.135   0.523
 3510SOL    HW111282   3.661   0.118   0.456
 3510SOL    HW211283   3.557   0.048   0.561
 3511SOL     OW11284   3.250   1.573   0.477
 3511SOL    HW111285   3.317   1.585   0.403
 3511SOL    HW211286   3.210   1.662   0.500
 3512SOL     OW11287   3.142   0.927   0.672
 3512SOL    HW111288   3.202   0.846   0.674
 3512SOL    HW211289   3.182   0.996   0.612
 3513SOL     OW11290   2.692   1.273   1.422
 3513SOL    HW111291   2.687   1.306   1.517
 3513SOL    HW211292   2.606   1.292   1.376
 3514SOL     OW11293   2.534   1.616   0.154
 3514SOL    HW111294   2.543   1.626   0.055
 3514SOL    HW211295   2.494   1.527   0.175
 3515SOL     OW11296   3.512   1.720   1.394
 3515SOL    HW111297   3.565   1.730   1.310
 3515SOL    HW211298   3.485   1.810   1.428
 3516SOL     OW11299   3.703   0.175   0.963
 3516SOL    HW111300   3.742   0.090   0.927
 3516SOL    HW211301   3.605   0.177   0.944
 3517SOL     OW11302   2.125   0.326   0.720
 3517SOL    HW111303   2.046   0.377   0.686
 3517SOL    HW211304   2.116   0.311   0.818
 3518SOL     OW11305   3.056   1.612   0.031
 3518SOL    HW111306   3.062   1.519   0.068
 3518SOL    HW211307   2.997   1.612  -0.049
 3519SOL     OW11308   2.684   1.002   1.372
 3519SOL    HW111309   2.724   1.001   1.280
 3519SOL    HW211310   2.694   1.094   1.412
 3520SOL     OW11311   2.778   0.910   0.291
 3520SOL    HW111312   2.841   0.948   0.223
 3520SOL    HW211313   2.818   0.827   0.330
 3521SOL     OW11314   3.366   1.607   0.044
 3521SOL    HW111315   3.274   1.644   0.051
 3521SOL    HW211316   3.404   1.627  -0.046
 3522SOL     OW11317   2.234   1.288   1.490
 3522SOL    HW111318   2.221   1.381   1.456
 3522SOL    HW211319   2.150   1.236   1.477
 3523SOL     OW11320   3.476   1.292   1.289
 3523SOL    HW111321   3.536   1.295   1.369
 3523SOL    HW211322   3.401   1.356   1.302
 3524SOL     OW11323   2.901   1.098   0.696
 3524SOL    HW111324   2.831   1.051   0.750
 3524SOL    HW211325   2.960   1.030   0.653
 3525SOL     OW11326   2.876   0.236   0.971
 3525SOL    HW111327   2.868   0.200   0.878
 3525SOL    HW211328   2.874   0.160   1.036
 3526SOL     OW11329   2.452   1.487   0.491
 3526SOL    HW111330   2.494   1.429   0.421
 3526SOL    HW211331   2.408   1.566   0.447
 3527SOL     OW11332   3.571   0.385   1.381
 3527SOL    HW111333   3.644   0.454   1.385
 3527SOL    HW211334   3.599   0.310   1.322
 3528SOL     OW11335   2.117   1.348   0.290
 3528SOL    HW111336   2.021   1.349   0.263
 3528SOL    HW211337   2.129   1.401   0.374
 3529SOL     OW11338   1.967   1.013   1.726
 3529SOL    HW111339   1.890   0.980   1.780
 3529SOL    HW211340   2.052   0.983   1.768
 3530SOL     OW11341   2.534   0.203   1.489
 3530SOL    HW111342   2.624   0.187   1.449
 3530SOL    HW211343   2.542   0.208   1.588
 3531SOL     OW11344   1.937   0.345   0.033
 3531SOL    HW111345   1.845   0.317   0.004
 3531SOL    HW211346   1.968   0.422  -0.023
 3532SOL     OW11347   3.302   0.856   1.398
 3532SOL    HW111348   3.245   0.908   1.335
 3532SOL    HW211349   3.398   0.868   1.374
 3533SOL     OW11350   1.934   0.166   0.318
 3533SOL    HW111351   1.917   0.249   0.264
 3533SOL    HW211352   2.024   0.129   0.296
 3534SOL     OW11353   3.045   1.335   0.119
 3534SOL    HW111354   2.946   1.324   0.121
 3534SOL    HW211355   3.079   1.350   0.212
 3535SOL     OW11356   2.475   0.842   1.431
 3535SOL    HW111357   2.531   0.923   1.414
 3535SOL    HW211358   2.534   0.762   1.434
 3536SOL     OW11359   3.355   1.767   0.959
 3536SOL    HW111360   3.388   1.831   0.890
 3536SOL    HW211361   3.421   1.761   1.034
 3537SOL     OW11362   2.578   0.565   1.708
 3537SOL    HW111363   2.597   0.630   1.782
 3537SOL    HW211364   2.638   0.485   1.717
 3538SOL     OW11365   3.312   1.220   1.633
 3538SOL    HW111366   3.303   1.210   1.732
 3538SOL    HW211367   3.408   1.213   1.607
 3539SOL     OW11368   2.252   1.741   1.560
 3539SOL    HW111369   2.161   1.782   1.558
 3539SOL    HW211370   2.245   1.647   1.592
 3540SOL     OW11371   3.536   0.883   1.254
 3540SOL    HW111372   3.509   0.794   1.217
 3540SOL    HW211373   3.537   0.951   1.181
 3541SOL     OW11374   3.087   0.325   0.449
 3541SOL    HW111375   3.152   0.251   0.438
 3541SOL    HW211376   3.107   0.375   0.533
 3542SOL     OW11377   2.456   0.745   0.652
 3542SOL    HW111378   2.506   0.830   0.633
 3542SOL    HW211379   2.368   0.747   0.604
 3543SOL     OW11380   3.639   0.342   1.642
 3543SOL    HW111381   3.622   0.373   1.548
 3543SOL    HW211382   3.555   0.305   1.680
 3544SOL     OW11383   3.592   0.934   1.517
 3544SOL    HW111384   3.630   1.025   1.532
 3544SOL    HW211385   3.584   0.917   1.418
 3545SOL     OW11386   2.721   1.374   0.016
 3545SOL    HW111387   2.675   1.389   0.104
 3545SOL    HW211388   2.765   1.459  -0.014
 3546SOL     OW11389   2.523   1.790   0.953
 3546SOL    HW111390   2.477   1.878   0.940
 3546SOL    HW211391   2.622   1.802   0.946
 3547SOL     OW11392   2.721   0.956   0.861
 3547SOL    HW111393   2.775   0.887   0.909
 3547SOL    HW211394   2.689   1.025   0.927
 3548SOL     OW11395   2.945   0.984   0.087
 3548SOL    HW111396   2.922   1.037   0.005
 3548SOL    HW211397   3.026   0.928   0.068
 3549SOL     OW11398   3.723   1.569   0.851
 3549SOL    HW111399   3.652   1.557   0.781
 3549SOL    HW211400   3.724   1.490   0.911
 3550SOL     OW11401   2.083   1.314   1.844
 3550SOL    HW111402   2.018   1.241   1.823
 3550SOL    HW211403   2.087   1.328   1.942
 3551SOL     OW11404   1.941   1.240   0.653
 3551SOL    HW111405   1.940   1.193   0.741
 3551SOL    HW211406   2.023   1.212   0.602
 3552SOL     OW11407   2.534   1.391   1.624
 3552SOL    HW111408   2.456   1.341   1.662
 3552SOL    HW211409   2.531   1.486   1.655
 3553SOL     OW11410   3.686   0.192   1.227
 3553SOL    HW111411   3.682   0.102   1.271
 3553SOL    HW211412   3.689   0.181   1.128
 3554SOL     OW11413   2.290   0.424   0.520
 3554SOL    HW111414   2.320   0.352   0.458
 3554SOL    HW211415   2.251   0.384   0.603
 3555SOL     OW11416   3.567   1.487   1.104
 3555SOL    HW111417   3.474   1.462   1.077
 3555SOL    HW211418   3.593   1.437   1.186
 3556SOL     OW11419   2.179   0.547   1.280
 3556SOL    HW111420   2.217   0.488   1.352
 3556SOL    HW211421   2.219   0.521   1.192
 3557SOL     OW11422   2.674   1.586   0.687
 3557SOL    HW111423   2.706   1.596   0.593
 3557SOL    HW211424   2.595   1.524   0.689
 3558SOL     OW11425   3.286   0.214   1.112
 3558SOL    HW111426   3.338   0.149   1.167
 3558SOL    HW211427   3.237   0.277   1.173
 3559SOL     OW11428   2.863   0.034   1.154
 3559SOL    HW111429   2.800  -0.038   1.123
 3559SOL    HW211430   2.956  -0.002   1.154
 3560SOL     OW11431   2.632   1.330   0.301
 3560SOL    HW111432   2.586   1.243   0.318
 3560SOL    HW211433   2.723   1.327   0.342
 3561SOL     OW11434   2.480   1.567   1.284
 3561SOL    HW111435   2.475   1.649   1.341
 3561SOL    HW211436   2.569   1.564   1.239
 3562SOL     OW11437   3.214   0.052   0.168
 3562SOL    HW111438   3.249   0.011   0.084
 3562SOL    HW211439   3.124   0.014   0.188
 3563SOL     OW11440   3.162   0.453   0.691
 3563SOL    HW111441   3.103   0.533   0.695
 3563SOL    HW211442   3.177   0.418   0.784
 3564SOL     OW11443   3.455   0.221   0.882
 3564SOL    HW111444   3.371   0.220   0.936
 3564SOL    HW211445   3.457   0.304   0.826
 3565SOL     OW11446   1.901   1.077   0.300
 3565SOL    HW111447   2.000   1.066   0.291
 3565SOL    HW211448   1.861   0.991   0.332
 3566SOL     OW11449   2.737   1.646   0.337
 3566SOL    HW111450   2.660   1.611   0.283
 3566SOL    HW211451   2.705   1.717   0.399
 3567SOL     OW11452   2.092   0.628   1.975
 3567SOL    HW111453   1.999   0.626   2.012
 3567SOL    HW211454   2.093   0.589   1.883
 3568SOL     OW11455   2.087   0.275   2.858
 3568SOL    HW111456   2.122   0.258   2.950
 3568SOL    HW211457   1.999   0.230   2.846
 3569SOL     OW11458   1.881   0.368   2.509
 3569SOL    HW111459   1.799   0.411   2.548
 3569SOL    HW211460   1.853   0.295   2.446
 3570SOL     OW11461   2.431   1.275   3.027
 3570SOL    HW111462   2.338   1.268   2.990
 3570SOL    HW211463   2.442   1.364   3.071
 3571SOL     OW11464   3.417   1.511   2.565
 3571SOL    HW111465   3.360   1.495   2.646
 3571SOL    HW211466   3.358   1.521   2.485
 3572SOL     OW11467   2.997   0.703   2.579
 3572SOL    HW111468   3.054   0.781   2.554
 3572SOL    HW211469   2.937   0.729   2.655
 3573SOL     OW11470   3.617   0.607   2.093
 3573SOL    HW111471   3.605   0.594   1.994
 3573SOL    HW211472   3.587   0.526   2.142
 3574SOL     OW11473   2.630   1.144   2.885
 3574SOL    HW111474   2.552   1.161   2.945
 3574SOL    HW211475   2.664   1.231   2.849
 3575SOL     OW11476   2.712   0.798   3.685
 3575SOL    HW111477   2.708   0.874   3.750
 3575SOL    HW211478   2.734   0.834   3.594
 3576SOL     OW11479   2.547   1.012   2.527
 3576SOL    HW111480   2.616   0.996   2.597
 3576SOL    HW211481   2.474   1.069   2.565
 3577SOL     OW11482   2.548   1.161   3.665
 3577SOL    HW111483   2.608   1.240   3.679
 3577SOL    HW211484   2.462   1.192   3.624
 3578SOL     OW11485   2.197   1.435   2.923
 3578SOL    HW111486   2.119   1.404   2.870
 3578SOL    HW211487   2.255   1.493   2.866
 3579SOL     OW11488   3.322   1.505   3.201
 3579SOL    HW111489   3.346   1.599   3.227
 3579SOL    HW211490   3.306   1.451   3.283
 3580SOL     OW11491   2.300   0.392   3.361
 3580SOL    HW111492   2.382   0.336   3.370
 3580SOL    HW211493   2.219   0.334   3.365
 3581SOL     OW11494   3.465   0.447   2.599
 3581SOL    HW111495   3.391   0.493   2.549
 3581SOL    HW211496   3.516   0.515   2.652
 3582SOL     OW11497   2.093   1.713   2.345
 3582SOL    HW111498   2.127   1.790   2.399
 3582SOL    HW211499   2.137   1.713   2.255
 3583SOL     OW11500   2.989   1.341   3.552
 3583SOL    HW111501   3.036   1.341   3.640
 3583SOL    HW211502   2.941   1.254   3.541
 3584SOL     OW11503   2.092   1.434   2.400
 3584SOL    HW111504   2.066   1.530   2.400
 3584SOL    HW211505   2.021   1.380   2.445
 3585SOL     OW11506   2.102   1.091   2.748
 3585SOL    HW111507   2.116   1.007   2.800
 3585SOL    HW211508   2.047   1.155   2.803
 3586SOL     OW11509   2.482   1.786   3.301
 3586SOL    HW111510   2.390   1.769   3.336
 3586SOL    HW211511   2.510   1.878   3.327
 3587SOL     OW11512   2.468   0.964   1.985
 3587SOL    HW111513   2.475   1.048   1.931
 3587SOL    HW211514   2.514   0.977   2.073
 3588SOL     OW11515   3.456   0.114   3.342
 3588SOL    HW111516   3.438   0.181   3.270
 3588SOL    HW211517   3.453   0.160   3.431
 3589SOL     OW11518   1.984   0.643   2.425
 3589SOL    HW111519   1.939   0.555   2.442
 3589SOL    HW211520   1.983   0.697   2.509
 3590SOL     OW11521   3.704   1.767   2.221
 3590SOL    HW111522   3.758   1.738   2.301
 3590SOL    HW211523   3.734   1.857   2.192
 3591SOL     OW11524   1.889   1.596   1.979
 3591SOL    HW111525   1.870   1.500   2.000
 3591SOL    HW211526   1.856   1.654   2.054
 3592SOL     OW11527   3.551   0.922   2.474
 3592SOL    HW111528   3.646   0.893   2.482
 3592SOL    HW211529   3.543   0.987   2.399
 3593SOL     OW11530   3.503   1.108   2.294
 3593SOL    HW111531   3.589   1.110   2.242
 3593SOL    HW211532   3.517   1.155   2.382
 3594SOL     OW11533   1.975   0.737   3.459
 3594SOL    HW111534   2.063   0.724   3.504
 3594SOL    HW211535   1.962   0.834   3.437
 3595SOL     OW11536   2.475   1.365   2.588
 3595SOL    HW111537   2.426   1.278   2.597
 3595SOL    HW211538   2.452   1.408   2.501
 3596SOL     OW11539   3.155   1.228   3.285
 3596SOL    HW111540   3.192   1.155   3.227
 3596SOL    HW211541   3.207   1.233   3.370
 3597SOL     OW11542   2.671   0.004   2.364
 3597SOL    HW111543   2.711   0.095   2.355
 3597SOL    HW211544   2.571   0.012   2.370
 3598SOL     OW11545   2.059   0.976   3.126
 3598SOL    HW111546   2.148   0.931   3.112
 3598SOL    HW211547   1.986   0.911   3.107
 3599SOL     OW11548   3.387   0.999   2.052
 3599SOL    HW111549   3.324   0.923   2.065
 3599SOL    HW211550   3.435   1.017   2.138
 3600SOL     OW11551   3.049   1.792   3.478
 3600SOL    HW111552   3.073   1.852   3.402
 3600SOL    HW211553   3.056   1.697   3.448
 3601SOL     OW11554   2.179   0.251   3.663
 3601SOL    HW111555   2.250   0.322   3.669
 3601SOL    HW211556   2.091   0.290   3.691
 3602SOL     OW11557   3.328   1.417   2.815
 3602SOL    HW111558   3.269   1.423   2.895
 3602SOL    HW211559   3.313   1.329   2.769
 3603SOL     OW11560   3.529   1.714   2.434
 3603SOL    HW111561   3.488   1.691   2.346
 3603SOL    HW211562   3.511   1.640   2.499
 3604SOL     OW11563   2.460   0.729   2.132
 3604SOL    HW111564   2.484   0.798   2.064
 3604SOL    HW211565   2.382   0.762   2.186
 3605SOL     OW11566   3.143   0.345   2.806
 3605SOL    HW111567   3.057   0.295   2.793
 3605SOL    HW211568   3.205   0.291   2.862
 3606SOL     OW11569   3.438   1.662   2.169
 3606SOL    HW111570   3.527   1.708   2.172
 3606SOL    HW211571   3.417   1.638   2.074
 3607SOL     OW11572   2.669   0.605   3.327
 3607SOL    HW111573   2.622   0.602   3.416
 3607SOL    HW211574   2.618   0.550   3.261
 3608SOL     OW11575   3.256   0.469   3.536
 3608SOL    HW111576   3.236   0.512   3.624
 3608SOL    HW211577   3.334   0.407   3.545
 3609SOL     OW11578   2.835   0.890   3.434
 3609SOL    HW111579   2.881   0.806   3.405
 3609SOL    HW211580   2.779   0.924   3.359
 3610SOL     OW11581   2.853   0.410   3.104
 3610SOL    HW111582   2.776   0.444   3.158
 3610SOL    HW211583   2.819   0.359   3.025
 3611SOL     OW11584   2.903   0.701   2.291
 3611SOL    HW111585   2.929   0.697   2.387
 3611SOL    HW211586   2.818   0.650   2.277
 3612SOL     OW11587   1.938   0.811   2.651
 3612SOL    HW111588   2.037   0.799   2.660
 3612SOL    HW211589   1.914   0.906   2.672
 3613SOL     OW11590   2.727   0.348   2.057
 3613SOL    HW111591   2.786   0.411   2.008
 3613SOL    HW211592   2.746   0.254   2.028
 3614SOL     OW11593   3.581   0.585   3.693
 3614SOL    HW111594   3.555   0.674   3.657
 3614SOL    HW211595   3.579   0.517   3.620
 3615SOL     OW11596   3.224   1.144   2.407
 3615SOL    HW111597   3.307   1.115   2.359
 3615SOL    HW211598   3.175   1.211   2.351
 3616SOL     OW11599   2.412   0.196   2.747
 3616SOL    HW111600   2.407   0.191   2.847
 3616SOL    HW211601   2.414   0.292   2.718
 3617SOL     OW11602   2.870   1.456   2.339
 3617SOL    HW111603   2.824   1.528   2.287
 3617SOL    HW211604   2.866   1.476   2.437
 3618SOL     OW11605   2.213   1.801   2.715
 3618SOL    HW111606   2.263   1.715   2.721
 3618SOL    HW211607   2.278   1.878   2.712
 3619SOL     OW11608   3.657   1.066   2.735
 3619SOL    HW111609   3.595   1.051   2.659
 3619SOL    HW211610   3.605   1.077   2.820
 3620SOL     OW11611   3.089   1.550   3.368
 3620SOL    HW111612   3.095   1.473   3.432
 3620SOL    HW211613   3.037   1.524   3.288
 3621SOL     OW11614   2.183   0.943   2.104
 3621SOL    HW111615   2.265   0.982   2.062
 3621SOL    HW211616   2.156   0.861   2.055
 3622SOL     OW11617   3.320   0.735   2.590
 3622SOL    HW111618   3.315   0.670   2.665
 3622SOL    HW211619   3.400   0.794   2.603
 3623SOL     OW11620   2.323   1.266   3.589
 3623SOL    HW111621   2.273   1.267   3.503
 3623SOL    HW211622   2.260   1.248   3.665
 3624SOL     OW11623   2.973   1.776   2.099
 3624SOL    HW111624   2.913   1.714   2.149
 3624SOL    HW211625   3.004   1.732   2.014
 3625SOL     OW11626   2.064   0.285   3.360
 3625SOL    HW111627   1.984   0.345   3.347
 3625SOL    HW211628   2.054   0.236   3.446
 3626SOL     OW11629   3.494   1.377   1.943
 3626SOL    HW111630   3.462   1.471   1.933
 3626SOL    HW211631   3.418   1.314   1.931
 3627SOL     OW11632   2.326   1.743   2.185
 3627SOL    HW111633   2.359   1.782   2.271
 3627SOL    HW211634   2.402   1.736   2.120
 3628SOL     OW11635   3.262   0.107   2.288
 3628SOL    HW111636   3.238   0.070   2.198
 3628SOL    HW211637   3.361   0.123   2.292
 3629SOL     OW11638   2.111   1.785   3.103
 3629SOL    HW111639   2.168   1.720   3.153
 3629SOL    HW211640   2.095   1.752   3.010
 3630SOL     OW11641   2.802   1.698   2.766
 3630SOL    HW111642   2.882   1.641   2.787
 3630SOL    HW211643   2.753   1.658   2.689
 3631SOL     OW11644   2.244   0.700   2.342
 3631SOL    HW111645   2.289   0.610   2.339
 3631SOL    HW211646   2.150   0.689   2.375
 3632SOL     OW11647   3.409   0.222   3.591
 3632SOL    HW111648   3.404   0.259   3.683
 3632SOL    HW211649   3.337   0.153   3.579
 3633SOL     OW11650   2.476   0.122   1.979
 3633SOL    HW111651   2.574   0.100   1.986
 3633SOL    HW211652   2.445   0.105   1.886
 3634SOL     OW11653   2.643   0.264   3.611
 3634SOL    HW111654   2.710   0.203   3.654
 3634SOL    HW211655   2.570   0.283   3.676
 3635SOL     OW11656   2.750   1.514   3.057
 3635SOL    HW111657   2.727   1.489   2.963
 3635SOL    HW211658   2.811   1.445   3.096
 3636SOL     OW11659   3.213   0.590   3.295
 3636SOL    HW111660   3.241   0.547   3.380
 3636SOL    HW211661   3.238   0.686   3.296
 3637SOL     OW11662   2.665   1.402   2.786
 3637SOL    HW111663   2.755   1.416   2.744
 3637SOL    HW211664   2.594   1.404   2.715
 3638SOL     OW11665   2.784   0.503   2.761
 3638SOL    HW111666   2.759   0.494   2.665
 3638SOL    HW211667   2.832   0.421   2.792
 3639SOL     OW11668   2.401   0.064   2.374
 3639SOL    HW111669   2.320   0.065   2.432
 3639SOL    HW211670   2.404   0.147   2.319
 3640SOL     OW11671   3.296   1.188   1.903
 3640SOL    HW111672   3.328   1.112   1.960
 3640SOL    HW211673   3.204   1.215   1.933
 3641SOL     OW11674   2.159   0.035   2.033
 3641SOL    HW111675   2.208   0.119   2.012
 3641SOL    HW211676   2.221  -0.030   2.078
 3642SOL     OW11677   2.797   0.236   2.342
 3642SOL    HW111678   2.749   0.277   2.264
 3642SOL    HW211679   2.896   0.234   2.323
 3643SOL     OW11680   2.938   0.683   3.326
 3643SOL    HW111681   2.858   0.622   3.329
 3643SOL    HW211682   3.019   0.630   3.302
 3644SOL     OW11683   3.089   1.570   2.655
 3644SOL    HW111684   3.110   1.644   2.590
 3644SOL    HW211685   3.157   1.570   2.728
 3645SOL     OW11686   2.321   1.152   2.603
 3645SOL    HW111687   2.250   1.125   2.668
 3645SOL    HW211688   2.295   1.124   2.510
 3646SOL     OW11689   3.133   1.797   2.453
 3646SOL    HW111690   3.177   1.861   2.389
 3646SOL    HW211691   3.083   1.849   2.523
 3647SOL     OW11692   2.894   0.549   1.878
 3647SOL    HW111693   2.853   0.631   1.839
 3647SOL    HW211694   2.958   0.575   1.951
 3648SOL     OW11695   1.940   0.556   3.248
 3648SOL    HW111696   2.032   0.555   3.207
 3648SOL    HW211697   1.934   0.630   3.315
 3649SOL     OW11698   2.423   0.222   3.009
 3649SOL    HW111699   2.461   0.138   3.046
 3649SOL    HW211700   2.335   0.241   3.053
 3650SOL     OW11701   2.728   0.454   2.504
 3650SOL    HW111702   2.696   0.526   2.442
 3650SOL    HW211703   2.752   0.373   2.451
 3651SOL     OW11704   2.879   0.039   2.615
 3651SOL    HW111705   2.807   0.044   2.546
 3651SOL    HW211706   2.855  -0.030   2.684
 3652SOL     OW11707   3.291   1.173   2.729
 3652SOL    HW111708   3.236   1.089   2.722
 3652SOL    HW211709   3.317   1.202   2.637
 3653SOL     OW11710   3.328   0.590   2.854
 3653SOL    HW111711   3.298   0.495   2.861
 3653SOL    HW211712   3.401   0.606   2.920
 3654SOL     OW11713   3.719   0.833   2.239
 3654SOL    HW111714   3.761   0.769   2.303
 3654SOL    HW211715   3.681   0.782   2.161
 3655SOL     OW11716   2.350   1.385   2.036
 3655SOL    HW111717   2.263   1.370   2.083
 3655SOL    HW211718   2.333   1.411   1.941
 3656SOL     OW11719   3.526   1.280   2.519
 3656SOL    HW111720   3.625   1.288   2.533
 3656SOL    HW211721   3.481   1.364   2.550
 3657SOL     OW11722   3.252   0.575   1.940
 3657SOL    HW111723   3.198   0.554   2.021
 3657SOL    HW211724   3.343   0.534   1.949
 3658SOL     OW11725   2.389   0.256   2.190
 3658SOL    HW111726   2.416   0.197   2.115
 3658SOL    HW211727   2.389   0.351   2.159
 3659SOL     OW11728   3.616   1.223   3.450
 3659SOL    HW111729   3.707   1.184   3.437
 3659SOL    HW211730   3.624   1.319   3.474
 3660SOL     OW11731   2.926   1.347   3.202
 3660SOL    HW111732   2.846   1.324   3.257
 3660SOL    HW211733   3.009   1.321   3.251
 3661SOL     OW11734   3.454   1.629   3.487
 3661SOL    HW111735   3.481   1.663   3.397
 3661SOL    HW211736   3.533   1.591   3.533
 3662SOL     OW11737   2.973   1.195   2.962
 3662SOL    HW111738   2.933   1.239   3.043
 3662SOL    HW211739   2.932   1.232   2.879
 3663SOL     OW11740   3.500   1.099   2.941
 3663SOL    HW111741   3.505   1.180   3.000
 3663SOL    HW211742   3.414   1.101   2.890
 3664SOL     OW11743   2.777   0.089   3.264
 3664SOL    HW111744   2.802   0.069   3.169
 3664SOL    HW211745   2.849   0.145   3.306
 3665SOL     OW11746   2.842   1.116   3.581
 3665SOL    HW111747   2.743   1.122   3.591
 3665SOL    HW211748   2.865   1.036   3.525
 3666SOL     OW11749   2.567   1.050   2.230
 3666SOL    HW111750   2.553   1.057   2.329
 3666SOL    HW211751   2.651   0.999   2.212
 3667SOL     OW11752   2.272   0.813   3.113
 3667SOL    HW111753   2.358   0.825   3.163
 3667SOL    HW211754   2.230   0.726   3.140
 3668SOL     OW11755   3.136   0.386   3.124
 3668SOL    HW111756   3.157   0.460   3.188
 3668SOL    HW211757   3.047   0.403   3.081
 3669SOL     OW11758   2.229   1.100   2.363
 3669SOL    HW111759   2.222   1.183   2.307
 3669SOL    HW211760   2.233   1.020   2.303
 3670SOL     OW11761   2.428   0.537   2.727
 3670SOL    HW111762   2.440   0.603   2.653
 3670SOL    HW211763   2.474   0.571   2.810
 3671SOL     OW11764   3.114   1.348   2.250
 3671SOL    HW111765   3.164   1.425   2.290
 3671SOL    HW211766   3.019   1.350   2.282
 3672SOL     OW11767   3.134   1.445   3.004
 3672SOL    HW111768   3.181   1.458   3.091
 3672SOL    HW211769   3.068   1.371   3.013
 3673SOL     OW11770   3.444   0.639   2.334
 3673SOL    HW111771   3.413   0.700   2.407
 3673SOL    HW211772   3.494   0.691   2.265
 3674SOL     OW11773   2.216   1.510   3.191
 3674SOL    HW111774   2.195   1.466   3.104
 3674SOL    HW211775   2.313   1.536   3.194
 3675SOL     OW11776   2.264   0.751   3.460
 3675SOL    HW111777   2.332   0.806   3.413
 3675SOL    HW211778   2.304   0.663   3.487
 3676SOL     OW11779   3.449   0.779   3.532
 3676SOL    HW111780   3.357   0.817   3.527
 3676SOL    HW211781   3.509   0.826   3.467
 3677SOL     OW11782   2.875   0.105   3.632
 3677SOL    HW111783   2.881   0.190   3.580
 3677SOL    HW211784   2.907   0.029   3.575
 3678SOL     OW11785   2.366   0.050   3.602
 3678SOL    HW111786   2.324  -0.007   3.532
 3678SOL    HW211787   2.300   0.119   3.634
 3679SOL     OW11788   2.435   0.870   2.891
 3679SOL    HW111789   2.479   0.959   2.882
 3679SOL    HW211790   2.372   0.870   2.968
 3680SOL     OW11791   3.222   0.862   2.907
 3680SOL    HW111792   3.147   0.862   2.841
 3680SOL    HW211793   3.259   0.770   2.916
 3681SOL     OW11794   3.071   0.525   2.137
 3681SOL    HW111795   3.084   0.441   2.191
 3681SOL    HW211796   3.042   0.599   2.197
 3682SOL     OW11797   2.169   0.213   3.093
 3682SOL    HW111798   2.146   0.250   3.183
 3682SOL    HW211799   2.139   0.118   3.087
 3683SOL     OW11800   1.899   1.310   3.144
 3683SOL    HW111801   1.952   1.261   3.212
 3683SOL    HW211802   1.921   1.408   3.149
 3684SOL     OW11803   2.594   0.634   2.926
 3684SOL    HW111804   2.653   0.608   2.850
 3684SOL    HW211805   2.566   0.730   2.915
 3685SOL     OW11806   3.590   0.935   3.716
 3685SOL    HW111807   3.544   0.928   3.627
 3685SOL    HW211808   3.528   0.979   3.782
 3686SOL     OW11809   2.169   0.063   2.480
 3686SOL    HW111810   2.158   0.157   2.513
 3686SOL    HW211811   2.164   0.000   2.557
 3687SOL     OW11812   3.484   0.367   2.236
 3687SOL    HW111813   3.486   0.291   2.300
 3687SOL    HW211814   3.436   0.444   2.276
 3688SOL     OW11815   2.885   0.766   2.828
 3688SOL    HW111816   2.900   0.787   2.924
 3688SOL    HW211817   2.855   0.671   2.819
 3689SOL     OW11818   2.842   1.573   3.562
 3689SOL    HW111819   2.822   1.617   3.474
 3689SOL    HW211820   2.881   1.482   3.546
 3690SOL     OW11821   3.721   1.518   3.467
 3690SOL    HW111822   3.735   1.545   3.372
 3690SOL    HW211823   3.804   1.540   3.520
 3691SOL     OW11824   2.212   0.898   3.666
 3691SOL    HW111825   2.288   0.942   3.714
 3691SOL    HW211826   2.247   0.851   3.584
 3692SOL     OW11827   3.402   0.274   1.987
 3692SOL    HW111828   3.341   0.199   2.010
 3692SOL    HW211829   3.424   0.326   2.070
 3693SOL     OW11830   3.165   0.838   1.904
 3693SOL    HW111831   3.199   0.745   1.919
 3693SOL    HW211832   3.183   0.865   1.809
 3694SOL     OW11833   2.930   1.333   2.711
 3694SOL    HW111834   2.937   1.249   2.656
 3694SOL    HW211835   2.992   1.402   2.675
 3695SOL     OW11836   2.181   0.810   2.811
 3695SOL    HW111837   2.274   0.846   2.816
 3695SOL    HW211838   2.175   0.725   2.863
 3696SOL     OW11839   2.201   0.509   2.868
 3696SOL    HW111840   2.149   0.426   2.851
 3696SOL    HW211841   2.278   0.514   2.804
 3697SOL     OW11842   3.000   0.380   3.540
 3697SOL    HW111843   2.955   0.443   3.604
 3697SOL    HW211844   3.093   0.411   3.523
 3698SOL     OW11845   3.022   0.207   3.339
 3698SOL    HW111846   3.022   0.271   3.416
 3698SOL    HW211847   3.050   0.255   3.256
 3699SOL     OW11848   1.870   1.326   2.062
 3699SOL    HW111849   1.777   1.347   2.031
 3699SOL    HW211850   1.880   1.227   2.075
 3700SOL     OW11851   2.366   1.568   2.772
 3700SOL    HW111852   2.432   1.642   2.781
 3700SOL    HW211853   2.410   1.489   2.730
 3701SOL     OW11854   2.864   0.796   3.100
 3701SOL    HW111855   2.905   0.764   3.186
 3701SOL    HW211856   2.768   0.769   3.097
 3702SOL     OW11857   1.902   0.544   2.976
 3702SOL    HW111858   1.987   0.511   2.935
 3702SOL    HW211859   1.915   0.559   3.074
 3703SOL     OW11860   2.051   0.520   3.584
 3703SOL    HW111861   2.110   0.480   3.514
 3703SOL    HW211862   1.993   0.591   3.543
 3704SOL     OW11863   3.231   0.950   3.522
 3704SOL    HW111864   3.270   1.039   3.542
 3704SOL    HW211865   3.241   0.930   3.425
 3705SOL     OW11866   2.677   0.572   2.187
 3705SOL    HW111867   2.684   0.483   2.141
 3705SOL    HW211868   2.583   0.606   2.179
 3706SOL     OW11869   3.519   0.604   3.068
 3706SOL    HW111870   3.481   0.535   3.130
 3706SOL    HW211871   3.601   0.568   3.024
 3707SOL     OW11872   2.114   1.564   3.606
 3707SOL    HW111873   2.084   1.621   3.682
 3707SOL    HW211874   2.107   1.467   3.632
 3708SOL     OW11875   2.533   0.464   3.131
 3708SOL    HW111876   2.499   0.375   3.101
 3708SOL    HW211877   2.559   0.518   3.051
 3709SOL     OW11878   2.792   1.678   3.327
 3709SOL    HW111879   2.768   1.660   3.232
 3709SOL    HW211880   2.822   1.772   3.337
 3710SOL     OW11881   2.335   0.500   2.053
 3710SOL    HW111882   2.396   0.580   2.057
 3710SOL    HW211883   2.240   0.531   2.060
 3711SOL     OW11884   2.021   1.137   3.328
 3711SOL    HW111885   2.043   1.076   3.404
 3711SOL    HW211886   2.031   1.088   3.242
 3712SOL     OW11887   3.209   1.059   3.096
 3712SOL    HW111888   3.233   0.996   3.022
 3712SOL    HW211889   3.119   1.099   3.078
 3713SOL     OW11890   3.164   0.855   2.171
 3713SOL    HW111891   3.078   0.824   2.213
 3713SOL    HW211892   3.160   0.841   2.072
 3714SOL     OW11893   3.621   1.747   3.016
 3714SOL    HW111894   3.682   1.777   2.943
 3714SOL    HW211895   3.583   1.658   2.994
 3715SOL     OW11896   3.114   1.731   2.990
 3715SOL    HW111897   3.198   1.736   2.936
 3715SOL    HW211898   3.091   1.635   3.008
 3716SOL     OW11899   1.945   1.258   2.884
 3716SOL    HW111900   1.940   1.257   2.984
 3716SOL    HW211901   1.862   1.217   2.846
 3717SOL     OW11902   2.550   1.662   3.578
 3717SOL    HW111903   2.494   1.743   3.587
 3717SOL    HW211904   2.602   1.666   3.492
 3718SOL     OW11905   3.588   0.135   2.385
 3718SOL    HW111906   3.661   0.118   2.318
 3718SOL    HW211907   3.557   0.048   2.423
 3719SOL     OW11908   3.250   1.573   2.339
 3719SOL    HW111909   3.317   1.585   2.265
 3719SOL    HW211910   3.210   1.662   2.362
 3720SOL     OW11911   3.142   0.927   2.534
 3720SOL    HW111912   3.202   0.846   2.536
 3720SOL    HW211913   3.182   0.996   2.474
 3721SOL     OW11914   2.692   1.273   3.284
 3721SOL    HW111915   2.687   1.306   3.379
 3721SOL    HW211916   2.606   1.292   3.238
 3722SOL     OW11917   2.534   1.616   2.016
 3722SOL    HW111918   2.543   1.626   1.917
 3722SOL    HW211919   2.494   1.527   2.037
 3723SOL     OW11920   3.512   1.720   3.256
 3723SOL    HW111921   3.565   1.730   3.172
 3723SOL    HW211922   3.485   1.810   3.290
 3724SOL     OW11923   3.703   0.175   2.825
 3724SOL    HW111924   3.742   0.090   2.789
 3724SOL    HW211925   3.605   0.177   2.806
 3725SOL     OW11926   2.125   0.326   2.582
 3725SOL    HW111927   2.046   0.377   2.548
 3725SOL    HW211928   2.116   0.311   2.680
 3726SOL     OW11929   3.056   1.612   1.893
 3726SOL    HW111930   3.062   1.519   1.930
 3726SOL    HW211931   2.997   1.612   1.813
 3727SOL     OW11932   2.684   1.002   3.234
 3727SOL    HW111933   2.724   1.001   3.142
 3727SOL    HW211934   2.694   1.094   3.274
 3728SOL     OW11935   2.778   0.910   2.153
 3728SOL    HW111936   2.841   0.948   2.085
 3728SOL    HW211937   2.818   0.827   2.192
 3729SOL     OW11938   3.366   1.607   1.906
 3729SOL    HW111939   3.274   1.644   1.913
 3729SOL    HW211940   3.404   1.627   1.816
 3730SOL     OW11941   2.234   1.288   3.352
 3730SOL    HW111942   2.221   1.381   3.318
 3730SOL    HW211943   2.150   1.236   3.339
 3731SOL     OW11944   3.476   1.292   3.151
 3731SOL    HW111945   3.536   1.295   3.231
 3731SOL    HW211946   3.401   1.356   3.164
 3732SOL     OW11947   2.901   1.098   2.558
 3732SOL    HW111948   2.831   1.051   2.612
 3732SOL    HW211949   2.960   1.030   2.515
 3733SOL     OW11950   2.876   0.236   2.833
 3733SOL    HW111951   2.868   0.200   2.740
 3733SOL    HW211952   2.874   0.160   2.898
 3734SOL     OW11953   2.452   1.487   2.353
 3734SOL    HW111954   2.494   1.429   2.283
 3734SOL    HW211955   2.408   1.566   2.309
 3735SOL     OW11956   3.571   0.385   3.243
 3735SOL    HW111957   3.644   0.454   3.247
 3735SOL    HW211958   3.599   0.310   3.184
 3736SOL     OW11959   2.117   1.348   2.152
 3736SOL    HW111960   2.021   1.349   2.125
 3736SOL    HW211961   2.129   1.401   2.236
 3737SOL     OW11962   1.967   1.013   3.588
 3737SOL    HW111963   1.890   0.980   3.642
 3737SOL    HW211964   2.052   0.983   3.630
 3738SOL     OW11965   2.534   0.203   3.351
 3738SOL    HW111966   2.624   0.187   3.311
 3738SOL    HW211967   2.542   0.208   3.450
 3739SOL     OW11968   1.937   0.345   1.895
 3739SOL    HW111969   1.845   0.317   1.866
 3739SOL    HW211970   1.968   0.422   1.839
 3740SOL     OW11971   3.302   0.856   3.260
 3740SOL    HW111972   3.245   0.908   3.197
 3740SOL    HW211973   3.398   0.868   3.236
 3741SOL     OW11974   1.934   0.166   2.180
 3741SOL    HW111975   1.917   0.249   2.126
 3741SOL    HW211976   2.024   0.129   2.158
 3742SOL     OW11977   3.045   1.335   1.981
 3742SOL    HW111978   2.946   1.324   1.983
 3742SOL    HW211979   3.079   1.350   2.074
 3743SOL     OW11980   2.475   0.842   3.293
 3743SOL    HW111981   2.531   0.923   3.276
 3743SOL    HW211982   2.534   0.762   3.296
 3744SOL     OW11983   3.355   1.767   2.821
 3744SOL    HW111984   3.388   1.831   2.752
 3744SOL    HW211985   3.421   1.761   2.896
 3745SOL     OW11986   2.578   0.565   3.570
 3745SOL    HW111987   2.597   0.630   3.644
 3745SOL    HW211988   2.638   0.485   3.579
 3746SOL     OW11989   3.312   1.220   3.495
 3746SOL    HW111990   3.303   1.210   3.594
 3746SOL    HW211991   3.408   1.213   3.469
 3747SOL     OW11992   2.252   1.741   3.422
 3747SOL    HW111993   2.161   1.782   3.420
 3747SOL    HW211994   2.245   1.647   3.454
 3748SOL     OW11995   3.536   0.883   3.116
 3748SOL    HW111996   3.509   0.794   3.079
 3748SOL    HW211997   3.537   0.951   3.043
 3749SOL     OW11998   3.087   0.325   2.311
 3749SOL    HW111999   3.152   0.251   2.300
 3749SOL    HW212000   3.107   0.375   2.395
 3750SOL     OW12001   2.456   0.745   2.514
 3750SOL    HW112002   2.506   0.830   2.495
 3750SOL    HW212003   2.368   0.747   2.466
 3751SOL     OW12004   3.639   0.342   3.504
 3751SOL    HW112005   3.622   0.373   3.410
 3751SOL    HW212006   3.555   0.305   3.542
 3752SOL     OW12007   3.592   0.934   3.379
 3752SOL    HW112008   3.630   1.025   3.394
 3752SOL    HW212009   3.584   0.917   3.280
 3753SOL     OW12010   2.721   1.374   1.878
 3753SOL    HW112011   2.675   1.389   1.966
 3753SOL    HW212012   2.765   1.459   1.848
 3754SOL     OW12013   2.523   1.790   2.815
 3754SOL    HW112014   2.477   1.878   2.802
 3754SOL    HW212015   2.622   1.802   2.808
 3755SOL     OW12016   2.721   0.956   2.723
 3755SOL    HW112017   2.775   0.887   2.771
 3755SOL    HW212018   2.689   1.025   2.789
 3756SOL     OW12019   2.945   0.984   1.949
 3756SOL    HW112020   2.922   1.037   1.867
 3756SOL    HW212021   3.026   0.928   1.930
 3757SOL     OW12022   3.723   1.569   2.713
 3757SOL    HW112023   3.652   1.557   2.643
 3757SOL    HW212024   3.724   1.490   2.773
 3758SOL     OW12025   2.083   1.314   3.706
 3758SOL    HW112026   2.018   1.241   3.685
 3758SOL    HW212027   2.087   1.328   3.804
 3759SOL     OW12028   1.941   1.240   2.515
 3759SOL    HW112029   1.940   1.193   2.603
 3759SOL    HW212030   2.023   1.212   2.464
 3760SOL     OW12031   2.534   1.391   3.486
 3760SOL    HW112032   2.456   1.341   3.524
 3760SOL    HW212033   2.531   1.486   3.517
 3761SOL     OW12034   3.686   0.192   3.089
 3761SOL    HW112035   3.682   0.102   3.133
 3761SOL    HW212036   3.689   0.181   2.990
 3762SOL     OW12037   2.290   0.424   2.382
 3762SOL    HW112038   2.320   0.352   2.320
 3762SOL    HW212039   2.251   0.384   2.465
 3763SOL     OW12040   3.567   1.487   2.966
 3763SOL    HW112041   3.474   1.462   2.939
 3763SOL    HW212042   3.593   1.437   3.048
 3764SOL     OW12043   2.179   0.547   3.142
 3764SOL    HW112044   2.217   0.488   3.214
 3764SOL    HW212045   2.219   0.521   3.054
 3765SOL     OW12046   2.674   1.586   2.549
 3765SOL    HW112047   2.706   1.596   2.455
 3765SOL    HW212048   2.595   1.524   2.551
 3766SOL     OW12049   3.286   0.214   2.974
 3766SOL    HW112050   3.338   0.149   3.029
 3766SOL    HW212051   3.237   0.277   3.035
 3767SOL     OW12052   2.863   0.034   3.016
 3767SOL    HW112053   2.800  -0.038   2.985
 3767SOL    HW212054   2.956  -0.002   3.016
 3768SOL     OW12055   2.632   1.330   2.163
 3768SOL    HW112056   2.586   1.243   2.180
 3768SOL    HW212057   2.723   1.327   2.204
 3769SOL     OW12058   2.480   1.567   3.146
 3769SOL    HW112059   2.475   1.649   3.203
 3769SOL    HW212060   2.569   1.564   3.101
 3770SOL     OW12061   3.214   0.052   2.030
 3770SOL    HW112062   3.249   0.011   1.946
 3770SOL    HW212063   3.124   0.014   2.050
 3771SOL     OW12064   3.162   0.453   2.553
 3771SOL    HW112065   3.103   0.533   2.557
 3771SOL    HW212066   3.177   0.418   2.646
 3772SOL     OW12067   3.455   0.221   2.744
 3772SOL    HW112068   3.371   0.220   2.798
 3772SOL    HW212069   3.457   0.304   2.688
 3773SOL     OW12070   1.901   1.077   2.162
 3773SOL    HW112071   2.000   1.066   2.153
 3773SOL    HW212072   1.861   0.991   2.194
 3774SOL     OW12073   2.737   1.646   2.199
 3774SOL    HW112074   2.660   1.611   2.145
 3774SOL    HW212075   2.705   1.717   2.261
 3775SOL     OW12076   2.092   0.628   3.837
 3775SOL    HW112077   1.999   0.626   3.874
 3775SOL    HW212078   2.093   0.589   3.745
 3776SOL     OW12079   2.087   0.275   4.720
 3776SOL    HW112080   2.122   0.258   4.812
 3776SOL    HW212081   1.999   0.230   4.708
 3777SOL     OW12082   1.881   0.368   4.371
 3777SOL    HW112083   1.799   0.411   4.410
 3777SOL    HW212084   1.853   0.295   4.308
 3778SOL     OW12085   2.431   1.275   4.889
 3778SOL    HW112086   2.338   1.268   4.852
 3778SOL    HW212087   2.442   1.364   4.933
 3779SOL     OW12088   3.417   1.511   4.427
 3779SOL    HW112089   3.360   1.495   4.508
 3779SOL    HW212090   3.358   1.521   4.347
 3780SOL     OW12091   2.997   0.703   4.441
 3780SOL    HW112092   3.054   0.781   4.416
 3780SOL    HW212093   2.937   0.729   4.517
 3781SOL     OW12094   3.617   0.607   3.955
 3781SOL    HW112095   3.605   0.594   3.856
 3781SOL    HW212096   3.587   0.526   4.004
 3782SOL     OW12097   2.630   1.144   4.747
 3782SOL    HW112098   2.552   1.161   4.807
 3782SOL    HW212099   2.664   1.231   4.711
 3783SOL     OW12100   2.712   0.798   5.547
 3783SOL    HW112101   2.708   0.874   5.612
 3783SOL    HW212102   2.734   0.834   5.456
 3784SOL     OW12103   2.547   1.012   4.389
 3784SOL    HW112104   2.616   0.996   4.459
 3784SOL    HW212105   2.474   1.069   4.427
 3785SOL     OW12106   2.548   1.161   5.527
 3785SOL    HW112107   2.608   1.240   5.541
 3785SOL    HW212108   2.462   1.192   5.486
 3786SOL     OW12109   2.197   1.435   4.785
 3786SOL    HW112110   2.119   1.404   4.732
 3786SOL    HW212111   2.255   1.493   4.728
 3787SOL     OW12112   3.322   1.505   5.063
 3787SOL    HW112113   3.346   1.599   5.089
 3787SOL    HW212114   3.306   1.451   5.145
 3788SOL     OW12115   2.300   0.392   5.223
 3788SOL    HW112116   2.382   0.336   5.232
 3788SOL    HW212117   2.219   0.334   5.227
 3789SOL     OW12118   3.465   0.447   4.461
 3789SOL    HW112119   3.391   0.493   4.411
 3789SOL    HW212120   3.516   0.515   4.514
 3790SOL     OW12121   2.093   1.713   4.207
 3790SOL    HW112122   2.127   1.790   4.261
 3790SOL    HW212123   2.137   1.713   4.117
 3791SOL     OW12124   2.989   1.341   5.414
 3791SOL    HW112125   3.036   1.341   5.502
 3791SOL    HW212126   2.941   1.254   5.403
 3792SOL     OW12127   2.092   1.434   4.262
 3792SOL    HW112128   2.066   1.530   4.262
 3792SOL    HW212129   2.021   1.380   4.307
 3793SOL     OW12130   2.102   1.091   4.610
 3793SOL    HW112131   2.116   1.007   4.662
 3793SOL    HW212132   2.047   1.155   4.665
 3794SOL     OW12133   2.482   1.786   5.163
 3794SOL    HW112134   2.390   1.769   5.198
 3794SOL    HW212135   2.510   1.878   5.189
 3795SOL     OW12136   2.468   0.964   3.847
 3795SOL    HW112137   2.475   1.048   3.793
 3795SOL    HW212138   2.514   0.977   3.935
 3796SOL     OW12139   3.456   0.114   5.204
 3796SOL    HW112140   3.438   0.181   5.132
 3796SOL    HW212141   3.453   0.160   5.293
 3797SOL     OW12142   1.984   0.643   4.287
 3797SOL    HW112143   1.939   0.555   4.304
 3797SOL    HW212144   1.983   0.697   4.371
 3798SOL     OW12145   3.704   1.767   4.083
 3798SOL    HW112146   3.758   1.738   4.163
 3798SOL    HW212147   3.734   1.857   4.054
 3799SOL     OW12148   1.889   1.596   3.841
 3799SOL    HW112149   1.870   1.500   3.862
 3799SOL    HW212150   1.856   1.654   3.916
 3800SOL     OW12151   3.551   0.922   4.336
 3800SOL    HW112152   3.646   0.893   4.344
 3800SOL    HW212153   3.543   0.987   4.261
 3801SOL     OW12154   3.503   1.108   4.156
 3801SOL    HW112155   3.589   1.110   4.104
 3801SOL    HW212156   3.517   1.155   4.244
 3802SOL     OW12157   1.975   0.737   5.321
 3802SOL    HW112158   2.063   0.724   5.366
 3802SOL    HW212159   1.962   0.834   5.299
 3803SOL     OW12160   2.475   1.365   4.450
 3803SOL    HW112161   2.426   1.278   4.459
 3803SOL    HW212162   2.452   1.408   4.363
 3804SOL     OW12163   3.155   1.228   5.147
 3804SOL    HW112164   3.192   1.155   5.089
 3804SOL    HW212165   3.207   1.233   5.232
 3805SOL     OW12166   2.671   0.004   4.226
 3805SOL    HW112167   2.711   0.095   4.217
 3805SOL    HW212168   2.571   0.012   4.232
 3806SOL     OW12169   2.059   0.976   4.988
 3806SOL    HW112170   2.148   0.931   4.974
 3806SOL    HW212171   1.986   0.911   4.969
 3807SOL     OW12172   3.387   0.999   3.914
 3807SOL    HW112173   3.324   0.923   3.927
 3807SOL    HW212174   3.435   1.017   4.000
 3808SOL     OW12175   3.049   1.792   5.340
 3808SOL    HW112176   3.073   1.852   5.264
 3808SOL    HW212177   3.056   1.697   5.310
 3809SOL     OW12178   2.179   0.251   5.525
 3809SOL    HW112179   2.250   0.322   5.531
 3809SOL    HW212180   2.091   0.290   5.553
 3810SOL     OW12181   3.328   1.417   4.677
 3810SOL    HW112182   3.269   1.423   4.757
 3810SOL    HW212183   3.313   1.329   4.631
 3811SOL     OW12184   3.529   1.714   4.296
 3811SOL    HW112185   3.488   1.691   4.208
 3811SOL    HW212186   3.511   1.640   4.361
 3812SOL     OW12187   2.460   0.729   3.994
 3812SOL    HW112188   2.484   0.798   3.926
 3812SOL    HW212189   2.382   0.762   4.048
 3813SOL     OW12190   3.143   0.345   4.668
 3813SOL    HW112191   3.057   0.295   4.655
 3813SOL    HW212192   3.205   0.291   4.724
 3814SOL     OW12193   3.438   1.662   4.031
 3814SOL    HW112194   3.527   1.708   4.034
 3814SOL    HW212195   3.417   1.638   3.936
 3815SOL     OW12196   2.669   0.605   5.189
 3815SOL    HW112197   2.622   0.602   5.278
 3815SOL    HW212198   2.618   0.550   5.123
 3816SOL     OW12199   3.256   0.469   5.398
 3816SOL    HW112200   3.236   0.512   5.486
 3816SOL    HW212201   3.334   0.407   5.407
 3817SOL     OW12202   2.835   0.890   5.296
 3817SOL    HW112203   2.881   0.806   5.267
 3817SOL    HW212204   2.779   0.924   5.221
 3818SOL     OW12205   2.853   0.410   4.966
 3818SOL    HW112206   2.776   0.444   5.020
 3818SOL    HW212207   2.819   0.359   4.887
 3819SOL     OW12208   2.903   0.701   4.153
 3819SOL    HW112209   2.929   0.697   4.249
 3819SOL    HW212210   2.818   0.650   4.139
 3820SOL     OW12211   1.938   0.811   4.513
 3820SOL    HW112212   2.037   0.799   4.522
 3820SOL    HW212213   1.914   0.906   4.534
 3821SOL     OW12214   2.727   0.348   3.919
 3821SOL    HW112215   2.786   0.411   3.870
 3821SOL    HW212216   2.746   0.254   3.890
 3822SOL     OW12217   3.581   0.585   5.555
 3822SOL    HW112218   3.555   0.674   5.519
 3822SOL    HW212219   3.579   0.517   5.482
 3823SOL     OW12220   3.224   1.144   4.269
 3823SOL    HW112221   3.307   1.115   4.221
 3823SOL    HW212222   3.175   1.211   4.213
 3824SOL     OW12223   2.412   0.196   4.609
 3824SOL    HW112224   2.407   0.191   4.709
 3824SOL    HW212225   2.414   0.292   4.580
 3825SOL     OW12226   2.870   1.456   4.201
 3825SOL    HW112227   2.824   1.528   4.149
 3825SOL    HW212228   2.866   1.476   4.299
 3826SOL     OW12229   2.213   1.801   4.577
 3826SOL    HW112230   2.263   1.715   4.583
 3826SOL    HW212231   2.278   1.878   4.574
 3827SOL     OW12232   3.657   1.066   4.597
 3827SOL    HW112233   3.595   1.051   4.521
 3827SOL    HW212234   3.605   1.077   4.682
 3828SOL     OW12235   3.089   1.550   5.230
 3828SOL    HW112236   3.095   1.473   5.294
 3828SOL    HW212237   3.037   1.524   5.150
 3829SOL     OW12238   2.183   0.943   3.966
 3829SOL    HW112239   2.265   0.982   3.924
 3829SOL    HW212240   2.156   0.861   3.917
 3830SOL     OW12241   3.320   0.735   4.452
 3830SOL    HW112242   3.315   0.670   4.527
 3830SOL    HW212243   3.400   0.794   4.465
 3831SOL     OW12244   2.323   1.266   5.451
 3831SOL    HW112245   2.273   1.267   5.365
 3831SOL    HW212246   2.260   1.248   5.527
 3832SOL     OW12247   2.973   1.776   3.961
 3832SOL    HW112248   2.913   1.714   4.011
 3832SOL    HW212249   3.004   1.732   3.876
 3833SOL     OW12250   2.064   0.285   5.222
 3833SOL    HW112251   1.984   0.345   5.209
 3833SOL    HW212252   2.054   0.236   5.308
 3834SOL     OW12253   3.494   1.377   3.805
 3834SOL    HW112254   3.462   1.471   3.795
 3834SOL    HW212255   3.418   1.314   3.793
 3835SOL     OW12256   2.326   1.743   4.047
 3835SOL    HW112257   2.359   1.782   4.133
 3835SOL    HW212258   2.402   1.736   3.982
 3836SOL     OW12259   3.262   0.107   4.150
 3836SOL    HW112260   3.238   0.070   4.060
 3836SOL    HW212261   3.361   0.123   4.154
 3837SOL     OW12262   2.111   1.785   4.965
 3837SOL    HW112263   2.168   1.720   5.015
 3837SOL    HW212264   2.095   1.752   4.872
 3838SOL     OW12265   2.802   1.698   4.628
 3838SOL    HW112266   2.882   1.641   4.649
 3838SOL    HW212267   2.753   1.658   4.551
 3839SOL     OW12268   2.244   0.700   4.204
 3839SOL    HW112269   2.289   0.610   4.201
 3839SOL    HW212270   2.150   0.689   4.237
 3840SOL     OW12271   3.409   0.222   5.453
 3840SOL    HW112272   3.404   0.259   5.545
 3840SOL    HW212273   3.337   0.153   5.441
 3841SOL     OW12274   2.476   0.122   3.841
 3841SOL    HW112275   2.574   0.100   3.848
 3841SOL    HW212276   2.445   0.105   3.748
 3842SOL     OW12277   2.643   0.264   5.473
 3842SOL    HW112278   2.710   0.203   5.516
 3842SOL    HW212279   2.570   0.283   5.538
 3843SOL     OW12280   2.750   1.514   4.919
 3843SOL    HW112281   2.727   1.489   4.825
 3843SOL    HW212282   2.811   1.445   4.958
 3844SOL     OW12283   3.213   0.590   5.157
 3844SOL    HW112284   3.241   0.547   5.242
 3844SOL    HW212285   3.238   0.686   5.158
 3845SOL     OW12286   2.665   1.402   4.648
 3845SOL    HW112287   2.755   1.416   4.606
 3845SOL    HW212288   2.594   1.404   4.577
 3846SOL     OW12289   2.784   0.503   4.623
 3846SOL    HW112290   2.759   0.494   4.527
 3846SOL    HW212291   2.832   0.421   4.654
 3847SOL     OW12292   2.401   0.064   4.236
 3847SOL    HW112293   2.320   0.065   4.294
 3847SOL    HW212294   2.404   0.147   4.181
 3848SOL     OW12295   3.296   1.188   3.765
 3848SOL    HW112296   3.328   1.112   3.822
 3848SOL    HW212297   3.204   1.215   3.795
 3849SOL     OW12298   2.159   0.035   3.895
 3849SOL    HW112299   2.208   0.119   3.874
 3849SOL    HW212300   2.221  -0.030   3.940
 3850SOL     OW12301   2.797   0.236   4.204
 3850SOL    HW112302   2.749   0.277   4.126
 3850SOL    HW212303   2.896   0.234   4.185
 3851SOL     OW12304   2.938   0.683   5.188
 3851SOL    HW112305   2.858   0.622   5.191
 3851SOL    HW212306   3.019   0.630   5.164
 3852SOL     OW12307   3.089   1.570   4.517
 3852SOL    HW112308   3.110   1.644   4.452
 3852SOL    HW212309   3.157   1.570   4.590
 3853SOL     OW12310   2.321   1.152   4.465
 3853SOL    HW112311   2.250   1.125   4.530
 3853SOL    HW212312   2.295   1.124   4.372
 3854SOL     OW12313   3.133   1.797   4.315
 3854SOL    HW112314   3.177   1.861   4.251
 3854SOL    HW212315   3.083   1.849   4.385
 3855SOL     OW12316   2.894   0.549   3.740
 3855SOL    HW112317   2.853   0.631   3.701
 3855SOL    HW212318   2.958   0.575   3.813
 3856SOL     OW12319   1.940   0.556   5.110
 3856SOL    HW112320   2.032   0.555   5.069
 3856SOL    HW212321   1.934   0.630   5.177
 3857SOL     OW12322   2.423   0.222   4.871
 3857SOL    HW112323   2.461   0.138   4.908
 3857SOL    HW212324   2.335   0.241   4.915
 3858SOL     OW12325   2.728   0.454   4.366
 3858SOL    HW112326   2.696   0.526   4.304
 3858SOL    HW212327   2.752   0.373   4.313
 3859SOL     OW12328   2.879   0.039   4.477
 3859SOL    HW112329   2.807   0.044   4.408
 3859SOL    HW212330   2.855  -0.030   4.546
 3860SOL     OW12331   3.291   1.173   4.591
 3860SOL    HW112332   3.236   1.089   4.584
 3860SOL    HW212333   3.317   1.202   4.499
 3861SOL     OW12334   3.328   0.590   4.716
 3861SOL    HW112335   3.298   0.495   4.723
 3861SOL    HW212336   3.401   0.606   4.782
 3862SOL     OW12337   3.719   0.833   4.101
 3862SOL    HW112338   3.761   0.769   4.165
 3862SOL    HW212339   3.681   0.782   4.023
 3863SOL     OW12340   2.350   1.385   3.898
 3863SOL    HW112341   2.263   1.370   3.945
 3863SOL    HW212342   2.333   1.411   3.803
 3864SOL     OW12343   3.526   1.280   4.381
 3864SOL    HW112344   3.625   1.288   4.395
 3864SOL    HW212345   3.481   1.364   4.412
 3865SOL     OW12346   3.252   0.575   3.802
 3865SOL    HW112347   3.198   0.554   3.883
 3865SOL    HW212348   3.343   0.534   3.811
 3866SOL     OW12349   2.389   0.256   4.052
 3866SOL    HW112350   2.416   0.197   3.977
 3866SOL    HW212351   2.389   0.351   4.021
 3867SOL     OW12352   3.616   1.223   5.312
 3867SOL    HW112353   3.707   1.184   5.299
 3867SOL    HW212354   3.624   1.319   5.336
 3868SOL     OW12355   2.926   1.347   5.064
 3868SOL    HW112356   2.846   1.324   5.119
 3868SOL    HW212357   3.009   1.321   5.113
 3869SOL     OW12358   3.454   1.629   5.349
 3869SOL    HW112359   3.481   1.663   5.259
 3869SOL    HW212360   3.533   1.591   5.395
 3870SOL     OW12361   2.973   1.195   4.824
 3870SOL    HW112362   2.933   1.239   4.905
 3870SOL    HW212363   2.932   1.232   4.741
 3871SOL     OW12364   3.500   1.099   4.803
 3871SOL    HW112365   3.505   1.180   4.862
 3871SOL    HW212366   3.414   1.101   4.752
 3872SOL     OW12367   2.777   0.089   5.126
 3872SOL    HW112368   2.802   0.069   5.031
 3872SOL    HW212369   2.849   0.145   5.168
 3873SOL     OW12370   2.842   1.116   5.443
 3873SOL    HW112371   2.743   1.122   5.453
 3873SOL    HW212372   2.865   1.036   5.387
 3874SOL     OW12373   2.567   1.050   4.092
 3874SOL    HW112374   2.553   1.057   4.191
 3874SOL    HW212375   2.651   0.999   4.074
 3875SOL     OW12376   2.272   0.813   4.975
 3875SOL    HW112377   2.358   0.825   5.025
 3875SOL    HW212378   2.230   0.726   5.002
 3876SOL     OW12379   3.136   0.386   4.986
 3876SOL    HW112380   3.157   0.460   5.050
 3876SOL    HW212381   3.047   0.403   4.943
 3877SOL     OW12382   2.229   1.100   4.225
 3877SOL    HW112383   2.222   1.183   4.169
 3877SOL    HW212384   2.233   1.020   4.165
 3878SOL     OW12385   2.428   0.537   4.589
 3878SOL    HW112386   2.440   0.603   4.515
 3878SOL    HW212387   2.474   0.571   4.672
 3879SOL     OW12388   3.114   1.348   4.112
 3879SOL    HW112389   3.164   1.425   4.152
 3879SOL    HW212390   3.019   1.350   4.144
 3880SOL     OW12391   3.134   1.445   4.866
 3880SOL    HW112392   3.181   1.458   4.953
 3880SOL    HW212393   3.068   1.371   4.875
 3881SOL     OW12394   3.444   0.639   4.196
 3881SOL    HW112395   3.413   0.700   4.269
 3881SOL    HW212396   3.494   0.691   4.127
 3882SOL     OW12397   2.216   1.510   5.053
 3882SOL    HW112398   2.195   1.466   4.966
 3882SOL    HW212399   2.313   1.536   5.056
 3883SOL     OW12400   2.264   0.751   5.322
 3883SOL    HW112401   2.332   0.806   5.275
 3883SOL    HW212402   2.304   0.663   5.349
 3884SOL     OW12403   3.449   0.779   5.394
 3884SOL    HW112404   3.357   0.817   5.389
 3884SOL    HW212405   3.509   0.826   5.329
 3885SOL     OW12406   2.875   0.105   5.494
 3885SOL    HW112407   2.881   0.190   5.442
 3885SOL    HW212408   2.907   0.029   5.437
 3886SOL     OW12409   2.366   0.050   5.464
 3886SOL    HW112410   2.324  -0.007   5.394
 3886SOL    HW212411   2.300   0.119   5.496
 3887SOL     OW12412   2.435   0.870   4.753
 3887SOL    HW112413   2.479   0.959   4.744
 3887SOL    HW212414   2.372   0.870   4.830
 3888SOL     OW12415   3.222   0.862   4.769
 3888SOL    HW112416   3.147   0.862   4.703
 3888SOL    HW212417   3.259   0.770   4.778
 3889SOL     OW12418   3.071   0.525   3.999
 3889SOL    HW112419   3.084   0.441   4.053
 3889SOL    HW212420   3.042   0.599   4.059
 3890SOL     OW12421   2.169   0.213   4.955
 3890SOL    HW112422   2.146   0.250   5.045
 3890SOL    HW212423   2.139   0.118   4.949
 3891SOL     OW12424   1.899   1.310   5.006
 3891SOL    HW112425   1.952   1.261   5.074
 3891SOL    HW212426   1.921   1.408   5.011
 3892SOL     OW12427   2.594   0.634   4.788
 3892SOL    HW112428   2.653   0.608   4.712
 3892SOL    HW212429   2.566   0.730   4.777
 3893SOL     OW12430   3.590   0.935   5.578
 3893SOL    HW112431   3.544   0.928   5.489
 3893SOL    HW212432   3.528   0.979   5.644
 3894SOL     OW12433   2.169   0.063   4.342
 3894SOL    HW112434   2.158   0.157   4.375
 3894SOL    HW212435   2.164   0.000   4.419
 3895SOL     OW12436   3.484   0.367   4.098
 3895SOL    HW112437   3.486   0.291   4.162
 3895SOL    HW212438   3.436   0.444   4.138
 3896SOL     OW12439   2.885   0.766   4.690
 3896SOL    HW112440   2.900   0.787   4.786
 3896SOL    HW212441   2.855   0.671   4.681
 3897SOL     OW12442   2.842   1.573   5.424
 3897SOL    HW112443   2.822   1.617   5.336
 3897SOL    HW212444   2.881   1.482   5.408
 3898SOL     OW12445   3.721   1.518   5.329
 3898SOL    HW112446   3.735   1.545   5.234
 3898SOL    HW212447   3.804   1.540   5.382
 3899SOL     OW12448   2.212   0.898   5.528
 3899SOL    HW112449   2.288   0.942   5.576
 3899SOL    HW212450   2.247   0.851   5.446
 3900SOL     OW12451   3.402   0.274   3.849
 3900SOL    HW112452   3.341   0.199   3.872
 3900SOL    HW212453   3.424   0.326   3.932
 3901SOL     OW12454   3.165   0.838   3.766
 3901SOL    HW112455   3.199   0.745   3.781
 3901SOL    HW212456   3.183   0.865   3.671
 3902SOL     OW12457   2.930   1.333   4.573
 3902SOL    HW112458   2.937   1.249   4.518
 3902SOL    HW212459   2.992   1.402   4.537
 3903SOL     OW12460   2.181   0.810   4.673
 3903SOL    HW112461   2.274   0.846   4.678
 3903SOL    HW212462   2.175   0.725   4.725
 3904SOL     OW12463   2.201   0.509   4.730
 3904SOL    HW112464   2.149   0.426   4.713
 3904SOL    HW212465   2.278   0.514   4.666
 3905SOL     OW12466   3.000   0.380   5.402
 3905SOL    HW112467   2.955   0.443   5.466
 3905SOL    HW212468   3.093   0.411   5.385
 3906SOL     OW12469   3.022   0.207   5.201
 3906SOL    HW112470   3.022   0.271   5.278
 3906SOL    HW212471   3.050   0.255   5.118
 3907SOL     OW12472   1.870   1.326   3.924
 3907SOL    HW112473   1.777   1.347   3.893
 3907SOL    HW212474   1.880   1.227   3.937
 3908SOL     OW12475   2.366   1.568   4.634
 3908SOL    HW112476   2.432   1.642   4.643
 3908SOL    HW212477   2.410   1.489   4.592
 3909SOL     OW12478   2.864   0.796   4.962
 3909SOL    HW112479   2.905   0.764   5.048
 3909SOL    HW212480   2.768   0.769   4.959
 3910SOL     OW12481   1.902   0.544   4.838
 3910SOL    HW112482   1.987   0.511   4.797
 3910SOL    HW212483   1.915   0.559   4.936
 3911SOL     OW12484   2.051   0.520   5.446
 3911SOL    HW112485   2.110   0.480   5.376
 3911SOL    HW212486   1.993   0.591   5.405
 3912SOL     OW12487   3.231   0.950   5.384
 3912SOL    HW112488   3.270   1.039   5.404
 3912SOL    HW212489   3.241   0.930   5.287
 3913SOL     OW12490   2.677   0.572   4.049
 3913SOL    HW112491   2.684   0.483   4.003
 3913SOL    HW212492   2.583   0.606   4.041
 3914SOL     OW12493   3.519   0.604   4.930
 3914SOL    HW112494   3.481   0.535   4.992
 3914SOL    HW212495   3.601   0.568   4.886
 3915SOL     OW12496   2.114   1.564   5.468
 3915SOL    HW112497   2.084   1.621   5.544
 3915SOL    HW212498   2.107   1.467   5.494
 3916SOL     OW12499   2.533   0.464   4.993
 3916SOL    HW112500   2.499   0.375   4.963
 3916SOL    HW212501   2.559   0.518   4.913
 3917SOL     OW12502   2.792   1.678   5.189
 3917SOL    HW112503   2.768   1.660   5.094
 3917SOL    HW212504   2.822   1.772   5.199
 3918SOL     OW12505   2.335   0.500   3.915
 3918SOL    HW112506   2.396   0.580   3.919
 3918SOL    HW212507   2.240   0.531   3.922
 3919SOL     OW12508   2.021   1.137   5.190
 3919SOL    HW112509   2.043   1.076   5.266
 3919SOL    HW212510   2.031   1.088   5.104
 3920SOL     OW12511   3.209   1.059   4.958
 3920SOL    HW112512   3.233   0.996   4.884
 3920SOL    HW212513   3.119   1.099   4.940
 3921SOL     OW12514   3.164   0.855   4.033
 3921SOL    HW112515   3.078   0.824   4.075
 3921SOL    HW212516   3.160   0.841   3.934
 3922SOL     OW12517   3.621   1.747   4.878
 3922SOL    HW112518   3.682   1.777   4.805
 3922SOL    HW212519   3.583   1.658   4.856
 3923SOL     OW12520   3.114   1.731   4.852
 3923SOL    HW112521   3.198   1.736   4.798
 3923SOL    HW212522   3.091   1.635   4.870
 3924SOL     OW12523   1.945   1.258   4.746
 3924SOL    HW112524   1.940   1.257   4.846
 3924SOL    HW212525   1.862   1.217   4.708
 3925SOL     OW12526   2.550   1.662   5.440
 3925SOL    HW112527   2.494   1.743   5.449
 3925SOL    HW212528   2.602   1.666   5.354
 3926SOL     OW12529   3.588   0.135   4.247
 3926SOL    HW112530   3.661   0.118   4.180
 3926SOL    HW212531   3.557   0.048   4.285
 3927SOL     OW12532   3.250   1.573   4.201
 3927SOL    HW112533   3.317   1.585   4.127
 3927SOL    HW212534   3.210   1.662   4.224
 3928SOL     OW12535   3.142   0.927   4.396
 3928SOL    HW112536   3.202   0.846   4.398
 3928SOL    HW212537   3.182   0.996   4.336
 3929SOL     OW12538   2.692   1.273   5.146
 3929SOL    HW112539   2.687   1.306   5.241
 3929SOL    HW212540   2.606   1.292   5.100
 3930SOL     OW12541   2.534   1.616   3.878
 3930SOL    HW112542   2.543   1.626   3.779
 3930SOL    HW212543   2.494   1.527   3.899
 3931SOL     OW12544   3.512   1.720   5.118
 3931SOL    HW112545   3.565   1.730   5.034
 3931SOL    HW212546   3.485   1.810   5.152
 3932SOL     OW12547   3.703   0.175   4.687
 3932SOL    HW112548   3.742   0.090   4.651
 3932SOL    HW212549   3.605   0.177   4.668
 3933SOL     OW12550   2.125   0.326   4.444
 3933SOL    HW112551   2.046   0.377   4.410
 3933SOL    HW212552   2.116   0.311   4.542
 3934SOL     OW12553   3.056   1.612   3.755
 3934SOL    HW112554   3.062   1.519   3.792
 3934SOL    HW212555   2.997   1.612   3.675
 3935SOL     OW12556   2.684   1.002   5.096
 3935SOL    HW112557   2.724   1.001   5.004
 3935SOL    HW212558   2.694   1.094   5.136
 3936SOL     OW12559   2.778   0.910   4.015
 3936SOL    HW112560   2.841   0.948   3.947
 3936SOL    HW212561   2.818   0.827   4.054
 3937SOL     OW12562   3.366   1.607   3.768
 3937SOL    HW112563   3.274   1.644   3.775
 3937SOL    HW212564   3.404   1.627   3.678
 3938SOL     OW12565   2.234   1.288   5.214
 3938SOL    HW112566   2.221   1.381   5.180
 3938SOL    HW212567   2.150   1.236   5.201
 3939SOL     OW12568   3.476   1.292   5.013
 3939SOL    HW112569   3.536   1.295   5.093
 3939SOL    HW212570   3.401   1.356   5.026
 3940SOL     OW12571   2.901   1.098   4.420
 3940SOL    HW112572   2.831   1.051   4.474
 3940SOL    HW212573   2.960   1.030   4.377
 3941SOL     OW12574   2.876   0.236   4.695
 3941SOL    HW112575   2.868   0.200   4.602
 3941SOL    HW212576   2.874   0.160   4.760
 3942SOL     OW12577   2.452   1.487   4.215
 3942SOL    HW112578   2.494   1.429   4.145
 3942SOL    HW212579   2.408   1.566   4.171
 3943SOL     OW12580   3.571   0.385   5.105
 3943SOL    HW112581   3.644   0.454   5.109
 3943SOL    HW212582   3.599   0.310   5.046
 3944SOL     OW12583   2.117   1.348   4.014
 3944SOL    HW112584   2.021   1.349   3.987
 3944SOL    HW212585   2.129   1.401   4.098
 3945SOL     OW12586   1.967   1.013   5.450
 3945SOL    HW112587   1.890   0.980   5.504
 3945SOL    HW212588   2.052   0.983   5.492
 3946SOL     OW12589   2.534   0.203   5.213
 3946SOL    HW112590   2.624   0.187   5.173
 3946SOL    HW212591   2.542   0.208   5.312
 3947SOL     OW12592   1.937   0.345   3.757
 3947SOL    HW112593   1.845   0.317   3.728
 3947SOL    HW212594   1.968   0.422   3.701
 3948SOL     OW12595   3.302   0.856   5.122
 3948SOL    HW112596   3.245   0.908   5.059
 3948SOL    HW212597   3.398   0.868   5.098
 3949SOL     OW12598   1.934   0.166   4.042
 3949SOL    HW112599   1.917   0.249   3.988
 3949SOL    HW212600   2.024   0.129   4.020
 3950SOL     OW12601   3.045   1.335   3.843
 3950SOL    HW112602   2.946   1.324   3.845
 3950SOL    HW212603   3.079   1.350   3.936
 3951SOL     OW12604   2.475   0.842   5.155
 3951SOL    HW112605   2.531   0.923   5.138
 3951SOL    HW212606   2.534   0.762   5.158
 3952SOL     OW12607   3.355   1.767   4.683
 3952SOL    HW112608   3.388   1.831   4.614
 3952SOL    HW212609   3.421   1.761   4.758
 3953SOL     OW12610   2.578   0.565   5.432
 3953SOL    HW112611   2.597   0.630   5.506
 3953SOL    HW212612   2.638   0.485   5.441
 3954SOL     OW12613   3.312   1.220   5.357
 3954SOL    HW112614   3.303   1.210   5.456
 3954SOL    HW212615   3.408   1.213   5.331
 3955SOL     OW12616   2.252   1.741   5.284
 3955SOL    HW112617   2.161   1.782   5.282
 3955SOL    HW212618   2.245   1.647   5.316
 3956SOL     OW12619   3.536   0.883   4.978
 3956SOL    HW112620   3.509   0.794   4.941
 3956SOL    HW212621   3.537   0.951   4.905
 3957SOL     OW12622   3.087   0.325   4.173
 3957SOL    HW112623   3.152   0.251   4.162
 3957SOL    HW212624   3.107   0.375   4.257
 3958SOL     OW12625   2.456   0.745   4.376
 3958SOL    HW112626   2.506   0.830   4.357
 3958SOL    HW212627   2.368   0.747   4.328
 3959SOL     OW12628   3.639   0.342   5.366
 3959SOL    HW112629   3.622   0.373   5.272
 3959SOL    HW212630   3.555   0.305   5.404
 3960SOL     OW12631   3.592   0.934   5.241
 3960SOL    HW112632   3.630   1.025   5.256
 3960SOL    HW212633   3.584   0.917   5.142
 3961SOL     OW12634   2.721   1.374   3.740
 3961SOL    HW112635   2.675   1.389   3.828
 3961SOL    HW212636   2.765   1.459   3.710
 3962SOL     OW12637   2.523   1.790   4.677
 3962SOL    HW112638   2.477   1.878   4.664
 3962SOL    HW212639   2.622   1.802   4.670
 3963SOL     OW12640   2.721   0.956   4.585
 3963SOL    HW112641   2.775   0.887   4.633
 3963SOL    HW212642   2.689   1.025   4.651
 3964SOL     OW12643   2.945   0.984   3.811
 3964SOL    HW112644   2.922   1.037   3.729
 3964SOL    HW212645   3.026   0.928   3.792
 3965SOL     OW12646   3.723   1.569   4.575
 3965SOL    HW112647   3.652   1.557   4.505
 3965SOL    HW212648   3.724   1.490   4.635
 3966SOL     OW12649   2.083   1.314   5.568
 3966SOL    HW112650   2.018   1.241   5.547
 3966SOL    HW212651   2.087   1.328   5.666
 3967SOL     OW12652   1.941   1.240   4.377
 3967SOL    HW112653   1.940   1.193   4.465
 3967SOL    HW212654   2.023   1.212   4.326
 3968SOL     OW12655   2.534   1.391   5.348
 3968SOL    HW112656   2.456   1.341   5.386
 3968SOL    HW212657   2.531   1.486   5.379
 3969SOL     OW12658   3.686   0.192   4.951
 3969SOL    HW112659   3.682   0.102   4.995
 3969SOL    HW212660   3.689   0.181   4.852
 3970SOL     OW12661   2.290   0.424   4.244
 3970SOL    HW112662   2.320   0.352   4.182
 3970SOL    HW212663   2.251   0.384   4.327
 3971SOL     OW12664   3.567   1.487   4.828
 3971SOL    HW112665   3.474   1.462   4.801
 3971SOL    HW212666   3.593   1.437   4.910
 3972SOL     OW12667   2.179   0.547   5.004
 3972SOL    HW112668   2.217   0.488   5.076
 3972SOL    HW212669   2.219   0.521   4.916
 3973SOL     OW12670   2.674   1.586   4.411
 3973SOL    HW112671   2.706   1.596   4.317
 3973SOL    HW212672   2.595   1.524   4.413
 3974SOL     OW12673   3.286   0.214   4.836
 3974SOL    HW112674   3.338   0.149   4.891
 3974SOL    HW212675   3.237   0.277   4.897
 3975SOL     OW12676   2.863   0.034   4.878
 3975SOL    HW112677   2.800  -0.038   4.847
 3975SOL    HW212678   2.956  -0.002   4.878
 3976SOL     OW12679   2.632   1.330   4.025
 3976SOL    HW112680   2.586   1.243   4.042
 3976SOL    HW212681   2.723   1.327   4.066
 3977SOL     OW12682   2.480   1.567   5.008
 3977SOL    HW112683   2.475   1.649   5.065
 3977SOL    HW212684   2.569   1.564   4.963
 3978SOL     OW12685   3.214   0.052   3.892
 3978SOL    HW112686   3.249   0.011   3.808
 3978SOL    HW212687   3.124   0.014   3.912
 3979SOL     OW12688   3.162   0.453   4.415
 3979SOL    HW112689   3.103   0.533   4.419
 3979SOL    HW212690   3.177   0.418   4.508
 3980SOL     OW12691   3.455   0.221   4.606
 3980SOL    HW112692   3.371   0.220   4.660
 3980SOL    HW212693   3.457   0.304   4.550
 3981SOL     OW12694   1.901   1.077   4.024
 3981SOL    HW112695   2.000   1.066   4.015
 3981SOL    HW212696   1.861   0.991   4.056
 3982SOL     OW12697   2.737   1.646   4.061
 3982SOL    HW112698   2.660   1.611   4.007
 3982SOL    HW212699   2.705   1.717   4.123
 3983SOL     OW12700   2.092   0.628   5.699
 3983SOL    HW112701   1.999   0.626   5.736
 3983SOL    HW212702   2.093   0.589   5.607
 3984SOL     OW12703   2.087   0.275   6.582
 3984SOL    HW112704   2.122   0.258   6.674
 3984SOL    HW212705   1.999   0.230   6.570
 3985SOL     OW12706   1.881   0.368   6.233
 3985SOL    HW112707   1.799   0.411   6.272
 3985SOL    HW212708   1.853   0.295   6.170
 3986SOL     OW12709   2.431   1.275   6.751
 3986SOL    HW112710   2.338   1.268   6.714
 3986SOL    HW212711   2.442   1.364   6.795
 3987SOL     OW12712   3.417   1.511   6.289
 3987SOL    HW112713   3.360   1.495   6.370
 3987SOL    HW212714   3.358   1.521   6.209
 3988SOL     OW12715   2.997   0.703   6.303
 3988SOL    HW112716   3.054   0.781   6.278
 3988SOL    HW212717   2.937   0.729   6.379
 3989SOL     OW12718   3.617   0.607   5.817
 3989SOL    HW112719   3.605   0.594   5.718
 3989SOL    HW212720   3.587   0.526   5.866
 3990SOL     OW12721   2.630   1.144   6.609
 3990SOL    HW112722   2.552   1.161   6.669
 3990SOL    HW212723   2.664   1.231   6.573
 3991SOL     OW12724   2.712   0.798   7.409
 3991SOL    HW112725   2.708   0.874   7.474
 3991SOL    HW212726   2.734   0.834   7.318
 3992SOL     OW12727   2.547   1.012   6.251
 3992SOL    HW112728   2.616   0.996   6.321
 3992SOL    HW212729   2.474   1.069   6.289
 3993SOL     OW12730   2.548   1.161   7.389
 3993SOL    HW112731   2.608   1.240   7.403
 3993SOL    HW212732   2.462   1.192   7.348
 3994SOL     OW12733   3.322   1.505   6.925
 3994SOL    HW112734   3.346   1.599   6.951
 3994SOL    HW212735   3.306   1.451   7.007
 3995SOL     OW12736   2.300   0.392   7.085
 3995SOL    HW112737   2.382   0.336   7.094
 3995SOL    HW212738   2.219   0.334   7.089
 3996SOL     OW12739   3.465   0.447   6.323
 3996SOL    HW112740   3.391   0.493   6.273
 3996SOL    HW212741   3.516   0.515   6.376
 3997SOL     OW12742   2.989   1.341   7.276
 3997SOL    HW112743   3.036   1.341   7.364
 3997SOL    HW212744   2.941   1.254   7.265
 3998SOL     OW12745   2.102   1.091   6.472
 3998SOL    HW112746   2.116   1.007   6.524
 3998SOL    HW212747   2.047   1.155   6.527
 3999SOL     OW12748   2.482   1.786   7.025
 3999SOL    HW112749   2.390   1.769   7.060
 3999SOL    HW212750   2.510   1.878   7.051
 4000SOL     OW12751   2.468   0.964   5.709
 4000SOL    HW112752   2.475   1.048   5.655
 4000SOL    HW212753   2.514   0.977   5.797
 4001SOL     OW12754   3.456   0.114   7.066
 4001SOL    HW112755   3.438   0.181   6.994
 4001SOL    HW212756   3.453   0.160   7.155
 4002SOL     OW12757   1.984   0.643   6.149
 4002SOL    HW112758   1.939   0.555   6.166
 4002SOL    HW212759   1.983   0.697   6.233
 4003SOL     OW12760   3.704   1.767   5.945
 4003SOL    HW112761   3.758   1.738   6.025
 4003SOL    HW212762   3.734   1.857   5.916
 4004SOL     OW12763   1.889   1.596   5.703
 4004SOL    HW112764   1.870   1.500   5.724
 4004SOL    HW212765   1.856   1.654   5.778
 4005SOL     OW12766   3.551   0.922   6.198
 4005SOL    HW112767   3.646   0.893   6.206
 4005SOL    HW212768   3.543   0.987   6.123
 4006SOL     OW12769   3.503   1.108   6.018
 4006SOL    HW112770   3.589   1.110   5.966
 4006SOL    HW212771   3.517   1.155   6.106
 4007SOL     OW12772   1.975   0.737   7.183
 4007SOL    HW112773   2.063   0.724   7.228
 4007SOL    HW212774   1.962   0.834   7.161
 4008SOL     OW12775   3.155   1.228   7.009
 4008SOL    HW112776   3.192   1.155   6.951
 4008SOL    HW212777   3.207   1.233   7.094
 4009SOL     OW12778   2.671   0.004   6.088
 4009SOL    HW112779   2.711   0.095   6.079
 4009SOL    HW212780   2.571   0.012   6.094
 4010SOL     OW12781   2.059   0.976   6.850
 4010SOL    HW112782   2.148   0.931   6.836
 4010SOL    HW212783   1.986   0.911   6.831
 4011SOL     OW12784   3.387   0.999   5.776
 4011SOL    HW112785   3.324   0.923   5.789
 4011SOL    HW212786   3.435   1.017   5.862
 4012SOL     OW12787   3.049   1.792   7.202
 4012SOL    HW112788   3.073   1.852   7.126
 4012SOL    HW212789   3.056   1.697   7.172
 4013SOL     OW12790   2.179   0.251   7.387
 4013SOL    HW112791   2.250   0.322   7.393
 4013SOL    HW212792   2.091   0.290   7.415
 4014SOL     OW12793   3.328   1.417   6.539
 4014SOL    HW112794   3.269   1.423   6.619
 4014SOL    HW212795   3.313   1.329   6.493
 4015SOL     OW12796   3.529   1.714   6.158
 4015SOL    HW112797   3.488   1.691   6.070
 4015SOL    HW212798   3.511   1.640   6.223
 4016SOL     OW12799   2.460   0.729   5.856
 4016SOL    HW112800   2.484   0.798   5.788
 4016SOL    HW212801   2.382   0.762   5.910
 4017SOL     OW12802   3.143   0.345   6.530
 4017SOL    HW112803   3.057   0.295   6.517
 4017SOL    HW212804   3.205   0.291   6.586
 4018SOL     OW12805   3.438   1.662   5.893
 4018SOL    HW112806   3.527   1.708   5.896
 4018SOL    HW212807   3.417   1.638   5.798
 4019SOL     OW12808   2.669   0.605   7.051
 4019SOL    HW112809   2.622   0.602   7.140
 4019SOL    HW212810   2.618   0.550   6.985
 4020SOL     OW12811   3.256   0.469   7.260
 4020SOL    HW112812   3.236   0.512   7.348
 4020SOL    HW212813   3.334   0.407   7.269
 4021SOL     OW12814   2.835   0.890   7.158
 4021SOL    HW112815   2.881   0.806   7.129
 4021SOL    HW212816   2.779   0.924   7.083
 4022SOL     OW12817   2.853   0.410   6.828
 4022SOL    HW112818   2.776   0.444   6.882
 4022SOL    HW212819   2.819   0.359   6.749
 4023SOL     OW12820   2.903   0.701   6.015
 4023SOL    HW112821   2.929   0.697   6.111
 4023SOL    HW212822   2.818   0.650   6.001
 4024SOL     OW12823   1.938   0.811   6.375
 4024SOL    HW112824   2.037   0.799   6.384
 4024SOL    HW212825   1.914   0.906   6.396
 4025SOL     OW12826   2.727   0.348   5.781
 4025SOL    HW112827   2.786   0.411   5.732
 4025SOL    HW212828   2.746   0.254   5.752
 4026SOL     OW12829   3.581   0.585   7.417
 4026SOL    HW112830   3.555   0.674   7.381
 4026SOL    HW212831   3.579   0.517   7.344
 4027SOL     OW12832   3.224   1.144   6.131
 4027SOL    HW112833   3.307   1.115   6.083
 4027SOL    HW212834   3.175   1.211   6.075
 4028SOL     OW12835   2.412   0.196   6.471
 4028SOL    HW112836   2.407   0.191   6.571
 4028SOL    HW212837   2.414   0.292   6.442
 4029SOL     OW12838   2.870   1.456   6.063
 4029SOL    HW112839   2.824   1.528   6.011
 4029SOL    HW212840   2.866   1.476   6.161
 4030SOL     OW12841   2.213   1.801   6.439
 4030SOL    HW112842   2.263   1.715   6.445
 4030SOL    HW212843   2.278   1.878   6.436
 4031SOL     OW12844   3.657   1.066   6.459
 4031SOL    HW112845   3.595   1.051   6.383
 4031SOL    HW212846   3.605   1.077   6.544
 4032SOL     OW12847   3.089   1.550   7.092
 4032SOL    HW112848   3.095   1.473   7.156
 4032SOL    HW212849   3.037   1.524   7.012
 4033SOL     OW12850   2.183   0.943   5.828
 4033SOL    HW112851   2.265   0.982   5.786
 4033SOL    HW212852   2.156   0.861   5.779
 4034SOL     OW12853   3.320   0.735   6.314
 4034SOL    HW112854   3.315   0.670   6.389
 4034SOL    HW212855   3.400   0.794   6.327
 4035SOL     OW12856   2.973   1.776   5.823
 4035SOL    HW112857   2.913   1.714   5.873
 4035SOL    HW212858   3.004   1.732   5.738
 4036SOL     OW12859   2.064   0.285   7.084
 4036SOL    HW112860   1.984   0.345   7.071
 4036SOL    HW212861   2.054   0.236   7.170
 4037SOL     OW12862   3.494   1.377   5.667
 4037SOL    HW112863   3.462   1.471   5.657
 4037SOL    HW212864   3.418   1.314   5.655
 4038SOL     OW12865   2.326   1.743   5.909
 4038SOL    HW112866   2.359   1.782   5.995
 4038SOL    HW212867   2.402   1.736   5.844
 4039SOL     OW12868   3.262   0.107   6.012
 4039SOL    HW112869   3.238   0.070   5.922
 4039SOL    HW212870   3.361   0.123   6.016
 4040SOL     OW12871   2.111   1.785   6.827
 4040SOL    HW112872   2.168   1.720   6.877
 4040SOL    HW212873   2.095   1.752   6.734
 4041SOL     OW12874   2.244   0.700   6.066
 4041SOL    HW112875   2.289   0.610   6.063
 4041SOL    HW212876   2.150   0.689   6.099
 4042SOL     OW12877   3.409   0.222   7.315
 4042SOL    HW112878   3.404   0.259   7.407
 4042SOL    HW212879   3.337   0.153   7.303
 4043SOL     OW12880   2.476   0.122   5.703
 4043SOL    HW112881   2.574   0.100   5.710
 4043SOL    HW212882   2.445   0.105   5.610
 4044SOL     OW12883   2.643   0.264   7.335
 4044SOL    HW112884   2.710   0.203   7.378
 4044SOL    HW212885   2.570   0.283   7.400
 4045SOL     OW12886   2.750   1.514   6.781
 4045SOL    HW112887   2.727   1.489   6.687
 4045SOL    HW212888   2.811   1.445   6.820
 4046SOL     OW12889   3.213   0.590   7.019
 4046SOL    HW112890   3.241   0.547   7.104
 4046SOL    HW212891   3.238   0.686   7.020
 4047SOL     OW12892   2.784   0.503   6.485
 4047SOL    HW112893   2.759   0.494   6.389
 4047SOL    HW212894   2.832   0.421   6.516
 4048SOL     OW12895   2.401   0.064   6.098
 4048SOL    HW112896   2.320   0.065   6.156
 4048SOL    HW212897   2.404   0.147   6.043
 4049SOL     OW12898   3.296   1.188   5.627
 4049SOL    HW112899   3.328   1.112   5.684
 4049SOL    HW212900   3.204   1.215   5.657
 4050SOL     OW12901   2.159   0.035   5.757
 4050SOL    HW112902   2.208   0.119   5.736
 4050SOL    HW212903   2.221  -0.030   5.802
 4051SOL     OW12904   2.797   0.236   6.066
 4051SOL    HW112905   2.749   0.277   5.988
 4051SOL    HW212906   2.896   0.234   6.047
 4052SOL     OW12907   2.938   0.683   7.050
 4052SOL    HW112908   2.858   0.622   7.053
 4052SOL    HW212909   3.019   0.630   7.026
 4053SOL     OW12910   3.089   1.570   6.379
 4053SOL    HW112911   3.110   1.644   6.314
 4053SOL    HW212912   3.157   1.570   6.452
 4054SOL     OW12913   2.321   1.152   6.327
 4054SOL    HW112914   2.250   1.125   6.392
 4054SOL    HW212915   2.295   1.124   6.234
 4055SOL     OW12916   3.133   1.797   6.177
 4055SOL    HW112917   3.177   1.861   6.113
 4055SOL    HW212918   3.083   1.849   6.247
 4056SOL     OW12919   2.894   0.549   5.602
 4056SOL    HW112920   2.853   0.631   5.563
 4056SOL    HW212921   2.958   0.575   5.675
 4057SOL     OW12922   1.940   0.556   6.972
 4057SOL    HW112923   2.032   0.555   6.931
 4057SOL    HW212924   1.934   0.630   7.039
 4058SOL     OW12925   2.423   0.222   6.733
 4058SOL    HW112926   2.461   0.138   6.770
 4058SOL    HW212927   2.335   0.241   6.777
 4059SOL     OW12928   2.728   0.454   6.228
 4059SOL    HW112929   2.696   0.526   6.166
 4059SOL    HW212930   2.752   0.373   6.175
 4060SOL     OW12931   2.879   0.039   6.339
 4060SOL    HW112932   2.807   0.044   6.270
 4060SOL    HW212933   2.855  -0.030   6.408
 4061SOL     OW12934   3.291   1.173   6.453
 4061SOL    HW112935   3.236   1.089   6.446
 4061SOL    HW212936   3.317   1.202   6.361
 4062SOL     OW12937   3.328   0.590   6.578
 4062SOL    HW112938   3.298   0.495   6.585
 4062SOL    HW212939   3.401   0.606   6.644
 4063SOL     OW12940   3.719   0.833   5.963
 4063SOL    HW112941   3.761   0.769   6.027
 4063SOL    HW212942   3.681   0.782   5.885
 4064SOL     OW12943   2.350   1.385   5.760
 4064SOL    HW112944   2.263   1.370   5.807
 4064SOL    HW212945   2.333   1.411   5.665
 4065SOL     OW12946   3.526   1.280   6.243
 4065SOL    HW112947   3.625   1.288   6.257
 4065SOL    HW212948   3.481   1.364   6.274
 4066SOL     OW12949   3.252   0.575   5.664
 4066SOL    HW112950   3.198   0.554   5.745
 4066SOL    HW212951   3.343   0.534   5.673
 4067SOL     OW12952   2.389   0.256   5.914
 4067SOL    HW112953   2.416   0.197   5.839
 4067SOL    HW212954   2.389   0.351   5.883
 4068SOL     OW12955   3.616   1.223   7.174
 4068SOL    HW112956   3.707   1.184   7.161
 4068SOL    HW212957   3.624   1.319   7.198
 4069SOL     OW12958   2.926   1.347   6.926
 4069SOL    HW112959   2.846   1.324   6.981
 4069SOL    HW212960   3.009   1.321   6.975
 4070SOL     OW12961   3.454   1.629   7.211
 4070SOL    HW112962   3.481   1.663   7.121
 4070SOL    HW212963   3.533   1.591   7.257
 4071SOL     OW12964   2.973   1.195   6.686
 4071SOL    HW112965   2.933   1.239   6.767
 4071SOL    HW212966   2.932   1.232   6.603
 4072SOL     OW12967   3.500   1.099   6.665
 4072SOL    HW112968   3.505   1.180   6.724
 4072SOL    HW212969   3.414   1.101   6.614
 4073SOL     OW12970   2.777   0.089   6.988
 4073SOL    HW112971   2.802   0.069   6.893
 4073SOL    HW212972   2.849   0.145   7.030
 4074SOL     OW12973   2.842   1.116   7.305
 4074SOL    HW112974   2.743   1.122   7.315
 4074SOL    HW212975   2.865   1.036   7.249
 4075SOL     OW12976   2.567   1.050   5.954
 4075SOL    HW112977   2.553   1.057   6.053
 4075SOL    HW212978   2.651   0.999   5.936
 4076SOL     OW12979   2.272   0.813   6.837
 4076SOL    HW112980   2.358   0.825   6.887
 4076SOL    HW212981   2.230   0.726   6.864
 4077SOL     OW12982   3.136   0.386   6.848
 4077SOL    HW112983   3.157   0.460   6.912
 4077SOL    HW212984   3.047   0.403   6.805
 4078SOL     OW12985   2.229   1.100   6.087
 4078SOL    HW112986   2.222   1.183   6.031
 4078SOL    HW212987   2.233   1.020   6.027
 4079SOL     OW12988   2.428   0.537   6.451
 4079SOL    HW112989   2.440   0.603   6.377
 4079SOL    HW212990   2.474   0.571   6.534
 4080SOL     OW12991   3.114   1.348   5.974
 4080SOL    HW112992   3.164   1.425   6.014
 4080SOL    HW212993   3.019   1.350   6.006
 4081SOL     OW12994   3.134   1.445   6.728
 4081SOL    HW112995   3.181   1.458   6.815
 4081SOL    HW212996   3.068   1.371   6.737
 4082SOL     OW12997   3.444   0.639   6.058
 4082SOL    HW112998   3.413   0.700   6.131
 4082SOL    HW212999   3.494   0.691   5.989
 4083SOL     OW13000   2.216   1.510   6.915
 4083SOL    HW113001   2.195   1.466   6.828
 4083SOL    HW213002   2.313   1.536   6.918
 4084SOL     OW13003   2.264   0.751   7.184
 4084SOL    HW113004   2.332   0.806   7.137
 4084SOL    HW213005   2.304   0.663   7.211
 4085SOL     OW13006   3.449   0.779   7.256
 4085SOL    HW113007   3.357   0.817   7.251
 4085SOL    HW213008   3.509   0.826   7.191
 4086SOL     OW13009   2.875   0.105   7.356
 4086SOL    HW113010   2.881   0.190   7.304
 4086SOL    HW213011   2.907   0.029   7.299
 4087SOL     OW13012   2.366   0.050   7.326
 4087SOL    HW113013   2.324  -0.007   7.256
 4087SOL    HW213014   2.300   0.119   7.358
 4088SOL     OW13015   2.435   0.870   6.615
 4088SOL    HW113016   2.479   0.959   6.606
 4088SOL    HW213017   2.372   0.870   6.692
 4089SOL     OW13018   3.222   0.862   6.631
 4089SOL    HW113019   3.147   0.862   6.565
 4089SOL    HW213020   3.259   0.770   6.640
 4090SOL     OW13021   3.071   0.525   5.861
 4090SOL    HW113022   3.084   0.441   5.915
 4090SOL    HW213023   3.042   0.599   5.921
 4091SOL     OW13024   2.169   0.213   6.817
 4091SOL    HW113025   2.146   0.250   6.907
 4091SOL    HW213026   2.139   0.118   6.811
 4092SOL     OW13027   1.899   1.310   6.868
 4092SOL    HW113028   1.952   1.261   6.936
 4092SOL    HW213029   1.921   1.408   6.873
 4093SOL     OW13030   2.594   0.634   6.650
 4093SOL    HW113031   2.653   0.608   6.574
 4093SOL    HW213032   2.566   0.730   6.639
 4094SOL     OW13033   3.590   0.935   7.440
 4094SOL    HW113034   3.544   0.928   7.351
 4094SOL    HW213035   3.528   0.979   7.506
 4095SOL     OW13036   2.169   0.063   6.204
 4095SOL    HW113037   2.158   0.157   6.237
 4095SOL    HW213038   2.164   0.000   6.281
 4096SOL     OW13039   3.484   0.367   5.960
 4096SOL    HW113040   3.486   0.291   6.024
 4096SOL    HW213041   3.436   0.444   6.000
 4097SOL     OW13042   2.885   0.766   6.552
 4097SOL    HW113043   2.900   0.787   6.648
 4097SOL    HW213044   2.855   0.671   6.543
 4098SOL     OW13045   2.842   1.573   7.286
 4098SOL    HW113046   2.822   1.617   7.198
 4098SOL    HW213047   2.881   1.482   7.270
 4099SOL     OW13048   3.721   1.518   7.191
 4099SOL    HW113049   3.735   1.545   7.096
 4099SOL    HW213050   3.804   1.540   7.244
 4100SOL     OW13051   2.212   0.898   7.390
 4100SOL    HW113052   2.288   0.942   7.438
 4100SOL    HW213053   2.247   0.851   7.308
 4101SOL     OW13054   3.402   0.274   5.711
 4101SOL    HW113055   3.341   0.199   5.734
 4101SOL    HW213056   3.424   0.326   5.794
 4102SOL     OW13057   3.165   0.838   5.628
 4102SOL    HW113058   3.199   0.745   5.643
 4102SOL    HW213059   3.183   0.865   5.533
 4103SOL     OW13060   2.930   1.333   6.435
 4103SOL    HW113061   2.937   1.249   6.380
 4103SOL    HW213062   2.992   1.402   6.399
 4104SOL     OW13063   2.181   0.810   6.535
 4104SOL    HW113064   2.274   0.846   6.540
 4104SOL    HW213065   2.175   0.725   6.587
 4105SOL     OW13066   2.201   0.509   6.592
 4105SOL    HW113067   2.149   0.426   6.575
 4105SOL    HW213068   2.278   0.514   6.528
 4106SOL     OW13069   3.000   0.380   7.264
 4106SOL    HW113070   2.955   0.443   7.328
 4106SOL    HW213071   3.093   0.411   7.247
 4107SOL     OW13072   3.022   0.207   7.063
 4107SOL    HW113073   3.022   0.271   7.140
 4107SOL    HW213074   3.050   0.255   6.980
 4108SOL     OW13075   1.870   1.326   5.786
 4108SOL    HW113076   1.777   1.347   5.755
 4108SOL    HW213077   1.880   1.227   5.799
 4109SOL     OW13078   2.864   0.796   6.824
 4109SOL    HW113079   2.905   0.764   6.910
 4109SOL    HW213080   2.768   0.769   6.821
 4110SOL     OW13081   1.902   0.544   6.700
 4110SOL    HW113082   1.987   0.511   6.659
 4110SOL    HW213083   1.915   0.559   6.798
 4111SOL     OW13084   2.051   0.520   7.308
 4111SOL    HW113085   2.110   0.480   7.238
 4111SOL    HW213086   1.993   0.591   7.267
 4112SOL     OW13087   3.231   0.950   7.246
 4112SOL    HW113088   3.270   1.039   7.266
 4112SOL    HW213089   3.241   0.930   7.149
 4113SOL     OW13090   2.677   0.572   5.911
 4113SOL    HW113091   2.684   0.483   5.865
 4113SOL    HW213092   2.583   0.606   5.903
 4114SOL     OW13093   3.519   0.604   6.792
 4114SOL    HW113094   3.481   0.535   6.854
 4114SOL    HW213095   3.601   0.568   6.748
 4115SOL     OW13096   2.533   0.464   6.855
 4115SOL    HW113097   2.499   0.375   6.825
 4115SOL    HW213098   2.559   0.518   6.775
 4116SOL     OW13099   2.792   1.678   7.051
 4116SOL    HW113100   2.768   1.660   6.956
 4116SOL    HW213101   2.822   1.772   7.061
 4117SOL     OW13102   2.335   0.500   5.777
 4117SOL    HW113103   2.396   0.580   5.781
 4117SOL    HW213104   2.240   0.531   5.784
 4118SOL     OW13105   2.021   1.137   7.052
 4118SOL    HW113106   2.043   1.076   7.128
 4118SOL    HW213107   2.031   1.088   6.966
 4119SOL     OW13108   3.209   1.059   6.820
 4119SOL    HW113109   3.233   0.996   6.746
 4119SOL    HW213110   3.119   1.099   6.802
 4120SOL     OW13111   3.164   0.855   5.895
 4120SOL    HW113112   3.078   0.824   5.937
 4120SOL    HW213113   3.160   0.841   5.796
 4121SOL     OW13114   3.621   1.747   6.740
 4121SOL    HW113115   3.682   1.777   6.667
 4121SOL    HW213116   3.583   1.658   6.718
 4122SOL     OW13117   3.114   1.731   6.714
 4122SOL    HW113118   3.198   1.736   6.660
 4122SOL    HW213119   3.091   1.635   6.732
 4123SOL     OW13120   3.588   0.135   6.109
 4123SOL    HW113121   3.661   0.118   6.042
 4123SOL    HW213122   3.557   0.048   6.147
 4124SOL     OW13123   3.250   1.573   6.063
 4124SOL    HW113124   3.317   1.585   5.989
 4124SOL    HW213125   3.210   1.662   6.086
 4125SOL     OW13126   3.142   0.927   6.258
 4125SOL    HW113127   3.202   0.846   6.260
 4125SOL    HW213128   3.182   0.996   6.198
 4126SOL     OW13129   2.692   1.273   7.008
 4126SOL    HW113130   2.687   1.306   7.103
 4126SOL    HW213131   2.606   1.292   6.962
 4127SOL     OW13132   2.534   1.616   5.740
 4127SOL    HW113133   2.543   1.626   5.641
 4127SOL    HW213134   2.494   1.527   5.761
 4128SOL     OW13135   3.512   1.720   6.980
 4128SOL    HW113136   3.565   1.730   6.896
 4128SOL    HW213137   3.485   1.810   7.014
 4129SOL     OW13138   3.703   0.175   6.549
 4129SOL    HW113139   3.742   0.090   6.513
 4129SOL    HW213140   3.605   0.177   6.530
 4130SOL     OW13141   2.125   0.326   6.306
 4130SOL    HW113142   2.046   0.377   6.272
 4130SOL    HW213143   2.116   0.311   6.404
 4131SOL     OW13144   3.056   1.612   5.617
 4131SOL    HW113145   3.062   1.519   5.654
 4131SOL    HW213146   2.997   1.612   5.537
 4132SOL     OW13147   2.684   1.002   6.958
 4132SOL    HW113148   2.724   1.001   6.866
 4132SOL    HW213149   2.694   1.094   6.998
 4133SOL     OW13150   2.778   0.910   5.877
 4133SOL    HW113151   2.841   0.948   5.809
 4133SOL    HW213152   2.818   0.827   5.916
 4134SOL     OW13153   3.366   1.607   5.630
 4134SOL    HW113154   3.274   1.644   5.637
 4134SOL    HW213155   3.404   1.627   5.540
 4135SOL     OW13156   2.234   1.288   7.076
 4135SOL    HW113157   2.221   1.381   7.042
 4135SOL    HW213158   2.150   1.236   7.063
 4136SOL     OW13159   3.476   1.292   6.875
 4136SOL    HW113160   3.536   1.295   6.955
 4136SOL    HW213161   3.401   1.356   6.888
 4137SOL     OW13162   2.901   1.098   6.282
 4137SOL    HW113163   2.831   1.051   6.336
 4137SOL    HW213164   2.960   1.030   6.239
 4138SOL     OW13165   2.876   0.236   6.557
 4138SOL    HW113166   2.868   0.200   6.464
 4138SOL    HW213167   2.874   0.160   6.622
 4139SOL     OW13168   3.571   0.385   6.967
 4139SOL    HW113169   3.644   0.454   6.971
 4139SOL    HW213170   3.599   0.310   6.908
 4140SOL     OW13171   1.967   1.013   7.312
 4140SOL    HW113172   1.890   0.980   7.366
 4140SOL    HW213173   2.052   0.983   7.354
 4141SOL     OW13174   2.534   0.203   7.075
 4141SOL    HW113175   2.624   0.187   7.035
 4141SOL    HW213176   2.542   0.208   7.174
 4142SOL     OW13177   1.937   0.345   5.619
 4142SOL    HW113178   1.845   0.317   5.590
 4142SOL    HW213179   1.968   0.422   5.563
 4143SOL     OW13180   3.302   0.856   6.984
 4143SOL    HW113181   3.245   0.908   6.921
 4143SOL    HW213182   3.398   0.868   6.960
 4144SOL     OW13183   1.934   0.166   5.904
 4144SOL    HW113184   1.917   0.249   5.850
 4144SOL    HW213185   2.024   0.129   5.882
 4145SOL     OW13186   3.045   1.335   5.705
 4145SOL    HW113187   2.946   1.324   5.707
 4145SOL    HW213188   3.079   1.350   5.798
 4146SOL     OW13189   2.475   0.842   7.017
 4146SOL    HW113190   2.531   0.923   7.000
 4146SOL    HW213191   2.534   0.762   7.020
 4147SOL     OW13192   3.355   1.767   6.545
 4147SOL    HW113193   3.388   1.831   6.476
 4147SOL    HW213194   3.421   1.761   6.620
 4148SOL     OW13195   2.578   0.565   7.294
 4148SOL    HW113196   2.597   0.630   7.368
 4148SOL    HW213197   2.638   0.485   7.303
 4149SOL     OW13198   3.312   1.220   7.219
 4149SOL    HW113199   3.303   1.210   7.318
 4149SOL    HW213200   3.408   1.213   7.193
 4150SOL     OW13201   2.252   1.741   7.146
 4150SOL    HW113202   2.161   1.782   7.144
 4150SOL    HW213203   2.245   1.647   7.178
 4151SOL     OW13204   3.536   0.883   6.840
 4151SOL    HW113205   3.509   0.794   6.803
 4151SOL    HW213206   3.537   0.951   6.767
 4152SOL     OW13207   3.087   0.325   6.035
 4152SOL    HW113208   3.152   0.251   6.024
 4152SOL    HW213209   3.107   0.375   6.119
 4153SOL     OW13210   2.456   0.745   6.238
 4153SOL    HW113211   2.506   0.830   6.219
 4153SOL    HW213212   2.368   0.747   6.190
 4154SOL     OW13213   3.639   0.342   7.228
 4154SOL    HW113214   3.622   0.373   7.134
 4154SOL    HW213215   3.555   0.305   7.266
 4155SOL     OW13216   3.592   0.934   7.103
 4155SOL    HW113217   3.630   1.025   7.118
 4155SOL    HW213218   3.584   0.917   7.004
 4156SOL     OW13219   2.721   1.374   5.602
 4156SOL    HW113220   2.675   1.389   5.690
 4156SOL    HW213221   2.765   1.459   5.572
 4157SOL     OW13222   2.721   0.956   6.447
 4157SOL    HW113223   2.775   0.887   6.495
 4157SOL    HW213224   2.689   1.025   6.513
 4158SOL     OW13225   2.945   0.984   5.673
 4158SOL    HW113226   2.922   1.037   5.591
 4158SOL    HW213227   3.026   0.928   5.654
 4159SOL     OW13228   3.723   1.569   6.437
 4159SOL    HW113229   3.652   1.557   6.367
 4159SOL    HW213230   3.724   1.490   6.497
 4160SOL     OW13231   3.686   0.192   6.813
 4160SOL    HW113232   3.682   0.102   6.857
 4160SOL    HW213233   3.689   0.181   6.714
 4161SOL     OW13234   2.290   0.424   6.106
 4161SOL    HW113235   2.320   0.352   6.044
 4161SOL    HW213236   2.251   0.384   6.189
 4162SOL     OW13237   3.567   1.487   6.690
 4162SOL    HW113238   3.474   1.462   6.663
 4162SOL    HW213239   3.593   1.437   6.772
 4163SOL     OW13240   2.179   0.547   6.866
 4163SOL    HW113241   2.217   0.488   6.938
 4163SOL    HW213242   2.219   0.521   6.778
 4164SOL     OW13243   3.286   0.214   6.698
 4164SOL    HW113244   3.338   0.149   6.753
 4164SOL    HW213245   3.237   0.277   6.759
 4165SOL     OW13246   2.863   0.034   6.740
 4165SOL    HW113247   2.800  -0.038   6.709
 4165SOL    HW213248   2.956  -0.002   6.740
 4166SOL     OW13249   2.632   1.330   5.887
 4166SOL    HW113250   2.586   1.243   5.904
 4166SOL    HW213251   2.723   1.327   5.928
 4167SOL     OW13252   2.480   1.567   6.870
 4167SOL    HW113253   2.475   1.649   6.927
 4167SOL    HW213254   2.569   1.564   6.825
 4168SOL     OW13255   3.214   0.052   5.754
 4168SOL    HW113256   3.249   0.011   5.670
 4168SOL    HW213257   3.124   0.014   5.774
 4169SOL     OW13258   3.162   0.453   6.277
 4169SOL    HW113259   3.103   0.533   6.281
 4169SOL    HW213260   3.177   0.418   6.370
 4170SOL     OW13261   3.455   0.221   6.468
 4170SOL    HW113262   3.371   0.220   6.522
 4170SOL    HW213263   3.457   0.304   6.412
 4171SOL     OW13264   1.901   1.077   5.886
 4171SOL    HW113265   2.000   1.066   5.877
 4171SOL    HW213266   1.861   0.991   5.918
 4172SOL     OW13267   2.737   1.646   5.923
 4172SOL    HW113268   2.660   1.611   5.869
 4172SOL    HW213269   2.705   1.717   5.985
 4173SOL     OW13270   2.092   0.628   7.561
 4173SOL    HW113271   1.999   0.626   7.598
 4173SOL    HW213272   2.093   0.589   7.469
 4174SOL     OW13273   2.087   0.275   8.444
 4174SOL    HW113274   2.122   0.258   8.536
 4174SOL    HW213275   1.999   0.230   8.432
 4175SOL     OW13276   1.881   0.368   8.095
 4175SOL    HW113277   1.799   0.411   8.134
 4175SOL    HW213278   1.853   0.295   8.032
 4176SOL     OW13279   2.431   1.275   8.613
 4176SOL    HW113280   2.338   1.268   8.576
 4176SOL    HW213281   2.442   1.364   8.657
 4177SOL     OW13282   3.417   1.511   8.151
 4177SOL    HW113283   3.360   1.495   8.232
 4177SOL    HW213284   3.358   1.521   8.071
 4178SOL     OW13285   2.997   0.703   8.165
 4178SOL    HW113286   3.054   0.781   8.140
 4178SOL    HW213287   2.937   0.729   8.241
 4179SOL     OW13288   3.617   0.607   7.679
 4179SOL    HW113289   3.605   0.594   7.580
 4179SOL    HW213290   3.587   0.526   7.728
 4180SOL     OW13291   2.630   1.144   8.471
 4180SOL    HW113292   2.552   1.161   8.531
 4180SOL    HW213293   2.664   1.231   8.435
 4181SOL     OW13294   2.712   0.798   9.271
 4181SOL    HW113295   2.708   0.874   9.336
 4181SOL    HW213296   2.734   0.834   9.180
 4182SOL     OW13297   2.547   1.012   8.113
 4182SOL    HW113298   2.616   0.996   8.183
 4182SOL    HW213299   2.474   1.069   8.151
 4183SOL     OW13300   2.548   1.161   9.251
 4183SOL    HW113301   2.608   1.240   9.265
 4183SOL    HW213302   2.462   1.192   9.210
 4184SOL     OW13303   2.197   1.435   8.509
 4184SOL    HW113304   2.119   1.404   8.456
 4184SOL    HW213305   2.255   1.493   8.452
 4185SOL     OW13306   3.322   1.505   8.787
 4185SOL    HW113307   3.346   1.599   8.813
 4185SOL    HW213308   3.306   1.451   8.869
 4186SOL     OW13309   2.300   0.392   8.947
 4186SOL    HW113310   2.382   0.336   8.956
 4186SOL    HW213311   2.219   0.334   8.951
 4187SOL     OW13312   3.465   0.447   8.185
 4187SOL    HW113313   3.391   0.493   8.135
 4187SOL    HW213314   3.516   0.515   8.238
 4188SOL     OW13315   2.093   1.713   7.931
 4188SOL    HW113316   2.127   1.790   7.985
 4188SOL    HW213317   2.137   1.713   7.841
 4189SOL     OW13318   2.989   1.341   9.138
 4189SOL    HW113319   3.036   1.341   9.226
 4189SOL    HW213320   2.941   1.254   9.127
 4190SOL     OW13321   2.092   1.434   7.986
 4190SOL    HW113322   2.066   1.530   7.986
 4190SOL    HW213323   2.021   1.380   8.031
 4191SOL     OW13324   2.102   1.091   8.334
 4191SOL    HW113325   2.116   1.007   8.386
 4191SOL    HW213326   2.047   1.155   8.389
 4192SOL     OW13327   2.482   1.786   8.887
 4192SOL    HW113328   2.390   1.769   8.922
 4192SOL    HW213329   2.510   1.878   8.913
 4193SOL     OW13330   2.468   0.964   7.571
 4193SOL    HW113331   2.475   1.048   7.517
 4193SOL    HW213332   2.514   0.977   7.659
 4194SOL     OW13333   3.456   0.114   8.928
 4194SOL    HW113334   3.438   0.181   8.856
 4194SOL    HW213335   3.453   0.160   9.017
 4195SOL     OW13336   1.984   0.643   8.011
 4195SOL    HW113337   1.939   0.555   8.028
 4195SOL    HW213338   1.983   0.697   8.095
 4196SOL     OW13339   3.704   1.767   7.807
 4196SOL    HW113340   3.758   1.738   7.887
 4196SOL    HW213341   3.734   1.857   7.778
 4197SOL     OW13342   3.551   0.922   8.060
 4197SOL    HW113343   3.646   0.893   8.068
 4197SOL    HW213344   3.543   0.987   7.985
 4198SOL     OW13345   3.503   1.108   7.880
 4198SOL    HW113346   3.589   1.110   7.828
 4198SOL    HW213347   3.517   1.155   7.968
 4199SOL     OW13348   1.975   0.737   9.045
 4199SOL    HW113349   2.063   0.724   9.090
 4199SOL    HW213350   1.962   0.834   9.023
 4200SOL     OW13351   2.475   1.365   8.174
 4200SOL    HW113352   2.426   1.278   8.183
 4200SOL    HW213353   2.452   1.408   8.087
 4201SOL     OW13354   3.155   1.228   8.871
 4201SOL    HW113355   3.192   1.155   8.813
 4201SOL    HW213356   3.207   1.233   8.956
 4202SOL     OW13357   2.671   0.004   7.950
 4202SOL    HW113358   2.711   0.095   7.941
 4202SOL    HW213359   2.571   0.012   7.956
 4203SOL     OW13360   2.059   0.976   8.712
 4203SOL    HW113361   2.148   0.931   8.698
 4203SOL    HW213362   1.986   0.911   8.693
 4204SOL     OW13363   3.387   0.999   7.638
 4204SOL    HW113364   3.324   0.923   7.651
 4204SOL    HW213365   3.435   1.017   7.724
 4205SOL     OW13366   3.049   1.792   9.064
 4205SOL    HW113367   3.073   1.852   8.988
 4205SOL    HW213368   3.056   1.697   9.034
 4206SOL     OW13369   2.179   0.251   9.249
 4206SOL    HW113370   2.250   0.322   9.255
 4206SOL    HW213371   2.091   0.290   9.277
 4207SOL     OW13372   3.328   1.417   8.401
 4207SOL    HW113373   3.269   1.423   8.481
 4207SOL    HW213374   3.313   1.329   8.355
 4208SOL     OW13375   3.529   1.714   8.020
 4208SOL    HW113376   3.488   1.691   7.932
 4208SOL    HW213377   3.511   1.640   8.085
 4209SOL     OW13378   2.460   0.729   7.718
 4209SOL    HW113379   2.484   0.798   7.650
 4209SOL    HW213380   2.382   0.762   7.772
 4210SOL     OW13381   3.143   0.345   8.392
 4210SOL    HW113382   3.057   0.295   8.379
 4210SOL    HW213383   3.205   0.291   8.448
 4211SOL     OW13384   3.438   1.662   7.755
 4211SOL    HW113385   3.527   1.708   7.758
 4211SOL    HW213386   3.417   1.638   7.660
 4212SOL     OW13387   2.669   0.605   8.913
 4212SOL    HW113388   2.622   0.602   9.002
 4212SOL    HW213389   2.618   0.550   8.847
 4213SOL     OW13390   3.256   0.469   9.122
 4213SOL    HW113391   3.236   0.512   9.210
 4213SOL    HW213392   3.334   0.407   9.131
 4214SOL     OW13393   2.835   0.890   9.020
 4214SOL    HW113394   2.881   0.806   8.991
 4214SOL    HW213395   2.779   0.924   8.945
 4215SOL     OW13396   2.853   0.410   8.690
 4215SOL    HW113397   2.776   0.444   8.744
 4215SOL    HW213398   2.819   0.359   8.611
 4216SOL     OW13399   2.903   0.701   7.877
 4216SOL    HW113400   2.929   0.697   7.973
 4216SOL    HW213401   2.818   0.650   7.863
 4217SOL     OW13402   1.938   0.811   8.237
 4217SOL    HW113403   2.037   0.799   8.246
 4217SOL    HW213404   1.914   0.906   8.258
 4218SOL     OW13405   2.727   0.348   7.643
 4218SOL    HW113406   2.786   0.411   7.594
 4218SOL    HW213407   2.746   0.254   7.614
 4219SOL     OW13408   3.581   0.585   9.279
 4219SOL    HW113409   3.555   0.674   9.243
 4219SOL    HW213410   3.579   0.517   9.206
 4220SOL     OW13411   3.224   1.144   7.993
 4220SOL    HW113412   3.307   1.115   7.945
 4220SOL    HW213413   3.175   1.211   7.937
 4221SOL     OW13414   2.412   0.196   8.333
 4221SOL    HW113415   2.407   0.191   8.433
 4221SOL    HW213416   2.414   0.292   8.304
 4222SOL     OW13417   2.870   1.456   7.925
 4222SOL    HW113418   2.824   1.528   7.873
 4222SOL    HW213419   2.866   1.476   8.023
 4223SOL     OW13420   2.213   1.801   8.301
 4223SOL    HW113421   2.263   1.715   8.307
 4223SOL    HW213422   2.278   1.878   8.298
 4224SOL     OW13423   3.657   1.066   8.321
 4224SOL    HW113424   3.595   1.051   8.245
 4224SOL    HW213425   3.605   1.077   8.406
 4225SOL     OW13426   3.089   1.550   8.954
 4225SOL    HW113427   3.095   1.473   9.018
 4225SOL    HW213428   3.037   1.524   8.874
 4226SOL     OW13429   2.183   0.943   7.690
 4226SOL    HW113430   2.265   0.982   7.648
 4226SOL    HW213431   2.156   0.861   7.641
 4227SOL     OW13432   3.320   0.735   8.176
 4227SOL    HW113433   3.315   0.670   8.251
 4227SOL    HW213434   3.400   0.794   8.189
 4228SOL     OW13435   2.323   1.266   9.175
 4228SOL    HW113436   2.273   1.267   9.089
 4228SOL    HW213437   2.260   1.248   9.251
 4229SOL     OW13438   2.973   1.776   7.685
 4229SOL    HW113439   2.913   1.714   7.735
 4229SOL    HW213440   3.004   1.732   7.600
 4230SOL     OW13441   2.064   0.285   8.946
 4230SOL    HW113442   1.984   0.345   8.933
 4230SOL    HW213443   2.054   0.236   9.032
 4231SOL     OW13444   3.494   1.377   7.529
 4231SOL    HW113445   3.462   1.471   7.519
 4231SOL    HW213446   3.418   1.314   7.517
 4232SOL     OW13447   3.262   0.107   7.874
 4232SOL    HW113448   3.238   0.070   7.784
 4232SOL    HW213449   3.361   0.123   7.878
 4233SOL     OW13450   2.111   1.785   8.689
 4233SOL    HW113451   2.168   1.720   8.739
 4233SOL    HW213452   2.095   1.752   8.596
 4234SOL     OW13453   2.802   1.698   8.352
 4234SOL    HW113454   2.882   1.641   8.373
 4234SOL    HW213455   2.753   1.658   8.275
 4235SOL     OW13456   2.244   0.700   7.928
 4235SOL    HW113457   2.289   0.610   7.925
 4235SOL    HW213458   2.150   0.689   7.961
 4236SOL     OW13459   3.409   0.222   9.177
 4236SOL    HW113460   3.404   0.259   9.269
 4236SOL    HW213461   3.337   0.153   9.165
 4237SOL     OW13462   2.476   0.122   7.565
 4237SOL    HW113463   2.574   0.100   7.572
 4237SOL    HW213464   2.445   0.105   7.472
 4238SOL     OW13465   2.643   0.264   9.197
 4238SOL    HW113466   2.710   0.203   9.240
 4238SOL    HW213467   2.570   0.283   9.262
 4239SOL     OW13468   2.750   1.514   8.643
 4239SOL    HW113469   2.727   1.489   8.549
 4239SOL    HW213470   2.811   1.445   8.682
 4240SOL     OW13471   3.213   0.590   8.881
 4240SOL    HW113472   3.241   0.547   8.966
 4240SOL    HW213473   3.238   0.686   8.882
 4241SOL     OW13474   2.665   1.402   8.372
 4241SOL    HW113475   2.755   1.416   8.330
 4241SOL    HW213476   2.594   1.404   8.301
 4242SOL     OW13477   2.784   0.503   8.347
 4242SOL    HW113478   2.759   0.494   8.251
 4242SOL    HW213479   2.832   0.421   8.378
 4243SOL     OW13480   2.401   0.064   7.960
 4243SOL    HW113481   2.320   0.065   8.018
 4243SOL    HW213482   2.404   0.147   7.905
 4244SOL     OW13483   3.296   1.188   7.489
 4244SOL    HW113484   3.328   1.112   7.546
 4244SOL    HW213485   3.204   1.215   7.519
 4245SOL     OW13486   2.159   0.035   7.619
 4245SOL    HW113487   2.208   0.119   7.598
 4245SOL    HW213488   2.221  -0.030   7.664
 4246SOL     OW13489   2.797   0.236   7.928
 4246SOL    HW113490   2.749   0.277   7.850
 4246SOL    HW213491   2.896   0.234   7.909
 4247SOL     OW13492   2.938   0.683   8.912
 4247SOL    HW113493   2.858   0.622   8.915
 4247SOL    HW213494   3.019   0.630   8.888
 4248SOL     OW13495   3.089   1.570   8.241
 4248SOL    HW113496   3.110   1.644   8.176
 4248SOL    HW213497   3.157   1.570   8.314
 4249SOL     OW13498   2.321   1.152   8.189
 4249SOL    HW113499   2.250   1.125   8.254
 4249SOL    HW213500   2.295   1.124   8.096
 4250SOL     OW13501   3.133   1.797   8.039
 4250SOL    HW113502   3.177   1.861   7.975
 4250SOL    HW213503   3.083   1.849   8.109
 4251SOL     OW13504   2.894   0.549   7.464
 4251SOL    HW113505   2.853   0.631   7.425
 4251SOL    HW213506   2.958   0.575   7.537
 4252SOL     OW13507   1.940   0.556   8.834
 4252SOL    HW113508   2.032   0.555   8.793
 4252SOL    HW213509   1.934   0.630   8.901
 4253SOL     OW13510   2.423   0.222   8.595
 4253SOL    HW113511   2.461   0.138   8.632
 4253SOL    HW213512   2.335   0.241   8.639
 4254SOL     OW13513   2.728   0.454   8.090
 4254SOL    HW113514   2.696   0.526   8.028
 4254SOL    HW213515   2.752   0.373   8.037
 4255SOL     OW13516   2.879   0.039   8.201
 4255SOL    HW113517   2.807   0.044   8.132
 4255SOL    HW213518   2.855  -0.030   8.270
 4256SOL     OW13519   3.291   1.173   8.315
 4256SOL    HW113520   3.236   1.089   8.308
 4256SOL    HW213521   3.317   1.202   8.223
 4257SOL     OW13522   3.328   0.590   8.440
 4257SOL    HW113523   3.298   0.495   8.447
 4257SOL    HW213524   3.401   0.606   8.506
 4258SOL     OW13525   3.719   0.833   7.825
 4258SOL    HW113526   3.761   0.769   7.889
 4258SOL    HW213527   3.681   0.782   7.747
 4259SOL     OW13528   3.526   1.280   8.105
 4259SOL    HW113529   3.625   1.288   8.119
 4259SOL    HW213530   3.481   1.364   8.136
 4260SOL     OW13531   3.252   0.575   7.526
 4260SOL    HW113532   3.198   0.554   7.607
 4260SOL    HW213533   3.343   0.534   7.535
 4261SOL     OW13534   2.389   0.256   7.776
 4261SOL    HW113535   2.416   0.197   7.701
 4261SOL    HW213536   2.389   0.351   7.745
 4262SOL     OW13537   3.616   1.223   9.036
 4262SOL    HW113538   3.707   1.184   9.023
 4262SOL    HW213539   3.624   1.319   9.060
 4263SOL     OW13540   2.926   1.347   8.788
 4263SOL    HW113541   2.846   1.324   8.843
 4263SOL    HW213542   3.009   1.321   8.837
 4264SOL     OW13543   3.454   1.629   9.073
 4264SOL    HW113544   3.481   1.663   8.983
 4264SOL    HW213545   3.533   1.591   9.119
 4265SOL     OW13546   2.973   1.195   8.548
 4265SOL    HW113547   2.933   1.239   8.629
 4265SOL    HW213548   2.932   1.232   8.465
 4266SOL     OW13549   3.500   1.099   8.527
 4266SOL    HW113550   3.505   1.180   8.586
 4266SOL    HW213551   3.414   1.101   8.476
 4267SOL     OW13552   2.777   0.089   8.850
 4267SOL    HW113553   2.802   0.069   8.755
 4267SOL    HW213554   2.849   0.145   8.892
 4268SOL     OW13555   2.842   1.116   9.167
 4268SOL    HW113556   2.743   1.122   9.177
 4268SOL    HW213557   2.865   1.036   9.111
 4269SOL     OW13558   2.567   1.050   7.816
 4269SOL    HW113559   2.553   1.057   7.915
 4269SOL    HW213560   2.651   0.999   7.798
 4270SOL     OW13561   2.272   0.813   8.699
 4270SOL    HW113562   2.358   0.825   8.749
 4270SOL    HW213563   2.230   0.726   8.726
 4271SOL     OW13564   3.136   0.386   8.710
 4271SOL    HW113565   3.157   0.460   8.774
 4271SOL    HW213566   3.047   0.403   8.667
 4272SOL     OW13567   1.926   1.564   8.779
 4272SOL    HW113568   1.880   1.646   8.745
 4272SOL    HW213569   2.024   1.583   8.788
 4273SOL     OW13570   2.229   1.100   7.949
 4273SOL    HW113571   2.222   1.183   7.893
 4273SOL    HW213572   2.233   1.020   7.889
 4274SOL     OW13573   2.428   0.537   8.313
 4274SOL    HW113574   2.440   0.603   8.239
 4274SOL    HW213575   2.474   0.571   8.396
 4275SOL     OW13576   3.114   1.348   7.836
 4275SOL    HW113577   3.164   1.425   7.876
 4275SOL    HW213578   3.019   1.350   7.868
 4276SOL     OW13579   3.134   1.445   8.590
 4276SOL    HW113580   3.181   1.458   8.677
 4276SOL    HW213581   3.068   1.371   8.599
 4277SOL     OW13582   3.444   0.639   7.920
 4277SOL    HW113583   3.413   0.700   7.993
 4277SOL    HW213584   3.494   0.691   7.851
 4278SOL     OW13585   2.216   1.510   8.777
 4278SOL    HW113586   2.195   1.466   8.690
 4278SOL    HW213587   2.313   1.536   8.780
 4279SOL     OW13588   2.264   0.751   9.046
 4279SOL    HW113589   2.332   0.806   8.999
 4279SOL    HW213590   2.304   0.663   9.073
 4280SOL     OW13591   3.449   0.779   9.118
 4280SOL    HW113592   3.357   0.817   9.113
 4280SOL    HW213593   3.509   0.826   9.053
 4281SOL     OW13594   2.875   0.105   9.218
 4281SOL    HW113595   2.881   0.190   9.166
 4281SOL    HW213596   2.907   0.029   9.161
 4282SOL     OW13597   2.366   0.050   9.188
 4282SOL    HW113598   2.324  -0.007   9.118
 4282SOL    HW213599   2.300   0.119   9.220
 4283SOL     OW13600   2.435   0.870   8.477
 4283SOL    HW113601   2.479   0.959   8.468
 4283SOL    HW213602   2.372   0.870   8.554
 4284SOL     OW13603   3.222   0.862   8.493
 4284SOL    HW113604   3.147   0.862   8.427
 4284SOL    HW213605   3.259   0.770   8.502
 4285SOL     OW13606   3.071   0.525   7.723
 4285SOL    HW113607   3.084   0.441   7.777
 4285SOL    HW213608   3.042   0.599   7.783
 4286SOL     OW13609   2.169   0.213   8.679
 4286SOL    HW113610   2.146   0.250   8.769
 4286SOL    HW213611   2.139   0.118   8.673
 4287SOL     OW13612   1.899   1.310   8.730
 4287SOL    HW113613   1.952   1.261   8.798
 4287SOL    HW213614   1.921   1.408   8.735
 4288SOL     OW13615   2.594   0.634   8.512
 4288SOL    HW113616   2.653   0.608   8.436
 4288SOL    HW213617   2.566   0.730   8.501
 4289SOL     OW13618   3.590   0.935   9.302
 4289SOL    HW113619   3.544   0.928   9.213
 4289SOL    HW213620   3.528   0.979   9.368
 4290SOL     OW13621   2.169   0.063   8.066
 4290SOL    HW113622   2.158   0.157   8.099
 4290SOL    HW213623   2.164   0.000   8.143
 4291SOL     OW13624   3.484   0.367   7.822
 4291SOL    HW113625   3.486   0.291   7.886
 4291SOL    HW213626   3.436   0.444   7.862
 4292SOL     OW13627   2.885   0.766   8.414
 4292SOL    HW113628   2.900   0.787   8.510
 4292SOL    HW213629   2.855   0.671   8.405
 4293SOL     OW13630   2.842   1.573   9.148
 4293SOL    HW113631   2.822   1.617   9.060
 4293SOL    HW213632   2.881   1.482   9.132
 4294SOL     OW13633   3.721   1.518   9.053
 4294SOL    HW113634   3.735   1.545   8.958
 4294SOL    HW213635   3.804   1.540   9.106
 4295SOL     OW13636   2.212   0.898   9.252
 4295SOL    HW113637   2.288   0.942   9.300
 4295SOL    HW213638   2.247   0.851   9.170
 4296SOL     OW13639   3.402   0.274   7.573
 4296SOL    HW113640   3.341   0.199   7.596
 4296SOL    HW213641   3.424   0.326   7.656
 4297SOL     OW13642   3.165   0.838   7.490
 4297SOL    HW113643   3.199   0.745   7.505
 4297SOL    HW213644   3.183   0.865   7.395
 4298SOL     OW13645   2.930   1.333   8.297
 4298SOL    HW113646   2.937   1.249   8.242
 4298SOL    HW213647   2.992   1.402   8.261
 4299SOL     OW13648   2.181   0.810   8.397
 4299SOL    HW113649   2.274   0.846   8.402
 4299SOL    HW213650   2.175   0.725   8.449
 4300SOL     OW13651   2.201   0.509   8.454
 4300SOL    HW113652   2.149   0.426   8.437
 4300SOL    HW213653   2.278   0.514   8.390
 4301SOL     OW13654   3.000   0.380   9.126
 4301SOL    HW113655   2.955   0.443   9.190
 4301SOL    HW213656   3.093   0.411   9.109
 4302SOL     OW13657   3.022   0.207   8.925
 4302SOL    HW113658   3.022   0.271   9.002
 4302SOL    HW213659   3.050   0.255   8.842
 4303SOL     OW13660   2.366   1.568   8.358
 4303SOL    HW113661   2.432   1.642   8.367
 4303SOL    HW213662   2.410   1.489   8.316
 4304SOL     OW13663   2.864   0.796   8.686
 4304SOL    HW113664   2.905   0.764   8.772
 4304SOL    HW213665   2.768   0.769   8.683
 4305SOL     OW13666   1.902   0.544   8.562
 4305SOL    HW113667   1.987   0.511   8.521
 4305SOL    HW213668   1.915   0.559   8.660
 4306SOL     OW13669   2.051   0.520   9.170
 4306SOL    HW113670   2.110   0.480   9.100
 4306SOL    HW213671   1.993   0.591   9.129
 4307SOL     OW13672   3.231   0.950   9.108
 4307SOL    HW113673   3.270   1.039   9.128
 4307SOL    HW213674   3.241   0.930   9.011
 4308SOL     OW13675   2.677   0.572   7.773
 4308SOL    HW113676   2.684   0.483   7.727
 4308SOL    HW213677   2.583   0.606   7.765
 4309SOL     OW13678   3.519   0.604   8.654
 4309SOL    HW113679   3.481   0.535   8.716
 4309SOL    HW213680   3.601   0.568   8.610
 4310SOL     OW13681   2.114   1.564   9.192
 4310SOL    HW113682   2.084   1.621   9.268
 4310SOL    HW213683   2.107   1.467   9.218
 4311SOL     OW13684   2.533   0.464   8.717
 4311SOL    HW113685   2.499   0.375   8.687
 4311SOL    HW213686   2.559   0.518   8.637
 4312SOL     OW13687   2.792   1.678   8.913
 4312SOL    HW113688   2.768   1.660   8.818
 4312SOL    HW213689   2.822   1.772   8.923
 4313SOL     OW13690   2.335   0.500   7.639
 4313SOL    HW113691   2.396   0.580   7.643
 4313SOL    HW213692   2.240   0.531   7.646
 4314SOL     OW13693   2.021   1.137   8.914
 4314SOL    HW113694   2.043   1.076   8.990
 4314SOL    HW213695   2.031   1.088   8.828
 4315SOL     OW13696   3.209   1.059   8.682
 4315SOL    HW113697   3.233   0.996   8.608
 4315SOL    HW213698   3.119   1.099   8.664
 4316SOL     OW13699   3.164   0.855   7.757
 4316SOL    HW113700   3.078   0.824   7.799
 4316SOL    HW213701   3.160   0.841   7.658
 4317SOL     OW13702   3.621   1.747   8.602
 4317SOL    HW113703   3.682   1.777   8.529
 4317SOL    HW213704   3.583   1.658   8.580
 4318SOL     OW13705   3.114   1.731   8.576
 4318SOL    HW113706   3.198   1.736   8.522
 4318SOL    HW213707   3.091   1.635   8.594
 4319SOL     OW13708   1.945   1.258   8.470
 4319SOL    HW113709   1.940   1.257   8.570
 4319SOL    HW213710   1.862   1.217   8.432
 4320SOL     OW13711   2.550   1.662   9.164
 4320SOL    HW113712   2.494   1.743   9.173
 4320SOL    HW213713   2.602   1.666   9.078
 4321SOL     OW13714   3.588   0.135   7.971
 4321SOL    HW113715   3.661   0.118   7.904
 4321SOL    HW213716   3.557   0.048   8.009
 4322SOL     OW13717   3.250   1.573   7.925
 4322SOL    HW113718   3.317   1.585   7.851
 4322SOL    HW213719   3.210   1.662   7.948
 4323SOL     OW13720   3.142   0.927   8.120
 4323SOL    HW113721   3.202   0.846   8.122
 4323SOL    HW213722   3.182   0.996   8.060
 4324SOL     OW13723   2.692   1.273   8.870
 4324SOL    HW113724   2.687   1.306   8.965
 4324SOL    HW213725   2.606   1.292   8.824
 4325SOL     OW13726   3.512   1.720   8.842
 4325SOL    HW113727   3.565   1.730   8.758
 4325SOL    HW213728   3.485   1.810   8.876
 4326SOL     OW13729   3.703   0.175   8.411
 4326SOL    HW113730   3.742   0.090   8.375
 4326SOL    HW213731   3.605   0.177   8.392
 4327SOL     OW13732   2.125   0.326   8.168
 4327SOL    HW113733   2.046   0.377   8.134
 4327SOL    HW213734   2.116   0.311   8.266
 4328SOL     OW13735   3.056   1.612   7.479
 4328SOL    HW113736   3.062   1.519   7.516
 4328SOL    HW213737   2.997   1.612   7.399
 4329SOL     OW13738   2.684   1.002   8.820
 4329SOL    HW113739   2.724   1.001   8.728
 4329SOL    HW213740   2.694   1.094   8.860
 4330SOL     OW13741   2.778   0.910   7.739
 4330SOL    HW113742   2.841   0.948   7.671
 4330SOL    HW213743   2.818   0.827   7.778
 4331SOL     OW13744   3.366   1.607   7.492
 4331SOL    HW113745   3.274   1.644   7.499
 4331SOL    HW213746   3.404   1.627   7.402
 4332SOL     OW13747   2.234   1.288   8.938
 4332SOL    HW113748   2.221   1.381   8.904
 4332SOL    HW213749   2.150   1.236   8.925
 4333SOL     OW13750   3.476   1.292   8.737
 4333SOL    HW113751   3.536   1.295   8.817
 4333SOL    HW213752   3.401   1.356   8.750
 4334SOL     OW13753   2.901   1.098   8.144
 4334SOL    HW113754   2.831   1.051   8.198
 4334SOL    HW213755   2.960   1.030   8.101
 4335SOL     OW13756   2.876   0.236   8.419
 4335SOL    HW113757   2.868   0.200   8.326
 4335SOL    HW213758   2.874   0.160   8.484
 4336SOL     OW13759   3.571   0.385   8.829
 4336SOL    HW113760   3.644   0.454   8.833
 4336SOL    HW213761   3.599   0.310   8.770
 4337SOL     OW13762   1.967   1.013   9.174
 4337SOL    HW113763   1.890   0.980   9.228
 4337SOL    HW213764   2.052   0.983   9.216
 4338SOL     OW13765   2.534   0.203   8.937
 4338SOL    HW113766   2.624   0.187   8.897
 4338SOL    HW213767   2.542   0.208   9.036
 4339SOL     OW13768   1.937   0.345   7.481
 4339SOL    HW113769   1.845   0.317   7.452
 4339SOL    HW213770   1.968   0.422   7.425
 4340SOL     OW13771   3.302   0.856   8.846
 4340SOL    HW113772   3.245   0.908   8.783
 4340SOL    HW213773   3.398   0.868   8.822
 4341SOL     OW13774   1.934   0.166   7.766
 4341SOL    HW113775   1.917   0.249   7.712
 4341SOL    HW213776   2.024   0.129   7.744
 4342SOL     OW13777   3.045   1.335   7.567
 4342SOL    HW113778   2.946   1.324   7.569
 4342SOL    HW213779   3.079   1.350   7.660
 4343SOL     OW13780   2.475   0.842   8.879
 4343SOL    HW113781   2.531   0.923   8.862
 4343SOL    HW213782   2.534   0.762   8.882
 4344SOL     OW13783   3.355   1.767   8.407
 4344SOL    HW113784   3.388   1.831   8.338
 4344SOL    HW213785   3.421   1.761   8.482
 4345SOL     OW13786   2.578   0.565   9.156
 4345SOL    HW113787   2.597   0.630   9.230
 4345SOL    HW213788   2.638   0.485   9.165
 4346SOL     OW13789   3.312   1.220   9.081
 4346SOL    HW113790   3.303   1.210   9.180
 4346SOL    HW213791   3.408   1.213   9.055
 4347SOL     OW13792   2.252   1.741   9.008
 4347SOL    HW113793   2.161   1.782   9.006
 4347SOL    HW213794   2.245   1.647   9.040
 4348SOL     OW13795   3.536   0.883   8.702
 4348SOL    HW113796   3.509   0.794   8.665
 4348SOL    HW213797   3.537   0.951   8.629
 4349SOL     OW13798   3.087   0.325   7.897
 4349SOL    HW113799   3.152   0.251   7.886
 4349SOL    HW213800   3.107   0.375   7.981
 4350SOL     OW13801   2.456   0.745   8.100
 4350SOL    HW113802   2.506   0.830   8.081
 4350SOL    HW213803   2.368   0.747   8.052
 4351SOL     OW13804   3.639   0.342   9.090
 4351SOL    HW113805   3.622   0.373   8.996
 4351SOL    HW213806   3.555   0.305   9.128
 4352SOL     OW13807   3.592   0.934   8.965
 4352SOL    HW113808   3.630   1.025   8.980
 4352SOL    HW213809   3.584   0.917   8.866
 4353SOL     OW13810   2.721   1.374   7.464
 4353SOL    HW113811   2.675   1.389   7.552
 4353SOL    HW213812   2.765   1.459   7.434
 4354SOL     OW13813   2.523   1.790   8.401
 4354SOL    HW113814   2.477   1.878   8.388
 4354SOL    HW213815   2.622   1.802   8.394
 4355SOL     OW13816   2.721   0.956   8.309
 4355SOL    HW113817   2.775   0.887   8.357
 4355SOL    HW213818   2.689   1.025   8.375
 4356SOL     OW13819   2.945   0.984   7.535
 4356SOL    HW113820   2.922   1.037   7.453
 4356SOL    HW213821   3.026   0.928   7.516
 4357SOL     OW13822   3.723   1.569   8.299
 4357SOL    HW113823   3.652   1.557   8.229
 4357SOL    HW213824   3.724   1.490   8.359
 4358SOL     OW13825   2.083   1.314   9.292
 4358SOL    HW113826   2.018   1.241   9.271
 4358SOL    HW213827   2.087   1.328   9.390
 4359SOL     OW13828   1.941   1.240   8.101
 4359SOL    HW113829   1.940   1.193   8.189
 4359SOL    HW213830   2.023   1.212   8.050
 4360SOL     OW13831   2.534   1.391   9.072
 4360SOL    HW113832   2.456   1.341   9.110
 4360SOL    HW213833   2.531   1.486   9.103
 4361SOL     OW13834   3.686   0.192   8.675
 4361SOL    HW113835   3.682   0.102   8.719
 4361SOL    HW213836   3.689   0.181   8.576
 4362SOL     OW13837   2.290   0.424   7.968
 4362SOL    HW113838   2.320   0.352   7.906
 4362SOL    HW213839   2.251   0.384   8.051
 4363SOL     OW13840   3.567   1.487   8.552
 4363SOL    HW113841   3.474   1.462   8.525
 4363SOL    HW213842   3.593   1.437   8.634
 4364SOL     OW13843   2.179   0.547   8.728
 4364SOL    HW113844   2.217   0.488   8.800
 4364SOL    HW213845   2.219   0.521   8.640
 4365SOL     OW13846   2.674   1.586   8.135
 4365SOL    HW113847   2.706   1.596   8.041
 4365SOL    HW213848   2.595   1.524   8.137
 4366SOL     OW13849   3.286   0.214   8.560
 4366SOL    HW113850   3.338   0.149   8.615
 4366SOL    HW213851   3.237   0.277   8.621
 4367SOL     OW13852   2.863   0.034   8.602
 4367SOL    HW113853   2.800  -0.038   8.571
 4367SOL    HW213854   2.956  -0.002   8.602
 4368SOL     OW13855   2.632   1.330   7.749
 4368SOL    HW113856   2.586   1.243   7.766
 4368SOL    HW213857   2.723   1.327   7.790
 4369SOL     OW13858   2.480   1.567   8.732
 4369SOL    HW113859   2.475   1.649   8.789
 4369SOL    HW213860   2.569   1.564   8.687
 4370SOL     OW13861   3.214   0.052   7.616
 4370SOL    HW113862   3.249   0.011   7.532
 4370SOL    HW213863   3.124   0.014   7.636
 4371SOL     OW13864   3.162   0.453   8.139
 4371SOL    HW113865   3.103   0.533   8.143
 4371SOL    HW213866   3.177   0.418   8.232
 4372SOL     OW13867   3.455   0.221   8.330
 4372SOL    HW113868   3.371   0.220   8.384
 4372SOL    HW213869   3.457   0.304   8.274
 4373SOL     OW13870   1.901   1.077   7.748
 4373SOL    HW113871   2.000   1.066   7.739
 4373SOL    HW213872   1.861   0.991   7.780
 4374SOL     OW13873   2.092   0.628   9.423
 4374SOL    HW113874   1.999   0.626   9.460
 4374SOL    HW213875   2.093   0.589   9.331
 4375SOL     OW13876   2.087   0.275  10.306
 4375SOL    HW113877   2.122   0.258  10.398
 4375SOL    HW213878   1.999   0.230  10.294
 4376SOL     OW13879   1.881   0.368   9.957
 4376SOL    HW113880   1.799   0.411   9.996
 4376SOL    HW213881   1.853   0.295   9.894
 4377SOL     OW13882   2.431   1.275  10.475
 4377SOL    HW113883   2.338   1.268  10.438
 4377SOL    HW213884   2.442   1.364  10.519
 4378SOL     OW13885   3.417   1.511  10.013
 4378SOL    HW113886   3.360   1.495  10.094
 4378SOL    HW213887   3.358   1.521   9.933
 4379SOL     OW13888   2.997   0.703  10.027
 4379SOL    HW113889   3.054   0.781  10.002
 4379SOL    HW213890   2.937   0.729  10.103
 4380SOL     OW13891   3.617   0.607   9.541
 4380SOL    HW113892   3.605   0.594   9.442
 4380SOL    HW213893   3.587   0.526   9.590
 4381SOL     OW13894   2.630   1.144  10.333
 4381SOL    HW113895   2.552   1.161  10.393
 4381SOL    HW213896   2.664   1.231  10.297
 4382SOL     OW13897   2.712   0.798  11.133
 4382SOL    HW113898   2.708   0.874  11.198
 4382SOL    HW213899   2.734   0.834  11.042
 4383SOL     OW13900   2.547   1.012   9.975
 4383SOL    HW113901   2.616   0.996  10.045
 4383SOL    HW213902   2.474   1.069  10.013
 4384SOL     OW13903   2.548   1.161  11.113
 4384SOL    HW113904   2.608   1.240  11.127
 4384SOL    HW213905   2.462   1.192  11.072
 4385SOL     OW13906   2.197   1.435  10.371
 4385SOL    HW113907   2.119   1.404  10.318
 4385SOL    HW213908   2.255   1.493  10.314
 4386SOL     OW13909   3.322   1.505  10.649
 4386SOL    HW113910   3.346   1.599  10.675
 4386SOL    HW213911   3.306   1.451  10.731
 4387SOL     OW13912   2.300   0.392  10.809
 4387SOL    HW113913   2.382   0.336  10.818
 4387SOL    HW213914   2.219   0.334  10.813
 4388SOL     OW13915   3.465   0.447  10.047
 4388SOL    HW113916   3.391   0.493   9.997
 4388SOL    HW213917   3.516   0.515  10.100
 4389SOL     OW13918   2.093   1.713   9.793
 4389SOL    HW113919   2.127   1.790   9.847
 4389SOL    HW213920   2.137   1.713   9.703
 4390SOL     OW13921   2.989   1.341  11.000
 4390SOL    HW113922   3.036   1.341  11.088
 4390SOL    HW213923   2.941   1.254  10.989
 4391SOL     OW13924   2.092   1.434   9.848
 4391SOL    HW113925   2.066   1.530   9.848
 4391SOL    HW213926   2.021   1.380   9.893
 4392SOL     OW13927   2.102   1.091  10.196
 4392SOL    HW113928   2.116   1.007  10.248
 4392SOL    HW213929   2.047   1.155  10.251
 4393SOL     OW13930   2.482   1.786  10.749
 4393SOL    HW113931   2.390   1.769  10.784
 4393SOL    HW213932   2.510   1.878  10.775
 4394SOL     OW13933   2.468   0.964   9.433
 4394SOL    HW113934   2.475   1.048   9.379
 4394SOL    HW213935   2.514   0.977   9.521
 4395SOL     OW13936   3.456   0.114  10.790
 4395SOL    HW113937   3.438   0.181  10.718
 4395SOL    HW213938   3.453   0.160  10.879
 4396SOL     OW13939   1.984   0.643   9.873
 4396SOL    HW113940   1.939   0.555   9.890
 4396SOL    HW213941   1.983   0.697   9.957
 4397SOL     OW13942   3.704   1.767   9.669
 4397SOL    HW113943   3.758   1.738   9.749
 4397SOL    HW213944   3.734   1.857   9.640
 4398SOL     OW13945   1.889   1.596   9.427
 4398SOL    HW113946   1.870   1.500   9.448
 4398SOL    HW213947   1.856   1.654   9.502
 4399SOL     OW13948   3.551   0.922   9.922
 4399SOL    HW113949   3.646   0.893   9.930
 4399SOL    HW213950   3.543   0.987   9.847
 4400SOL     OW13951   3.503   1.108   9.742
 4400SOL    HW113952   3.589   1.110   9.690
 4400SOL    HW213953   3.517   1.155   9.830
 4401SOL     OW13954   1.975   0.737  10.907
 4401SOL    HW113955   2.063   0.724  10.952
 4401SOL    HW213956   1.962   0.834  10.885
 4402SOL     OW13957   2.475   1.365  10.036
 4402SOL    HW113958   2.426   1.278  10.045
 4402SOL    HW213959   2.452   1.408   9.949
 4403SOL     OW13960   3.155   1.228  10.733
 4403SOL    HW113961   3.192   1.155  10.675
 4403SOL    HW213962   3.207   1.233  10.818
 4404SOL     OW13963   2.671   0.004   9.812
 4404SOL    HW113964   2.711   0.095   9.803
 4404SOL    HW213965   2.571   0.012   9.818
 4405SOL     OW13966   2.059   0.976  10.574
 4405SOL    HW113967   2.148   0.931  10.560
 4405SOL    HW213968   1.986   0.911  10.555
 4406SOL     OW13969   3.387   0.999   9.500
 4406SOL    HW113970   3.324   0.923   9.513
 4406SOL    HW213971   3.435   1.017   9.586
 4407SOL     OW13972   3.049   1.792  10.926
 4407SOL    HW113973   3.073   1.852  10.850
 4407SOL    HW213974   3.056   1.697  10.896
 4408SOL     OW13975   2.179   0.251  11.111
 4408SOL    HW113976   2.250   0.322  11.117
 4408SOL    HW213977   2.091   0.290  11.139
 4409SOL     OW13978   3.328   1.417  10.263
 4409SOL    HW113979   3.269   1.423  10.343
 4409SOL    HW213980   3.313   1.329  10.217
 4410SOL     OW13981   3.529   1.714   9.882
 4410SOL    HW113982   3.488   1.691   9.794
 4410SOL    HW213983   3.511   1.640   9.947
 4411SOL     OW13984   2.460   0.729   9.580
 4411SOL    HW113985   2.484   0.798   9.512
 4411SOL    HW213986   2.382   0.762   9.634
 4412SOL     OW13987   3.143   0.345  10.254
 4412SOL    HW113988   3.057   0.295  10.241
 4412SOL    HW213989   3.205   0.291  10.310
 4413SOL     OW13990   3.438   1.662   9.617
 4413SOL    HW113991   3.527   1.708   9.620
 4413SOL    HW213992   3.417   1.638   9.522
 4414SOL     OW13993   2.669   0.605  10.775
 4414SOL    HW113994   2.622   0.602  10.864
 4414SOL    HW213995   2.618   0.550  10.709
 4415SOL     OW13996   3.256   0.469  10.984
 4415SOL    HW113997   3.236   0.512  11.072
 4415SOL    HW213998   3.334   0.407  10.993
 4416SOL     OW13999   2.835   0.890  10.882
 4416SOL    HW114000   2.881   0.806  10.853
 4416SOL    HW214001   2.779   0.924  10.807
 4417SOL     OW14002   2.853   0.410  10.552
 4417SOL    HW114003   2.776   0.444  10.606
 4417SOL    HW214004   2.819   0.359  10.473
 4418SOL     OW14005   2.903   0.701   9.739
 4418SOL    HW114006   2.929   0.697   9.835
 4418SOL    HW214007   2.818   0.650   9.725
 4419SOL     OW14008   1.938   0.811  10.099
 4419SOL    HW114009   2.037   0.799  10.108
 4419SOL    HW214010   1.914   0.906  10.120
 4420SOL     OW14011   2.727   0.348   9.505
 4420SOL    HW114012   2.786   0.411   9.456
 4420SOL    HW214013   2.746   0.254   9.476
 4421SOL     OW14014   3.581   0.585  11.141
 4421SOL    HW114015   3.555   0.674  11.105
 4421SOL    HW214016   3.579   0.517  11.068
 4422SOL     OW14017   3.224   1.144   9.855
 4422SOL    HW114018   3.307   1.115   9.807
 4422SOL    HW214019   3.175   1.211   9.799
 4423SOL     OW14020   2.412   0.196  10.195
 4423SOL    HW114021   2.407   0.191  10.295
 4423SOL    HW214022   2.414   0.292  10.166
 4424SOL     OW14023   2.870   1.456   9.787
 4424SOL    HW114024   2.824   1.528   9.735
 4424SOL    HW214025   2.866   1.476   9.885
 4425SOL     OW14026   2.213   1.801  10.163
 4425SOL    HW114027   2.263   1.715  10.169
 4425SOL    HW214028   2.278   1.878  10.160
 4426SOL     OW14029   3.657   1.066  10.183
 4426SOL    HW114030   3.595   1.051  10.107
 4426SOL    HW214031   3.605   1.077  10.268
 4427SOL     OW14032   3.089   1.550  10.816
 4427SOL    HW114033   3.095   1.473  10.880
 4427SOL    HW214034   3.037   1.524  10.736
 4428SOL     OW14035   2.183   0.943   9.552
 4428SOL    HW114036   2.265   0.982   9.510
 4428SOL    HW214037   2.156   0.861   9.503
 4429SOL     OW14038   3.320   0.735  10.038
 4429SOL    HW114039   3.315   0.670  10.113
 4429SOL    HW214040   3.400   0.794  10.051
 4430SOL     OW14041   2.323   1.266  11.037
 4430SOL    HW114042   2.273   1.267  10.951
 4430SOL    HW214043   2.260   1.248  11.113
 4431SOL     OW14044   2.973   1.776   9.547
 4431SOL    HW114045   2.913   1.714   9.597
 4431SOL    HW214046   3.004   1.732   9.462
 4432SOL     OW14047   2.064   0.285  10.808
 4432SOL    HW114048   1.984   0.345  10.795
 4432SOL    HW214049   2.054   0.236  10.894
 4433SOL     OW14050   3.494   1.377   9.391
 4433SOL    HW114051   3.462   1.471   9.381
 4433SOL    HW214052   3.418   1.314   9.379
 4434SOL     OW14053   2.326   1.743   9.633
 4434SOL    HW114054   2.359   1.782   9.719
 4434SOL    HW214055   2.402   1.736   9.568
 4435SOL     OW14056   3.262   0.107   9.736
 4435SOL    HW114057   3.238   0.070   9.646
 4435SOL    HW214058   3.361   0.123   9.740
 4436SOL     OW14059   2.111   1.785  10.551
 4436SOL    HW114060   2.168   1.720  10.601
 4436SOL    HW214061   2.095   1.752  10.458
 4437SOL     OW14062   2.802   1.698  10.214
 4437SOL    HW114063   2.882   1.641  10.235
 4437SOL    HW214064   2.753   1.658  10.137
 4438SOL     OW14065   2.244   0.700   9.790
 4438SOL    HW114066   2.289   0.610   9.787
 4438SOL    HW214067   2.150   0.689   9.823
 4439SOL     OW14068   3.409   0.222  11.039
 4439SOL    HW114069   3.404   0.259  11.131
 4439SOL    HW214070   3.337   0.153  11.027
 4440SOL     OW14071   2.476   0.122   9.427
 4440SOL    HW114072   2.574   0.100   9.434
 4440SOL    HW214073   2.445   0.105   9.334
 4441SOL     OW14074   2.643   0.264  11.059
 4441SOL    HW114075   2.710   0.203  11.102
 4441SOL    HW214076   2.570   0.283  11.124
 4442SOL     OW14077   2.750   1.514  10.505
 4442SOL    HW114078   2.727   1.489  10.411
 4442SOL    HW214079   2.811   1.445  10.544
 4443SOL     OW14080   3.213   0.590  10.743
 4443SOL    HW114081   3.241   0.547  10.828
 4443SOL    HW214082   3.238   0.686  10.744
 4444SOL     OW14083   2.665   1.402  10.234
 4444SOL    HW114084   2.755   1.416  10.192
 4444SOL    HW214085   2.594   1.404  10.163
 4445SOL     OW14086   2.784   0.503  10.209
 4445SOL    HW114087   2.759   0.494  10.113
 4445SOL    HW214088   2.832   0.421  10.240
 4446SOL     OW14089   2.401   0.064   9.822
 4446SOL    HW114090   2.320   0.065   9.880
 4446SOL    HW214091   2.404   0.147   9.767
 4447SOL     OW14092   3.296   1.188   9.351
 4447SOL    HW114093   3.328   1.112   9.408
 4447SOL    HW214094   3.204   1.215   9.381
 4448SOL     OW14095   2.159   0.035   9.481
 4448SOL    HW114096   2.208   0.119   9.460
 4448SOL    HW214097   2.221  -0.030   9.526
 4449SOL     OW14098   2.797   0.236   9.790
 4449SOL    HW114099   2.749   0.277   9.712
 4449SOL    HW214100   2.896   0.234   9.771
 4450SOL     OW14101   2.938   0.683  10.774
 4450SOL    HW114102   2.858   0.622  10.777
 4450SOL    HW214103   3.019   0.630  10.750
 4451SOL     OW14104   3.089   1.570  10.103
 4451SOL    HW114105   3.110   1.644  10.038
 4451SOL    HW214106   3.157   1.570  10.176
 4452SOL     OW14107   2.321   1.152  10.051
 4452SOL    HW114108   2.250   1.125  10.116
 4452SOL    HW214109   2.295   1.124   9.958
 4453SOL     OW14110   3.133   1.797   9.901
 4453SOL    HW114111   3.177   1.861   9.837
 4453SOL    HW214112   3.083   1.849   9.971
 4454SOL     OW14113   2.894   0.549   9.326
 4454SOL    HW114114   2.853   0.631   9.287
 4454SOL    HW214115   2.958   0.575   9.399
 4455SOL     OW14116   1.940   0.556  10.696
 4455SOL    HW114117   2.032   0.555  10.655
 4455SOL    HW214118   1.934   0.630  10.763
 4456SOL     OW14119   2.423   0.222  10.457
 4456SOL    HW114120   2.461   0.138  10.494
 4456SOL    HW214121   2.335   0.241  10.501
 4457SOL     OW14122   2.728   0.454   9.952
 4457SOL    HW114123   2.696   0.526   9.890
 4457SOL    HW214124   2.752   0.373   9.899
 4458SOL     OW14125   2.879   0.039  10.063
 4458SOL    HW114126   2.807   0.044   9.994
 4458SOL    HW214127   2.855  -0.030  10.132
 4459SOL     OW14128   3.291   1.173  10.177
 4459SOL    HW114129   3.236   1.089  10.170
 4459SOL    HW214130   3.317   1.202  10.085
 4460SOL     OW14131   3.328   0.590  10.302
 4460SOL    HW114132   3.298   0.495  10.309
 4460SOL    HW214133   3.401   0.606  10.368
 4461SOL     OW14134   3.719   0.833   9.687
 4461SOL    HW114135   3.761   0.769   9.751
 4461SOL    HW214136   3.681   0.782   9.609
 4462SOL     OW14137   2.350   1.385   9.484
 4462SOL    HW114138   2.263   1.370   9.531
 4462SOL    HW214139   2.333   1.411   9.389
 4463SOL     OW14140   3.526   1.280   9.967
 4463SOL    HW114141   3.625   1.288   9.981
 4463SOL    HW214142   3.481   1.364   9.998
 4464SOL     OW14143   3.252   0.575   9.388
 4464SOL    HW114144   3.198   0.554   9.469
 4464SOL    HW214145   3.343   0.534   9.397
 4465SOL     OW14146   2.389   0.256   9.638
 4465SOL    HW114147   2.416   0.197   9.563
 4465SOL    HW214148   2.389   0.351   9.607
 4466SOL     OW14149   3.616   1.223  10.898
 4466SOL    HW114150   3.707   1.184  10.885
 4466SOL    HW214151   3.624   1.319  10.922
 4467SOL     OW14152   2.926   1.347  10.650
 4467SOL    HW114153   2.846   1.324  10.705
 4467SOL    HW214154   3.009   1.321  10.699
 4468SOL     OW14155   3.454   1.629  10.935
 4468SOL    HW114156   3.481   1.663  10.845
 4468SOL    HW214157   3.533   1.591  10.981
 4469SOL     OW14158   2.973   1.195  10.410
 4469SOL    HW114159   2.933   1.239  10.491
 4469SOL    HW214160   2.932   1.232  10.327
 4470SOL     OW14161   3.500   1.099  10.389
 4470SOL    HW114162   3.505   1.180  10.448
 4470SOL    HW214163   3.414   1.101  10.338
 4471SOL     OW14164   2.777   0.089  10.712
 4471SOL    HW114165   2.802   0.069  10.617
 4471SOL    HW214166   2.849   0.145  10.754
 4472SOL     OW14167   2.842   1.116  11.029
 4472SOL    HW114168   2.743   1.122  11.039
 4472SOL    HW214169   2.865   1.036  10.973
 4473SOL     OW14170   2.567   1.050   9.678
 4473SOL    HW114171   2.553   1.057   9.777
 4473SOL    HW214172   2.651   0.999   9.660
 4474SOL     OW14173   2.272   0.813  10.561
 4474SOL    HW114174   2.358   0.825  10.611
 4474SOL    HW214175   2.230   0.726  10.588
 4475SOL     OW14176   3.136   0.386  10.572
 4475SOL    HW114177   3.157   0.460  10.636
 4475SOL    HW214178   3.047   0.403  10.529
 4476SOL     OW14179   1.926   1.564  10.641
 4476SOL    HW114180   1.880   1.646  10.607
 4476SOL    HW214181   2.024   1.583  10.650
 4477SOL     OW14182   2.229   1.100   9.811
 4477SOL    HW114183   2.222   1.183   9.755
 4477SOL    HW214184   2.233   1.020   9.751
 4478SOL     OW14185   2.428   0.537  10.175
 4478SOL    HW114186   2.440   0.603  10.101
 4478SOL    HW214187   2.474   0.571  10.258
 4479SOL     OW14188   3.114   1.348   9.698
 4479SOL    HW114189   3.164   1.425   9.738
 4479SOL    HW214190   3.019   1.350   9.730
 4480SOL     OW14191   3.134   1.445  10.452
 4480SOL    HW114192   3.181   1.458  10.539
 4480SOL    HW214193   3.068   1.371  10.461
 4481SOL     OW14194   3.444   0.639   9.782
 4481SOL    HW114195   3.413   0.700   9.855
 4481SOL    HW214196   3.494   0.691   9.713
 4482SOL     OW14197   2.216   1.510  10.639
 4482SOL    HW114198   2.195   1.466  10.552
 4482SOL    HW214199   2.313   1.536  10.642
 4483SOL     OW14200   2.264   0.751  10.908
 4483SOL    HW114201   2.332   0.806  10.861
 4483SOL    HW214202   2.304   0.663  10.935
 4484SOL     OW14203   3.449   0.779  10.980
 4484SOL    HW114204   3.357   0.817  10.975
 4484SOL    HW214205   3.509   0.826  10.915
 4485SOL     OW14206   2.875   0.105  11.080
 4485SOL    HW114207   2.881   0.190  11.028
 4485SOL    HW214208   2.907   0.029  11.023
 4486SOL     OW14209   2.366   0.050  11.050
 4486SOL    HW114210   2.324  -0.007  10.980
 4486SOL    HW214211   2.300   0.119  11.082
 4487SOL     OW14212   2.435   0.870  10.339
 4487SOL    HW114213   2.479   0.959  10.330
 4487SOL    HW214214   2.372   0.870  10.416
 4488SOL     OW14215   3.222   0.862  10.355
 4488SOL    HW114216   3.147   0.862  10.289
 4488SOL    HW214217   3.259   0.770  10.364
 4489SOL     OW14218   3.071   0.525   9.585
 4489SOL    HW114219   3.084   0.441   9.639
 4489SOL    HW214220   3.042   0.599   9.645
 4490SOL     OW14221   2.169   0.213  10.541
 4490SOL    HW114222   2.146   0.250  10.631
 4490SOL    HW214223   2.139   0.118  10.535
 4491SOL     OW14224   1.899   1.310  10.592
 4491SOL    HW114225   1.952   1.261  10.660
 4491SOL    HW214226   1.921   1.408  10.597
 4492SOL     OW14227   2.594   0.634  10.374
 4492SOL    HW114228   2.653   0.608  10.298
 4492SOL    HW214229   2.566   0.730  10.363
 4493SOL     OW14230   3.590   0.935  11.164
 4493SOL    HW114231   3.544   0.928  11.075
 4493SOL    HW214232   3.528   0.979  11.230
 4494SOL     OW14233   2.169   0.063   9.928
 4494SOL    HW114234   2.158   0.157   9.961
 4494SOL    HW214235   2.164   0.000  10.005
 4495SOL     OW14236   3.484   0.367   9.684
 4495SOL    HW114237   3.486   0.291   9.748
 4495SOL    HW214238   3.436   0.444   9.724
 4496SOL     OW14239   2.885   0.766  10.276
 4496SOL    HW114240   2.900   0.787  10.372
 4496SOL    HW214241   2.855   0.671  10.267
 4497SOL     OW14242   2.842   1.573  11.010
 4497SOL    HW114243   2.822   1.617  10.922
 4497SOL    HW214244   2.881   1.482  10.994
 4498SOL     OW14245   3.721   1.518  10.915
 4498SOL    HW114246   3.735   1.545  10.820
 4498SOL    HW214247   3.804   1.540  10.968
 4499SOL     OW14248   2.212   0.898  11.114
 4499SOL    HW114249   2.288   0.942  11.162
 4499SOL    HW214250   2.247   0.851  11.032
 4500SOL     OW14251   3.402   0.274   9.435
 4500SOL    HW114252   3.341   0.199   9.458
 4500SOL    HW214253   3.424   0.326   9.518
 4501SOL     OW14254   3.165   0.838   9.352
 4501SOL    HW114255   3.199   0.745   9.367
 4501SOL    HW214256   3.183   0.865   9.257
 4502SOL     OW14257   2.930   1.333  10.159
 4502SOL    HW114258   2.937   1.249  10.104
 4502SOL    HW214259   2.992   1.402  10.123
 4503SOL     OW14260   2.181   0.810  10.259
 4503SOL    HW114261   2.274   0.846  10.264
 4503SOL    HW214262   2.175   0.725  10.311
 4504SOL     OW14263   2.201   0.509  10.316
 4504SOL    HW114264   2.149   0.426  10.299
 4504SOL    HW214265   2.278   0.514  10.252
 4505SOL     OW14266   3.000   0.380  10.988
 4505SOL    HW114267   2.955   0.443  11.052
 4505SOL    HW214268   3.093   0.411  10.971
 4506SOL     OW14269   3.022   0.207  10.787
 4506SOL    HW114270   3.022   0.271  10.864
 4506SOL    HW214271   3.050   0.255  10.704
 4507SOL     OW14272   1.870   1.326   9.510
 4507SOL    HW114273   1.777   1.347   9.479
 4507SOL    HW214274   1.880   1.227   9.523
 4508SOL     OW14275   2.366   1.568  10.220
 4508SOL    HW114276   2.432   1.642  10.229
 4508SOL    HW214277   2.410   1.489  10.178
 4509SOL     OW14278   2.864   0.796  10.548
 4509SOL    HW114279   2.905   0.764  10.634
 4509SOL    HW214280   2.768   0.769  10.545
 4510SOL     OW14281   1.902   0.544  10.424
 4510SOL    HW114282   1.987   0.511  10.383
 4510SOL    HW214283   1.915   0.559  10.522
 4511SOL     OW14284   2.051   0.520  11.032
 4511SOL    HW114285   2.110   0.480  10.962
 4511SOL    HW214286   1.993   0.591  10.991
 4512SOL     OW14287   3.231   0.950  10.970
 4512SOL    HW114288   3.270   1.039  10.990
 4512SOL    HW214289   3.241   0.930  10.873
 4513SOL     OW14290   2.677   0.572   9.635
 4513SOL    HW114291   2.684   0.483   9.589
 4513SOL    HW214292   2.583   0.606   9.627
 4514SOL     OW14293   3.519   0.604  10.516
 4514SOL    HW114294   3.481   0.535  10.578
 4514SOL    HW214295   3.601   0.568  10.472
 4515SOL     OW14296   2.114   1.564  11.054
 4515SOL    HW114297   2.084   1.621  11.130
 4515SOL    HW214298   2.107   1.467  11.080
 4516SOL     OW14299   2.533   0.464  10.579
 4516SOL    HW114300   2.499   0.375  10.549
 4516SOL    HW214301   2.559   0.518  10.499
 4517SOL     OW14302   2.792   1.678  10.775
 4517SOL    HW114303   2.768   1.660  10.680
 4517SOL    HW214304   2.822   1.772  10.785
 4518SOL     OW14305   2.335   0.500   9.501
 4518SOL    HW114306   2.396   0.580   9.505
 4518SOL    HW214307   2.240   0.531   9.508
 4519SOL     OW14308   2.021   1.137  10.776
 4519SOL    HW114309   2.043   1.076  10.852
 4519SOL    HW214310   2.031   1.088  10.690
 4520SOL     OW14311   3.209   1.059  10.544
 4520SOL    HW114312   3.233   0.996  10.470
 4520SOL    HW214313   3.119   1.099  10.526
 4521SOL     OW14314   3.164   0.855   9.619
 4521SOL    HW114315   3.078   0.824   9.661
 4521SOL    HW214316   3.160   0.841   9.520
 4522SOL     OW14317   3.621   1.747  10.464
 4522SOL    HW114318   3.682   1.777  10.391
 4522SOL    HW214319   3.583   1.658  10.442
 4523SOL     OW14320   3.114   1.731  10.438
 4523SOL    HW114321   3.198   1.736  10.384
 4523SOL    HW214322   3.091   1.635  10.456
 4524SOL     OW14323   1.945   1.258  10.332
 4524SOL    HW114324   1.940   1.257  10.432
 4524SOL    HW214325   1.862   1.217  10.294
 4525SOL     OW14326   2.550   1.662  11.026
 4525SOL    HW114327   2.494   1.743  11.035
 4525SOL    HW214328   2.602   1.666  10.940
 4526SOL     OW14329   3.588   0.135   9.833
 4526SOL    HW114330   3.661   0.118   9.766
 4526SOL    HW214331   3.557   0.048   9.871
 4527SOL     OW14332   3.250   1.573   9.787
 4527SOL    HW114333   3.317   1.585   9.713
 4527SOL    HW214334   3.210   1.662   9.810
 4528SOL     OW14335   3.142   0.927   9.982
 4528SOL    HW114336   3.202   0.846   9.984
 4528SOL    HW214337   3.182   0.996   9.922
 4529SOL     OW14338   2.692   1.273  10.732
 4529SOL    HW114339   2.687   1.306  10.827
 4529SOL    HW214340   2.606   1.292  10.686
 4530SOL     OW14341   2.534   1.616   9.464
 4530SOL    HW114342   2.543   1.626   9.365
 4530SOL    HW214343   2.494   1.527   9.485
 4531SOL     OW14344   3.512   1.720  10.704
 4531SOL    HW114345   3.565   1.730  10.620
 4531SOL    HW214346   3.485   1.810  10.738
 4532SOL     OW14347   3.703   0.175  10.273
 4532SOL    HW114348   3.742   0.090  10.237
 4532SOL    HW214349   3.605   0.177  10.254
 4533SOL     OW14350   2.125   0.326  10.030
 4533SOL    HW114351   2.046   0.377   9.996
 4533SOL    HW214352   2.116   0.311  10.128
 4534SOL     OW14353   3.056   1.612   9.341
 4534SOL    HW114354   3.062   1.519   9.378
 4534SOL    HW214355   2.997   1.612   9.261
 4535SOL     OW14356   2.684   1.002  10.682
 4535SOL    HW114357   2.724   1.001  10.590
 4535SOL    HW214358   2.694   1.094  10.722
 4536SOL     OW14359   2.778   0.910   9.601
 4536SOL    HW114360   2.841   0.948   9.533
 4536SOL    HW214361   2.818   0.827   9.640
 4537SOL     OW14362   3.366   1.607   9.354
 4537SOL    HW114363   3.274   1.644   9.361
 4537SOL    HW214364   3.404   1.627   9.264
 4538SOL     OW14365   2.234   1.288  10.800
 4538SOL    HW114366   2.221   1.381  10.766
 4538SOL    HW214367   2.150   1.236  10.787
 4539SOL     OW14368   3.476   1.292  10.599
 4539SOL    HW114369   3.536   1.295  10.679
 4539SOL    HW214370   3.401   1.356  10.612
 4540SOL     OW14371   2.901   1.098  10.006
 4540SOL    HW114372   2.831   1.051  10.060
 4540SOL    HW214373   2.960   1.030   9.963
 4541SOL     OW14374   2.876   0.236  10.281
 4541SOL    HW114375   2.868   0.200  10.188
 4541SOL    HW214376   2.874   0.160  10.346
 4542SOL     OW14377   2.452   1.487   9.801
 4542SOL    HW114378   2.494   1.429   9.731
 4542SOL    HW214379   2.408   1.566   9.757
 4543SOL     OW14380   3.571   0.385  10.691
 4543SOL    HW114381   3.644   0.454  10.695
 4543SOL    HW214382   3.599   0.310  10.632
 4544SOL     OW14383   2.117   1.348   9.600
 4544SOL    HW114384   2.021   1.349   9.573
 4544SOL    HW214385   2.129   1.401   9.684
 4545SOL     OW14386   1.967   1.013  11.036
 4545SOL    HW114387   1.890   0.980  11.090
 4545SOL    HW214388   2.052   0.983  11.078
 4546SOL     OW14389   2.534   0.203  10.799
 4546SOL    HW114390   2.624   0.187  10.759
 4546SOL    HW214391   2.542   0.208  10.898
 4547SOL     OW14392   1.937   0.345   9.343
 4547SOL    HW114393   1.845   0.317   9.314
 4547SOL    HW214394   1.968   0.422   9.287
 4548SOL     OW14395   3.302   0.856  10.708
 4548SOL    HW114396   3.245   0.908  10.645
 4548SOL    HW214397   3.398   0.868  10.684
 4549SOL     OW14398   1.934   0.166   9.628
 4549SOL    HW114399   1.917   0.249   9.574
 4549SOL    HW214400   2.024   0.129   9.606
 4550SOL     OW14401   3.045   1.335   9.429
 4550SOL    HW114402   2.946   1.324   9.431
 4550SOL    HW214403   3.079   1.350   9.522
 4551SOL     OW14404   2.475   0.842  10.741
 4551SOL    HW114405   2.531   0.923  10.724
 4551SOL    HW214406   2.534   0.762  10.744
 4552SOL     OW14407   3.355   1.767  10.269
 4552SOL    HW114408   3.388   1.831  10.200
 4552SOL    HW214409   3.421   1.761  10.344
 4553SOL     OW14410   2.578   0.565  11.018
 4553SOL    HW114411   2.597   0.630  11.092
 4553SOL    HW214412   2.638   0.485  11.027
 4554SOL     OW14413   3.312   1.220  10.943
 4554SOL    HW114414   3.303   1.210  11.042
 4554SOL    HW214415   3.408   1.213  10.917
 4555SOL     OW14416   2.252   1.741  10.870
 4555SOL    HW114417   2.161   1.782  10.868
 4555SOL    HW214418   2.245   1.647  10.902
 4556SOL     OW14419   3.536   0.883  10.564
 4556SOL    HW114420   3.509   0.794  10.527
 4556SOL    HW214421   3.537   0.951  10.491
 4557SOL     OW14422   3.087   0.325   9.759
 4557SOL    HW114423   3.152   0.251   9.748
 4557SOL    HW214424   3.107   0.375   9.843
 4558SOL     OW14425   2.456   0.745   9.962
 4558SOL    HW114426   2.506   0.830   9.943
 4558SOL    HW214427   2.368   0.747   9.914
 4559SOL     OW14428   3.639   0.342  10.952
 4559SOL    HW114429   3.622   0.373  10.858
 4559SOL    HW214430   3.555   0.305  10.990
 4560SOL     OW14431   3.592   0.934  10.827
 4560SOL    HW114432   3.630   1.025  10.842
 4560SOL    HW214433   3.584   0.917  10.728
 4561SOL     OW14434   2.721   1.374   9.326
 4561SOL    HW114435   2.675   1.389   9.414
 4561SOL    HW214436   2.765   1.459   9.296
 4562SOL     OW14437   2.523   1.790  10.263
 4562SOL    HW114438   2.477   1.878  10.250
 4562SOL    HW214439   2.622   1.802  10.256
 4563SOL     OW14440   2.721   0.956  10.171
 4563SOL    HW114441   2.775   0.887  10.219
 4563SOL    HW214442   2.689   1.025  10.237
 4564SOL     OW14443   2.945   0.984   9.397
 4564SOL    HW114444   2.922   1.037   9.315
 4564SOL    HW214445   3.026   0.928   9.378
 4565SOL     OW14446   3.723   1.569  10.161
 4565SOL    HW114447   3.652   1.557  10.091
 4565SOL    HW214448   3.724   1.490  10.221
 4566SOL     OW14449   2.083   1.314  11.154
 4566SOL    HW114450   2.018   1.241  11.133
 4566SOL    HW214451   2.087   1.328  11.252
 4567SOL     OW14452   1.941   1.240   9.963
 4567SOL    HW114453   1.940   1.193  10.051
 4567SOL    HW214454   2.023   1.212   9.912
 4568SOL     OW14455   2.534   1.391  10.934
 4568SOL    HW114456   2.456   1.341  10.972
 4568SOL    HW214457   2.531   1.486  10.965
 4569SOL     OW14458   3.686   0.192  10.537
 4569SOL    HW114459   3.682   0.102  10.581
 4569SOL    HW214460   3.689   0.181  10.438
 4570SOL     OW14461   2.290   0.424   9.830
 4570SOL    HW114462   2.320   0.352   9.768
 4570SOL    HW214463   2.251   0.384   9.913
 4571SOL     OW14464   3.567   1.487  10.414
 4571SOL    HW114465   3.474   1.462  10.387
 4571SOL    HW214466   3.593   1.437  10.496
 4572SOL     OW14467   2.179   0.547  10.590
 4572SOL    HW114468   2.217   0.488  10.662
 4572SOL    HW214469   2.219   0.521  10.502
 4573SOL     OW14470   2.674   1.586   9.997
 4573SOL    HW114471   2.706   1.596   9.903
 4573SOL    HW214472   2.595   1.524   9.999
 4574SOL     OW14473   3.286   0.214  10.422
 4574SOL    HW114474   3.338   0.149  10.477
 4574SOL    HW214475   3.237   0.277  10.483
 4575SOL     OW14476   2.863   0.034  10.464
 4575SOL    HW114477   2.800  -0.038  10.433
 4575SOL    HW214478   2.956  -0.002  10.464
 4576SOL     OW14479   2.632   1.330   9.611
 4576SOL    HW114480   2.586   1.243   9.628
 4576SOL    HW214481   2.723   1.327   9.652
 4577SOL     OW14482   2.480   1.567  10.594
 4577SOL    HW114483   2.475   1.649  10.651
 4577SOL    HW214484   2.569   1.564  10.549
 4578SOL     OW14485   3.214   0.052   9.478
 4578SOL    HW114486   3.249   0.011   9.394
 4578SOL    HW214487   3.124   0.014   9.498
 4579SOL     OW14488   3.162   0.453  10.001
 4579SOL    HW114489   3.103   0.533  10.005
 4579SOL    HW214490   3.177   0.418  10.094
 4580SOL     OW14491   3.455   0.221  10.192
 4580SOL    HW114492   3.371   0.220  10.246
 4580SOL    HW214493   3.457   0.304  10.136
 4581SOL     OW14494   1.901   1.077   9.610
 4581SOL    HW114495   2.000   1.066   9.601
 4581SOL    HW214496   1.861   0.991   9.642
 4582SOL     OW14497   2.737   1.646   9.647
 4582SOL    HW114498   2.660   1.611   9.593
 4582SOL    HW214499   2.705   1.717   9.709
 4583SOL     OW14500   2.092   0.628  11.285
 4583SOL    HW114501   1.999   0.626  11.322
 4583SOL    HW214502   2.093   0.589  11.193
 4584SOL     OW14503   2.087   0.275  12.168
 4584SOL    HW114504   2.122   0.258  12.260
 4584SOL    HW214505   1.999   0.230  12.156
 4585SOL     OW14506   1.881   0.368  11.819
 4585SOL    HW114507   1.799   0.411  11.858
 4585SOL    HW214508   1.853   0.295  11.756
 4586SOL     OW14509   2.431   1.275  12.337
 4586SOL    HW114510   2.338   1.268  12.300
 4586SOL    HW214511   2.442   1.364  12.381
 4587SOL     OW14512   3.417   1.511  11.875
 4587SOL    HW114513   3.360   1.495  11.956
 4587SOL    HW214514   3.358   1.521  11.795
 4588SOL     OW14515   2.997   0.703  11.889
 4588SOL    HW114516   3.054   0.781  11.864
 4588SOL    HW214517   2.937   0.729  11.965
 4589SOL     OW14518   3.617   0.607  11.403
 4589SOL    HW114519   3.605   0.594  11.304
 4589SOL    HW214520   3.587   0.526  11.452
 4590SOL     OW14521   2.630   1.144  12.195
 4590SOL    HW114522   2.552   1.161  12.255
 4590SOL    HW214523   2.664   1.231  12.159
 4591SOL     OW14524   2.712   0.798  12.995
 4591SOL    HW114525   2.708   0.874  13.060
 4591SOL    HW214526   2.734   0.834  12.904
 4592SOL     OW14527   2.547   1.012  11.837
 4592SOL    HW114528   2.616   0.996  11.907
 4592SOL    HW214529   2.474   1.069  11.875
 4593SOL     OW14530   2.548   1.161  12.975
 4593SOL    HW114531   2.608   1.240  12.989
 4593SOL    HW214532   2.462   1.192  12.934
 4594SOL     OW14533   2.197   1.435  12.233
 4594SOL    HW114534   2.119   1.404  12.180
 4594SOL    HW214535   2.255   1.493  12.176
 4595SOL     OW14536   3.322   1.505  12.511
 4595SOL    HW114537   3.346   1.599  12.537
 4595SOL    HW214538   3.306   1.451  12.593
 4596SOL     OW14539   2.300   0.392  12.671
 4596SOL    HW114540   2.382   0.336  12.680
 4596SOL    HW214541   2.219   0.334  12.675
 4597SOL     OW14542   3.465   0.447  11.909
 4597SOL    HW114543   3.391   0.493  11.859
 4597SOL    HW214544   3.516   0.515  11.962
 4598SOL     OW14545   2.093   1.713  11.655
 4598SOL    HW114546   2.127   1.790  11.709
 4598SOL    HW214547   2.137   1.713  11.565
 4599SOL     OW14548   2.989   1.341  12.862
 4599SOL    HW114549   3.036   1.341  12.950
 4599SOL    HW214550   2.941   1.254  12.851
 4600SOL     OW14551   2.092   1.434  11.710
 4600SOL    HW114552   2.066   1.530  11.710
 4600SOL    HW214553   2.021   1.380  11.755
 4601SOL     OW14554   2.102   1.091  12.058
 4601SOL    HW114555   2.116   1.007  12.110
 4601SOL    HW214556   2.047   1.155  12.113
 4602SOL     OW14557   2.482   1.786  12.611
 4602SOL    HW114558   2.390   1.769  12.646
 4602SOL    HW214559   2.510   1.878  12.637
 4603SOL     OW14560   2.468   0.964  11.295
 4603SOL    HW114561   2.475   1.048  11.241
 4603SOL    HW214562   2.514   0.977  11.383
 4604SOL     OW14563   3.456   0.114  12.652
 4604SOL    HW114564   3.438   0.181  12.580
 4604SOL    HW214565   3.453   0.160  12.741
 4605SOL     OW14566   1.984   0.643  11.735
 4605SOL    HW114567   1.939   0.555  11.752
 4605SOL    HW214568   1.983   0.697  11.819
 4606SOL     OW14569   3.704   1.767  11.531
 4606SOL    HW114570   3.758   1.738  11.611
 4606SOL    HW214571   3.734   1.857  11.502
 4607SOL     OW14572   3.551   0.922  11.784
 4607SOL    HW114573   3.646   0.893  11.792
 4607SOL    HW214574   3.543   0.987  11.709
 4608SOL     OW14575   3.503   1.108  11.604
 4608SOL    HW114576   3.589   1.110  11.552
 4608SOL    HW214577   3.517   1.155  11.692
 4609SOL     OW14578   1.975   0.737  12.769
 4609SOL    HW114579   2.063   0.724  12.814
 4609SOL    HW214580   1.962   0.834  12.747
 4610SOL     OW14581   2.475   1.365  11.898
 4610SOL    HW114582   2.426   1.278  11.907
 4610SOL    HW214583   2.452   1.408  11.811
 4611SOL     OW14584   3.155   1.228  12.595
 4611SOL    HW114585   3.192   1.155  12.537
 4611SOL    HW214586   3.207   1.233  12.680
 4612SOL     OW14587   2.671   0.004  11.674
 4612SOL    HW114588   2.711   0.095  11.665
 4612SOL    HW214589   2.571   0.012  11.680
 4613SOL     OW14590   2.059   0.976  12.436
 4613SOL    HW114591   2.148   0.931  12.422
 4613SOL    HW214592   1.986   0.911  12.417
 4614SOL     OW14593   3.387   0.999  11.362
 4614SOL    HW114594   3.324   0.923  11.375
 4614SOL    HW214595   3.435   1.017  11.448
 4615SOL     OW14596   3.049   1.792  12.788
 4615SOL    HW114597   3.073   1.852  12.712
 4615SOL    HW214598   3.056   1.697  12.758
 4616SOL     OW14599   2.179   0.251  12.973
 4616SOL    HW114600   2.250   0.322  12.979
 4616SOL    HW214601   2.091   0.290  13.001
 4617SOL     OW14602   3.328   1.417  12.125
 4617SOL    HW114603   3.269   1.423  12.205
 4617SOL    HW214604   3.313   1.329  12.079
 4618SOL     OW14605   3.529   1.714  11.744
 4618SOL    HW114606   3.488   1.691  11.656
 4618SOL    HW214607   3.511   1.640  11.809
 4619SOL     OW14608   2.460   0.729  11.442
 4619SOL    HW114609   2.484   0.798  11.374
 4619SOL    HW214610   2.382   0.762  11.496
 4620SOL     OW14611   3.143   0.345  12.116
 4620SOL    HW114612   3.057   0.295  12.103
 4620SOL    HW214613   3.205   0.291  12.172
 4621SOL     OW14614   3.438   1.662  11.479
 4621SOL    HW114615   3.527   1.708  11.482
 4621SOL    HW214616   3.417   1.638  11.384
 4622SOL     OW14617   2.669   0.605  12.637
 4622SOL    HW114618   2.622   0.602  12.726
 4622SOL    HW214619   2.618   0.550  12.571
 4623SOL     OW14620   3.256   0.469  12.846
 4623SOL    HW114621   3.236   0.512  12.934
 4623SOL    HW214622   3.334   0.407  12.855
 4624SOL     OW14623   2.835   0.890  12.744
 4624SOL    HW114624   2.881   0.806  12.715
 4624SOL    HW214625   2.779   0.924  12.669
 4625SOL     OW14626   2.853   0.410  12.414
 4625SOL    HW114627   2.776   0.444  12.468
 4625SOL    HW214628   2.819   0.359  12.335
 4626SOL     OW14629   2.903   0.701  11.601
 4626SOL    HW114630   2.929   0.697  11.697
 4626SOL    HW214631   2.818   0.650  11.587
 4627SOL     OW14632   1.938   0.811  11.961
 4627SOL    HW114633   2.037   0.799  11.970
 4627SOL    HW214634   1.914   0.906  11.982
 4628SOL     OW14635   2.727   0.348  11.367
 4628SOL    HW114636   2.786   0.411  11.318
 4628SOL    HW214637   2.746   0.254  11.338
 4629SOL     OW14638   3.581   0.585  13.003
 4629SOL    HW114639   3.555   0.674  12.967
 4629SOL    HW214640   3.579   0.517  12.930
 4630SOL     OW14641   3.224   1.144  11.717
 4630SOL    HW114642   3.307   1.115  11.669
 4630SOL    HW214643   3.175   1.211  11.661
 4631SOL     OW14644   2.412   0.196  12.057
 4631SOL    HW114645   2.407   0.191  12.157
 4631SOL    HW214646   2.414   0.292  12.028
 4632SOL     OW14647   2.870   1.456  11.649
 4632SOL    HW114648   2.824   1.528  11.597
 4632SOL    HW214649   2.866   1.476  11.747
 4633SOL     OW14650   2.213   1.801  12.025
 4633SOL    HW114651   2.263   1.715  12.031
 4633SOL    HW214652   2.278   1.878  12.022
 4634SOL     OW14653   3.657   1.066  12.045
 4634SOL    HW114654   3.595   1.051  11.969
 4634SOL    HW214655   3.605   1.077  12.130
 4635SOL     OW14656   3.089   1.550  12.678
 4635SOL    HW114657   3.095   1.473  12.742
 4635SOL    HW214658   3.037   1.524  12.598
 4636SOL     OW14659   2.183   0.943  11.414
 4636SOL    HW114660   2.265   0.982  11.372
 4636SOL    HW214661   2.156   0.861  11.365
 4637SOL     OW14662   3.320   0.735  11.900
 4637SOL    HW114663   3.315   0.670  11.975
 4637SOL    HW214664   3.400   0.794  11.913
 4638SOL     OW14665   2.323   1.266  12.899
 4638SOL    HW114666   2.273   1.267  12.813
 4638SOL    HW214667   2.260   1.248  12.975
 4639SOL     OW14668   2.973   1.776  11.409
 4639SOL    HW114669   2.913   1.714  11.459
 4639SOL    HW214670   3.004   1.732  11.324
 4640SOL     OW14671   2.064   0.285  12.670
 4640SOL    HW114672   1.984   0.345  12.657
 4640SOL    HW214673   2.054   0.236  12.756
 4641SOL     OW14674   3.494   1.377  11.253
 4641SOL    HW114675   3.462   1.471  11.243
 4641SOL    HW214676   3.418   1.314  11.241
 4642SOL     OW14677   2.326   1.743  11.495
 4642SOL    HW114678   2.359   1.782  11.581
 4642SOL    HW214679   2.402   1.736  11.430
 4643SOL     OW14680   3.262   0.107  11.598
 4643SOL    HW114681   3.238   0.070  11.508
 4643SOL    HW214682   3.361   0.123  11.602
 4644SOL     OW14683   2.111   1.785  12.413
 4644SOL    HW114684   2.168   1.720  12.463
 4644SOL    HW214685   2.095   1.752  12.320
 4645SOL     OW14686   2.802   1.698  12.076
 4645SOL    HW114687   2.882   1.641  12.097
 4645SOL    HW214688   2.753   1.658  11.999
 4646SOL     OW14689   2.244   0.700  11.652
 4646SOL    HW114690   2.289   0.610  11.649
 4646SOL    HW214691   2.150   0.689  11.685
 4647SOL     OW14692   3.409   0.222  12.901
 4647SOL    HW114693   3.404   0.259  12.993
 4647SOL    HW214694   3.337   0.153  12.889
 4648SOL     OW14695   2.476   0.122  11.289
 4648SOL    HW114696   2.574   0.100  11.296
 4648SOL    HW214697   2.445   0.105  11.196
 4649SOL     OW14698   2.643   0.264  12.921
 4649SOL    HW114699   2.710   0.203  12.964
 4649SOL    HW214700   2.570   0.283  12.986
 4650SOL     OW14701   2.750   1.514  12.367
 4650SOL    HW114702   2.727   1.489  12.273
 4650SOL    HW214703   2.811   1.445  12.406
 4651SOL     OW14704   3.213   0.590  12.605
 4651SOL    HW114705   3.241   0.547  12.690
 4651SOL    HW214706   3.238   0.686  12.606
 4652SOL     OW14707   2.665   1.402  12.096
 4652SOL    HW114708   2.755   1.416  12.054
 4652SOL    HW214709   2.594   1.404  12.025
 4653SOL     OW14710   2.784   0.503  12.071
 4653SOL    HW114711   2.759   0.494  11.975
 4653SOL    HW214712   2.832   0.421  12.102
 4654SOL     OW14713   2.401   0.064  11.684
 4654SOL    HW114714   2.320   0.065  11.742
 4654SOL    HW214715   2.404   0.147  11.629
 4655SOL     OW14716   3.296   1.188  11.213
 4655SOL    HW114717   3.328   1.112  11.270
 4655SOL    HW214718   3.204   1.215  11.243
 4656SOL     OW14719   2.159   0.035  11.343
 4656SOL    HW114720   2.208   0.119  11.322
 4656SOL    HW214721   2.221  -0.030  11.388
 4657SOL     OW14722   2.797   0.236  11.652
 4657SOL    HW114723   2.749   0.277  11.574
 4657SOL    HW214724   2.896   0.234  11.633
 4658SOL     OW14725   2.938   0.683  12.636
 4658SOL    HW114726   2.858   0.622  12.639
 4658SOL    HW214727   3.019   0.630  12.612
 4659SOL     OW14728   3.089   1.570  11.965
 4659SOL    HW114729   3.110   1.644  11.900
 4659SOL    HW214730   3.157   1.570  12.038
 4660SOL     OW14731   2.321   1.152  11.913
 4660SOL    HW114732   2.250   1.125  11.978
 4660SOL    HW214733   2.295   1.124  11.820
 4661SOL     OW14734   3.133   1.797  11.763
 4661SOL    HW114735   3.177   1.861  11.699
 4661SOL    HW214736   3.083   1.849  11.833
 4662SOL     OW14737   2.894   0.549  11.188
 4662SOL    HW114738   2.853   0.631  11.149
 4662SOL    HW214739   2.958   0.575  11.261
 4663SOL     OW14740   1.940   0.556  12.558
 4663SOL    HW114741   2.032   0.555  12.517
 4663SOL    HW214742   1.934   0.630  12.625
 4664SOL     OW14743   2.423   0.222  12.319
 4664SOL    HW114744   2.461   0.138  12.356
 4664SOL    HW214745   2.335   0.241  12.363
 4665SOL     OW14746   2.728   0.454  11.814
 4665SOL    HW114747   2.696   0.526  11.752
 4665SOL    HW214748   2.752   0.373  11.761
 4666SOL     OW14749   2.879   0.039  11.925
 4666SOL    HW114750   2.807   0.044  11.856
 4666SOL    HW214751   2.855  -0.030  11.994
 4667SOL     OW14752   3.291   1.173  12.039
 4667SOL    HW114753   3.236   1.089  12.032
 4667SOL    HW214754   3.317   1.202  11.947
 4668SOL     OW14755   3.328   0.590  12.164
 4668SOL    HW114756   3.298   0.495  12.171
 4668SOL    HW214757   3.401   0.606  12.230
 4669SOL     OW14758   3.719   0.833  11.549
 4669SOL    HW114759   3.761   0.769  11.613
 4669SOL    HW214760   3.681   0.782  11.471
 4670SOL     OW14761   2.350   1.385  11.346
 4670SOL    HW114762   2.263   1.370  11.393
 4670SOL    HW214763   2.333   1.411  11.251
 4671SOL     OW14764   3.526   1.280  11.829
 4671SOL    HW114765   3.625   1.288  11.843
 4671SOL    HW214766   3.481   1.364  11.860
 4672SOL     OW14767   3.252   0.575  11.250
 4672SOL    HW114768   3.198   0.554  11.331
 4672SOL    HW214769   3.343   0.534  11.259
 4673SOL     OW14770   2.389   0.256  11.500
 4673SOL    HW114771   2.416   0.197  11.425
 4673SOL    HW214772   2.389   0.351  11.469
 4674SOL     OW14773   3.616   1.223  12.760
 4674SOL    HW114774   3.707   1.184  12.747
 4674SOL    HW214775   3.624   1.319  12.784
 4675SOL     OW14776   2.926   1.347  12.512
 4675SOL    HW114777   2.846   1.324  12.567
 4675SOL    HW214778   3.009   1.321  12.561
 4676SOL     OW14779   3.454   1.629  12.797
 4676SOL    HW114780   3.481   1.663  12.707
 4676SOL    HW214781   3.533   1.591  12.843
 4677SOL     OW14782   2.973   1.195  12.272
 4677SOL    HW114783   2.933   1.239  12.353
 4677SOL    HW214784   2.932   1.232  12.189
 4678SOL     OW14785   3.500   1.099  12.251
 4678SOL    HW114786   3.505   1.180  12.310
 4678SOL    HW214787   3.414   1.101  12.200
 4679SOL     OW14788   2.777   0.089  12.574
 4679SOL    HW114789   2.802   0.069  12.479
 4679SOL    HW214790   2.849   0.145  12.616
 4680SOL     OW14791   2.842   1.116  12.891
 4680SOL    HW114792   2.743   1.122  12.901
 4680SOL    HW214793   2.865   1.036  12.835
 4681SOL     OW14794   2.567   1.050  11.540
 4681SOL    HW114795   2.553   1.057  11.639
 4681SOL    HW214796   2.651   0.999  11.522
 4682SOL     OW14797   2.272   0.813  12.423
 4682SOL    HW114798   2.358   0.825  12.473
 4682SOL    HW214799   2.230   0.726  12.450
 4683SOL     OW14800   3.136   0.386  12.434
 4683SOL    HW114801   3.157   0.460  12.498
 4683SOL    HW214802   3.047   0.403  12.391
 4684SOL     OW14803   1.926   1.564  12.503
 4684SOL    HW114804   1.880   1.646  12.469
 4684SOL    HW214805   2.024   1.583  12.512
 4685SOL     OW14806   2.229   1.100  11.673
 4685SOL    HW114807   2.222   1.183  11.617
 4685SOL    HW214808   2.233   1.020  11.613
 4686SOL     OW14809   2.428   0.537  12.037
 4686SOL    HW114810   2.440   0.603  11.963
 4686SOL    HW214811   2.474   0.571  12.120
 4687SOL     OW14812   3.114   1.348  11.560
 4687SOL    HW114813   3.164   1.425  11.600
 4687SOL    HW214814   3.019   1.350  11.592
 4688SOL     OW14815   3.134   1.445  12.314
 4688SOL    HW114816   3.181   1.458  12.401
 4688SOL    HW214817   3.068   1.371  12.323
 4689SOL     OW14818   3.444   0.639  11.644
 4689SOL    HW114819   3.413   0.700  11.717
 4689SOL    HW214820   3.494   0.691  11.575
 4690SOL     OW14821   2.216   1.510  12.501
 4690SOL    HW114822   2.195   1.466  12.414
 4690SOL    HW214823   2.313   1.536  12.504
 4691SOL     OW14824   2.264   0.751  12.770
 4691SOL    HW114825   2.332   0.806  12.723
 4691SOL    HW214826   2.304   0.663  12.797
 4692SOL     OW14827   3.449   0.779  12.842
 4692SOL    HW114828   3.357   0.817  12.837
 4692SOL    HW214829   3.509   0.826  12.777
 4693SOL     OW14830   2.875   0.105  12.942
 4693SOL    HW114831   2.881   0.190  12.890
 4693SOL    HW214832   2.907   0.029  12.885
 4694SOL     OW14833   2.366   0.050  12.912
 4694SOL    HW114834   2.324  -0.007  12.842
 4694SOL    HW214835   2.300   0.119  12.944
 4695SOL     OW14836   2.435   0.870  12.201
 4695SOL    HW114837   2.479   0.959  12.192
 4695SOL    HW214838   2.372   0.870  12.278
 4696SOL     OW14839   3.222   0.862  12.217
 4696SOL    HW114840   3.147   0.862  12.151
 4696SOL    HW214841   3.259   0.770  12.226
 4697SOL     OW14842   3.071   0.525  11.447
 4697SOL    HW114843   3.084   0.441  11.501
 4697SOL    HW214844   3.042   0.599  11.507
 4698SOL     OW14845   2.169   0.213  12.403
 4698SOL    HW114846   2.146   0.250  12.493
 4698SOL    HW214847   2.139   0.118  12.397
 4699SOL     OW14848   1.899   1.310  12.454
 4699SOL    HW114849   1.952   1.261  12.522
 4699SOL    HW214850   1.921   1.408  12.459
 4700SOL     OW14851   2.594   0.634  12.236
 4700SOL    HW114852   2.653   0.608  12.160
 4700SOL    HW214853   2.566   0.730  12.225
 4701SOL     OW14854   3.590   0.935  13.026
 4701SOL    HW114855   3.544   0.928  12.937
 4701SOL    HW214856   3.528   0.979  13.092
 4702SOL     OW14857   2.169   0.063  11.790
 4702SOL    HW114858   2.158   0.157  11.823
 4702SOL    HW214859   2.164   0.000  11.867
 4703SOL     OW14860   3.484   0.367  11.546
 4703SOL    HW114861   3.486   0.291  11.610
 4703SOL    HW214862   3.436   0.444  11.586
 4704SOL     OW14863   2.885   0.766  12.138
 4704SOL    HW114864   2.900   0.787  12.234
 4704SOL    HW214865   2.855   0.671  12.129
 4705SOL     OW14866   2.842   1.573  12.872
 4705SOL    HW114867   2.822   1.617  12.784
 4705SOL    HW214868   2.881   1.482  12.856
 4706SOL     OW14869   3.721   1.518  12.777
 4706SOL    HW114870   3.735   1.545  12.682
 4706SOL    HW214871   3.804   1.540  12.830
 4707SOL     OW14872   2.212   0.898  12.976
 4707SOL    HW114873   2.288   0.942  13.024
 4707SOL    HW214874   2.247   0.851  12.894
 4708SOL     OW14875   3.402   0.274  11.297
 4708SOL    HW114876   3.341   0.199  11.320
 4708SOL    HW214877   3.424   0.326  11.380
 4709SOL     OW14878   3.165   0.838  11.214
 4709SOL    HW114879   3.199   0.745  11.229
 4709SOL    HW214880   3.183   0.865  11.119
 4710SOL     OW14881   2.930   1.333  12.021
 4710SOL    HW114882   2.937   1.249  11.966
 4710SOL    HW214883   2.992   1.402  11.985
 4711SOL     OW14884   2.181   0.810  12.121
 4711SOL    HW114885   2.274   0.846  12.126
 4711SOL    HW214886   2.175   0.725  12.173
 4712SOL     OW14887   2.201   0.509  12.178
 4712SOL    HW114888   2.149   0.426  12.161
 4712SOL    HW214889   2.278   0.514  12.114
 4713SOL     OW14890   3.000   0.380  12.850
 4713SOL    HW114891   2.955   0.443  12.914
 4713SOL    HW214892   3.093   0.411  12.833
 4714SOL     OW14893   3.022   0.207  12.649
 4714SOL    HW114894   3.022   0.271  12.726
 4714SOL    HW214895   3.050   0.255  12.566
 4715SOL     OW14896   1.870   1.326  11.372
 4715SOL    HW114897   1.777   1.347  11.341
 4715SOL    HW214898   1.880   1.227  11.385
 4716SOL     OW14899   2.366   1.568  12.082
 4716SOL    HW114900   2.432   1.642  12.091
 4716SOL    HW214901   2.410   1.489  12.040
 4717SOL     OW14902   2.864   0.796  12.410
 4717SOL    HW114903   2.905   0.764  12.496
 4717SOL    HW214904   2.768   0.769  12.407
 4718SOL     OW14905   1.902   0.544  12.286
 4718SOL    HW114906   1.987   0.511  12.245
 4718SOL    HW214907   1.915   0.559  12.384
 4719SOL     OW14908   2.051   0.520  12.894
 4719SOL    HW114909   2.110   0.480  12.824
 4719SOL    HW214910   1.993   0.591  12.853
 4720SOL     OW14911   3.231   0.950  12.832
 4720SOL    HW114912   3.270   1.039  12.852
 4720SOL    HW214913   3.241   0.930  12.735
 4721SOL     OW14914   2.677   0.572  11.497
 4721SOL    HW114915   2.684   0.483  11.451
 4721SOL    HW214916   2.583   0.606  11.489
 4722SOL     OW14917   3.519   0.604  12.378
 4722SOL    HW114918   3.481   0.535  12.440
 4722SOL    HW214919   3.601   0.568  12.334
 4723SOL     OW14920   2.114   1.564  12.916
 4723SOL    HW114921   2.084   1.621  12.992
 4723SOL    HW214922   2.107   1.467  12.942
 4724SOL     OW14923   2.533   0.464  12.441
 4724SOL    HW114924   2.499   0.375  12.411
 4724SOL    HW214925   2.559   0.518  12.361
 4725SOL     OW14926   2.792   1.678  12.637
 4725SOL    HW114927   2.768   1.660  12.542
 4725SOL    HW214928   2.822   1.772  12.647
 4726SOL     OW14929   2.335   0.500  11.363
 4726SOL    HW114930   2.396   0.580  11.367
 4726SOL    HW214931   2.240   0.531  11.370
 4727SOL     OW14932   2.021   1.137  12.638
 4727SOL    HW114933   2.043   1.076  12.714
 4727SOL    HW214934   2.031   1.088  12.552
 4728SOL     OW14935   3.209   1.059  12.406
 4728SOL    HW114936   3.233   0.996  12.332
 4728SOL    HW214937   3.119   1.099  12.388
 4729SOL     OW14938   3.164   0.855  11.481
 4729SOL    HW114939   3.078   0.824  11.523
 4729SOL    HW214940   3.160   0.841  11.382
 4730SOL     OW14941   3.621   1.747  12.326
 4730SOL    HW114942   3.682   1.777  12.253
 4730SOL    HW214943   3.583   1.658  12.304
 4731SOL     OW14944   3.114   1.731  12.300
 4731SOL    HW114945   3.198   1.736  12.246
 4731SOL    HW214946   3.091   1.635  12.318
 4732SOL     OW14947   1.945   1.258  12.194
 4732SOL    HW114948   1.940   1.257  12.294
 4732SOL    HW214949   1.862   1.217  12.156
 4733SOL     OW14950   2.550   1.662  12.888
 4733SOL    HW114951   2.494   1.743  12.897
 4733SOL    HW214952   2.602   1.666  12.802
 4734SOL     OW14953   3.588   0.135  11.695
 4734SOL    HW114954   3.661   0.118  11.628
 4734SOL    HW214955   3.557   0.048  11.733
 4735SOL     OW14956   3.250   1.573  11.649
 4735SOL    HW114957   3.317   1.585  11.575
 4735SOL    HW214958   3.210   1.662  11.672
 4736SOL     OW14959   3.142   0.927  11.844
 4736SOL    HW114960   3.202   0.846  11.846
 4736SOL    HW214961   3.182   0.996  11.784
 4737SOL     OW14962   2.692   1.273  12.594
 4737SOL    HW114963   2.687   1.306  12.689
 4737SOL    HW214964   2.606   1.292  12.548
 4738SOL     OW14965   2.534   1.616  11.326
 4738SOL    HW114966   2.543   1.626  11.227
 4738SOL    HW214967   2.494   1.527  11.347
 4739SOL     OW14968   3.512   1.720  12.566
 4739SOL    HW114969   3.565   1.730  12.482
 4739SOL    HW214970   3.485   1.810  12.600
 4740SOL     OW14971   3.703   0.175  12.135
 4740SOL    HW114972   3.742   0.090  12.099
 4740SOL    HW214973   3.605   0.177  12.116
 4741SOL     OW14974   2.125   0.326  11.892
 4741SOL    HW114975   2.046   0.377  11.858
 4741SOL    HW214976   2.116   0.311  11.990
 4742SOL     OW14977   3.056   1.612  11.203
 4742SOL    HW114978   3.062   1.519  11.240
 4742SOL    HW214979   2.997   1.612  11.123
 4743SOL     OW14980   2.684   1.002  12.544
 4743SOL    HW114981   2.724   1.001  12.452
 4743SOL    HW214982   2.694   1.094  12.584
 4744SOL     OW14983   2.778   0.910  11.463
 4744SOL    HW114984   2.841   0.948  11.395
 4744SOL    HW214985   2.818   0.827  11.502
 4745SOL     OW14986   3.366   1.607  11.216
 4745SOL    HW114987   3.274   1.644  11.223
 4745SOL    HW214988   3.404   1.627  11.126
 4746SOL     OW14989   2.234   1.288  12.662
 4746SOL    HW114990   2.221   1.381  12.628
 4746SOL    HW214991   2.150   1.236  12.649
 4747SOL     OW14992   3.476   1.292  12.461
 4747SOL    HW114993   3.536   1.295  12.541
 4747SOL    HW214994   3.401   1.356  12.474
 4748SOL     OW14995   2.901   1.098  11.868
 4748SOL    HW114996   2.831   1.051  11.922
 4748SOL    HW214997   2.960   1.030  11.825
 4749SOL     OW14998   2.876   0.236  12.143
 4749SOL    HW114999   2.868   0.200  12.050
 4749SOL    HW215000   2.874   0.160  12.208
 4750SOL     OW15001   2.452   1.487  11.663
 4750SOL    HW115002   2.494   1.429  11.593
 4750SOL    HW215003   2.408   1.566  11.619
 4751SOL     OW15004   3.571   0.385  12.553
 4751SOL    HW115005   3.644   0.454  12.557
 4751SOL    HW215006   3.599   0.310  12.494
 4752SOL     OW15007   2.117   1.348  11.462
 4752SOL    HW115008   2.021   1.349  11.435
 4752SOL    HW215009   2.129   1.401  11.546
 4753SOL     OW15010   1.967   1.013  12.898
 4753SOL    HW115011   1.890   0.980  12.952
 4753SOL    HW215012   2.052   0.983  12.940
 4754SOL     OW15013   2.534   0.203  12.661
 4754SOL    HW115014   2.624   0.187  12.621
 4754SOL    HW215015   2.542   0.208  12.760
 4755SOL     OW15016   1.937   0.345  11.205
 4755SOL    HW115017   1.845   0.317  11.176
 4755SOL    HW215018   1.968   0.422  11.149
 4756SOL     OW15019   3.302   0.856  12.570
 4756SOL    HW115020   3.245   0.908  12.507
 4756SOL    HW215021   3.398   0.868  12.546
 4757SOL     OW15022   1.934   0.166  11.490
 4757SOL    HW115023   1.917   0.249  11.436
 4757SOL    HW215024   2.024   0.129  11.468
 4758SOL     OW15025   3.045   1.335  11.291
 4758SOL    HW115026   2.946   1.324  11.293
 4758SOL    HW215027   3.079   1.350  11.384
 4759SOL     OW15028   2.475   0.842  12.603
 4759SOL    HW115029   2.531   0.923  12.586
 4759SOL    HW215030   2.534   0.762  12.606
 4760SOL     OW15031   3.355   1.767  12.131
 4760SOL    HW115032   3.388   1.831  12.062
 4760SOL    HW215033   3.421   1.761  12.206
 4761SOL     OW15034   2.578   0.565  12.880
 4761SOL    HW115035   2.597   0.630  12.954
 4761SOL    HW215036   2.638   0.485  12.889
 4762SOL     OW15037   3.312   1.220  12.805
 4762SOL    HW115038   3.303   1.210  12.904
 4762SOL    HW215039   3.408   1.213  12.779
 4763SOL     OW15040   2.252   1.741  12.732
 4763SOL    HW115041   2.161   1.782  12.730
 4763SOL    HW215042   2.245   1.647  12.764
 4764SOL     OW15043   3.536   0.883  12.426
 4764SOL    HW115044   3.509   0.794  12.389
 4764SOL    HW215045   3.537   0.951  12.353
 4765SOL     OW15046   3.087   0.325  11.621
 4765SOL    HW115047   3.152   0.251  11.610
 4765SOL    HW215048   3.107   0.375  11.705
 4766SOL     OW15049   2.456   0.745  11.824
 4766SOL    HW115050   2.506   0.830  11.805
 4766SOL    HW215051   2.368   0.747  11.776
 4767SOL     OW15052   3.639   0.342  12.814
 4767SOL    HW115053   3.622   0.373  12.720
 4767SOL    HW215054   3.555   0.305  12.852
 4768SOL     OW15055   3.592   0.934  12.689
 4768SOL    HW115056   3.630   1.025  12.704
 4768SOL    HW215057   3.584   0.917  12.590
 4769SOL     OW15058   2.721   1.374  11.188
 4769SOL    HW115059   2.675   1.389  11.276
 4769SOL    HW215060   2.765   1.459  11.158
 4770SOL     OW15061   2.523   1.790  12.125
 4770SOL    HW115062   2.477   1.878  12.112
 4770SOL    HW215063   2.622   1.802  12.118
 4771SOL     OW15064   2.721   0.956  12.033
 4771SOL    HW115065   2.775   0.887  12.081
 4771SOL    HW215066   2.689   1.025  12.099
 4772SOL     OW15067   2.945   0.984  11.259
 4772SOL    HW115068   2.922   1.037  11.177
 4772SOL    HW215069   3.026   0.928  11.240
 4773SOL     OW15070   3.723   1.569  12.023
 4773SOL    HW115071   3.652   1.557  11.953
 4773SOL    HW215072   3.724   1.490  12.083
 4774SOL     OW15073   2.083   1.314  13.016
 4774SOL    HW115074   2.018   1.241  12.995
 4774SOL    HW215075   2.087   1.328  13.114
 4775SOL     OW15076   1.941   1.240  11.825
 4775SOL    HW115077   1.940   1.193  11.913
 4775SOL    HW215078   2.023   1.212  11.774
 4776SOL     OW15079   2.534   1.391  12.796
 4776SOL    HW115080   2.456   1.341  12.834
 4776SOL    HW215081   2.531   1.486  12.827
 4777SOL     OW15082   3.686   0.192  12.399
 4777SOL    HW115083   3.682   0.102  12.443
 4777SOL    HW215084   3.689   0.181  12.300
 4778SOL     OW15085   2.290   0.424  11.692
 4778SOL    HW115086   2.320   0.352  11.630
 4778SOL    HW215087   2.251   0.384  11.775
 4779SOL     OW15088   3.567   1.487  12.276
 4779SOL    HW115089   3.474   1.462  12.249
 4779SOL    HW215090   3.593   1.437  12.358
 4780SOL     OW15091   2.179   0.547  12.452
 4780SOL    HW115092   2.217   0.488  12.524
 4780SOL    HW215093   2.219   0.521  12.364
 4781SOL     OW15094   2.674   1.586  11.859
 4781SOL    HW115095   2.706   1.596  11.765
 4781SOL    HW215096   2.595   1.524  11.861
 4782SOL     OW15097   3.286   0.214  12.284
 4782SOL    HW115098   3.338   0.149  12.339
 4782SOL    HW215099   3.237   0.277  12.345
 4783SOL     OW15100   2.863   0.034  12.326
 4783SOL    HW115101   2.800  -0.038  12.295
 4783SOL    HW215102   2.956  -0.002  12.326
 4784SOL     OW15103   2.632   1.330  11.473
 4784SOL    HW115104   2.586   1.243  11.490
 4784SOL    HW215105   2.723   1.327  11.514
 4785SOL     OW15106   2.480   1.567  12.456
 4785SOL    HW115107   2.475   1.649  12.513
 4785SOL    HW215108   2.569   1.564  12.411
 4786SOL     OW15109   3.214   0.052  11.340
 4786SOL    HW115110   3.249   0.011  11.256
 4786SOL    HW215111   3.124   0.014  11.360
 4787SOL     OW15112   3.162   0.453  11.863
 4787SOL    HW115113   3.103   0.533  11.867
 4787SOL    HW215114   3.177   0.418  11.956
 4788SOL     OW15115   3.455   0.221  12.054
 4788SOL    HW115116   3.371   0.220  12.108
 4788SOL    HW215117   3.457   0.304  11.998
 4789SOL     OW15118   1.901   1.077  11.472
 4789SOL    HW115119   2.000   1.066  11.463
 4789SOL    HW215120   1.861   0.991  11.504
 4790SOL     OW15121   2.737   1.646  11.509
 4790SOL    HW115122   2.660   1.611  11.455
 4790SOL    HW215123   2.705   1.717  11.571
 4791SOL     OW15124   2.092   0.628  13.147
 4791SOL    HW115125   1.999   0.626  13.184
 4791SOL    HW215126   2.093   0.589  13.055
 4792SOL     OW15127   2.087   0.275  14.030
 4792SOL    HW115128   2.122   0.258  14.122
 4792SOL    HW215129   1.999   0.230  14.018
 4793SOL     OW15130   1.881   0.368  13.681
 4793SOL    HW115131   1.799   0.411  13.720
 4793SOL    HW215132   1.853   0.295  13.618
 4794SOL     OW15133   3.417   1.511  13.737
 4794SOL    HW115134   3.360   1.495  13.818
 4794SOL    HW215135   3.358   1.521  13.657
 4795SOL     OW15136   2.997   0.703  13.751
 4795SOL    HW115137   3.054   0.781  13.726
 4795SOL    HW215138   2.937   0.729  13.827
 4796SOL     OW15139   3.617   0.607  13.265
 4796SOL    HW115140   3.605   0.594  13.166
 4796SOL    HW215141   3.587   0.526  13.314
 4797SOL     OW15142   2.547   1.012  13.699
 4797SOL    HW115143   2.616   0.996  13.769
 4797SOL    HW215144   2.474   1.069  13.737
 4798SOL     OW15145   3.465   0.447  13.771
 4798SOL    HW115146   3.391   0.493  13.721
 4798SOL    HW215147   3.516   0.515  13.824
 4799SOL     OW15148   2.093   1.713  13.517
 4799SOL    HW115149   2.127   1.790  13.571
 4799SOL    HW215150   2.137   1.713  13.427
 4800SOL     OW15151   2.092   1.434  13.572
 4800SOL    HW115152   2.066   1.530  13.572
 4800SOL    HW215153   2.021   1.380  13.617
 4801SOL     OW15154   2.102   1.091  13.920
 4801SOL    HW115155   2.116   1.007  13.972
 4801SOL    HW215156   2.047   1.155  13.975
 4802SOL     OW15157   2.468   0.964  13.157
 4802SOL    HW115158   2.475   1.048  13.103
 4802SOL    HW215159   2.514   0.977  13.245
 4803SOL     OW15160   1.984   0.643  13.597
 4803SOL    HW115161   1.939   0.555  13.614
 4803SOL    HW215162   1.983   0.697  13.681
 4804SOL     OW15163   3.704   1.767  13.393
 4804SOL    HW115164   3.758   1.738  13.473
 4804SOL    HW215165   3.734   1.857  13.364
 4805SOL     OW15166   3.551   0.922  13.646
 4805SOL    HW115167   3.646   0.893  13.654
 4805SOL    HW215168   3.543   0.987  13.571
 4806SOL     OW15169   3.503   1.108  13.466
 4806SOL    HW115170   3.589   1.110  13.414
 4806SOL    HW215171   3.517   1.155  13.554
 4807SOL     OW15172   2.475   1.365  13.760
 4807SOL    HW115173   2.426   1.278  13.769
 4807SOL    HW215174   2.452   1.408  13.673
 4808SOL     OW15175   2.671   0.004  13.536
 4808SOL    HW115176   2.711   0.095  13.527
 4808SOL    HW215177   2.571   0.012  13.542
 4809SOL     OW15178   3.387   0.999  13.224
 4809SOL    HW115179   3.324   0.923  13.237
 4809SOL    HW215180   3.435   1.017  13.310
 4810SOL     OW15181   3.529   1.714  13.606
 4810SOL    HW115182   3.488   1.691  13.518
 4810SOL    HW215183   3.511   1.640  13.671
 4811SOL     OW15184   2.460   0.729  13.304
 4811SOL    HW115185   2.484   0.798  13.236
 4811SOL    HW215186   2.382   0.762  13.358
 4812SOL     OW15187   3.143   0.345  13.978
 4812SOL    HW115188   3.057   0.295  13.965
 4812SOL    HW215189   3.205   0.291  14.034
 4813SOL     OW15190   3.438   1.662  13.341
 4813SOL    HW115191   3.527   1.708  13.344
 4813SOL    HW215192   3.417   1.638  13.246
 4814SOL     OW15193   2.903   0.701  13.463
 4814SOL    HW115194   2.929   0.697  13.559
 4814SOL    HW215195   2.818   0.650  13.449
 4815SOL     OW15196   1.938   0.811  13.823
 4815SOL    HW115197   2.037   0.799  13.832
 4815SOL    HW215198   1.914   0.906  13.844
 4816SOL     OW15199   2.727   0.348  13.229
 4816SOL    HW115200   2.786   0.411  13.180
 4816SOL    HW215201   2.746   0.254  13.200
 4817SOL     OW15202   3.224   1.144  13.579
 4817SOL    HW115203   3.307   1.115  13.531
 4817SOL    HW215204   3.175   1.211  13.523
 4818SOL     OW15205   2.870   1.456  13.511
 4818SOL    HW115206   2.824   1.528  13.459
 4818SOL    HW215207   2.866   1.476  13.609
 4819SOL     OW15208   2.213   1.801  13.887
 4819SOL    HW115209   2.263   1.715  13.893
 4819SOL    HW215210   2.278   1.878  13.884
 4820SOL     OW15211   3.657   1.066  13.907
 4820SOL    HW115212   3.595   1.051  13.831
 4820SOL    HW215213   3.605   1.077  13.992
 4821SOL     OW15214   2.183   0.943  13.276
 4821SOL    HW115215   2.265   0.982  13.234
 4821SOL    HW215216   2.156   0.861  13.227
 4822SOL     OW15217   3.320   0.735  13.762
 4822SOL    HW115218   3.315   0.670  13.837
 4822SOL    HW215219   3.400   0.794  13.775
 4823SOL     OW15220   2.973   1.776  13.271
 4823SOL    HW115221   2.913   1.714  13.321
 4823SOL    HW215222   3.004   1.732  13.186
 4824SOL     OW15223   3.494   1.377  13.115
 4824SOL    HW115224   3.462   1.471  13.105
 4824SOL    HW215225   3.418   1.314  13.103
 4825SOL     OW15226   2.326   1.743  13.357
 4825SOL    HW115227   2.359   1.782  13.443
 4825SOL    HW215228   2.402   1.736  13.292
 4826SOL     OW15229   3.262   0.107  13.460
 4826SOL    HW115230   3.238   0.070  13.370
 4826SOL    HW215231   3.361   0.123  13.464
 4827SOL     OW15232   2.802   1.698  13.938
 4827SOL    HW115233   2.882   1.641  13.959
 4827SOL    HW215234   2.753   1.658  13.861
 4828SOL     OW15235   2.244   0.700  13.514
 4828SOL    HW115236   2.289   0.610  13.511
 4828SOL    HW215237   2.150   0.689  13.547
 4829SOL     OW15238   2.476   0.122  13.151
 4829SOL    HW115239   2.574   0.100  13.158
 4829SOL    HW215240   2.445   0.105  13.058
 4830SOL     OW15241   2.401   0.064  13.546
 4830SOL    HW115242   2.320   0.065  13.604
 4830SOL    HW215243   2.404   0.147  13.491
 4831SOL     OW15244   3.296   1.188  13.075
 4831SOL    HW115245   3.328   1.112  13.132
 4831SOL    HW215246   3.204   1.215  13.105
 4832SOL     OW15247   2.159   0.035  13.205
 4832SOL    HW115248   2.208   0.119  13.184
 4832SOL    HW215249   2.221  -0.030  13.250
 4833SOL     OW15250   2.797   0.236  13.514
 4833SOL    HW115251   2.749   0.277  13.436
 4833SOL    HW215252   2.896   0.234  13.495
 4834SOL     OW15253   2.321   1.152  13.775
 4834SOL    HW115254   2.250   1.125  13.840
 4834SOL    HW215255   2.295   1.124  13.682
 4835SOL     OW15256   3.133   1.797  13.625
 4835SOL    HW115257   3.177   1.861  13.561
 4835SOL    HW215258   3.083   1.849  13.695
 4836SOL     OW15259   2.894   0.549  13.050
 4836SOL    HW115260   2.853   0.631  13.011
 4836SOL    HW215261   2.958   0.575  13.123
 4837SOL     OW15262   2.728   0.454  13.676
 4837SOL    HW115263   2.696   0.526  13.614
 4837SOL    HW215264   2.752   0.373  13.623
 4838SOL     OW15265   2.879   0.039  13.787
 4838SOL    HW115266   2.807   0.044  13.718
 4838SOL    HW215267   2.855  -0.030  13.856
 4839SOL     OW15268   3.719   0.833  13.411
 4839SOL    HW115269   3.761   0.769  13.475
 4839SOL    HW215270   3.681   0.782  13.333
 4840SOL     OW15271   2.350   1.385  13.208
 4840SOL    HW115272   2.263   1.370  13.255
 4840SOL    HW215273   2.333   1.411  13.113
 4841SOL     OW15274   3.526   1.280  13.691
 4841SOL    HW115275   3.625   1.288  13.705
 4841SOL    HW215276   3.481   1.364  13.722
 4842SOL     OW15277   3.252   0.575  13.112
 4842SOL    HW115278   3.198   0.554  13.193
 4842SOL    HW215279   3.343   0.534  13.121
 4843SOL     OW15280   2.389   0.256  13.362
 4843SOL    HW115281   2.416   0.197  13.287
 4843SOL    HW215282   2.389   0.351  13.331
 4844SOL     OW15283   2.567   1.050  13.402
 4844SOL    HW115284   2.553   1.057  13.501
 4844SOL    HW215285   2.651   0.999  13.384
 4845SOL     OW15286   2.229   1.100  13.535
 4845SOL    HW115287   2.222   1.183  13.479
 4845SOL    HW215288   2.233   1.020  13.475
 4846SOL     OW15289   2.428   0.537  13.899
 4846SOL    HW115290   2.440   0.603  13.825
 4846SOL    HW215291   2.474   0.571  13.982
 4847SOL     OW15292   3.114   1.348  13.422
 4847SOL    HW115293   3.164   1.425  13.462
 4847SOL    HW215294   3.019   1.350  13.454
 4848SOL     OW15295   3.444   0.639  13.506
 4848SOL    HW115296   3.413   0.700  13.579
 4848SOL    HW215297   3.494   0.691  13.437
 4849SOL     OW15298   3.071   0.525  13.309
 4849SOL    HW115299   3.084   0.441  13.363
 4849SOL    HW215300   3.042   0.599  13.369
 4850SOL     OW15301   2.169   0.063  13.652
 4850SOL    HW115302   2.158   0.157  13.685
 4850SOL    HW215303   2.164   0.000  13.729
 4851SOL     OW15304   3.484   0.367  13.408
 4851SOL    HW115305   3.486   0.291  13.472
 4851SOL    HW215306   3.436   0.444  13.448
 4852SOL     OW15307   3.402   0.274  13.159
 4852SOL    HW115308   3.341   0.199  13.182
 4852SOL    HW215309   3.424   0.326  13.242
 4853SOL     OW15310   3.165   0.838  13.076
 4853SOL    HW115311   3.199   0.745  13.091
 4853SOL    HW215312   3.183   0.865  12.981
 4854SOL     OW15313   1.870   1.326  13.234
 4854SOL    HW115314   1.777   1.347  13.203
 4854SOL    HW215315   1.880   1.227  13.247
 4855SOL     OW15316   2.677   0.572  13.359
 4855SOL    HW115317   2.684   0.483  13.313
 4855SOL    HW215318   2.583   0.606  13.351
 4856SOL     OW15319   2.335   0.500  13.225
 4856SOL    HW115320   2.396   0.580  13.229
 4856SOL    HW215321   2.240   0.531  13.232
 4857SOL     OW15322   3.164   0.855  13.343
 4857SOL    HW115323   3.078   0.824  13.385
 4857SOL    HW215324   3.160   0.841  13.244
 4858SOL     OW15325   3.588   0.135  13.557
 4858SOL    HW115326   3.661   0.118  13.490
 4858SOL    HW215327   3.557   0.048  13.595
 4859SOL     OW15328   3.250   1.573  13.511
 4859SOL    HW115329   3.317   1.585  13.437
 4859SOL    HW215330   3.210   1.662  13.534
 4860SOL     OW15331   3.142   0.927  13.706
 4860SOL    HW115332   3.202   0.846  13.708
 4860SOL    HW215333   3.182   0.996  13.646
 4861SOL     OW15334   2.534   1.616  13.188
 4861SOL    HW115335   2.543   1.626  13.089
 4861SOL    HW215336   2.494   1.527  13.209
 4862SOL     OW15337   3.703   0.175  13.997
 4862SOL    HW115338   3.742   0.090  13.961
 4862SOL    HW215339   3.605   0.177  13.978
 4863SOL     OW15340   2.125   0.326  13.754
 4863SOL    HW115341   2.046   0.377  13.720
 4863SOL    HW215342   2.116   0.311  13.852
 4864SOL     OW15343   3.056   1.612  13.065
 4864SOL    HW115344   3.062   1.519  13.102
 4864SOL    HW215345   2.997   1.612  12.985
 4865SOL     OW15346   2.778   0.910  13.325
 4865SOL    HW115347   2.841   0.948  13.257
 4865SOL    HW215348   2.818   0.827  13.364
 4866SOL     OW15349   3.366   1.607  13.078
 4866SOL    HW115350   3.274   1.644  13.085
 4866SOL    HW215351   3.404   1.627  12.988
 4867SOL     OW15352   2.901   1.098  13.730
 4867SOL    HW115353   2.831   1.051  13.784
 4867SOL    HW215354   2.960   1.030  13.687
 4868SOL     OW15355   2.452   1.487  13.525
 4868SOL    HW115356   2.494   1.429  13.455
 4868SOL    HW215357   2.408   1.566  13.481
 4869SOL     OW15358   2.117   1.348  13.324
 4869SOL    HW115359   2.021   1.349  13.297
 4869SOL    HW215360   2.129   1.401  13.408
 4870SOL     OW15361   1.937   0.345  13.067
 4870SOL    HW115362   1.845   0.317  13.038
 4870SOL    HW215363   1.968   0.422  13.011
 4871SOL     OW15364   1.934   0.166  13.352
 4871SOL    HW115365   1.917   0.249  13.298
 4871SOL    HW215366   2.024   0.129  13.330
 4872SOL     OW15367   3.045   1.335  13.153
 4872SOL    HW115368   2.946   1.324  13.155
 4872SOL    HW215369   3.079   1.350  13.246
 4873SOL     OW15370   3.087   0.325  13.483
 4873SOL    HW115371   3.152   0.251  13.472
 4873SOL    HW215372   3.107   0.375  13.567
 4874SOL     OW15373   2.456   0.745  13.686
 4874SOL    HW115374   2.506   0.830  13.667
 4874SOL    HW215375   2.368   0.747  13.638
 4875SOL     OW15376   2.721   1.374  13.050
 4875SOL    HW115377   2.675   1.389  13.138
 4875SOL    HW215378   2.765   1.459  13.020
 4876SOL     OW15379   2.523   1.790  13.987
 4876SOL    HW115380   2.477   1.878  13.974
 4876SOL    HW215381   2.622   1.802  13.980
 4877SOL     OW15382   2.721   0.956  13.895
 4877SOL    HW115383   2.775   0.887  13.943
 4877SOL    HW215384   2.689   1.025  13.961
 4878SOL     OW15385   2.945   0.984  13.121
 4878SOL    HW115386   2.922   1.037  13.039
 4878SOL    HW215387   3.026   0.928  13.102
 4879SOL     OW15388   1.941   1.240  13.687
 4879SOL    HW115389   1.940   1.193  13.775
 4879SOL    HW215390   2.023   1.212  13.636
 4880SOL     OW15391   2.290   0.424  13.554
 4880SOL    HW115392   2.320   0.352  13.492
 4880SOL    HW215393   2.251   0.384  13.637
 4881SOL     OW15394   3.567   1.487  14.138
 4881SOL    HW115395   3.474   1.462  14.111
 4881SOL    HW215396   3.593   1.437  14.220
 4882SOL     OW15397   2.674   1.586  13.721
 4882SOL    HW115398   2.706   1.596  13.627
 4882SOL    HW215399   2.595   1.524  13.723
 4883SOL     OW15400   2.632   1.330  13.335
 4883SOL    HW115401   2.586   1.243  13.352
 4883SOL    HW215402   2.723   1.327  13.376
 4884SOL     OW15403   3.214   0.052  13.202
 4884SOL    HW115404   3.249   0.011  13.118
 4884SOL    HW215405   3.124   0.014  13.222
 4885SOL     OW15406   3.162   0.453  13.725
 4885SOL    HW115407   3.103   0.533  13.729
 4885SOL    HW215408   3.177   0.418  13.818
 4886SOL     OW15409   1.901   1.077  13.334
 4886SOL    HW115410   2.000   1.066  13.325
 4886SOL    HW215411   1.861   0.991  13.366
 4887SOL     OW15412   2.737   1.646  13.371
 4887SOL    HW115413   2.660   1.611  13.317
 4887SOL    HW215414   2.705   1.717  13.433
 4888SOL     OW15415   2.092   2.490   0.113
 4888SOL    HW115416   1.999   2.488   0.150
 4888SOL    HW215417   2.093   2.451   0.021
 4889SOL     OW15418   1.881   2.230   0.647
 4889SOL    HW115419   1.799   2.273   0.686
 4889SOL    HW215420   1.853   2.157   0.584
 4890SOL     OW15421   2.431   3.137   1.165
 4890SOL    HW115422   2.338   3.130   1.128
 4890SOL    HW215423   2.442   3.226   1.209
 4891SOL     OW15424   3.417   3.373   0.703
 4891SOL    HW115425   3.360   3.357   0.784
 4891SOL    HW215426   3.358   3.383   0.623
 4892SOL     OW15427   2.997   2.565   0.717
 4892SOL    HW115428   3.054   2.643   0.692
 4892SOL    HW215429   2.937   2.591   0.793
 4893SOL     OW15430   3.617   2.469   0.231
 4893SOL    HW115431   3.605   2.456   0.132
 4893SOL    HW215432   3.587   2.388   0.280
 4894SOL     OW15433   2.630   3.006   1.023
 4894SOL    HW115434   2.552   3.023   1.083
 4894SOL    HW215435   2.664   3.093   0.987
 4895SOL     OW15436   2.712   2.660   1.823
 4895SOL    HW115437   2.708   2.736   1.888
 4895SOL    HW215438   2.734   2.696   1.732
 4896SOL     OW15439   2.547   2.874   0.665
 4896SOL    HW115440   2.616   2.858   0.735
 4896SOL    HW215441   2.474   2.931   0.703
 4897SOL     OW15442   2.548   3.023   1.803
 4897SOL    HW115443   2.608   3.102   1.817
 4897SOL    HW215444   2.462   3.054   1.762
 4898SOL     OW15445   2.197   3.297   1.061
 4898SOL    HW115446   2.119   3.266   1.008
 4898SOL    HW215447   2.255   3.355   1.004
 4899SOL     OW15448   3.322   3.367   1.339
 4899SOL    HW115449   3.346   3.461   1.365
 4899SOL    HW215450   3.306   3.313   1.421
 4900SOL     OW15451   3.465   2.309   0.737
 4900SOL    HW115452   3.391   2.355   0.687
 4900SOL    HW215453   3.516   2.377   0.790
 4901SOL     OW15454   2.093   3.575   0.483
 4901SOL    HW115455   2.127   3.652   0.537
 4901SOL    HW215456   2.137   3.575   0.393
 4902SOL     OW15457   2.989   3.203   1.690
 4902SOL    HW115458   3.036   3.203   1.778
 4902SOL    HW215459   2.941   3.116   1.679
 4903SOL     OW15460   2.092   3.296   0.538
 4903SOL    HW115461   2.066   3.392   0.538
 4903SOL    HW215462   2.021   3.242   0.583
 4904SOL     OW15463   2.102   2.953   0.886
 4904SOL    HW115464   2.116   2.869   0.938
 4904SOL    HW215465   2.047   3.017   0.941
 4905SOL     OW15466   2.482   3.648   1.439
 4905SOL    HW115467   2.390   3.631   1.474
 4905SOL    HW215468   2.510   3.740   1.465
 4906SOL     OW15469   2.468   2.826   0.123
 4906SOL    HW115470   2.475   2.910   0.069
 4906SOL    HW215471   2.514   2.839   0.211
 4907SOL     OW15472   3.456   1.976   1.480
 4907SOL    HW115473   3.438   2.043   1.408
 4907SOL    HW215474   3.453   2.022   1.569
 4908SOL     OW15475   1.984   2.505   0.563
 4908SOL    HW115476   1.939   2.417   0.580
 4908SOL    HW215477   1.983   2.559   0.647
 4909SOL     OW15478   3.704   3.629   0.359
 4909SOL    HW115479   3.758   3.600   0.439
 4909SOL    HW215480   3.734   3.719   0.330
 4910SOL     OW15481   1.889   3.458   0.117
 4910SOL    HW115482   1.870   3.362   0.138
 4910SOL    HW215483   1.856   3.516   0.192
 4911SOL     OW15484   3.551   2.784   0.612
 4911SOL    HW115485   3.646   2.755   0.620
 4911SOL    HW215486   3.543   2.849   0.537
 4912SOL     OW15487   3.503   2.970   0.432
 4912SOL    HW115488   3.589   2.972   0.380
 4912SOL    HW215489   3.517   3.017   0.520
 4913SOL     OW15490   1.975   2.599   1.597
 4913SOL    HW115491   2.063   2.586   1.642
 4913SOL    HW215492   1.962   2.696   1.575
 4914SOL     OW15493   2.475   3.227   0.726
 4914SOL    HW115494   2.426   3.140   0.735
 4914SOL    HW215495   2.452   3.270   0.639
 4915SOL     OW15496   3.155   3.090   1.423
 4915SOL    HW115497   3.192   3.017   1.365
 4915SOL    HW215498   3.207   3.095   1.508
 4916SOL     OW15499   2.671   1.866   0.502
 4916SOL    HW115500   2.711   1.957   0.493
 4916SOL    HW215501   2.571   1.874   0.508
 4917SOL     OW15502   2.059   2.838   1.264
 4917SOL    HW115503   2.148   2.793   1.250
 4917SOL    HW215504   1.986   2.773   1.245
 4918SOL     OW15505   3.387   2.861   0.190
 4918SOL    HW115506   3.324   2.785   0.203
 4918SOL    HW215507   3.435   2.879   0.276
 4919SOL     OW15508   3.049   3.654   1.616
 4919SOL    HW115509   3.073   3.714   1.540
 4919SOL    HW215510   3.056   3.559   1.586
 4920SOL     OW15511   3.328   3.279   0.953
 4920SOL    HW115512   3.269   3.285   1.033
 4920SOL    HW215513   3.313   3.191   0.907
 4921SOL     OW15514   3.529   3.576   0.572
 4921SOL    HW115515   3.488   3.553   0.484
 4921SOL    HW215516   3.511   3.502   0.637
 4922SOL     OW15517   2.460   2.591   0.270
 4922SOL    HW115518   2.484   2.660   0.202
 4922SOL    HW215519   2.382   2.624   0.324
 4923SOL     OW15520   3.143   2.207   0.944
 4923SOL    HW115521   3.057   2.157   0.931
 4923SOL    HW215522   3.205   2.153   1.000
 4924SOL     OW15523   3.438   3.524   0.307
 4924SOL    HW115524   3.527   3.570   0.310
 4924SOL    HW215525   3.417   3.500   0.212
 4925SOL     OW15526   2.669   2.467   1.465
 4925SOL    HW115527   2.622   2.464   1.554
 4925SOL    HW215528   2.618   2.412   1.399
 4926SOL     OW15529   3.256   2.331   1.674
 4926SOL    HW115530   3.236   2.374   1.762
 4926SOL    HW215531   3.334   2.269   1.683
 4927SOL     OW15532   2.835   2.752   1.572
 4927SOL    HW115533   2.881   2.668   1.543
 4927SOL    HW215534   2.779   2.786   1.497
 4928SOL     OW15535   2.853   2.272   1.242
 4928SOL    HW115536   2.776   2.306   1.296
 4928SOL    HW215537   2.819   2.221   1.163
 4929SOL     OW15538   2.903   2.563   0.429
 4929SOL    HW115539   2.929   2.559   0.525
 4929SOL    HW215540   2.818   2.512   0.415
 4930SOL     OW15541   1.938   2.673   0.789
 4930SOL    HW115542   2.037   2.661   0.798
 4930SOL    HW215543   1.914   2.768   0.810
 4931SOL     OW15544   1.992   3.683   1.571
 4931SOL    HW115545   1.982   3.668   1.670
 4931SOL    HW215546   1.906   3.719   1.535
 4932SOL     OW15547   2.727   2.210   0.195
 4932SOL    HW115548   2.786   2.273   0.146
 4932SOL    HW215549   2.746   2.116   0.166
 4933SOL     OW15550   3.581   2.447   1.831
 4933SOL    HW115551   3.555   2.536   1.795
 4933SOL    HW215552   3.579   2.379   1.758
 4934SOL     OW15553   3.224   3.006   0.545
 4934SOL    HW115554   3.307   2.977   0.497
 4934SOL    HW215555   3.175   3.073   0.489
 4935SOL     OW15556   2.412   2.058   0.885
 4935SOL    HW115557   2.407   2.053   0.985
 4935SOL    HW215558   2.414   2.154   0.856
 4936SOL     OW15559   2.870   3.318   0.477
 4936SOL    HW115560   2.824   3.390   0.425
 4936SOL    HW215561   2.866   3.338   0.575
 4937SOL     OW15562   2.213   3.663   0.853
 4937SOL    HW115563   2.263   3.577   0.859
 4937SOL    HW215564   2.278   3.740   0.850
 4938SOL     OW15565   3.657   2.928   0.873
 4938SOL    HW115566   3.595   2.913   0.797
 4938SOL    HW215567   3.605   2.939   0.958
 4939SOL     OW15568   3.089   3.412   1.506
 4939SOL    HW115569   3.095   3.335   1.570
 4939SOL    HW215570   3.037   3.386   1.426
 4940SOL     OW15571   2.183   2.805   0.242
 4940SOL    HW115572   2.265   2.844   0.200
 4940SOL    HW215573   2.156   2.723   0.193
 4941SOL     OW15574   3.320   2.597   0.728
 4941SOL    HW115575   3.315   2.532   0.803
 4941SOL    HW215576   3.400   2.656   0.741
 4942SOL     OW15577   2.323   3.128   1.727
 4942SOL    HW115578   2.273   3.129   1.641
 4942SOL    HW215579   2.260   3.110   1.803
 4943SOL     OW15580   2.973   3.638   0.237
 4943SOL    HW115581   2.913   3.576   0.287
 4943SOL    HW215582   3.004   3.594   0.152
 4944SOL     OW15583   3.494   3.239   0.081
 4944SOL    HW115584   3.462   3.333   0.071
 4944SOL    HW215585   3.418   3.176   0.069
 4945SOL     OW15586   2.326   3.605   0.323
 4945SOL    HW115587   2.359   3.644   0.409
 4945SOL    HW215588   2.402   3.598   0.258
 4946SOL     OW15589   3.262   1.969   0.426
 4946SOL    HW115590   3.238   1.932   0.336
 4946SOL    HW215591   3.361   1.985   0.430
 4947SOL     OW15592   2.111   3.647   1.241
 4947SOL    HW115593   2.168   3.582   1.291
 4947SOL    HW215594   2.095   3.614   1.148
 4948SOL     OW15595   2.802   3.560   0.904
 4948SOL    HW115596   2.882   3.503   0.925
 4948SOL    HW215597   2.753   3.520   0.827
 4949SOL     OW15598   2.244   2.562   0.480
 4949SOL    HW115599   2.289   2.472   0.477
 4949SOL    HW215600   2.150   2.551   0.513
 4950SOL     OW15601   3.409   2.084   1.729
 4950SOL    HW115602   3.404   2.121   1.821
 4950SOL    HW215603   3.337   2.015   1.717
 4951SOL     OW15604   2.643   2.126   1.749
 4951SOL    HW115605   2.710   2.065   1.792
 4951SOL    HW215606   2.570   2.145   1.814
 4952SOL     OW15607   2.750   3.376   1.195
 4952SOL    HW115608   2.727   3.351   1.101
 4952SOL    HW215609   2.811   3.307   1.234
 4953SOL     OW15610   3.213   2.452   1.433
 4953SOL    HW115611   3.241   2.409   1.518
 4953SOL    HW215612   3.238   2.548   1.434
 4954SOL     OW15613   2.665   3.264   0.924
 4954SOL    HW115614   2.755   3.278   0.882
 4954SOL    HW215615   2.594   3.266   0.853
 4955SOL     OW15616   2.784   2.365   0.899
 4955SOL    HW115617   2.759   2.356   0.803
 4955SOL    HW215618   2.832   2.283   0.930
 4956SOL     OW15619   2.401   1.926   0.512
 4956SOL    HW115620   2.320   1.927   0.570
 4956SOL    HW215621   2.404   2.009   0.457
 4957SOL     OW15622   3.296   3.050   0.041
 4957SOL    HW115623   3.328   2.974   0.098
 4957SOL    HW215624   3.204   3.077   0.071
 4958SOL     OW15625   2.797   2.098   0.480
 4958SOL    HW115626   2.749   2.139   0.402
 4958SOL    HW215627   2.896   2.096   0.461
 4959SOL     OW15628   2.938   2.545   1.464
 4959SOL    HW115629   2.858   2.484   1.467
 4959SOL    HW215630   3.019   2.492   1.440
 4960SOL     OW15631   3.089   3.432   0.793
 4960SOL    HW115632   3.110   3.506   0.728
 4960SOL    HW215633   3.157   3.432   0.866
 4961SOL     OW15634   2.321   3.014   0.741
 4961SOL    HW115635   2.250   2.987   0.806
 4961SOL    HW215636   2.295   2.986   0.648
 4962SOL     OW15637   3.133   3.659   0.591
 4962SOL    HW115638   3.177   3.723   0.527
 4962SOL    HW215639   3.083   3.711   0.661
 4963SOL     OW15640   2.894   2.411   0.016
 4963SOL    HW115641   2.853   2.493  -0.023
 4963SOL    HW215642   2.958   2.437   0.089
 4964SOL     OW15643   1.940   2.418   1.386
 4964SOL    HW115644   2.032   2.417   1.345
 4964SOL    HW215645   1.934   2.492   1.453
 4965SOL     OW15646   2.728   2.316   0.642
 4965SOL    HW115647   2.696   2.388   0.580
 4965SOL    HW215648   2.752   2.235   0.589
 4966SOL     OW15649   2.879   1.901   0.753
 4966SOL    HW115650   2.807   1.906   0.684
 4966SOL    HW215651   2.855   1.832   0.822
 4967SOL     OW15652   3.291   3.035   0.867
 4967SOL    HW115653   3.236   2.951   0.860
 4967SOL    HW215654   3.317   3.064   0.775
 4968SOL     OW15655   3.328   2.452   0.992
 4968SOL    HW115656   3.298   2.357   0.999
 4968SOL    HW215657   3.401   2.468   1.058
 4969SOL     OW15658   3.719   2.695   0.377
 4969SOL    HW115659   3.761   2.631   0.441
 4969SOL    HW215660   3.681   2.644   0.299
 4970SOL     OW15661   2.350   3.247   0.174
 4970SOL    HW115662   2.263   3.232   0.221
 4970SOL    HW215663   2.333   3.273   0.079
 4971SOL     OW15664   3.526   3.142   0.657
 4971SOL    HW115665   3.625   3.150   0.671
 4971SOL    HW215666   3.481   3.226   0.688
 4972SOL     OW15667   3.252   2.437   0.078
 4972SOL    HW115668   3.198   2.416   0.159
 4972SOL    HW215669   3.343   2.396   0.087
 4973SOL     OW15670   3.616   3.085   1.588
 4973SOL    HW115671   3.707   3.046   1.575
 4973SOL    HW215672   3.624   3.181   1.612
 4974SOL     OW15673   2.926   3.209   1.340
 4974SOL    HW115674   2.846   3.186   1.395
 4974SOL    HW215675   3.009   3.183   1.389
 4975SOL     OW15676   3.454   3.491   1.625
 4975SOL    HW115677   3.481   3.525   1.535
 4975SOL    HW215678   3.533   3.453   1.671
 4976SOL     OW15679   2.973   3.057   1.100
 4976SOL    HW115680   2.933   3.101   1.181
 4976SOL    HW215681   2.932   3.094   1.017
 4977SOL     OW15682   3.500   2.961   1.079
 4977SOL    HW115683   3.505   3.042   1.138
 4977SOL    HW215684   3.414   2.963   1.028
 4978SOL     OW15685   2.777   1.951   1.402
 4978SOL    HW115686   2.802   1.931   1.307
 4978SOL    HW215687   2.849   2.007   1.444
 4979SOL     OW15688   2.842   2.978   1.719
 4979SOL    HW115689   2.743   2.984   1.729
 4979SOL    HW215690   2.865   2.898   1.663
 4980SOL     OW15691   2.567   2.912   0.368
 4980SOL    HW115692   2.553   2.919   0.467
 4980SOL    HW215693   2.651   2.861   0.350
 4981SOL     OW15694   2.272   2.675   1.251
 4981SOL    HW115695   2.358   2.687   1.301
 4981SOL    HW215696   2.230   2.588   1.278
 4982SOL     OW15697   3.136   2.248   1.262
 4982SOL    HW115698   3.157   2.322   1.326
 4982SOL    HW215699   3.047   2.265   1.219
 4983SOL     OW15700   1.926   3.426   1.331
 4983SOL    HW115701   1.880   3.508   1.297
 4983SOL    HW215702   2.024   3.445   1.340
 4984SOL     OW15703   2.229   2.962   0.501
 4984SOL    HW115704   2.222   3.045   0.445
 4984SOL    HW215705   2.233   2.882   0.441
 4985SOL     OW15706   2.428   2.399   0.865
 4985SOL    HW115707   2.440   2.465   0.791
 4985SOL    HW215708   2.474   2.433   0.948
 4986SOL     OW15709   3.114   3.210   0.388
 4986SOL    HW115710   3.164   3.287   0.428
 4986SOL    HW215711   3.019   3.212   0.420
 4987SOL     OW15712   3.134   3.307   1.142
 4987SOL    HW115713   3.181   3.320   1.229
 4987SOL    HW215714   3.068   3.233   1.151
 4988SOL     OW15715   3.444   2.501   0.472
 4988SOL    HW115716   3.413   2.562   0.545
 4988SOL    HW215717   3.494   2.553   0.403
 4989SOL     OW15718   2.216   3.372   1.329
 4989SOL    HW115719   2.195   3.328   1.242
 4989SOL    HW215720   2.313   3.398   1.332
 4990SOL     OW15721   2.264   2.613   1.598
 4990SOL    HW115722   2.332   2.668   1.551
 4990SOL    HW215723   2.304   2.525   1.625
 4991SOL     OW15724   3.449   2.641   1.670
 4991SOL    HW115725   3.357   2.679   1.665
 4991SOL    HW215726   3.509   2.688   1.605
 4992SOL     OW15727   2.875   1.967   1.770
 4992SOL    HW115728   2.881   2.052   1.718
 4992SOL    HW215729   2.907   1.891   1.713
 4993SOL     OW15730   2.366   1.912   1.740
 4993SOL    HW115731   2.324   1.855   1.670
 4993SOL    HW215732   2.300   1.981   1.772
 4994SOL     OW15733   2.435   2.732   1.029
 4994SOL    HW115734   2.479   2.821   1.020
 4994SOL    HW215735   2.372   2.732   1.106
 4995SOL     OW15736   3.222   2.724   1.045
 4995SOL    HW115737   3.147   2.724   0.979
 4995SOL    HW215738   3.259   2.632   1.054
 4996SOL     OW15739   3.071   2.387   0.275
 4996SOL    HW115740   3.084   2.303   0.329
 4996SOL    HW215741   3.042   2.461   0.335
 4997SOL     OW15742   1.899   3.172   1.282
 4997SOL    HW115743   1.952   3.123   1.350
 4997SOL    HW215744   1.921   3.270   1.287
 4998SOL     OW15745   2.594   2.496   1.064
 4998SOL    HW115746   2.653   2.470   0.988
 4998SOL    HW215747   2.566   2.592   1.053
 4999SOL     OW15748   3.590   2.797   1.854
 4999SOL    HW115749   3.544   2.790   1.765
 4999SOL    HW215750   3.528   2.841   1.920
 5000SOL     OW15751   3.484   2.229   0.374
 5000SOL    HW115752   3.486   2.153   0.438
 5000SOL    HW215753   3.436   2.306   0.414
 5001SOL     OW15754   2.885   2.628   0.966
 5001SOL    HW115755   2.900   2.649   1.062
 5001SOL    HW215756   2.855   2.533   0.957
 5002SOL     OW15757   2.842   3.435   1.700
 5002SOL    HW115758   2.822   3.479   1.612
 5002SOL    HW215759   2.881   3.344   1.684
 5003SOL     OW15760   3.721   3.380   1.605
 5003SOL    HW115761   3.735   3.407   1.510
 5003SOL    HW215762   3.804   3.402   1.658
 5004SOL     OW15763   2.212   2.760   1.804
 5004SOL    HW115764   2.288   2.804   1.852
 5004SOL    HW215765   2.247   2.713   1.722
 5005SOL     OW15766   3.402   2.136   0.125
 5005SOL    HW115767   3.341   2.061   0.148
 5005SOL    HW215768   3.424   2.188   0.208
 5006SOL     OW15769   3.165   2.700   0.042
 5006SOL    HW115770   3.199   2.607   0.057
 5006SOL    HW215771   3.183   2.727  -0.053
 5007SOL     OW15772   2.930   3.195   0.849
 5007SOL    HW115773   2.937   3.111   0.794
 5007SOL    HW215774   2.992   3.264   0.813
 5008SOL     OW15775   2.181   2.672   0.949
 5008SOL    HW115776   2.274   2.708   0.954
 5008SOL    HW215777   2.175   2.587   1.001
 5009SOL     OW15778   2.201   2.371   1.006
 5009SOL    HW115779   2.149   2.288   0.989
 5009SOL    HW215780   2.278   2.376   0.942
 5010SOL     OW15781   3.000   2.242   1.678
 5010SOL    HW115782   2.955   2.305   1.742
 5010SOL    HW215783   3.093   2.273   1.661
 5011SOL     OW15784   3.022   2.069   1.477
 5011SOL    HW115785   3.022   2.133   1.554
 5011SOL    HW215786   3.050   2.117   1.394
 5012SOL     OW15787   1.870   3.188   0.200
 5012SOL    HW115788   1.777   3.209   0.169
 5012SOL    HW215789   1.880   3.089   0.213
 5013SOL     OW15790   1.950   3.663   0.927
 5013SOL    HW115791   1.908   3.577   0.900
 5013SOL    HW215792   2.044   3.666   0.893
 5014SOL     OW15793   2.366   3.430   0.910
 5014SOL    HW115794   2.432   3.504   0.919
 5014SOL    HW215795   2.410   3.351   0.868
 5015SOL     OW15796   2.864   2.658   1.238
 5015SOL    HW115797   2.905   2.626   1.324
 5015SOL    HW215798   2.768   2.631   1.235
 5016SOL     OW15799   1.902   2.406   1.114
 5016SOL    HW115800   1.987   2.373   1.073
 5016SOL    HW215801   1.915   2.421   1.212
 5017SOL     OW15802   2.051   2.382   1.722
 5017SOL    HW115803   2.110   2.342   1.652
 5017SOL    HW215804   1.993   2.453   1.681
 5018SOL     OW15805   3.231   2.812   1.660
 5018SOL    HW115806   3.270   2.901   1.680
 5018SOL    HW215807   3.241   2.792   1.563
 5019SOL     OW15808   2.677   2.434   0.325
 5019SOL    HW115809   2.684   2.345   0.279
 5019SOL    HW215810   2.583   2.468   0.317
 5020SOL     OW15811   3.519   2.466   1.206
 5020SOL    HW115812   3.481   2.397   1.268
 5020SOL    HW215813   3.601   2.430   1.162
 5021SOL     OW15814   2.114   3.426   1.744
 5021SOL    HW115815   2.084   3.483   1.820
 5021SOL    HW215816   2.107   3.329   1.770
 5022SOL     OW15817   2.533   2.326   1.269
 5022SOL    HW115818   2.499   2.237   1.239
 5022SOL    HW215819   2.559   2.380   1.189
 5023SOL     OW15820   2.792   3.540   1.465
 5023SOL    HW115821   2.768   3.522   1.370
 5023SOL    HW215822   2.822   3.634   1.475
 5024SOL     OW15823   2.335   2.362   0.191
 5024SOL    HW115824   2.396   2.442   0.195
 5024SOL    HW215825   2.240   2.393   0.198
 5025SOL     OW15826   2.021   2.999   1.466
 5025SOL    HW115827   2.043   2.938   1.542
 5025SOL    HW215828   2.031   2.950   1.380
 5026SOL     OW15829   3.209   2.921   1.234
 5026SOL    HW115830   3.233   2.858   1.160
 5026SOL    HW215831   3.119   2.961   1.216
 5027SOL     OW15832   3.164   2.717   0.309
 5027SOL    HW115833   3.078   2.686   0.351
 5027SOL    HW215834   3.160   2.703   0.210
 5028SOL     OW15835   3.621   3.609   1.154
 5028SOL    HW115836   3.682   3.639   1.081
 5028SOL    HW215837   3.583   3.520   1.132
 5029SOL     OW15838   3.114   3.593   1.128
 5029SOL    HW115839   3.198   3.598   1.074
 5029SOL    HW215840   3.091   3.497   1.146
 5030SOL     OW15841   1.945   3.120   1.022
 5030SOL    HW115842   1.940   3.119   1.122
 5030SOL    HW215843   1.862   3.079   0.984
 5031SOL     OW15844   2.550   3.524   1.716
 5031SOL    HW115845   2.494   3.605   1.725
 5031SOL    HW215846   2.602   3.528   1.630
 5032SOL     OW15847   2.765   1.948   0.133
 5032SOL    HW115848   2.816   1.949   0.047
 5032SOL    HW215849   2.821   1.906   0.204
 5033SOL     OW15850   3.588   1.997   0.523
 5033SOL    HW115851   3.661   1.980   0.456
 5033SOL    HW215852   3.557   1.910   0.561
 5034SOL     OW15853   3.250   3.435   0.477
 5034SOL    HW115854   3.317   3.447   0.403
 5034SOL    HW215855   3.210   3.524   0.500
 5035SOL     OW15856   1.992   3.656   1.851
 5035SOL    HW115857   1.951   3.582   1.904
 5035SOL    HW215858   2.056   3.707   1.909
 5036SOL     OW15859   3.142   2.789   0.672
 5036SOL    HW115860   3.202   2.708   0.674
 5036SOL    HW215861   3.182   2.858   0.612
 5037SOL     OW15862   2.692   3.135   1.422
 5037SOL    HW115863   2.687   3.168   1.517
 5037SOL    HW215864   2.606   3.154   1.376
 5038SOL     OW15865   2.534   3.478   0.154
 5038SOL    HW115866   2.543   3.488   0.055
 5038SOL    HW215867   2.494   3.389   0.175
 5039SOL     OW15868   3.512   3.582   1.394
 5039SOL    HW115869   3.565   3.592   1.310
 5039SOL    HW215870   3.485   3.672   1.428
 5040SOL     OW15871   3.703   2.037   0.963
 5040SOL    HW115872   3.742   1.952   0.927
 5040SOL    HW215873   3.605   2.039   0.944
 5041SOL     OW15874   3.056   3.474   0.031
 5041SOL    HW115875   3.062   3.381   0.068
 5041SOL    HW215876   2.997   3.474  -0.049
 5042SOL     OW15877   2.684   2.864   1.372
 5042SOL    HW115878   2.724   2.863   1.280
 5042SOL    HW215879   2.694   2.956   1.412
 5043SOL     OW15880   2.778   2.772   0.291
 5043SOL    HW115881   2.841   2.810   0.223
 5043SOL    HW215882   2.818   2.689   0.330
 5044SOL     OW15883   3.366   3.469   0.044
 5044SOL    HW115884   3.274   3.506   0.051
 5044SOL    HW215885   3.404   3.489  -0.046
 5045SOL     OW15886   2.234   3.150   1.490
 5045SOL    HW115887   2.221   3.243   1.456
 5045SOL    HW215888   2.150   3.098   1.477
 5046SOL     OW15889   3.476   3.154   1.289
 5046SOL    HW115890   3.536   3.157   1.369
 5046SOL    HW215891   3.401   3.218   1.302
 5047SOL     OW15892   2.901   2.960   0.696
 5047SOL    HW115893   2.831   2.913   0.750
 5047SOL    HW215894   2.960   2.892   0.653
 5048SOL     OW15895   2.876   2.098   0.971
 5048SOL    HW115896   2.868   2.062   0.878
 5048SOL    HW215897   2.874   2.022   1.036
 5049SOL     OW15898   2.452   3.349   0.491
 5049SOL    HW115899   2.494   3.291   0.421
 5049SOL    HW215900   2.408   3.428   0.447
 5050SOL     OW15901   3.571   2.247   1.381
 5050SOL    HW115902   3.644   2.316   1.385
 5050SOL    HW215903   3.599   2.172   1.322
 5051SOL     OW15904   2.117   3.210   0.290
 5051SOL    HW115905   2.021   3.211   0.263
 5051SOL    HW215906   2.129   3.263   0.374
 5052SOL     OW15907   1.967   2.875   1.726
 5052SOL    HW115908   1.890   2.842   1.780
 5052SOL    HW215909   2.052   2.845   1.768
 5053SOL     OW15910   2.534   2.065   1.489
 5053SOL    HW115911   2.624   2.049   1.449
 5053SOL    HW215912   2.542   2.070   1.588
 5054SOL     OW15913   1.937   2.207   0.033
 5054SOL    HW115914   1.845   2.179   0.004
 5054SOL    HW215915   1.968   2.284  -0.023
 5055SOL     OW15916   3.302   2.718   1.398
 5055SOL    HW115917   3.245   2.770   1.335
 5055SOL    HW215918   3.398   2.730   1.374
 5056SOL     OW15919   3.045   3.197   0.119
 5056SOL    HW115920   2.946   3.186   0.121
 5056SOL    HW215921   3.079   3.212   0.212
 5057SOL     OW15922   2.475   2.704   1.431
 5057SOL    HW115923   2.531   2.785   1.414
 5057SOL    HW215924   2.534   2.624   1.434
 5058SOL     OW15925   3.355   3.629   0.959
 5058SOL    HW115926   3.388   3.693   0.890
 5058SOL    HW215927   3.421   3.623   1.034
 5059SOL     OW15928   2.578   2.427   1.708
 5059SOL    HW115929   2.597   2.492   1.782
 5059SOL    HW215930   2.638   2.347   1.717
 5060SOL     OW15931   3.312   3.082   1.633
 5060SOL    HW115932   3.303   3.072   1.732
 5060SOL    HW215933   3.408   3.075   1.607
 5061SOL     OW15934   2.252   3.603   1.560
 5061SOL    HW115935   2.161   3.644   1.558
 5061SOL    HW215936   2.245   3.509   1.592
 5062SOL     OW15937   3.536   2.745   1.254
 5062SOL    HW115938   3.509   2.656   1.217
 5062SOL    HW215939   3.537   2.813   1.181
 5063SOL     OW15940   3.087   2.187   0.449
 5063SOL    HW115941   3.152   2.113   0.438
 5063SOL    HW215942   3.107   2.237   0.533
 5064SOL     OW15943   2.456   2.607   0.652
 5064SOL    HW115944   2.506   2.692   0.633
 5064SOL    HW215945   2.368   2.609   0.604
 5065SOL     OW15946   3.639   2.204   1.642
 5065SOL    HW115947   3.622   2.235   1.548
 5065SOL    HW215948   3.555   2.167   1.680
 5066SOL     OW15949   3.592   2.796   1.517
 5066SOL    HW115950   3.630   2.887   1.532
 5066SOL    HW215951   3.584   2.779   1.418
 5067SOL     OW15952   2.721   3.236   0.016
 5067SOL    HW115953   2.675   3.251   0.104
 5067SOL    HW215954   2.765   3.321  -0.014
 5068SOL     OW15955   2.523   3.652   0.953
 5068SOL    HW115956   2.477   3.740   0.940
 5068SOL    HW215957   2.622   3.664   0.946
 5069SOL     OW15958   2.721   2.818   0.861
 5069SOL    HW115959   2.775   2.749   0.909
 5069SOL    HW215960   2.689   2.887   0.927
 5070SOL     OW15961   2.945   2.846   0.087
 5070SOL    HW115962   2.922   2.899   0.005
 5070SOL    HW215963   3.026   2.790   0.068
 5071SOL     OW15964   3.723   3.431   0.851
 5071SOL    HW115965   3.652   3.419   0.781
 5071SOL    HW215966   3.724   3.352   0.911
 5072SOL     OW15967   2.083   3.176   1.844
 5072SOL    HW115968   2.018   3.103   1.823
 5072SOL    HW215969   2.087   3.190   1.942
 5073SOL     OW15970   1.941   3.102   0.653
 5073SOL    HW115971   1.940   3.055   0.741
 5073SOL    HW215972   2.023   3.074   0.602
 5074SOL     OW15973   2.534   3.253   1.624
 5074SOL    HW115974   2.456   3.203   1.662
 5074SOL    HW215975   2.531   3.348   1.655
 5075SOL     OW15976   3.686   2.054   1.227
 5075SOL    HW115977   3.682   1.964   1.271
 5075SOL    HW215978   3.689   2.043   1.128
 5076SOL     OW15979   3.567   3.349   1.104
 5076SOL    HW115980   3.474   3.324   1.077
 5076SOL    HW215981   3.593   3.299   1.186
 5077SOL     OW15982   2.179   2.409   1.280
 5077SOL    HW115983   2.217   2.350   1.352
 5077SOL    HW215984   2.219   2.383   1.192
 5078SOL     OW15985   2.674   3.448   0.687
 5078SOL    HW115986   2.706   3.458   0.593
 5078SOL    HW215987   2.595   3.386   0.689
 5079SOL     OW15988   3.286   2.076   1.112
 5079SOL    HW115989   3.338   2.011   1.167
 5079SOL    HW215990   3.237   2.139   1.173
 5080SOL     OW15991   2.863   1.896   1.154
 5080SOL    HW115992   2.800   1.824   1.123
 5080SOL    HW215993   2.956   1.860   1.154
 5081SOL     OW15994   2.632   3.192   0.301
 5081SOL    HW115995   2.586   3.105   0.318
 5081SOL    HW215996   2.723   3.189   0.342
 5082SOL     OW15997   2.480   3.429   1.284
 5082SOL    HW115998   2.475   3.511   1.341
 5082SOL    HW215999   2.569   3.426   1.239
 5083SOL     OW16000   3.214   1.914   0.168
 5083SOL    HW116001   3.249   1.873   0.084
 5083SOL    HW216002   3.124   1.876   0.188
 5084SOL     OW16003   3.162   2.315   0.691
 5084SOL    HW116004   3.103   2.395   0.695
 5084SOL    HW216005   3.177   2.280   0.784
 5085SOL     OW16006   3.455   2.083   0.882
 5085SOL    HW116007   3.371   2.082   0.936
 5085SOL    HW216008   3.457   2.166   0.826
 5086SOL     OW16009   1.901   2.939   0.300
 5086SOL    HW116010   2.000   2.928   0.291
 5086SOL    HW216011   1.861   2.853   0.332
 5087SOL     OW16012   2.737   3.508   0.337
 5087SOL    HW116013   2.660   3.473   0.283
 5087SOL    HW216014   2.705   3.579   0.399
 5088SOL     OW16015   2.092   2.490   1.975
 5088SOL    HW116016   1.999   2.488   2.012
 5088SOL    HW216017   2.093   2.451   1.883
 5089SOL     OW16018   1.881   2.230   2.509
 5089SOL    HW116019   1.799   2.273   2.548
 5089SOL    HW216020   1.853   2.157   2.446
 5090SOL     OW16021   2.431   3.137   3.027
 5090SOL    HW116022   2.338   3.130   2.990
 5090SOL    HW216023   2.442   3.226   3.071
 5091SOL     OW16024   3.417   3.373   2.565
 5091SOL    HW116025   3.360   3.357   2.646
 5091SOL    HW216026   3.358   3.383   2.485
 5092SOL     OW16027   2.997   2.565   2.579
 5092SOL    HW116028   3.054   2.643   2.554
 5092SOL    HW216029   2.937   2.591   2.655
 5093SOL     OW16030   3.617   2.469   2.093
 5093SOL    HW116031   3.605   2.456   1.994
 5093SOL    HW216032   3.587   2.388   2.142
 5094SOL     OW16033   2.630   3.006   2.885
 5094SOL    HW116034   2.552   3.023   2.945
 5094SOL    HW216035   2.664   3.093   2.849
 5095SOL     OW16036   2.712   2.660   3.685
 5095SOL    HW116037   2.708   2.736   3.750
 5095SOL    HW216038   2.734   2.696   3.594
 5096SOL     OW16039   2.547   2.874   2.527
 5096SOL    HW116040   2.616   2.858   2.597
 5096SOL    HW216041   2.474   2.931   2.565
 5097SOL     OW16042   2.548   3.023   3.665
 5097SOL    HW116043   2.608   3.102   3.679
 5097SOL    HW216044   2.462   3.054   3.624
 5098SOL     OW16045   2.197   3.297   2.923
 5098SOL    HW116046   2.119   3.266   2.870
 5098SOL    HW216047   2.255   3.355   2.866
 5099SOL     OW16048   3.322   3.367   3.201
 5099SOL    HW116049   3.346   3.461   3.227
 5099SOL    HW216050   3.306   3.313   3.283
 5100SOL     OW16051   3.465   2.309   2.599
 5100SOL    HW116052   3.391   2.355   2.549
 5100SOL    HW216053   3.516   2.377   2.652
 5101SOL     OW16054   2.093   3.575   2.345
 5101SOL    HW116055   2.127   3.652   2.399
 5101SOL    HW216056   2.137   3.575   2.255
 5102SOL     OW16057   2.989   3.203   3.552
 5102SOL    HW116058   3.036   3.203   3.640
 5102SOL    HW216059   2.941   3.116   3.541
 5103SOL     OW16060   2.092   3.296   2.400
 5103SOL    HW116061   2.066   3.392   2.400
 5103SOL    HW216062   2.021   3.242   2.445
 5104SOL     OW16063   2.102   2.953   2.748
 5104SOL    HW116064   2.116   2.869   2.800
 5104SOL    HW216065   2.047   3.017   2.803
 5105SOL     OW16066   2.482   3.648   3.301
 5105SOL    HW116067   2.390   3.631   3.336
 5105SOL    HW216068   2.510   3.740   3.327
 5106SOL     OW16069   2.468   2.826   1.985
 5106SOL    HW116070   2.475   2.910   1.931
 5106SOL    HW216071   2.514   2.839   2.073
 5107SOL     OW16072   3.456   1.976   3.342
 5107SOL    HW116073   3.438   2.043   3.270
 5107SOL    HW216074   3.453   2.022   3.431
 5108SOL     OW16075   1.984   2.505   2.425
 5108SOL    HW116076   1.939   2.417   2.442
 5108SOL    HW216077   1.983   2.559   2.509
 5109SOL     OW16078   3.704   3.629   2.221
 5109SOL    HW116079   3.758   3.600   2.301
 5109SOL    HW216080   3.734   3.719   2.192
 5110SOL     OW16081   1.889   3.458   1.979
 5110SOL    HW116082   1.870   3.362   2.000
 5110SOL    HW216083   1.856   3.516   2.054
 5111SOL     OW16084   3.551   2.784   2.474
 5111SOL    HW116085   3.646   2.755   2.482
 5111SOL    HW216086   3.543   2.849   2.399
 5112SOL     OW16087   3.503   2.970   2.294
 5112SOL    HW116088   3.589   2.972   2.242
 5112SOL    HW216089   3.517   3.017   2.382
 5113SOL     OW16090   1.975   2.599   3.459
 5113SOL    HW116091   2.063   2.586   3.504
 5113SOL    HW216092   1.962   2.696   3.437
 5114SOL     OW16093   2.475   3.227   2.588
 5114SOL    HW116094   2.426   3.140   2.597
 5114SOL    HW216095   2.452   3.270   2.501
 5115SOL     OW16096   3.155   3.090   3.285
 5115SOL    HW116097   3.192   3.017   3.227
 5115SOL    HW216098   3.207   3.095   3.370
 5116SOL     OW16099   2.671   1.866   2.364
 5116SOL    HW116100   2.711   1.957   2.355
 5116SOL    HW216101   2.571   1.874   2.370
 5117SOL     OW16102   2.059   2.838   3.126
 5117SOL    HW116103   2.148   2.793   3.112
 5117SOL    HW216104   1.986   2.773   3.107
 5118SOL     OW16105   3.387   2.861   2.052
 5118SOL    HW116106   3.324   2.785   2.065
 5118SOL    HW216107   3.435   2.879   2.138
 5119SOL     OW16108   3.049   3.654   3.478
 5119SOL    HW116109   3.073   3.714   3.402
 5119SOL    HW216110   3.056   3.559   3.448
 5120SOL     OW16111   3.328   3.279   2.815
 5120SOL    HW116112   3.269   3.285   2.895
 5120SOL    HW216113   3.313   3.191   2.769
 5121SOL     OW16114   3.529   3.576   2.434
 5121SOL    HW116115   3.488   3.553   2.346
 5121SOL    HW216116   3.511   3.502   2.499
 5122SOL     OW16117   2.460   2.591   2.132
 5122SOL    HW116118   2.484   2.660   2.064
 5122SOL    HW216119   2.382   2.624   2.186
 5123SOL     OW16120   3.143   2.207   2.806
 5123SOL    HW116121   3.057   2.157   2.793
 5123SOL    HW216122   3.205   2.153   2.862
 5124SOL     OW16123   3.438   3.524   2.169
 5124SOL    HW116124   3.527   3.570   2.172
 5124SOL    HW216125   3.417   3.500   2.074
 5125SOL     OW16126   2.669   2.467   3.327
 5125SOL    HW116127   2.622   2.464   3.416
 5125SOL    HW216128   2.618   2.412   3.261
 5126SOL     OW16129   3.256   2.331   3.536
 5126SOL    HW116130   3.236   2.374   3.624
 5126SOL    HW216131   3.334   2.269   3.545
 5127SOL     OW16132   2.835   2.752   3.434
 5127SOL    HW116133   2.881   2.668   3.405
 5127SOL    HW216134   2.779   2.786   3.359
 5128SOL     OW16135   2.853   2.272   3.104
 5128SOL    HW116136   2.776   2.306   3.158
 5128SOL    HW216137   2.819   2.221   3.025
 5129SOL     OW16138   2.903   2.563   2.291
 5129SOL    HW116139   2.929   2.559   2.387
 5129SOL    HW216140   2.818   2.512   2.277
 5130SOL     OW16141   1.938   2.673   2.651
 5130SOL    HW116142   2.037   2.661   2.660
 5130SOL    HW216143   1.914   2.768   2.672
 5131SOL     OW16144   1.992   3.683   3.433
 5131SOL    HW116145   1.982   3.668   3.532
 5131SOL    HW216146   1.906   3.719   3.397
 5132SOL     OW16147   2.727   2.210   2.057
 5132SOL    HW116148   2.786   2.273   2.008
 5132SOL    HW216149   2.746   2.116   2.028
 5133SOL     OW16150   3.581   2.447   3.693
 5133SOL    HW116151   3.555   2.536   3.657
 5133SOL    HW216152   3.579   2.379   3.620
 5134SOL     OW16153   3.224   3.006   2.407
 5134SOL    HW116154   3.307   2.977   2.359
 5134SOL    HW216155   3.175   3.073   2.351
 5135SOL     OW16156   2.412   2.058   2.747
 5135SOL    HW116157   2.407   2.053   2.847
 5135SOL    HW216158   2.414   2.154   2.718
 5136SOL     OW16159   2.870   3.318   2.339
 5136SOL    HW116160   2.824   3.390   2.287
 5136SOL    HW216161   2.866   3.338   2.437
 5137SOL     OW16162   2.213   3.663   2.715
 5137SOL    HW116163   2.263   3.577   2.721
 5137SOL    HW216164   2.278   3.740   2.712
 5138SOL     OW16165   3.657   2.928   2.735
 5138SOL    HW116166   3.595   2.913   2.659
 5138SOL    HW216167   3.605   2.939   2.820
 5139SOL     OW16168   3.089   3.412   3.368
 5139SOL    HW116169   3.095   3.335   3.432
 5139SOL    HW216170   3.037   3.386   3.288
 5140SOL     OW16171   2.183   2.805   2.104
 5140SOL    HW116172   2.265   2.844   2.062
 5140SOL    HW216173   2.156   2.723   2.055
 5141SOL     OW16174   3.320   2.597   2.590
 5141SOL    HW116175   3.315   2.532   2.665
 5141SOL    HW216176   3.400   2.656   2.603
 5142SOL     OW16177   2.323   3.128   3.589
 5142SOL    HW116178   2.273   3.129   3.503
 5142SOL    HW216179   2.260   3.110   3.665
 5143SOL     OW16180   2.973   3.638   2.099
 5143SOL    HW116181   2.913   3.576   2.149
 5143SOL    HW216182   3.004   3.594   2.014
 5144SOL     OW16183   3.494   3.239   1.943
 5144SOL    HW116184   3.462   3.333   1.933
 5144SOL    HW216185   3.418   3.176   1.931
 5145SOL     OW16186   2.326   3.605   2.185
 5145SOL    HW116187   2.359   3.644   2.271
 5145SOL    HW216188   2.402   3.598   2.120
 5146SOL     OW16189   3.262   1.969   2.288
 5146SOL    HW116190   3.238   1.932   2.198
 5146SOL    HW216191   3.361   1.985   2.292
 5147SOL     OW16192   2.111   3.647   3.103
 5147SOL    HW116193   2.168   3.582   3.153
 5147SOL    HW216194   2.095   3.614   3.010
 5148SOL     OW16195   2.802   3.560   2.766
 5148SOL    HW116196   2.882   3.503   2.787
 5148SOL    HW216197   2.753   3.520   2.689
 5149SOL     OW16198   2.244   2.562   2.342
 5149SOL    HW116199   2.289   2.472   2.339
 5149SOL    HW216200   2.150   2.551   2.375
 5150SOL     OW16201   3.409   2.084   3.591
 5150SOL    HW116202   3.404   2.121   3.683
 5150SOL    HW216203   3.337   2.015   3.579
 5151SOL     OW16204   2.476   1.984   1.979
 5151SOL    HW116205   2.574   1.962   1.986
 5151SOL    HW216206   2.445   1.967   1.886
 5152SOL     OW16207   2.643   2.126   3.611
 5152SOL    HW116208   2.710   2.065   3.654
 5152SOL    HW216209   2.570   2.145   3.676
 5153SOL     OW16210   2.750   3.376   3.057
 5153SOL    HW116211   2.727   3.351   2.963
 5153SOL    HW216212   2.811   3.307   3.096
 5154SOL     OW16213   3.213   2.452   3.295
 5154SOL    HW116214   3.241   2.409   3.380
 5154SOL    HW216215   3.238   2.548   3.296
 5155SOL     OW16216   2.665   3.264   2.786
 5155SOL    HW116217   2.755   3.278   2.744
 5155SOL    HW216218   2.594   3.266   2.715
 5156SOL     OW16219   2.784   2.365   2.761
 5156SOL    HW116220   2.759   2.356   2.665
 5156SOL    HW216221   2.832   2.283   2.792
 5157SOL     OW16222   2.401   1.926   2.374
 5157SOL    HW116223   2.320   1.927   2.432
 5157SOL    HW216224   2.404   2.009   2.319
 5158SOL     OW16225   3.296   3.050   1.903
 5158SOL    HW116226   3.328   2.974   1.960
 5158SOL    HW216227   3.204   3.077   1.933
 5159SOL     OW16228   2.797   2.098   2.342
 5159SOL    HW116229   2.749   2.139   2.264
 5159SOL    HW216230   2.896   2.096   2.323
 5160SOL     OW16231   2.938   2.545   3.326
 5160SOL    HW116232   2.858   2.484   3.329
 5160SOL    HW216233   3.019   2.492   3.302
 5161SOL     OW16234   3.089   3.432   2.655
 5161SOL    HW116235   3.110   3.506   2.590
 5161SOL    HW216236   3.157   3.432   2.728
 5162SOL     OW16237   2.321   3.014   2.603
 5162SOL    HW116238   2.250   2.987   2.668
 5162SOL    HW216239   2.295   2.986   2.510
 5163SOL     OW16240   3.133   3.659   2.453
 5163SOL    HW116241   3.177   3.723   2.389
 5163SOL    HW216242   3.083   3.711   2.523
 5164SOL     OW16243   2.894   2.411   1.878
 5164SOL    HW116244   2.853   2.493   1.839
 5164SOL    HW216245   2.958   2.437   1.951
 5165SOL     OW16246   1.940   2.418   3.248
 5165SOL    HW116247   2.032   2.417   3.207
 5165SOL    HW216248   1.934   2.492   3.315
 5166SOL     OW16249   2.728   2.316   2.504
 5166SOL    HW116250   2.696   2.388   2.442
 5166SOL    HW216251   2.752   2.235   2.451
 5167SOL     OW16252   2.879   1.901   2.615
 5167SOL    HW116253   2.807   1.906   2.546
 5167SOL    HW216254   2.855   1.832   2.684
 5168SOL     OW16255   3.291   3.035   2.729
 5168SOL    HW116256   3.236   2.951   2.722
 5168SOL    HW216257   3.317   3.064   2.637
 5169SOL     OW16258   3.328   2.452   2.854
 5169SOL    HW116259   3.298   2.357   2.861
 5169SOL    HW216260   3.401   2.468   2.920
 5170SOL     OW16261   3.719   2.695   2.239
 5170SOL    HW116262   3.761   2.631   2.303
 5170SOL    HW216263   3.681   2.644   2.161
 5171SOL     OW16264   2.350   3.247   2.036
 5171SOL    HW116265   2.263   3.232   2.083
 5171SOL    HW216266   2.333   3.273   1.941
 5172SOL     OW16267   3.526   3.142   2.519
 5172SOL    HW116268   3.625   3.150   2.533
 5172SOL    HW216269   3.481   3.226   2.550
 5173SOL     OW16270   3.252   2.437   1.940
 5173SOL    HW116271   3.198   2.416   2.021
 5173SOL    HW216272   3.343   2.396   1.949
 5174SOL     OW16273   3.616   3.085   3.450
 5174SOL    HW116274   3.707   3.046   3.437
 5174SOL    HW216275   3.624   3.181   3.474
 5175SOL     OW16276   2.926   3.209   3.202
 5175SOL    HW116277   2.846   3.186   3.257
 5175SOL    HW216278   3.009   3.183   3.251
 5176SOL     OW16279   3.454   3.491   3.487
 5176SOL    HW116280   3.481   3.525   3.397
 5176SOL    HW216281   3.533   3.453   3.533
 5177SOL     OW16282   2.973   3.057   2.962
 5177SOL    HW116283   2.933   3.101   3.043
 5177SOL    HW216284   2.932   3.094   2.879
 5178SOL     OW16285   3.500   2.961   2.941
 5178SOL    HW116286   3.505   3.042   3.000
 5178SOL    HW216287   3.414   2.963   2.890
 5179SOL     OW16288   2.777   1.951   3.264
 5179SOL    HW116289   2.802   1.931   3.169
 5179SOL    HW216290   2.849   2.007   3.306
 5180SOL     OW16291   2.842   2.978   3.581
 5180SOL    HW116292   2.743   2.984   3.591
 5180SOL    HW216293   2.865   2.898   3.525
 5181SOL     OW16294   2.567   2.912   2.230
 5181SOL    HW116295   2.553   2.919   2.329
 5181SOL    HW216296   2.651   2.861   2.212
 5182SOL     OW16297   2.272   2.675   3.113
 5182SOL    HW116298   2.358   2.687   3.163
 5182SOL    HW216299   2.230   2.588   3.140
 5183SOL     OW16300   3.136   2.248   3.124
 5183SOL    HW116301   3.157   2.322   3.188
 5183SOL    HW216302   3.047   2.265   3.081
 5184SOL     OW16303   1.926   3.426   3.193
 5184SOL    HW116304   1.880   3.508   3.159
 5184SOL    HW216305   2.024   3.445   3.202
 5185SOL     OW16306   2.229   2.962   2.363
 5185SOL    HW116307   2.222   3.045   2.307
 5185SOL    HW216308   2.233   2.882   2.303
 5186SOL     OW16309   2.428   2.399   2.727
 5186SOL    HW116310   2.440   2.465   2.653
 5186SOL    HW216311   2.474   2.433   2.810
 5187SOL     OW16312   3.114   3.210   2.250
 5187SOL    HW116313   3.164   3.287   2.290
 5187SOL    HW216314   3.019   3.212   2.282
 5188SOL     OW16315   3.134   3.307   3.004
 5188SOL    HW116316   3.181   3.320   3.091
 5188SOL    HW216317   3.068   3.233   3.013
 5189SOL     OW16318   3.444   2.501   2.334
 5189SOL    HW116319   3.413   2.562   2.407
 5189SOL    HW216320   3.494   2.553   2.265
 5190SOL     OW16321   2.216   3.372   3.191
 5190SOL    HW116322   2.195   3.328   3.104
 5190SOL    HW216323   2.313   3.398   3.194
 5191SOL     OW16324   2.264   2.613   3.460
 5191SOL    HW116325   2.332   2.668   3.413
 5191SOL    HW216326   2.304   2.525   3.487
 5192SOL     OW16327   3.449   2.641   3.532
 5192SOL    HW116328   3.357   2.679   3.527
 5192SOL    HW216329   3.509   2.688   3.467
 5193SOL     OW16330   2.875   1.967   3.632
 5193SOL    HW116331   2.881   2.052   3.580
 5193SOL    HW216332   2.907   1.891   3.575
 5194SOL     OW16333   2.366   1.912   3.602
 5194SOL    HW116334   2.324   1.855   3.532
 5194SOL    HW216335   2.300   1.981   3.634
 5195SOL     OW16336   2.435   2.732   2.891
 5195SOL    HW116337   2.479   2.821   2.882
 5195SOL    HW216338   2.372   2.732   2.968
 5196SOL     OW16339   3.222   2.724   2.907
 5196SOL    HW116340   3.147   2.724   2.841
 5196SOL    HW216341   3.259   2.632   2.916
 5197SOL     OW16342   3.071   2.387   2.137
 5197SOL    HW116343   3.084   2.303   2.191
 5197SOL    HW216344   3.042   2.461   2.197
 5198SOL     OW16345   1.899   3.172   3.144
 5198SOL    HW116346   1.952   3.123   3.212
 5198SOL    HW216347   1.921   3.270   3.149
 5199SOL     OW16348   2.594   2.496   2.926
 5199SOL    HW116349   2.653   2.470   2.850
 5199SOL    HW216350   2.566   2.592   2.915
 5200SOL     OW16351   3.590   2.797   3.716
 5200SOL    HW116352   3.544   2.790   3.627
 5200SOL    HW216353   3.528   2.841   3.782
 5201SOL     OW16354   3.484   2.229   2.236
 5201SOL    HW116355   3.486   2.153   2.300
 5201SOL    HW216356   3.436   2.306   2.276
 5202SOL     OW16357   2.885   2.628   2.828
 5202SOL    HW116358   2.900   2.649   2.924
 5202SOL    HW216359   2.855   2.533   2.819
 5203SOL     OW16360   2.842   3.435   3.562
 5203SOL    HW116361   2.822   3.479   3.474
 5203SOL    HW216362   2.881   3.344   3.546
 5204SOL     OW16363   3.721   3.380   3.467
 5204SOL    HW116364   3.735   3.407   3.372
 5204SOL    HW216365   3.804   3.402   3.520
 5205SOL     OW16366   2.212   2.760   3.666
 5205SOL    HW116367   2.288   2.804   3.714
 5205SOL    HW216368   2.247   2.713   3.584
 5206SOL     OW16369   3.402   2.136   1.987
 5206SOL    HW116370   3.341   2.061   2.010
 5206SOL    HW216371   3.424   2.188   2.070
 5207SOL     OW16372   3.165   2.700   1.904
 5207SOL    HW116373   3.199   2.607   1.919
 5207SOL    HW216374   3.183   2.727   1.809
 5208SOL     OW16375   2.930   3.195   2.711
 5208SOL    HW116376   2.937   3.111   2.656
 5208SOL    HW216377   2.992   3.264   2.675
 5209SOL     OW16378   2.181   2.672   2.811
 5209SOL    HW116379   2.274   2.708   2.816
 5209SOL    HW216380   2.175   2.587   2.863
 5210SOL     OW16381   2.201   2.371   2.868
 5210SOL    HW116382   2.149   2.288   2.851
 5210SOL    HW216383   2.278   2.376   2.804
 5211SOL     OW16384   3.000   2.242   3.540
 5211SOL    HW116385   2.955   2.305   3.604
 5211SOL    HW216386   3.093   2.273   3.523
 5212SOL     OW16387   3.022   2.069   3.339
 5212SOL    HW116388   3.022   2.133   3.416
 5212SOL    HW216389   3.050   2.117   3.256
 5213SOL     OW16390   1.870   3.188   2.062
 5213SOL    HW116391   1.777   3.209   2.031
 5213SOL    HW216392   1.880   3.089   2.075
 5214SOL     OW16393   1.950   3.663   2.789
 5214SOL    HW116394   1.908   3.577   2.762
 5214SOL    HW216395   2.044   3.666   2.755
 5215SOL     OW16396   2.366   3.430   2.772
 5215SOL    HW116397   2.432   3.504   2.781
 5215SOL    HW216398   2.410   3.351   2.730
 5216SOL     OW16399   2.864   2.658   3.100
 5216SOL    HW116400   2.905   2.626   3.186
 5216SOL    HW216401   2.768   2.631   3.097
 5217SOL     OW16402   1.902   2.406   2.976
 5217SOL    HW116403   1.987   2.373   2.935
 5217SOL    HW216404   1.915   2.421   3.074
 5218SOL     OW16405   2.051   2.382   3.584
 5218SOL    HW116406   2.110   2.342   3.514
 5218SOL    HW216407   1.993   2.453   3.543
 5219SOL     OW16408   3.231   2.812   3.522
 5219SOL    HW116409   3.270   2.901   3.542
 5219SOL    HW216410   3.241   2.792   3.425
 5220SOL     OW16411   2.677   2.434   2.187
 5220SOL    HW116412   2.684   2.345   2.141
 5220SOL    HW216413   2.583   2.468   2.179
 5221SOL     OW16414   3.519   2.466   3.068
 5221SOL    HW116415   3.481   2.397   3.130
 5221SOL    HW216416   3.601   2.430   3.024
 5222SOL     OW16417   2.114   3.426   3.606
 5222SOL    HW116418   2.084   3.483   3.682
 5222SOL    HW216419   2.107   3.329   3.632
 5223SOL     OW16420   2.533   2.326   3.131
 5223SOL    HW116421   2.499   2.237   3.101
 5223SOL    HW216422   2.559   2.380   3.051
 5224SOL     OW16423   2.792   3.540   3.327
 5224SOL    HW116424   2.768   3.522   3.232
 5224SOL    HW216425   2.822   3.634   3.337
 5225SOL     OW16426   2.335   2.362   2.053
 5225SOL    HW116427   2.396   2.442   2.057
 5225SOL    HW216428   2.240   2.393   2.060
 5226SOL     OW16429   2.021   2.999   3.328
 5226SOL    HW116430   2.043   2.938   3.404
 5226SOL    HW216431   2.031   2.950   3.242
 5227SOL     OW16432   3.209   2.921   3.096
 5227SOL    HW116433   3.233   2.858   3.022
 5227SOL    HW216434   3.119   2.961   3.078
 5228SOL     OW16435   3.164   2.717   2.171
 5228SOL    HW116436   3.078   2.686   2.213
 5228SOL    HW216437   3.160   2.703   2.072
 5229SOL     OW16438   3.621   3.609   3.016
 5229SOL    HW116439   3.682   3.639   2.943
 5229SOL    HW216440   3.583   3.520   2.994
 5230SOL     OW16441   3.114   3.593   2.990
 5230SOL    HW116442   3.198   3.598   2.936
 5230SOL    HW216443   3.091   3.497   3.008
 5231SOL     OW16444   1.945   3.120   2.884
 5231SOL    HW116445   1.940   3.119   2.984
 5231SOL    HW216446   1.862   3.079   2.846
 5232SOL     OW16447   2.550   3.524   3.578
 5232SOL    HW116448   2.494   3.605   3.587
 5232SOL    HW216449   2.602   3.528   3.492
 5233SOL     OW16450   3.588   1.997   2.385
 5233SOL    HW116451   3.661   1.980   2.318
 5233SOL    HW216452   3.557   1.910   2.423
 5234SOL     OW16453   3.250   3.435   2.339
 5234SOL    HW116454   3.317   3.447   2.265
 5234SOL    HW216455   3.210   3.524   2.362
 5235SOL     OW16456   1.992   3.656   3.713
 5235SOL    HW116457   1.951   3.582   3.766
 5235SOL    HW216458   2.056   3.707   3.771
 5236SOL     OW16459   3.142   2.789   2.534
 5236SOL    HW116460   3.202   2.708   2.536
 5236SOL    HW216461   3.182   2.858   2.474
 5237SOL     OW16462   2.692   3.135   3.284
 5237SOL    HW116463   2.687   3.168   3.379
 5237SOL    HW216464   2.606   3.154   3.238
 5238SOL     OW16465   2.534   3.478   2.016
 5238SOL    HW116466   2.543   3.488   1.917
 5238SOL    HW216467   2.494   3.389   2.037
 5239SOL     OW16468   3.512   3.582   3.256
 5239SOL    HW116469   3.565   3.592   3.172
 5239SOL    HW216470   3.485   3.672   3.290
 5240SOL     OW16471   3.703   2.037   2.825
 5240SOL    HW116472   3.742   1.952   2.789
 5240SOL    HW216473   3.605   2.039   2.806
 5241SOL     OW16474   3.056   3.474   1.893
 5241SOL    HW116475   3.062   3.381   1.930
 5241SOL    HW216476   2.997   3.474   1.813
 5242SOL     OW16477   2.684   2.864   3.234
 5242SOL    HW116478   2.724   2.863   3.142
 5242SOL    HW216479   2.694   2.956   3.274
 5243SOL     OW16480   2.778   2.772   2.153
 5243SOL    HW116481   2.841   2.810   2.085
 5243SOL    HW216482   2.818   2.689   2.192
 5244SOL     OW16483   3.366   3.469   1.906
 5244SOL    HW116484   3.274   3.506   1.913
 5244SOL    HW216485   3.404   3.489   1.816
 5245SOL     OW16486   2.234   3.150   3.352
 5245SOL    HW116487   2.221   3.243   3.318
 5245SOL    HW216488   2.150   3.098   3.339
 5246SOL     OW16489   3.476   3.154   3.151
 5246SOL    HW116490   3.536   3.157   3.231
 5246SOL    HW216491   3.401   3.218   3.164
 5247SOL     OW16492   2.901   2.960   2.558
 5247SOL    HW116493   2.831   2.913   2.612
 5247SOL    HW216494   2.960   2.892   2.515
 5248SOL     OW16495   2.876   2.098   2.833
 5248SOL    HW116496   2.868   2.062   2.740
 5248SOL    HW216497   2.874   2.022   2.898
 5249SOL     OW16498   2.452   3.349   2.353
 5249SOL    HW116499   2.494   3.291   2.283
 5249SOL    HW216500   2.408   3.428   2.309
 5250SOL     OW16501   3.571   2.247   3.243
 5250SOL    HW116502   3.644   2.316   3.247
 5250SOL    HW216503   3.599   2.172   3.184
 5251SOL     OW16504   2.117   3.210   2.152
 5251SOL    HW116505   2.021   3.211   2.125
 5251SOL    HW216506   2.129   3.263   2.236
 5252SOL     OW16507   1.967   2.875   3.588
 5252SOL    HW116508   1.890   2.842   3.642
 5252SOL    HW216509   2.052   2.845   3.630
 5253SOL     OW16510   2.534   2.065   3.351
 5253SOL    HW116511   2.624   2.049   3.311
 5253SOL    HW216512   2.542   2.070   3.450
 5254SOL     OW16513   1.937   2.207   1.895
 5254SOL    HW116514   1.845   2.179   1.866
 5254SOL    HW216515   1.968   2.284   1.839
 5255SOL     OW16516   3.302   2.718   3.260
 5255SOL    HW116517   3.245   2.770   3.197
 5255SOL    HW216518   3.398   2.730   3.236
 5256SOL     OW16519   3.045   3.197   1.981
 5256SOL    HW116520   2.946   3.186   1.983
 5256SOL    HW216521   3.079   3.212   2.074
 5257SOL     OW16522   2.475   2.704   3.293
 5257SOL    HW116523   2.531   2.785   3.276
 5257SOL    HW216524   2.534   2.624   3.296
 5258SOL     OW16525   3.355   3.629   2.821
 5258SOL    HW116526   3.388   3.693   2.752
 5258SOL    HW216527   3.421   3.623   2.896
 5259SOL     OW16528   2.578   2.427   3.570
 5259SOL    HW116529   2.597   2.492   3.644
 5259SOL    HW216530   2.638   2.347   3.579
 5260SOL     OW16531   3.312   3.082   3.495
 5260SOL    HW116532   3.303   3.072   3.594
 5260SOL    HW216533   3.408   3.075   3.469
 5261SOL     OW16534   2.252   3.603   3.422
 5261SOL    HW116535   2.161   3.644   3.420
 5261SOL    HW216536   2.245   3.509   3.454
 5262SOL     OW16537   3.536   2.745   3.116
 5262SOL    HW116538   3.509   2.656   3.079
 5262SOL    HW216539   3.537   2.813   3.043
 5263SOL     OW16540   3.087   2.187   2.311
 5263SOL    HW116541   3.152   2.113   2.300
 5263SOL    HW216542   3.107   2.237   2.395
 5264SOL     OW16543   2.456   2.607   2.514
 5264SOL    HW116544   2.506   2.692   2.495
 5264SOL    HW216545   2.368   2.609   2.466
 5265SOL     OW16546   3.639   2.204   3.504
 5265SOL    HW116547   3.622   2.235   3.410
 5265SOL    HW216548   3.555   2.167   3.542
 5266SOL     OW16549   3.592   2.796   3.379
 5266SOL    HW116550   3.630   2.887   3.394
 5266SOL    HW216551   3.584   2.779   3.280
 5267SOL     OW16552   2.721   3.236   1.878
 5267SOL    HW116553   2.675   3.251   1.966
 5267SOL    HW216554   2.765   3.321   1.848
 5268SOL     OW16555   2.523   3.652   2.815
 5268SOL    HW116556   2.477   3.740   2.802
 5268SOL    HW216557   2.622   3.664   2.808
 5269SOL     OW16558   2.721   2.818   2.723
 5269SOL    HW116559   2.775   2.749   2.771
 5269SOL    HW216560   2.689   2.887   2.789
 5270SOL     OW16561   2.945   2.846   1.949
 5270SOL    HW116562   2.922   2.899   1.867
 5270SOL    HW216563   3.026   2.790   1.930
 5271SOL     OW16564   3.723   3.431   2.713
 5271SOL    HW116565   3.652   3.419   2.643
 5271SOL    HW216566   3.724   3.352   2.773
 5272SOL     OW16567   2.083   3.176   3.706
 5272SOL    HW116568   2.018   3.103   3.685
 5272SOL    HW216569   2.087   3.190   3.804
 5273SOL     OW16570   1.941   3.102   2.515
 5273SOL    HW116571   1.940   3.055   2.603
 5273SOL    HW216572   2.023   3.074   2.464
 5274SOL     OW16573   2.534   3.253   3.486
 5274SOL    HW116574   2.456   3.203   3.524
 5274SOL    HW216575   2.531   3.348   3.517
 5275SOL     OW16576   3.686   2.054   3.089
 5275SOL    HW116577   3.682   1.964   3.133
 5275SOL    HW216578   3.689   2.043   2.990
 5276SOL     OW16579   2.290   2.286   2.382
 5276SOL    HW116580   2.320   2.214   2.320
 5276SOL    HW216581   2.251   2.246   2.465
 5277SOL     OW16582   3.567   3.349   2.966
 5277SOL    HW116583   3.474   3.324   2.939
 5277SOL    HW216584   3.593   3.299   3.048
 5278SOL     OW16585   2.179   2.409   3.142
 5278SOL    HW116586   2.217   2.350   3.214
 5278SOL    HW216587   2.219   2.383   3.054
 5279SOL     OW16588   2.674   3.448   2.549
 5279SOL    HW116589   2.706   3.458   2.455
 5279SOL    HW216590   2.595   3.386   2.551
 5280SOL     OW16591   3.286   2.076   2.974
 5280SOL    HW116592   3.338   2.011   3.029
 5280SOL    HW216593   3.237   2.139   3.035
 5281SOL     OW16594   2.863   1.896   3.016
 5281SOL    HW116595   2.800   1.824   2.985
 5281SOL    HW216596   2.956   1.860   3.016
 5282SOL     OW16597   2.632   3.192   2.163
 5282SOL    HW116598   2.586   3.105   2.180
 5282SOL    HW216599   2.723   3.189   2.204
 5283SOL     OW16600   2.480   3.429   3.146
 5283SOL    HW116601   2.475   3.511   3.203
 5283SOL    HW216602   2.569   3.426   3.101
 5284SOL     OW16603   3.214   1.914   2.030
 5284SOL    HW116604   3.249   1.873   1.946
 5284SOL    HW216605   3.124   1.876   2.050
 5285SOL     OW16606   3.162   2.315   2.553
 5285SOL    HW116607   3.103   2.395   2.557
 5285SOL    HW216608   3.177   2.280   2.646
 5286SOL     OW16609   3.455   2.083   2.744
 5286SOL    HW116610   3.371   2.082   2.798
 5286SOL    HW216611   3.457   2.166   2.688
 5287SOL     OW16612   1.901   2.939   2.162
 5287SOL    HW116613   2.000   2.928   2.153
 5287SOL    HW216614   1.861   2.853   2.194
 5288SOL     OW16615   2.737   3.508   2.199
 5288SOL    HW116616   2.660   3.473   2.145
 5288SOL    HW216617   2.705   3.579   2.261
 5289SOL     OW16618   2.092   2.490   3.837
 5289SOL    HW116619   1.999   2.488   3.874
 5289SOL    HW216620   2.093   2.451   3.745
 5290SOL     OW16621   1.881   2.230   4.371
 5290SOL    HW116622   1.799   2.273   4.410
 5290SOL    HW216623   1.853   2.157   4.308
 5291SOL     OW16624   2.431   3.137   4.889
 5291SOL    HW116625   2.338   3.130   4.852
 5291SOL    HW216626   2.442   3.226   4.933
 5292SOL     OW16627   3.417   3.373   4.427
 5292SOL    HW116628   3.360   3.357   4.508
 5292SOL    HW216629   3.358   3.383   4.347
 5293SOL     OW16630   2.997   2.565   4.441
 5293SOL    HW116631   3.054   2.643   4.416
 5293SOL    HW216632   2.937   2.591   4.517
 5294SOL     OW16633   3.617   2.469   3.955
 5294SOL    HW116634   3.605   2.456   3.856
 5294SOL    HW216635   3.587   2.388   4.004
 5295SOL     OW16636   2.630   3.006   4.747
 5295SOL    HW116637   2.552   3.023   4.807
 5295SOL    HW216638   2.664   3.093   4.711
 5296SOL     OW16639   2.712   2.660   5.547
 5296SOL    HW116640   2.708   2.736   5.612
 5296SOL    HW216641   2.734   2.696   5.456
 5297SOL     OW16642   2.547   2.874   4.389
 5297SOL    HW116643   2.616   2.858   4.459
 5297SOL    HW216644   2.474   2.931   4.427
 5298SOL     OW16645   2.548   3.023   5.527
 5298SOL    HW116646   2.608   3.102   5.541
 5298SOL    HW216647   2.462   3.054   5.486
 5299SOL     OW16648   2.197   3.297   4.785
 5299SOL    HW116649   2.119   3.266   4.732
 5299SOL    HW216650   2.255   3.355   4.728
 5300SOL     OW16651   3.322   3.367   5.063
 5300SOL    HW116652   3.346   3.461   5.089
 5300SOL    HW216653   3.306   3.313   5.145
 5301SOL     OW16654   3.465   2.309   4.461
 5301SOL    HW116655   3.391   2.355   4.411
 5301SOL    HW216656   3.516   2.377   4.514
 5302SOL     OW16657   2.093   3.575   4.207
 5302SOL    HW116658   2.127   3.652   4.261
 5302SOL    HW216659   2.137   3.575   4.117
 5303SOL     OW16660   2.989   3.203   5.414
 5303SOL    HW116661   3.036   3.203   5.502
 5303SOL    HW216662   2.941   3.116   5.403
 5304SOL     OW16663   2.092   3.296   4.262
 5304SOL    HW116664   2.066   3.392   4.262
 5304SOL    HW216665   2.021   3.242   4.307
 5305SOL     OW16666   2.102   2.953   4.610
 5305SOL    HW116667   2.116   2.869   4.662
 5305SOL    HW216668   2.047   3.017   4.665
 5306SOL     OW16669   2.482   3.648   5.163
 5306SOL    HW116670   2.390   3.631   5.198
 5306SOL    HW216671   2.510   3.740   5.189
 5307SOL     OW16672   2.468   2.826   3.847
 5307SOL    HW116673   2.475   2.910   3.793
 5307SOL    HW216674   2.514   2.839   3.935
 5308SOL     OW16675   3.456   1.976   5.204
 5308SOL    HW116676   3.438   2.043   5.132
 5308SOL    HW216677   3.453   2.022   5.293
 5309SOL     OW16678   1.984   2.505   4.287
 5309SOL    HW116679   1.939   2.417   4.304
 5309SOL    HW216680   1.983   2.559   4.371
 5310SOL     OW16681   3.704   3.629   4.083
 5310SOL    HW116682   3.758   3.600   4.163
 5310SOL    HW216683   3.734   3.719   4.054
 5311SOL     OW16684   1.889   3.458   3.841
 5311SOL    HW116685   1.870   3.362   3.862
 5311SOL    HW216686   1.856   3.516   3.916
 5312SOL     OW16687   3.551   2.784   4.336
 5312SOL    HW116688   3.646   2.755   4.344
 5312SOL    HW216689   3.543   2.849   4.261
 5313SOL     OW16690   3.503   2.970   4.156
 5313SOL    HW116691   3.589   2.972   4.104
 5313SOL    HW216692   3.517   3.017   4.244
 5314SOL     OW16693   1.975   2.599   5.321
 5314SOL    HW116694   2.063   2.586   5.366
 5314SOL    HW216695   1.962   2.696   5.299
 5315SOL     OW16696   2.475   3.227   4.450
 5315SOL    HW116697   2.426   3.140   4.459
 5315SOL    HW216698   2.452   3.270   4.363
 5316SOL     OW16699   3.155   3.090   5.147
 5316SOL    HW116700   3.192   3.017   5.089
 5316SOL    HW216701   3.207   3.095   5.232
 5317SOL     OW16702   2.671   1.866   4.226
 5317SOL    HW116703   2.711   1.957   4.217
 5317SOL    HW216704   2.571   1.874   4.232
 5318SOL     OW16705   2.059   2.838   4.988
 5318SOL    HW116706   2.148   2.793   4.974
 5318SOL    HW216707   1.986   2.773   4.969
 5319SOL     OW16708   3.387   2.861   3.914
 5319SOL    HW116709   3.324   2.785   3.927
 5319SOL    HW216710   3.435   2.879   4.000
 5320SOL     OW16711   3.049   3.654   5.340
 5320SOL    HW116712   3.073   3.714   5.264
 5320SOL    HW216713   3.056   3.559   5.310
 5321SOL     OW16714   3.328   3.279   4.677
 5321SOL    HW116715   3.269   3.285   4.757
 5321SOL    HW216716   3.313   3.191   4.631
 5322SOL     OW16717   3.529   3.576   4.296
 5322SOL    HW116718   3.488   3.553   4.208
 5322SOL    HW216719   3.511   3.502   4.361
 5323SOL     OW16720   2.460   2.591   3.994
 5323SOL    HW116721   2.484   2.660   3.926
 5323SOL    HW216722   2.382   2.624   4.048
 5324SOL     OW16723   3.143   2.207   4.668
 5324SOL    HW116724   3.057   2.157   4.655
 5324SOL    HW216725   3.205   2.153   4.724
 5325SOL     OW16726   3.438   3.524   4.031
 5325SOL    HW116727   3.527   3.570   4.034
 5325SOL    HW216728   3.417   3.500   3.936
 5326SOL     OW16729   2.669   2.467   5.189
 5326SOL    HW116730   2.622   2.464   5.278
 5326SOL    HW216731   2.618   2.412   5.123
 5327SOL     OW16732   3.256   2.331   5.398
 5327SOL    HW116733   3.236   2.374   5.486
 5327SOL    HW216734   3.334   2.269   5.407
 5328SOL     OW16735   2.835   2.752   5.296
 5328SOL    HW116736   2.881   2.668   5.267
 5328SOL    HW216737   2.779   2.786   5.221
 5329SOL     OW16738   2.853   2.272   4.966
 5329SOL    HW116739   2.776   2.306   5.020
 5329SOL    HW216740   2.819   2.221   4.887
 5330SOL     OW16741   2.903   2.563   4.153
 5330SOL    HW116742   2.929   2.559   4.249
 5330SOL    HW216743   2.818   2.512   4.139
 5331SOL     OW16744   1.938   2.673   4.513
 5331SOL    HW116745   2.037   2.661   4.522
 5331SOL    HW216746   1.914   2.768   4.534
 5332SOL     OW16747   1.992   3.683   5.295
 5332SOL    HW116748   1.982   3.668   5.394
 5332SOL    HW216749   1.906   3.719   5.259
 5333SOL     OW16750   2.727   2.210   3.919
 5333SOL    HW116751   2.786   2.273   3.870
 5333SOL    HW216752   2.746   2.116   3.890
 5334SOL     OW16753   3.581   2.447   5.555
 5334SOL    HW116754   3.555   2.536   5.519
 5334SOL    HW216755   3.579   2.379   5.482
 5335SOL     OW16756   3.224   3.006   4.269
 5335SOL    HW116757   3.307   2.977   4.221
 5335SOL    HW216758   3.175   3.073   4.213
 5336SOL     OW16759   2.412   2.058   4.609
 5336SOL    HW116760   2.407   2.053   4.709
 5336SOL    HW216761   2.414   2.154   4.580
 5337SOL     OW16762   2.870   3.318   4.201
 5337SOL    HW116763   2.824   3.390   4.149
 5337SOL    HW216764   2.866   3.338   4.299
 5338SOL     OW16765   2.213   3.663   4.577
 5338SOL    HW116766   2.263   3.577   4.583
 5338SOL    HW216767   2.278   3.740   4.574
 5339SOL     OW16768   3.657   2.928   4.597
 5339SOL    HW116769   3.595   2.913   4.521
 5339SOL    HW216770   3.605   2.939   4.682
 5340SOL     OW16771   3.089   3.412   5.230
 5340SOL    HW116772   3.095   3.335   5.294
 5340SOL    HW216773   3.037   3.386   5.150
 5341SOL     OW16774   2.183   2.805   3.966
 5341SOL    HW116775   2.265   2.844   3.924
 5341SOL    HW216776   2.156   2.723   3.917
 5342SOL     OW16777   3.320   2.597   4.452
 5342SOL    HW116778   3.315   2.532   4.527
 5342SOL    HW216779   3.400   2.656   4.465
 5343SOL     OW16780   2.323   3.128   5.451
 5343SOL    HW116781   2.273   3.129   5.365
 5343SOL    HW216782   2.260   3.110   5.527
 5344SOL     OW16783   2.973   3.638   3.961
 5344SOL    HW116784   2.913   3.576   4.011
 5344SOL    HW216785   3.004   3.594   3.876
 5345SOL     OW16786   3.494   3.239   3.805
 5345SOL    HW116787   3.462   3.333   3.795
 5345SOL    HW216788   3.418   3.176   3.793
 5346SOL     OW16789   2.326   3.605   4.047
 5346SOL    HW116790   2.359   3.644   4.133
 5346SOL    HW216791   2.402   3.598   3.982
 5347SOL     OW16792   3.262   1.969   4.150
 5347SOL    HW116793   3.238   1.932   4.060
 5347SOL    HW216794   3.361   1.985   4.154
 5348SOL     OW16795   2.111   3.647   4.965
 5348SOL    HW116796   2.168   3.582   5.015
 5348SOL    HW216797   2.095   3.614   4.872
 5349SOL     OW16798   2.802   3.560   4.628
 5349SOL    HW116799   2.882   3.503   4.649
 5349SOL    HW216800   2.753   3.520   4.551
 5350SOL     OW16801   2.244   2.562   4.204
 5350SOL    HW116802   2.289   2.472   4.201
 5350SOL    HW216803   2.150   2.551   4.237
 5351SOL     OW16804   3.409   2.084   5.453
 5351SOL    HW116805   3.404   2.121   5.545
 5351SOL    HW216806   3.337   2.015   5.441
 5352SOL     OW16807   2.476   1.984   3.841
 5352SOL    HW116808   2.574   1.962   3.848
 5352SOL    HW216809   2.445   1.967   3.748
 5353SOL     OW16810   2.643   2.126   5.473
 5353SOL    HW116811   2.710   2.065   5.516
 5353SOL    HW216812   2.570   2.145   5.538
 5354SOL     OW16813   2.750   3.376   4.919
 5354SOL    HW116814   2.727   3.351   4.825
 5354SOL    HW216815   2.811   3.307   4.958
 5355SOL     OW16816   3.213   2.452   5.157
 5355SOL    HW116817   3.241   2.409   5.242
 5355SOL    HW216818   3.238   2.548   5.158
 5356SOL     OW16819   2.665   3.264   4.648
 5356SOL    HW116820   2.755   3.278   4.606
 5356SOL    HW216821   2.594   3.266   4.577
 5357SOL     OW16822   2.784   2.365   4.623
 5357SOL    HW116823   2.759   2.356   4.527
 5357SOL    HW216824   2.832   2.283   4.654
 5358SOL     OW16825   2.401   1.926   4.236
 5358SOL    HW116826   2.320   1.927   4.294
 5358SOL    HW216827   2.404   2.009   4.181
 5359SOL     OW16828   3.296   3.050   3.765
 5359SOL    HW116829   3.328   2.974   3.822
 5359SOL    HW216830   3.204   3.077   3.795
 5360SOL     OW16831   2.797   2.098   4.204
 5360SOL    HW116832   2.749   2.139   4.126
 5360SOL    HW216833   2.896   2.096   4.185
 5361SOL     OW16834   2.938   2.545   5.188
 5361SOL    HW116835   2.858   2.484   5.191
 5361SOL    HW216836   3.019   2.492   5.164
 5362SOL     OW16837   3.089   3.432   4.517
 5362SOL    HW116838   3.110   3.506   4.452
 5362SOL    HW216839   3.157   3.432   4.590
 5363SOL     OW16840   2.321   3.014   4.465
 5363SOL    HW116841   2.250   2.987   4.530
 5363SOL    HW216842   2.295   2.986   4.372
 5364SOL     OW16843   3.133   3.659   4.315
 5364SOL    HW116844   3.177   3.723   4.251
 5364SOL    HW216845   3.083   3.711   4.385
 5365SOL     OW16846   2.894   2.411   3.740
 5365SOL    HW116847   2.853   2.493   3.701
 5365SOL    HW216848   2.958   2.437   3.813
 5366SOL     OW16849   1.940   2.418   5.110
 5366SOL    HW116850   2.032   2.417   5.069
 5366SOL    HW216851   1.934   2.492   5.177
 5367SOL     OW16852   2.728   2.316   4.366
 5367SOL    HW116853   2.696   2.388   4.304
 5367SOL    HW216854   2.752   2.235   4.313
 5368SOL     OW16855   2.879   1.901   4.477
 5368SOL    HW116856   2.807   1.906   4.408
 5368SOL    HW216857   2.855   1.832   4.546
 5369SOL     OW16858   3.291   3.035   4.591
 5369SOL    HW116859   3.236   2.951   4.584
 5369SOL    HW216860   3.317   3.064   4.499
 5370SOL     OW16861   3.328   2.452   4.716
 5370SOL    HW116862   3.298   2.357   4.723
 5370SOL    HW216863   3.401   2.468   4.782
 5371SOL     OW16864   3.719   2.695   4.101
 5371SOL    HW116865   3.761   2.631   4.165
 5371SOL    HW216866   3.681   2.644   4.023
 5372SOL     OW16867   2.350   3.247   3.898
 5372SOL    HW116868   2.263   3.232   3.945
 5372SOL    HW216869   2.333   3.273   3.803
 5373SOL     OW16870   3.526   3.142   4.381
 5373SOL    HW116871   3.625   3.150   4.395
 5373SOL    HW216872   3.481   3.226   4.412
 5374SOL     OW16873   3.252   2.437   3.802
 5374SOL    HW116874   3.198   2.416   3.883
 5374SOL    HW216875   3.343   2.396   3.811
 5375SOL     OW16876   3.616   3.085   5.312
 5375SOL    HW116877   3.707   3.046   5.299
 5375SOL    HW216878   3.624   3.181   5.336
 5376SOL     OW16879   2.926   3.209   5.064
 5376SOL    HW116880   2.846   3.186   5.119
 5376SOL    HW216881   3.009   3.183   5.113
 5377SOL     OW16882   3.454   3.491   5.349
 5377SOL    HW116883   3.481   3.525   5.259
 5377SOL    HW216884   3.533   3.453   5.395
 5378SOL     OW16885   2.973   3.057   4.824
 5378SOL    HW116886   2.933   3.101   4.905
 5378SOL    HW216887   2.932   3.094   4.741
 5379SOL     OW16888   3.500   2.961   4.803
 5379SOL    HW116889   3.505   3.042   4.862
 5379SOL    HW216890   3.414   2.963   4.752
 5380SOL     OW16891   2.777   1.951   5.126
 5380SOL    HW116892   2.802   1.931   5.031
 5380SOL    HW216893   2.849   2.007   5.168
 5381SOL     OW16894   2.842   2.978   5.443
 5381SOL    HW116895   2.743   2.984   5.453
 5381SOL    HW216896   2.865   2.898   5.387
 5382SOL     OW16897   2.567   2.912   4.092
 5382SOL    HW116898   2.553   2.919   4.191
 5382SOL    HW216899   2.651   2.861   4.074
 5383SOL     OW16900   2.272   2.675   4.975
 5383SOL    HW116901   2.358   2.687   5.025
 5383SOL    HW216902   2.230   2.588   5.002
 5384SOL     OW16903   3.136   2.248   4.986
 5384SOL    HW116904   3.157   2.322   5.050
 5384SOL    HW216905   3.047   2.265   4.943
 5385SOL     OW16906   1.926   3.426   5.055
 5385SOL    HW116907   1.880   3.508   5.021
 5385SOL    HW216908   2.024   3.445   5.064
 5386SOL     OW16909   2.229   2.962   4.225
 5386SOL    HW116910   2.222   3.045   4.169
 5386SOL    HW216911   2.233   2.882   4.165
 5387SOL     OW16912   2.428   2.399   4.589
 5387SOL    HW116913   2.440   2.465   4.515
 5387SOL    HW216914   2.474   2.433   4.672
 5388SOL     OW16915   3.114   3.210   4.112
 5388SOL    HW116916   3.164   3.287   4.152
 5388SOL    HW216917   3.019   3.212   4.144
 5389SOL     OW16918   3.134   3.307   4.866
 5389SOL    HW116919   3.181   3.320   4.953
 5389SOL    HW216920   3.068   3.233   4.875
 5390SOL     OW16921   3.444   2.501   4.196
 5390SOL    HW116922   3.413   2.562   4.269
 5390SOL    HW216923   3.494   2.553   4.127
 5391SOL     OW16924   2.216   3.372   5.053
 5391SOL    HW116925   2.195   3.328   4.966
 5391SOL    HW216926   2.313   3.398   5.056
 5392SOL     OW16927   2.264   2.613   5.322
 5392SOL    HW116928   2.332   2.668   5.275
 5392SOL    HW216929   2.304   2.525   5.349
 5393SOL     OW16930   3.449   2.641   5.394
 5393SOL    HW116931   3.357   2.679   5.389
 5393SOL    HW216932   3.509   2.688   5.329
 5394SOL     OW16933   2.875   1.967   5.494
 5394SOL    HW116934   2.881   2.052   5.442
 5394SOL    HW216935   2.907   1.891   5.437
 5395SOL     OW16936   2.366   1.912   5.464
 5395SOL    HW116937   2.324   1.855   5.394
 5395SOL    HW216938   2.300   1.981   5.496
 5396SOL     OW16939   2.435   2.732   4.753
 5396SOL    HW116940   2.479   2.821   4.744
 5396SOL    HW216941   2.372   2.732   4.830
 5397SOL     OW16942   3.222   2.724   4.769
 5397SOL    HW116943   3.147   2.724   4.703
 5397SOL    HW216944   3.259   2.632   4.778
 5398SOL     OW16945   3.071   2.387   3.999
 5398SOL    HW116946   3.084   2.303   4.053
 5398SOL    HW216947   3.042   2.461   4.059
 5399SOL     OW16948   1.899   3.172   5.006
 5399SOL    HW116949   1.952   3.123   5.074
 5399SOL    HW216950   1.921   3.270   5.011
 5400SOL     OW16951   2.594   2.496   4.788
 5400SOL    HW116952   2.653   2.470   4.712
 5400SOL    HW216953   2.566   2.592   4.777
 5401SOL     OW16954   3.590   2.797   5.578
 5401SOL    HW116955   3.544   2.790   5.489
 5401SOL    HW216956   3.528   2.841   5.644
 5402SOL     OW16957   3.484   2.229   4.098
 5402SOL    HW116958   3.486   2.153   4.162
 5402SOL    HW216959   3.436   2.306   4.138
 5403SOL     OW16960   2.885   2.628   4.690
 5403SOL    HW116961   2.900   2.649   4.786
 5403SOL    HW216962   2.855   2.533   4.681
 5404SOL     OW16963   2.842   3.435   5.424
 5404SOL    HW116964   2.822   3.479   5.336
 5404SOL    HW216965   2.881   3.344   5.408
 5405SOL     OW16966   3.721   3.380   5.329
 5405SOL    HW116967   3.735   3.407   5.234
 5405SOL    HW216968   3.804   3.402   5.382
 5406SOL     OW16969   2.212   2.760   5.528
 5406SOL    HW116970   2.288   2.804   5.576
 5406SOL    HW216971   2.247   2.713   5.446
 5407SOL     OW16972   3.402   2.136   3.849
 5407SOL    HW116973   3.341   2.061   3.872
 5407SOL    HW216974   3.424   2.188   3.932
 5408SOL     OW16975   3.165   2.700   3.766
 5408SOL    HW116976   3.199   2.607   3.781
 5408SOL    HW216977   3.183   2.727   3.671
 5409SOL     OW16978   2.930   3.195   4.573
 5409SOL    HW116979   2.937   3.111   4.518
 5409SOL    HW216980   2.992   3.264   4.537
 5410SOL     OW16981   2.181   2.672   4.673
 5410SOL    HW116982   2.274   2.708   4.678
 5410SOL    HW216983   2.175   2.587   4.725
 5411SOL     OW16984   2.201   2.371   4.730
 5411SOL    HW116985   2.149   2.288   4.713
 5411SOL    HW216986   2.278   2.376   4.666
 5412SOL     OW16987   3.000   2.242   5.402
 5412SOL    HW116988   2.955   2.305   5.466
 5412SOL    HW216989   3.093   2.273   5.385
 5413SOL     OW16990   3.022   2.069   5.201
 5413SOL    HW116991   3.022   2.133   5.278
 5413SOL    HW216992   3.050   2.117   5.118
 5414SOL     OW16993   1.870   3.188   3.924
 5414SOL    HW116994   1.777   3.209   3.893
 5414SOL    HW216995   1.880   3.089   3.937
 5415SOL     OW16996   1.950   3.663   4.651
 5415SOL    HW116997   1.908   3.577   4.624
 5415SOL    HW216998   2.044   3.666   4.617
 5416SOL     OW16999   2.366   3.430   4.634
 5416SOL    HW117000   2.432   3.504   4.643
 5416SOL    HW217001   2.410   3.351   4.592
 5417SOL     OW17002   2.864   2.658   4.962
 5417SOL    HW117003   2.905   2.626   5.048
 5417SOL    HW217004   2.768   2.631   4.959
 5418SOL     OW17005   1.902   2.406   4.838
 5418SOL    HW117006   1.987   2.373   4.797
 5418SOL    HW217007   1.915   2.421   4.936
 5419SOL     OW17008   2.051   2.382   5.446
 5419SOL    HW117009   2.110   2.342   5.376
 5419SOL    HW217010   1.993   2.453   5.405
 5420SOL     OW17011   3.231   2.812   5.384
 5420SOL    HW117012   3.270   2.901   5.404
 5420SOL    HW217013   3.241   2.792   5.287
 5421SOL     OW17014   2.677   2.434   4.049
 5421SOL    HW117015   2.684   2.345   4.003
 5421SOL    HW217016   2.583   2.468   4.041
 5422SOL     OW17017   3.519   2.466   4.930
 5422SOL    HW117018   3.481   2.397   4.992
 5422SOL    HW217019   3.601   2.430   4.886
 5423SOL     OW17020   2.114   3.426   5.468
 5423SOL    HW117021   2.084   3.483   5.544
 5423SOL    HW217022   2.107   3.329   5.494
 5424SOL     OW17023   2.533   2.326   4.993
 5424SOL    HW117024   2.499   2.237   4.963
 5424SOL    HW217025   2.559   2.380   4.913
 5425SOL     OW17026   2.792   3.540   5.189
 5425SOL    HW117027   2.768   3.522   5.094
 5425SOL    HW217028   2.822   3.634   5.199
 5426SOL     OW17029   2.335   2.362   3.915
 5426SOL    HW117030   2.396   2.442   3.919
 5426SOL    HW217031   2.240   2.393   3.922
 5427SOL     OW17032   2.021   2.999   5.190
 5427SOL    HW117033   2.043   2.938   5.266
 5427SOL    HW217034   2.031   2.950   5.104
 5428SOL     OW17035   3.209   2.921   4.958
 5428SOL    HW117036   3.233   2.858   4.884
 5428SOL    HW217037   3.119   2.961   4.940
 5429SOL     OW17038   3.164   2.717   4.033
 5429SOL    HW117039   3.078   2.686   4.075
 5429SOL    HW217040   3.160   2.703   3.934
 5430SOL     OW17041   3.621   3.609   4.878
 5430SOL    HW117042   3.682   3.639   4.805
 5430SOL    HW217043   3.583   3.520   4.856
 5431SOL     OW17044   3.114   3.593   4.852
 5431SOL    HW117045   3.198   3.598   4.798
 5431SOL    HW217046   3.091   3.497   4.870
 5432SOL     OW17047   1.945   3.120   4.746
 5432SOL    HW117048   1.940   3.119   4.846
 5432SOL    HW217049   1.862   3.079   4.708
 5433SOL     OW17050   2.550   3.524   5.440
 5433SOL    HW117051   2.494   3.605   5.449
 5433SOL    HW217052   2.602   3.528   5.354
 5434SOL     OW17053   3.588   1.997   4.247
 5434SOL    HW117054   3.661   1.980   4.180
 5434SOL    HW217055   3.557   1.910   4.285
 5435SOL     OW17056   3.250   3.435   4.201
 5435SOL    HW117057   3.317   3.447   4.127
 5435SOL    HW217058   3.210   3.524   4.224
 5436SOL     OW17059   1.992   3.656   5.575
 5436SOL    HW117060   1.951   3.582   5.628
 5436SOL    HW217061   2.056   3.707   5.633
 5437SOL     OW17062   3.142   2.789   4.396
 5437SOL    HW117063   3.202   2.708   4.398
 5437SOL    HW217064   3.182   2.858   4.336
 5438SOL     OW17065   2.692   3.135   5.146
 5438SOL    HW117066   2.687   3.168   5.241
 5438SOL    HW217067   2.606   3.154   5.100
 5439SOL     OW17068   2.534   3.478   3.878
 5439SOL    HW117069   2.543   3.488   3.779
 5439SOL    HW217070   2.494   3.389   3.899
 5440SOL     OW17071   3.512   3.582   5.118
 5440SOL    HW117072   3.565   3.592   5.034
 5440SOL    HW217073   3.485   3.672   5.152
 5441SOL     OW17074   3.703   2.037   4.687
 5441SOL    HW117075   3.742   1.952   4.651
 5441SOL    HW217076   3.605   2.039   4.668
 5442SOL     OW17077   3.056   3.474   3.755
 5442SOL    HW117078   3.062   3.381   3.792
 5442SOL    HW217079   2.997   3.474   3.675
 5443SOL     OW17080   2.684   2.864   5.096
 5443SOL    HW117081   2.724   2.863   5.004
 5443SOL    HW217082   2.694   2.956   5.136
 5444SOL     OW17083   2.778   2.772   4.015
 5444SOL    HW117084   2.841   2.810   3.947
 5444SOL    HW217085   2.818   2.689   4.054
 5445SOL     OW17086   3.366   3.469   3.768
 5445SOL    HW117087   3.274   3.506   3.775
 5445SOL    HW217088   3.404   3.489   3.678
 5446SOL     OW17089   2.234   3.150   5.214
 5446SOL    HW117090   2.221   3.243   5.180
 5446SOL    HW217091   2.150   3.098   5.201
 5447SOL     OW17092   3.476   3.154   5.013
 5447SOL    HW117093   3.536   3.157   5.093
 5447SOL    HW217094   3.401   3.218   5.026
 5448SOL     OW17095   2.901   2.960   4.420
 5448SOL    HW117096   2.831   2.913   4.474
 5448SOL    HW217097   2.960   2.892   4.377
 5449SOL     OW17098   2.876   2.098   4.695
 5449SOL    HW117099   2.868   2.062   4.602
 5449SOL    HW217100   2.874   2.022   4.760
 5450SOL     OW17101   2.452   3.349   4.215
 5450SOL    HW117102   2.494   3.291   4.145
 5450SOL    HW217103   2.408   3.428   4.171
 5451SOL     OW17104   3.571   2.247   5.105
 5451SOL    HW117105   3.644   2.316   5.109
 5451SOL    HW217106   3.599   2.172   5.046
 5452SOL     OW17107   2.117   3.210   4.014
 5452SOL    HW117108   2.021   3.211   3.987
 5452SOL    HW217109   2.129   3.263   4.098
 5453SOL     OW17110   1.967   2.875   5.450
 5453SOL    HW117111   1.890   2.842   5.504
 5453SOL    HW217112   2.052   2.845   5.492
 5454SOL     OW17113   2.534   2.065   5.213
 5454SOL    HW117114   2.624   2.049   5.173
 5454SOL    HW217115   2.542   2.070   5.312
 5455SOL     OW17116   1.937   2.207   3.757
 5455SOL    HW117117   1.845   2.179   3.728
 5455SOL    HW217118   1.968   2.284   3.701
 5456SOL     OW17119   3.302   2.718   5.122
 5456SOL    HW117120   3.245   2.770   5.059
 5456SOL    HW217121   3.398   2.730   5.098
 5457SOL     OW17122   3.045   3.197   3.843
 5457SOL    HW117123   2.946   3.186   3.845
 5457SOL    HW217124   3.079   3.212   3.936
 5458SOL     OW17125   2.475   2.704   5.155
 5458SOL    HW117126   2.531   2.785   5.138
 5458SOL    HW217127   2.534   2.624   5.158
 5459SOL     OW17128   3.355   3.629   4.683
 5459SOL    HW117129   3.388   3.693   4.614
 5459SOL    HW217130   3.421   3.623   4.758
 5460SOL     OW17131   2.578   2.427   5.432
 5460SOL    HW117132   2.597   2.492   5.506
 5460SOL    HW217133   2.638   2.347   5.441
 5461SOL     OW17134   3.312   3.082   5.357
 5461SOL    HW117135   3.303   3.072   5.456
 5461SOL    HW217136   3.408   3.075   5.331
 5462SOL     OW17137   2.252   3.603   5.284
 5462SOL    HW117138   2.161   3.644   5.282
 5462SOL    HW217139   2.245   3.509   5.316
 5463SOL     OW17140   3.536   2.745   4.978
 5463SOL    HW117141   3.509   2.656   4.941
 5463SOL    HW217142   3.537   2.813   4.905
 5464SOL     OW17143   3.087   2.187   4.173
 5464SOL    HW117144   3.152   2.113   4.162
 5464SOL    HW217145   3.107   2.237   4.257
 5465SOL     OW17146   2.456   2.607   4.376
 5465SOL    HW117147   2.506   2.692   4.357
 5465SOL    HW217148   2.368   2.609   4.328
 5466SOL     OW17149   3.639   2.204   5.366
 5466SOL    HW117150   3.622   2.235   5.272
 5466SOL    HW217151   3.555   2.167   5.404
 5467SOL     OW17152   3.592   2.796   5.241
 5467SOL    HW117153   3.630   2.887   5.256
 5467SOL    HW217154   3.584   2.779   5.142
 5468SOL     OW17155   2.721   3.236   3.740
 5468SOL    HW117156   2.675   3.251   3.828
 5468SOL    HW217157   2.765   3.321   3.710
 5469SOL     OW17158   2.523   3.652   4.677
 5469SOL    HW117159   2.477   3.740   4.664
 5469SOL    HW217160   2.622   3.664   4.670
 5470SOL     OW17161   2.721   2.818   4.585
 5470SOL    HW117162   2.775   2.749   4.633
 5470SOL    HW217163   2.689   2.887   4.651
 5471SOL     OW17164   2.945   2.846   3.811
 5471SOL    HW117165   2.922   2.899   3.729
 5471SOL    HW217166   3.026   2.790   3.792
 5472SOL     OW17167   3.723   3.431   4.575
 5472SOL    HW117168   3.652   3.419   4.505
 5472SOL    HW217169   3.724   3.352   4.635
 5473SOL     OW17170   2.083   3.176   5.568
 5473SOL    HW117171   2.018   3.103   5.547
 5473SOL    HW217172   2.087   3.190   5.666
 5474SOL     OW17173   1.941   3.102   4.377
 5474SOL    HW117174   1.940   3.055   4.465
 5474SOL    HW217175   2.023   3.074   4.326
 5475SOL     OW17176   2.534   3.253   5.348
 5475SOL    HW117177   2.456   3.203   5.386
 5475SOL    HW217178   2.531   3.348   5.379
 5476SOL     OW17179   3.686   2.054   4.951
 5476SOL    HW117180   3.682   1.964   4.995
 5476SOL    HW217181   3.689   2.043   4.852
 5477SOL     OW17182   3.567   3.349   4.828
 5477SOL    HW117183   3.474   3.324   4.801
 5477SOL    HW217184   3.593   3.299   4.910
 5478SOL     OW17185   2.179   2.409   5.004
 5478SOL    HW117186   2.217   2.350   5.076
 5478SOL    HW217187   2.219   2.383   4.916
 5479SOL     OW17188   2.674   3.448   4.411
 5479SOL    HW117189   2.706   3.458   4.317
 5479SOL    HW217190   2.595   3.386   4.413
 5480SOL     OW17191   3.286   2.076   4.836
 5480SOL    HW117192   3.338   2.011   4.891
 5480SOL    HW217193   3.237   2.139   4.897
 5481SOL     OW17194   2.863   1.896   4.878
 5481SOL    HW117195   2.800   1.824   4.847
 5481SOL    HW217196   2.956   1.860   4.878
 5482SOL     OW17197   2.632   3.192   4.025
 5482SOL    HW117198   2.586   3.105   4.042
 5482SOL    HW217199   2.723   3.189   4.066
 5483SOL     OW17200   2.480   3.429   5.008
 5483SOL    HW117201   2.475   3.511   5.065
 5483SOL    HW217202   2.569   3.426   4.963
 5484SOL     OW17203   3.214   1.914   3.892
 5484SOL    HW117204   3.249   1.873   3.808
 5484SOL    HW217205   3.124   1.876   3.912
 5485SOL     OW17206   3.162   2.315   4.415
 5485SOL    HW117207   3.103   2.395   4.419
 5485SOL    HW217208   3.177   2.280   4.508
 5486SOL     OW17209   3.455   2.083   4.606
 5486SOL    HW117210   3.371   2.082   4.660
 5486SOL    HW217211   3.457   2.166   4.550
 5487SOL     OW17212   1.901   2.939   4.024
 5487SOL    HW117213   2.000   2.928   4.015
 5487SOL    HW217214   1.861   2.853   4.056
 5488SOL     OW17215   2.737   3.508   4.061
 5488SOL    HW117216   2.660   3.473   4.007
 5488SOL    HW217217   2.705   3.579   4.123
 5489SOL     OW17218   2.092   2.490   5.699
 5489SOL    HW117219   1.999   2.488   5.736
 5489SOL    HW217220   2.093   2.451   5.607
 5490SOL     OW17221   1.881   2.230   6.233
 5490SOL    HW117222   1.799   2.273   6.272
 5490SOL    HW217223   1.853   2.157   6.170
 5491SOL     OW17224   2.431   3.137   6.751
 5491SOL    HW117225   2.338   3.130   6.714
 5491SOL    HW217226   2.442   3.226   6.795
 5492SOL     OW17227   3.417   3.373   6.289
 5492SOL    HW117228   3.360   3.357   6.370
 5492SOL    HW217229   3.358   3.383   6.209
 5493SOL     OW17230   2.997   2.565   6.303
 5493SOL    HW117231   3.054   2.643   6.278
 5493SOL    HW217232   2.937   2.591   6.379
 5494SOL     OW17233   3.617   2.469   5.817
 5494SOL    HW117234   3.605   2.456   5.718
 5494SOL    HW217235   3.587   2.388   5.866
 5495SOL     OW17236   2.630   3.006   6.609
 5495SOL    HW117237   2.552   3.023   6.669
 5495SOL    HW217238   2.664   3.093   6.573
 5496SOL     OW17239   2.712   2.660   7.409
 5496SOL    HW117240   2.708   2.736   7.474
 5496SOL    HW217241   2.734   2.696   7.318
 5497SOL     OW17242   2.547   2.874   6.251
 5497SOL    HW117243   2.616   2.858   6.321
 5497SOL    HW217244   2.474   2.931   6.289
 5498SOL     OW17245   2.548   3.023   7.389
 5498SOL    HW117246   2.608   3.102   7.403
 5498SOL    HW217247   2.462   3.054   7.348
 5499SOL     OW17248   2.197   3.297   6.647
 5499SOL    HW117249   2.119   3.266   6.594
 5499SOL    HW217250   2.255   3.355   6.590
 5500SOL     OW17251   3.322   3.367   6.925
 5500SOL    HW117252   3.346   3.461   6.951
 5500SOL    HW217253   3.306   3.313   7.007
 5501SOL     OW17254   3.465   2.309   6.323
 5501SOL    HW117255   3.391   2.355   6.273
 5501SOL    HW217256   3.516   2.377   6.376
 5502SOL     OW17257   2.093   3.575   6.069
 5502SOL    HW117258   2.127   3.652   6.123
 5502SOL    HW217259   2.137   3.575   5.979
 5503SOL     OW17260   2.989   3.203   7.276
 5503SOL    HW117261   3.036   3.203   7.364
 5503SOL    HW217262   2.941   3.116   7.265
 5504SOL     OW17263   2.092   3.296   6.124
 5504SOL    HW117264   2.066   3.392   6.124
 5504SOL    HW217265   2.021   3.242   6.169
 5505SOL     OW17266   2.482   3.648   7.025
 5505SOL    HW117267   2.390   3.631   7.060
 5505SOL    HW217268   2.510   3.740   7.051
 5506SOL     OW17269   2.468   2.826   5.709
 5506SOL    HW117270   2.475   2.910   5.655
 5506SOL    HW217271   2.514   2.839   5.797
 5507SOL     OW17272   3.456   1.976   7.066
 5507SOL    HW117273   3.438   2.043   6.994
 5507SOL    HW217274   3.453   2.022   7.155
 5508SOL     OW17275   3.704   3.629   5.945
 5508SOL    HW117276   3.758   3.600   6.025
 5508SOL    HW217277   3.734   3.719   5.916
 5509SOL     OW17278   1.889   3.458   5.703
 5509SOL    HW117279   1.870   3.362   5.724
 5509SOL    HW217280   1.856   3.516   5.778
 5510SOL     OW17281   3.551   2.784   6.198
 5510SOL    HW117282   3.646   2.755   6.206
 5510SOL    HW217283   3.543   2.849   6.123
 5511SOL     OW17284   3.503   2.970   6.018
 5511SOL    HW117285   3.589   2.972   5.966
 5511SOL    HW217286   3.517   3.017   6.106
 5512SOL     OW17287   1.975   2.599   7.183
 5512SOL    HW117288   2.063   2.586   7.228
 5512SOL    HW217289   1.962   2.696   7.161
 5513SOL     OW17290   2.475   3.227   6.312
 5513SOL    HW117291   2.426   3.140   6.321
 5513SOL    HW217292   2.452   3.270   6.225
 5514SOL     OW17293   3.155   3.090   7.009
 5514SOL    HW117294   3.192   3.017   6.951
 5514SOL    HW217295   3.207   3.095   7.094
 5515SOL     OW17296   2.059   2.838   6.850
 5515SOL    HW117297   2.148   2.793   6.836
 5515SOL    HW217298   1.986   2.773   6.831
 5516SOL     OW17299   3.387   2.861   5.776
 5516SOL    HW117300   3.324   2.785   5.789
 5516SOL    HW217301   3.435   2.879   5.862
 5517SOL     OW17302   3.049   3.654   7.202
 5517SOL    HW117303   3.073   3.714   7.126
 5517SOL    HW217304   3.056   3.559   7.172
 5518SOL     OW17305   3.328   3.279   6.539
 5518SOL    HW117306   3.269   3.285   6.619
 5518SOL    HW217307   3.313   3.191   6.493
 5519SOL     OW17308   3.529   3.576   6.158
 5519SOL    HW117309   3.488   3.553   6.070
 5519SOL    HW217310   3.511   3.502   6.223
 5520SOL     OW17311   2.460   2.591   5.856
 5520SOL    HW117312   2.484   2.660   5.788
 5520SOL    HW217313   2.382   2.624   5.910
 5521SOL     OW17314   3.143   2.207   6.530
 5521SOL    HW117315   3.057   2.157   6.517
 5521SOL    HW217316   3.205   2.153   6.586
 5522SOL     OW17317   3.438   3.524   5.893
 5522SOL    HW117318   3.527   3.570   5.896
 5522SOL    HW217319   3.417   3.500   5.798
 5523SOL     OW17320   3.256   2.331   7.260
 5523SOL    HW117321   3.236   2.374   7.348
 5523SOL    HW217322   3.334   2.269   7.269
 5524SOL     OW17323   2.835   2.752   7.158
 5524SOL    HW117324   2.881   2.668   7.129
 5524SOL    HW217325   2.779   2.786   7.083
 5525SOL     OW17326   2.853   2.272   6.828
 5525SOL    HW117327   2.776   2.306   6.882
 5525SOL    HW217328   2.819   2.221   6.749
 5526SOL     OW17329   2.903   2.563   6.015
 5526SOL    HW117330   2.929   2.559   6.111
 5526SOL    HW217331   2.818   2.512   6.001
 5527SOL     OW17332   1.992   3.683   7.157
 5527SOL    HW117333   1.982   3.668   7.256
 5527SOL    HW217334   1.906   3.719   7.121
 5528SOL     OW17335   2.727   2.210   5.781
 5528SOL    HW117336   2.786   2.273   5.732
 5528SOL    HW217337   2.746   2.116   5.752
 5529SOL     OW17338   3.581   2.447   7.417
 5529SOL    HW117339   3.555   2.536   7.381
 5529SOL    HW217340   3.579   2.379   7.344
 5530SOL     OW17341   3.224   3.006   6.131
 5530SOL    HW117342   3.307   2.977   6.083
 5530SOL    HW217343   3.175   3.073   6.075
 5531SOL     OW17344   2.412   2.058   6.471
 5531SOL    HW117345   2.407   2.053   6.571
 5531SOL    HW217346   2.414   2.154   6.442
 5532SOL     OW17347   2.870   3.318   6.063
 5532SOL    HW117348   2.824   3.390   6.011
 5532SOL    HW217349   2.866   3.338   6.161
 5533SOL     OW17350   2.213   3.663   6.439
 5533SOL    HW117351   2.263   3.577   6.445
 5533SOL    HW217352   2.278   3.740   6.436
 5534SOL     OW17353   3.657   2.928   6.459
 5534SOL    HW117354   3.595   2.913   6.383
 5534SOL    HW217355   3.605   2.939   6.544
 5535SOL     OW17356   3.089   3.412   7.092
 5535SOL    HW117357   3.095   3.335   7.156
 5535SOL    HW217358   3.037   3.386   7.012
 5536SOL     OW17359   2.183   2.805   5.828
 5536SOL    HW117360   2.265   2.844   5.786
 5536SOL    HW217361   2.156   2.723   5.779
 5537SOL     OW17362   3.320   2.597   6.314
 5537SOL    HW117363   3.315   2.532   6.389
 5537SOL    HW217364   3.400   2.656   6.327
 5538SOL     OW17365   2.323   3.128   7.313
 5538SOL    HW117366   2.273   3.129   7.227
 5538SOL    HW217367   2.260   3.110   7.389
 5539SOL     OW17368   2.973   3.638   5.823
 5539SOL    HW117369   2.913   3.576   5.873
 5539SOL    HW217370   3.004   3.594   5.738
 5540SOL     OW17371   3.494   3.239   5.667
 5540SOL    HW117372   3.462   3.333   5.657
 5540SOL    HW217373   3.418   3.176   5.655
 5541SOL     OW17374   2.326   3.605   5.909
 5541SOL    HW117375   2.359   3.644   5.995
 5541SOL    HW217376   2.402   3.598   5.844
 5542SOL     OW17377   3.262   1.969   6.012
 5542SOL    HW117378   3.238   1.932   5.922
 5542SOL    HW217379   3.361   1.985   6.016
 5543SOL     OW17380   2.111   3.647   6.827
 5543SOL    HW117381   2.168   3.582   6.877
 5543SOL    HW217382   2.095   3.614   6.734
 5544SOL     OW17383   2.802   3.560   6.490
 5544SOL    HW117384   2.882   3.503   6.511
 5544SOL    HW217385   2.753   3.520   6.413
 5545SOL     OW17386   3.409   2.084   7.315
 5545SOL    HW117387   3.404   2.121   7.407
 5545SOL    HW217388   3.337   2.015   7.303
 5546SOL     OW17389   2.476   1.984   5.703
 5546SOL    HW117390   2.574   1.962   5.710
 5546SOL    HW217391   2.445   1.967   5.610
 5547SOL     OW17392   2.750   3.376   6.781
 5547SOL    HW117393   2.727   3.351   6.687
 5547SOL    HW217394   2.811   3.307   6.820
 5548SOL     OW17395   3.213   2.452   7.019
 5548SOL    HW117396   3.241   2.409   7.104
 5548SOL    HW217397   3.238   2.548   7.020
 5549SOL     OW17398   2.665   3.264   6.510
 5549SOL    HW117399   2.755   3.278   6.468
 5549SOL    HW217400   2.594   3.266   6.439
 5550SOL     OW17401   2.401   1.926   6.098
 5550SOL    HW117402   2.320   1.927   6.156
 5550SOL    HW217403   2.404   2.009   6.043
 5551SOL     OW17404   3.296   3.050   5.627
 5551SOL    HW117405   3.328   2.974   5.684
 5551SOL    HW217406   3.204   3.077   5.657
 5552SOL     OW17407   2.797   2.098   6.066
 5552SOL    HW117408   2.749   2.139   5.988
 5552SOL    HW217409   2.896   2.096   6.047
 5553SOL     OW17410   2.938   2.545   7.050
 5553SOL    HW117411   2.858   2.484   7.053
 5553SOL    HW217412   3.019   2.492   7.026
 5554SOL     OW17413   3.089   3.432   6.379
 5554SOL    HW117414   3.110   3.506   6.314
 5554SOL    HW217415   3.157   3.432   6.452
 5555SOL     OW17416   2.321   3.014   6.327
 5555SOL    HW117417   2.250   2.987   6.392
 5555SOL    HW217418   2.295   2.986   6.234
 5556SOL     OW17419   3.133   3.659   6.177
 5556SOL    HW117420   3.177   3.723   6.113
 5556SOL    HW217421   3.083   3.711   6.247
 5557SOL     OW17422   2.894   2.411   5.602
 5557SOL    HW117423   2.853   2.493   5.563
 5557SOL    HW217424   2.958   2.437   5.675
 5558SOL     OW17425   1.940   2.418   6.972
 5558SOL    HW117426   2.032   2.417   6.931
 5558SOL    HW217427   1.934   2.492   7.039
 5559SOL     OW17428   3.291   3.035   6.453
 5559SOL    HW117429   3.236   2.951   6.446
 5559SOL    HW217430   3.317   3.064   6.361
 5560SOL     OW17431   3.328   2.452   6.578
 5560SOL    HW117432   3.298   2.357   6.585
 5560SOL    HW217433   3.401   2.468   6.644
 5561SOL     OW17434   3.719   2.695   5.963
 5561SOL    HW117435   3.761   2.631   6.027
 5561SOL    HW217436   3.681   2.644   5.885
 5562SOL     OW17437   2.350   3.247   5.760
 5562SOL    HW117438   2.263   3.232   5.807
 5562SOL    HW217439   2.333   3.273   5.665
 5563SOL     OW17440   3.526   3.142   6.243
 5563SOL    HW117441   3.625   3.150   6.257
 5563SOL    HW217442   3.481   3.226   6.274
 5564SOL     OW17443   3.252   2.437   5.664
 5564SOL    HW117444   3.198   2.416   5.745
 5564SOL    HW217445   3.343   2.396   5.673
 5565SOL     OW17446   3.616   3.085   7.174
 5565SOL    HW117447   3.707   3.046   7.161
 5565SOL    HW217448   3.624   3.181   7.198
 5566SOL     OW17449   2.926   3.209   6.926
 5566SOL    HW117450   2.846   3.186   6.981
 5566SOL    HW217451   3.009   3.183   6.975
 5567SOL     OW17452   3.454   3.491   7.211
 5567SOL    HW117453   3.481   3.525   7.121
 5567SOL    HW217454   3.533   3.453   7.257
 5568SOL     OW17455   2.973   3.057   6.686
 5568SOL    HW117456   2.933   3.101   6.767
 5568SOL    HW217457   2.932   3.094   6.603
 5569SOL     OW17458   3.500   2.961   6.665
 5569SOL    HW117459   3.505   3.042   6.724
 5569SOL    HW217460   3.414   2.963   6.614
 5570SOL     OW17461   2.777   1.951   6.988
 5570SOL    HW117462   2.802   1.931   6.893
 5570SOL    HW217463   2.849   2.007   7.030
 5571SOL     OW17464   2.842   2.978   7.305
 5571SOL    HW117465   2.743   2.984   7.315
 5571SOL    HW217466   2.865   2.898   7.249
 5572SOL     OW17467   2.567   2.912   5.954
 5572SOL    HW117468   2.553   2.919   6.053
 5572SOL    HW217469   2.651   2.861   5.936
 5573SOL     OW17470   2.272   2.675   6.837
 5573SOL    HW117471   2.358   2.687   6.887
 5573SOL    HW217472   2.230   2.588   6.864
 5574SOL     OW17473   3.136   2.248   6.848
 5574SOL    HW117474   3.157   2.322   6.912
 5574SOL    HW217475   3.047   2.265   6.805
 5575SOL     OW17476   1.926   3.426   6.917
 5575SOL    HW117477   1.880   3.508   6.883
 5575SOL    HW217478   2.024   3.445   6.926
 5576SOL     OW17479   2.229   2.962   6.087
 5576SOL    HW117480   2.222   3.045   6.031
 5576SOL    HW217481   2.233   2.882   6.027
 5577SOL     OW17482   3.114   3.210   5.974
 5577SOL    HW117483   3.164   3.287   6.014
 5577SOL    HW217484   3.019   3.212   6.006
 5578SOL     OW17485   3.134   3.307   6.728
 5578SOL    HW117486   3.181   3.320   6.815
 5578SOL    HW217487   3.068   3.233   6.737
 5579SOL     OW17488   3.444   2.501   6.058
 5579SOL    HW117489   3.413   2.562   6.131
 5579SOL    HW217490   3.494   2.553   5.989
 5580SOL     OW17491   2.216   3.372   6.915
 5580SOL    HW117492   2.195   3.328   6.828
 5580SOL    HW217493   2.313   3.398   6.918
 5581SOL     OW17494   3.449   2.641   7.256
 5581SOL    HW117495   3.357   2.679   7.251
 5581SOL    HW217496   3.509   2.688   7.191
 5582SOL     OW17497   2.875   1.967   7.356
 5582SOL    HW117498   2.881   2.052   7.304
 5582SOL    HW217499   2.907   1.891   7.299
 5583SOL     OW17500   2.366   1.912   7.326
 5583SOL    HW117501   2.324   1.855   7.256
 5583SOL    HW217502   2.300   1.981   7.358
 5584SOL     OW17503   3.222   2.724   6.631
 5584SOL    HW117504   3.147   2.724   6.565
 5584SOL    HW217505   3.259   2.632   6.640
 5585SOL     OW17506   3.071   2.387   5.861
 5585SOL    HW117507   3.084   2.303   5.915
 5585SOL    HW217508   3.042   2.461   5.921
 5586SOL     OW17509   1.899   3.172   6.868
 5586SOL    HW117510   1.952   3.123   6.936
 5586SOL    HW217511   1.921   3.270   6.873
 5587SOL     OW17512   3.590   2.797   7.440
 5587SOL    HW117513   3.544   2.790   7.351
 5587SOL    HW217514   3.528   2.841   7.506
 5588SOL     OW17515   3.484   2.229   5.960
 5588SOL    HW117516   3.486   2.153   6.024
 5588SOL    HW217517   3.436   2.306   6.000
 5589SOL     OW17518   2.885   2.628   6.552
 5589SOL    HW117519   2.900   2.649   6.648
 5589SOL    HW217520   2.855   2.533   6.543
 5590SOL     OW17521   2.842   3.435   7.286
 5590SOL    HW117522   2.822   3.479   7.198
 5590SOL    HW217523   2.881   3.344   7.270
 5591SOL     OW17524   3.721   3.380   7.191
 5591SOL    HW117525   3.735   3.407   7.096
 5591SOL    HW217526   3.804   3.402   7.244
 5592SOL     OW17527   3.402   2.136   5.711
 5592SOL    HW117528   3.341   2.061   5.734
 5592SOL    HW217529   3.424   2.188   5.794
 5593SOL     OW17530   3.165   2.700   5.628
 5593SOL    HW117531   3.199   2.607   5.643
 5593SOL    HW217532   3.183   2.727   5.533
 5594SOL     OW17533   2.930   3.195   6.435
 5594SOL    HW117534   2.937   3.111   6.380
 5594SOL    HW217535   2.992   3.264   6.399
 5595SOL     OW17536   2.201   2.371   6.592
 5595SOL    HW117537   2.149   2.288   6.575
 5595SOL    HW217538   2.278   2.376   6.528
 5596SOL     OW17539   3.000   2.242   7.264
 5596SOL    HW117540   2.955   2.305   7.328
 5596SOL    HW217541   3.093   2.273   7.247
 5597SOL     OW17542   3.022   2.069   7.063
 5597SOL    HW117543   3.022   2.133   7.140
 5597SOL    HW217544   3.050   2.117   6.980
 5598SOL     OW17545   1.870   3.188   5.786
 5598SOL    HW117546   1.777   3.209   5.755
 5598SOL    HW217547   1.880   3.089   5.799
 5599SOL     OW17548   1.950   3.663   6.513
 5599SOL    HW117549   1.908   3.577   6.486
 5599SOL    HW217550   2.044   3.666   6.479
 5600SOL     OW17551   2.366   3.430   6.496
 5600SOL    HW117552   2.432   3.504   6.505
 5600SOL    HW217553   2.410   3.351   6.454
 5601SOL     OW17554   2.864   2.658   6.824
 5601SOL    HW117555   2.905   2.626   6.910
 5601SOL    HW217556   2.768   2.631   6.821
 5602SOL     OW17557   1.902   2.406   6.700
 5602SOL    HW117558   1.987   2.373   6.659
 5602SOL    HW217559   1.915   2.421   6.798
 5603SOL     OW17560   2.051   2.382   7.308
 5603SOL    HW117561   2.110   2.342   7.238
 5603SOL    HW217562   1.993   2.453   7.267
 5604SOL     OW17563   3.231   2.812   7.246
 5604SOL    HW117564   3.270   2.901   7.266
 5604SOL    HW217565   3.241   2.792   7.149
 5605SOL     OW17566   2.677   2.434   5.911
 5605SOL    HW117567   2.684   2.345   5.865
 5605SOL    HW217568   2.583   2.468   5.903
 5606SOL     OW17569   3.519   2.466   6.792
 5606SOL    HW117570   3.481   2.397   6.854
 5606SOL    HW217571   3.601   2.430   6.748
 5607SOL     OW17572   2.114   3.426   7.330
 5607SOL    HW117573   2.084   3.483   7.406
 5607SOL    HW217574   2.107   3.329   7.356
 5608SOL     OW17575   2.792   3.540   7.051
 5608SOL    HW117576   2.768   3.522   6.956
 5608SOL    HW217577   2.822   3.634   7.061
 5609SOL     OW17578   2.335   2.362   5.777
 5609SOL    HW117579   2.396   2.442   5.781
 5609SOL    HW217580   2.240   2.393   5.784
 5610SOL     OW17581   2.021   2.999   7.052
 5610SOL    HW117582   2.043   2.938   7.128
 5610SOL    HW217583   2.031   2.950   6.966
 5611SOL     OW17584   3.209   2.921   6.820
 5611SOL    HW117585   3.233   2.858   6.746
 5611SOL    HW217586   3.119   2.961   6.802
 5612SOL     OW17587   3.164   2.717   5.895
 5612SOL    HW117588   3.078   2.686   5.937
 5612SOL    HW217589   3.160   2.703   5.796
 5613SOL     OW17590   3.621   3.609   6.740
 5613SOL    HW117591   3.682   3.639   6.667
 5613SOL    HW217592   3.583   3.520   6.718
 5614SOL     OW17593   3.114   3.593   6.714
 5614SOL    HW117594   3.198   3.598   6.660
 5614SOL    HW217595   3.091   3.497   6.732
 5615SOL     OW17596   1.945   3.120   6.608
 5615SOL    HW117597   1.940   3.119   6.708
 5615SOL    HW217598   1.862   3.079   6.570
 5616SOL     OW17599   2.550   3.524   7.302
 5616SOL    HW117600   2.494   3.605   7.311
 5616SOL    HW217601   2.602   3.528   7.216
 5617SOL     OW17602   3.588   1.997   6.109
 5617SOL    HW117603   3.661   1.980   6.042
 5617SOL    HW217604   3.557   1.910   6.147
 5618SOL     OW17605   3.250   3.435   6.063
 5618SOL    HW117606   3.317   3.447   5.989
 5618SOL    HW217607   3.210   3.524   6.086
 5619SOL     OW17608   1.992   3.656   7.437
 5619SOL    HW117609   1.951   3.582   7.490
 5619SOL    HW217610   2.056   3.707   7.495
 5620SOL     OW17611   3.142   2.789   6.258
 5620SOL    HW117612   3.202   2.708   6.260
 5620SOL    HW217613   3.182   2.858   6.198
 5621SOL     OW17614   2.692   3.135   7.008
 5621SOL    HW117615   2.687   3.168   7.103
 5621SOL    HW217616   2.606   3.154   6.962
 5622SOL     OW17617   2.534   3.478   5.740
 5622SOL    HW117618   2.543   3.488   5.641
 5622SOL    HW217619   2.494   3.389   5.761
 5623SOL     OW17620   3.512   3.582   6.980
 5623SOL    HW117621   3.565   3.592   6.896
 5623SOL    HW217622   3.485   3.672   7.014
 5624SOL     OW17623   3.703   2.037   6.549
 5624SOL    HW117624   3.742   1.952   6.513
 5624SOL    HW217625   3.605   2.039   6.530
 5625SOL     OW17626   3.056   3.474   5.617
 5625SOL    HW117627   3.062   3.381   5.654
 5625SOL    HW217628   2.997   3.474   5.537
 5626SOL     OW17629   2.684   2.864   6.958
 5626SOL    HW117630   2.724   2.863   6.866
 5626SOL    HW217631   2.694   2.956   6.998
 5627SOL     OW17632   2.778   2.772   5.877
 5627SOL    HW117633   2.841   2.810   5.809
 5627SOL    HW217634   2.818   2.689   5.916
 5628SOL     OW17635   3.366   3.469   5.630
 5628SOL    HW117636   3.274   3.506   5.637
 5628SOL    HW217637   3.404   3.489   5.540
 5629SOL     OW17638   2.234   3.150   7.076
 5629SOL    HW117639   2.221   3.243   7.042
 5629SOL    HW217640   2.150   3.098   7.063
 5630SOL     OW17641   3.476   3.154   6.875
 5630SOL    HW117642   3.536   3.157   6.955
 5630SOL    HW217643   3.401   3.218   6.888
 5631SOL     OW17644   2.901   2.960   6.282
 5631SOL    HW117645   2.831   2.913   6.336
 5631SOL    HW217646   2.960   2.892   6.239
 5632SOL     OW17647   2.876   2.098   6.557
 5632SOL    HW117648   2.868   2.062   6.464
 5632SOL    HW217649   2.874   2.022   6.622
 5633SOL     OW17650   2.452   3.349   6.077
 5633SOL    HW117651   2.494   3.291   6.007
 5633SOL    HW217652   2.408   3.428   6.033
 5634SOL     OW17653   3.571   2.247   6.967
 5634SOL    HW117654   3.644   2.316   6.971
 5634SOL    HW217655   3.599   2.172   6.908
 5635SOL     OW17656   2.117   3.210   5.876
 5635SOL    HW117657   2.021   3.211   5.849
 5635SOL    HW217658   2.129   3.263   5.960
 5636SOL     OW17659   1.937   2.207   5.619
 5636SOL    HW117660   1.845   2.179   5.590
 5636SOL    HW217661   1.968   2.284   5.563
 5637SOL     OW17662   3.302   2.718   6.984
 5637SOL    HW117663   3.245   2.770   6.921
 5637SOL    HW217664   3.398   2.730   6.960
 5638SOL     OW17665   3.045   3.197   5.705
 5638SOL    HW117666   2.946   3.186   5.707
 5638SOL    HW217667   3.079   3.212   5.798
 5639SOL     OW17668   2.475   2.704   7.017
 5639SOL    HW117669   2.531   2.785   7.000
 5639SOL    HW217670   2.534   2.624   7.020
 5640SOL     OW17671   3.355   3.629   6.545
 5640SOL    HW117672   3.388   3.693   6.476
 5640SOL    HW217673   3.421   3.623   6.620
 5641SOL     OW17674   3.312   3.082   7.219
 5641SOL    HW117675   3.303   3.072   7.318
 5641SOL    HW217676   3.408   3.075   7.193
 5642SOL     OW17677   2.252   3.603   7.146
 5642SOL    HW117678   2.161   3.644   7.144
 5642SOL    HW217679   2.245   3.509   7.178
 5643SOL     OW17680   3.536   2.745   6.840
 5643SOL    HW117681   3.509   2.656   6.803
 5643SOL    HW217682   3.537   2.813   6.767
 5644SOL     OW17683   3.087   2.187   6.035
 5644SOL    HW117684   3.152   2.113   6.024
 5644SOL    HW217685   3.107   2.237   6.119
 5645SOL     OW17686   3.639   2.204   7.228
 5645SOL    HW117687   3.622   2.235   7.134
 5645SOL    HW217688   3.555   2.167   7.266
 5646SOL     OW17689   3.592   2.796   7.103
 5646SOL    HW117690   3.630   2.887   7.118
 5646SOL    HW217691   3.584   2.779   7.004
 5647SOL     OW17692   2.721   3.236   5.602
 5647SOL    HW117693   2.675   3.251   5.690
 5647SOL    HW217694   2.765   3.321   5.572
 5648SOL     OW17695   2.523   3.652   6.539
 5648SOL    HW117696   2.477   3.740   6.526
 5648SOL    HW217697   2.622   3.664   6.532
 5649SOL     OW17698   2.721   2.818   6.447
 5649SOL    HW117699   2.775   2.749   6.495
 5649SOL    HW217700   2.689   2.887   6.513
 5650SOL     OW17701   2.945   2.846   5.673
 5650SOL    HW117702   2.922   2.899   5.591
 5650SOL    HW217703   3.026   2.790   5.654
 5651SOL     OW17704   3.723   3.431   6.437
 5651SOL    HW117705   3.652   3.419   6.367
 5651SOL    HW217706   3.724   3.352   6.497
 5652SOL     OW17707   2.083   3.176   7.430
 5652SOL    HW117708   2.018   3.103   7.409
 5652SOL    HW217709   2.087   3.190   7.528
 5653SOL     OW17710   1.941   3.102   6.239
 5653SOL    HW117711   1.940   3.055   6.327
 5653SOL    HW217712   2.023   3.074   6.188
 5654SOL     OW17713   2.534   3.253   7.210
 5654SOL    HW117714   2.456   3.203   7.248
 5654SOL    HW217715   2.531   3.348   7.241
 5655SOL     OW17716   3.686   2.054   6.813
 5655SOL    HW117717   3.682   1.964   6.857
 5655SOL    HW217718   3.689   2.043   6.714
 5656SOL     OW17719   3.567   3.349   6.690
 5656SOL    HW117720   3.474   3.324   6.663
 5656SOL    HW217721   3.593   3.299   6.772
 5657SOL     OW17722   2.179   2.409   6.866
 5657SOL    HW117723   2.217   2.350   6.938
 5657SOL    HW217724   2.219   2.383   6.778
 5658SOL     OW17725   2.674   3.448   6.273
 5658SOL    HW117726   2.706   3.458   6.179
 5658SOL    HW217727   2.595   3.386   6.275
 5659SOL     OW17728   3.286   2.076   6.698
 5659SOL    HW117729   3.338   2.011   6.753
 5659SOL    HW217730   3.237   2.139   6.759
 5660SOL     OW17731   2.863   1.896   6.740
 5660SOL    HW117732   2.800   1.824   6.709
 5660SOL    HW217733   2.956   1.860   6.740
 5661SOL     OW17734   2.632   3.192   5.887
 5661SOL    HW117735   2.586   3.105   5.904
 5661SOL    HW217736   2.723   3.189   5.928
 5662SOL     OW17737   2.480   3.429   6.870
 5662SOL    HW117738   2.475   3.511   6.927
 5662SOL    HW217739   2.569   3.426   6.825
 5663SOL     OW17740   3.214   1.914   5.754
 5663SOL    HW117741   3.249   1.873   5.670
 5663SOL    HW217742   3.124   1.876   5.774
 5664SOL     OW17743   3.162   2.315   6.277
 5664SOL    HW117744   3.103   2.395   6.281
 5664SOL    HW217745   3.177   2.280   6.370
 5665SOL     OW17746   3.455   2.083   6.468
 5665SOL    HW117747   3.371   2.082   6.522
 5665SOL    HW217748   3.457   2.166   6.412
 5666SOL     OW17749   1.901   2.939   5.886
 5666SOL    HW117750   2.000   2.928   5.877
 5666SOL    HW217751   1.861   2.853   5.918
 5667SOL     OW17752   2.737   3.508   5.923
 5667SOL    HW117753   2.660   3.473   5.869
 5667SOL    HW217754   2.705   3.579   5.985
 5668SOL     OW17755   1.881   2.230   8.095
 5668SOL    HW117756   1.799   2.273   8.134
 5668SOL    HW217757   1.853   2.157   8.032
 5669SOL     OW17758   2.431   3.137   8.613
 5669SOL    HW117759   2.338   3.130   8.576
 5669SOL    HW217760   2.442   3.226   8.657
 5670SOL     OW17761   3.417   3.373   8.151
 5670SOL    HW117762   3.360   3.357   8.232
 5670SOL    HW217763   3.358   3.383   8.071
 5671SOL     OW17764   2.997   2.565   8.165
 5671SOL    HW117765   3.054   2.643   8.140
 5671SOL    HW217766   2.937   2.591   8.241
 5672SOL     OW17767   3.617   2.469   7.679
 5672SOL    HW117768   3.605   2.456   7.580
 5672SOL    HW217769   3.587   2.388   7.728
 5673SOL     OW17770   2.630   3.006   8.471
 5673SOL    HW117771   2.552   3.023   8.531
 5673SOL    HW217772   2.664   3.093   8.435
 5674SOL     OW17773   2.712   2.660   9.271
 5674SOL    HW117774   2.708   2.736   9.336
 5674SOL    HW217775   2.734   2.696   9.180
 5675SOL     OW17776   2.547   2.874   8.113
 5675SOL    HW117777   2.616   2.858   8.183
 5675SOL    HW217778   2.474   2.931   8.151
 5676SOL     OW17779   2.548   3.023   9.251
 5676SOL    HW117780   2.608   3.102   9.265
 5676SOL    HW217781   2.462   3.054   9.210
 5677SOL     OW17782   2.197   3.297   8.509
 5677SOL    HW117783   2.119   3.266   8.456
 5677SOL    HW217784   2.255   3.355   8.452
 5678SOL     OW17785   3.322   3.367   8.787
 5678SOL    HW117786   3.346   3.461   8.813
 5678SOL    HW217787   3.306   3.313   8.869
 5679SOL     OW17788   3.465   2.309   8.185
 5679SOL    HW117789   3.391   2.355   8.135
 5679SOL    HW217790   3.516   2.377   8.238
 5680SOL     OW17791   2.093   3.575   7.931
 5680SOL    HW117792   2.127   3.652   7.985
 5680SOL    HW217793   2.137   3.575   7.841
 5681SOL     OW17794   2.989   3.203   9.138
 5681SOL    HW117795   3.036   3.203   9.226
 5681SOL    HW217796   2.941   3.116   9.127
 5682SOL     OW17797   2.092   3.296   7.986
 5682SOL    HW117798   2.066   3.392   7.986
 5682SOL    HW217799   2.021   3.242   8.031
 5683SOL     OW17800   2.102   2.953   8.334
 5683SOL    HW117801   2.116   2.869   8.386
 5683SOL    HW217802   2.047   3.017   8.389
 5684SOL     OW17803   2.482   3.648   8.887
 5684SOL    HW117804   2.390   3.631   8.922
 5684SOL    HW217805   2.510   3.740   8.913
 5685SOL     OW17806   2.468   2.826   7.571
 5685SOL    HW117807   2.475   2.910   7.517
 5685SOL    HW217808   2.514   2.839   7.659
 5686SOL     OW17809   3.456   1.976   8.928
 5686SOL    HW117810   3.438   2.043   8.856
 5686SOL    HW217811   3.453   2.022   9.017
 5687SOL     OW17812   1.984   2.505   8.011
 5687SOL    HW117813   1.939   2.417   8.028
 5687SOL    HW217814   1.983   2.559   8.095
 5688SOL     OW17815   3.704   3.629   7.807
 5688SOL    HW117816   3.758   3.600   7.887
 5688SOL    HW217817   3.734   3.719   7.778
 5689SOL     OW17818   1.889   3.458   7.565
 5689SOL    HW117819   1.870   3.362   7.586
 5689SOL    HW217820   1.856   3.516   7.640
 5690SOL     OW17821   3.551   2.784   8.060
 5690SOL    HW117822   3.646   2.755   8.068
 5690SOL    HW217823   3.543   2.849   7.985
 5691SOL     OW17824   3.503   2.970   7.880
 5691SOL    HW117825   3.589   2.972   7.828
 5691SOL    HW217826   3.517   3.017   7.968
 5692SOL     OW17827   1.975   2.599   9.045
 5692SOL    HW117828   2.063   2.586   9.090
 5692SOL    HW217829   1.962   2.696   9.023
 5693SOL     OW17830   2.475   3.227   8.174
 5693SOL    HW117831   2.426   3.140   8.183
 5693SOL    HW217832   2.452   3.270   8.087
 5694SOL     OW17833   3.155   3.090   8.871
 5694SOL    HW117834   3.192   3.017   8.813
 5694SOL    HW217835   3.207   3.095   8.956
 5695SOL     OW17836   2.671   1.866   7.950
 5695SOL    HW117837   2.711   1.957   7.941
 5695SOL    HW217838   2.571   1.874   7.956
 5696SOL     OW17839   2.059   2.838   8.712
 5696SOL    HW117840   2.148   2.793   8.698
 5696SOL    HW217841   1.986   2.773   8.693
 5697SOL     OW17842   3.387   2.861   7.638
 5697SOL    HW117843   3.324   2.785   7.651
 5697SOL    HW217844   3.435   2.879   7.724
 5698SOL     OW17845   3.049   3.654   9.064
 5698SOL    HW117846   3.073   3.714   8.988
 5698SOL    HW217847   3.056   3.559   9.034
 5699SOL     OW17848   3.328   3.279   8.401
 5699SOL    HW117849   3.269   3.285   8.481
 5699SOL    HW217850   3.313   3.191   8.355
 5700SOL     OW17851   3.529   3.576   8.020
 5700SOL    HW117852   3.488   3.553   7.932
 5700SOL    HW217853   3.511   3.502   8.085
 5701SOL     OW17854   3.143   2.207   8.392
 5701SOL    HW117855   3.057   2.157   8.379
 5701SOL    HW217856   3.205   2.153   8.448
 5702SOL     OW17857   3.438   3.524   7.755
 5702SOL    HW117858   3.527   3.570   7.758
 5702SOL    HW217859   3.417   3.500   7.660
 5703SOL     OW17860   2.669   2.467   8.913
 5703SOL    HW117861   2.622   2.464   9.002
 5703SOL    HW217862   2.618   2.412   8.847
 5704SOL     OW17863   3.256   2.331   9.122
 5704SOL    HW117864   3.236   2.374   9.210
 5704SOL    HW217865   3.334   2.269   9.131
 5705SOL     OW17866   2.835   2.752   9.020
 5705SOL    HW117867   2.881   2.668   8.991
 5705SOL    HW217868   2.779   2.786   8.945
 5706SOL     OW17869   2.853   2.272   8.690
 5706SOL    HW117870   2.776   2.306   8.744
 5706SOL    HW217871   2.819   2.221   8.611
 5707SOL     OW17872   2.903   2.563   7.877
 5707SOL    HW117873   2.929   2.559   7.973
 5707SOL    HW217874   2.818   2.512   7.863
 5708SOL     OW17875   1.938   2.673   8.237
 5708SOL    HW117876   2.037   2.661   8.246
 5708SOL    HW217877   1.914   2.768   8.258
 5709SOL     OW17878   1.992   3.683   9.019
 5709SOL    HW117879   1.982   3.668   9.118
 5709SOL    HW217880   1.906   3.719   8.983
 5710SOL     OW17881   3.581   2.447   9.279
 5710SOL    HW117882   3.555   2.536   9.243
 5710SOL    HW217883   3.579   2.379   9.206
 5711SOL     OW17884   3.224   3.006   7.993
 5711SOL    HW117885   3.307   2.977   7.945
 5711SOL    HW217886   3.175   3.073   7.937
 5712SOL     OW17887   2.412   2.058   8.333
 5712SOL    HW117888   2.407   2.053   8.433
 5712SOL    HW217889   2.414   2.154   8.304
 5713SOL     OW17890   2.870   3.318   7.925
 5713SOL    HW117891   2.824   3.390   7.873
 5713SOL    HW217892   2.866   3.338   8.023
 5714SOL     OW17893   2.213   3.663   8.301
 5714SOL    HW117894   2.263   3.577   8.307
 5714SOL    HW217895   2.278   3.740   8.298
 5715SOL     OW17896   3.657   2.928   8.321
 5715SOL    HW117897   3.595   2.913   8.245
 5715SOL    HW217898   3.605   2.939   8.406
 5716SOL     OW17899   3.089   3.412   8.954
 5716SOL    HW117900   3.095   3.335   9.018
 5716SOL    HW217901   3.037   3.386   8.874
 5717SOL     OW17902   3.320   2.597   8.176
 5717SOL    HW117903   3.315   2.532   8.251
 5717SOL    HW217904   3.400   2.656   8.189
 5718SOL     OW17905   2.323   3.128   9.175
 5718SOL    HW117906   2.273   3.129   9.089
 5718SOL    HW217907   2.260   3.110   9.251
 5719SOL     OW17908   2.973   3.638   7.685
 5719SOL    HW117909   2.913   3.576   7.735
 5719SOL    HW217910   3.004   3.594   7.600
 5720SOL     OW17911   3.494   3.239   7.529
 5720SOL    HW117912   3.462   3.333   7.519
 5720SOL    HW217913   3.418   3.176   7.517
 5721SOL     OW17914   2.326   3.605   7.771
 5721SOL    HW117915   2.359   3.644   7.857
 5721SOL    HW217916   2.402   3.598   7.706
 5722SOL     OW17917   3.262   1.969   7.874
 5722SOL    HW117918   3.238   1.932   7.784
 5722SOL    HW217919   3.361   1.985   7.878
 5723SOL     OW17920   2.111   3.647   8.689
 5723SOL    HW117921   2.168   3.582   8.739
 5723SOL    HW217922   2.095   3.614   8.596
 5724SOL     OW17923   2.802   3.560   8.352
 5724SOL    HW117924   2.882   3.503   8.373
 5724SOL    HW217925   2.753   3.520   8.275
 5725SOL     OW17926   3.409   2.084   9.177
 5725SOL    HW117927   3.404   2.121   9.269
 5725SOL    HW217928   3.337   2.015   9.165
 5726SOL     OW17929   2.643   2.126   9.197
 5726SOL    HW117930   2.710   2.065   9.240
 5726SOL    HW217931   2.570   2.145   9.262
 5727SOL     OW17932   2.750   3.376   8.643
 5727SOL    HW117933   2.727   3.351   8.549
 5727SOL    HW217934   2.811   3.307   8.682
 5728SOL     OW17935   3.213   2.452   8.881
 5728SOL    HW117936   3.241   2.409   8.966
 5728SOL    HW217937   3.238   2.548   8.882
 5729SOL     OW17938   2.665   3.264   8.372
 5729SOL    HW117939   2.755   3.278   8.330
 5729SOL    HW217940   2.594   3.266   8.301
 5730SOL     OW17941   2.784   2.365   8.347
 5730SOL    HW117942   2.759   2.356   8.251
 5730SOL    HW217943   2.832   2.283   8.378
 5731SOL     OW17944   2.401   1.926   7.960
 5731SOL    HW117945   2.320   1.927   8.018
 5731SOL    HW217946   2.404   2.009   7.905
 5732SOL     OW17947   3.296   3.050   7.489
 5732SOL    HW117948   3.328   2.974   7.546
 5732SOL    HW217949   3.204   3.077   7.519
 5733SOL     OW17950   2.797   2.098   7.928
 5733SOL    HW117951   2.749   2.139   7.850
 5733SOL    HW217952   2.896   2.096   7.909
 5734SOL     OW17953   2.938   2.545   8.912
 5734SOL    HW117954   2.858   2.484   8.915
 5734SOL    HW217955   3.019   2.492   8.888
 5735SOL     OW17956   3.089   3.432   8.241
 5735SOL    HW117957   3.110   3.506   8.176
 5735SOL    HW217958   3.157   3.432   8.314
 5736SOL     OW17959   2.321   3.014   8.189
 5736SOL    HW117960   2.250   2.987   8.254
 5736SOL    HW217961   2.295   2.986   8.096
 5737SOL     OW17962   3.133   3.659   8.039
 5737SOL    HW117963   3.177   3.723   7.975
 5737SOL    HW217964   3.083   3.711   8.109
 5738SOL     OW17965   2.894   2.411   7.464
 5738SOL    HW117966   2.853   2.493   7.425
 5738SOL    HW217967   2.958   2.437   7.537
 5739SOL     OW17968   1.940   2.418   8.834
 5739SOL    HW117969   2.032   2.417   8.793
 5739SOL    HW217970   1.934   2.492   8.901
 5740SOL     OW17971   2.728   2.316   8.090
 5740SOL    HW117972   2.696   2.388   8.028
 5740SOL    HW217973   2.752   2.235   8.037
 5741SOL     OW17974   2.879   1.901   8.201
 5741SOL    HW117975   2.807   1.906   8.132
 5741SOL    HW217976   2.855   1.832   8.270
 5742SOL     OW17977   3.291   3.035   8.315
 5742SOL    HW117978   3.236   2.951   8.308
 5742SOL    HW217979   3.317   3.064   8.223
 5743SOL     OW17980   3.328   2.452   8.440
 5743SOL    HW117981   3.298   2.357   8.447
 5743SOL    HW217982   3.401   2.468   8.506
 5744SOL     OW17983   3.719   2.695   7.825
 5744SOL    HW117984   3.761   2.631   7.889
 5744SOL    HW217985   3.681   2.644   7.747
 5745SOL     OW17986   2.350   3.247   7.622
 5745SOL    HW117987   2.263   3.232   7.669
 5745SOL    HW217988   2.333   3.273   7.527
 5746SOL     OW17989   3.526   3.142   8.105
 5746SOL    HW117990   3.625   3.150   8.119
 5746SOL    HW217991   3.481   3.226   8.136
 5747SOL     OW17992   3.252   2.437   7.526
 5747SOL    HW117993   3.198   2.416   7.607
 5747SOL    HW217994   3.343   2.396   7.535
 5748SOL     OW17995   3.616   3.085   9.036
 5748SOL    HW117996   3.707   3.046   9.023
 5748SOL    HW217997   3.624   3.181   9.060
 5749SOL     OW17998   2.926   3.209   8.788
 5749SOL    HW117999   2.846   3.186   8.843
 5749SOL    HW218000   3.009   3.183   8.837
 5750SOL     OW18001   3.454   3.491   9.073
 5750SOL    HW118002   3.481   3.525   8.983
 5750SOL    HW218003   3.533   3.453   9.119
 5751SOL     OW18004   2.973   3.057   8.548
 5751SOL    HW118005   2.933   3.101   8.629
 5751SOL    HW218006   2.932   3.094   8.465
 5752SOL     OW18007   3.500   2.961   8.527
 5752SOL    HW118008   3.505   3.042   8.586
 5752SOL    HW218009   3.414   2.963   8.476
 5753SOL     OW18010   2.777   1.951   8.850
 5753SOL    HW118011   2.802   1.931   8.755
 5753SOL    HW218012   2.849   2.007   8.892
 5754SOL     OW18013   2.842   2.978   9.167
 5754SOL    HW118014   2.743   2.984   9.177
 5754SOL    HW218015   2.865   2.898   9.111
 5755SOL     OW18016   2.567   2.912   7.816
 5755SOL    HW118017   2.553   2.919   7.915
 5755SOL    HW218018   2.651   2.861   7.798
 5756SOL     OW18019   2.272   2.675   8.699
 5756SOL    HW118020   2.358   2.687   8.749
 5756SOL    HW218021   2.230   2.588   8.726
 5757SOL     OW18022   3.136   2.248   8.710
 5757SOL    HW118023   3.157   2.322   8.774
 5757SOL    HW218024   3.047   2.265   8.667
 5758SOL     OW18025   1.926   3.426   8.779
 5758SOL    HW118026   1.880   3.508   8.745
 5758SOL    HW218027   2.024   3.445   8.788
 5759SOL     OW18028   2.229   2.962   7.949
 5759SOL    HW118029   2.222   3.045   7.893
 5759SOL    HW218030   2.233   2.882   7.889
 5760SOL     OW18031   2.428   2.399   8.313
 5760SOL    HW118032   2.440   2.465   8.239
 5760SOL    HW218033   2.474   2.433   8.396
 5761SOL     OW18034   3.114   3.210   7.836
 5761SOL    HW118035   3.164   3.287   7.876
 5761SOL    HW218036   3.019   3.212   7.868
 5762SOL     OW18037   3.134   3.307   8.590
 5762SOL    HW118038   3.181   3.320   8.677
 5762SOL    HW218039   3.068   3.233   8.599
 5763SOL     OW18040   3.444   2.501   7.920
 5763SOL    HW118041   3.413   2.562   7.993
 5763SOL    HW218042   3.494   2.553   7.851
 5764SOL     OW18043   2.216   3.372   8.777
 5764SOL    HW118044   2.195   3.328   8.690
 5764SOL    HW218045   2.313   3.398   8.780
 5765SOL     OW18046   2.264   2.613   9.046
 5765SOL    HW118047   2.332   2.668   8.999
 5765SOL    HW218048   2.304   2.525   9.073
 5766SOL     OW18049   3.449   2.641   9.118
 5766SOL    HW118050   3.357   2.679   9.113
 5766SOL    HW218051   3.509   2.688   9.053
 5767SOL     OW18052   2.875   1.967   9.218
 5767SOL    HW118053   2.881   2.052   9.166
 5767SOL    HW218054   2.907   1.891   9.161
 5768SOL     OW18055   2.366   1.912   9.188
 5768SOL    HW118056   2.324   1.855   9.118
 5768SOL    HW218057   2.300   1.981   9.220
 5769SOL     OW18058   2.435   2.732   8.477
 5769SOL    HW118059   2.479   2.821   8.468
 5769SOL    HW218060   2.372   2.732   8.554
 5770SOL     OW18061   3.222   2.724   8.493
 5770SOL    HW118062   3.147   2.724   8.427
 5770SOL    HW218063   3.259   2.632   8.502
 5771SOL     OW18064   3.071   2.387   7.723
 5771SOL    HW118065   3.084   2.303   7.777
 5771SOL    HW218066   3.042   2.461   7.783
 5772SOL     OW18067   1.899   3.172   8.730
 5772SOL    HW118068   1.952   3.123   8.798
 5772SOL    HW218069   1.921   3.270   8.735
 5773SOL     OW18070   2.594   2.496   8.512
 5773SOL    HW118071   2.653   2.470   8.436
 5773SOL    HW218072   2.566   2.592   8.501
 5774SOL     OW18073   3.590   2.797   9.302
 5774SOL    HW118074   3.544   2.790   9.213
 5774SOL    HW218075   3.528   2.841   9.368
 5775SOL     OW18076   3.484   2.229   7.822
 5775SOL    HW118077   3.486   2.153   7.886
 5775SOL    HW218078   3.436   2.306   7.862
 5776SOL     OW18079   2.885   2.628   8.414
 5776SOL    HW118080   2.900   2.649   8.510
 5776SOL    HW218081   2.855   2.533   8.405
 5777SOL     OW18082   2.842   3.435   9.148
 5777SOL    HW118083   2.822   3.479   9.060
 5777SOL    HW218084   2.881   3.344   9.132
 5778SOL     OW18085   3.721   3.380   9.053
 5778SOL    HW118086   3.735   3.407   8.958
 5778SOL    HW218087   3.804   3.402   9.106
 5779SOL     OW18088   2.212   2.760   9.252
 5779SOL    HW118089   2.288   2.804   9.300
 5779SOL    HW218090   2.247   2.713   9.170
 5780SOL     OW18091   3.402   2.136   7.573
 5780SOL    HW118092   3.341   2.061   7.596
 5780SOL    HW218093   3.424   2.188   7.656
 5781SOL     OW18094   3.165   2.700   7.490
 5781SOL    HW118095   3.199   2.607   7.505
 5781SOL    HW218096   3.183   2.727   7.395
 5782SOL     OW18097   2.930   3.195   8.297
 5782SOL    HW118098   2.937   3.111   8.242
 5782SOL    HW218099   2.992   3.264   8.261
 5783SOL     OW18100   2.181   2.672   8.397
 5783SOL    HW118101   2.274   2.708   8.402
 5783SOL    HW218102   2.175   2.587   8.449
 5784SOL     OW18103   3.000   2.242   9.126
 5784SOL    HW118104   2.955   2.305   9.190
 5784SOL    HW218105   3.093   2.273   9.109
 5785SOL     OW18106   3.022   2.069   8.925
 5785SOL    HW118107   3.022   2.133   9.002
 5785SOL    HW218108   3.050   2.117   8.842
 5786SOL     OW18109   1.870   3.188   7.648
 5786SOL    HW118110   1.777   3.209   7.617
 5786SOL    HW218111   1.880   3.089   7.661
 5787SOL     OW18112   1.950   3.663   8.375
 5787SOL    HW118113   1.908   3.577   8.348
 5787SOL    HW218114   2.044   3.666   8.341
 5788SOL     OW18115   2.366   3.430   8.358
 5788SOL    HW118116   2.432   3.504   8.367
 5788SOL    HW218117   2.410   3.351   8.316
 5789SOL     OW18118   2.864   2.658   8.686
 5789SOL    HW118119   2.905   2.626   8.772
 5789SOL    HW218120   2.768   2.631   8.683
 5790SOL     OW18121   1.902   2.406   8.562
 5790SOL    HW118122   1.987   2.373   8.521
 5790SOL    HW218123   1.915   2.421   8.660
 5791SOL     OW18124   3.231   2.812   9.108
 5791SOL    HW118125   3.270   2.901   9.128
 5791SOL    HW218126   3.241   2.792   9.011
 5792SOL     OW18127   3.519   2.466   8.654
 5792SOL    HW118128   3.481   2.397   8.716
 5792SOL    HW218129   3.601   2.430   8.610
 5793SOL     OW18130   2.114   3.426   9.192
 5793SOL    HW118131   2.084   3.483   9.268
 5793SOL    HW218132   2.107   3.329   9.218
 5794SOL     OW18133   2.533   2.326   8.717
 5794SOL    HW118134   2.499   2.237   8.687
 5794SOL    HW218135   2.559   2.380   8.637
 5795SOL     OW18136   2.792   3.540   8.913
 5795SOL    HW118137   2.768   3.522   8.818
 5795SOL    HW218138   2.822   3.634   8.923
 5796SOL     OW18139   2.021   2.999   8.914
 5796SOL    HW118140   2.043   2.938   8.990
 5796SOL    HW218141   2.031   2.950   8.828
 5797SOL     OW18142   3.209   2.921   8.682
 5797SOL    HW118143   3.233   2.858   8.608
 5797SOL    HW218144   3.119   2.961   8.664
 5798SOL     OW18145   3.164   2.717   7.757
 5798SOL    HW118146   3.078   2.686   7.799
 5798SOL    HW218147   3.160   2.703   7.658
 5799SOL     OW18148   3.621   3.609   8.602
 5799SOL    HW118149   3.682   3.639   8.529
 5799SOL    HW218150   3.583   3.520   8.580
 5800SOL     OW18151   3.114   3.593   8.576
 5800SOL    HW118152   3.198   3.598   8.522
 5800SOL    HW218153   3.091   3.497   8.594
 5801SOL     OW18154   1.945   3.120   8.470
 5801SOL    HW118155   1.940   3.119   8.570
 5801SOL    HW218156   1.862   3.079   8.432
 5802SOL     OW18157   2.550   3.524   9.164
 5802SOL    HW118158   2.494   3.605   9.173
 5802SOL    HW218159   2.602   3.528   9.078
 5803SOL     OW18160   3.588   1.997   7.971
 5803SOL    HW118161   3.661   1.980   7.904
 5803SOL    HW218162   3.557   1.910   8.009
 5804SOL     OW18163   3.250   3.435   7.925
 5804SOL    HW118164   3.317   3.447   7.851
 5804SOL    HW218165   3.210   3.524   7.948
 5805SOL     OW18166   1.992   3.656   9.299
 5805SOL    HW118167   1.951   3.582   9.352
 5805SOL    HW218168   2.056   3.707   9.357
 5806SOL     OW18169   3.142   2.789   8.120
 5806SOL    HW118170   3.202   2.708   8.122
 5806SOL    HW218171   3.182   2.858   8.060
 5807SOL     OW18172   2.692   3.135   8.870
 5807SOL    HW118173   2.687   3.168   8.965
 5807SOL    HW218174   2.606   3.154   8.824
 5808SOL     OW18175   2.534   3.478   7.602
 5808SOL    HW118176   2.543   3.488   7.503
 5808SOL    HW218177   2.494   3.389   7.623
 5809SOL     OW18178   3.512   3.582   8.842
 5809SOL    HW118179   3.565   3.592   8.758
 5809SOL    HW218180   3.485   3.672   8.876
 5810SOL     OW18181   3.703   2.037   8.411
 5810SOL    HW118182   3.742   1.952   8.375
 5810SOL    HW218183   3.605   2.039   8.392
 5811SOL     OW18184   3.056   3.474   7.479
 5811SOL    HW118185   3.062   3.381   7.516
 5811SOL    HW218186   2.997   3.474   7.399
 5812SOL     OW18187   2.684   2.864   8.820
 5812SOL    HW118188   2.724   2.863   8.728
 5812SOL    HW218189   2.694   2.956   8.860
 5813SOL     OW18190   2.778   2.772   7.739
 5813SOL    HW118191   2.841   2.810   7.671
 5813SOL    HW218192   2.818   2.689   7.778
 5814SOL     OW18193   3.366   3.469   7.492
 5814SOL    HW118194   3.274   3.506   7.499
 5814SOL    HW218195   3.404   3.489   7.402
 5815SOL     OW18196   2.234   3.150   8.938
 5815SOL    HW118197   2.221   3.243   8.904
 5815SOL    HW218198   2.150   3.098   8.925
 5816SOL     OW18199   3.476   3.154   8.737
 5816SOL    HW118200   3.536   3.157   8.817
 5816SOL    HW218201   3.401   3.218   8.750
 5817SOL     OW18202   2.901   2.960   8.144
 5817SOL    HW118203   2.831   2.913   8.198
 5817SOL    HW218204   2.960   2.892   8.101
 5818SOL     OW18205   2.876   2.098   8.419
 5818SOL    HW118206   2.868   2.062   8.326
 5818SOL    HW218207   2.874   2.022   8.484
 5819SOL     OW18208   2.452   3.349   7.939
 5819SOL    HW118209   2.494   3.291   7.869
 5819SOL    HW218210   2.408   3.428   7.895
 5820SOL     OW18211   3.571   2.247   8.829
 5820SOL    HW118212   3.644   2.316   8.833
 5820SOL    HW218213   3.599   2.172   8.770
 5821SOL     OW18214   2.117   3.210   7.738
 5821SOL    HW118215   2.021   3.211   7.711
 5821SOL    HW218216   2.129   3.263   7.822
 5822SOL     OW18217   1.967   2.875   9.174
 5822SOL    HW118218   1.890   2.842   9.228
 5822SOL    HW218219   2.052   2.845   9.216
 5823SOL     OW18220   2.534   2.065   8.937
 5823SOL    HW118221   2.624   2.049   8.897
 5823SOL    HW218222   2.542   2.070   9.036
 5824SOL     OW18223   1.937   2.207   7.481
 5824SOL    HW118224   1.845   2.179   7.452
 5824SOL    HW218225   1.968   2.284   7.425
 5825SOL     OW18226   3.302   2.718   8.846
 5825SOL    HW118227   3.245   2.770   8.783
 5825SOL    HW218228   3.398   2.730   8.822
 5826SOL     OW18229   3.045   3.197   7.567
 5826SOL    HW118230   2.946   3.186   7.569
 5826SOL    HW218231   3.079   3.212   7.660
 5827SOL     OW18232   2.475   2.704   8.879
 5827SOL    HW118233   2.531   2.785   8.862
 5827SOL    HW218234   2.534   2.624   8.882
 5828SOL     OW18235   3.355   3.629   8.407
 5828SOL    HW118236   3.388   3.693   8.338
 5828SOL    HW218237   3.421   3.623   8.482
 5829SOL     OW18238   2.578   2.427   9.156
 5829SOL    HW118239   2.597   2.492   9.230
 5829SOL    HW218240   2.638   2.347   9.165
 5830SOL     OW18241   3.312   3.082   9.081
 5830SOL    HW118242   3.303   3.072   9.180
 5830SOL    HW218243   3.408   3.075   9.055
 5831SOL     OW18244   2.252   3.603   9.008
 5831SOL    HW118245   2.161   3.644   9.006
 5831SOL    HW218246   2.245   3.509   9.040
 5832SOL     OW18247   3.536   2.745   8.702
 5832SOL    HW118248   3.509   2.656   8.665
 5832SOL    HW218249   3.537   2.813   8.629
 5833SOL     OW18250   3.087   2.187   7.897
 5833SOL    HW118251   3.152   2.113   7.886
 5833SOL    HW218252   3.107   2.237   7.981
 5834SOL     OW18253   2.456   2.607   8.100
 5834SOL    HW118254   2.506   2.692   8.081
 5834SOL    HW218255   2.368   2.609   8.052
 5835SOL     OW18256   3.639   2.204   9.090
 5835SOL    HW118257   3.622   2.235   8.996
 5835SOL    HW218258   3.555   2.167   9.128
 5836SOL     OW18259   3.592   2.796   8.965
 5836SOL    HW118260   3.630   2.887   8.980
 5836SOL    HW218261   3.584   2.779   8.866
 5837SOL     OW18262   2.721   3.236   7.464
 5837SOL    HW118263   2.675   3.251   7.552
 5837SOL    HW218264   2.765   3.321   7.434
 5838SOL     OW18265   2.523   3.652   8.401
 5838SOL    HW118266   2.477   3.740   8.388
 5838SOL    HW218267   2.622   3.664   8.394
 5839SOL     OW18268   2.721   2.818   8.309
 5839SOL    HW118269   2.775   2.749   8.357
 5839SOL    HW218270   2.689   2.887   8.375
 5840SOL     OW18271   2.945   2.846   7.535
 5840SOL    HW118272   2.922   2.899   7.453
 5840SOL    HW218273   3.026   2.790   7.516
 5841SOL     OW18274   3.723   3.431   8.299
 5841SOL    HW118275   3.652   3.419   8.229
 5841SOL    HW218276   3.724   3.352   8.359
 5842SOL     OW18277   2.083   3.176   9.292
 5842SOL    HW118278   2.018   3.103   9.271
 5842SOL    HW218279   2.087   3.190   9.390
 5843SOL     OW18280   1.941   3.102   8.101
 5843SOL    HW118281   1.940   3.055   8.189
 5843SOL    HW218282   2.023   3.074   8.050
 5844SOL     OW18283   2.534   3.253   9.072
 5844SOL    HW118284   2.456   3.203   9.110
 5844SOL    HW218285   2.531   3.348   9.103
 5845SOL     OW18286   3.686   2.054   8.675
 5845SOL    HW118287   3.682   1.964   8.719
 5845SOL    HW218288   3.689   2.043   8.576
 5846SOL     OW18289   3.567   3.349   8.552
 5846SOL    HW118290   3.474   3.324   8.525
 5846SOL    HW218291   3.593   3.299   8.634
 5847SOL     OW18292   2.179   2.409   8.728
 5847SOL    HW118293   2.217   2.350   8.800
 5847SOL    HW218294   2.219   2.383   8.640
 5848SOL     OW18295   2.674   3.448   8.135
 5848SOL    HW118296   2.706   3.458   8.041
 5848SOL    HW218297   2.595   3.386   8.137
 5849SOL     OW18298   3.286   2.076   8.560
 5849SOL    HW118299   3.338   2.011   8.615
 5849SOL    HW218300   3.237   2.139   8.621
 5850SOL     OW18301   2.863   1.896   8.602
 5850SOL    HW118302   2.800   1.824   8.571
 5850SOL    HW218303   2.956   1.860   8.602
 5851SOL     OW18304   2.632   3.192   7.749
 5851SOL    HW118305   2.586   3.105   7.766
 5851SOL    HW218306   2.723   3.189   7.790
 5852SOL     OW18307   2.480   3.429   8.732
 5852SOL    HW118308   2.475   3.511   8.789
 5852SOL    HW218309   2.569   3.426   8.687
 5853SOL     OW18310   3.214   1.914   7.616
 5853SOL    HW118311   3.249   1.873   7.532
 5853SOL    HW218312   3.124   1.876   7.636
 5854SOL     OW18313   3.162   2.315   8.139
 5854SOL    HW118314   3.103   2.395   8.143
 5854SOL    HW218315   3.177   2.280   8.232
 5855SOL     OW18316   3.455   2.083   8.330
 5855SOL    HW118317   3.371   2.082   8.384
 5855SOL    HW218318   3.457   2.166   8.274
 5856SOL     OW18319   1.901   2.939   7.748
 5856SOL    HW118320   2.000   2.928   7.739
 5856SOL    HW218321   1.861   2.853   7.780
 5857SOL     OW18322   2.737   3.508   7.785
 5857SOL    HW118323   2.660   3.473   7.731
 5857SOL    HW218324   2.705   3.579   7.847
 5858SOL     OW18325   2.092   2.490   9.423
 5858SOL    HW118326   1.999   2.488   9.460
 5858SOL    HW218327   2.093   2.451   9.331
 5859SOL     OW18328   1.881   2.230   9.957
 5859SOL    HW118329   1.799   2.273   9.996
 5859SOL    HW218330   1.853   2.157   9.894
 5860SOL     OW18331   2.431   3.137  10.475
 5860SOL    HW118332   2.338   3.130  10.438
 5860SOL    HW218333   2.442   3.226  10.519
 5861SOL     OW18334   3.417   3.373  10.013
 5861SOL    HW118335   3.360   3.357  10.094
 5861SOL    HW218336   3.358   3.383   9.933
 5862SOL     OW18337   2.997   2.565  10.027
 5862SOL    HW118338   3.054   2.643  10.002
 5862SOL    HW218339   2.937   2.591  10.103
 5863SOL     OW18340   3.617   2.469   9.541
 5863SOL    HW118341   3.605   2.456   9.442
 5863SOL    HW218342   3.587   2.388   9.590
 5864SOL     OW18343   2.630   3.006  10.333
 5864SOL    HW118344   2.552   3.023  10.393
 5864SOL    HW218345   2.664   3.093  10.297
 5865SOL     OW18346   2.712   2.660  11.133
 5865SOL    HW118347   2.708   2.736  11.198
 5865SOL    HW218348   2.734   2.696  11.042
 5866SOL     OW18349   2.547   2.874   9.975
 5866SOL    HW118350   2.616   2.858  10.045
 5866SOL    HW218351   2.474   2.931  10.013
 5867SOL     OW18352   2.548   3.023  11.113
 5867SOL    HW118353   2.608   3.102  11.127
 5867SOL    HW218354   2.462   3.054  11.072
 5868SOL     OW18355   2.197   3.297  10.371
 5868SOL    HW118356   2.119   3.266  10.318
 5868SOL    HW218357   2.255   3.355  10.314
 5869SOL     OW18358   3.322   3.367  10.649
 5869SOL    HW118359   3.346   3.461  10.675
 5869SOL    HW218360   3.306   3.313  10.731
 5870SOL     OW18361   3.465   2.309  10.047
 5870SOL    HW118362   3.391   2.355   9.997
 5870SOL    HW218363   3.516   2.377  10.100
 5871SOL     OW18364   2.093   3.575   9.793
 5871SOL    HW118365   2.127   3.652   9.847
 5871SOL    HW218366   2.137   3.575   9.703
 5872SOL     OW18367   2.989   3.203  11.000
 5872SOL    HW118368   3.036   3.203  11.088
 5872SOL    HW218369   2.941   3.116  10.989
 5873SOL     OW18370   2.092   3.296   9.848
 5873SOL    HW118371   2.066   3.392   9.848
 5873SOL    HW218372   2.021   3.242   9.893
 5874SOL     OW18373   2.102   2.953  10.196
 5874SOL    HW118374   2.116   2.869  10.248
 5874SOL    HW218375   2.047   3.017  10.251
 5875SOL     OW18376   2.482   3.648  10.749
 5875SOL    HW118377   2.390   3.631  10.784
 5875SOL    HW218378   2.510   3.740  10.775
 5876SOL     OW18379   2.468   2.826   9.433
 5876SOL    HW118380   2.475   2.910   9.379
 5876SOL    HW218381   2.514   2.839   9.521
 5877SOL     OW18382   3.456   1.976  10.790
 5877SOL    HW118383   3.438   2.043  10.718
 5877SOL    HW218384   3.453   2.022  10.879
 5878SOL     OW18385   1.984   2.505   9.873
 5878SOL    HW118386   1.939   2.417   9.890
 5878SOL    HW218387   1.983   2.559   9.957
 5879SOL     OW18388   3.704   3.629   9.669
 5879SOL    HW118389   3.758   3.600   9.749
 5879SOL    HW218390   3.734   3.719   9.640
 5880SOL     OW18391   1.889   3.458   9.427
 5880SOL    HW118392   1.870   3.362   9.448
 5880SOL    HW218393   1.856   3.516   9.502
 5881SOL     OW18394   3.551   2.784   9.922
 5881SOL    HW118395   3.646   2.755   9.930
 5881SOL    HW218396   3.543   2.849   9.847
 5882SOL     OW18397   3.503   2.970   9.742
 5882SOL    HW118398   3.589   2.972   9.690
 5882SOL    HW218399   3.517   3.017   9.830
 5883SOL     OW18400   1.975   2.599  10.907
 5883SOL    HW118401   2.063   2.586  10.952
 5883SOL    HW218402   1.962   2.696  10.885
 5884SOL     OW18403   2.475   3.227  10.036
 5884SOL    HW118404   2.426   3.140  10.045
 5884SOL    HW218405   2.452   3.270   9.949
 5885SOL     OW18406   3.155   3.090  10.733
 5885SOL    HW118407   3.192   3.017  10.675
 5885SOL    HW218408   3.207   3.095  10.818
 5886SOL     OW18409   2.671   1.866   9.812
 5886SOL    HW118410   2.711   1.957   9.803
 5886SOL    HW218411   2.571   1.874   9.818
 5887SOL     OW18412   2.059   2.838  10.574
 5887SOL    HW118413   2.148   2.793  10.560
 5887SOL    HW218414   1.986   2.773  10.555
 5888SOL     OW18415   3.387   2.861   9.500
 5888SOL    HW118416   3.324   2.785   9.513
 5888SOL    HW218417   3.435   2.879   9.586
 5889SOL     OW18418   3.049   3.654  10.926
 5889SOL    HW118419   3.073   3.714  10.850
 5889SOL    HW218420   3.056   3.559  10.896
 5890SOL     OW18421   3.328   3.279  10.263
 5890SOL    HW118422   3.269   3.285  10.343
 5890SOL    HW218423   3.313   3.191  10.217
 5891SOL     OW18424   3.529   3.576   9.882
 5891SOL    HW118425   3.488   3.553   9.794
 5891SOL    HW218426   3.511   3.502   9.947
 5892SOL     OW18427   2.460   2.591   9.580
 5892SOL    HW118428   2.484   2.660   9.512
 5892SOL    HW218429   2.382   2.624   9.634
 5893SOL     OW18430   3.143   2.207  10.254
 5893SOL    HW118431   3.057   2.157  10.241
 5893SOL    HW218432   3.205   2.153  10.310
 5894SOL     OW18433   3.438   3.524   9.617
 5894SOL    HW118434   3.527   3.570   9.620
 5894SOL    HW218435   3.417   3.500   9.522
 5895SOL     OW18436   2.669   2.467  10.775
 5895SOL    HW118437   2.622   2.464  10.864
 5895SOL    HW218438   2.618   2.412  10.709
 5896SOL     OW18439   3.256   2.331  10.984
 5896SOL    HW118440   3.236   2.374  11.072
 5896SOL    HW218441   3.334   2.269  10.993
 5897SOL     OW18442   2.835   2.752  10.882
 5897SOL    HW118443   2.881   2.668  10.853
 5897SOL    HW218444   2.779   2.786  10.807
 5898SOL     OW18445   2.853   2.272  10.552
 5898SOL    HW118446   2.776   2.306  10.606
 5898SOL    HW218447   2.819   2.221  10.473
 5899SOL     OW18448   2.903   2.563   9.739
 5899SOL    HW118449   2.929   2.559   9.835
 5899SOL    HW218450   2.818   2.512   9.725
 5900SOL     OW18451   1.938   2.673  10.099
 5900SOL    HW118452   2.037   2.661  10.108
 5900SOL    HW218453   1.914   2.768  10.120
 5901SOL     OW18454   1.992   3.683  10.881
 5901SOL    HW118455   1.982   3.668  10.980
 5901SOL    HW218456   1.906   3.719  10.845
 5902SOL     OW18457   2.727   2.210   9.505
 5902SOL    HW118458   2.786   2.273   9.456
 5902SOL    HW218459   2.746   2.116   9.476
 5903SOL     OW18460   3.581   2.447  11.141
 5903SOL    HW118461   3.555   2.536  11.105
 5903SOL    HW218462   3.579   2.379  11.068
 5904SOL     OW18463   3.224   3.006   9.855
 5904SOL    HW118464   3.307   2.977   9.807
 5904SOL    HW218465   3.175   3.073   9.799
 5905SOL     OW18466   2.412   2.058  10.195
 5905SOL    HW118467   2.407   2.053  10.295
 5905SOL    HW218468   2.414   2.154  10.166
 5906SOL     OW18469   2.870   3.318   9.787
 5906SOL    HW118470   2.824   3.390   9.735
 5906SOL    HW218471   2.866   3.338   9.885
 5907SOL     OW18472   2.213   3.663  10.163
 5907SOL    HW118473   2.263   3.577  10.169
 5907SOL    HW218474   2.278   3.740  10.160
 5908SOL     OW18475   3.657   2.928  10.183
 5908SOL    HW118476   3.595   2.913  10.107
 5908SOL    HW218477   3.605   2.939  10.268
 5909SOL     OW18478   3.089   3.412  10.816
 5909SOL    HW118479   3.095   3.335  10.880
 5909SOL    HW218480   3.037   3.386  10.736
 5910SOL     OW18481   2.183   2.805   9.552
 5910SOL    HW118482   2.265   2.844   9.510
 5910SOL    HW218483   2.156   2.723   9.503
 5911SOL     OW18484   3.320   2.597  10.038
 5911SOL    HW118485   3.315   2.532  10.113
 5911SOL    HW218486   3.400   2.656  10.051
 5912SOL     OW18487   2.323   3.128  11.037
 5912SOL    HW118488   2.273   3.129  10.951
 5912SOL    HW218489   2.260   3.110  11.113
 5913SOL     OW18490   2.973   3.638   9.547
 5913SOL    HW118491   2.913   3.576   9.597
 5913SOL    HW218492   3.004   3.594   9.462
 5914SOL     OW18493   3.494   3.239   9.391
 5914SOL    HW118494   3.462   3.333   9.381
 5914SOL    HW218495   3.418   3.176   9.379
 5915SOL     OW18496   2.326   3.605   9.633
 5915SOL    HW118497   2.359   3.644   9.719
 5915SOL    HW218498   2.402   3.598   9.568
 5916SOL     OW18499   3.262   1.969   9.736
 5916SOL    HW118500   3.238   1.932   9.646
 5916SOL    HW218501   3.361   1.985   9.740
 5917SOL     OW18502   2.111   3.647  10.551
 5917SOL    HW118503   2.168   3.582  10.601
 5917SOL    HW218504   2.095   3.614  10.458
 5918SOL     OW18505   2.802   3.560  10.214
 5918SOL    HW118506   2.882   3.503  10.235
 5918SOL    HW218507   2.753   3.520  10.137
 5919SOL     OW18508   2.244   2.562   9.790
 5919SOL    HW118509   2.289   2.472   9.787
 5919SOL    HW218510   2.150   2.551   9.823
 5920SOL     OW18511   3.409   2.084  11.039
 5920SOL    HW118512   3.404   2.121  11.131
 5920SOL    HW218513   3.337   2.015  11.027
 5921SOL     OW18514   2.476   1.984   9.427
 5921SOL    HW118515   2.574   1.962   9.434
 5921SOL    HW218516   2.445   1.967   9.334
 5922SOL     OW18517   2.643   2.126  11.059
 5922SOL    HW118518   2.710   2.065  11.102
 5922SOL    HW218519   2.570   2.145  11.124
 5923SOL     OW18520   2.750   3.376  10.505
 5923SOL    HW118521   2.727   3.351  10.411
 5923SOL    HW218522   2.811   3.307  10.544
 5924SOL     OW18523   3.213   2.452  10.743
 5924SOL    HW118524   3.241   2.409  10.828
 5924SOL    HW218525   3.238   2.548  10.744
 5925SOL     OW18526   2.665   3.264  10.234
 5925SOL    HW118527   2.755   3.278  10.192
 5925SOL    HW218528   2.594   3.266  10.163
 5926SOL     OW18529   2.784   2.365  10.209
 5926SOL    HW118530   2.759   2.356  10.113
 5926SOL    HW218531   2.832   2.283  10.240
 5927SOL     OW18532   2.401   1.926   9.822
 5927SOL    HW118533   2.320   1.927   9.880
 5927SOL    HW218534   2.404   2.009   9.767
 5928SOL     OW18535   3.296   3.050   9.351
 5928SOL    HW118536   3.328   2.974   9.408
 5928SOL    HW218537   3.204   3.077   9.381
 5929SOL     OW18538   2.797   2.098   9.790
 5929SOL    HW118539   2.749   2.139   9.712
 5929SOL    HW218540   2.896   2.096   9.771
 5930SOL     OW18541   2.938   2.545  10.774
 5930SOL    HW118542   2.858   2.484  10.777
 5930SOL    HW218543   3.019   2.492  10.750
 5931SOL     OW18544   3.089   3.432  10.103
 5931SOL    HW118545   3.110   3.506  10.038
 5931SOL    HW218546   3.157   3.432  10.176
 5932SOL     OW18547   2.321   3.014  10.051
 5932SOL    HW118548   2.250   2.987  10.116
 5932SOL    HW218549   2.295   2.986   9.958
 5933SOL     OW18550   3.133   3.659   9.901
 5933SOL    HW118551   3.177   3.723   9.837
 5933SOL    HW218552   3.083   3.711   9.971
 5934SOL     OW18553   2.894   2.411   9.326
 5934SOL    HW118554   2.853   2.493   9.287
 5934SOL    HW218555   2.958   2.437   9.399
 5935SOL     OW18556   1.940   2.418  10.696
 5935SOL    HW118557   2.032   2.417  10.655
 5935SOL    HW218558   1.934   2.492  10.763
 5936SOL     OW18559   2.728   2.316   9.952
 5936SOL    HW118560   2.696   2.388   9.890
 5936SOL    HW218561   2.752   2.235   9.899
 5937SOL     OW18562   2.879   1.901  10.063
 5937SOL    HW118563   2.807   1.906   9.994
 5937SOL    HW218564   2.855   1.832  10.132
 5938SOL     OW18565   3.291   3.035  10.177
 5938SOL    HW118566   3.236   2.951  10.170
 5938SOL    HW218567   3.317   3.064  10.085
 5939SOL     OW18568   3.328   2.452  10.302
 5939SOL    HW118569   3.298   2.357  10.309
 5939SOL    HW218570   3.401   2.468  10.368
 5940SOL     OW18571   3.719   2.695   9.687
 5940SOL    HW118572   3.761   2.631   9.751
 5940SOL    HW218573   3.681   2.644   9.609
 5941SOL     OW18574   2.350   3.247   9.484
 5941SOL    HW118575   2.263   3.232   9.531
 5941SOL    HW218576   2.333   3.273   9.389
 5942SOL     OW18577   3.526   3.142   9.967
 5942SOL    HW118578   3.625   3.150   9.981
 5942SOL    HW218579   3.481   3.226   9.998
 5943SOL     OW18580   3.252   2.437   9.388
 5943SOL    HW118581   3.198   2.416   9.469
 5943SOL    HW218582   3.343   2.396   9.397
 5944SOL     OW18583   3.616   3.085  10.898
 5944SOL    HW118584   3.707   3.046  10.885
 5944SOL    HW218585   3.624   3.181  10.922
 5945SOL     OW18586   2.926   3.209  10.650
 5945SOL    HW118587   2.846   3.186  10.705
 5945SOL    HW218588   3.009   3.183  10.699
 5946SOL     OW18589   3.454   3.491  10.935
 5946SOL    HW118590   3.481   3.525  10.845
 5946SOL    HW218591   3.533   3.453  10.981
 5947SOL     OW18592   2.973   3.057  10.410
 5947SOL    HW118593   2.933   3.101  10.491
 5947SOL    HW218594   2.932   3.094  10.327
 5948SOL     OW18595   3.500   2.961  10.389
 5948SOL    HW118596   3.505   3.042  10.448
 5948SOL    HW218597   3.414   2.963  10.338
 5949SOL     OW18598   2.777   1.951  10.712
 5949SOL    HW118599   2.802   1.931  10.617
 5949SOL    HW218600   2.849   2.007  10.754
 5950SOL     OW18601   2.842   2.978  11.029
 5950SOL    HW118602   2.743   2.984  11.039
 5950SOL    HW218603   2.865   2.898  10.973
 5951SOL     OW18604   2.567   2.912   9.678
 5951SOL    HW118605   2.553   2.919   9.777
 5951SOL    HW218606   2.651   2.861   9.660
 5952SOL     OW18607   2.272   2.675  10.561
 5952SOL    HW118608   2.358   2.687  10.611
 5952SOL    HW218609   2.230   2.588  10.588
 5953SOL     OW18610   3.136   2.248  10.572
 5953SOL    HW118611   3.157   2.322  10.636
 5953SOL    HW218612   3.047   2.265  10.529
 5954SOL     OW18613   1.926   3.426  10.641
 5954SOL    HW118614   1.880   3.508  10.607
 5954SOL    HW218615   2.024   3.445  10.650
 5955SOL     OW18616   2.229   2.962   9.811
 5955SOL    HW118617   2.222   3.045   9.755
 5955SOL    HW218618   2.233   2.882   9.751
 5956SOL     OW18619   2.428   2.399  10.175
 5956SOL    HW118620   2.440   2.465  10.101
 5956SOL    HW218621   2.474   2.433  10.258
 5957SOL     OW18622   3.114   3.210   9.698
 5957SOL    HW118623   3.164   3.287   9.738
 5957SOL    HW218624   3.019   3.212   9.730
 5958SOL     OW18625   3.134   3.307  10.452
 5958SOL    HW118626   3.181   3.320  10.539
 5958SOL    HW218627   3.068   3.233  10.461
 5959SOL     OW18628   3.444   2.501   9.782
 5959SOL    HW118629   3.413   2.562   9.855
 5959SOL    HW218630   3.494   2.553   9.713
 5960SOL     OW18631   2.216   3.372  10.639
 5960SOL    HW118632   2.195   3.328  10.552
 5960SOL    HW218633   2.313   3.398  10.642
 5961SOL     OW18634   2.264   2.613  10.908
 5961SOL    HW118635   2.332   2.668  10.861
 5961SOL    HW218636   2.304   2.525  10.935
 5962SOL     OW18637   3.449   2.641  10.980
 5962SOL    HW118638   3.357   2.679  10.975
 5962SOL    HW218639   3.509   2.688  10.915
 5963SOL     OW18640   2.875   1.967  11.080
 5963SOL    HW118641   2.881   2.052  11.028
 5963SOL    HW218642   2.907   1.891  11.023
 5964SOL     OW18643   2.366   1.912  11.050
 5964SOL    HW118644   2.324   1.855  10.980
 5964SOL    HW218645   2.300   1.981  11.082
 5965SOL     OW18646   2.435   2.732  10.339
 5965SOL    HW118647   2.479   2.821  10.330
 5965SOL    HW218648   2.372   2.732  10.416
 5966SOL     OW18649   3.222   2.724  10.355
 5966SOL    HW118650   3.147   2.724  10.289
 5966SOL    HW218651   3.259   2.632  10.364
 5967SOL     OW18652   3.071   2.387   9.585
 5967SOL    HW118653   3.084   2.303   9.639
 5967SOL    HW218654   3.042   2.461   9.645
 5968SOL     OW18655   1.899   3.172  10.592
 5968SOL    HW118656   1.952   3.123  10.660
 5968SOL    HW218657   1.921   3.270  10.597
 5969SOL     OW18658   2.594   2.496  10.374
 5969SOL    HW118659   2.653   2.470  10.298
 5969SOL    HW218660   2.566   2.592  10.363
 5970SOL     OW18661   3.590   2.797  11.164
 5970SOL    HW118662   3.544   2.790  11.075
 5970SOL    HW218663   3.528   2.841  11.230
 5971SOL     OW18664   3.484   2.229   9.684
 5971SOL    HW118665   3.486   2.153   9.748
 5971SOL    HW218666   3.436   2.306   9.724
 5972SOL     OW18667   2.885   2.628  10.276
 5972SOL    HW118668   2.900   2.649  10.372
 5972SOL    HW218669   2.855   2.533  10.267
 5973SOL     OW18670   2.842   3.435  11.010
 5973SOL    HW118671   2.822   3.479  10.922
 5973SOL    HW218672   2.881   3.344  10.994
 5974SOL     OW18673   3.721   3.380  10.915
 5974SOL    HW118674   3.735   3.407  10.820
 5974SOL    HW218675   3.804   3.402  10.968
 5975SOL     OW18676   2.212   2.760  11.114
 5975SOL    HW118677   2.288   2.804  11.162
 5975SOL    HW218678   2.247   2.713  11.032
 5976SOL     OW18679   3.402   2.136   9.435
 5976SOL    HW118680   3.341   2.061   9.458
 5976SOL    HW218681   3.424   2.188   9.518
 5977SOL     OW18682   3.165   2.700   9.352
 5977SOL    HW118683   3.199   2.607   9.367
 5977SOL    HW218684   3.183   2.727   9.257
 5978SOL     OW18685   2.930   3.195  10.159
 5978SOL    HW118686   2.937   3.111  10.104
 5978SOL    HW218687   2.992   3.264  10.123
 5979SOL     OW18688   2.181   2.672  10.259
 5979SOL    HW118689   2.274   2.708  10.264
 5979SOL    HW218690   2.175   2.587  10.311
 5980SOL     OW18691   3.000   2.242  10.988
 5980SOL    HW118692   2.955   2.305  11.052
 5980SOL    HW218693   3.093   2.273  10.971
 5981SOL     OW18694   3.022   2.069  10.787
 5981SOL    HW118695   3.022   2.133  10.864
 5981SOL    HW218696   3.050   2.117  10.704
 5982SOL     OW18697   1.870   3.188   9.510
 5982SOL    HW118698   1.777   3.209   9.479
 5982SOL    HW218699   1.880   3.089   9.523
 5983SOL     OW18700   1.950   3.663  10.237
 5983SOL    HW118701   1.908   3.577  10.210
 5983SOL    HW218702   2.044   3.666  10.203
 5984SOL     OW18703   2.366   3.430  10.220
 5984SOL    HW118704   2.432   3.504  10.229
 5984SOL    HW218705   2.410   3.351  10.178
 5985SOL     OW18706   2.864   2.658  10.548
 5985SOL    HW118707   2.905   2.626  10.634
 5985SOL    HW218708   2.768   2.631  10.545
 5986SOL     OW18709   1.902   2.406  10.424
 5986SOL    HW118710   1.987   2.373  10.383
 5986SOL    HW218711   1.915   2.421  10.522
 5987SOL     OW18712   3.231   2.812  10.970
 5987SOL    HW118713   3.270   2.901  10.990
 5987SOL    HW218714   3.241   2.792  10.873
 5988SOL     OW18715   2.677   2.434   9.635
 5988SOL    HW118716   2.684   2.345   9.589
 5988SOL    HW218717   2.583   2.468   9.627
 5989SOL     OW18718   3.519   2.466  10.516
 5989SOL    HW118719   3.481   2.397  10.578
 5989SOL    HW218720   3.601   2.430  10.472
 5990SOL     OW18721   2.114   3.426  11.054
 5990SOL    HW118722   2.084   3.483  11.130
 5990SOL    HW218723   2.107   3.329  11.080
 5991SOL     OW18724   2.533   2.326  10.579
 5991SOL    HW118725   2.499   2.237  10.549
 5991SOL    HW218726   2.559   2.380  10.499
 5992SOL     OW18727   2.792   3.540  10.775
 5992SOL    HW118728   2.768   3.522  10.680
 5992SOL    HW218729   2.822   3.634  10.785
 5993SOL     OW18730   2.335   2.362   9.501
 5993SOL    HW118731   2.396   2.442   9.505
 5993SOL    HW218732   2.240   2.393   9.508
 5994SOL     OW18733   2.021   2.999  10.776
 5994SOL    HW118734   2.043   2.938  10.852
 5994SOL    HW218735   2.031   2.950  10.690
 5995SOL     OW18736   3.209   2.921  10.544
 5995SOL    HW118737   3.233   2.858  10.470
 5995SOL    HW218738   3.119   2.961  10.526
 5996SOL     OW18739   3.164   2.717   9.619
 5996SOL    HW118740   3.078   2.686   9.661
 5996SOL    HW218741   3.160   2.703   9.520
 5997SOL     OW18742   3.621   3.609  10.464
 5997SOL    HW118743   3.682   3.639  10.391
 5997SOL    HW218744   3.583   3.520  10.442
 5998SOL     OW18745   3.114   3.593  10.438
 5998SOL    HW118746   3.198   3.598  10.384
 5998SOL    HW218747   3.091   3.497  10.456
 5999SOL     OW18748   1.945   3.120  10.332
 5999SOL    HW118749   1.940   3.119  10.432
 5999SOL    HW218750   1.862   3.079  10.294
 6000SOL     OW18751   2.550   3.524  11.026
 6000SOL    HW118752   2.494   3.605  11.035
 6000SOL    HW218753   2.602   3.528  10.940
 6001SOL     OW18754   3.588   1.997   9.833
 6001SOL    HW118755   3.661   1.980   9.766
 6001SOL    HW218756   3.557   1.910   9.871
 6002SOL     OW18757   3.250   3.435   9.787
 6002SOL    HW118758   3.317   3.447   9.713
 6002SOL    HW218759   3.210   3.524   9.810
 6003SOL     OW18760   1.992   3.656  11.161
 6003SOL    HW118761   1.951   3.582  11.214
 6003SOL    HW218762   2.056   3.707  11.219
 6004SOL     OW18763   3.142   2.789   9.982
 6004SOL    HW118764   3.202   2.708   9.984
 6004SOL    HW218765   3.182   2.858   9.922
 6005SOL     OW18766   2.692   3.135  10.732
 6005SOL    HW118767   2.687   3.168  10.827
 6005SOL    HW218768   2.606   3.154  10.686
 6006SOL     OW18769   2.534   3.478   9.464
 6006SOL    HW118770   2.543   3.488   9.365
 6006SOL    HW218771   2.494   3.389   9.485
 6007SOL     OW18772   3.512   3.582  10.704
 6007SOL    HW118773   3.565   3.592  10.620
 6007SOL    HW218774   3.485   3.672  10.738
 6008SOL     OW18775   3.703   2.037  10.273
 6008SOL    HW118776   3.742   1.952  10.237
 6008SOL    HW218777   3.605   2.039  10.254
 6009SOL     OW18778   3.056   3.474   9.341
 6009SOL    HW118779   3.062   3.381   9.378
 6009SOL    HW218780   2.997   3.474   9.261
 6010SOL     OW18781   2.684   2.864  10.682
 6010SOL    HW118782   2.724   2.863  10.590
 6010SOL    HW218783   2.694   2.956  10.722
 6011SOL     OW18784   2.778   2.772   9.601
 6011SOL    HW118785   2.841   2.810   9.533
 6011SOL    HW218786   2.818   2.689   9.640
 6012SOL     OW18787   3.366   3.469   9.354
 6012SOL    HW118788   3.274   3.506   9.361
 6012SOL    HW218789   3.404   3.489   9.264
 6013SOL     OW18790   2.234   3.150  10.800
 6013SOL    HW118791   2.221   3.243  10.766
 6013SOL    HW218792   2.150   3.098  10.787
 6014SOL     OW18793   3.476   3.154  10.599
 6014SOL    HW118794   3.536   3.157  10.679
 6014SOL    HW218795   3.401   3.218  10.612
 6015SOL     OW18796   2.901   2.960  10.006
 6015SOL    HW118797   2.831   2.913  10.060
 6015SOL    HW218798   2.960   2.892   9.963
 6016SOL     OW18799   2.876   2.098  10.281
 6016SOL    HW118800   2.868   2.062  10.188
 6016SOL    HW218801   2.874   2.022  10.346
 6017SOL     OW18802   2.452   3.349   9.801
 6017SOL    HW118803   2.494   3.291   9.731
 6017SOL    HW218804   2.408   3.428   9.757
 6018SOL     OW18805   3.571   2.247  10.691
 6018SOL    HW118806   3.644   2.316  10.695
 6018SOL    HW218807   3.599   2.172  10.632
 6019SOL     OW18808   2.117   3.210   9.600
 6019SOL    HW118809   2.021   3.211   9.573
 6019SOL    HW218810   2.129   3.263   9.684
 6020SOL     OW18811   1.967   2.875  11.036
 6020SOL    HW118812   1.890   2.842  11.090
 6020SOL    HW218813   2.052   2.845  11.078
 6021SOL     OW18814   2.534   2.065  10.799
 6021SOL    HW118815   2.624   2.049  10.759
 6021SOL    HW218816   2.542   2.070  10.898
 6022SOL     OW18817   1.937   2.207   9.343
 6022SOL    HW118818   1.845   2.179   9.314
 6022SOL    HW218819   1.968   2.284   9.287
 6023SOL     OW18820   3.302   2.718  10.708
 6023SOL    HW118821   3.245   2.770  10.645
 6023SOL    HW218822   3.398   2.730  10.684
 6024SOL     OW18823   3.045   3.197   9.429
 6024SOL    HW118824   2.946   3.186   9.431
 6024SOL    HW218825   3.079   3.212   9.522
 6025SOL     OW18826   2.475   2.704  10.741
 6025SOL    HW118827   2.531   2.785  10.724
 6025SOL    HW218828   2.534   2.624  10.744
 6026SOL     OW18829   3.355   3.629  10.269
 6026SOL    HW118830   3.388   3.693  10.200
 6026SOL    HW218831   3.421   3.623  10.344
 6027SOL     OW18832   2.578   2.427  11.018
 6027SOL    HW118833   2.597   2.492  11.092
 6027SOL    HW218834   2.638   2.347  11.027
 6028SOL     OW18835   3.312   3.082  10.943
 6028SOL    HW118836   3.303   3.072  11.042
 6028SOL    HW218837   3.408   3.075  10.917
 6029SOL     OW18838   2.252   3.603  10.870
 6029SOL    HW118839   2.161   3.644  10.868
 6029SOL    HW218840   2.245   3.509  10.902
 6030SOL     OW18841   3.536   2.745  10.564
 6030SOL    HW118842   3.509   2.656  10.527
 6030SOL    HW218843   3.537   2.813  10.491
 6031SOL     OW18844   3.087   2.187   9.759
 6031SOL    HW118845   3.152   2.113   9.748
 6031SOL    HW218846   3.107   2.237   9.843
 6032SOL     OW18847   2.456   2.607   9.962
 6032SOL    HW118848   2.506   2.692   9.943
 6032SOL    HW218849   2.368   2.609   9.914
 6033SOL     OW18850   3.639   2.204  10.952
 6033SOL    HW118851   3.622   2.235  10.858
 6033SOL    HW218852   3.555   2.167  10.990
 6034SOL     OW18853   3.592   2.796  10.827
 6034SOL    HW118854   3.630   2.887  10.842
 6034SOL    HW218855   3.584   2.779  10.728
 6035SOL     OW18856   2.721   3.236   9.326
 6035SOL    HW118857   2.675   3.251   9.414
 6035SOL    HW218858   2.765   3.321   9.296
 6036SOL     OW18859   2.523   3.652  10.263
 6036SOL    HW118860   2.477   3.740  10.250
 6036SOL    HW218861   2.622   3.664  10.256
 6037SOL     OW18862   2.721   2.818  10.171
 6037SOL    HW118863   2.775   2.749  10.219
 6037SOL    HW218864   2.689   2.887  10.237
 6038SOL     OW18865   2.945   2.846   9.397
 6038SOL    HW118866   2.922   2.899   9.315
 6038SOL    HW218867   3.026   2.790   9.378
 6039SOL     OW18868   3.723   3.431  10.161
 6039SOL    HW118869   3.652   3.419  10.091
 6039SOL    HW218870   3.724   3.352  10.221
 6040SOL     OW18871   2.083   3.176  11.154
 6040SOL    HW118872   2.018   3.103  11.133
 6040SOL    HW218873   2.087   3.190  11.252
 6041SOL     OW18874   1.941   3.102   9.963
 6041SOL    HW118875   1.940   3.055  10.051
 6041SOL    HW218876   2.023   3.074   9.912
 6042SOL     OW18877   2.534   3.253  10.934
 6042SOL    HW118878   2.456   3.203  10.972
 6042SOL    HW218879   2.531   3.348  10.965
 6043SOL     OW18880   3.686   2.054  10.537
 6043SOL    HW118881   3.682   1.964  10.581
 6043SOL    HW218882   3.689   2.043  10.438
 6044SOL     OW18883   3.567   3.349  10.414
 6044SOL    HW118884   3.474   3.324  10.387
 6044SOL    HW218885   3.593   3.299  10.496
 6045SOL     OW18886   2.179   2.409  10.590
 6045SOL    HW118887   2.217   2.350  10.662
 6045SOL    HW218888   2.219   2.383  10.502
 6046SOL     OW18889   2.674   3.448   9.997
 6046SOL    HW118890   2.706   3.458   9.903
 6046SOL    HW218891   2.595   3.386   9.999
 6047SOL     OW18892   3.286   2.076  10.422
 6047SOL    HW118893   3.338   2.011  10.477
 6047SOL    HW218894   3.237   2.139  10.483
 6048SOL     OW18895   2.863   1.896  10.464
 6048SOL    HW118896   2.800   1.824  10.433
 6048SOL    HW218897   2.956   1.860  10.464
 6049SOL     OW18898   2.632   3.192   9.611
 6049SOL    HW118899   2.586   3.105   9.628
 6049SOL    HW218900   2.723   3.189   9.652
 6050SOL     OW18901   2.480   3.429  10.594
 6050SOL    HW118902   2.475   3.511  10.651
 6050SOL    HW218903   2.569   3.426  10.549
 6051SOL     OW18904   3.214   1.914   9.478
 6051SOL    HW118905   3.249   1.873   9.394
 6051SOL    HW218906   3.124   1.876   9.498
 6052SOL     OW18907   3.162   2.315  10.001
 6052SOL    HW118908   3.103   2.395  10.005
 6052SOL    HW218909   3.177   2.280  10.094
 6053SOL     OW18910   3.455   2.083  10.192
 6053SOL    HW118911   3.371   2.082  10.246
 6053SOL    HW218912   3.457   2.166  10.136
 6054SOL     OW18913   1.901   2.939   9.610
 6054SOL    HW118914   2.000   2.928   9.601
 6054SOL    HW218915   1.861   2.853   9.642
 6055SOL     OW18916   2.737   3.508   9.647
 6055SOL    HW118917   2.660   3.473   9.593
 6055SOL    HW218918   2.705   3.579   9.709
 6056SOL     OW18919   2.092   2.490  11.285
 6056SOL    HW118920   1.999   2.488  11.322
 6056SOL    HW218921   2.093   2.451  11.193
 6057SOL     OW18922   1.881   2.230  11.819
 6057SOL    HW118923   1.799   2.273  11.858
 6057SOL    HW218924   1.853   2.157  11.756
 6058SOL     OW18925   2.431   3.137  12.337
 6058SOL    HW118926   2.338   3.130  12.300
 6058SOL    HW218927   2.442   3.226  12.381
 6059SOL     OW18928   3.417   3.373  11.875
 6059SOL    HW118929   3.360   3.357  11.956
 6059SOL    HW218930   3.358   3.383  11.795
 6060SOL     OW18931   2.997   2.565  11.889
 6060SOL    HW118932   3.054   2.643  11.864
 6060SOL    HW218933   2.937   2.591  11.965
 6061SOL     OW18934   3.617   2.469  11.403
 6061SOL    HW118935   3.605   2.456  11.304
 6061SOL    HW218936   3.587   2.388  11.452
 6062SOL     OW18937   2.630   3.006  12.195
 6062SOL    HW118938   2.552   3.023  12.255
 6062SOL    HW218939   2.664   3.093  12.159
 6063SOL     OW18940   2.712   2.660  12.995
 6063SOL    HW118941   2.708   2.736  13.060
 6063SOL    HW218942   2.734   2.696  12.904
 6064SOL     OW18943   2.547   2.874  11.837
 6064SOL    HW118944   2.616   2.858  11.907
 6064SOL    HW218945   2.474   2.931  11.875
 6065SOL     OW18946   2.548   3.023  12.975
 6065SOL    HW118947   2.608   3.102  12.989
 6065SOL    HW218948   2.462   3.054  12.934
 6066SOL     OW18949   2.197   3.297  12.233
 6066SOL    HW118950   2.119   3.266  12.180
 6066SOL    HW218951   2.255   3.355  12.176
 6067SOL     OW18952   3.322   3.367  12.511
 6067SOL    HW118953   3.346   3.461  12.537
 6067SOL    HW218954   3.306   3.313  12.593
 6068SOL     OW18955   3.465   2.309  11.909
 6068SOL    HW118956   3.391   2.355  11.859
 6068SOL    HW218957   3.516   2.377  11.962
 6069SOL     OW18958   2.093   3.575  11.655
 6069SOL    HW118959   2.127   3.652  11.709
 6069SOL    HW218960   2.137   3.575  11.565
 6070SOL     OW18961   2.989   3.203  12.862
 6070SOL    HW118962   3.036   3.203  12.950
 6070SOL    HW218963   2.941   3.116  12.851
 6071SOL     OW18964   2.092   3.296  11.710
 6071SOL    HW118965   2.066   3.392  11.710
 6071SOL    HW218966   2.021   3.242  11.755
 6072SOL     OW18967   2.102   2.953  12.058
 6072SOL    HW118968   2.116   2.869  12.110
 6072SOL    HW218969   2.047   3.017  12.113
 6073SOL     OW18970   2.482   3.648  12.611
 6073SOL    HW118971   2.390   3.631  12.646
 6073SOL    HW218972   2.510   3.740  12.637
 6074SOL     OW18973   2.468   2.826  11.295
 6074SOL    HW118974   2.475   2.910  11.241
 6074SOL    HW218975   2.514   2.839  11.383
 6075SOL     OW18976   3.456   1.976  12.652
 6075SOL    HW118977   3.438   2.043  12.580
 6075SOL    HW218978   3.453   2.022  12.741
 6076SOL     OW18979   1.984   2.505  11.735
 6076SOL    HW118980   1.939   2.417  11.752
 6076SOL    HW218981   1.983   2.559  11.819
 6077SOL     OW18982   3.704   3.629  11.531
 6077SOL    HW118983   3.758   3.600  11.611
 6077SOL    HW218984   3.734   3.719  11.502
 6078SOL     OW18985   1.889   3.458  11.289
 6078SOL    HW118986   1.870   3.362  11.310
 6078SOL    HW218987   1.856   3.516  11.364
 6079SOL     OW18988   3.551   2.784  11.784
 6079SOL    HW118989   3.646   2.755  11.792
 6079SOL    HW218990   3.543   2.849  11.709
 6080SOL     OW18991   3.503   2.970  11.604
 6080SOL    HW118992   3.589   2.972  11.552
 6080SOL    HW218993   3.517   3.017  11.692
 6081SOL     OW18994   1.975   2.599  12.769
 6081SOL    HW118995   2.063   2.586  12.814
 6081SOL    HW218996   1.962   2.696  12.747
 6082SOL     OW18997   2.475   3.227  11.898
 6082SOL    HW118998   2.426   3.140  11.907
 6082SOL    HW218999   2.452   3.270  11.811
 6083SOL     OW19000   3.155   3.090  12.595
 6083SOL    HW119001   3.192   3.017  12.537
 6083SOL    HW219002   3.207   3.095  12.680
 6084SOL     OW19003   2.671   1.866  11.674
 6084SOL    HW119004   2.711   1.957  11.665
 6084SOL    HW219005   2.571   1.874  11.680
 6085SOL     OW19006   2.059   2.838  12.436
 6085SOL    HW119007   2.148   2.793  12.422
 6085SOL    HW219008   1.986   2.773  12.417
 6086SOL     OW19009   3.387   2.861  11.362
 6086SOL    HW119010   3.324   2.785  11.375
 6086SOL    HW219011   3.435   2.879  11.448
 6087SOL     OW19012   3.049   3.654  12.788
 6087SOL    HW119013   3.073   3.714  12.712
 6087SOL    HW219014   3.056   3.559  12.758
 6088SOL     OW19015   3.328   3.279  12.125
 6088SOL    HW119016   3.269   3.285  12.205
 6088SOL    HW219017   3.313   3.191  12.079
 6089SOL     OW19018   3.529   3.576  11.744
 6089SOL    HW119019   3.488   3.553  11.656
 6089SOL    HW219020   3.511   3.502  11.809
 6090SOL     OW19021   2.460   2.591  11.442
 6090SOL    HW119022   2.484   2.660  11.374
 6090SOL    HW219023   2.382   2.624  11.496
 6091SOL     OW19024   3.143   2.207  12.116
 6091SOL    HW119025   3.057   2.157  12.103
 6091SOL    HW219026   3.205   2.153  12.172
 6092SOL     OW19027   3.438   3.524  11.479
 6092SOL    HW119028   3.527   3.570  11.482
 6092SOL    HW219029   3.417   3.500  11.384
 6093SOL     OW19030   2.669   2.467  12.637
 6093SOL    HW119031   2.622   2.464  12.726
 6093SOL    HW219032   2.618   2.412  12.571
 6094SOL     OW19033   3.256   2.331  12.846
 6094SOL    HW119034   3.236   2.374  12.934
 6094SOL    HW219035   3.334   2.269  12.855
 6095SOL     OW19036   2.835   2.752  12.744
 6095SOL    HW119037   2.881   2.668  12.715
 6095SOL    HW219038   2.779   2.786  12.669
 6096SOL     OW19039   2.853   2.272  12.414
 6096SOL    HW119040   2.776   2.306  12.468
 6096SOL    HW219041   2.819   2.221  12.335
 6097SOL     OW19042   2.903   2.563  11.601
 6097SOL    HW119043   2.929   2.559  11.697
 6097SOL    HW219044   2.818   2.512  11.587
 6098SOL     OW19045   1.938   2.673  11.961
 6098SOL    HW119046   2.037   2.661  11.970
 6098SOL    HW219047   1.914   2.768  11.982
 6099SOL     OW19048   1.992   3.683  12.743
 6099SOL    HW119049   1.982   3.668  12.842
 6099SOL    HW219050   1.906   3.719  12.707
 6100SOL     OW19051   2.727   2.210  11.367
 6100SOL    HW119052   2.786   2.273  11.318
 6100SOL    HW219053   2.746   2.116  11.338
 6101SOL     OW19054   3.581   2.447  13.003
 6101SOL    HW119055   3.555   2.536  12.967
 6101SOL    HW219056   3.579   2.379  12.930
 6102SOL     OW19057   3.224   3.006  11.717
 6102SOL    HW119058   3.307   2.977  11.669
 6102SOL    HW219059   3.175   3.073  11.661
 6103SOL     OW19060   2.412   2.058  12.057
 6103SOL    HW119061   2.407   2.053  12.157
 6103SOL    HW219062   2.414   2.154  12.028
 6104SOL     OW19063   2.870   3.318  11.649
 6104SOL    HW119064   2.824   3.390  11.597
 6104SOL    HW219065   2.866   3.338  11.747
 6105SOL     OW19066   2.213   3.663  12.025
 6105SOL    HW119067   2.263   3.577  12.031
 6105SOL    HW219068   2.278   3.740  12.022
 6106SOL     OW19069   3.657   2.928  12.045
 6106SOL    HW119070   3.595   2.913  11.969
 6106SOL    HW219071   3.605   2.939  12.130
 6107SOL     OW19072   3.089   3.412  12.678
 6107SOL    HW119073   3.095   3.335  12.742
 6107SOL    HW219074   3.037   3.386  12.598
 6108SOL     OW19075   2.183   2.805  11.414
 6108SOL    HW119076   2.265   2.844  11.372
 6108SOL    HW219077   2.156   2.723  11.365
 6109SOL     OW19078   3.320   2.597  11.900
 6109SOL    HW119079   3.315   2.532  11.975
 6109SOL    HW219080   3.400   2.656  11.913
 6110SOL     OW19081   2.323   3.128  12.899
 6110SOL    HW119082   2.273   3.129  12.813
 6110SOL    HW219083   2.260   3.110  12.975
 6111SOL     OW19084   2.973   3.638  11.409
 6111SOL    HW119085   2.913   3.576  11.459
 6111SOL    HW219086   3.004   3.594  11.324
 6112SOL     OW19087   3.494   3.239  11.253
 6112SOL    HW119088   3.462   3.333  11.243
 6112SOL    HW219089   3.418   3.176  11.241
 6113SOL     OW19090   2.326   3.605  11.495
 6113SOL    HW119091   2.359   3.644  11.581
 6113SOL    HW219092   2.402   3.598  11.430
 6114SOL     OW19093   3.262   1.969  11.598
 6114SOL    HW119094   3.238   1.932  11.508
 6114SOL    HW219095   3.361   1.985  11.602
 6115SOL     OW19096   2.111   3.647  12.413
 6115SOL    HW119097   2.168   3.582  12.463
 6115SOL    HW219098   2.095   3.614  12.320
 6116SOL     OW19099   2.802   3.560  12.076
 6116SOL    HW119100   2.882   3.503  12.097
 6116SOL    HW219101   2.753   3.520  11.999
 6117SOL     OW19102   2.244   2.562  11.652
 6117SOL    HW119103   2.289   2.472  11.649
 6117SOL    HW219104   2.150   2.551  11.685
 6118SOL     OW19105   3.409   2.084  12.901
 6118SOL    HW119106   3.404   2.121  12.993
 6118SOL    HW219107   3.337   2.015  12.889
 6119SOL     OW19108   2.476   1.984  11.289
 6119SOL    HW119109   2.574   1.962  11.296
 6119SOL    HW219110   2.445   1.967  11.196
 6120SOL     OW19111   2.643   2.126  12.921
 6120SOL    HW119112   2.710   2.065  12.964
 6120SOL    HW219113   2.570   2.145  12.986
 6121SOL     OW19114   2.750   3.376  12.367
 6121SOL    HW119115   2.727   3.351  12.273
 6121SOL    HW219116   2.811   3.307  12.406
 6122SOL     OW19117   3.213   2.452  12.605
 6122SOL    HW119118   3.241   2.409  12.690
 6122SOL    HW219119   3.238   2.548  12.606
 6123SOL     OW19120   2.665   3.264  12.096
 6123SOL    HW119121   2.755   3.278  12.054
 6123SOL    HW219122   2.594   3.266  12.025
 6124SOL     OW19123   2.784   2.365  12.071
 6124SOL    HW119124   2.759   2.356  11.975
 6124SOL    HW219125   2.832   2.283  12.102
 6125SOL     OW19126   2.401   1.926  11.684
 6125SOL    HW119127   2.320   1.927  11.742
 6125SOL    HW219128   2.404   2.009  11.629
 6126SOL     OW19129   3.296   3.050  11.213
 6126SOL    HW119130   3.328   2.974  11.270
 6126SOL    HW219131   3.204   3.077  11.243
 6127SOL     OW19132   2.797   2.098  11.652
 6127SOL    HW119133   2.749   2.139  11.574
 6127SOL    HW219134   2.896   2.096  11.633
 6128SOL     OW19135   2.938   2.545  12.636
 6128SOL    HW119136   2.858   2.484  12.639
 6128SOL    HW219137   3.019   2.492  12.612
 6129SOL     OW19138   3.089   3.432  11.965
 6129SOL    HW119139   3.110   3.506  11.900
 6129SOL    HW219140   3.157   3.432  12.038
 6130SOL     OW19141   2.321   3.014  11.913
 6130SOL    HW119142   2.250   2.987  11.978
 6130SOL    HW219143   2.295   2.986  11.820
 6131SOL     OW19144   3.133   3.659  11.763
 6131SOL    HW119145   3.177   3.723  11.699
 6131SOL    HW219146   3.083   3.711  11.833
 6132SOL     OW19147   2.894   2.411  11.188
 6132SOL    HW119148   2.853   2.493  11.149
 6132SOL    HW219149   2.958   2.437  11.261
 6133SOL     OW19150   1.940   2.418  12.558
 6133SOL    HW119151   2.032   2.417  12.517
 6133SOL    HW219152   1.934   2.492  12.625
 6134SOL     OW19153   2.728   2.316  11.814
 6134SOL    HW119154   2.696   2.388  11.752
 6134SOL    HW219155   2.752   2.235  11.761
 6135SOL     OW19156   2.879   1.901  11.925
 6135SOL    HW119157   2.807   1.906  11.856
 6135SOL    HW219158   2.855   1.832  11.994
 6136SOL     OW19159   3.291   3.035  12.039
 6136SOL    HW119160   3.236   2.951  12.032
 6136SOL    HW219161   3.317   3.064  11.947
 6137SOL     OW19162   3.328   2.452  12.164
 6137SOL    HW119163   3.298   2.357  12.171
 6137SOL    HW219164   3.401   2.468  12.230
 6138SOL     OW19165   3.719   2.695  11.549
 6138SOL    HW119166   3.761   2.631  11.613
 6138SOL    HW219167   3.681   2.644  11.471
 6139SOL     OW19168   2.350   3.247  11.346
 6139SOL    HW119169   2.263   3.232  11.393
 6139SOL    HW219170   2.333   3.273  11.251
 6140SOL     OW19171   3.526   3.142  11.829
 6140SOL    HW119172   3.625   3.150  11.843
 6140SOL    HW219173   3.481   3.226  11.860
 6141SOL     OW19174   3.252   2.437  11.250
 6141SOL    HW119175   3.198   2.416  11.331
 6141SOL    HW219176   3.343   2.396  11.259
 6142SOL     OW19177   3.616   3.085  12.760
 6142SOL    HW119178   3.707   3.046  12.747
 6142SOL    HW219179   3.624   3.181  12.784
 6143SOL     OW19180   2.926   3.209  12.512
 6143SOL    HW119181   2.846   3.186  12.567
 6143SOL    HW219182   3.009   3.183  12.561
 6144SOL     OW19183   3.454   3.491  12.797
 6144SOL    HW119184   3.481   3.525  12.707
 6144SOL    HW219185   3.533   3.453  12.843
 6145SOL     OW19186   2.973   3.057  12.272
 6145SOL    HW119187   2.933   3.101  12.353
 6145SOL    HW219188   2.932   3.094  12.189
 6146SOL     OW19189   3.500   2.961  12.251
 6146SOL    HW119190   3.505   3.042  12.310
 6146SOL    HW219191   3.414   2.963  12.200
 6147SOL     OW19192   2.777   1.951  12.574
 6147SOL    HW119193   2.802   1.931  12.479
 6147SOL    HW219194   2.849   2.007  12.616
 6148SOL     OW19195   2.842   2.978  12.891
 6148SOL    HW119196   2.743   2.984  12.901
 6148SOL    HW219197   2.865   2.898  12.835
 6149SOL     OW19198   2.567   2.912  11.540
 6149SOL    HW119199   2.553   2.919  11.639
 6149SOL    HW219200   2.651   2.861  11.522
 6150SOL     OW19201   2.272   2.675  12.423
 6150SOL    HW119202   2.358   2.687  12.473
 6150SOL    HW219203   2.230   2.588  12.450
 6151SOL     OW19204   3.136   2.248  12.434
 6151SOL    HW119205   3.157   2.322  12.498
 6151SOL    HW219206   3.047   2.265  12.391
 6152SOL     OW19207   1.926   3.426  12.503
 6152SOL    HW119208   1.880   3.508  12.469
 6152SOL    HW219209   2.024   3.445  12.512
 6153SOL     OW19210   2.229   2.962  11.673
 6153SOL    HW119211   2.222   3.045  11.617
 6153SOL    HW219212   2.233   2.882  11.613
 6154SOL     OW19213   2.428   2.399  12.037
 6154SOL    HW119214   2.440   2.465  11.963
 6154SOL    HW219215   2.474   2.433  12.120
 6155SOL     OW19216   3.114   3.210  11.560
 6155SOL    HW119217   3.164   3.287  11.600
 6155SOL    HW219218   3.019   3.212  11.592
 6156SOL     OW19219   3.134   3.307  12.314
 6156SOL    HW119220   3.181   3.320  12.401
 6156SOL    HW219221   3.068   3.233  12.323
 6157SOL     OW19222   3.444   2.501  11.644
 6157SOL    HW119223   3.413   2.562  11.717
 6157SOL    HW219224   3.494   2.553  11.575
 6158SOL     OW19225   2.216   3.372  12.501
 6158SOL    HW119226   2.195   3.328  12.414
 6158SOL    HW219227   2.313   3.398  12.504
 6159SOL     OW19228   2.264   2.613  12.770
 6159SOL    HW119229   2.332   2.668  12.723
 6159SOL    HW219230   2.304   2.525  12.797
 6160SOL     OW19231   3.449   2.641  12.842
 6160SOL    HW119232   3.357   2.679  12.837
 6160SOL    HW219233   3.509   2.688  12.777
 6161SOL     OW19234   2.875   1.967  12.942
 6161SOL    HW119235   2.881   2.052  12.890
 6161SOL    HW219236   2.907   1.891  12.885
 6162SOL     OW19237   2.366   1.912  12.912
 6162SOL    HW119238   2.324   1.855  12.842
 6162SOL    HW219239   2.300   1.981  12.944
 6163SOL     OW19240   2.435   2.732  12.201
 6163SOL    HW119241   2.479   2.821  12.192
 6163SOL    HW219242   2.372   2.732  12.278
 6164SOL     OW19243   3.222   2.724  12.217
 6164SOL    HW119244   3.147   2.724  12.151
 6164SOL    HW219245   3.259   2.632  12.226
 6165SOL     OW19246   3.071   2.387  11.447
 6165SOL    HW119247   3.084   2.303  11.501
 6165SOL    HW219248   3.042   2.461  11.507
 6166SOL     OW19249   1.899   3.172  12.454
 6166SOL    HW119250   1.952   3.123  12.522
 6166SOL    HW219251   1.921   3.270  12.459
 6167SOL     OW19252   2.594   2.496  12.236
 6167SOL    HW119253   2.653   2.470  12.160
 6167SOL    HW219254   2.566   2.592  12.225
 6168SOL     OW19255   3.590   2.797  13.026
 6168SOL    HW119256   3.544   2.790  12.937
 6168SOL    HW219257   3.528   2.841  13.092
 6169SOL     OW19258   3.484   2.229  11.546
 6169SOL    HW119259   3.486   2.153  11.610
 6169SOL    HW219260   3.436   2.306  11.586
 6170SOL     OW19261   2.885   2.628  12.138
 6170SOL    HW119262   2.900   2.649  12.234
 6170SOL    HW219263   2.855   2.533  12.129
 6171SOL     OW19264   2.842   3.435  12.872
 6171SOL    HW119265   2.822   3.479  12.784
 6171SOL    HW219266   2.881   3.344  12.856
 6172SOL     OW19267   3.721   3.380  12.777
 6172SOL    HW119268   3.735   3.407  12.682
 6172SOL    HW219269   3.804   3.402  12.830
 6173SOL     OW19270   2.212   2.760  12.976
 6173SOL    HW119271   2.288   2.804  13.024
 6173SOL    HW219272   2.247   2.713  12.894
 6174SOL     OW19273   3.402   2.136  11.297
 6174SOL    HW119274   3.341   2.061  11.320
 6174SOL    HW219275   3.424   2.188  11.380
 6175SOL     OW19276   3.165   2.700  11.214
 6175SOL    HW119277   3.199   2.607  11.229
 6175SOL    HW219278   3.183   2.727  11.119
 6176SOL     OW19279   2.930   3.195  12.021
 6176SOL    HW119280   2.937   3.111  11.966
 6176SOL    HW219281   2.992   3.264  11.985
 6177SOL     OW19282   2.181   2.672  12.121
 6177SOL    HW119283   2.274   2.708  12.126
 6177SOL    HW219284   2.175   2.587  12.173
 6178SOL     OW19285   3.000   2.242  12.850
 6178SOL    HW119286   2.955   2.305  12.914
 6178SOL    HW219287   3.093   2.273  12.833
 6179SOL     OW19288   3.022   2.069  12.649
 6179SOL    HW119289   3.022   2.133  12.726
 6179SOL    HW219290   3.050   2.117  12.566
 6180SOL     OW19291   1.870   3.188  11.372
 6180SOL    HW119292   1.777   3.209  11.341
 6180SOL    HW219293   1.880   3.089  11.385
 6181SOL     OW19294   1.950   3.663  12.099
 6181SOL    HW119295   1.908   3.577  12.072
 6181SOL    HW219296   2.044   3.666  12.065
 6182SOL     OW19297   2.366   3.430  12.082
 6182SOL    HW119298   2.432   3.504  12.091
 6182SOL    HW219299   2.410   3.351  12.040
 6183SOL     OW19300   2.864   2.658  12.410
 6183SOL    HW119301   2.905   2.626  12.496
 6183SOL    HW219302   2.768   2.631  12.407
 6184SOL     OW19303   1.902   2.406  12.286
 6184SOL    HW119304   1.987   2.373  12.245
 6184SOL    HW219305   1.915   2.421  12.384
 6185SOL     OW19306   3.231   2.812  12.832
 6185SOL    HW119307   3.270   2.901  12.852
 6185SOL    HW219308   3.241   2.792  12.735
 6186SOL     OW19309   2.677   2.434  11.497
 6186SOL    HW119310   2.684   2.345  11.451
 6186SOL    HW219311   2.583   2.468  11.489
 6187SOL     OW19312   3.519   2.466  12.378
 6187SOL    HW119313   3.481   2.397  12.440
 6187SOL    HW219314   3.601   2.430  12.334
 6188SOL     OW19315   2.114   3.426  12.916
 6188SOL    HW119316   2.084   3.483  12.992
 6188SOL    HW219317   2.107   3.329  12.942
 6189SOL     OW19318   2.533   2.326  12.441
 6189SOL    HW119319   2.499   2.237  12.411
 6189SOL    HW219320   2.559   2.380  12.361
 6190SOL     OW19321   2.792   3.540  12.637
 6190SOL    HW119322   2.768   3.522  12.542
 6190SOL    HW219323   2.822   3.634  12.647
 6191SOL     OW19324   2.335   2.362  11.363
 6191SOL    HW119325   2.396   2.442  11.367
 6191SOL    HW219326   2.240   2.393  11.370
 6192SOL     OW19327   2.021   2.999  12.638
 6192SOL    HW119328   2.043   2.938  12.714
 6192SOL    HW219329   2.031   2.950  12.552
 6193SOL     OW19330   3.209   2.921  12.406
 6193SOL    HW119331   3.233   2.858  12.332
 6193SOL    HW219332   3.119   2.961  12.388
 6194SOL     OW19333   3.164   2.717  11.481
 6194SOL    HW119334   3.078   2.686  11.523
 6194SOL    HW219335   3.160   2.703  11.382
 6195SOL     OW19336   3.621   3.609  12.326
 6195SOL    HW119337   3.682   3.639  12.253
 6195SOL    HW219338   3.583   3.520  12.304
 6196SOL     OW19339   3.114   3.593  12.300
 6196SOL    HW119340   3.198   3.598  12.246
 6196SOL    HW219341   3.091   3.497  12.318
 6197SOL     OW19342   1.945   3.120  12.194
 6197SOL    HW119343   1.940   3.119  12.294
 6197SOL    HW219344   1.862   3.079  12.156
 6198SOL     OW19345   2.550   3.524  12.888
 6198SOL    HW119346   2.494   3.605  12.897
 6198SOL    HW219347   2.602   3.528  12.802
 6199SOL     OW19348   3.588   1.997  11.695
 6199SOL    HW119349   3.661   1.980  11.628
 6199SOL    HW219350   3.557   1.910  11.733
 6200SOL     OW19351   3.250   3.435  11.649
 6200SOL    HW119352   3.317   3.447  11.575
 6200SOL    HW219353   3.210   3.524  11.672
 6201SOL     OW19354   1.992   3.656  13.023
 6201SOL    HW119355   1.951   3.582  13.076
 6201SOL    HW219356   2.056   3.707  13.081
 6202SOL     OW19357   3.142   2.789  11.844
 6202SOL    HW119358   3.202   2.708  11.846
 6202SOL    HW219359   3.182   2.858  11.784
 6203SOL     OW19360   2.692   3.135  12.594
 6203SOL    HW119361   2.687   3.168  12.689
 6203SOL    HW219362   2.606   3.154  12.548
 6204SOL     OW19363   2.534   3.478  11.326
 6204SOL    HW119364   2.543   3.488  11.227
 6204SOL    HW219365   2.494   3.389  11.347
 6205SOL     OW19366   3.512   3.582  12.566
 6205SOL    HW119367   3.565   3.592  12.482
 6205SOL    HW219368   3.485   3.672  12.600
 6206SOL     OW19369   3.703   2.037  12.135
 6206SOL    HW119370   3.742   1.952  12.099
 6206SOL    HW219371   3.605   2.039  12.116
 6207SOL     OW19372   3.056   3.474  11.203
 6207SOL    HW119373   3.062   3.381  11.240
 6207SOL    HW219374   2.997   3.474  11.123
 6208SOL     OW19375   2.684   2.864  12.544
 6208SOL    HW119376   2.724   2.863  12.452
 6208SOL    HW219377   2.694   2.956  12.584
 6209SOL     OW19378   2.778   2.772  11.463
 6209SOL    HW119379   2.841   2.810  11.395
 6209SOL    HW219380   2.818   2.689  11.502
 6210SOL     OW19381   3.366   3.469  11.216
 6210SOL    HW119382   3.274   3.506  11.223
 6210SOL    HW219383   3.404   3.489  11.126
 6211SOL     OW19384   2.234   3.150  12.662
 6211SOL    HW119385   2.221   3.243  12.628
 6211SOL    HW219386   2.150   3.098  12.649
 6212SOL     OW19387   3.476   3.154  12.461
 6212SOL    HW119388   3.536   3.157  12.541
 6212SOL    HW219389   3.401   3.218  12.474
 6213SOL     OW19390   2.901   2.960  11.868
 6213SOL    HW119391   2.831   2.913  11.922
 6213SOL    HW219392   2.960   2.892  11.825
 6214SOL     OW19393   2.876   2.098  12.143
 6214SOL    HW119394   2.868   2.062  12.050
 6214SOL    HW219395   2.874   2.022  12.208
 6215SOL     OW19396   2.452   3.349  11.663
 6215SOL    HW119397   2.494   3.291  11.593
 6215SOL    HW219398   2.408   3.428  11.619
 6216SOL     OW19399   3.571   2.247  12.553
 6216SOL    HW119400   3.644   2.316  12.557
 6216SOL    HW219401   3.599   2.172  12.494
 6217SOL     OW19402   2.117   3.210  11.462
 6217SOL    HW119403   2.021   3.211  11.435
 6217SOL    HW219404   2.129   3.263  11.546
 6218SOL     OW19405   1.967   2.875  12.898
 6218SOL    HW119406   1.890   2.842  12.952
 6218SOL    HW219407   2.052   2.845  12.940
 6219SOL     OW19408   2.534   2.065  12.661
 6219SOL    HW119409   2.624   2.049  12.621
 6219SOL    HW219410   2.542   2.070  12.760
 6220SOL     OW19411   3.302   2.718  12.570
 6220SOL    HW119412   3.245   2.770  12.507
 6220SOL    HW219413   3.398   2.730  12.546
 6221SOL     OW19414   3.045   3.197  11.291
 6221SOL    HW119415   2.946   3.186  11.293
 6221SOL    HW219416   3.079   3.212  11.384
 6222SOL     OW19417   2.475   2.704  12.603
 6222SOL    HW119418   2.531   2.785  12.586
 6222SOL    HW219419   2.534   2.624  12.606
 6223SOL     OW19420   3.355   3.629  12.131
 6223SOL    HW119421   3.388   3.693  12.062
 6223SOL    HW219422   3.421   3.623  12.206
 6224SOL     OW19423   2.578   2.427  12.880
 6224SOL    HW119424   2.597   2.492  12.954
 6224SOL    HW219425   2.638   2.347  12.889
 6225SOL     OW19426   3.312   3.082  12.805
 6225SOL    HW119427   3.303   3.072  12.904
 6225SOL    HW219428   3.408   3.075  12.779
 6226SOL     OW19429   2.252   3.603  12.732
 6226SOL    HW119430   2.161   3.644  12.730
 6226SOL    HW219431   2.245   3.509  12.764
 6227SOL     OW19432   3.536   2.745  12.426
 6227SOL    HW119433   3.509   2.656  12.389
 6227SOL    HW219434   3.537   2.813  12.353
 6228SOL     OW19435   3.087   2.187  11.621
 6228SOL    HW119436   3.152   2.113  11.610
 6228SOL    HW219437   3.107   2.237  11.705
 6229SOL     OW19438   2.456   2.607  11.824
 6229SOL    HW119439   2.506   2.692  11.805
 6229SOL    HW219440   2.368   2.609  11.776
 6230SOL     OW19441   3.639   2.204  12.814
 6230SOL    HW119442   3.622   2.235  12.720
 6230SOL    HW219443   3.555   2.167  12.852
 6231SOL     OW19444   3.592   2.796  12.689
 6231SOL    HW119445   3.630   2.887  12.704
 6231SOL    HW219446   3.584   2.779  12.590
 6232SOL     OW19447   2.721   3.236  11.188
 6232SOL    HW119448   2.675   3.251  11.276
 6232SOL    HW219449   2.765   3.321  11.158
 6233SOL     OW19450   2.523   3.652  12.125
 6233SOL    HW119451   2.477   3.740  12.112
 6233SOL    HW219452   2.622   3.664  12.118
 6234SOL     OW19453   2.721   2.818  12.033
 6234SOL    HW119454   2.775   2.749  12.081
 6234SOL    HW219455   2.689   2.887  12.099
 6235SOL     OW19456   2.945   2.846  11.259
 6235SOL    HW119457   2.922   2.899  11.177
 6235SOL    HW219458   3.026   2.790  11.240
 6236SOL     OW19459   3.723   3.431  12.023
 6236SOL    HW119460   3.652   3.419  11.953
 6236SOL    HW219461   3.724   3.352  12.083
 6237SOL     OW19462   2.083   3.176  13.016
 6237SOL    HW119463   2.018   3.103  12.995
 6237SOL    HW219464   2.087   3.190  13.114
 6238SOL     OW19465   1.941   3.102  11.825
 6238SOL    HW119466   1.940   3.055  11.913
 6238SOL    HW219467   2.023   3.074  11.774
 6239SOL     OW19468   2.534   3.253  12.796
 6239SOL    HW119469   2.456   3.203  12.834
 6239SOL    HW219470   2.531   3.348  12.827
 6240SOL     OW19471   3.686   2.054  12.399
 6240SOL    HW119472   3.682   1.964  12.443
 6240SOL    HW219473   3.689   2.043  12.300
 6241SOL     OW19474   3.567   3.349  12.276
 6241SOL    HW119475   3.474   3.324  12.249
 6241SOL    HW219476   3.593   3.299  12.358
 6242SOL     OW19477   2.179   2.409  12.452
 6242SOL    HW119478   2.217   2.350  12.524
 6242SOL    HW219479   2.219   2.383  12.364
 6243SOL     OW19480   2.674   3.448  11.859
 6243SOL    HW119481   2.706   3.458  11.765
 6243SOL    HW219482   2.595   3.386  11.861
 6244SOL     OW19483   3.286   2.076  12.284
 6244SOL    HW119484   3.338   2.011  12.339
 6244SOL    HW219485   3.237   2.139  12.345
 6245SOL     OW19486   2.863   1.896  12.326
 6245SOL    HW119487   2.800   1.824  12.295
 6245SOL    HW219488   2.956   1.860  12.326
 6246SOL     OW19489   2.632   3.192  11.473
 6246SOL    HW119490   2.586   3.105  11.490
 6246SOL    HW219491   2.723   3.189  11.514
 6247SOL     OW19492   2.480   3.429  12.456
 6247SOL    HW119493   2.475   3.511  12.513
 6247SOL    HW219494   2.569   3.426  12.411
 6248SOL     OW19495   3.214   1.914  11.340
 6248SOL    HW119496   3.249   1.873  11.256
 6248SOL    HW219497   3.124   1.876  11.360
 6249SOL     OW19498   3.162   2.315  11.863
 6249SOL    HW119499   3.103   2.395  11.867
 6249SOL    HW219500   3.177   2.280  11.956
 6250SOL     OW19501   3.455   2.083  12.054
 6250SOL    HW119502   3.371   2.082  12.108
 6250SOL    HW219503   3.457   2.166  11.998
 6251SOL     OW19504   1.901   2.939  11.472
 6251SOL    HW119505   2.000   2.928  11.463
 6251SOL    HW219506   1.861   2.853  11.504
 6252SOL     OW19507   2.737   3.508  11.509
 6252SOL    HW119508   2.660   3.473  11.455
 6252SOL    HW219509   2.705   3.579  11.571
 6253SOL     OW19510   2.092   2.490  13.147
 6253SOL    HW119511   1.999   2.488  13.184
 6253SOL    HW219512   2.093   2.451  13.055
 6254SOL     OW19513   1.881   2.230  13.681
 6254SOL    HW119514   1.799   2.273  13.720
 6254SOL    HW219515   1.853   2.157  13.618
 6255SOL     OW19516   3.417   3.373  13.737
 6255SOL    HW119517   3.360   3.357  13.818
 6255SOL    HW219518   3.358   3.383  13.657
 6256SOL     OW19519   2.997   2.565  13.751
 6256SOL    HW119520   3.054   2.643  13.726
 6256SOL    HW219521   2.937   2.591  13.827
 6257SOL     OW19522   3.617   2.469  13.265
 6257SOL    HW119523   3.605   2.456  13.166
 6257SOL    HW219524   3.587   2.388  13.314
 6258SOL     OW19525   2.547   2.874  13.699
 6258SOL    HW119526   2.616   2.858  13.769
 6258SOL    HW219527   2.474   2.931  13.737
 6259SOL     OW19528   3.465   2.309  13.771
 6259SOL    HW119529   3.391   2.355  13.721
 6259SOL    HW219530   3.516   2.377  13.824
 6260SOL     OW19531   2.093   3.575  13.517
 6260SOL    HW119532   2.127   3.652  13.571
 6260SOL    HW219533   2.137   3.575  13.427
 6261SOL     OW19534   2.092   3.296  13.572
 6261SOL    HW119535   2.066   3.392  13.572
 6261SOL    HW219536   2.021   3.242  13.617
 6262SOL     OW19537   2.102   2.953  13.920
 6262SOL    HW119538   2.116   2.869  13.972
 6262SOL    HW219539   2.047   3.017  13.975
 6263SOL     OW19540   2.468   2.826  13.157
 6263SOL    HW119541   2.475   2.910  13.103
 6263SOL    HW219542   2.514   2.839  13.245
 6264SOL     OW19543   1.984   2.505  13.597
 6264SOL    HW119544   1.939   2.417  13.614
 6264SOL    HW219545   1.983   2.559  13.681
 6265SOL     OW19546   3.704   3.629  13.393
 6265SOL    HW119547   3.758   3.600  13.473
 6265SOL    HW219548   3.734   3.719  13.364
 6266SOL     OW19549   1.889   3.458  13.151
 6266SOL    HW119550   1.870   3.362  13.172
 6266SOL    HW219551   1.856   3.516  13.226
 6267SOL     OW19552   3.551   2.784  13.646
 6267SOL    HW119553   3.646   2.755  13.654
 6267SOL    HW219554   3.543   2.849  13.571
 6268SOL     OW19555   3.503   2.970  13.466
 6268SOL    HW119556   3.589   2.972  13.414
 6268SOL    HW219557   3.517   3.017  13.554
 6269SOL     OW19558   2.475   3.227  13.760
 6269SOL    HW119559   2.426   3.140  13.769
 6269SOL    HW219560   2.452   3.270  13.673
 6270SOL     OW19561   2.671   1.866  13.536
 6270SOL    HW119562   2.711   1.957  13.527
 6270SOL    HW219563   2.571   1.874  13.542
 6271SOL     OW19564   3.387   2.861  13.224
 6271SOL    HW119565   3.324   2.785  13.237
 6271SOL    HW219566   3.435   2.879  13.310
 6272SOL     OW19567   3.529   3.576  13.606
 6272SOL    HW119568   3.488   3.553  13.518
 6272SOL    HW219569   3.511   3.502  13.671
 6273SOL     OW19570   2.460   2.591  13.304
 6273SOL    HW119571   2.484   2.660  13.236
 6273SOL    HW219572   2.382   2.624  13.358
 6274SOL     OW19573   3.143   2.207  13.978
 6274SOL    HW119574   3.057   2.157  13.965
 6274SOL    HW219575   3.205   2.153  14.034
 6275SOL     OW19576   3.438   3.524  13.341
 6275SOL    HW119577   3.527   3.570  13.344
 6275SOL    HW219578   3.417   3.500  13.246
 6276SOL     OW19579   2.903   2.563  13.463
 6276SOL    HW119580   2.929   2.559  13.559
 6276SOL    HW219581   2.818   2.512  13.449
 6277SOL     OW19582   1.938   2.673  13.823
 6277SOL    HW119583   2.037   2.661  13.832
 6277SOL    HW219584   1.914   2.768  13.844
 6278SOL     OW19585   2.727   2.210  13.229
 6278SOL    HW119586   2.786   2.273  13.180
 6278SOL    HW219587   2.746   2.116  13.200
 6279SOL     OW19588   3.224   3.006  13.579
 6279SOL    HW119589   3.307   2.977  13.531
 6279SOL    HW219590   3.175   3.073  13.523
 6280SOL     OW19591   2.870   3.318  13.511
 6280SOL    HW119592   2.824   3.390  13.459
 6280SOL    HW219593   2.866   3.338  13.609
 6281SOL     OW19594   2.213   3.663  13.887
 6281SOL    HW119595   2.263   3.577  13.893
 6281SOL    HW219596   2.278   3.740  13.884
 6282SOL     OW19597   3.657   2.928  13.907
 6282SOL    HW119598   3.595   2.913  13.831
 6282SOL    HW219599   3.605   2.939  13.992
 6283SOL     OW19600   2.183   2.805  13.276
 6283SOL    HW119601   2.265   2.844  13.234
 6283SOL    HW219602   2.156   2.723  13.227
 6284SOL     OW19603   3.320   2.597  13.762
 6284SOL    HW119604   3.315   2.532  13.837
 6284SOL    HW219605   3.400   2.656  13.775
 6285SOL     OW19606   2.973   3.638  13.271
 6285SOL    HW119607   2.913   3.576  13.321
 6285SOL    HW219608   3.004   3.594  13.186
 6286SOL     OW19609   3.494   3.239  13.115
 6286SOL    HW119610   3.462   3.333  13.105
 6286SOL    HW219611   3.418   3.176  13.103
 6287SOL     OW19612   2.326   3.605  13.357
 6287SOL    HW119613   2.359   3.644  13.443
 6287SOL    HW219614   2.402   3.598  13.292
 6288SOL     OW19615   3.262   1.969  13.460
 6288SOL    HW119616   3.238   1.932  13.370
 6288SOL    HW219617   3.361   1.985  13.464
 6289SOL     OW19618   2.802   3.560  13.938
 6289SOL    HW119619   2.882   3.503  13.959
 6289SOL    HW219620   2.753   3.520  13.861
 6290SOL     OW19621   2.244   2.562  13.514
 6290SOL    HW119622   2.289   2.472  13.511
 6290SOL    HW219623   2.150   2.551  13.547
 6291SOL     OW19624   2.476   1.984  13.151
 6291SOL    HW119625   2.574   1.962  13.158
 6291SOL    HW219626   2.445   1.967  13.058
 6292SOL     OW19627   2.401   1.926  13.546
 6292SOL    HW119628   2.320   1.927  13.604
 6292SOL    HW219629   2.404   2.009  13.491
 6293SOL     OW19630   3.296   3.050  13.075
 6293SOL    HW119631   3.328   2.974  13.132
 6293SOL    HW219632   3.204   3.077  13.105
 6294SOL     OW19633   2.797   2.098  13.514
 6294SOL    HW119634   2.749   2.139  13.436
 6294SOL    HW219635   2.896   2.096  13.495
 6295SOL     OW19636   2.321   3.014  13.775
 6295SOL    HW119637   2.250   2.987  13.840
 6295SOL    HW219638   2.295   2.986  13.682
 6296SOL     OW19639   3.133   3.659  13.625
 6296SOL    HW119640   3.177   3.723  13.561
 6296SOL    HW219641   3.083   3.711  13.695
 6297SOL     OW19642   2.894   2.411  13.050
 6297SOL    HW119643   2.853   2.493  13.011
 6297SOL    HW219644   2.958   2.437  13.123
 6298SOL     OW19645   2.728   2.316  13.676
 6298SOL    HW119646   2.696   2.388  13.614
 6298SOL    HW219647   2.752   2.235  13.623
 6299SOL     OW19648   2.879   1.901  13.787
 6299SOL    HW119649   2.807   1.906  13.718
 6299SOL    HW219650   2.855   1.832  13.856
 6300SOL     OW19651   3.719   2.695  13.411
 6300SOL    HW119652   3.761   2.631  13.475
 6300SOL    HW219653   3.681   2.644  13.333
 6301SOL     OW19654   2.350   3.247  13.208
 6301SOL    HW119655   2.263   3.232  13.255
 6301SOL    HW219656   2.333   3.273  13.113
 6302SOL     OW19657   3.526   3.142  13.691
 6302SOL    HW119658   3.625   3.150  13.705
 6302SOL    HW219659   3.481   3.226  13.722
 6303SOL     OW19660   3.252   2.437  13.112
 6303SOL    HW119661   3.198   2.416  13.193
 6303SOL    HW219662   3.343   2.396  13.121
 6304SOL     OW19663   2.567   2.912  13.402
 6304SOL    HW119664   2.553   2.919  13.501
 6304SOL    HW219665   2.651   2.861  13.384
 6305SOL     OW19666   2.229   2.962  13.535
 6305SOL    HW119667   2.222   3.045  13.479
 6305SOL    HW219668   2.233   2.882  13.475
 6306SOL     OW19669   2.428   2.399  13.899
 6306SOL    HW119670   2.440   2.465  13.825
 6306SOL    HW219671   2.474   2.433  13.982
 6307SOL     OW19672   3.114   3.210  13.422
 6307SOL    HW119673   3.164   3.287  13.462
 6307SOL    HW219674   3.019   3.212  13.454
 6308SOL     OW19675   3.444   2.501  13.506
 6308SOL    HW119676   3.413   2.562  13.579
 6308SOL    HW219677   3.494   2.553  13.437
 6309SOL     OW19678   3.071   2.387  13.309
 6309SOL    HW119679   3.084   2.303  13.363
 6309SOL    HW219680   3.042   2.461  13.369
 6310SOL     OW19681   3.484   2.229  13.408
 6310SOL    HW119682   3.486   2.153  13.472
 6310SOL    HW219683   3.436   2.306  13.448
 6311SOL     OW19684   3.402   2.136  13.159
 6311SOL    HW119685   3.341   2.061  13.182
 6311SOL    HW219686   3.424   2.188  13.242
 6312SOL     OW19687   3.165   2.700  13.076
 6312SOL    HW119688   3.199   2.607  13.091
 6312SOL    HW219689   3.183   2.727  12.981
 6313SOL     OW19690   1.870   3.188  13.234
 6313SOL    HW119691   1.777   3.209  13.203
 6313SOL    HW219692   1.880   3.089  13.247
 6314SOL     OW19693   2.677   2.434  13.359
 6314SOL    HW119694   2.684   2.345  13.313
 6314SOL    HW219695   2.583   2.468  13.351
 6315SOL     OW19696   2.335   2.362  13.225
 6315SOL    HW119697   2.396   2.442  13.229
 6315SOL    HW219698   2.240   2.393  13.232
 6316SOL     OW19699   3.164   2.717  13.343
 6316SOL    HW119700   3.078   2.686  13.385
 6316SOL    HW219701   3.160   2.703  13.244
 6317SOL     OW19702   3.588   1.997  13.557
 6317SOL    HW119703   3.661   1.980  13.490
 6317SOL    HW219704   3.557   1.910  13.595
 6318SOL     OW19705   3.250   3.435  13.511
 6318SOL    HW119706   3.317   3.447  13.437
 6318SOL    HW219707   3.210   3.524  13.534
 6319SOL     OW19708   3.142   2.789  13.706
 6319SOL    HW119709   3.202   2.708  13.708
 6319SOL    HW219710   3.182   2.858  13.646
 6320SOL     OW19711   2.534   3.478  13.188
 6320SOL    HW119712   2.543   3.488  13.089
 6320SOL    HW219713   2.494   3.389  13.209
 6321SOL     OW19714   3.703   2.037  13.997
 6321SOL    HW119715   3.742   1.952  13.961
 6321SOL    HW219716   3.605   2.039  13.978
 6322SOL     OW19717   3.056   3.474  13.065
 6322SOL    HW119718   3.062   3.381  13.102
 6322SOL    HW219719   2.997   3.474  12.985
 6323SOL     OW19720   2.778   2.772  13.325
 6323SOL    HW119721   2.841   2.810  13.257
 6323SOL    HW219722   2.818   2.689  13.364
 6324SOL     OW19723   3.366   3.469  13.078
 6324SOL    HW119724   3.274   3.506  13.085
 6324SOL    HW219725   3.404   3.489  12.988
 6325SOL     OW19726   2.901   2.960  13.730
 6325SOL    HW119727   2.831   2.913  13.784
 6325SOL    HW219728   2.960   2.892  13.687
 6326SOL     OW19729   2.452   3.349  13.525
 6326SOL    HW119730   2.494   3.291  13.455
 6326SOL    HW219731   2.408   3.428  13.481
 6327SOL     OW19732   2.117   3.210  13.324
 6327SOL    HW119733   2.021   3.211  13.297
 6327SOL    HW219734   2.129   3.263  13.408
 6328SOL     OW19735   3.045   3.197  13.153
 6328SOL    HW119736   2.946   3.186  13.155
 6328SOL    HW219737   3.079   3.212  13.246
 6329SOL     OW19738   3.087   2.187  13.483
 6329SOL    HW119739   3.152   2.113  13.472
 6329SOL    HW219740   3.107   2.237  13.567
 6330SOL     OW19741   2.456   2.607  13.686
 6330SOL    HW119742   2.506   2.692  13.667
 6330SOL    HW219743   2.368   2.609  13.638
 6331SOL     OW19744   2.721   3.236  13.050
 6331SOL    HW119745   2.675   3.251  13.138
 6331SOL    HW219746   2.765   3.321  13.020
 6332SOL     OW19747   2.523   3.652  13.987
 6332SOL    HW119748   2.477   3.740  13.974
 6332SOL    HW219749   2.622   3.664  13.980
 6333SOL     OW19750   2.721   2.818  13.895
 6333SOL    HW119751   2.775   2.749  13.943
 6333SOL    HW219752   2.689   2.887  13.961
 6334SOL     OW19753   2.945   2.846  13.121
 6334SOL    HW119754   2.922   2.899  13.039
 6334SOL    HW219755   3.026   2.790  13.102
 6335SOL     OW19756   1.941   3.102  13.687
 6335SOL    HW119757   1.940   3.055  13.775
 6335SOL    HW219758   2.023   3.074  13.636
 6336SOL     OW19759   3.567   3.349  14.138
 6336SOL    HW119760   3.474   3.324  14.111
 6336SOL    HW219761   3.593   3.299  14.220
 6337SOL     OW19762   2.674   3.448  13.721
 6337SOL    HW119763   2.706   3.458  13.627
 6337SOL    HW219764   2.595   3.386  13.723
 6338SOL     OW19765   2.632   3.192  13.335
 6338SOL    HW119766   2.586   3.105  13.352
 6338SOL    HW219767   2.723   3.189  13.376
 6339SOL     OW19768   3.214   1.914  13.202
 6339SOL    HW119769   3.249   1.873  13.118
 6339SOL    HW219770   3.124   1.876  13.222
 6340SOL     OW19771   3.162   2.315  13.725
 6340SOL    HW119772   3.103   2.395  13.729
 6340SOL    HW219773   3.177   2.280  13.818
 6341SOL     OW19774   1.901   2.939  13.334
 6341SOL    HW119775   2.000   2.928  13.325
 6341SOL    HW219776   1.861   2.853  13.366
 6342SOL     OW19777   2.737   3.508  13.371
 6342SOL    HW119778   2.660   3.473  13.317
 6342SOL    HW219779   2.705   3.579  13.433
 6343SOL     OW19780   2.087   3.999   0.996
 6343SOL    HW119781   2.122   3.982   1.088
 6343SOL    HW219782   1.999   3.954   0.984
 6344SOL     OW19783   1.881   4.092   0.647
 6344SOL    HW119784   1.799   4.135   0.686
 6344SOL    HW219785   1.853   4.019   0.584
 6345SOL     OW19786   3.617   4.331   0.231
 6345SOL    HW119787   3.605   4.318   0.132
 6345SOL    HW219788   3.587   4.250   0.280
 6346SOL     OW19789   2.300   4.116   1.499
 6346SOL    HW119790   2.382   4.060   1.508
 6346SOL    HW219791   2.219   4.058   1.503
 6347SOL     OW19792   3.456   3.838   1.480
 6347SOL    HW119793   3.438   3.905   1.408
 6347SOL    HW219794   3.453   3.884   1.569
 6348SOL     OW19795   2.671   3.728   0.502
 6348SOL    HW119796   2.711   3.819   0.493
 6348SOL    HW219797   2.571   3.736   0.508
 6349SOL     OW19798   3.143   4.069   0.944
 6349SOL    HW119799   3.057   4.019   0.931
 6349SOL    HW219800   3.205   4.015   1.000
 6350SOL     OW19801   2.412   3.920   0.885
 6350SOL    HW119802   2.407   3.915   0.985
 6350SOL    HW219803   2.414   4.016   0.856
 6351SOL     OW19804   2.064   4.009   1.498
 6351SOL    HW119805   1.984   4.069   1.485
 6351SOL    HW219806   2.054   3.960   1.584
 6352SOL     OW19807   3.262   3.831   0.426
 6352SOL    HW119808   3.238   3.794   0.336
 6352SOL    HW219809   3.361   3.847   0.430
 6353SOL     OW19810   3.409   3.946   1.729
 6353SOL    HW119811   3.404   3.983   1.821
 6353SOL    HW219812   3.337   3.877   1.717
 6354SOL     OW19813   2.643   3.988   1.749
 6354SOL    HW119814   2.710   3.927   1.792
 6354SOL    HW219815   2.570   4.007   1.814
 6355SOL     OW19816   2.401   3.788   0.512
 6355SOL    HW119817   2.320   3.789   0.570
 6355SOL    HW219818   2.404   3.871   0.457
 6356SOL     OW19819   2.159   3.759   0.171
 6356SOL    HW119820   2.208   3.843   0.150
 6356SOL    HW219821   2.221   3.694   0.216
 6357SOL     OW19822   2.423   3.946   1.147
 6357SOL    HW119823   2.461   3.862   1.184
 6357SOL    HW219824   2.335   3.965   1.191
 6358SOL     OW19825   2.879   3.763   0.753
 6358SOL    HW119826   2.807   3.768   0.684
 6358SOL    HW219827   2.855   3.694   0.822
 6359SOL     OW19828   2.777   3.813   1.402
 6359SOL    HW119829   2.802   3.793   1.307
 6359SOL    HW219830   2.849   3.869   1.444
 6360SOL     OW19831   3.136   4.110   1.262
 6360SOL    HW119832   3.157   4.184   1.326
 6360SOL    HW219833   3.047   4.127   1.219
 6361SOL     OW19834   2.366   3.774   1.740
 6361SOL    HW119835   2.324   3.717   1.670
 6361SOL    HW219836   2.300   3.843   1.772
 6362SOL     OW19837   2.169   3.937   1.231
 6362SOL    HW119838   2.146   3.974   1.321
 6362SOL    HW219839   2.139   3.842   1.225
 6363SOL     OW19840   3.402   3.998   0.125
 6363SOL    HW119841   3.341   3.923   0.148
 6363SOL    HW219842   3.424   4.050   0.208
 6364SOL     OW19843   3.022   3.931   1.477
 6364SOL    HW119844   3.022   3.995   1.554
 6364SOL    HW219845   3.050   3.979   1.394
 6365SOL     OW19846   2.765   3.810   0.133
 6365SOL    HW119847   2.816   3.811   0.047
 6365SOL    HW219848   2.821   3.768   0.204
 6366SOL     OW19849   3.588   3.859   0.523
 6366SOL    HW119850   3.661   3.842   0.456
 6366SOL    HW219851   3.557   3.772   0.561
 6367SOL     OW19852   3.703   3.899   0.963
 6367SOL    HW119853   3.742   3.814   0.927
 6367SOL    HW219854   3.605   3.901   0.944
 6368SOL     OW19855   2.534   3.927   1.489
 6368SOL    HW119856   2.624   3.911   1.449
 6368SOL    HW219857   2.542   3.932   1.588
 6369SOL     OW19858   1.934   3.890   0.318
 6369SOL    HW119859   1.917   3.973   0.264
 6369SOL    HW219860   2.024   3.853   0.296
 6370SOL     OW19861   3.087   4.049   0.449
 6370SOL    HW119862   3.152   3.975   0.438
 6370SOL    HW219863   3.107   4.099   0.533
 6371SOL     OW19864   3.639   4.066   1.642
 6371SOL    HW119865   3.622   4.097   1.548
 6371SOL    HW219866   3.555   4.029   1.680
 6372SOL     OW19867   3.686   3.916   1.227
 6372SOL    HW119868   3.682   3.826   1.271
 6372SOL    HW219869   3.689   3.905   1.128
 6373SOL     OW19870   3.286   3.938   1.112
 6373SOL    HW119871   3.338   3.873   1.167
 6373SOL    HW219872   3.237   4.001   1.173
 6374SOL     OW19873   2.863   3.758   1.154
 6374SOL    HW119874   2.800   3.686   1.123
 6374SOL    HW219875   2.956   3.722   1.154
 6375SOL     OW19876   3.214   3.776   0.168
 6375SOL    HW119877   3.249   3.735   0.084
 6375SOL    HW219878   3.124   3.738   0.188
 6376SOL     OW19879   3.162   4.177   0.691
 6376SOL    HW119880   3.103   4.257   0.695
 6376SOL    HW219881   3.177   4.142   0.784
 6377SOL     OW19882   3.455   3.945   0.882
 6377SOL    HW119883   3.371   3.944   0.936
 6377SOL    HW219884   3.457   4.028   0.826
 6378SOL     OW19885   2.087   3.999   2.858
 6378SOL    HW119886   2.122   3.982   2.950
 6378SOL    HW219887   1.999   3.954   2.846
 6379SOL     OW19888   1.881   4.092   2.509
 6379SOL    HW119889   1.799   4.135   2.548
 6379SOL    HW219890   1.853   4.019   2.446
 6380SOL     OW19891   3.617   4.331   2.093
 6380SOL    HW119892   3.605   4.318   1.994
 6380SOL    HW219893   3.587   4.250   2.142
 6381SOL     OW19894   2.300   4.116   3.361
 6381SOL    HW119895   2.382   4.060   3.370
 6381SOL    HW219896   2.219   4.058   3.365
 6382SOL     OW19897   3.456   3.838   3.342
 6382SOL    HW119898   3.438   3.905   3.270
 6382SOL    HW219899   3.453   3.884   3.431
 6383SOL     OW19900   2.671   3.728   2.364
 6383SOL    HW119901   2.711   3.819   2.355
 6383SOL    HW219902   2.571   3.736   2.370
 6384SOL     OW19903   3.143   4.069   2.806
 6384SOL    HW119904   3.057   4.019   2.793
 6384SOL    HW219905   3.205   4.015   2.862
 6385SOL     OW19906   2.412   3.920   2.747
 6385SOL    HW119907   2.407   3.915   2.847
 6385SOL    HW219908   2.414   4.016   2.718
 6386SOL     OW19909   2.064   4.009   3.360
 6386SOL    HW119910   1.984   4.069   3.347
 6386SOL    HW219911   2.054   3.960   3.446
 6387SOL     OW19912   3.262   3.831   2.288
 6387SOL    HW119913   3.238   3.794   2.198
 6387SOL    HW219914   3.361   3.847   2.292
 6388SOL     OW19915   3.409   3.946   3.591
 6388SOL    HW119916   3.404   3.983   3.683
 6388SOL    HW219917   3.337   3.877   3.579
 6389SOL     OW19918   2.476   3.846   1.979
 6389SOL    HW119919   2.574   3.824   1.986
 6389SOL    HW219920   2.445   3.829   1.886
 6390SOL     OW19921   2.643   3.988   3.611
 6390SOL    HW119922   2.710   3.927   3.654
 6390SOL    HW219923   2.570   4.007   3.676
 6391SOL     OW19924   2.401   3.788   2.374
 6391SOL    HW119925   2.320   3.789   2.432
 6391SOL    HW219926   2.404   3.871   2.319
 6392SOL     OW19927   2.159   3.759   2.033
 6392SOL    HW119928   2.208   3.843   2.012
 6392SOL    HW219929   2.221   3.694   2.078
 6393SOL     OW19930   2.423   3.946   3.009
 6393SOL    HW119931   2.461   3.862   3.046
 6393SOL    HW219932   2.335   3.965   3.053
 6394SOL     OW19933   2.879   3.763   2.615
 6394SOL    HW119934   2.807   3.768   2.546
 6394SOL    HW219935   2.855   3.694   2.684
 6395SOL     OW19936   2.777   3.813   3.264
 6395SOL    HW119937   2.802   3.793   3.169
 6395SOL    HW219938   2.849   3.869   3.306
 6396SOL     OW19939   3.136   4.110   3.124
 6396SOL    HW119940   3.157   4.184   3.188
 6396SOL    HW219941   3.047   4.127   3.081
 6397SOL     OW19942   2.366   3.774   3.602
 6397SOL    HW119943   2.324   3.717   3.532
 6397SOL    HW219944   2.300   3.843   3.634
 6398SOL     OW19945   2.169   3.937   3.093
 6398SOL    HW119946   2.146   3.974   3.183
 6398SOL    HW219947   2.139   3.842   3.087
 6399SOL     OW19948   3.402   3.998   1.987
 6399SOL    HW119949   3.341   3.923   2.010
 6399SOL    HW219950   3.424   4.050   2.070
 6400SOL     OW19951   3.022   3.931   3.339
 6400SOL    HW119952   3.022   3.995   3.416
 6400SOL    HW219953   3.050   3.979   3.256
 6401SOL     OW19954   2.765   3.810   1.995
 6401SOL    HW119955   2.816   3.811   1.909
 6401SOL    HW219956   2.821   3.768   2.066
 6402SOL     OW19957   3.588   3.859   2.385
 6402SOL    HW119958   3.661   3.842   2.318
 6402SOL    HW219959   3.557   3.772   2.423
 6403SOL     OW19960   3.703   3.899   2.825
 6403SOL    HW119961   3.742   3.814   2.789
 6403SOL    HW219962   3.605   3.901   2.806
 6404SOL     OW19963   2.534   3.927   3.351
 6404SOL    HW119964   2.624   3.911   3.311
 6404SOL    HW219965   2.542   3.932   3.450
 6405SOL     OW19966   1.937   4.069   1.895
 6405SOL    HW119967   1.845   4.041   1.866
 6405SOL    HW219968   1.968   4.146   1.839
 6406SOL     OW19969   1.934   3.890   2.180
 6406SOL    HW119970   1.917   3.973   2.126
 6406SOL    HW219971   2.024   3.853   2.158
 6407SOL     OW19972   3.087   4.049   2.311
 6407SOL    HW119973   3.152   3.975   2.300
 6407SOL    HW219974   3.107   4.099   2.395
 6408SOL     OW19975   3.639   4.066   3.504
 6408SOL    HW119976   3.622   4.097   3.410
 6408SOL    HW219977   3.555   4.029   3.542
 6409SOL     OW19978   3.686   3.916   3.089
 6409SOL    HW119979   3.682   3.826   3.133
 6409SOL    HW219980   3.689   3.905   2.990
 6410SOL     OW19981   3.286   3.938   2.974
 6410SOL    HW119982   3.338   3.873   3.029
 6410SOL    HW219983   3.237   4.001   3.035
 6411SOL     OW19984   2.863   3.758   3.016
 6411SOL    HW119985   2.800   3.686   2.985
 6411SOL    HW219986   2.956   3.722   3.016
 6412SOL     OW19987   3.214   3.776   2.030
 6412SOL    HW119988   3.249   3.735   1.946
 6412SOL    HW219989   3.124   3.738   2.050
 6413SOL     OW19990   3.162   4.177   2.553
 6413SOL    HW119991   3.103   4.257   2.557
 6413SOL    HW219992   3.177   4.142   2.646
 6414SOL     OW19993   3.455   3.945   2.744
 6414SOL    HW119994   3.371   3.944   2.798
 6414SOL    HW219995   3.457   4.028   2.688
 6415SOL     OW19996   2.087   3.999   4.720
 6415SOL    HW119997   2.122   3.982   4.812
 6415SOL    HW219998   1.999   3.954   4.708
 6416SOL     OW19999   1.881   4.092   4.371
 6416SOL    HW120000   1.799   4.135   4.410
 6416SOL    HW220001   1.853   4.019   4.308
 6417SOL     OW20002   3.617   4.331   3.955
 6417SOL    HW120003   3.605   4.318   3.856
 6417SOL    HW220004   3.587   4.250   4.004
 6418SOL     OW20005   2.300   4.116   5.223
 6418SOL    HW120006   2.382   4.060   5.232
 6418SOL    HW220007   2.219   4.058   5.227
 6419SOL     OW20008   3.456   3.838   5.204
 6419SOL    HW120009   3.438   3.905   5.132
 6419SOL    HW220010   3.453   3.884   5.293
 6420SOL     OW20011   2.671   3.728   4.226
 6420SOL    HW120012   2.711   3.819   4.217
 6420SOL    HW220013   2.571   3.736   4.232
 6421SOL     OW20014   3.143   4.069   4.668
 6421SOL    HW120015   3.057   4.019   4.655
 6421SOL    HW220016   3.205   4.015   4.724
 6422SOL     OW20017   2.412   3.920   4.609
 6422SOL    HW120018   2.407   3.915   4.709
 6422SOL    HW220019   2.414   4.016   4.580
 6423SOL     OW20020   2.064   4.009   5.222
 6423SOL    HW120021   1.984   4.069   5.209
 6423SOL    HW220022   2.054   3.960   5.308
 6424SOL     OW20023   3.262   3.831   4.150
 6424SOL    HW120024   3.238   3.794   4.060
 6424SOL    HW220025   3.361   3.847   4.154
 6425SOL     OW20026   3.409   3.946   5.453
 6425SOL    HW120027   3.404   3.983   5.545
 6425SOL    HW220028   3.337   3.877   5.441
 6426SOL     OW20029   2.476   3.846   3.841
 6426SOL    HW120030   2.574   3.824   3.848
 6426SOL    HW220031   2.445   3.829   3.748
 6427SOL     OW20032   2.643   3.988   5.473
 6427SOL    HW120033   2.710   3.927   5.516
 6427SOL    HW220034   2.570   4.007   5.538
 6428SOL     OW20035   2.401   3.788   4.236
 6428SOL    HW120036   2.320   3.789   4.294
 6428SOL    HW220037   2.404   3.871   4.181
 6429SOL     OW20038   2.159   3.759   3.895
 6429SOL    HW120039   2.208   3.843   3.874
 6429SOL    HW220040   2.221   3.694   3.940
 6430SOL     OW20041   2.423   3.946   4.871
 6430SOL    HW120042   2.461   3.862   4.908
 6430SOL    HW220043   2.335   3.965   4.915
 6431SOL     OW20044   2.879   3.763   4.477
 6431SOL    HW120045   2.807   3.768   4.408
 6431SOL    HW220046   2.855   3.694   4.546
 6432SOL     OW20047   2.777   3.813   5.126
 6432SOL    HW120048   2.802   3.793   5.031
 6432SOL    HW220049   2.849   3.869   5.168
 6433SOL     OW20050   3.136   4.110   4.986
 6433SOL    HW120051   3.157   4.184   5.050
 6433SOL    HW220052   3.047   4.127   4.943
 6434SOL     OW20053   2.366   3.774   5.464
 6434SOL    HW120054   2.324   3.717   5.394
 6434SOL    HW220055   2.300   3.843   5.496
 6435SOL     OW20056   2.169   3.937   4.955
 6435SOL    HW120057   2.146   3.974   5.045
 6435SOL    HW220058   2.139   3.842   4.949
 6436SOL     OW20059   3.402   3.998   3.849
 6436SOL    HW120060   3.341   3.923   3.872
 6436SOL    HW220061   3.424   4.050   3.932
 6437SOL     OW20062   3.022   3.931   5.201
 6437SOL    HW120063   3.022   3.995   5.278
 6437SOL    HW220064   3.050   3.979   5.118
 6438SOL     OW20065   2.765   3.810   3.857
 6438SOL    HW120066   2.816   3.811   3.771
 6438SOL    HW220067   2.821   3.768   3.928
 6439SOL     OW20068   3.588   3.859   4.247
 6439SOL    HW120069   3.661   3.842   4.180
 6439SOL    HW220070   3.557   3.772   4.285
 6440SOL     OW20071   3.703   3.899   4.687
 6440SOL    HW120072   3.742   3.814   4.651
 6440SOL    HW220073   3.605   3.901   4.668
 6441SOL     OW20074   2.534   3.927   5.213
 6441SOL    HW120075   2.624   3.911   5.173
 6441SOL    HW220076   2.542   3.932   5.312
 6442SOL     OW20077   1.937   4.069   3.757
 6442SOL    HW120078   1.845   4.041   3.728
 6442SOL    HW220079   1.968   4.146   3.701
 6443SOL     OW20080   1.934   3.890   4.042
 6443SOL    HW120081   1.917   3.973   3.988
 6443SOL    HW220082   2.024   3.853   4.020
 6444SOL     OW20083   3.087   4.049   4.173
 6444SOL    HW120084   3.152   3.975   4.162
 6444SOL    HW220085   3.107   4.099   4.257
 6445SOL     OW20086   3.639   4.066   5.366
 6445SOL    HW120087   3.622   4.097   5.272
 6445SOL    HW220088   3.555   4.029   5.404
 6446SOL     OW20089   3.686   3.916   4.951
 6446SOL    HW120090   3.682   3.826   4.995
 6446SOL    HW220091   3.689   3.905   4.852
 6447SOL     OW20092   3.286   3.938   4.836
 6447SOL    HW120093   3.338   3.873   4.891
 6447SOL    HW220094   3.237   4.001   4.897
 6448SOL     OW20095   2.863   3.758   4.878
 6448SOL    HW120096   2.800   3.686   4.847
 6448SOL    HW220097   2.956   3.722   4.878
 6449SOL     OW20098   3.214   3.776   3.892
 6449SOL    HW120099   3.249   3.735   3.808
 6449SOL    HW220100   3.124   3.738   3.912
 6450SOL     OW20101   3.162   4.177   4.415
 6450SOL    HW120102   3.103   4.257   4.419
 6450SOL    HW220103   3.177   4.142   4.508
 6451SOL     OW20104   3.455   3.945   4.606
 6451SOL    HW120105   3.371   3.944   4.660
 6451SOL    HW220106   3.457   4.028   4.550
 6452SOL     OW20107   2.087   3.999   6.582
 6452SOL    HW120108   2.122   3.982   6.674
 6452SOL    HW220109   1.999   3.954   6.570
 6453SOL     OW20110   1.881   4.092   6.233
 6453SOL    HW120111   1.799   4.135   6.272
 6453SOL    HW220112   1.853   4.019   6.170
 6454SOL     OW20113   3.617   4.331   5.817
 6454SOL    HW120114   3.605   4.318   5.718
 6454SOL    HW220115   3.587   4.250   5.866
 6455SOL     OW20116   2.300   4.116   7.085
 6455SOL    HW120117   2.382   4.060   7.094
 6455SOL    HW220118   2.219   4.058   7.089
 6456SOL     OW20119   3.456   3.838   7.066
 6456SOL    HW120120   3.438   3.905   6.994
 6456SOL    HW220121   3.453   3.884   7.155
 6457SOL     OW20122   2.671   3.728   6.088
 6457SOL    HW120123   2.711   3.819   6.079
 6457SOL    HW220124   2.571   3.736   6.094
 6458SOL     OW20125   3.143   4.069   6.530
 6458SOL    HW120126   3.057   4.019   6.517
 6458SOL    HW220127   3.205   4.015   6.586
 6459SOL     OW20128   2.412   3.920   6.471
 6459SOL    HW120129   2.407   3.915   6.571
 6459SOL    HW220130   2.414   4.016   6.442
 6460SOL     OW20131   2.064   4.009   7.084
 6460SOL    HW120132   1.984   4.069   7.071
 6460SOL    HW220133   2.054   3.960   7.170
 6461SOL     OW20134   3.262   3.831   6.012
 6461SOL    HW120135   3.238   3.794   5.922
 6461SOL    HW220136   3.361   3.847   6.016
 6462SOL     OW20137   3.409   3.946   7.315
 6462SOL    HW120138   3.404   3.983   7.407
 6462SOL    HW220139   3.337   3.877   7.303
 6463SOL     OW20140   2.476   3.846   5.703
 6463SOL    HW120141   2.574   3.824   5.710
 6463SOL    HW220142   2.445   3.829   5.610
 6464SOL     OW20143   2.643   3.988   7.335
 6464SOL    HW120144   2.710   3.927   7.378
 6464SOL    HW220145   2.570   4.007   7.400
 6465SOL     OW20146   2.401   3.788   6.098
 6465SOL    HW120147   2.320   3.789   6.156
 6465SOL    HW220148   2.404   3.871   6.043
 6466SOL     OW20149   2.159   3.759   5.757
 6466SOL    HW120150   2.208   3.843   5.736
 6466SOL    HW220151   2.221   3.694   5.802
 6467SOL     OW20152   2.423   3.946   6.733
 6467SOL    HW120153   2.461   3.862   6.770
 6467SOL    HW220154   2.335   3.965   6.777
 6468SOL     OW20155   2.879   3.763   6.339
 6468SOL    HW120156   2.807   3.768   6.270
 6468SOL    HW220157   2.855   3.694   6.408
 6469SOL     OW20158   2.777   3.813   6.988
 6469SOL    HW120159   2.802   3.793   6.893
 6469SOL    HW220160   2.849   3.869   7.030
 6470SOL     OW20161   3.136   4.110   6.848
 6470SOL    HW120162   3.157   4.184   6.912
 6470SOL    HW220163   3.047   4.127   6.805
 6471SOL     OW20164   2.366   3.774   7.326
 6471SOL    HW120165   2.324   3.717   7.256
 6471SOL    HW220166   2.300   3.843   7.358
 6472SOL     OW20167   2.169   3.937   6.817
 6472SOL    HW120168   2.146   3.974   6.907
 6472SOL    HW220169   2.139   3.842   6.811
 6473SOL     OW20170   3.402   3.998   5.711
 6473SOL    HW120171   3.341   3.923   5.734
 6473SOL    HW220172   3.424   4.050   5.794
 6474SOL     OW20173   3.022   3.931   7.063
 6474SOL    HW120174   3.022   3.995   7.140
 6474SOL    HW220175   3.050   3.979   6.980
 6475SOL     OW20176   2.765   3.810   5.719
 6475SOL    HW120177   2.816   3.811   5.633
 6475SOL    HW220178   2.821   3.768   5.790
 6476SOL     OW20179   3.588   3.859   6.109
 6476SOL    HW120180   3.661   3.842   6.042
 6476SOL    HW220181   3.557   3.772   6.147
 6477SOL     OW20182   3.703   3.899   6.549
 6477SOL    HW120183   3.742   3.814   6.513
 6477SOL    HW220184   3.605   3.901   6.530
 6478SOL     OW20185   2.534   3.927   7.075
 6478SOL    HW120186   2.624   3.911   7.035
 6478SOL    HW220187   2.542   3.932   7.174
 6479SOL     OW20188   1.937   4.069   5.619
 6479SOL    HW120189   1.845   4.041   5.590
 6479SOL    HW220190   1.968   4.146   5.563
 6480SOL     OW20191   1.934   3.890   5.904
 6480SOL    HW120192   1.917   3.973   5.850
 6480SOL    HW220193   2.024   3.853   5.882
 6481SOL     OW20194   3.087   4.049   6.035
 6481SOL    HW120195   3.152   3.975   6.024
 6481SOL    HW220196   3.107   4.099   6.119
 6482SOL     OW20197   3.639   4.066   7.228
 6482SOL    HW120198   3.622   4.097   7.134
 6482SOL    HW220199   3.555   4.029   7.266
 6483SOL     OW20200   3.686   3.916   6.813
 6483SOL    HW120201   3.682   3.826   6.857
 6483SOL    HW220202   3.689   3.905   6.714
 6484SOL     OW20203   3.286   3.938   6.698
 6484SOL    HW120204   3.338   3.873   6.753
 6484SOL    HW220205   3.237   4.001   6.759
 6485SOL     OW20206   2.863   3.758   6.740
 6485SOL    HW120207   2.800   3.686   6.709
 6485SOL    HW220208   2.956   3.722   6.740
 6486SOL     OW20209   3.214   3.776   5.754
 6486SOL    HW120210   3.249   3.735   5.670
 6486SOL    HW220211   3.124   3.738   5.774
 6487SOL     OW20212   3.162   4.177   6.277
 6487SOL    HW120213   3.103   4.257   6.281
 6487SOL    HW220214   3.177   4.142   6.370
 6488SOL     OW20215   3.455   3.945   6.468
 6488SOL    HW120216   3.371   3.944   6.522
 6488SOL    HW220217   3.457   4.028   6.412
 6489SOL     OW20218   2.087   3.999   8.444
 6489SOL    HW120219   2.122   3.982   8.536
 6489SOL    HW220220   1.999   3.954   8.432
 6490SOL     OW20221   1.881   4.092   8.095
 6490SOL    HW120222   1.799   4.135   8.134
 6490SOL    HW220223   1.853   4.019   8.032
 6491SOL     OW20224   3.617   4.331   7.679
 6491SOL    HW120225   3.605   4.318   7.580
 6491SOL    HW220226   3.587   4.250   7.728
 6492SOL     OW20227   2.300   4.116   8.947
 6492SOL    HW120228   2.382   4.060   8.956
 6492SOL    HW220229   2.219   4.058   8.951
 6493SOL     OW20230   3.456   3.838   8.928
 6493SOL    HW120231   3.438   3.905   8.856
 6493SOL    HW220232   3.453   3.884   9.017
 6494SOL     OW20233   2.671   3.728   7.950
 6494SOL    HW120234   2.711   3.819   7.941
 6494SOL    HW220235   2.571   3.736   7.956
 6495SOL     OW20236   3.143   4.069   8.392
 6495SOL    HW120237   3.057   4.019   8.379
 6495SOL    HW220238   3.205   4.015   8.448
 6496SOL     OW20239   2.412   3.920   8.333
 6496SOL    HW120240   2.407   3.915   8.433
 6496SOL    HW220241   2.414   4.016   8.304
 6497SOL     OW20242   2.064   4.009   8.946
 6497SOL    HW120243   1.984   4.069   8.933
 6497SOL    HW220244   2.054   3.960   9.032
 6498SOL     OW20245   3.262   3.831   7.874
 6498SOL    HW120246   3.238   3.794   7.784
 6498SOL    HW220247   3.361   3.847   7.878
 6499SOL     OW20248   3.409   3.946   9.177
 6499SOL    HW120249   3.404   3.983   9.269
 6499SOL    HW220250   3.337   3.877   9.165
 6500SOL     OW20251   2.476   3.846   7.565
 6500SOL    HW120252   2.574   3.824   7.572
 6500SOL    HW220253   2.445   3.829   7.472
 6501SOL     OW20254   2.643   3.988   9.197
 6501SOL    HW120255   2.710   3.927   9.240
 6501SOL    HW220256   2.570   4.007   9.262
 6502SOL     OW20257   2.401   3.788   7.960
 6502SOL    HW120258   2.320   3.789   8.018
 6502SOL    HW220259   2.404   3.871   7.905
 6503SOL     OW20260   2.159   3.759   7.619
 6503SOL    HW120261   2.208   3.843   7.598
 6503SOL    HW220262   2.221   3.694   7.664
 6504SOL     OW20263   2.423   3.946   8.595
 6504SOL    HW120264   2.461   3.862   8.632
 6504SOL    HW220265   2.335   3.965   8.639
 6505SOL     OW20266   2.879   3.763   8.201
 6505SOL    HW120267   2.807   3.768   8.132
 6505SOL    HW220268   2.855   3.694   8.270
 6506SOL     OW20269   2.777   3.813   8.850
 6506SOL    HW120270   2.802   3.793   8.755
 6506SOL    HW220271   2.849   3.869   8.892
 6507SOL     OW20272   3.136   4.110   8.710
 6507SOL    HW120273   3.157   4.184   8.774
 6507SOL    HW220274   3.047   4.127   8.667
 6508SOL     OW20275   2.366   3.774   9.188
 6508SOL    HW120276   2.324   3.717   9.118
 6508SOL    HW220277   2.300   3.843   9.220
 6509SOL     OW20278   2.169   3.937   8.679
 6509SOL    HW120279   2.146   3.974   8.769
 6509SOL    HW220280   2.139   3.842   8.673
 6510SOL     OW20281   3.402   3.998   7.573
 6510SOL    HW120282   3.341   3.923   7.596
 6510SOL    HW220283   3.424   4.050   7.656
 6511SOL     OW20284   3.022   3.931   8.925
 6511SOL    HW120285   3.022   3.995   9.002
 6511SOL    HW220286   3.050   3.979   8.842
 6512SOL     OW20287   2.765   3.810   7.581
 6512SOL    HW120288   2.816   3.811   7.495
 6512SOL    HW220289   2.821   3.768   7.652
 6513SOL     OW20290   3.588   3.859   7.971
 6513SOL    HW120291   3.661   3.842   7.904
 6513SOL    HW220292   3.557   3.772   8.009
 6514SOL     OW20293   3.703   3.899   8.411
 6514SOL    HW120294   3.742   3.814   8.375
 6514SOL    HW220295   3.605   3.901   8.392
 6515SOL     OW20296   2.534   3.927   8.937
 6515SOL    HW120297   2.624   3.911   8.897
 6515SOL    HW220298   2.542   3.932   9.036
 6516SOL     OW20299   1.937   4.069   7.481
 6516SOL    HW120300   1.845   4.041   7.452
 6516SOL    HW220301   1.968   4.146   7.425
 6517SOL     OW20302   1.934   3.890   7.766
 6517SOL    HW120303   1.917   3.973   7.712
 6517SOL    HW220304   2.024   3.853   7.744
 6518SOL     OW20305   3.087   4.049   7.897
 6518SOL    HW120306   3.152   3.975   7.886
 6518SOL    HW220307   3.107   4.099   7.981
 6519SOL     OW20308   3.639   4.066   9.090
 6519SOL    HW120309   3.622   4.097   8.996
 6519SOL    HW220310   3.555   4.029   9.128
 6520SOL     OW20311   3.686   3.916   8.675
 6520SOL    HW120312   3.682   3.826   8.719
 6520SOL    HW220313   3.689   3.905   8.576
 6521SOL     OW20314   3.286   3.938   8.560
 6521SOL    HW120315   3.338   3.873   8.615
 6521SOL    HW220316   3.237   4.001   8.621
 6522SOL     OW20317   2.863   3.758   8.602
 6522SOL    HW120318   2.800   3.686   8.571
 6522SOL    HW220319   2.956   3.722   8.602
 6523SOL     OW20320   3.214   3.776   7.616
 6523SOL    HW120321   3.249   3.735   7.532
 6523SOL    HW220322   3.124   3.738   7.636
 6524SOL     OW20323   3.162   4.177   8.139
 6524SOL    HW120324   3.103   4.257   8.143
 6524SOL    HW220325   3.177   4.142   8.232
 6525SOL     OW20326   3.455   3.945   8.330
 6525SOL    HW120327   3.371   3.944   8.384
 6525SOL    HW220328   3.457   4.028   8.274
 6526SOL     OW20329   2.087   3.999  10.306
 6526SOL    HW120330   2.122   3.982  10.398
 6526SOL    HW220331   1.999   3.954  10.294
 6527SOL     OW20332   1.881   4.092   9.957
 6527SOL    HW120333   1.799   4.135   9.996
 6527SOL    HW220334   1.853   4.019   9.894
 6528SOL     OW20335   3.617   4.331   9.541
 6528SOL    HW120336   3.605   4.318   9.442
 6528SOL    HW220337   3.587   4.250   9.590
 6529SOL     OW20338   2.300   4.116  10.809
 6529SOL    HW120339   2.382   4.060  10.818
 6529SOL    HW220340   2.219   4.058  10.813
 6530SOL     OW20341   3.456   3.838  10.790
 6530SOL    HW120342   3.438   3.905  10.718
 6530SOL    HW220343   3.453   3.884  10.879
 6531SOL     OW20344   2.671   3.728   9.812
 6531SOL    HW120345   2.711   3.819   9.803
 6531SOL    HW220346   2.571   3.736   9.818
 6532SOL     OW20347   3.143   4.069  10.254
 6532SOL    HW120348   3.057   4.019  10.241
 6532SOL    HW220349   3.205   4.015  10.310
 6533SOL     OW20350   2.412   3.920  10.195
 6533SOL    HW120351   2.407   3.915  10.295
 6533SOL    HW220352   2.414   4.016  10.166
 6534SOL     OW20353   2.064   4.009  10.808
 6534SOL    HW120354   1.984   4.069  10.795
 6534SOL    HW220355   2.054   3.960  10.894
 6535SOL     OW20356   3.262   3.831   9.736
 6535SOL    HW120357   3.238   3.794   9.646
 6535SOL    HW220358   3.361   3.847   9.740
 6536SOL     OW20359   3.409   3.946  11.039
 6536SOL    HW120360   3.404   3.983  11.131
 6536SOL    HW220361   3.337   3.877  11.027
 6537SOL     OW20362   2.476   3.846   9.427
 6537SOL    HW120363   2.574   3.824   9.434
 6537SOL    HW220364   2.445   3.829   9.334
 6538SOL     OW20365   2.643   3.988  11.059
 6538SOL    HW120366   2.710   3.927  11.102
 6538SOL    HW220367   2.570   4.007  11.124
 6539SOL     OW20368   2.401   3.788   9.822
 6539SOL    HW120369   2.320   3.789   9.880
 6539SOL    HW220370   2.404   3.871   9.767
 6540SOL     OW20371   2.159   3.759   9.481
 6540SOL    HW120372   2.208   3.843   9.460
 6540SOL    HW220373   2.221   3.694   9.526
 6541SOL     OW20374   2.423   3.946  10.457
 6541SOL    HW120375   2.461   3.862  10.494
 6541SOL    HW220376   2.335   3.965  10.501
 6542SOL     OW20377   2.879   3.763  10.063
 6542SOL    HW120378   2.807   3.768   9.994
 6542SOL    HW220379   2.855   3.694  10.132
 6543SOL     OW20380   2.777   3.813  10.712
 6543SOL    HW120381   2.802   3.793  10.617
 6543SOL    HW220382   2.849   3.869  10.754
 6544SOL     OW20383   3.136   4.110  10.572
 6544SOL    HW120384   3.157   4.184  10.636
 6544SOL    HW220385   3.047   4.127  10.529
 6545SOL     OW20386   2.366   3.774  11.050
 6545SOL    HW120387   2.324   3.717  10.980
 6545SOL    HW220388   2.300   3.843  11.082
 6546SOL     OW20389   2.169   3.937  10.541
 6546SOL    HW120390   2.146   3.974  10.631
 6546SOL    HW220391   2.139   3.842  10.535
 6547SOL     OW20392   3.402   3.998   9.435
 6547SOL    HW120393   3.341   3.923   9.458
 6547SOL    HW220394   3.424   4.050   9.518
 6548SOL     OW20395   3.022   3.931  10.787
 6548SOL    HW120396   3.022   3.995  10.864
 6548SOL    HW220397   3.050   3.979  10.704
 6549SOL     OW20398   2.765   3.810   9.443
 6549SOL    HW120399   2.816   3.811   9.357
 6549SOL    HW220400   2.821   3.768   9.514
 6550SOL     OW20401   3.588   3.859   9.833
 6550SOL    HW120402   3.661   3.842   9.766
 6550SOL    HW220403   3.557   3.772   9.871
 6551SOL     OW20404   3.703   3.899  10.273
 6551SOL    HW120405   3.742   3.814  10.237
 6551SOL    HW220406   3.605   3.901  10.254
 6552SOL     OW20407   2.534   3.927  10.799
 6552SOL    HW120408   2.624   3.911  10.759
 6552SOL    HW220409   2.542   3.932  10.898
 6553SOL     OW20410   1.937   4.069   9.343
 6553SOL    HW120411   1.845   4.041   9.314
 6553SOL    HW220412   1.968   4.146   9.287
 6554SOL     OW20413   1.934   3.890   9.628
 6554SOL    HW120414   1.917   3.973   9.574
 6554SOL    HW220415   2.024   3.853   9.606
 6555SOL     OW20416   3.087   4.049   9.759
 6555SOL    HW120417   3.152   3.975   9.748
 6555SOL    HW220418   3.107   4.099   9.843
 6556SOL     OW20419   3.639   4.066  10.952
 6556SOL    HW120420   3.622   4.097  10.858
 6556SOL    HW220421   3.555   4.029  10.990
 6557SOL     OW20422   3.686   3.916  10.537
 6557SOL    HW120423   3.682   3.826  10.581
 6557SOL    HW220424   3.689   3.905  10.438
 6558SOL     OW20425   3.286   3.938  10.422
 6558SOL    HW120426   3.338   3.873  10.477
 6558SOL    HW220427   3.237   4.001  10.483
 6559SOL     OW20428   2.863   3.758  10.464
 6559SOL    HW120429   2.800   3.686  10.433
 6559SOL    HW220430   2.956   3.722  10.464
 6560SOL     OW20431   3.214   3.776   9.478
 6560SOL    HW120432   3.249   3.735   9.394
 6560SOL    HW220433   3.124   3.738   9.498
 6561SOL     OW20434   3.162   4.177  10.001
 6561SOL    HW120435   3.103   4.257  10.005
 6561SOL    HW220436   3.177   4.142  10.094
 6562SOL     OW20437   3.455   3.945  10.192
 6562SOL    HW120438   3.371   3.944  10.246
 6562SOL    HW220439   3.457   4.028  10.136
 6563SOL     OW20440   2.087   3.999  12.168
 6563SOL    HW120441   2.122   3.982  12.260
 6563SOL    HW220442   1.999   3.954  12.156
 6564SOL     OW20443   1.881   4.092  11.819
 6564SOL    HW120444   1.799   4.135  11.858
 6564SOL    HW220445   1.853   4.019  11.756
 6565SOL     OW20446   3.617   4.331  11.403
 6565SOL    HW120447   3.605   4.318  11.304
 6565SOL    HW220448   3.587   4.250  11.452
 6566SOL     OW20449   2.300   4.116  12.671
 6566SOL    HW120450   2.382   4.060  12.680
 6566SOL    HW220451   2.219   4.058  12.675
 6567SOL     OW20452   3.456   3.838  12.652
 6567SOL    HW120453   3.438   3.905  12.580
 6567SOL    HW220454   3.453   3.884  12.741
 6568SOL     OW20455   2.671   3.728  11.674
 6568SOL    HW120456   2.711   3.819  11.665
 6568SOL    HW220457   2.571   3.736  11.680
 6569SOL     OW20458   3.143   4.069  12.116
 6569SOL    HW120459   3.057   4.019  12.103
 6569SOL    HW220460   3.205   4.015  12.172
 6570SOL     OW20461   2.412   3.920  12.057
 6570SOL    HW120462   2.407   3.915  12.157
 6570SOL    HW220463   2.414   4.016  12.028
 6571SOL     OW20464   2.064   4.009  12.670
 6571SOL    HW120465   1.984   4.069  12.657
 6571SOL    HW220466   2.054   3.960  12.756
 6572SOL     OW20467   3.262   3.831  11.598
 6572SOL    HW120468   3.238   3.794  11.508
 6572SOL    HW220469   3.361   3.847  11.602
 6573SOL     OW20470   3.409   3.946  12.901
 6573SOL    HW120471   3.404   3.983  12.993
 6573SOL    HW220472   3.337   3.877  12.889
 6574SOL     OW20473   2.476   3.846  11.289
 6574SOL    HW120474   2.574   3.824  11.296
 6574SOL    HW220475   2.445   3.829  11.196
 6575SOL     OW20476   2.643   3.988  12.921
 6575SOL    HW120477   2.710   3.927  12.964
 6575SOL    HW220478   2.570   4.007  12.986
 6576SOL     OW20479   2.401   3.788  11.684
 6576SOL    HW120480   2.320   3.789  11.742
 6576SOL    HW220481   2.404   3.871  11.629
 6577SOL     OW20482   2.159   3.759  11.343
 6577SOL    HW120483   2.208   3.843  11.322
 6577SOL    HW220484   2.221   3.694  11.388
 6578SOL     OW20485   2.423   3.946  12.319
 6578SOL    HW120486   2.461   3.862  12.356
 6578SOL    HW220487   2.335   3.965  12.363
 6579SOL     OW20488   2.879   3.763  11.925
 6579SOL    HW120489   2.807   3.768  11.856
 6579SOL    HW220490   2.855   3.694  11.994
 6580SOL     OW20491   2.777   3.813  12.574
 6580SOL    HW120492   2.802   3.793  12.479
 6580SOL    HW220493   2.849   3.869  12.616
 6581SOL     OW20494   3.136   4.110  12.434
 6581SOL    HW120495   3.157   4.184  12.498
 6581SOL    HW220496   3.047   4.127  12.391
 6582SOL     OW20497   2.366   3.774  12.912
 6582SOL    HW120498   2.324   3.717  12.842
 6582SOL    HW220499   2.300   3.843  12.944
 6583SOL     OW20500   2.169   3.937  12.403
 6583SOL    HW120501   2.146   3.974  12.493
 6583SOL    HW220502   2.139   3.842  12.397
 6584SOL     OW20503   3.402   3.998  11.297
 6584SOL    HW120504   3.341   3.923  11.320
 6584SOL    HW220505   3.424   4.050  11.380
 6585SOL     OW20506   3.022   3.931  12.649
 6585SOL    HW120507   3.022   3.995  12.726
 6585SOL    HW220508   3.050   3.979  12.566
 6586SOL     OW20509   2.765   3.810  11.305
 6586SOL    HW120510   2.816   3.811  11.219
 6586SOL    HW220511   2.821   3.768  11.376
 6587SOL     OW20512   3.588   3.859  11.695
 6587SOL    HW120513   3.661   3.842  11.628
 6587SOL    HW220514   3.557   3.772  11.733
 6588SOL     OW20515   3.703   3.899  12.135
 6588SOL    HW120516   3.742   3.814  12.099
 6588SOL    HW220517   3.605   3.901  12.116
 6589SOL     OW20518   2.534   3.927  12.661
 6589SOL    HW120519   2.624   3.911  12.621
 6589SOL    HW220520   2.542   3.932  12.760
 6590SOL     OW20521   1.937   4.069  11.205
 6590SOL    HW120522   1.845   4.041  11.176
 6590SOL    HW220523   1.968   4.146  11.149
 6591SOL     OW20524   1.934   3.890  11.490
 6591SOL    HW120525   1.917   3.973  11.436
 6591SOL    HW220526   2.024   3.853  11.468
 6592SOL     OW20527   3.087   4.049  11.621
 6592SOL    HW120528   3.152   3.975  11.610
 6592SOL    HW220529   3.107   4.099  11.705
 6593SOL     OW20530   3.639   4.066  12.814
 6593SOL    HW120531   3.622   4.097  12.720
 6593SOL    HW220532   3.555   4.029  12.852
 6594SOL     OW20533   3.686   3.916  12.399
 6594SOL    HW120534   3.682   3.826  12.443
 6594SOL    HW220535   3.689   3.905  12.300
 6595SOL     OW20536   3.286   3.938  12.284
 6595SOL    HW120537   3.338   3.873  12.339
 6595SOL    HW220538   3.237   4.001  12.345
 6596SOL     OW20539   2.863   3.758  12.326
 6596SOL    HW120540   2.800   3.686  12.295
 6596SOL    HW220541   2.956   3.722  12.326
 6597SOL     OW20542   3.214   3.776  11.340
 6597SOL    HW120543   3.249   3.735  11.256
 6597SOL    HW220544   3.124   3.738  11.360
 6598SOL     OW20545   3.162   4.177  11.863
 6598SOL    HW120546   3.103   4.257  11.867
 6598SOL    HW220547   3.177   4.142  11.956
 6599SOL     OW20548   3.455   3.945  12.054
 6599SOL    HW120549   3.371   3.944  12.108
 6599SOL    HW220550   3.457   4.028  11.998
 6600SOL     OW20551   1.881   4.092  13.681
 6600SOL    HW120552   1.799   4.135  13.720
 6600SOL    HW220553   1.853   4.019  13.618
 6601SOL     OW20554   3.617   4.331  13.265
 6601SOL    HW120555   3.605   4.318  13.166
 6601SOL    HW220556   3.587   4.250  13.314
 6602SOL     OW20557   3.465   4.171  13.771
 6602SOL    HW120558   3.391   4.217  13.721
 6602SOL    HW220559   3.516   4.239  13.824
 6603SOL     OW20560   2.671   3.728  13.536
 6603SOL    HW120561   2.711   3.819  13.527
 6603SOL    HW220562   2.571   3.736  13.542
 6604SOL     OW20563   3.262   3.831  13.460
 6604SOL    HW120564   3.238   3.794  13.370
 6604SOL    HW220565   3.361   3.847  13.464
 6605SOL     OW20566   2.476   3.846  13.151
 6605SOL    HW120567   2.574   3.824  13.158
 6605SOL    HW220568   2.445   3.829  13.058
 6606SOL     OW20569   2.401   3.788  13.546
 6606SOL    HW120570   2.320   3.789  13.604
 6606SOL    HW220571   2.404   3.871  13.491
 6607SOL     OW20572   2.159   3.759  13.205
 6607SOL    HW120573   2.208   3.843  13.184
 6607SOL    HW220574   2.221   3.694  13.250
 6608SOL     OW20575   2.879   3.763  13.787
 6608SOL    HW120576   2.807   3.768  13.718
 6608SOL    HW220577   2.855   3.694  13.856
 6609SOL     OW20578   3.402   3.998  13.159
 6609SOL    HW120579   3.341   3.923  13.182
 6609SOL    HW220580   3.424   4.050  13.242
 6610SOL     OW20581   2.765   3.810  13.167
 6610SOL    HW120582   2.816   3.811  13.081
 6610SOL    HW220583   2.821   3.768  13.238
 6611SOL     OW20584   3.588   3.859  13.557
 6611SOL    HW120585   3.661   3.842  13.490
 6611SOL    HW220586   3.557   3.772  13.595
 6612SOL     OW20587   3.703   3.899  13.997
 6612SOL    HW120588   3.742   3.814  13.961
 6612SOL    HW220589   3.605   3.901  13.978
 6613SOL     OW20590   1.937   4.069  13.067
 6613SOL    HW120591   1.845   4.041  13.038
 6613SOL    HW220592   1.968   4.146  13.011
 6614SOL     OW20593   1.934   3.890  13.352
 6614SOL    HW120594   1.917   3.973  13.298
 6614SOL    HW220595   2.024   3.853  13.330
 6615SOL     OW20596   3.087   4.049  13.483
 6615SOL    HW120597   3.152   3.975  13.472
 6615SOL    HW220598   3.107   4.099  13.567
 6616SOL     OW20599   3.214   3.776  13.202
 6616SOL    HW120600   3.249   3.735  13.118
 6616SOL    HW220601   3.124   3.738  13.222
 6617SOL     OW20602   3.162   4.177  13.725
 6617SOL    HW120603   3.103   4.257  13.729
 6617SOL    HW220604   3.177   4.142  13.818
 6618SOL     OW20605   3.954   0.628   0.113
 6618SOL    HW120606   3.861   0.626   0.150
 6618SOL    HW220607   3.955   0.589   0.021
 6619SOL     OW20608   3.949   0.275   0.996
 6619SOL    HW120609   3.984   0.258   1.088
 6619SOL    HW220610   3.861   0.230   0.984
 6620SOL     OW20611   3.743   0.368   0.647
 6620SOL    HW120612   3.661   0.411   0.686
 6620SOL    HW220613   3.715   0.295   0.584
 6621SOL     OW20614   4.059   1.435   1.061
 6621SOL    HW120615   3.981   1.404   1.008
 6621SOL    HW220616   4.117   1.493   1.004
 6622SOL     OW20617   3.955   1.713   0.483
 6622SOL    HW120618   3.989   1.790   0.537
 6622SOL    HW220619   3.999   1.713   0.393
 6623SOL     OW20620   3.954   1.434   0.538
 6623SOL    HW120621   3.928   1.530   0.538
 6623SOL    HW220622   3.883   1.380   0.583
 6624SOL     OW20623   3.846   0.643   0.563
 6624SOL    HW120624   3.801   0.555   0.580
 6624SOL    HW220625   3.845   0.697   0.647
 6625SOL     OW20626   3.751   1.596   0.117
 6625SOL    HW120627   3.732   1.500   0.138
 6625SOL    HW220628   3.718   1.654   0.192
 6626SOL     OW20629   3.837   0.737   1.597
 6626SOL    HW120630   3.925   0.724   1.642
 6626SOL    HW220631   3.824   0.834   1.575
 6627SOL     OW20632   3.800   0.811   0.789
 6627SOL    HW120633   3.899   0.799   0.798
 6627SOL    HW220634   3.776   0.906   0.810
 6628SOL     OW20635   3.854   1.821   1.571
 6628SOL    HW120636   3.844   1.806   1.670
 6628SOL    HW220637   3.768   1.857   1.535
 6629SOL     OW20638   3.926   0.285   1.498
 6629SOL    HW120639   3.846   0.345   1.485
 6629SOL    HW220640   3.916   0.236   1.584
 6630SOL     OW20641   3.802   0.556   1.386
 6630SOL    HW120642   3.894   0.555   1.345
 6630SOL    HW220643   3.796   0.630   1.453
 6631SOL     OW20644   3.788   1.564   1.331
 6631SOL    HW120645   3.742   1.646   1.297
 6631SOL    HW220646   3.886   1.583   1.340
 6632SOL     OW20647   4.091   1.100   0.501
 6632SOL    HW120648   4.084   1.183   0.445
 6632SOL    HW220649   4.095   1.020   0.441
 6633SOL     OW20650   4.031   0.213   1.231
 6633SOL    HW120651   4.008   0.250   1.321
 6633SOL    HW220652   4.001   0.118   1.225
 6634SOL     OW20653   3.761   1.310   1.282
 6634SOL    HW120654   3.814   1.261   1.350
 6634SOL    HW220655   3.783   1.408   1.287
 6635SOL     OW20656   3.732   1.326   0.200
 6635SOL    HW120657   3.639   1.347   0.169
 6635SOL    HW220658   3.742   1.227   0.213
 6636SOL     OW20659   3.812   1.801   0.927
 6636SOL    HW120660   3.770   1.715   0.900
 6636SOL    HW220661   3.906   1.804   0.893
 6637SOL     OW20662   4.228   1.568   0.910
 6637SOL    HW120663   4.294   1.642   0.919
 6637SOL    HW220664   4.272   1.489   0.868
 6638SOL     OW20665   3.764   0.544   1.114
 6638SOL    HW120666   3.849   0.511   1.073
 6638SOL    HW220667   3.777   0.559   1.212
 6639SOL     OW20668   3.913   0.520   1.722
 6639SOL    HW120669   3.972   0.480   1.652
 6639SOL    HW220670   3.855   0.591   1.681
 6640SOL     OW20671   3.976   1.564   1.744
 6640SOL    HW120672   3.946   1.621   1.820
 6640SOL    HW220673   3.969   1.467   1.770
 6641SOL     OW20674   3.883   1.137   1.466
 6641SOL    HW120675   3.905   1.076   1.542
 6641SOL    HW220676   3.893   1.088   1.380
 6642SOL     OW20677   3.807   1.258   1.022
 6642SOL    HW120678   3.802   1.257   1.122
 6642SOL    HW220679   3.724   1.217   0.984
 6643SOL     OW20680   3.854   1.794   1.851
 6643SOL    HW120681   3.813   1.720   1.904
 6643SOL    HW220682   3.918   1.845   1.909
 6644SOL     OW20683   3.799   0.345   0.033
 6644SOL    HW120684   3.707   0.317   0.004
 6644SOL    HW220685   3.830   0.422  -0.023
 6645SOL     OW20686   3.796   0.166   0.318
 6645SOL    HW120687   3.779   0.249   0.264
 6645SOL    HW220688   3.886   0.129   0.296
 6646SOL     OW20689   3.803   1.240   0.653
 6646SOL    HW120690   3.802   1.193   0.741
 6646SOL    HW220691   3.885   1.212   0.602
 6647SOL     OW20692   3.763   1.077   0.300
 6647SOL    HW120693   3.862   1.066   0.291
 6647SOL    HW220694   3.723   0.991   0.332
 6648SOL     OW20695   3.954   0.628   1.975
 6648SOL    HW120696   3.861   0.626   2.012
 6648SOL    HW220697   3.955   0.589   1.883
 6649SOL     OW20698   3.949   0.275   2.858
 6649SOL    HW120699   3.984   0.258   2.950
 6649SOL    HW220700   3.861   0.230   2.846
 6650SOL     OW20701   3.743   0.368   2.509
 6650SOL    HW120702   3.661   0.411   2.548
 6650SOL    HW220703   3.715   0.295   2.446
 6651SOL     OW20704   4.059   1.435   2.923
 6651SOL    HW120705   3.981   1.404   2.870
 6651SOL    HW220706   4.117   1.493   2.866
 6652SOL     OW20707   3.955   1.713   2.345
 6652SOL    HW120708   3.989   1.790   2.399
 6652SOL    HW220709   3.999   1.713   2.255
 6653SOL     OW20710   3.954   1.434   2.400
 6653SOL    HW120711   3.928   1.530   2.400
 6653SOL    HW220712   3.883   1.380   2.445
 6654SOL     OW20713   3.846   0.643   2.425
 6654SOL    HW120714   3.801   0.555   2.442
 6654SOL    HW220715   3.845   0.697   2.509
 6655SOL     OW20716   3.751   1.596   1.979
 6655SOL    HW120717   3.732   1.500   2.000
 6655SOL    HW220718   3.718   1.654   2.054
 6656SOL     OW20719   3.837   0.737   3.459
 6656SOL    HW120720   3.925   0.724   3.504
 6656SOL    HW220721   3.824   0.834   3.437
 6657SOL     OW20722   3.800   0.811   2.651
 6657SOL    HW120723   3.899   0.799   2.660
 6657SOL    HW220724   3.776   0.906   2.672
 6658SOL     OW20725   3.854   1.821   3.433
 6658SOL    HW120726   3.844   1.806   3.532
 6658SOL    HW220727   3.768   1.857   3.397
 6659SOL     OW20728   3.926   0.285   3.360
 6659SOL    HW120729   3.846   0.345   3.347
 6659SOL    HW220730   3.916   0.236   3.446
 6660SOL     OW20731   3.802   0.556   3.248
 6660SOL    HW120732   3.894   0.555   3.207
 6660SOL    HW220733   3.796   0.630   3.315
 6661SOL     OW20734   4.251   0.256   2.190
 6661SOL    HW120735   4.278   0.197   2.115
 6661SOL    HW220736   4.251   0.351   2.159
 6662SOL     OW20737   3.788   1.564   3.193
 6662SOL    HW120738   3.742   1.646   3.159
 6662SOL    HW220739   3.886   1.583   3.202
 6663SOL     OW20740   4.091   1.100   2.363
 6663SOL    HW120741   4.084   1.183   2.307
 6663SOL    HW220742   4.095   1.020   2.303
 6664SOL     OW20743   4.031   0.213   3.093
 6664SOL    HW120744   4.008   0.250   3.183
 6664SOL    HW220745   4.001   0.118   3.087
 6665SOL     OW20746   3.761   1.310   3.144
 6665SOL    HW120747   3.814   1.261   3.212
 6665SOL    HW220748   3.783   1.408   3.149
 6666SOL     OW20749   3.732   1.326   2.062
 6666SOL    HW120750   3.639   1.347   2.031
 6666SOL    HW220751   3.742   1.227   2.075
 6667SOL     OW20752   3.812   1.801   2.789
 6667SOL    HW120753   3.770   1.715   2.762
 6667SOL    HW220754   3.906   1.804   2.755
 6668SOL     OW20755   4.228   1.568   2.772
 6668SOL    HW120756   4.294   1.642   2.781
 6668SOL    HW220757   4.272   1.489   2.730
 6669SOL     OW20758   3.764   0.544   2.976
 6669SOL    HW120759   3.849   0.511   2.935
 6669SOL    HW220760   3.777   0.559   3.074
 6670SOL     OW20761   3.913   0.520   3.584
 6670SOL    HW120762   3.972   0.480   3.514
 6670SOL    HW220763   3.855   0.591   3.543
 6671SOL     OW20764   3.976   1.564   3.606
 6671SOL    HW120765   3.946   1.621   3.682
 6671SOL    HW220766   3.969   1.467   3.632
 6672SOL     OW20767   3.883   1.137   3.328
 6672SOL    HW120768   3.905   1.076   3.404
 6672SOL    HW220769   3.893   1.088   3.242
 6673SOL     OW20770   3.807   1.258   2.884
 6673SOL    HW120771   3.802   1.257   2.984
 6673SOL    HW220772   3.724   1.217   2.846
 6674SOL     OW20773   3.854   1.794   3.713
 6674SOL    HW120774   3.813   1.720   3.766
 6674SOL    HW220775   3.918   1.845   3.771
 6675SOL     OW20776   3.799   0.345   1.895
 6675SOL    HW120777   3.707   0.317   1.866
 6675SOL    HW220778   3.830   0.422   1.839
 6676SOL     OW20779   3.796   0.166   2.180
 6676SOL    HW120780   3.779   0.249   2.126
 6676SOL    HW220781   3.886   0.129   2.158
 6677SOL     OW20782   3.803   1.240   2.515
 6677SOL    HW120783   3.802   1.193   2.603
 6677SOL    HW220784   3.885   1.212   2.464
 6678SOL     OW20785   3.763   1.077   2.162
 6678SOL    HW120786   3.862   1.066   2.153
 6678SOL    HW220787   3.723   0.991   2.194
 6679SOL     OW20788   3.954   0.628   3.837
 6679SOL    HW120789   3.861   0.626   3.874
 6679SOL    HW220790   3.955   0.589   3.745
 6680SOL     OW20791   3.949   0.275   4.720
 6680SOL    HW120792   3.984   0.258   4.812
 6680SOL    HW220793   3.861   0.230   4.708
 6681SOL     OW20794   3.743   0.368   4.371
 6681SOL    HW120795   3.661   0.411   4.410
 6681SOL    HW220796   3.715   0.295   4.308
 6682SOL     OW20797   4.059   1.435   4.785
 6682SOL    HW120798   3.981   1.404   4.732
 6682SOL    HW220799   4.117   1.493   4.728
 6683SOL     OW20800   3.955   1.713   4.207
 6683SOL    HW120801   3.989   1.790   4.261
 6683SOL    HW220802   3.999   1.713   4.117
 6684SOL     OW20803   3.954   1.434   4.262
 6684SOL    HW120804   3.928   1.530   4.262
 6684SOL    HW220805   3.883   1.380   4.307
 6685SOL     OW20806   3.846   0.643   4.287
 6685SOL    HW120807   3.801   0.555   4.304
 6685SOL    HW220808   3.845   0.697   4.371
 6686SOL     OW20809   3.751   1.596   3.841
 6686SOL    HW120810   3.732   1.500   3.862
 6686SOL    HW220811   3.718   1.654   3.916
 6687SOL     OW20812   3.837   0.737   5.321
 6687SOL    HW120813   3.925   0.724   5.366
 6687SOL    HW220814   3.824   0.834   5.299
 6688SOL     OW20815   3.800   0.811   4.513
 6688SOL    HW120816   3.899   0.799   4.522
 6688SOL    HW220817   3.776   0.906   4.534
 6689SOL     OW20818   3.854   1.821   5.295
 6689SOL    HW120819   3.844   1.806   5.394
 6689SOL    HW220820   3.768   1.857   5.259
 6690SOL     OW20821   3.926   0.285   5.222
 6690SOL    HW120822   3.846   0.345   5.209
 6690SOL    HW220823   3.916   0.236   5.308
 6691SOL     OW20824   3.802   0.556   5.110
 6691SOL    HW120825   3.894   0.555   5.069
 6691SOL    HW220826   3.796   0.630   5.177
 6692SOL     OW20827   4.251   0.256   4.052
 6692SOL    HW120828   4.278   0.197   3.977
 6692SOL    HW220829   4.251   0.351   4.021
 6693SOL     OW20830   3.788   1.564   5.055
 6693SOL    HW120831   3.742   1.646   5.021
 6693SOL    HW220832   3.886   1.583   5.064
 6694SOL     OW20833   4.091   1.100   4.225
 6694SOL    HW120834   4.084   1.183   4.169
 6694SOL    HW220835   4.095   1.020   4.165
 6695SOL     OW20836   4.031   0.213   4.955
 6695SOL    HW120837   4.008   0.250   5.045
 6695SOL    HW220838   4.001   0.118   4.949
 6696SOL     OW20839   3.761   1.310   5.006
 6696SOL    HW120840   3.814   1.261   5.074
 6696SOL    HW220841   3.783   1.408   5.011
 6697SOL     OW20842   3.732   1.326   3.924
 6697SOL    HW120843   3.639   1.347   3.893
 6697SOL    HW220844   3.742   1.227   3.937
 6698SOL     OW20845   3.812   1.801   4.651
 6698SOL    HW120846   3.770   1.715   4.624
 6698SOL    HW220847   3.906   1.804   4.617
 6699SOL     OW20848   4.228   1.568   4.634
 6699SOL    HW120849   4.294   1.642   4.643
 6699SOL    HW220850   4.272   1.489   4.592
 6700SOL     OW20851   3.764   0.544   4.838
 6700SOL    HW120852   3.849   0.511   4.797
 6700SOL    HW220853   3.777   0.559   4.936
 6701SOL     OW20854   3.913   0.520   5.446
 6701SOL    HW120855   3.972   0.480   5.376
 6701SOL    HW220856   3.855   0.591   5.405
 6702SOL     OW20857   3.976   1.564   5.468
 6702SOL    HW120858   3.946   1.621   5.544
 6702SOL    HW220859   3.969   1.467   5.494
 6703SOL     OW20860   3.883   1.137   5.190
 6703SOL    HW120861   3.905   1.076   5.266
 6703SOL    HW220862   3.893   1.088   5.104
 6704SOL     OW20863   3.807   1.258   4.746
 6704SOL    HW120864   3.802   1.257   4.846
 6704SOL    HW220865   3.724   1.217   4.708
 6705SOL     OW20866   3.854   1.794   5.575
 6705SOL    HW120867   3.813   1.720   5.628
 6705SOL    HW220868   3.918   1.845   5.633
 6706SOL     OW20869   3.799   0.345   3.757
 6706SOL    HW120870   3.707   0.317   3.728
 6706SOL    HW220871   3.830   0.422   3.701
 6707SOL     OW20872   3.796   0.166   4.042
 6707SOL    HW120873   3.779   0.249   3.988
 6707SOL    HW220874   3.886   0.129   4.020
 6708SOL     OW20875   3.803   1.240   4.377
 6708SOL    HW120876   3.802   1.193   4.465
 6708SOL    HW220877   3.885   1.212   4.326
 6709SOL     OW20878   3.763   1.077   4.024
 6709SOL    HW120879   3.862   1.066   4.015
 6709SOL    HW220880   3.723   0.991   4.056
 6710SOL     OW20881   3.954   0.628   5.699
 6710SOL    HW120882   3.861   0.626   5.736
 6710SOL    HW220883   3.955   0.589   5.607
 6711SOL     OW20884   3.949   0.275   6.582
 6711SOL    HW120885   3.984   0.258   6.674
 6711SOL    HW220886   3.861   0.230   6.570
 6712SOL     OW20887   3.743   0.368   6.233
 6712SOL    HW120888   3.661   0.411   6.272
 6712SOL    HW220889   3.715   0.295   6.170
 6713SOL     OW20890   4.059   1.435   6.647
 6713SOL    HW120891   3.981   1.404   6.594
 6713SOL    HW220892   4.117   1.493   6.590
 6714SOL     OW20893   3.955   1.713   6.069
 6714SOL    HW120894   3.989   1.790   6.123
 6714SOL    HW220895   3.999   1.713   5.979
 6715SOL     OW20896   3.954   1.434   6.124
 6715SOL    HW120897   3.928   1.530   6.124
 6715SOL    HW220898   3.883   1.380   6.169
 6716SOL     OW20899   3.846   0.643   6.149
 6716SOL    HW120900   3.801   0.555   6.166
 6716SOL    HW220901   3.845   0.697   6.233
 6717SOL     OW20902   3.751   1.596   5.703
 6717SOL    HW120903   3.732   1.500   5.724
 6717SOL    HW220904   3.718   1.654   5.778
 6718SOL     OW20905   3.837   0.737   7.183
 6718SOL    HW120906   3.925   0.724   7.228
 6718SOL    HW220907   3.824   0.834   7.161
 6719SOL     OW20908   3.800   0.811   6.375
 6719SOL    HW120909   3.899   0.799   6.384
 6719SOL    HW220910   3.776   0.906   6.396
 6720SOL     OW20911   3.854   1.821   7.157
 6720SOL    HW120912   3.844   1.806   7.256
 6720SOL    HW220913   3.768   1.857   7.121
 6721SOL     OW20914   3.926   0.285   7.084
 6721SOL    HW120915   3.846   0.345   7.071
 6721SOL    HW220916   3.916   0.236   7.170
 6722SOL     OW20917   3.802   0.556   6.972
 6722SOL    HW120918   3.894   0.555   6.931
 6722SOL    HW220919   3.796   0.630   7.039
 6723SOL     OW20920   4.251   0.256   5.914
 6723SOL    HW120921   4.278   0.197   5.839
 6723SOL    HW220922   4.251   0.351   5.883
 6724SOL     OW20923   3.788   1.564   6.917
 6724SOL    HW120924   3.742   1.646   6.883
 6724SOL    HW220925   3.886   1.583   6.926
 6725SOL     OW20926   4.091   1.100   6.087
 6725SOL    HW120927   4.084   1.183   6.031
 6725SOL    HW220928   4.095   1.020   6.027
 6726SOL     OW20929   4.031   0.213   6.817
 6726SOL    HW120930   4.008   0.250   6.907
 6726SOL    HW220931   4.001   0.118   6.811
 6727SOL     OW20932   3.761   1.310   6.868
 6727SOL    HW120933   3.814   1.261   6.936
 6727SOL    HW220934   3.783   1.408   6.873
 6728SOL     OW20935   3.732   1.326   5.786
 6728SOL    HW120936   3.639   1.347   5.755
 6728SOL    HW220937   3.742   1.227   5.799
 6729SOL     OW20938   3.812   1.801   6.513
 6729SOL    HW120939   3.770   1.715   6.486
 6729SOL    HW220940   3.906   1.804   6.479
 6730SOL     OW20941   4.228   1.568   6.496
 6730SOL    HW120942   4.294   1.642   6.505
 6730SOL    HW220943   4.272   1.489   6.454
 6731SOL     OW20944   3.764   0.544   6.700
 6731SOL    HW120945   3.849   0.511   6.659
 6731SOL    HW220946   3.777   0.559   6.798
 6732SOL     OW20947   3.913   0.520   7.308
 6732SOL    HW120948   3.972   0.480   7.238
 6732SOL    HW220949   3.855   0.591   7.267
 6733SOL     OW20950   3.976   1.564   7.330
 6733SOL    HW120951   3.946   1.621   7.406
 6733SOL    HW220952   3.969   1.467   7.356
 6734SOL     OW20953   3.883   1.137   7.052
 6734SOL    HW120954   3.905   1.076   7.128
 6734SOL    HW220955   3.893   1.088   6.966
 6735SOL     OW20956   3.807   1.258   6.608
 6735SOL    HW120957   3.802   1.257   6.708
 6735SOL    HW220958   3.724   1.217   6.570
 6736SOL     OW20959   3.854   1.794   7.437
 6736SOL    HW120960   3.813   1.720   7.490
 6736SOL    HW220961   3.918   1.845   7.495
 6737SOL     OW20962   3.799   0.345   5.619
 6737SOL    HW120963   3.707   0.317   5.590
 6737SOL    HW220964   3.830   0.422   5.563
 6738SOL     OW20965   3.796   0.166   5.904
 6738SOL    HW120966   3.779   0.249   5.850
 6738SOL    HW220967   3.886   0.129   5.882
 6739SOL     OW20968   3.803   1.240   6.239
 6739SOL    HW120969   3.802   1.193   6.327
 6739SOL    HW220970   3.885   1.212   6.188
 6740SOL     OW20971   3.763   1.077   5.886
 6740SOL    HW120972   3.862   1.066   5.877
 6740SOL    HW220973   3.723   0.991   5.918
 6741SOL     OW20974   3.954   0.628   7.561
 6741SOL    HW120975   3.861   0.626   7.598
 6741SOL    HW220976   3.955   0.589   7.469
 6742SOL     OW20977   3.949   0.275   8.444
 6742SOL    HW120978   3.984   0.258   8.536
 6742SOL    HW220979   3.861   0.230   8.432
 6743SOL     OW20980   3.743   0.368   8.095
 6743SOL    HW120981   3.661   0.411   8.134
 6743SOL    HW220982   3.715   0.295   8.032
 6744SOL     OW20983   4.059   1.435   8.509
 6744SOL    HW120984   3.981   1.404   8.456
 6744SOL    HW220985   4.117   1.493   8.452
 6745SOL     OW20986   3.955   1.713   7.931
 6745SOL    HW120987   3.989   1.790   7.985
 6745SOL    HW220988   3.999   1.713   7.841
 6746SOL     OW20989   3.954   1.434   7.986
 6746SOL    HW120990   3.928   1.530   7.986
 6746SOL    HW220991   3.883   1.380   8.031
 6747SOL     OW20992   3.846   0.643   8.011
 6747SOL    HW120993   3.801   0.555   8.028
 6747SOL    HW220994   3.845   0.697   8.095
 6748SOL     OW20995   3.751   1.596   7.565
 6748SOL    HW120996   3.732   1.500   7.586
 6748SOL    HW220997   3.718   1.654   7.640
 6749SOL     OW20998   3.837   0.737   9.045
 6749SOL    HW120999   3.925   0.724   9.090
 6749SOL    HW221000   3.824   0.834   9.023
 6750SOL     OW21001   3.800   0.811   8.237
 6750SOL    HW121002   3.899   0.799   8.246
 6750SOL    HW221003   3.776   0.906   8.258
 6751SOL     OW21004   3.854   1.821   9.019
 6751SOL    HW121005   3.844   1.806   9.118
 6751SOL    HW221006   3.768   1.857   8.983
 6752SOL     OW21007   3.926   0.285   8.946
 6752SOL    HW121008   3.846   0.345   8.933
 6752SOL    HW221009   3.916   0.236   9.032
 6753SOL     OW21010   3.802   0.556   8.834
 6753SOL    HW121011   3.894   0.555   8.793
 6753SOL    HW221012   3.796   0.630   8.901
 6754SOL     OW21013   4.251   0.256   7.776
 6754SOL    HW121014   4.278   0.197   7.701
 6754SOL    HW221015   4.251   0.351   7.745
 6755SOL     OW21016   3.788   1.564   8.779
 6755SOL    HW121017   3.742   1.646   8.745
 6755SOL    HW221018   3.886   1.583   8.788
 6756SOL     OW21019   4.091   1.100   7.949
 6756SOL    HW121020   4.084   1.183   7.893
 6756SOL    HW221021   4.095   1.020   7.889
 6757SOL     OW21022   4.031   0.213   8.679
 6757SOL    HW121023   4.008   0.250   8.769
 6757SOL    HW221024   4.001   0.118   8.673
 6758SOL     OW21025   3.761   1.310   8.730
 6758SOL    HW121026   3.814   1.261   8.798
 6758SOL    HW221027   3.783   1.408   8.735
 6759SOL     OW21028   3.732   1.326   7.648
 6759SOL    HW121029   3.639   1.347   7.617
 6759SOL    HW221030   3.742   1.227   7.661
 6760SOL     OW21031   3.812   1.801   8.375
 6760SOL    HW121032   3.770   1.715   8.348
 6760SOL    HW221033   3.906   1.804   8.341
 6761SOL     OW21034   4.228   1.568   8.358
 6761SOL    HW121035   4.294   1.642   8.367
 6761SOL    HW221036   4.272   1.489   8.316
 6762SOL     OW21037   3.764   0.544   8.562
 6762SOL    HW121038   3.849   0.511   8.521
 6762SOL    HW221039   3.777   0.559   8.660
 6763SOL     OW21040   3.913   0.520   9.170
 6763SOL    HW121041   3.972   0.480   9.100
 6763SOL    HW221042   3.855   0.591   9.129
 6764SOL     OW21043   3.976   1.564   9.192
 6764SOL    HW121044   3.946   1.621   9.268
 6764SOL    HW221045   3.969   1.467   9.218
 6765SOL     OW21046   3.883   1.137   8.914
 6765SOL    HW121047   3.905   1.076   8.990
 6765SOL    HW221048   3.893   1.088   8.828
 6766SOL     OW21049   3.807   1.258   8.470
 6766SOL    HW121050   3.802   1.257   8.570
 6766SOL    HW221051   3.724   1.217   8.432
 6767SOL     OW21052   3.854   1.794   9.299
 6767SOL    HW121053   3.813   1.720   9.352
 6767SOL    HW221054   3.918   1.845   9.357
 6768SOL     OW21055   3.799   0.345   7.481
 6768SOL    HW121056   3.707   0.317   7.452
 6768SOL    HW221057   3.830   0.422   7.425
 6769SOL     OW21058   3.796   0.166   7.766
 6769SOL    HW121059   3.779   0.249   7.712
 6769SOL    HW221060   3.886   0.129   7.744
 6770SOL     OW21061   3.803   1.240   8.101
 6770SOL    HW121062   3.802   1.193   8.189
 6770SOL    HW221063   3.885   1.212   8.050
 6771SOL     OW21064   3.763   1.077   7.748
 6771SOL    HW121065   3.862   1.066   7.739
 6771SOL    HW221066   3.723   0.991   7.780
 6772SOL     OW21067   3.954   0.628   9.423
 6772SOL    HW121068   3.861   0.626   9.460
 6772SOL    HW221069   3.955   0.589   9.331
 6773SOL     OW21070   3.949   0.275  10.306
 6773SOL    HW121071   3.984   0.258  10.398
 6773SOL    HW221072   3.861   0.230  10.294
 6774SOL     OW21073   3.743   0.368   9.957
 6774SOL    HW121074   3.661   0.411   9.996
 6774SOL    HW221075   3.715   0.295   9.894
 6775SOL     OW21076   4.059   1.435  10.371
 6775SOL    HW121077   3.981   1.404  10.318
 6775SOL    HW221078   4.117   1.493  10.314
 6776SOL     OW21079   3.955   1.713   9.793
 6776SOL    HW121080   3.989   1.790   9.847
 6776SOL    HW221081   3.999   1.713   9.703
 6777SOL     OW21082   3.954   1.434   9.848
 6777SOL    HW121083   3.928   1.530   9.848
 6777SOL    HW221084   3.883   1.380   9.893
 6778SOL     OW21085   3.846   0.643   9.873
 6778SOL    HW121086   3.801   0.555   9.890
 6778SOL    HW221087   3.845   0.697   9.957
 6779SOL     OW21088   3.751   1.596   9.427
 6779SOL    HW121089   3.732   1.500   9.448
 6779SOL    HW221090   3.718   1.654   9.502
 6780SOL     OW21091   3.837   0.737  10.907
 6780SOL    HW121092   3.925   0.724  10.952
 6780SOL    HW221093   3.824   0.834  10.885
 6781SOL     OW21094   3.800   0.811  10.099
 6781SOL    HW121095   3.899   0.799  10.108
 6781SOL    HW221096   3.776   0.906  10.120
 6782SOL     OW21097   3.854   1.821  10.881
 6782SOL    HW121098   3.844   1.806  10.980
 6782SOL    HW221099   3.768   1.857  10.845
 6783SOL     OW21100   3.926   0.285  10.808
 6783SOL    HW121101   3.846   0.345  10.795
 6783SOL    HW221102   3.916   0.236  10.894
 6784SOL     OW21103   3.802   0.556  10.696
 6784SOL    HW121104   3.894   0.555  10.655
 6784SOL    HW221105   3.796   0.630  10.763
 6785SOL     OW21106   4.251   0.256   9.638
 6785SOL    HW121107   4.278   0.197   9.563
 6785SOL    HW221108   4.251   0.351   9.607
 6786SOL     OW21109   3.788   1.564  10.641
 6786SOL    HW121110   3.742   1.646  10.607
 6786SOL    HW221111   3.886   1.583  10.650
 6787SOL     OW21112   4.091   1.100   9.811
 6787SOL    HW121113   4.084   1.183   9.755
 6787SOL    HW221114   4.095   1.020   9.751
 6788SOL     OW21115   4.031   0.213  10.541
 6788SOL    HW121116   4.008   0.250  10.631
 6788SOL    HW221117   4.001   0.118  10.535
 6789SOL     OW21118   3.761   1.310  10.592
 6789SOL    HW121119   3.814   1.261  10.660
 6789SOL    HW221120   3.783   1.408  10.597
 6790SOL     OW21121   3.732   1.326   9.510
 6790SOL    HW121122   3.639   1.347   9.479
 6790SOL    HW221123   3.742   1.227   9.523
 6791SOL     OW21124   3.812   1.801  10.237
 6791SOL    HW121125   3.770   1.715  10.210
 6791SOL    HW221126   3.906   1.804  10.203
 6792SOL     OW21127   4.228   1.568  10.220
 6792SOL    HW121128   4.294   1.642  10.229
 6792SOL    HW221129   4.272   1.489  10.178
 6793SOL     OW21130   3.764   0.544  10.424
 6793SOL    HW121131   3.849   0.511  10.383
 6793SOL    HW221132   3.777   0.559  10.522
 6794SOL     OW21133   3.913   0.520  11.032
 6794SOL    HW121134   3.972   0.480  10.962
 6794SOL    HW221135   3.855   0.591  10.991
 6795SOL     OW21136   3.976   1.564  11.054
 6795SOL    HW121137   3.946   1.621  11.130
 6795SOL    HW221138   3.969   1.467  11.080
 6796SOL     OW21139   3.883   1.137  10.776
 6796SOL    HW121140   3.905   1.076  10.852
 6796SOL    HW221141   3.893   1.088  10.690
 6797SOL     OW21142   3.807   1.258  10.332
 6797SOL    HW121143   3.802   1.257  10.432
 6797SOL    HW221144   3.724   1.217  10.294
 6798SOL     OW21145   3.854   1.794  11.161
 6798SOL    HW121146   3.813   1.720  11.214
 6798SOL    HW221147   3.918   1.845  11.219
 6799SOL     OW21148   3.799   0.345   9.343
 6799SOL    HW121149   3.707   0.317   9.314
 6799SOL    HW221150   3.830   0.422   9.287
 6800SOL     OW21151   3.796   0.166   9.628
 6800SOL    HW121152   3.779   0.249   9.574
 6800SOL    HW221153   3.886   0.129   9.606
 6801SOL     OW21154   3.803   1.240   9.963
 6801SOL    HW121155   3.802   1.193  10.051
 6801SOL    HW221156   3.885   1.212   9.912
 6802SOL     OW21157   3.763   1.077   9.610
 6802SOL    HW121158   3.862   1.066   9.601
 6802SOL    HW221159   3.723   0.991   9.642
 6803SOL     OW21160   3.954   0.628  11.285
 6803SOL    HW121161   3.861   0.626  11.322
 6803SOL    HW221162   3.955   0.589  11.193
 6804SOL     OW21163   3.949   0.275  12.168
 6804SOL    HW121164   3.984   0.258  12.260
 6804SOL    HW221165   3.861   0.230  12.156
 6805SOL     OW21166   3.743   0.368  11.819
 6805SOL    HW121167   3.661   0.411  11.858
 6805SOL    HW221168   3.715   0.295  11.756
 6806SOL     OW21169   4.059   1.435  12.233
 6806SOL    HW121170   3.981   1.404  12.180
 6806SOL    HW221171   4.117   1.493  12.176
 6807SOL     OW21172   3.955   1.713  11.655
 6807SOL    HW121173   3.989   1.790  11.709
 6807SOL    HW221174   3.999   1.713  11.565
 6808SOL     OW21175   3.954   1.434  11.710
 6808SOL    HW121176   3.928   1.530  11.710
 6808SOL    HW221177   3.883   1.380  11.755
 6809SOL     OW21178   3.846   0.643  11.735
 6809SOL    HW121179   3.801   0.555  11.752
 6809SOL    HW221180   3.845   0.697  11.819
 6810SOL     OW21181   3.751   1.596  11.289
 6810SOL    HW121182   3.732   1.500  11.310
 6810SOL    HW221183   3.718   1.654  11.364
 6811SOL     OW21184   3.837   0.737  12.769
 6811SOL    HW121185   3.925   0.724  12.814
 6811SOL    HW221186   3.824   0.834  12.747
 6812SOL     OW21187   3.800   0.811  11.961
 6812SOL    HW121188   3.899   0.799  11.970
 6812SOL    HW221189   3.776   0.906  11.982
 6813SOL     OW21190   3.854   1.821  12.743
 6813SOL    HW121191   3.844   1.806  12.842
 6813SOL    HW221192   3.768   1.857  12.707
 6814SOL     OW21193   3.926   0.285  12.670
 6814SOL    HW121194   3.846   0.345  12.657
 6814SOL    HW221195   3.916   0.236  12.756
 6815SOL     OW21196   3.802   0.556  12.558
 6815SOL    HW121197   3.894   0.555  12.517
 6815SOL    HW221198   3.796   0.630  12.625
 6816SOL     OW21199   4.251   0.256  11.500
 6816SOL    HW121200   4.278   0.197  11.425
 6816SOL    HW221201   4.251   0.351  11.469
 6817SOL     OW21202   3.788   1.564  12.503
 6817SOL    HW121203   3.742   1.646  12.469
 6817SOL    HW221204   3.886   1.583  12.512
 6818SOL     OW21205   4.091   1.100  11.673
 6818SOL    HW121206   4.084   1.183  11.617
 6818SOL    HW221207   4.095   1.020  11.613
 6819SOL     OW21208   4.031   0.213  12.403
 6819SOL    HW121209   4.008   0.250  12.493
 6819SOL    HW221210   4.001   0.118  12.397
 6820SOL     OW21211   3.761   1.310  12.454
 6820SOL    HW121212   3.814   1.261  12.522
 6820SOL    HW221213   3.783   1.408  12.459
 6821SOL     OW21214   3.732   1.326  11.372
 6821SOL    HW121215   3.639   1.347  11.341
 6821SOL    HW221216   3.742   1.227  11.385
 6822SOL     OW21217   3.812   1.801  12.099
 6822SOL    HW121218   3.770   1.715  12.072
 6822SOL    HW221219   3.906   1.804  12.065
 6823SOL     OW21220   4.228   1.568  12.082
 6823SOL    HW121221   4.294   1.642  12.091
 6823SOL    HW221222   4.272   1.489  12.040
 6824SOL     OW21223   3.764   0.544  12.286
 6824SOL    HW121224   3.849   0.511  12.245
 6824SOL    HW221225   3.777   0.559  12.384
 6825SOL     OW21226   3.913   0.520  12.894
 6825SOL    HW121227   3.972   0.480  12.824
 6825SOL    HW221228   3.855   0.591  12.853
 6826SOL     OW21229   3.976   1.564  12.916
 6826SOL    HW121230   3.946   1.621  12.992
 6826SOL    HW221231   3.969   1.467  12.942
 6827SOL     OW21232   3.883   1.137  12.638
 6827SOL    HW121233   3.905   1.076  12.714
 6827SOL    HW221234   3.893   1.088  12.552
 6828SOL     OW21235   3.807   1.258  12.194
 6828SOL    HW121236   3.802   1.257  12.294
 6828SOL    HW221237   3.724   1.217  12.156
 6829SOL     OW21238   3.854   1.794  13.023
 6829SOL    HW121239   3.813   1.720  13.076
 6829SOL    HW221240   3.918   1.845  13.081
 6830SOL     OW21241   3.799   0.345  11.205
 6830SOL    HW121242   3.707   0.317  11.176
 6830SOL    HW221243   3.830   0.422  11.149
 6831SOL     OW21244   3.796   0.166  11.490
 6831SOL    HW121245   3.779   0.249  11.436
 6831SOL    HW221246   3.886   0.129  11.468
 6832SOL     OW21247   3.803   1.240  11.825
 6832SOL    HW121248   3.802   1.193  11.913
 6832SOL    HW221249   3.885   1.212  11.774
 6833SOL     OW21250   3.763   1.077  11.472
 6833SOL    HW121251   3.862   1.066  11.463
 6833SOL    HW221252   3.723   0.991  11.504
 6834SOL     OW21253   3.954   0.628  13.147
 6834SOL    HW121254   3.861   0.626  13.184
 6834SOL    HW221255   3.955   0.589  13.055
 6835SOL     OW21256   3.743   0.368  13.681
 6835SOL    HW121257   3.661   0.411  13.720
 6835SOL    HW221258   3.715   0.295  13.618
 6836SOL     OW21259   3.955   1.713  13.517
 6836SOL    HW121260   3.989   1.790  13.571
 6836SOL    HW221261   3.999   1.713  13.427
 6837SOL     OW21262   3.954   1.434  13.572
 6837SOL    HW121263   3.928   1.530  13.572
 6837SOL    HW221264   3.883   1.380  13.617
 6838SOL     OW21265   3.964   1.091  13.920
 6838SOL    HW121266   3.978   1.007  13.972
 6838SOL    HW221267   3.909   1.155  13.975
 6839SOL     OW21268   3.846   0.643  13.597
 6839SOL    HW121269   3.801   0.555  13.614
 6839SOL    HW221270   3.845   0.697  13.681
 6840SOL     OW21271   3.751   1.596  13.151
 6840SOL    HW121272   3.732   1.500  13.172
 6840SOL    HW221273   3.718   1.654  13.226
 6841SOL     OW21274   3.800   0.811  13.823
 6841SOL    HW121275   3.899   0.799  13.832
 6841SOL    HW221276   3.776   0.906  13.844
 6842SOL     OW21277   4.075   1.801  13.887
 6842SOL    HW121278   4.125   1.715  13.893
 6842SOL    HW221279   4.140   1.878  13.884
 6843SOL     OW21280   4.251   0.256  13.362
 6843SOL    HW121281   4.278   0.197  13.287
 6843SOL    HW221282   4.251   0.351  13.331
 6844SOL     OW21283   4.091   1.100  13.535
 6844SOL    HW121284   4.084   1.183  13.479
 6844SOL    HW221285   4.095   1.020  13.475
 6845SOL     OW21286   3.732   1.326  13.234
 6845SOL    HW121287   3.639   1.347  13.203
 6845SOL    HW221288   3.742   1.227  13.247
 6846SOL     OW21289   4.228   1.568  13.944
 6846SOL    HW121290   4.294   1.642  13.953
 6846SOL    HW221291   4.272   1.489  13.902
 6847SOL     OW21292   3.799   0.345  13.067
 6847SOL    HW121293   3.707   0.317  13.038
 6847SOL    HW221294   3.830   0.422  13.011
 6848SOL     OW21295   3.796   0.166  13.352
 6848SOL    HW121296   3.779   0.249  13.298
 6848SOL    HW221297   3.886   0.129  13.330
 6849SOL     OW21298   3.803   1.240  13.687
 6849SOL    HW121299   3.802   1.193  13.775
 6849SOL    HW221300   3.885   1.212  13.636
 6850SOL     OW21301   3.763   1.077  13.334
 6850SOL    HW121302   3.862   1.066  13.325
 6850SOL    HW221303   3.723   0.991  13.366
 6851SOL     OW21304   3.954   2.490   0.113
 6851SOL    HW121305   3.861   2.488   0.150
 6851SOL    HW221306   3.955   2.451   0.021
 6852SOL     OW21307   3.949   2.137   0.996
 6852SOL    HW121308   3.984   2.120   1.088
 6852SOL    HW221309   3.861   2.092   0.984
 6853SOL     OW21310   3.743   2.230   0.647
 6853SOL    HW121311   3.661   2.273   0.686
 6853SOL    HW221312   3.715   2.157   0.584
 6854SOL     OW21313   4.059   3.297   1.061
 6854SOL    HW121314   3.981   3.266   1.008
 6854SOL    HW221315   4.117   3.355   1.004
 6855SOL     OW21316   3.955   3.575   0.483
 6855SOL    HW121317   3.989   3.652   0.537
 6855SOL    HW221318   3.999   3.575   0.393
 6856SOL     OW21319   3.954   3.296   0.538
 6856SOL    HW121320   3.928   3.392   0.538
 6856SOL    HW221321   3.883   3.242   0.583
 6857SOL     OW21322   3.846   2.505   0.563
 6857SOL    HW121323   3.801   2.417   0.580
 6857SOL    HW221324   3.845   2.559   0.647
 6858SOL     OW21325   3.751   3.458   0.117
 6858SOL    HW121326   3.732   3.362   0.138
 6858SOL    HW221327   3.718   3.516   0.192
 6859SOL     OW21328   3.837   2.599   1.597
 6859SOL    HW121329   3.925   2.586   1.642
 6859SOL    HW221330   3.824   2.696   1.575
 6860SOL     OW21331   3.800   2.673   0.789
 6860SOL    HW121332   3.899   2.661   0.798
 6860SOL    HW221333   3.776   2.768   0.810
 6861SOL     OW21334   3.854   3.683   1.571
 6861SOL    HW121335   3.844   3.668   1.670
 6861SOL    HW221336   3.768   3.719   1.535
 6862SOL     OW21337   3.926   2.147   1.498
 6862SOL    HW121338   3.846   2.207   1.485
 6862SOL    HW221339   3.916   2.098   1.584
 6863SOL     OW21340   3.802   2.418   1.386
 6863SOL    HW121341   3.894   2.417   1.345
 6863SOL    HW221342   3.796   2.492   1.453
 6864SOL     OW21343   3.788   3.426   1.331
 6864SOL    HW121344   3.742   3.508   1.297
 6864SOL    HW221345   3.886   3.445   1.340
 6865SOL     OW21346   4.091   2.962   0.501
 6865SOL    HW121347   4.084   3.045   0.445
 6865SOL    HW221348   4.095   2.882   0.441
 6866SOL     OW21349   4.031   2.075   1.231
 6866SOL    HW121350   4.008   2.112   1.321
 6866SOL    HW221351   4.001   1.980   1.225
 6867SOL     OW21352   3.761   3.172   1.282
 6867SOL    HW121353   3.814   3.123   1.350
 6867SOL    HW221354   3.783   3.270   1.287
 6868SOL     OW21355   4.031   1.925   0.618
 6868SOL    HW121356   4.020   2.019   0.651
 6868SOL    HW221357   4.026   1.862   0.695
 6869SOL     OW21358   3.732   3.188   0.200
 6869SOL    HW121359   3.639   3.209   0.169
 6869SOL    HW221360   3.742   3.089   0.213
 6870SOL     OW21361   3.812   3.663   0.927
 6870SOL    HW121362   3.770   3.577   0.900
 6870SOL    HW221363   3.906   3.666   0.893
 6871SOL     OW21364   4.228   3.430   0.910
 6871SOL    HW121365   4.294   3.504   0.919
 6871SOL    HW221366   4.272   3.351   0.868
 6872SOL     OW21367   3.764   2.406   1.114
 6872SOL    HW121368   3.849   2.373   1.073
 6872SOL    HW221369   3.777   2.421   1.212
 6873SOL     OW21370   3.913   2.382   1.722
 6873SOL    HW121371   3.972   2.342   1.652
 6873SOL    HW221372   3.855   2.453   1.681
 6874SOL     OW21373   3.976   3.426   1.744
 6874SOL    HW121374   3.946   3.483   1.820
 6874SOL    HW221375   3.969   3.329   1.770
 6875SOL     OW21376   3.883   2.999   1.466
 6875SOL    HW121377   3.905   2.938   1.542
 6875SOL    HW221378   3.893   2.950   1.380
 6876SOL     OW21379   3.807   3.120   1.022
 6876SOL    HW121380   3.802   3.119   1.122
 6876SOL    HW221381   3.724   3.079   0.984
 6877SOL     OW21382   3.854   3.656   1.851
 6877SOL    HW121383   3.813   3.582   1.904
 6877SOL    HW221384   3.918   3.707   1.909
 6878SOL     OW21385   3.799   2.207   0.033
 6878SOL    HW121386   3.707   2.179   0.004
 6878SOL    HW221387   3.830   2.284  -0.023
 6879SOL     OW21388   3.796   2.028   0.318
 6879SOL    HW121389   3.779   2.111   0.264
 6879SOL    HW221390   3.886   1.991   0.296
 6880SOL     OW21391   3.803   3.102   0.653
 6880SOL    HW121392   3.802   3.055   0.741
 6880SOL    HW221393   3.885   3.074   0.602
 6881SOL     OW21394   3.763   2.939   0.300
 6881SOL    HW121395   3.862   2.928   0.291
 6881SOL    HW221396   3.723   2.853   0.332
 6882SOL     OW21397   3.954   2.490   1.975
 6882SOL    HW121398   3.861   2.488   2.012
 6882SOL    HW221399   3.955   2.451   1.883
 6883SOL     OW21400   3.949   2.137   2.858
 6883SOL    HW121401   3.984   2.120   2.950
 6883SOL    HW221402   3.861   2.092   2.846
 6884SOL     OW21403   3.743   2.230   2.509
 6884SOL    HW121404   3.661   2.273   2.548
 6884SOL    HW221405   3.715   2.157   2.446
 6885SOL     OW21406   4.059   3.297   2.923
 6885SOL    HW121407   3.981   3.266   2.870
 6885SOL    HW221408   4.117   3.355   2.866
 6886SOL     OW21409   3.955   3.575   2.345
 6886SOL    HW121410   3.989   3.652   2.399
 6886SOL    HW221411   3.999   3.575   2.255
 6887SOL     OW21412   3.954   3.296   2.400
 6887SOL    HW121413   3.928   3.392   2.400
 6887SOL    HW221414   3.883   3.242   2.445
 6888SOL     OW21415   3.846   2.505   2.425
 6888SOL    HW121416   3.801   2.417   2.442
 6888SOL    HW221417   3.845   2.559   2.509
 6889SOL     OW21418   3.751   3.458   1.979
 6889SOL    HW121419   3.732   3.362   2.000
 6889SOL    HW221420   3.718   3.516   2.054
 6890SOL     OW21421   3.837   2.599   3.459
 6890SOL    HW121422   3.925   2.586   3.504
 6890SOL    HW221423   3.824   2.696   3.437
 6891SOL     OW21424   3.800   2.673   2.651
 6891SOL    HW121425   3.899   2.661   2.660
 6891SOL    HW221426   3.776   2.768   2.672
 6892SOL     OW21427   3.854   3.683   3.433
 6892SOL    HW121428   3.844   3.668   3.532
 6892SOL    HW221429   3.768   3.719   3.397
 6893SOL     OW21430   3.926   2.147   3.360
 6893SOL    HW121431   3.846   2.207   3.347
 6893SOL    HW221432   3.916   2.098   3.446
 6894SOL     OW21433   4.021   1.897   2.033
 6894SOL    HW121434   4.070   1.981   2.012
 6894SOL    HW221435   4.083   1.832   2.078
 6895SOL     OW21436   3.802   2.418   3.248
 6895SOL    HW121437   3.894   2.417   3.207
 6895SOL    HW221438   3.796   2.492   3.315
 6896SOL     OW21439   4.251   2.118   2.190
 6896SOL    HW121440   4.278   2.059   2.115
 6896SOL    HW221441   4.251   2.213   2.159
 6897SOL     OW21442   3.788   3.426   3.193
 6897SOL    HW121443   3.742   3.508   3.159
 6897SOL    HW221444   3.886   3.445   3.202
 6898SOL     OW21445   4.091   2.962   2.363
 6898SOL    HW121446   4.084   3.045   2.307
 6898SOL    HW221447   4.095   2.882   2.303
 6899SOL     OW21448   4.031   2.075   3.093
 6899SOL    HW121449   4.008   2.112   3.183
 6899SOL    HW221450   4.001   1.980   3.087
 6900SOL     OW21451   3.761   3.172   3.144
 6900SOL    HW121452   3.814   3.123   3.212
 6900SOL    HW221453   3.783   3.270   3.149
 6901SOL     OW21454   4.031   1.925   2.480
 6901SOL    HW121455   4.020   2.019   2.513
 6901SOL    HW221456   4.026   1.862   2.557
 6902SOL     OW21457   3.732   3.188   2.062
 6902SOL    HW121458   3.639   3.209   2.031
 6902SOL    HW221459   3.742   3.089   2.075
 6903SOL     OW21460   3.812   3.663   2.789
 6903SOL    HW121461   3.770   3.577   2.762
 6903SOL    HW221462   3.906   3.666   2.755
 6904SOL     OW21463   4.228   3.430   2.772
 6904SOL    HW121464   4.294   3.504   2.781
 6904SOL    HW221465   4.272   3.351   2.730
 6905SOL     OW21466   3.764   2.406   2.976
 6905SOL    HW121467   3.849   2.373   2.935
 6905SOL    HW221468   3.777   2.421   3.074
 6906SOL     OW21469   3.913   2.382   3.584
 6906SOL    HW121470   3.972   2.342   3.514
 6906SOL    HW221471   3.855   2.453   3.543
 6907SOL     OW21472   3.976   3.426   3.606
 6907SOL    HW121473   3.946   3.483   3.682
 6907SOL    HW221474   3.969   3.329   3.632
 6908SOL     OW21475   3.883   2.999   3.328
 6908SOL    HW121476   3.905   2.938   3.404
 6908SOL    HW221477   3.893   2.950   3.242
 6909SOL     OW21478   3.807   3.120   2.884
 6909SOL    HW121479   3.802   3.119   2.984
 6909SOL    HW221480   3.724   3.079   2.846
 6910SOL     OW21481   3.854   3.656   3.713
 6910SOL    HW121482   3.813   3.582   3.766
 6910SOL    HW221483   3.918   3.707   3.771
 6911SOL     OW21484   3.799   2.207   1.895
 6911SOL    HW121485   3.707   2.179   1.866
 6911SOL    HW221486   3.830   2.284   1.839
 6912SOL     OW21487   3.796   2.028   2.180
 6912SOL    HW121488   3.779   2.111   2.126
 6912SOL    HW221489   3.886   1.991   2.158
 6913SOL     OW21490   3.803   3.102   2.515
 6913SOL    HW121491   3.802   3.055   2.603
 6913SOL    HW221492   3.885   3.074   2.464
 6914SOL     OW21493   3.763   2.939   2.162
 6914SOL    HW121494   3.862   2.928   2.153
 6914SOL    HW221495   3.723   2.853   2.194
 6915SOL     OW21496   3.954   2.490   3.837
 6915SOL    HW121497   3.861   2.488   3.874
 6915SOL    HW221498   3.955   2.451   3.745
 6916SOL     OW21499   3.949   2.137   4.720
 6916SOL    HW121500   3.984   2.120   4.812
 6916SOL    HW221501   3.861   2.092   4.708
 6917SOL     OW21502   3.743   2.230   4.371
 6917SOL    HW121503   3.661   2.273   4.410
 6917SOL    HW221504   3.715   2.157   4.308
 6918SOL     OW21505   4.059   3.297   4.785
 6918SOL    HW121506   3.981   3.266   4.732
 6918SOL    HW221507   4.117   3.355   4.728
 6919SOL     OW21508   3.955   3.575   4.207
 6919SOL    HW121509   3.989   3.652   4.261
 6919SOL    HW221510   3.999   3.575   4.117
 6920SOL     OW21511   3.954   3.296   4.262
 6920SOL    HW121512   3.928   3.392   4.262
 6920SOL    HW221513   3.883   3.242   4.307
 6921SOL     OW21514   3.846   2.505   4.287
 6921SOL    HW121515   3.801   2.417   4.304
 6921SOL    HW221516   3.845   2.559   4.371
 6922SOL     OW21517   3.751   3.458   3.841
 6922SOL    HW121518   3.732   3.362   3.862
 6922SOL    HW221519   3.718   3.516   3.916
 6923SOL     OW21520   3.837   2.599   5.321
 6923SOL    HW121521   3.925   2.586   5.366
 6923SOL    HW221522   3.824   2.696   5.299
 6924SOL     OW21523   3.800   2.673   4.513
 6924SOL    HW121524   3.899   2.661   4.522
 6924SOL    HW221525   3.776   2.768   4.534
 6925SOL     OW21526   3.854   3.683   5.295
 6925SOL    HW121527   3.844   3.668   5.394
 6925SOL    HW221528   3.768   3.719   5.259
 6926SOL     OW21529   3.926   2.147   5.222
 6926SOL    HW121530   3.846   2.207   5.209
 6926SOL    HW221531   3.916   2.098   5.308
 6927SOL     OW21532   4.021   1.897   3.895
 6927SOL    HW121533   4.070   1.981   3.874
 6927SOL    HW221534   4.083   1.832   3.940
 6928SOL     OW21535   3.802   2.418   5.110
 6928SOL    HW121536   3.894   2.417   5.069
 6928SOL    HW221537   3.796   2.492   5.177
 6929SOL     OW21538   4.251   2.118   4.052
 6929SOL    HW121539   4.278   2.059   3.977
 6929SOL    HW221540   4.251   2.213   4.021
 6930SOL     OW21541   3.788   3.426   5.055
 6930SOL    HW121542   3.742   3.508   5.021
 6930SOL    HW221543   3.886   3.445   5.064
 6931SOL     OW21544   4.091   2.962   4.225
 6931SOL    HW121545   4.084   3.045   4.169
 6931SOL    HW221546   4.095   2.882   4.165
 6932SOL     OW21547   4.031   2.075   4.955
 6932SOL    HW121548   4.008   2.112   5.045
 6932SOL    HW221549   4.001   1.980   4.949
 6933SOL     OW21550   3.761   3.172   5.006
 6933SOL    HW121551   3.814   3.123   5.074
 6933SOL    HW221552   3.783   3.270   5.011
 6934SOL     OW21553   4.031   1.925   4.342
 6934SOL    HW121554   4.020   2.019   4.375
 6934SOL    HW221555   4.026   1.862   4.419
 6935SOL     OW21556   3.732   3.188   3.924
 6935SOL    HW121557   3.639   3.209   3.893
 6935SOL    HW221558   3.742   3.089   3.937
 6936SOL     OW21559   3.812   3.663   4.651
 6936SOL    HW121560   3.770   3.577   4.624
 6936SOL    HW221561   3.906   3.666   4.617
 6937SOL     OW21562   4.228   3.430   4.634
 6937SOL    HW121563   4.294   3.504   4.643
 6937SOL    HW221564   4.272   3.351   4.592
 6938SOL     OW21565   3.764   2.406   4.838
 6938SOL    HW121566   3.849   2.373   4.797
 6938SOL    HW221567   3.777   2.421   4.936
 6939SOL     OW21568   3.913   2.382   5.446
 6939SOL    HW121569   3.972   2.342   5.376
 6939SOL    HW221570   3.855   2.453   5.405
 6940SOL     OW21571   3.976   3.426   5.468
 6940SOL    HW121572   3.946   3.483   5.544
 6940SOL    HW221573   3.969   3.329   5.494
 6941SOL     OW21574   3.883   2.999   5.190
 6941SOL    HW121575   3.905   2.938   5.266
 6941SOL    HW221576   3.893   2.950   5.104
 6942SOL     OW21577   3.807   3.120   4.746
 6942SOL    HW121578   3.802   3.119   4.846
 6942SOL    HW221579   3.724   3.079   4.708
 6943SOL     OW21580   3.854   3.656   5.575
 6943SOL    HW121581   3.813   3.582   5.628
 6943SOL    HW221582   3.918   3.707   5.633
 6944SOL     OW21583   3.799   2.207   3.757
 6944SOL    HW121584   3.707   2.179   3.728
 6944SOL    HW221585   3.830   2.284   3.701
 6945SOL     OW21586   3.796   2.028   4.042
 6945SOL    HW121587   3.779   2.111   3.988
 6945SOL    HW221588   3.886   1.991   4.020
 6946SOL     OW21589   3.803   3.102   4.377
 6946SOL    HW121590   3.802   3.055   4.465
 6946SOL    HW221591   3.885   3.074   4.326
 6947SOL     OW21592   3.763   2.939   4.024
 6947SOL    HW121593   3.862   2.928   4.015
 6947SOL    HW221594   3.723   2.853   4.056
 6948SOL     OW21595   3.954   2.490   5.699
 6948SOL    HW121596   3.861   2.488   5.736
 6948SOL    HW221597   3.955   2.451   5.607
 6949SOL     OW21598   3.949   2.137   6.582
 6949SOL    HW121599   3.984   2.120   6.674
 6949SOL    HW221600   3.861   2.092   6.570
 6950SOL     OW21601   3.743   2.230   6.233
 6950SOL    HW121602   3.661   2.273   6.272
 6950SOL    HW221603   3.715   2.157   6.170
 6951SOL     OW21604   4.059   3.297   6.647
 6951SOL    HW121605   3.981   3.266   6.594
 6951SOL    HW221606   4.117   3.355   6.590
 6952SOL     OW21607   3.955   3.575   6.069
 6952SOL    HW121608   3.989   3.652   6.123
 6952SOL    HW221609   3.999   3.575   5.979
 6953SOL     OW21610   3.954   3.296   6.124
 6953SOL    HW121611   3.928   3.392   6.124
 6953SOL    HW221612   3.883   3.242   6.169
 6954SOL     OW21613   3.846   2.505   6.149
 6954SOL    HW121614   3.801   2.417   6.166
 6954SOL    HW221615   3.845   2.559   6.233
 6955SOL     OW21616   3.751   3.458   5.703
 6955SOL    HW121617   3.732   3.362   5.724
 6955SOL    HW221618   3.718   3.516   5.778
 6956SOL     OW21619   3.837   2.599   7.183
 6956SOL    HW121620   3.925   2.586   7.228
 6956SOL    HW221621   3.824   2.696   7.161
 6957SOL     OW21622   3.800   2.673   6.375
 6957SOL    HW121623   3.899   2.661   6.384
 6957SOL    HW221624   3.776   2.768   6.396
 6958SOL     OW21625   3.854   3.683   7.157
 6958SOL    HW121626   3.844   3.668   7.256
 6958SOL    HW221627   3.768   3.719   7.121
 6959SOL     OW21628   3.926   2.147   7.084
 6959SOL    HW121629   3.846   2.207   7.071
 6959SOL    HW221630   3.916   2.098   7.170
 6960SOL     OW21631   4.021   1.897   5.757
 6960SOL    HW121632   4.070   1.981   5.736
 6960SOL    HW221633   4.083   1.832   5.802
 6961SOL     OW21634   3.802   2.418   6.972
 6961SOL    HW121635   3.894   2.417   6.931
 6961SOL    HW221636   3.796   2.492   7.039
 6962SOL     OW21637   4.251   2.118   5.914
 6962SOL    HW121638   4.278   2.059   5.839
 6962SOL    HW221639   4.251   2.213   5.883
 6963SOL     OW21640   3.788   3.426   6.917
 6963SOL    HW121641   3.742   3.508   6.883
 6963SOL    HW221642   3.886   3.445   6.926
 6964SOL     OW21643   4.091   2.962   6.087
 6964SOL    HW121644   4.084   3.045   6.031
 6964SOL    HW221645   4.095   2.882   6.027
 6965SOL     OW21646   4.031   2.075   6.817
 6965SOL    HW121647   4.008   2.112   6.907
 6965SOL    HW221648   4.001   1.980   6.811
 6966SOL     OW21649   3.761   3.172   6.868
 6966SOL    HW121650   3.814   3.123   6.936
 6966SOL    HW221651   3.783   3.270   6.873
 6967SOL     OW21652   4.031   1.925   6.204
 6967SOL    HW121653   4.020   2.019   6.237
 6967SOL    HW221654   4.026   1.862   6.281
 6968SOL     OW21655   3.732   3.188   5.786
 6968SOL    HW121656   3.639   3.209   5.755
 6968SOL    HW221657   3.742   3.089   5.799
 6969SOL     OW21658   3.812   3.663   6.513
 6969SOL    HW121659   3.770   3.577   6.486
 6969SOL    HW221660   3.906   3.666   6.479
 6970SOL     OW21661   4.228   3.430   6.496
 6970SOL    HW121662   4.294   3.504   6.505
 6970SOL    HW221663   4.272   3.351   6.454
 6971SOL     OW21664   3.764   2.406   6.700
 6971SOL    HW121665   3.849   2.373   6.659
 6971SOL    HW221666   3.777   2.421   6.798
 6972SOL     OW21667   3.913   2.382   7.308
 6972SOL    HW121668   3.972   2.342   7.238
 6972SOL    HW221669   3.855   2.453   7.267
 6973SOL     OW21670   3.976   3.426   7.330
 6973SOL    HW121671   3.946   3.483   7.406
 6973SOL    HW221672   3.969   3.329   7.356
 6974SOL     OW21673   3.883   2.999   7.052
 6974SOL    HW121674   3.905   2.938   7.128
 6974SOL    HW221675   3.893   2.950   6.966
 6975SOL     OW21676   3.807   3.120   6.608
 6975SOL    HW121677   3.802   3.119   6.708
 6975SOL    HW221678   3.724   3.079   6.570
 6976SOL     OW21679   3.854   3.656   7.437
 6976SOL    HW121680   3.813   3.582   7.490
 6976SOL    HW221681   3.918   3.707   7.495
 6977SOL     OW21682   3.799   2.207   5.619
 6977SOL    HW121683   3.707   2.179   5.590
 6977SOL    HW221684   3.830   2.284   5.563
 6978SOL     OW21685   3.796   2.028   5.904
 6978SOL    HW121686   3.779   2.111   5.850
 6978SOL    HW221687   3.886   1.991   5.882
 6979SOL     OW21688   3.803   3.102   6.239
 6979SOL    HW121689   3.802   3.055   6.327
 6979SOL    HW221690   3.885   3.074   6.188
 6980SOL     OW21691   3.763   2.939   5.886
 6980SOL    HW121692   3.862   2.928   5.877
 6980SOL    HW221693   3.723   2.853   5.918
 6981SOL     OW21694   3.954   2.490   7.561
 6981SOL    HW121695   3.861   2.488   7.598
 6981SOL    HW221696   3.955   2.451   7.469
 6982SOL     OW21697   3.949   2.137   8.444
 6982SOL    HW121698   3.984   2.120   8.536
 6982SOL    HW221699   3.861   2.092   8.432
 6983SOL     OW21700   3.743   2.230   8.095
 6983SOL    HW121701   3.661   2.273   8.134
 6983SOL    HW221702   3.715   2.157   8.032
 6984SOL     OW21703   4.059   3.297   8.509
 6984SOL    HW121704   3.981   3.266   8.456
 6984SOL    HW221705   4.117   3.355   8.452
 6985SOL     OW21706   3.955   3.575   7.931
 6985SOL    HW121707   3.989   3.652   7.985
 6985SOL    HW221708   3.999   3.575   7.841
 6986SOL     OW21709   3.954   3.296   7.986
 6986SOL    HW121710   3.928   3.392   7.986
 6986SOL    HW221711   3.883   3.242   8.031
 6987SOL     OW21712   3.846   2.505   8.011
 6987SOL    HW121713   3.801   2.417   8.028
 6987SOL    HW221714   3.845   2.559   8.095
 6988SOL     OW21715   3.751   3.458   7.565
 6988SOL    HW121716   3.732   3.362   7.586
 6988SOL    HW221717   3.718   3.516   7.640
 6989SOL     OW21718   3.837   2.599   9.045
 6989SOL    HW121719   3.925   2.586   9.090
 6989SOL    HW221720   3.824   2.696   9.023
 6990SOL     OW21721   3.800   2.673   8.237
 6990SOL    HW121722   3.899   2.661   8.246
 6990SOL    HW221723   3.776   2.768   8.258
 6991SOL     OW21724   3.854   3.683   9.019
 6991SOL    HW121725   3.844   3.668   9.118
 6991SOL    HW221726   3.768   3.719   8.983
 6992SOL     OW21727   3.926   2.147   8.946
 6992SOL    HW121728   3.846   2.207   8.933
 6992SOL    HW221729   3.916   2.098   9.032
 6993SOL     OW21730   4.021   1.897   7.619
 6993SOL    HW121731   4.070   1.981   7.598
 6993SOL    HW221732   4.083   1.832   7.664
 6994SOL     OW21733   3.802   2.418   8.834
 6994SOL    HW121734   3.894   2.417   8.793
 6994SOL    HW221735   3.796   2.492   8.901
 6995SOL     OW21736   4.251   2.118   7.776
 6995SOL    HW121737   4.278   2.059   7.701
 6995SOL    HW221738   4.251   2.213   7.745
 6996SOL     OW21739   3.788   3.426   8.779
 6996SOL    HW121740   3.742   3.508   8.745
 6996SOL    HW221741   3.886   3.445   8.788
 6997SOL     OW21742   4.091   2.962   7.949
 6997SOL    HW121743   4.084   3.045   7.893
 6997SOL    HW221744   4.095   2.882   7.889
 6998SOL     OW21745   4.031   2.075   8.679
 6998SOL    HW121746   4.008   2.112   8.769
 6998SOL    HW221747   4.001   1.980   8.673
 6999SOL     OW21748   3.761   3.172   8.730
 6999SOL    HW121749   3.814   3.123   8.798
 6999SOL    HW221750   3.783   3.270   8.735
 7000SOL     OW21751   4.031   1.925   8.066
 7000SOL    HW121752   4.020   2.019   8.099
 7000SOL    HW221753   4.026   1.862   8.143
 7001SOL     OW21754   3.732   3.188   7.648
 7001SOL    HW121755   3.639   3.209   7.617
 7001SOL    HW221756   3.742   3.089   7.661
 7002SOL     OW21757   3.812   3.663   8.375
 7002SOL    HW121758   3.770   3.577   8.348
 7002SOL    HW221759   3.906   3.666   8.341
 7003SOL     OW21760   4.228   3.430   8.358
 7003SOL    HW121761   4.294   3.504   8.367
 7003SOL    HW221762   4.272   3.351   8.316
 7004SOL     OW21763   3.764   2.406   8.562
 7004SOL    HW121764   3.849   2.373   8.521
 7004SOL    HW221765   3.777   2.421   8.660
 7005SOL     OW21766   3.913   2.382   9.170
 7005SOL    HW121767   3.972   2.342   9.100
 7005SOL    HW221768   3.855   2.453   9.129
 7006SOL     OW21769   3.976   3.426   9.192
 7006SOL    HW121770   3.946   3.483   9.268
 7006SOL    HW221771   3.969   3.329   9.218
 7007SOL     OW21772   3.883   2.999   8.914
 7007SOL    HW121773   3.905   2.938   8.990
 7007SOL    HW221774   3.893   2.950   8.828
 7008SOL     OW21775   3.807   3.120   8.470
 7008SOL    HW121776   3.802   3.119   8.570
 7008SOL    HW221777   3.724   3.079   8.432
 7009SOL     OW21778   3.854   3.656   9.299
 7009SOL    HW121779   3.813   3.582   9.352
 7009SOL    HW221780   3.918   3.707   9.357
 7010SOL     OW21781   3.799   2.207   7.481
 7010SOL    HW121782   3.707   2.179   7.452
 7010SOL    HW221783   3.830   2.284   7.425
 7011SOL     OW21784   3.796   2.028   7.766
 7011SOL    HW121785   3.779   2.111   7.712
 7011SOL    HW221786   3.886   1.991   7.744
 7012SOL     OW21787   3.803   3.102   8.101
 7012SOL    HW121788   3.802   3.055   8.189
 7012SOL    HW221789   3.885   3.074   8.050
 7013SOL     OW21790   3.763   2.939   7.748
 7013SOL    HW121791   3.862   2.928   7.739
 7013SOL    HW221792   3.723   2.853   7.780
 7014SOL     OW21793   3.954   2.490   9.423
 7014SOL    HW121794   3.861   2.488   9.460
 7014SOL    HW221795   3.955   2.451   9.331
 7015SOL     OW21796   3.949   2.137  10.306
 7015SOL    HW121797   3.984   2.120  10.398
 7015SOL    HW221798   3.861   2.092  10.294
 7016SOL     OW21799   3.743   2.230   9.957
 7016SOL    HW121800   3.661   2.273   9.996
 7016SOL    HW221801   3.715   2.157   9.894
 7017SOL     OW21802   4.059   3.297  10.371
 7017SOL    HW121803   3.981   3.266  10.318
 7017SOL    HW221804   4.117   3.355  10.314
 7018SOL     OW21805   3.955   3.575   9.793
 7018SOL    HW121806   3.989   3.652   9.847
 7018SOL    HW221807   3.999   3.575   9.703
 7019SOL     OW21808   3.954   3.296   9.848
 7019SOL    HW121809   3.928   3.392   9.848
 7019SOL    HW221810   3.883   3.242   9.893
 7020SOL     OW21811   3.846   2.505   9.873
 7020SOL    HW121812   3.801   2.417   9.890
 7020SOL    HW221813   3.845   2.559   9.957
 7021SOL     OW21814   3.751   3.458   9.427
 7021SOL    HW121815   3.732   3.362   9.448
 7021SOL    HW221816   3.718   3.516   9.502
 7022SOL     OW21817   3.837   2.599  10.907
 7022SOL    HW121818   3.925   2.586  10.952
 7022SOL    HW221819   3.824   2.696  10.885
 7023SOL     OW21820   3.800   2.673  10.099
 7023SOL    HW121821   3.899   2.661  10.108
 7023SOL    HW221822   3.776   2.768  10.120
 7024SOL     OW21823   3.854   3.683  10.881
 7024SOL    HW121824   3.844   3.668  10.980
 7024SOL    HW221825   3.768   3.719  10.845
 7025SOL     OW21826   3.926   2.147  10.808
 7025SOL    HW121827   3.846   2.207  10.795
 7025SOL    HW221828   3.916   2.098  10.894
 7026SOL     OW21829   4.021   1.897   9.481
 7026SOL    HW121830   4.070   1.981   9.460
 7026SOL    HW221831   4.083   1.832   9.526
 7027SOL     OW21832   3.802   2.418  10.696
 7027SOL    HW121833   3.894   2.417  10.655
 7027SOL    HW221834   3.796   2.492  10.763
 7028SOL     OW21835   4.251   2.118   9.638
 7028SOL    HW121836   4.278   2.059   9.563
 7028SOL    HW221837   4.251   2.213   9.607
 7029SOL     OW21838   3.788   3.426  10.641
 7029SOL    HW121839   3.742   3.508  10.607
 7029SOL    HW221840   3.886   3.445  10.650
 7030SOL     OW21841   4.091   2.962   9.811
 7030SOL    HW121842   4.084   3.045   9.755
 7030SOL    HW221843   4.095   2.882   9.751
 7031SOL     OW21844   4.031   2.075  10.541
 7031SOL    HW121845   4.008   2.112  10.631
 7031SOL    HW221846   4.001   1.980  10.535
 7032SOL     OW21847   3.761   3.172  10.592
 7032SOL    HW121848   3.814   3.123  10.660
 7032SOL    HW221849   3.783   3.270  10.597
 7033SOL     OW21850   4.031   1.925   9.928
 7033SOL    HW121851   4.020   2.019   9.961
 7033SOL    HW221852   4.026   1.862  10.005
 7034SOL     OW21853   3.732   3.188   9.510
 7034SOL    HW121854   3.639   3.209   9.479
 7034SOL    HW221855   3.742   3.089   9.523
 7035SOL     OW21856   3.812   3.663  10.237
 7035SOL    HW121857   3.770   3.577  10.210
 7035SOL    HW221858   3.906   3.666  10.203
 7036SOL     OW21859   4.228   3.430  10.220
 7036SOL    HW121860   4.294   3.504  10.229
 7036SOL    HW221861   4.272   3.351  10.178
 7037SOL     OW21862   3.764   2.406  10.424
 7037SOL    HW121863   3.849   2.373  10.383
 7037SOL    HW221864   3.777   2.421  10.522
 7038SOL     OW21865   3.913   2.382  11.032
 7038SOL    HW121866   3.972   2.342  10.962
 7038SOL    HW221867   3.855   2.453  10.991
 7039SOL     OW21868   3.976   3.426  11.054
 7039SOL    HW121869   3.946   3.483  11.130
 7039SOL    HW221870   3.969   3.329  11.080
 7040SOL     OW21871   3.883   2.999  10.776
 7040SOL    HW121872   3.905   2.938  10.852
 7040SOL    HW221873   3.893   2.950  10.690
 7041SOL     OW21874   3.807   3.120  10.332
 7041SOL    HW121875   3.802   3.119  10.432
 7041SOL    HW221876   3.724   3.079  10.294
 7042SOL     OW21877   3.854   3.656  11.161
 7042SOL    HW121878   3.813   3.582  11.214
 7042SOL    HW221879   3.918   3.707  11.219
 7043SOL     OW21880   3.799   2.207   9.343
 7043SOL    HW121881   3.707   2.179   9.314
 7043SOL    HW221882   3.830   2.284   9.287
 7044SOL     OW21883   3.796   2.028   9.628
 7044SOL    HW121884   3.779   2.111   9.574
 7044SOL    HW221885   3.886   1.991   9.606
 7045SOL     OW21886   3.803   3.102   9.963
 7045SOL    HW121887   3.802   3.055  10.051
 7045SOL    HW221888   3.885   3.074   9.912
 7046SOL     OW21889   3.763   2.939   9.610
 7046SOL    HW121890   3.862   2.928   9.601
 7046SOL    HW221891   3.723   2.853   9.642
 7047SOL     OW21892   3.954   2.490  11.285
 7047SOL    HW121893   3.861   2.488  11.322
 7047SOL    HW221894   3.955   2.451  11.193
 7048SOL     OW21895   3.949   2.137  12.168
 7048SOL    HW121896   3.984   2.120  12.260
 7048SOL    HW221897   3.861   2.092  12.156
 7049SOL     OW21898   3.743   2.230  11.819
 7049SOL    HW121899   3.661   2.273  11.858
 7049SOL    HW221900   3.715   2.157  11.756
 7050SOL     OW21901   4.059   3.297  12.233
 7050SOL    HW121902   3.981   3.266  12.180
 7050SOL    HW221903   4.117   3.355  12.176
 7051SOL     OW21904   3.955   3.575  11.655
 7051SOL    HW121905   3.989   3.652  11.709
 7051SOL    HW221906   3.999   3.575  11.565
 7052SOL     OW21907   3.954   3.296  11.710
 7052SOL    HW121908   3.928   3.392  11.710
 7052SOL    HW221909   3.883   3.242  11.755
 7053SOL     OW21910   3.846   2.505  11.735
 7053SOL    HW121911   3.801   2.417  11.752
 7053SOL    HW221912   3.845   2.559  11.819
 7054SOL     OW21913   3.751   3.458  11.289
 7054SOL    HW121914   3.732   3.362  11.310
 7054SOL    HW221915   3.718   3.516  11.364
 7055SOL     OW21916   3.837   2.599  12.769
 7055SOL    HW121917   3.925   2.586  12.814
 7055SOL    HW221918   3.824   2.696  12.747
 7056SOL     OW21919   3.800   2.673  11.961
 7056SOL    HW121920   3.899   2.661  11.970
 7056SOL    HW221921   3.776   2.768  11.982
 7057SOL     OW21922   3.854   3.683  12.743
 7057SOL    HW121923   3.844   3.668  12.842
 7057SOL    HW221924   3.768   3.719  12.707
 7058SOL     OW21925   3.926   2.147  12.670
 7058SOL    HW121926   3.846   2.207  12.657
 7058SOL    HW221927   3.916   2.098  12.756
 7059SOL     OW21928   4.021   1.897  11.343
 7059SOL    HW121929   4.070   1.981  11.322
 7059SOL    HW221930   4.083   1.832  11.388
 7060SOL     OW21931   3.802   2.418  12.558
 7060SOL    HW121932   3.894   2.417  12.517
 7060SOL    HW221933   3.796   2.492  12.625
 7061SOL     OW21934   4.251   2.118  11.500
 7061SOL    HW121935   4.278   2.059  11.425
 7061SOL    HW221936   4.251   2.213  11.469
 7062SOL     OW21937   3.788   3.426  12.503
 7062SOL    HW121938   3.742   3.508  12.469
 7062SOL    HW221939   3.886   3.445  12.512
 7063SOL     OW21940   4.091   2.962  11.673
 7063SOL    HW121941   4.084   3.045  11.617
 7063SOL    HW221942   4.095   2.882  11.613
 7064SOL     OW21943   4.031   2.075  12.403
 7064SOL    HW121944   4.008   2.112  12.493
 7064SOL    HW221945   4.001   1.980  12.397
 7065SOL     OW21946   3.761   3.172  12.454
 7065SOL    HW121947   3.814   3.123  12.522
 7065SOL    HW221948   3.783   3.270  12.459
 7066SOL     OW21949   4.031   1.925  11.790
 7066SOL    HW121950   4.020   2.019  11.823
 7066SOL    HW221951   4.026   1.862  11.867
 7067SOL     OW21952   3.732   3.188  11.372
 7067SOL    HW121953   3.639   3.209  11.341
 7067SOL    HW221954   3.742   3.089  11.385
 7068SOL     OW21955   3.812   3.663  12.099
 7068SOL    HW121956   3.770   3.577  12.072
 7068SOL    HW221957   3.906   3.666  12.065
 7069SOL     OW21958   4.228   3.430  12.082
 7069SOL    HW121959   4.294   3.504  12.091
 7069SOL    HW221960   4.272   3.351  12.040
 7070SOL     OW21961   3.764   2.406  12.286
 7070SOL    HW121962   3.849   2.373  12.245
 7070SOL    HW221963   3.777   2.421  12.384
 7071SOL     OW21964   3.913   2.382  12.894
 7071SOL    HW121965   3.972   2.342  12.824
 7071SOL    HW221966   3.855   2.453  12.853
 7072SOL     OW21967   3.976   3.426  12.916
 7072SOL    HW121968   3.946   3.483  12.992
 7072SOL    HW221969   3.969   3.329  12.942
 7073SOL     OW21970   3.883   2.999  12.638
 7073SOL    HW121971   3.905   2.938  12.714
 7073SOL    HW221972   3.893   2.950  12.552
 7074SOL     OW21973   3.807   3.120  12.194
 7074SOL    HW121974   3.802   3.119  12.294
 7074SOL    HW221975   3.724   3.079  12.156
 7075SOL     OW21976   3.854   3.656  13.023
 7075SOL    HW121977   3.813   3.582  13.076
 7075SOL    HW221978   3.918   3.707  13.081
 7076SOL     OW21979   3.799   2.207  11.205
 7076SOL    HW121980   3.707   2.179  11.176
 7076SOL    HW221981   3.830   2.284  11.149
 7077SOL     OW21982   3.796   2.028  11.490
 7077SOL    HW121983   3.779   2.111  11.436
 7077SOL    HW221984   3.886   1.991  11.468
 7078SOL     OW21985   3.803   3.102  11.825
 7078SOL    HW121986   3.802   3.055  11.913
 7078SOL    HW221987   3.885   3.074  11.774
 7079SOL     OW21988   3.763   2.939  11.472
 7079SOL    HW121989   3.862   2.928  11.463
 7079SOL    HW221990   3.723   2.853  11.504
 7080SOL     OW21991   3.954   2.490  13.147
 7080SOL    HW121992   3.861   2.488  13.184
 7080SOL    HW221993   3.955   2.451  13.055
 7081SOL     OW21994   3.743   2.230  13.681
 7081SOL    HW121995   3.661   2.273  13.720
 7081SOL    HW221996   3.715   2.157  13.618
 7082SOL     OW21997   3.955   3.575  13.517
 7082SOL    HW121998   3.989   3.652  13.571
 7082SOL    HW221999   3.999   3.575  13.427
 7083SOL     OW22000   3.954   3.296  13.572
 7083SOL    HW122001   3.928   3.392  13.572
 7083SOL    HW222002   3.883   3.242  13.617
 7084SOL     OW22003   3.964   2.953  13.920
 7084SOL    HW122004   3.978   2.869  13.972
 7084SOL    HW222005   3.909   3.017  13.975
 7085SOL     OW22006   3.846   2.505  13.597
 7085SOL    HW122007   3.801   2.417  13.614
 7085SOL    HW222008   3.845   2.559  13.681
 7086SOL     OW22009   3.751   3.458  13.151
 7086SOL    HW122010   3.732   3.362  13.172
 7086SOL    HW222011   3.718   3.516  13.226
 7087SOL     OW22012   3.800   2.673  13.823
 7087SOL    HW122013   3.899   2.661  13.832
 7087SOL    HW222014   3.776   2.768  13.844
 7088SOL     OW22015   4.075   3.663  13.887
 7088SOL    HW122016   4.125   3.577  13.893
 7088SOL    HW222017   4.140   3.740  13.884
 7089SOL     OW22018   4.021   1.897  13.205
 7089SOL    HW122019   4.070   1.981  13.184
 7089SOL    HW222020   4.083   1.832  13.250
 7090SOL     OW22021   4.251   2.118  13.362
 7090SOL    HW122022   4.278   2.059  13.287
 7090SOL    HW222023   4.251   2.213  13.331
 7091SOL     OW22024   4.091   2.962  13.535
 7091SOL    HW122025   4.084   3.045  13.479
 7091SOL    HW222026   4.095   2.882  13.475
 7092SOL     OW22027   4.031   1.925  13.652
 7092SOL    HW122028   4.020   2.019  13.685
 7092SOL    HW222029   4.026   1.862  13.729
 7093SOL     OW22030   3.732   3.188  13.234
 7093SOL    HW122031   3.639   3.209  13.203
 7093SOL    HW222032   3.742   3.089  13.247
 7094SOL     OW22033   4.228   3.430  13.944
 7094SOL    HW122034   4.294   3.504  13.953
 7094SOL    HW222035   4.272   3.351  13.902
 7095SOL     OW22036   3.799   2.207  13.067
 7095SOL    HW122037   3.707   2.179  13.038
 7095SOL    HW222038   3.830   2.284  13.011
 7096SOL     OW22039   3.796   2.028  13.352
 7096SOL    HW122040   3.779   2.111  13.298
 7096SOL    HW222041   3.886   1.991  13.330
 7097SOL     OW22042   3.803   3.102  13.687
 7097SOL    HW122043   3.802   3.055  13.775
 7097SOL    HW222044   3.885   3.074  13.636
 7098SOL     OW22045   3.763   2.939  13.334
 7098SOL    HW122046   3.862   2.928  13.325
 7098SOL    HW222047   3.723   2.853  13.366
 7099SOL     OW22048   3.949   3.999   0.996
 7099SOL    HW122049   3.984   3.982   1.088
 7099SOL    HW222050   3.861   3.954   0.984
 7100SOL     OW22051   3.743   4.092   0.647
 7100SOL    HW122052   3.661   4.135   0.686
 7100SOL    HW222053   3.715   4.019   0.584
 7101SOL     OW22054   3.926   4.009   1.498
 7101SOL    HW122055   3.846   4.069   1.485
 7101SOL    HW222056   3.916   3.960   1.584
 7102SOL     OW22057   4.021   3.759   0.171
 7102SOL    HW122058   4.070   3.843   0.150
 7102SOL    HW222059   4.083   3.694   0.216
 7103SOL     OW22060   4.031   3.937   1.231
 7103SOL    HW122061   4.008   3.974   1.321
 7103SOL    HW222062   4.001   3.842   1.225
 7104SOL     OW22063   4.031   3.787   0.618
 7104SOL    HW122064   4.020   3.881   0.651
 7104SOL    HW222065   4.026   3.724   0.695
 7105SOL     OW22066   3.796   3.890   0.318
 7105SOL    HW122067   3.779   3.973   0.264
 7105SOL    HW222068   3.886   3.853   0.296
 7106SOL     OW22069   3.949   3.999   2.858
 7106SOL    HW122070   3.984   3.982   2.950
 7106SOL    HW222071   3.861   3.954   2.846
 7107SOL     OW22072   3.743   4.092   2.509
 7107SOL    HW122073   3.661   4.135   2.548
 7107SOL    HW222074   3.715   4.019   2.446
 7108SOL     OW22075   3.926   4.009   3.360
 7108SOL    HW122076   3.846   4.069   3.347
 7108SOL    HW222077   3.916   3.960   3.446
 7109SOL     OW22078   4.021   3.759   2.033
 7109SOL    HW122079   4.070   3.843   2.012
 7109SOL    HW222080   4.083   3.694   2.078
 7110SOL     OW22081   4.031   3.937   3.093
 7110SOL    HW122082   4.008   3.974   3.183
 7110SOL    HW222083   4.001   3.842   3.087
 7111SOL     OW22084   4.031   3.787   2.480
 7111SOL    HW122085   4.020   3.881   2.513
 7111SOL    HW222086   4.026   3.724   2.557
 7112SOL     OW22087   3.799   4.069   1.895
 7112SOL    HW122088   3.707   4.041   1.866
 7112SOL    HW222089   3.830   4.146   1.839
 7113SOL     OW22090   3.796   3.890   2.180
 7113SOL    HW122091   3.779   3.973   2.126
 7113SOL    HW222092   3.886   3.853   2.158
 7114SOL     OW22093   3.949   3.999   4.720
 7114SOL    HW122094   3.984   3.982   4.812
 7114SOL    HW222095   3.861   3.954   4.708
 7115SOL     OW22096   3.743   4.092   4.371
 7115SOL    HW122097   3.661   4.135   4.410
 7115SOL    HW222098   3.715   4.019   4.308
 7116SOL     OW22099   3.926   4.009   5.222
 7116SOL    HW122100   3.846   4.069   5.209
 7116SOL    HW222101   3.916   3.960   5.308
 7117SOL     OW22102   4.021   3.759   3.895
 7117SOL    HW122103   4.070   3.843   3.874
 7117SOL    HW222104   4.083   3.694   3.940
 7118SOL     OW22105   4.031   3.937   4.955
 7118SOL    HW122106   4.008   3.974   5.045
 7118SOL    HW222107   4.001   3.842   4.949
 7119SOL     OW22108   4.031   3.787   4.342
 7119SOL    HW122109   4.020   3.881   4.375
 7119SOL    HW222110   4.026   3.724   4.419
 7120SOL     OW22111   3.799   4.069   3.757
 7120SOL    HW122112   3.707   4.041   3.728
 7120SOL    HW222113   3.830   4.146   3.701
 7121SOL     OW22114   3.796   3.890   4.042
 7121SOL    HW122115   3.779   3.973   3.988
 7121SOL    HW222116   3.886   3.853   4.020
 7122SOL     OW22117   3.949   3.999   6.582
 7122SOL    HW122118   3.984   3.982   6.674
 7122SOL    HW222119   3.861   3.954   6.570
 7123SOL     OW22120   3.743   4.092   6.233
 7123SOL    HW122121   3.661   4.135   6.272
 7123SOL    HW222122   3.715   4.019   6.170
 7124SOL     OW22123   3.926   4.009   7.084
 7124SOL    HW122124   3.846   4.069   7.071
 7124SOL    HW222125   3.916   3.960   7.170
 7125SOL     OW22126   4.021   3.759   5.757
 7125SOL    HW122127   4.070   3.843   5.736
 7125SOL    HW222128   4.083   3.694   5.802
 7126SOL     OW22129   4.031   3.937   6.817
 7126SOL    HW122130   4.008   3.974   6.907
 7126SOL    HW222131   4.001   3.842   6.811
 7127SOL     OW22132   4.031   3.787   6.204
 7127SOL    HW122133   4.020   3.881   6.237
 7127SOL    HW222134   4.026   3.724   6.281
 7128SOL     OW22135   3.799   4.069   5.619
 7128SOL    HW122136   3.707   4.041   5.590
 7128SOL    HW222137   3.830   4.146   5.563
 7129SOL     OW22138   3.796   3.890   5.904
 7129SOL    HW122139   3.779   3.973   5.850
 7129SOL    HW222140   3.886   3.853   5.882
 7130SOL     OW22141   3.949   3.999   8.444
 7130SOL    HW122142   3.984   3.982   8.536
 7130SOL    HW222143   3.861   3.954   8.432
 7131SOL     OW22144   3.743   4.092   8.095
 7131SOL    HW122145   3.661   4.135   8.134
 7131SOL    HW222146   3.715   4.019   8.032
 7132SOL     OW22147   3.926   4.009   8.946
 7132SOL    HW122148   3.846   4.069   8.933
 7132SOL    HW222149   3.916   3.960   9.032
 7133SOL     OW22150   4.021   3.759   7.619
 7133SOL    HW122151   4.070   3.843   7.598
 7133SOL    HW222152   4.083   3.694   7.664
 7134SOL     OW22153   4.031   3.937   8.679
 7134SOL    HW122154   4.008   3.974   8.769
 7134SOL    HW222155   4.001   3.842   8.673
 7135SOL     OW22156   4.031   3.787   8.066
 7135SOL    HW122157   4.020   3.881   8.099
 7135SOL    HW222158   4.026   3.724   8.143
 7136SOL     OW22159   3.799   4.069   7.481
 7136SOL    HW122160   3.707   4.041   7.452
 7136SOL    HW222161   3.830   4.146   7.425
 7137SOL     OW22162   3.796   3.890   7.766
 7137SOL    HW122163   3.779   3.973   7.712
 7137SOL    HW222164   3.886   3.853   7.744
 7138SOL     OW22165   3.949   3.999  10.306
 7138SOL    HW122166   3.984   3.982  10.398
 7138SOL    HW222167   3.861   3.954  10.294
 7139SOL     OW22168   3.743   4.092   9.957
 7139SOL    HW122169   3.661   4.135   9.996
 7139SOL    HW222170   3.715   4.019   9.894
 7140SOL     OW22171   3.926   4.009  10.808
 7140SOL    HW122172   3.846   4.069  10.795
 7140SOL    HW222173   3.916   3.960  10.894
 7141SOL     OW22174   4.021   3.759   9.481
 7141SOL    HW122175   4.070   3.843   9.460
 7141SOL    HW222176   4.083   3.694   9.526
 7142SOL     OW22177   4.031   3.937  10.541
 7142SOL    HW122178   4.008   3.974  10.631
 7142SOL    HW222179   4.001   3.842  10.535
 7143SOL     OW22180   4.031   3.787   9.928
 7143SOL    HW122181   4.020   3.881   9.961
 7143SOL    HW222182   4.026   3.724  10.005
 7144SOL     OW22183   3.799   4.069   9.343
 7144SOL    HW122184   3.707   4.041   9.314
 7144SOL    HW222185   3.830   4.146   9.287
 7145SOL     OW22186   3.796   3.890   9.628
 7145SOL    HW122187   3.779   3.973   9.574
 7145SOL    HW222188   3.886   3.853   9.606
 7146SOL     OW22189   3.949   3.999  12.168
 7146SOL    HW122190   3.984   3.982  12.260
 7146SOL    HW222191   3.861   3.954  12.156
 7147SOL     OW22192   3.743   4.092  11.819
 7147SOL    HW122193   3.661   4.135  11.858
 7147SOL    HW222194   3.715   4.019  11.756
 7148SOL     OW22195   3.926   4.009  12.670
 7148SOL    HW122196   3.846   4.069  12.657
 7148SOL    HW222197   3.916   3.960  12.756
 7149SOL     OW22198   4.021   3.759  11.343
 7149SOL    HW122199   4.070   3.843  11.322
 7149SOL    HW222200   4.083   3.694  11.388
 7150SOL     OW22201   4.031   3.937  12.403
 7150SOL    HW122202   4.008   3.974  12.493
 7150SOL    HW222203   4.001   3.842  12.397
 7151SOL     OW22204   4.031   3.787  11.790
 7151SOL    HW122205   4.020   3.881  11.823
 7151SOL    HW222206   4.026   3.724  11.867
 7152SOL     OW22207   3.799   4.069  11.205
 7152SOL    HW122208   3.707   4.041  11.176
 7152SOL    HW222209   3.830   4.146  11.149
 7153SOL     OW22210   3.796   3.890  11.490
 7153SOL    HW122211   3.779   3.973  11.436
 7153SOL    HW222212   3.886   3.853  11.468
 7154SOL     OW22213   3.743   4.092  13.681
 7154SOL    HW122214   3.661   4.135  13.720
 7154SOL    HW222215   3.715   4.019  13.618
 7155SOL     OW22216   4.021   3.759  13.205
 7155SOL    HW122217   4.070   3.843  13.184
 7155SOL    HW222218   4.083   3.694  13.250
 7156SOL     OW22219   4.031   3.787  13.652
 7156SOL    HW122220   4.020   3.881  13.685
 7156SOL    HW222221   4.026   3.724  13.729
 7157SOL     OW22222   3.799   4.069  13.067
 7157SOL    HW122223   3.707   4.041  13.038
 7157SOL    HW222224   3.830   4.146  13.011
 7158SOL     OW22225   3.796   3.890  13.352
 7158SOL    HW122226   3.779   3.973  13.298
 7158SOL    HW222227   3.886   3.853  13.330
   4.00000   4.00000  13.90000
