2gCDOC_1PEG_l11
21957
    1LIG      O    1   2.213   2.278   0.025
    1LIG      C    2   2.294   2.293   0.150
    1LIG     C1    3   2.222   2.237   0.281
    1LIG     O1    4   2.283   2.288   0.406
    1LIG     C2    5   2.222   2.234   0.529
    1LIG     C3    6   2.296   2.281   0.662
    1LIG     O2    7   2.234   2.222   0.781
    1LIG     C4    8   2.289   2.274   0.907
    1LIG     C5    9   2.209   2.221   1.033
    1LIG     O3   10   2.268   2.272   1.157
    1LIG     C6   11   2.210   2.221   1.280
    1LIG     C7   12   2.286   2.280   1.405
    1LIG     O4   13   2.217   2.244   1.528
    1LIG     C8   14   2.294   2.276   1.648
    1LIG     C9   15   2.218   2.225   1.774
    1LIG     O5   16   2.282   2.272   1.894
    1LIG    C10   17   2.222   2.221   2.016
    1LIG    C11   18   2.298   2.275   2.142
    1LIG     O6   19   2.243   2.215   2.263
    1LIG    C12   20   2.293   2.280   2.383
    1LIG    C13   21   2.216   2.227   2.509
    1LIG     O7   22   2.284   2.271   2.629
    1LIG    C14   23   2.213   2.245   2.753
    1LIG    C15   24   2.295   2.301   2.876
    1LIG     O8   25   2.245   2.249   3.003
    1LIG    C16   26   2.306   2.302   3.123
    1LIG    C17   27   2.233   2.239   3.247
    1LIG     O9   28   2.281   2.299   3.370
    1LIG    C18   29   2.223   2.239   3.489
    1LIG    C19   30   2.297   2.287   3.618
    1LIG    O10   31   2.230   2.239   3.737
    1LIG    C20   32   2.295   2.286   3.860
    1LIG    C21   33   2.217   2.236   3.986
    1LIG    O11   34   2.275   2.288   4.109
    1LIG    C22   35   2.212   2.234   4.228
    1LIG    C23   36   2.288   2.281   4.357
    1LIG    O12   37   2.225   2.229   4.477
    1LIG    C24   38   2.281   2.286   4.599
    1LIG    C25   39   2.196   2.242   4.723
    1LIG    O13   40   2.258   2.282   4.848
    1LIG    C26   41   2.195   2.222   4.966
    1LIG    C27   42   2.268   2.265   5.097
    1LIG    O14   43   2.202   2.219   5.216
    1LIG    C28   44   2.278   2.258   5.334
    1LIG    C29   45   2.209   2.211   5.464
    1LIG    O15   46   2.279   2.263   5.580
    1LIG    C30   47   2.223   2.218   5.706
    1LIG    C31   48   2.301   2.279   5.827
    1LIG    O16   49   2.239   2.230   5.949
    1LIG    C32   50   2.293   2.286   6.071
    1LIG    C33   51   2.210   2.236   6.194
    1LIG    O17   52   2.254   2.302   6.317
    1LIG    C34   53   2.182   2.257   6.435
    1LIG    C35   54   2.249   2.315   6.565
    1LIG    O18   55   2.197   2.254   6.685
    1LIG    C36   56   2.265   2.300   6.805
    1LIG    C37   57   2.206   2.228   6.931
    1LIG    O19   58   2.260   2.288   7.051
    1LIG    C38   59   2.209   2.225   7.172
    1LIG    C39   60   2.289   2.277   7.296
    1LIG    O20   61   2.228   2.231   7.419
    1LIG    C40   62   2.294   2.281   7.538
    1LIG    C41   63   2.219   2.231   7.665
    1LIG    O21   64   2.285   2.272   7.787
    1LIG    C42   65   2.214   2.229   7.905
    1LIG    C43   66   2.287   2.280   8.033
    1LIG    O22   67   2.232   2.218   8.152
    1LIG    C44   68   2.286   2.276   8.274
    1LIG    C45   69   2.211   2.221   8.400
    1LIG    O23   70   2.269   2.276   8.521
    1LIG    C46   71   2.216   2.220   8.643
    1LIG    C47   72   2.291   2.280   8.767
    1LIG    O24   73   2.220   2.249   8.890
    1LIG    C48   74   2.296   2.282   9.010
    1LIG    C49   75   2.224   2.227   9.137
    1LIG    O25   76   2.292   2.272   9.257
    1LIG    C50   77   2.230   2.227   9.380
    1LIG    C51   78   2.307   2.279   9.507
    1LIG    O26   79   2.246   2.225   9.628
    1LIG    C52   80   2.293   2.287   9.751
    1LIG    C53   81   2.211   2.232   9.873
    1LIG    O27   82   2.271   2.268  10.001
    1LIG    C54   83   2.205   2.218  10.122
    1LIG    C55   84   2.278   2.273  10.251
    1LIG    O28   85   2.213   2.235  10.378
    1LIG    C56   86   2.276   2.290  10.499
    1LIG    C57   87   2.213   2.225  10.629
    1LIG    O29   88   2.263   2.279  10.757
    1LIG    C58   89   2.198   2.216  10.874
    1LIG    C59   90   2.283   2.216  11.010
    1LIG      H   91   2.316   2.399   0.165
    1LIG     H1   92   2.391   2.242   0.138
    1LIG     H2   93   2.230   2.128   0.282
    1LIG     H3   94   2.116   2.263   0.279
    1LIG     H4   95   2.227   2.125   0.524
    1LIG     H5   96   2.117   2.262   0.534
    1LIG     H6   97   2.291   2.390   0.669
    1LIG     H7   98   2.401   2.251   0.658
    1LIG     H8   99   2.284   2.384   0.906
    1LIG     H9  100   2.394   2.245   0.917
    1LIG    H10  101   2.212   2.111   1.034
    1LIG    H11  102   2.104   2.253   1.026
    1LIG    H12  103   2.218   2.111   1.282
    1LIG    H13  104   2.104   2.248   1.285
    1LIG    H14  105   2.291   2.389   1.397
    1LIG    H15  106   2.388   2.240   1.408
    1LIG    H16  107   2.306   2.385   1.655
    1LIG    H17  108   2.393   2.230   1.643
    1LIG    H18  109   2.216   2.115   1.773
    1LIG    H19  110   2.115   2.262   1.770
    1LIG    H20  111   2.224   2.112   2.016
    1LIG    H21  112   2.118   2.254   2.022
    1LIG    H22  113   2.286   2.384   2.146
    1LIG    H23  114   2.405   2.252   2.134
    1LIG    H24  115   2.281   2.389   2.376
    1LIG    H25  116   2.400   2.257   2.393
    1LIG    H26  117   2.213   2.118   2.507
    1LIG    H27  118   2.114   2.266   2.508
    1LIG    H28  119   2.200   2.136   2.763
    1LIG    H29  120   2.114   2.292   2.749
    1LIG    H30  121   2.289   2.410   2.876
    1LIG    H31  122   2.400   2.271   2.866
    1LIG    H32  123   2.294   2.411   3.125
    1LIG    H33  124   2.412   2.277   3.125
    1LIG    H34  125   2.249   2.131   3.248
    1LIG    H35  126   2.126   2.259   3.237
    1LIG    H36  127   2.229   2.129   3.483
    1LIG    H37  128   2.117   2.267   3.496
    1LIG    H38  129   2.299   2.397   3.619
    1LIG    H39  130   2.400   2.250   3.616
    1LIG    H40  131   2.299   2.395   3.860
    1LIG    H41  132   2.398   2.248   3.864
    1LIG    H42  133   2.220   2.127   3.989
    1LIG    H43  134   2.112   2.268   3.980
    1LIG    H44  135   2.215   2.124   4.223
    1LIG    H45  136   2.108   2.265   4.232
    1LIG    H46  137   2.287   2.391   4.361
    1LIG    H47  138   2.392   2.247   4.353
    1LIG    H48  139   2.282   2.395   4.592
    1LIG    H49  140   2.385   2.252   4.610
    1LIG    H50  141   2.187   2.134   4.723
    1LIG    H51  142   2.096   2.285   4.717
    1LIG    H52  143   2.199   2.113   4.957
    1LIG    H53  144   2.090   2.253   4.970
    1LIG    H54  145   2.278   2.375   5.099
    1LIG    H55  146   2.367   2.219   5.095
    1LIG    H56  147   2.286   2.366   5.336
    1LIG    H57  148   2.380   2.218   5.330
    1LIG    H58  149   2.208   2.101   5.467
    1LIG    H59  150   2.105   2.248   5.464
    1LIG    H60  151   2.225   2.109   5.710
    1LIG    H61  152   2.119   2.251   5.713
    1LIG    H62  153   2.296   2.388   5.824
    1LIG    H63  154   2.406   2.248   5.824
    1LIG    H64  155   2.288   2.395   6.066
    1LIG    H65  156   2.398   2.256   6.082
    1LIG    H66  157   2.222   2.127   6.204
    1LIG    H67  158   2.103   2.257   6.178
    1LIG    H68  159   2.183   2.148   6.438
    1LIG    H69  160   2.078   2.289   6.430
    1LIG    H70  161   2.234   2.424   6.569
    1LIG    H71  162   2.357   2.299   6.563
    1LIG    H72  163   2.251   2.408   6.815
    1LIG    H73  164   2.373   2.280   6.799
    1LIG    H74  165   2.229   2.121   6.927
    1LIG    H75  166   2.097   2.240   6.931
    1LIG    H76  167   2.220   2.116   7.166
    1LIG    H77  168   2.103   2.250   7.183
    1LIG    H78  169   2.289   2.387   7.296
    1LIG    H79  170   2.392   2.242   7.291
    1LIG    H80  171   2.295   2.391   7.537
    1LIG    H81  172   2.398   2.246   7.540
    1LIG    H82  173   2.216   2.122   7.663
    1LIG    H83  174   2.115   2.268   7.665
    1LIG    H84  175   2.211   2.119   7.906
    1LIG    H85  176   2.110   2.266   7.904
    1LIG    H86  177   2.276   2.389   8.039
    1LIG    H87  178   2.394   2.256   8.026
    1LIG    H88  179   2.276   2.385   8.271
    1LIG    H89  180   2.393   2.251   8.281
    1LIG    H90  181   2.218   2.112   8.401
    1LIG    H91  182   2.105   2.249   8.394
    1LIG    H92  183   2.227   2.111   8.643
    1LIG    H93  184   2.109   2.245   8.650
    1LIG    H94  185   2.296   2.390   8.756
    1LIG    H95  186   2.394   2.241   8.770
    1LIG    H96  187   2.305   2.390   9.017
    1LIG    H97  188   2.397   2.241   9.004
    1LIG    H98  189   2.223   2.117   9.134
    1LIG    H99  190   2.120   2.262   9.138
    1LIG   H100  191   2.227   2.117   9.381
    1LIG   H101  192   2.128   2.265   9.384
    1LIG   H102  193   2.302   2.388   9.508
    1LIG   H103  194   2.412   2.248   9.502
    1LIG   H104  195   2.282   2.396   9.745
    1LIG   H105  196   2.399   2.263   9.764
    1LIG   H106  197   2.210   2.123   9.864
    1LIG   H107  198   2.108   2.268   9.868
    1LIG   H108  199   2.208   2.108  10.122
    1LIG   H109  200   2.100   2.249  10.122
    1LIG   H110  201   2.280   2.383  10.246
    1LIG   H111  202   2.381   2.236  10.252
    1LIG   H112  203   2.261   2.399  10.500
    1LIG   H113  204   2.384   2.271  10.496
    1LIG   H114  205   2.233   2.117  10.626
    1LIG   H115  206   2.105   2.239  10.625
    1LIG   H116  207   2.180   2.111  10.849
    1LIG   H117  208   2.100   2.262  10.890
    1LIG   H118  209   2.381   2.262  10.994
    1LIG   H119  210   2.301   2.111  11.036
    2MOL     C1  211   2.777   1.798   5.152
    2MOL     H1  212   2.798   1.691   5.167
    2MOL     O1  213   2.818   1.837   5.021
    2MOL     C2  214   2.801   1.976   4.987
    2MOL     H2  215   2.696   2.006   5.002
    2MOL     C3  216   2.833   1.990   4.837
    2MOL     H3  217   2.789   2.082   4.798
    2MOL     H4  218   2.789   1.905   4.783
    2MOL     O2  219   2.976   1.993   4.820
    2MOL     C4  220   3.020   1.984   4.685
    2MOL     C5  221   2.860   1.879   5.257
    2MOL     H5  222   2.963   1.842   5.254
    2MOL     O3  223   2.805   1.862   5.391
    2MOL     C6  224   2.834   1.734   5.451
    2MOL     C7  225   2.865   2.032   5.228
    2MOL     H6  226   2.769   2.077   5.254
    2MOL     O4  227   2.972   2.089   5.306
    2MOL     C8  228   2.931   2.185   5.404
    2MOL     C9  229   2.894   2.060   5.079
    2MOL     H7  230   2.998   2.031   5.060
    2MOL     O5  231   2.874   2.202   5.054
    2MOL    C10  232   2.970   2.267   4.967
    2MOL     H8  233   3.052   2.198   4.944
    2MOL     O6  234   2.906   2.308   4.844
    2MOL    C11  235   2.793   2.394   4.865
    2MOL     H9  236   2.731   2.344   4.939
    2MOL    C12  237   2.711   2.408   4.735
    2MOL    H10  238   2.611   2.446   4.760
    2MOL    H11  239   2.697   2.310   4.688
    2MOL     O7  240   2.776   2.499   4.644
    2MOL    C13  241   2.687   2.537   4.538
    2MOL    C14  242   3.027   2.394   5.036
    2MOL    H12  243   3.105   2.437   4.972
    2MOL     O8  244   3.082   2.360   5.165
    2MOL    C15  245   3.206   2.287   5.162
    2MOL    C16  246   2.918   2.502   5.057
    2MOL    H13  247   2.849   2.467   5.135
    2MOL     O9  248   2.983   2.625   5.095
    2MOL    C17  249   2.959   2.664   5.231
    2MOL    C18  250   2.837   2.528   4.928
    2MOL    H14  251   2.899   2.585   4.858
    2MOL    O10  252   2.719   2.601   4.967
    2MOL    C19  253   2.677   2.710   4.884
    2MOL    H15  254   2.752   2.730   4.808
    2MOL    O11  255   2.550   2.676   4.823
    2MOL    C20  256   2.439   2.662   4.915
    2MOL    H16  257   2.464   2.590   4.994
    2MOL    C21  258   2.315   2.610   4.841
    2MOL    H17  259   2.239   2.578   4.913
    2MOL    H18  260   2.342   2.524   4.779
    2MOL    O12  261   2.265   2.717   4.760
    2MOL    C22  262   2.156   2.682   4.676
    2MOL    C23  263   2.661   2.837   4.973
    2MOL    H19  264   2.641   2.923   4.910
    2MOL    O13  265   2.782   2.861   5.046
    2MOL    C24  266   2.889   2.913   4.966
    2MOL    C25  267   2.540   2.828   5.068
    2MOL    H20  268   2.554   2.745   5.140
    2MOL    O14  269   2.525   2.954   5.135
    2MOL    C26  270   2.592   2.957   5.261
    2MOL    C27  271   2.415   2.797   4.981
    2MOL    H21  272   2.402   2.875   4.904
    2MOL    O15  273   2.294   2.784   5.057
    2MOL    C28  274   2.229   2.904   5.097
    2MOL    H22  275   2.300   2.990   5.093
    2MOL    O16  276   2.116   2.930   5.017
    2MOL    C29  277   2.021   2.822   5.009
    2MOL    H23  278   2.070   2.733   4.970
    2MOL    C30  279   1.919   2.873   4.906
    2MOL    H24  280   1.866   2.789   4.860
    2MOL    H25  281   1.974   2.926   4.827
    2MOL    O17  282   1.828   2.963   4.972
    2MOL    C31  283   1.741   3.034   4.883
    2MOL    C32  284   2.186   2.883   5.239
    2MOL    H26  285   2.143   2.973   5.282
    2MOL    O18  286   2.315   2.854   5.295
    2MOL    C33  287   2.320   2.881   5.429
    2MOL    C34  288   2.082   2.764   5.251
    2MOL    H27  289   2.130   2.670   5.227
    2MOL    O19  290   2.023   2.762   5.385
    2MOL    C35  291   1.995   2.630   5.438
    2MOL    C36  292   1.965   2.793   5.152
    2MOL    H28  293   1.912   2.879   5.190
    2MOL    O20  294   1.878   2.676   5.149
    2MOL    C37  295   1.739   2.707   5.121
    2MOL    H29  296   1.721   2.814   5.129
    2MOL    O21  297   1.709   2.663   4.987
    2MOL    C38  298   1.727   2.523   4.961
    2MOL    H30  299   1.830   2.493   4.989
    2MOL    C39  300   1.715   2.499   4.809
    2MOL    H31  301   1.752   2.398   4.786
    2MOL    H32  302   1.779   2.571   4.757
    2MOL    O22  303   1.578   2.513   4.768
    2MOL    C40  304   1.557   2.479   4.630
    2MOL    C41  305   1.644   2.634   5.221
    2MOL    H33  306   1.542   2.674   5.206
    2MOL    O23  307   1.686   2.657   5.357
    2MOL    C42  308   1.672   2.791   5.407
    2MOL    C43  309   1.640   2.483   5.198
    2MOL    H34  310   1.734   2.439   5.236
    2MOL    O24  311   1.526   2.431   5.269
    2MOL    C44  312   1.561   2.354   5.384
    2MOL    C45  313   1.627   2.444   5.049
    2MOL    H35  314   1.524   2.469   5.017
    2MOL    O25  315   1.652   2.302   5.039
    2MOL    C46  316   1.569   2.228   4.949
    2MOL    H36  317   1.489   2.293   4.909
    2MOL    O26  318   1.650   2.180   4.839
    2MOL    C47  319   1.760   2.092   4.878
    2MOL    H37  320   1.824   2.140   4.953
    2MOL    C48  321   1.844   2.062   4.753
    2MOL    H38  322   1.941   2.020   4.782
    2MOL    H39  323   1.863   2.155   4.698
    2MOL    O27  324   1.771   1.970   4.669
    2MOL    C49  325   1.838   1.929   4.550
    2MOL    C50  326   1.503   2.107   5.022
    2MOL    H40  327   1.431   2.061   4.954
    2MOL    O28  328   1.437   2.151   5.142
    2MOL    C51  329   1.314   2.222   5.122
    2MOL    C52  330   1.607   1.999   5.061
    2MOL    H41  331   1.670   2.035   5.144
    2MOL    O29  332   1.536   1.878   5.094
    2MOL    C53  333   1.518   1.854   5.234
    2MOL    C54  334   1.697   1.965   4.941
    2MOL    H42  335   1.633   1.917   4.867
    2MOL    O30  336   1.800   1.875   4.986
    2MOL    C55  337   1.815   1.754   4.907
    2MOL    H43  338   1.728   1.739   4.843
    2MOL    O31  339   1.933   1.765   4.825
    2MOL    C56  340   2.057   1.783   4.896
    2MOL    H44  341   2.057   1.877   4.952
    2MOL    C57  342   2.174   1.781   4.796
    2MOL    H45  343   2.167   1.692   4.732
    2MOL    H46  344   2.268   1.778   4.850
    2MOL    O32  345   2.172   1.899   4.715
    2MOL    C58  346   2.289   1.907   4.632
    2MOL    C59  347   1.828   1.631   4.999
    2MOL    H47  348   1.835   1.541   4.936
    2MOL    O33  349   1.713   1.621   5.086
    2MOL    C60  350   1.591   1.580   5.021
    2MOL    C61  351   1.955   1.641   5.086
    2MOL    H48  352   1.947   1.728   5.152
    2MOL    O34  353   1.975   1.519   5.161
    2MOL    C62  354   1.907   1.511   5.288
    2MOL    C63  355   2.078   1.666   4.994
    2MOL    H49  356   2.100   1.575   4.937
    2MOL    O35  357   2.189   1.705   5.075
    2MOL    C64  358   2.274   1.598   5.114
    2MOL    H50  359   2.217   1.504   5.117
    2MOL    O36  360   2.382   1.585   5.021
    2MOL    C65  361   2.478   1.693   5.017
    2MOL    H51  362   2.429   1.789   4.993
    2MOL    C66  363   2.572   1.654   4.905
    2MOL    H52  364   2.599   1.549   4.921
    2MOL    H53  365   2.662   1.715   4.903
    2MOL    O37  366   2.501   1.668   4.782
    2MOL    C67  367   2.571   1.612   4.672
    2MOL    C68  368   2.330   1.626   5.252
    2MOL    H54  369   2.372   1.531   5.286
    2MOL    O38  370   2.224   1.670   5.336
    2MOL    C69  371   2.180   1.562   5.414
    2MOL    C70  372   2.440   1.730   5.261
    2MOL    H55  373   2.395   1.829   5.244
    2MOL    O39  374   2.499   1.718   5.392
    2MOL    C71  375   2.495   1.840   5.465
    2MOL    C72  376   2.548   1.706   5.156
    2MOL    H56  377   2.602   1.614   5.180
    2MOL    O40  378   2.635   1.822   5.163
    2MOL    H57  379   3.130   1.985   4.681
    2MOL    H58  380   2.986   1.890   4.641
    2MOL    H59  381   2.982   2.069   4.627
    2MOL    H60  382   2.516   1.630   4.579
    2MOL    H61  383   2.671   1.656   4.664
    2MOL    H62  384   2.582   1.503   4.684
    2MOL    H63  385   2.289   2.001   4.575
    2MOL    H64  386   2.380   1.905   4.694
    2MOL    H65  387   2.292   1.823   4.562
    2MOL    H66  388   1.774   1.861   4.492
    2MOL    H67  389   1.862   2.016   4.488
    2MOL    H68  390   1.931   1.875   4.574
    2MOL    H69  391   1.451   2.491   4.603
    2MOL    H70  392   1.618   2.544   4.565
    2MOL    H71  393   1.585   2.374   4.612
    2MOL    H72  394   1.680   3.105   4.940
    2MOL    H73  395   1.801   3.090   4.809
    2MOL    H74  396   1.674   2.964   4.831
    2MOL    H75  397   2.124   2.771   4.621
    2MOL    H76  398   2.188   2.604   4.605
    2MOL    H77  399   2.072   2.644   4.736
    2MOL    H78  400   2.742   2.587   4.457
    2MOL    H79  401   2.637   2.449   4.496
    2MOL    H80  402   2.609   2.605   4.575
    2MOL    H81  403   3.011   2.758   5.252
    2MOL    H82  404   2.852   2.679   5.247
    2MOL    H83  405   2.995   2.587   5.300
    2MOL    H84  406   3.247   2.281   5.263
    2MOL    H85  407   3.190   2.186   5.125
    2MOL    H86  408   3.278   2.339   5.098
    2MOL    H87  409   3.019   2.235   5.446
    2MOL    H88  410   2.866   2.261   5.359
    2MOL    H89  411   2.877   2.135   5.486
    2MOL    H90  412   2.813   1.738   5.558
    2MOL    H91  413   2.772   1.656   5.405
    2MOL    H92  414   2.940   1.709   5.436
    2MOL    H93  415   2.547   1.827   5.560
    2MOL    H94  416   2.546   1.918   5.408
    2MOL    H95  417   2.391   1.871   5.483
    2MOL    H96  418   2.109   1.596   5.491
    2MOL    H97  419   2.138   1.483   5.352
    2MOL    H98  420   2.267   1.515   5.457
    2MOL    H99  421   1.942   1.423   5.343
    2MOL   H100  422   1.929   1.600   5.348
    2MOL   H101  423   1.800   1.501   5.274
    2MOL   H102  424   1.517   1.548   5.096
    2MOL   H103  425   1.547   1.664   4.965
    2MOL   H104  426   1.609   1.498   4.951
    2MOL   H105  427   1.462   1.761   5.249
    2MOL   H106  428   1.616   1.846   5.283
    2MOL   H107  429   1.460   1.935   5.278
    2MOL   H108  430   1.263   2.235   5.218
    2MOL   H109  431   1.333   2.321   5.079
    2MOL   H110  432   1.247   2.166   5.056
    2MOL   H111  433   1.470   2.314   5.431
    2MOL   H112  434   1.625   2.270   5.355
    2MOL   H113  435   1.615   2.416   5.457
    2MOL   H114  436   1.681   2.792   5.516
    2MOL   H115  437   1.750   2.856   5.365
    2MOL   H116  438   1.575   2.832   5.380
    2MOL   H117  439   1.943   2.639   5.535
    2MOL   H118  440   1.931   2.572   5.371
    2MOL   H119  441   2.088   2.574   5.455
    2MOL   H120  442   2.415   2.850   5.474
    2MOL   H121  443   2.297   2.986   5.451
    2MOL   H122  444   2.241   2.815   5.461
    2MOL   H123  445   2.568   3.050   5.312
    2MOL   H124  446   2.563   2.873   5.324
    2MOL   H125  447   2.701   2.953   5.247
    2MOL   H126  448   2.968   2.949   5.033
    2MOL   H127  449   2.930   2.834   4.902
    2MOL   H128  450   2.855   2.997   4.904
    3MOL     C1  451   1.719   1.792   5.946
    3MOL     H1  452   1.699   1.685   5.929
    3MOL     O1  453   1.675   1.828   6.078
    3MOL     C2  454   1.700   1.967   6.114
    3MOL     H2  455   1.805   1.993   6.098
    3MOL     C3  456   1.671   1.980   6.264
    3MOL     H3  457   1.704   2.078   6.299
    3MOL     H4  458   1.728   1.903   6.317
    3MOL     O2  459   1.530   1.962   6.286
    3MOL     C4  460   1.491   1.981   6.422
    3MOL     C5  461   1.639   1.877   5.843
    3MOL     H5  462   1.535   1.844   5.846
    3MOL     O3  463   1.693   1.860   5.710
    3MOL     C6  464   1.664   1.734   5.647
    3MOL     C7  465   1.643   2.027   5.875
    3MOL     H6  466   1.744   2.064   5.853
    3MOL     O4  467   1.545   2.095   5.794
    3MOL     C8  468   1.598   2.200   5.713
    3MOL     C9  469   1.611   2.055   6.022
    3MOL     H7  470   1.505   2.033   6.039
    3MOL     O5  471   1.639   2.195   6.042
    3MOL    C10  472   1.551   2.264   6.132
    3MOL     H8  473   1.467   2.200   6.163
    3MOL     O6  474   1.628   2.303   6.247
    3MOL    C11  475   1.743   2.386   6.220
    3MOL     H9  476   1.810   2.335   6.150
    3MOL    C12  477   1.818   2.406   6.353
    3MOL    H10  478   1.918   2.447   6.334
    3MOL    H11  479   1.831   2.309   6.403
    3MOL     O7  480   1.742   2.495   6.438
    3MOL    C13  481   1.811   2.532   6.558
    3MOL    C14  482   1.494   2.391   6.061
    3MOL    H12  483   1.421   2.440   6.127
    3MOL     O8  484   1.430   2.356   5.935
    3MOL    C15  485   1.305   2.287   5.946
    3MOL    C16  486   1.605   2.493   6.030
    3MOL    H13  487   1.669   2.455   5.949
    3MOL     O9  488   1.543   2.618   5.997
    3MOL    C17  489   1.566   2.665   5.863
    3MOL    C18  490   1.691   2.517   6.155
    3MOL    H14  491   1.628   2.568   6.227
    3MOL    O10  492   1.800   2.601   6.116
    3MOL    C19  493   1.828   2.707   6.208
    3MOL    H15  494   1.750   2.715   6.284
    3MOL    O11  495   1.953   2.678   6.272
    3MOL    C20  496   2.062   2.667   6.180
    3MOL    H16  497   2.040   2.596   6.099
    3MOL    C21  498   2.186   2.614   6.254
    3MOL    H17  499   2.263   2.584   6.181
    3MOL    H18  500   2.158   2.527   6.314
    3MOL    O12  501   2.234   2.721   6.337
    3MOL    C22  502   2.351   2.690   6.411
    3MOL    C23  503   1.837   2.841   6.130
    3MOL    H19  504   1.853   2.921   6.203
    3MOL    O13  505   1.714   2.865   6.060
    3MOL    C24  506   1.606   2.915   6.140
    3MOL    C25  507   1.958   2.843   6.033
    3MOL    H20  508   1.945   2.766   5.954
    3MOL    O14  509   1.968   2.975   5.974
    3MOL    C26  510   1.895   2.991   5.849
    3MOL    C27  511   2.083   2.806   6.119
    3MOL    H21  512   2.097   2.880   6.200
    3MOL    O15  513   2.203   2.792   6.046
    3MOL    C28  514   2.268   2.908   5.996
    3MOL    H22  515   2.199   2.996   5.994
    3MOL    O16  516   2.383   2.936   6.074
    3MOL    C29  517   2.477   2.827   6.084
    3MOL    H23  518   2.429   2.739   6.127
    3MOL    C30  519   2.580   2.880   6.184
    3MOL    H24  520   2.645   2.800   6.218
    3MOL    H25  521   2.527   2.918   6.272
    3MOL    O17  522   2.654   2.986   6.121
    3MOL    C31  523   2.742   3.050   6.212
    3MOL    C32  524   2.306   2.874   5.856
    3MOL    H26  525   2.345   2.962   5.805
    3MOL    O18  526   2.176   2.833   5.807
    3MOL    C33  527   2.163   2.866   5.675
    3MOL    C34  528   2.411   2.757   5.849
    3MOL    H27  529   2.364   2.664   5.881
    3MOL    O19  530   2.461   2.747   5.713
    3MOL    C35  531   2.468   2.613   5.661
    3MOL    C36  532   2.531   2.792   5.941
    3MOL    H28  533   2.582   2.877   5.898
    3MOL    O20  534   2.621   2.677   5.946
    3MOL    C37  535   2.759   2.708   5.981
    3MOL    H29  536   2.776   2.815   5.979
    3MOL    O21  537   2.785   2.657   6.113
    3MOL    C38  538   2.765   2.517   6.134
    3MOL    H30  539   2.662   2.489   6.105
    3MOL    C39  540   2.780   2.490   6.285
    3MOL    H31  541   2.745   2.389   6.308
    3MOL    H32  542   2.717   2.562   6.339
    3MOL    O22  543   2.919   2.505   6.326
    3MOL    C40  544   2.939   2.478   6.465
    3MOL    C41  545   2.857   2.638   5.884
    3MOL    H33  546   2.960   2.671   5.910
    3MOL    O23  547   2.827   2.676   5.748
    3MOL    C42  548   2.866   2.810   5.713
    3MOL    C43  549   2.854   2.486   5.896
    3MOL    H34  550   2.758   2.448   5.855
    3MOL    O24  551   2.967   2.431   5.824
    3MOL    C44  552   2.933   2.350   5.711
    3MOL    C45  553   2.866   2.441   6.043
    3MOL    H35  554   2.968   2.467   6.076
    3MOL    O25  555   2.843   2.299   6.049
    3MOL    C46  556   2.933   2.228   6.136
    3MOL    H36  557   3.013   2.295   6.170
    3MOL    O26  558   2.861   2.180   6.250
    3MOL    C47  559   2.752   2.090   6.219
    3MOL    H37  560   2.681   2.138   6.151
    3MOL    C48  561   2.678   2.061   6.349
    3MOL    H38  562   2.589   2.003   6.323
    3MOL    H39  563   2.648   2.156   6.393
    3MOL    O27  564   2.763   1.988   6.439
    3MOL    C49  565   2.693   1.943   6.557
    3MOL    C50  566   2.997   2.107   6.064
    3MOL    H40  567   3.071   2.062   6.132
    3MOL    O28  568   3.062   2.150   5.943
    3MOL    C51  569   3.178   2.232   5.965
    3MOL    C52  570   2.892   1.999   6.029
    3MOL    H41  571   2.825   2.039   5.952
    3MOL    O29  572   2.962   1.881   5.984
    3MOL    C53  573   2.946   1.851   5.845
    3MOL    C54  574   2.809   1.962   6.154
    3MOL    H42  575   2.874   1.911   6.225
    3MOL    O30  576   2.699   1.878   6.112
    3MOL    C55  577   2.680   1.757   6.191
    3MOL    H43  578   2.766   1.741   6.256
    3MOL    O31  579   2.558   1.767   6.270
    3MOL    C56  580   2.434   1.788   6.196
    3MOL    H44  581   2.436   1.885   6.144
    3MOL    C57  582   2.312   1.780   6.290
    3MOL    H45  583   2.327   1.697   6.358
    3MOL    H46  584   2.221   1.759   6.234
    3MOL    O32  585   2.293   1.900   6.362
    3MOL    C58  586   2.202   1.886   6.472
    3MOL    C59  587   2.666   1.636   6.095
    3MOL    H47  588   2.654   1.544   6.153
    3MOL    O33  589   2.782   1.627   6.010
    3MOL    C60  590   2.901   1.576   6.072
    3MOL    C61  591   2.542   1.655   6.006
    3MOL    H48  592   2.553   1.745   5.944
    3MOL    O34  593   2.525   1.537   5.925
    3MOL    C62  594   2.589   1.545   5.797
    3MOL    C63  595   2.417   1.674   6.094
    3MOL    H49  596   2.396   1.582   6.150
    3MOL    O35  597   2.305   1.711   6.012
    3MOL    C64  598   2.222   1.601   5.974
    3MOL    H50  599   2.282   1.510   5.966
    3MOL    O36  600   2.117   1.582   6.071
    3MOL    C65  601   2.014   1.686   6.080
    3MOL    H51  602   2.059   1.782   6.109
    3MOL    C66  603   1.919   1.640   6.191
    3MOL    H52  604   1.892   1.534   6.176
    3MOL    H53  605   1.827   1.699   6.192
    3MOL    O37  606   1.987   1.657   6.316
    3MOL    C67  607   1.917   1.603   6.429
    3MOL    C68  608   2.159   1.631   5.837
    3MOL    H54  609   2.109   1.540   5.801
    3MOL    O38  610   2.264   1.671   5.749
    3MOL    C69  611   2.314   1.556   5.685
    3MOL    C70  612   2.055   1.740   5.838
    3MOL    H55  613   2.105   1.834   5.865
    3MOL    O39  614   1.996   1.744   5.707
    3MOL    C71  615   2.002   1.872   5.643
    3MOL    C72  616   1.948   1.705   5.940
    3MOL    H56  617   1.896   1.613   5.909
    3MOL    O40  618   1.860   1.819   5.939
    3MOL    H57  619   1.382   1.969   6.431
    3MOL    H58  620   1.540   1.908   6.487
    3MOL    H59  621   1.517   2.083   6.455
    3MOL    H60  622   1.974   1.621   6.521
    3MOL    H61  623   1.818   1.649   6.438
    3MOL    H62  624   1.904   1.495   6.417
    3MOL    H63  625   2.212   1.971   6.540
    3MOL    H64  626   2.099   1.880   6.436
    3MOL    H65  627   2.227   1.795   6.529
    3MOL    H66  628   2.758   1.880   6.619
    3MOL    H67  629   2.660   2.029   6.616
    3MOL    H68  630   2.605   1.883   6.528
    3MOL    H69  631   3.045   2.493   6.491
    3MOL    H70  632   2.878   2.545   6.527
    3MOL    H71  633   2.912   2.374   6.488
    3MOL    H72  634   2.800   3.125   6.161
    3MOL    H73  635   2.684   3.097   6.293
    3MOL    H74  636   2.810   2.976   6.256
    3MOL    H75  637   2.389   2.782   6.456
    3MOL    H76  638   2.326   2.618   6.490
    3MOL    H77  639   2.428   2.648   6.345
    3MOL    H78  640   1.747   2.600   6.616
    3MOL    H79  641   1.832   2.443   6.618
    3MOL    H80  642   1.905   2.584   6.535
    3MOL    H81  643   1.516   2.762   5.849
    3MOL    H82  644   1.674   2.678   5.845
    3MOL    H83  645   1.526   2.594   5.791
    3MOL    H84  646   1.260   2.272   5.848
    3MOL    H85  647   1.320   2.188   5.991
    3MOL    H86  648   1.235   2.344   6.009
    3MOL    H87  649   1.518   2.240   5.650
    3MOL    H88  650   1.642   2.279   5.773
    3MOL    H89  651   1.674   2.158   5.646
    3MOL    H90  652   1.690   1.742   5.541
    3MOL    H91  653   1.723   1.654   5.692
    3MOL    H92  654   1.557   1.711   5.654
    3MOL    H93  655   1.940   1.870   5.553
    3MOL    H94  656   1.960   1.949   5.708
    3MOL    H95  657   2.105   1.897   5.616
    3MOL    H96  658   2.388   1.585   5.610
    3MOL    H97  659   2.355   1.485   5.757
    3MOL    H98  660   2.230   1.502   5.642
    3MOL    H99  661   2.556   1.460   5.737
    3MOL   H100  662   2.561   1.637   5.745
    3MOL   H101  663   2.698   1.540   5.805
    3MOL   H102  664   2.977   1.561   5.995
    3MOL   H103  665   2.939   1.648   6.144
    3MOL   H104  666   2.881   1.481   6.122
    3MOL   H105  667   3.007   1.763   5.819
    3MOL   H106  668   2.841   1.828   5.823
    3MOL   H107  669   2.978   1.936   5.784
    3MOL   H108  670   3.232   2.246   5.871
    3MOL   H109  671   3.150   2.332   6.002
    3MOL   H110  672   3.245   2.186   6.038
    3MOL   H111  673   3.024   2.314   5.662
    3MOL   H112  674   2.874   2.263   5.743
    3MOL   H113  675   2.875   2.408   5.638
    3MOL   H114  676   2.869   2.819   5.605
    3MOL   H115  677   2.795   2.883   5.754
    3MOL   H116  678   2.967   2.832   5.750
    3MOL   H117  679   2.487   2.618   5.553
    3MOL   H118  680   2.549   2.556   5.708
    3MOL   H119  681   2.373   2.560   5.675
    3MOL   H120  682   2.066   2.836   5.633
    3MOL   H121  683   2.183   2.972   5.659
    3MOL   H122  684   2.241   2.803   5.636
    3MOL   H123  685   1.906   3.093   5.810
    3MOL   H124  686   1.932   2.921   5.774
    3MOL   H125  687   1.788   2.973   5.862
    3MOL   H126  688   1.524   2.948   6.075
    3MOL   H127  689   1.568   2.836   6.206
    3MOL   H128  690   1.639   3.001   6.200
    4SOL     OW  691   0.243   0.600   0.110
    4SOL    HW1  692   0.169   0.599   0.170
    4SOL    HW2  693   0.208   0.633   0.027
    5SOL     OW  694   0.196   0.293   0.989
    5SOL    HW1  695   0.233   0.270   1.075
    5SOL    HW2  696   0.131   0.225   0.973
    6SOL     OW  697   0.006   0.378   0.641
    6SOL    HW1  698   4.428   0.416   0.683
    6SOL    HW2  699   4.471   0.306   0.588
    7SOL     OW  700   0.567   1.283   1.173
    7SOL    HW1  701   0.479   1.289   1.135
    7SOL    HW2  702   0.583   1.371   1.208
    8SOL     OW  703   1.558   1.511   0.706
    8SOL    HW1  704   1.515   1.493   0.789
    8SOL    HW2  705   1.487   1.516   0.642
    9SOL     OW  706   1.132   0.700   0.701
    9SOL    HW1  707   1.180   0.782   0.690
    9SOL    HW2  708   1.083   0.712   0.782
   10SOL     OW  709   1.774   0.603   0.220
   10SOL    HW1  710   1.724   0.603   0.138
   10SOL    HW2  711   1.735   0.533   0.272
   11SOL     OW  712   0.758   1.144   1.038
   11SOL    HW1  713   0.688   1.178   1.095
   11SOL    HW2  714   0.792   1.221   0.994
   12SOL     OW  715   0.863   0.778   1.821
   12SOL    HW1  716   0.850   0.849   1.883
   12SOL    HW2  717   0.887   0.822   1.739
   13SOL     OW  718   0.686   1.006   0.648
   13SOL    HW1  719   0.751   0.992   0.717
   13SOL    HW2  720   0.616   1.056   0.691
   14SOL     OW  721   0.709   1.151   1.810
   14SOL    HW1  722   0.756   1.230   1.835
   14SOL    HW2  723   0.625   1.182   1.776
   15SOL     OW  724   0.336   1.423   1.069
   15SOL    HW1  725   0.255   1.404   1.023
   15SOL    HW2  726   0.387   1.477   1.009
   16SOL     OW  727   1.462   1.499   1.351
   16SOL    HW1  728   1.508   1.582   1.360
   16SOL    HW2  729   1.405   1.494   1.428
   17SOL     OW  730   0.437   0.396   1.493
   17SOL    HW1  731   0.525   0.360   1.494
   17SOL    HW2  732   0.380   0.321   1.510
   18SOL     OW  733   1.612   0.448   0.738
   18SOL    HW1  734   1.531   0.470   0.693
   18SOL    HW2  735   1.632   0.526   0.791
   19SOL     OW  736   0.244   1.691   0.483
   19SOL    HW1  737   0.233   1.778   0.522
   19SOL    HW2  738   0.302   1.707   0.408
   20SOL     OW  739   1.136   1.341   1.692
   20SOL    HW1  740   1.176   1.337   1.779
   20SOL    HW2  741   1.083   1.261   1.686
   21SOL     OW  742   0.243   1.427   0.529
   21SOL    HW1  743   0.238   1.523   0.530
   21SOL    HW2  744   0.177   1.399   0.592
   22SOL     OW  745   0.244   1.081   0.882
   22SOL    HW1  746   0.263   0.994   0.915
   22SOL    HW2  747   0.187   1.120   0.948
   23SOL     OW  748   0.616   1.791   1.432
   23SOL    HW1  749   0.532   1.773   1.475
   23SOL    HW2  750   0.636   1.881   1.456
   24SOL     OW  751   0.576   0.992   0.145
   24SOL    HW1  752   0.621   1.036   0.073
   24SOL    HW2  753   0.626   1.016   0.223
   25SOL     OW  754   1.584   0.115   1.473
   25SOL    HW1  755   1.598   0.184   1.408
   25SOL    HW2  756   1.574   0.162   1.556
   26SOL     OW  757   0.137   0.643   0.575
   26SOL    HW1  758   0.083   0.565   0.590
   26SOL    HW2  759   0.109   0.704   0.643
   27SOL     OW  760   1.841   1.763   0.334
   27SOL    HW1  761   1.900   1.730   0.402
   27SOL    HW2  762   1.870   1.852   0.317
   28SOL     OW  763   0.071   1.593   0.150
   28SOL    HW1  764   0.035   1.504   0.153
   28SOL    HW2  765   0.017   1.641   0.213
   29SOL     OW  766   1.690   0.919   0.639
   29SOL    HW1  767   1.775   0.880   0.618
   29SOL    HW2  768   1.668   0.970   0.561
   30SOL     OW  769   1.646   1.106   0.432
   30SOL    HW1  770   1.728   1.119   0.384
   30SOL    HW2  771   1.650   1.168   0.505
   31SOL     OW  772   0.107   0.762   1.586
   31SOL    HW1  773   0.200   0.760   1.566
   31SOL    HW2  774   0.086   0.854   1.597
   32SOL     OW  775   0.613   1.383   0.736
   32SOL    HW1  776   0.566   1.300   0.745
   32SOL    HW2  777   0.596   1.410   0.645
   33SOL     OW  778   1.290   1.238   1.424
   33SOL    HW1  779   1.323   1.171   1.364
   33SOL    HW2  780   1.346   1.231   1.501
   34SOL     OW  781   0.819   0.010   0.550
   34SOL    HW1  782   0.856   0.088   0.511
   34SOL    HW2  783   0.724   0.020   0.540
   35SOL     OW  784   0.182   0.942   1.280
   35SOL    HW1  785   0.273   0.926   1.257
   35SOL    HW2  786   0.133   0.923   1.199
   36SOL     OW  787   1.520   0.998   0.201
   36SOL    HW1  788   1.455   0.937   0.235
   36SOL    HW2  789   1.567   1.029   0.278
   37SOL     OW  790   1.185   1.804   1.621
   37SOL    HW1  791   1.200   1.862   1.546
   37SOL    HW2  792   1.201   1.716   1.587
   38SOL     OW  793   0.318   0.260   1.771
   38SOL    HW1  794   0.386   0.312   1.814
   38SOL    HW2  795   0.242   0.268   1.829
   39SOL     OW  796   1.466   1.419   0.953
   39SOL    HW1  797   1.397   1.434   1.018
   39SOL    HW2  798   1.454   1.328   0.926
   40SOL     OW  799   1.662   1.734   0.578
   40SOL    HW1  800   1.638   1.706   0.489
   40SOL    HW2  801   1.635   1.661   0.634
   41SOL     OW  802   0.595   0.720   0.263
   41SOL    HW1  803   0.601   0.801   0.212
   41SOL    HW2  804   0.532   0.741   0.332
   42SOL     OW  805   1.288   0.359   0.935
   42SOL    HW1  806   1.199   0.327   0.923
   42SOL    HW2  807   1.328   0.297   0.996
   43SOL     OW  808   1.582   1.669   0.311
   43SOL    HW1  809   1.671   1.702   0.304
   43SOL    HW2  810   1.556   1.650   0.221
   44SOL     OW  811   0.797   0.617   1.454
   44SOL    HW1  812   0.769   0.593   1.543
   44SOL    HW2  813   0.752   0.554   1.397
   45SOL     OW  814   1.389   0.478   1.676
   45SOL    HW1  815   1.391   0.522   1.761
   45SOL    HW2  816   1.456   0.410   1.682
   46SOL     OW  817   0.957   0.888   1.581
   46SOL    HW1  818   1.011   0.817   1.547
   46SOL    HW2  819   0.910   0.922   1.505
   47SOL     OW  820   0.996   0.417   1.238
   47SOL    HW1  821   0.911   0.430   1.280
   47SOL    HW2  822   0.977   0.367   1.158
   48SOL     OW  823   1.049   0.701   0.428
   48SOL    HW1  824   1.065   0.692   0.522
   48SOL    HW2  825   0.967   0.653   0.413
   49SOL     OW  826   0.099   0.822   0.784
   49SOL    HW1  827   0.185   0.806   0.821
   49SOL    HW2  828   0.050   0.867   0.853
   50SOL     OW  829   0.124   1.855   1.576
   50SOL    HW1  830   0.118   1.830   1.669
   50SOL    HW2  831   0.045   1.817   1.536
   51SOL     OW  832   0.877   0.359   0.202
   51SOL    HW1  833   0.931   0.412   0.143
   51SOL    HW2  834   0.905   0.269   0.185
   52SOL     OW  835   1.706   0.575   1.828
   52SOL    HW1  836   1.670   0.651   1.782
   52SOL    HW2  837   1.740   0.519   1.758
   53SOL     OW  838   1.376   1.142   0.542
   53SOL    HW1  839   1.454   1.128   0.488
   53SOL    HW2  840   1.323   1.205   0.492
   54SOL     OW  841   0.543   0.203   0.900
   54SOL    HW1  842   0.562   0.221   0.992
   54SOL    HW2  843   0.536   0.289   0.859
   55SOL     OW  844   1.008   1.446   0.474
   55SOL    HW1  845   0.967   1.517   0.425
   55SOL    HW2  846   0.991   1.467   0.566
   56SOL     OW  847   0.355   1.808   0.858
   56SOL    HW1  848   0.397   1.723   0.867
   56SOL    HW2  849   0.425   1.872   0.870
   57SOL     OW  850   1.799   1.058   0.867
   57SOL    HW1  851   1.742   1.043   0.792
   57SOL    HW2  852   1.738   1.064   0.941
   58SOL     OW  853   1.228   1.539   1.513
   58SOL    HW1  854   1.214   1.466   1.573
   58SOL    HW2  855   1.167   1.524   1.441
   59SOL     OW  856   0.315   0.956   0.277
   59SOL    HW1  857   0.398   0.983   0.238
   59SOL    HW2  858   0.305   0.864   0.250
   60SOL     OW  859   1.478   0.739   0.724
   60SOL    HW1  860   1.464   0.694   0.808
   60SOL    HW2  861   1.553   0.796   0.740
   61SOL     OW  862   0.466   1.261   1.735
   61SOL    HW1  863   0.438   1.268   1.644
   61SOL    HW2  864   0.385   1.267   1.786
   62SOL     OW  865   1.107   1.779   0.226
   62SOL    HW1  866   1.049   1.726   0.281
   62SOL    HW2  867   1.147   1.715   0.167
   63SOL     OW  868   0.165   0.263   1.509
   63SOL    HW1  869   0.135   0.350   1.482
   63SOL    HW2  870   0.199   0.276   1.598
   64SOL     OW  871   1.628   1.375   0.089
   64SOL    HW1  872   1.586   1.460   0.076
   64SOL    HW2  873   1.563   1.311   0.061
   65SOL     OW  874   0.469   1.741   0.318
   65SOL    HW1  875   0.506   1.798   0.386
   65SOL    HW2  876   0.545   1.715   0.264
   66SOL     OW  877   1.417   0.131   0.425
   66SOL    HW1  878   1.394   0.096   0.338
   66SOL    HW2  879   1.513   0.133   0.425
   67SOL     OW  880   0.256   1.790   1.236
   67SOL    HW1  881   0.306   1.717   1.273
   67SOL    HW2  882   0.228   1.759   1.150
   68SOL     OW  883   0.938   1.698   0.900
   68SOL    HW1  884   1.015   1.645   0.921
   68SOL    HW2  885   0.893   1.649   0.831
   69SOL     OW  886   0.392   0.693   0.472
   69SOL    HW1  887   0.418   0.602   0.484
   69SOL    HW2  888   0.301   0.696   0.501
   70SOL     OW  889   1.526   0.233   1.722
   70SOL    HW1  890   1.525   0.256   1.815
   70SOL    HW2  891   1.450   0.175   1.711
   71SOL     OW  892   0.601   0.105   0.118
   71SOL    HW1  893   0.694   0.083   0.118
   71SOL    HW2  894   0.570   0.075   0.033
   72SOL     OW  895   0.769   0.269   1.753
   72SOL    HW1  896   0.835   0.201   1.767
   72SOL    HW2  897   0.726   0.278   1.838
   73SOL     OW  898   0.877   1.521   1.193
   73SOL    HW1  899   0.862   1.485   1.106
   73SOL    HW2  900   0.946   1.466   1.230
   74SOL     OW  901   1.342   0.589   1.429
   74SOL    HW1  902   1.370   0.559   1.516
   74SOL    HW2  903   1.376   0.678   1.422
   75SOL     OW  904   0.814   1.397   0.937
   75SOL    HW1  905   0.898   1.387   0.892
   75SOL    HW2  906   0.749   1.396   0.867
   76SOL     OW  907   0.923   0.515   0.901
   76SOL    HW1  908   0.906   0.515   0.807
   76SOL    HW2  909   0.964   0.430   0.918
   77SOL     OW  910   0.559   0.067   0.512
   77SOL    HW1  911   0.471   0.055   0.547
   77SOL    HW2  912   0.550   0.138   0.448
   78SOL     OW  913   1.426   1.196   0.031
   78SOL    HW1  914   1.459   1.123   0.085
   78SOL    HW2  915   1.343   1.220   0.072
   79SOL     OW  916   0.295   0.056   0.190
   79SOL    HW1  917   0.371   0.096   0.148
   79SOL    HW2  918   0.332   0.001   0.260
   80SOL     OW  919   0.949   0.227   0.446
   80SOL    HW1  920   0.903   0.291   0.392
   80SOL    HW2  921   1.038   0.261   0.453
   81SOL     OW  922   1.080   0.680   1.461
   81SOL    HW1  923   1.009   0.616   1.462
   81SOL    HW2  924   1.159   0.627   1.450
   82SOL     OW  925   1.225   1.569   0.794
   82SOL    HW1  926   1.242   1.637   0.728
   82SOL    HW2  927   1.292   1.582   0.860
   83SOL     OW  928   0.467   1.148   0.740
   83SOL    HW1  929   0.394   1.129   0.800
   83SOL    HW2  930   0.430   1.134   0.653
   84SOL     OW  931   1.270   1.795   0.605
   84SOL    HW1  932   1.315   1.857   0.547
   84SOL    HW2  933   1.206   1.848   0.652
   85SOL     OW  934   1.021   0.534   0.033
   85SOL    HW1  935   0.984   0.619   0.008
   85SOL    HW2  936   1.094   0.556   0.091
   86SOL     OW  937   0.091   0.522   1.412
   86SOL    HW1  938   0.152   0.532   1.339
   86SOL    HW2  939   0.062   0.612   1.430
   87SOL     OW  940   0.563   0.242   1.165
   87SOL    HW1  941   0.594   0.158   1.199
   87SOL    HW2  942   0.469   0.244   1.185
   88SOL     OW  943   0.862   0.507   0.628
   88SOL    HW1  944   0.817   0.543   0.551
   88SOL    HW2  945   0.844   0.413   0.624
   89SOL     OW  946   0.966   0.034   0.777
   89SOL    HW1  947   0.917   0.028   0.695
   89SOL    HW2  948   0.984   4.444   0.802
   90SOL     OW  949   1.436   1.163   0.858
   90SOL    HW1  950   1.368   1.096   0.856
   90SOL    HW2  951   1.459   1.176   0.766
   91SOL     OW  952   1.467   0.603   0.978
   91SOL    HW1  953   1.415   0.523   0.981
   91SOL    HW2  954   1.526   0.597   1.053
   92SOL     OW  955   1.850   0.816   0.379
   92SOL    HW1  956   1.903   0.764   0.440
   92SOL    HW2  957   1.820   0.752   0.313
   93SOL     OW  958   0.494   1.422   0.175
   93SOL    HW1  959   0.415   1.396   0.222
   93SOL    HW2  960   0.488   1.375   0.091
   94SOL     OW  961   1.669   1.265   0.649
   94SOL    HW1  962   1.763   1.271   0.661
   94SOL    HW2  963   1.637   1.353   0.669
   95SOL     OW  964   1.390   0.576   0.076
   95SOL    HW1  965   1.329   0.556   0.148
   95SOL    HW2  966   1.463   0.516   0.090
   96SOL     OW  967   0.525   0.262   0.325
   96SOL    HW1  968   0.558   0.204   0.256
   96SOL    HW2  969   0.512   0.346   0.282
   97SOL     OW  970   1.754   1.236   1.576
   97SOL    HW1  971   1.841   1.198   1.572
   97SOL    HW2  972   1.768   1.327   1.604
   98SOL     OW  973   1.060   1.353   1.334
   98SOL    HW1  974   0.985   1.322   1.386
   98SOL    HW2  975   1.136   1.312   1.376
   99SOL     OW  976   1.607   1.624   1.651
   99SOL    HW1  977   1.603   1.660   1.563
   99SOL    HW2  978   1.691   1.579   1.655
  100SOL     OW  979   1.126   1.202   1.107
  100SOL    HW1  980   1.068   1.240   1.172
  100SOL    HW2  981   1.092   1.233   1.023
  101SOL     OW  982   1.631   1.099   1.078
  101SOL    HW1  983   1.626   1.162   1.151
  101SOL    HW2  984   1.551   1.115   1.028
  102SOL     OW  985   0.903   0.132   1.389
  102SOL    HW1  986   0.926   0.087   1.308
  102SOL    HW2  987   0.987   0.145   1.433
  103SOL     OW  988   0.984   1.114   1.723
  103SOL    HW1  989   0.892   1.130   1.742
  103SOL    HW2  990   0.984   1.037   1.666
  104SOL     OW  991   0.709   1.059   0.374
  104SOL    HW1  992   0.696   1.045   0.467
  104SOL    HW2  993   0.786   1.005   0.352
  105SOL     OW  994   0.429   0.824   1.239
  105SOL    HW1  995   0.498   0.835   1.305
  105SOL    HW2  996   0.370   0.759   1.277
  106SOL     OW  997   1.269   0.376   1.272
  106SOL    HW1  998   1.301   0.455   1.317
  106SOL    HW2  999   1.181   0.399   1.244
  107SOL     OW 1000   0.061   1.576   1.341
  107SOL    HW1 1001   0.034   1.664   1.315
  107SOL    HW2 1002   0.157   1.581   1.346
  108SOL     OW 1003   0.351   1.114   0.499
  108SOL    HW1 1004   0.354   1.188   0.438
  108SOL    HW2 1005   0.345   1.037   0.442
  109SOL     OW 1006   0.564   0.529   0.855
  109SOL    HW1 1007   0.577   0.589   0.781
  109SOL    HW2 1008   0.623   0.561   0.923
  110SOL     OW 1009   1.247   1.346   0.394
  110SOL    HW1 1010   1.303   1.419   0.421
  110SOL    HW2 1011   1.160   1.369   0.425
  111SOL     OW 1012   1.278   1.456   1.146
  111SOL    HW1 1013   1.333   1.459   1.224
  111SOL    HW2 1014   1.223   1.379   1.158
  112SOL     OW 1015   1.586   0.628   0.474
  112SOL    HW1 1016   1.537   0.673   0.543
  112SOL    HW2 1017   1.622   0.698   0.421
  113SOL     OW 1018   0.348   1.529   1.317
  113SOL    HW1 1019   0.333   1.482   1.235
  113SOL    HW2 1020   0.443   1.539   1.322
  114SOL     OW 1021   0.479   0.760   1.665
  114SOL    HW1 1022   0.505   0.799   1.582
  114SOL    HW2 1023   0.515   0.671   1.662
  115SOL     OW 1024   1.598   0.777   1.679
  115SOL    HW1 1025   1.512   0.818   1.672
  115SOL    HW2 1026   1.651   0.820   1.611
  116SOL     OW 1027   1.007   0.086   1.724
  116SOL    HW1 1028   1.031   0.170   1.685
  116SOL    HW2 1029   1.032   0.021   1.659
  117SOL     OW 1030   0.496   0.045   1.750
  117SOL    HW1 1031   0.479   4.497   1.669
  117SOL    HW2 1032   0.429   0.114   1.752
  118SOL     OW 1033   0.588   0.874   1.023
  118SOL    HW1 1034   0.618   0.965   1.025
  118SOL    HW2 1035   0.532   0.865   1.101
  119SOL     OW 1036   1.360   0.858   1.033
  119SOL    HW1 1037   1.278   0.852   0.983
  119SOL    HW2 1038   1.398   0.771   1.028
  120SOL     OW 1039   1.202   0.531   0.267
  120SOL    HW1 1040   1.211   0.453   0.321
  120SOL    HW2 1041   1.161   0.596   0.325
  121SOL     OW 1042   0.285   0.218   1.234
  121SOL    HW1 1043   0.248   0.236   1.321
  121SOL    HW2 1044   0.322   0.131   1.241
  122SOL     OW 1045   0.045   1.313   1.284
  122SOL    HW1 1046   0.077   1.266   1.361
  122SOL    HW2 1047   0.048   1.405   1.310
  123SOL     OW 1048   0.725   0.632   1.060
  123SOL    HW1 1049   0.798   0.611   1.001
  123SOL    HW2 1050   0.699   0.720   1.035
  124SOL     OW 1051   1.734   0.959   1.851
  124SOL    HW1 1052   1.685   0.903   1.790
  124SOL    HW2 1053   1.674   0.971   1.925
  125SOL     OW 1054   0.316   0.075   0.629
  125SOL    HW1 1055   0.301   0.163   0.664
  125SOL    HW2 1056   0.306   0.017   0.705
  126SOL     OW 1057   1.614   0.375   0.366
  126SOL    HW1 1058   1.643   0.311   0.431
  126SOL    HW2 1059   1.590   0.452   0.417
  127SOL     OW 1060   1.028   0.761   0.962
  127SOL    HW1 1061   1.027   0.777   1.056
  127SOL    HW2 1062   0.999   0.670   0.953
  128SOL     OW 1063   0.983   1.566   1.715
  128SOL    HW1 1064   0.967   1.611   1.632
  128SOL    HW2 1065   1.025   1.484   1.691
  129SOL     OW 1066   1.857   1.506   1.605
  129SOL    HW1 1067   1.870   1.536   1.515
  129SOL    HW2 1068   1.937   1.531   1.650
  130SOL     OW 1069   0.347   0.931   1.818
  130SOL    HW1 1070   0.421   0.960   1.872
  130SOL    HW2 1071   0.385   0.865   1.760
  131SOL     OW 1072   1.536   0.292   0.113
  131SOL    HW1 1073   1.476   0.219   0.127
  131SOL    HW2 1074   1.566   0.315   0.201
  132SOL     OW 1075   1.289   0.824   0.033
  132SOL    HW1 1076   1.332   0.739   0.043
  132SOL    HW2 1077   1.322   0.858  11.049
  133SOL     OW 1078   1.065   1.335   0.853
  133SOL    HW1 1079   1.068   1.262   0.790
  133SOL    HW2 1080   1.128   1.398   0.818
  134SOL     OW 1081   0.317   0.813   0.949
  134SOL    HW1 1082   0.411   0.831   0.945
  134SOL    HW2 1083   0.311   0.722   0.980
  135SOL     OW 1084   0.336   0.528   0.993
  135SOL    HW1 1085   0.292   0.446   0.973
  135SOL    HW2 1086   0.413   0.528   0.936
  136SOL     OW 1087   1.135   0.375   1.693
  136SOL    HW1 1088   1.087   0.439   1.745
  136SOL    HW2 1089   1.221   0.414   1.680
  137SOL     OW 1090   1.159   0.212   1.473
  137SOL    HW1 1091   1.152   0.276   1.544
  137SOL    HW2 1092   1.196   0.261   1.400
  138SOL     OW 1093   4.495   1.324   0.198
  138SOL    HW1 1094   4.402   1.342   0.190
  138SOL    HW2 1095   0.000   1.233   0.225
  139SOL     OW 1096   0.095   1.780   0.940
  139SOL    HW1 1097   0.057   1.722   0.873
  139SOL    HW2 1098   0.183   1.800   0.907
  140SOL     OW 1099   0.498   1.573   0.907
  140SOL    HW1 1100   0.566   1.636   0.930
  140SOL    HW2 1101   0.543   1.509   0.851
  141SOL     OW 1102   0.987   0.794   1.228
  141SOL    HW1 1103   1.040   0.770   1.304
  141SOL    HW2 1104   0.901   0.757   1.246
  142SOL     OW 1105   0.038   0.565   1.109
  142SOL    HW1 1106   0.115   0.523   1.070
  142SOL    HW2 1107   0.023   0.517   1.191
  143SOL     OW 1108   0.180   0.519   1.711
  143SOL    HW1 1109   0.266   0.503   1.673
  143SOL    HW2 1110   0.151   0.601   1.669
  144SOL     OW 1111   1.377   0.940   1.659
  144SOL    HW1 1112   1.397   1.034   1.659
  144SOL    HW2 1113   1.374   0.916   1.567
  145SOL     OW 1114   0.811   0.575   0.357
  145SOL    HW1 1115   0.819   0.499   0.300
  145SOL    HW2 1116   0.737   0.625   0.323
  146SOL     OW 1117   1.642   0.601   1.189
  146SOL    HW1 1118   1.631   0.541   1.263
  146SOL    HW2 1119   1.729   0.581   1.154
  147SOL     OW 1120   0.271   1.562   1.741
  147SOL    HW1 1121   0.217   1.614   1.800
  147SOL    HW2 1122   0.251   1.471   1.764
  148SOL     OW 1123   0.683   0.464   1.267
  148SOL    HW1 1124   0.647   0.383   1.231
  148SOL    HW2 1125   0.691   0.522   1.192
  149SOL     OW 1126   0.930   1.679   1.466
  149SOL    HW1 1127   0.903   1.647   1.380
  149SOL    HW2 1128   0.928   1.774   1.459
  150SOL     OW 1129   0.476   0.485   0.184
  150SOL    HW1 1130   0.532   0.560   0.205
  150SOL    HW2 1131   0.390   0.524   0.166
  151SOL     OW 1132   0.161   1.141   1.463
  151SOL    HW1 1133   0.147   1.093   1.545
  151SOL    HW2 1134   0.170   1.072   1.397
  152SOL     OW 1135   1.328   1.048   1.225
  152SOL    HW1 1136   1.352   0.985   1.156
  152SOL    HW2 1137   1.256   1.099   1.187
  153SOL     OW 1138   1.308   0.852   0.310
  153SOL    HW1 1139   1.231   0.823   0.358
  153SOL    HW2 1140   1.285   0.840   0.218
  154SOL     OW 1141   1.763   1.745   1.146
  154SOL    HW1 1142   1.826   1.773   1.080
  154SOL    HW2 1143   1.745   1.654   1.125
  155SOL     OW 1144   1.241   1.733   1.115
  155SOL    HW1 1145   1.323   1.752   1.070
  155SOL    HW2 1146   1.245   1.639   1.133
  156SOL     OW 1147   0.067   1.187   1.049
  156SOL    HW1 1148   0.070   1.221   1.138
  156SOL    HW2 1149   0.017   1.252   1.000
  157SOL     OW 1150   0.679   1.664   1.726
  157SOL    HW1 1151   0.625   1.743   1.722
  157SOL    HW2 1152   0.741   1.674   1.654
  158SOL     OW 1153   0.879   0.064   0.124
  158SOL    HW1 1154   0.964   0.093   0.090
  158SOL    HW2 1155   0.901   0.016   0.205
  159SOL     OW 1156   1.720   0.134   0.500
  159SOL    HW1 1157   1.793   0.137   0.438
  159SOL    HW2 1158   1.735   0.055   0.552
  160SOL     OW 1159   1.389   1.568   0.483
  160SOL    HW1 1160   1.451   1.599   0.417
  160SOL    HW2 1161   1.343   1.647   0.512
  161SOL     OW 1162   0.119   1.808   1.848
  161SOL    HW1 1163   0.081   1.734   1.895
  161SOL    HW2 1164   0.183   1.844   1.909
  162SOL     OW 1165   1.278   0.926   0.673
  162SOL    HW1 1166   1.351   0.864   0.675
  162SOL    HW2 1167   1.311   0.999   0.620
  163SOL     OW 1168   0.817   1.272   1.431
  163SOL    HW1 1169   0.790   1.311   1.514
  163SOL    HW2 1170   0.747   1.295   1.370
  164SOL     OW 1171   0.675   1.618   0.166
  164SOL    HW1 1172   0.683   1.628   0.071
  164SOL    HW2 1173   0.618   1.543   0.178
  165SOL     OW 1174   1.629   1.726   1.391
  165SOL    HW1 1175   1.678   1.735   1.309
  165SOL    HW2 1176   1.616   1.816   1.420
  166SOL     OW 1177   1.839   0.155   0.966
  166SOL    HW1 1178   1.867   0.078   0.918
  166SOL    HW2 1179   1.752   0.176   0.931
  167SOL     OW 1180   0.266   0.324   0.724
  167SOL    HW1 1181   0.184   0.361   0.690
  167SOL    HW2 1182   0.252   0.317   0.818
  168SOL     OW 1183   1.222   1.603   0.051
  168SOL    HW1 1184   1.209   1.511   0.071
  168SOL    HW2 1185   1.156   1.623  11.084
  169SOL     OW 1186   0.825   1.006   1.371
  169SOL    HW1 1187   0.868   1.004   1.286
  169SOL    HW2 1188   0.825   1.099   1.395
  170SOL     OW 1189   0.914   0.907   0.282
  170SOL    HW1 1190   0.981   0.946   0.227
  170SOL    HW2 1191   0.960   0.841   0.334
  171SOL     OW 1192   1.500   1.622   0.046
  171SOL    HW1 1193   1.404   1.619   0.042
  171SOL    HW2 1194   1.527   1.636  11.055
  172SOL     OW 1195   0.373   1.305   1.491
  172SOL    HW1 1196   0.356   1.384   1.439
  172SOL    HW2 1197   0.297   1.249   1.474
  173SOL     OW 1198   1.611   1.283   1.281
  173SOL    HW1 1199   1.672   1.276   1.355
  173SOL    HW2 1200   1.551   1.353   1.306
  174SOL     OW 1201   1.049   1.106   0.704
  174SOL    HW1 1202   0.979   1.054   0.745
  174SOL    HW2 1203   1.111   1.040   0.673
  175SOL     OW 1204   1.011   0.240   0.993
  175SOL    HW1 1205   1.013   0.206   0.903
  175SOL    HW2 1206   1.003   0.162   1.048
  176SOL     OW 1207   0.602   1.490   0.483
  176SOL    HW1 1208   0.640   1.440   0.412
  176SOL    HW2 1209   0.531   1.541   0.443
  177SOL     OW 1210   1.720   0.393   1.377
  177SOL    HW1 1211   1.792   0.456   1.377
  177SOL    HW2 1212   1.750   0.321   1.321
  178SOL     OW 1213   0.261   1.331   0.284
  178SOL    HW1 1214   0.174   1.345   0.248
  178SOL    HW2 1215   0.258   1.371   0.371
  179SOL     OW 1216   0.116   1.007   1.696
  179SOL    HW1 1217   0.052   1.048   1.754
  179SOL    HW2 1218   0.194   0.996   1.750
  180SOL     OW 1219   0.659   0.208   1.496
  180SOL    HW1 1220   0.739   0.181   1.450
  180SOL    HW2 1221   0.687   0.223   1.586
  181SOL     OW 1222   0.052   0.339   0.012
  181SOL    HW1 1223   4.461   0.333   0.040
  181SOL    HW2 1224   0.073   0.432   0.017
  182SOL     OW 1225   1.431   0.858   1.401
  182SOL    HW1 1226   1.383   0.918   1.344
  182SOL    HW2 1227   1.521   0.861   1.368
  183SOL     OW 1228   0.080   0.185   0.298
  183SOL    HW1 1229   0.084   0.262   0.242
  183SOL    HW2 1230   0.157   0.133   0.273
  184SOL     OW 1231   1.182   1.342   0.122
  184SOL    HW1 1232   1.088   1.320   0.117
  184SOL    HW2 1233   1.203   1.335   0.215
  185SOL     OW 1234   0.622   0.831   1.428
  185SOL    HW1 1235   0.676   0.908   1.416
  185SOL    HW2 1236   0.684   0.759   1.438
  186SOL     OW 1237   1.486   1.774   0.976
  186SOL    HW1 1238   1.512   1.834   0.905
  186SOL    HW2 1239   1.566   1.761   1.026
  187SOL     OW 1240   0.714   0.562   1.705
  187SOL    HW1 1241   0.748   0.629   1.764
  187SOL    HW2 1242   0.753   0.480   1.737
  188SOL     OW 1243   1.469   1.202   1.633
  188SOL    HW1 1244   1.457   1.216   1.727
  188SOL    HW2 1245   1.563   1.216   1.618
  189SOL     OW 1246   0.382   1.743   1.564
  189SOL    HW1 1247   0.296   1.783   1.548
  189SOL    HW2 1248   0.362   1.662   1.611
  190SOL     OW 1249   1.672   0.882   1.255
  190SOL    HW1 1250   1.662   0.797   1.212
  190SOL    HW2 1251   1.662   0.946   1.185
  191SOL     OW 1252   1.219   0.326   0.447
  191SOL    HW1 1253   1.284   0.257   0.438
  191SOL    HW2 1254   1.243   0.372   0.527
  192SOL     OW 1255   0.587   0.739   0.669
  192SOL    HW1 1256   0.629   0.824   0.653
  192SOL    HW2 1257   0.519   0.733   0.602
  193SOL     OW 1258   1.765   0.362   1.643
  193SOL    HW1 1259   1.748   0.376   1.550
  193SOL    HW2 1260   1.686   0.318   1.675
  194SOL     OW 1261   1.744   0.933   1.513
  194SOL    HW1 1262   1.745   1.028   1.526
  194SOL    HW2 1263   1.729   0.923   1.419
  195SOL     OW 1264   0.898   1.358   0.063
  195SOL    HW1 1265   0.828   1.360   0.128
  195SOL    HW2 1266   0.890   1.441   0.016
  196SOL     OW 1267   0.659   1.794   0.948
  196SOL    HW1 1268   0.638   1.883   0.922
  196SOL    HW2 1269   0.755   1.788   0.939
  197SOL     OW 1270   0.867   0.966   0.855
  197SOL    HW1 1271   0.917   0.895   0.895
  197SOL    HW2 1272   0.833   1.016   0.929
  198SOL     OW 1273   1.080   0.990   0.086
  198SOL    HW1 1274   1.056   1.025   0.000
  198SOL    HW2 1275   1.156   0.934   0.069
  199SOL     OW 1276   1.857   1.555   0.844
  199SOL    HW1 1277   1.779   1.546   0.790
  199SOL    HW2 1278   1.845   1.491   0.915
  200SOL     OW 1279   0.229   1.307   1.857
  200SOL    HW1 1280   0.158   1.246   1.833
  200SOL    HW2 1281   0.221   1.317   1.952
  201SOL     OW 1282   0.100   1.235   0.667
  201SOL    HW1 1283   0.113   1.188   0.749
  201SOL    HW2 1284   0.166   1.198   0.608
  202SOL     OW 1285   0.681   1.401   1.627
  202SOL    HW1 1286   0.601   1.357   1.655
  202SOL    HW2 1287   0.675   1.489   1.664
  203SOL     OW 1288   1.811   0.183   1.239
  203SOL    HW1 1289   1.808   0.090   1.260
  203SOL    HW2 1290   1.826   0.186   1.144
  204SOL     OW 1291   0.438   0.431   0.529
  204SOL    HW1 1292   0.459   0.360   0.469
  204SOL    HW2 1293   0.381   0.391   0.595
  205SOL     OW 1294   1.704   1.488   1.095
  205SOL    HW1 1295   1.620   1.464   1.054
  205SOL    HW2 1296   1.716   1.422   1.163
  206SOL     OW 1297   0.312   0.503   1.256
  206SOL    HW1 1298   0.384   0.456   1.298
  206SOL    HW2 1299   0.339   0.513   1.165
  207SOL     OW 1300   0.826   1.577   0.679
  207SOL    HW1 1301   0.817   1.626   0.597
  207SOL    HW2 1302   0.748   1.522   0.683
  208SOL     OW 1303   1.432   0.216   1.118
  208SOL    HW1 1304   1.468   0.145   1.171
  208SOL    HW2 1305   1.381   0.269   1.179
  209SOL     OW 1306   0.997   0.013   1.148
  209SOL    HW1 1307   0.952   4.429   1.138
  209SOL    HW2 1308   1.089   4.489   1.161
  210SOL     OW 1309   0.767   1.328   0.313
  210SOL    HW1 1310   0.738   1.238   0.326
  210SOL    HW2 1311   0.852   1.332   0.358
  211SOL     OW 1312   0.621   1.558   1.285
  211SOL    HW1 1313   0.623   1.639   1.335
  211SOL    HW2 1314   0.708   1.551   1.246
  212SOL     OW 1315   1.348   0.059   0.169
  212SOL    HW1 1316   1.384   0.004   0.099
  212SOL    HW2 1317   1.269   0.013   0.197
  213SOL     OW 1318   1.315   0.463   0.680
  213SOL    HW1 1319   1.252   0.535   0.680
  213SOL    HW2 1320   1.302   0.419   0.765
  214SOL     OW 1321   1.587   0.202   0.868
  214SOL    HW1 1322   1.525   0.216   0.940
  214SOL    HW2 1323   1.589   0.286   0.821
  215SOL     OW 1324   0.039   1.049   0.282
  215SOL    HW1 1325   0.134   1.048   0.285
  215SOL    HW2 1326   0.012   1.014   0.368
  216SOL     OW 1327   0.884   1.651   0.347
  216SOL    HW1 1328   0.812   1.631   0.286
  216SOL    HW2 1329   0.851   1.726   0.398
  217SOL     OW 1330   0.247   0.626   1.981
  217SOL    HW1 1331   0.172   0.610   2.038
  217SOL    HW2 1332   0.215   0.611   1.893
  218SOL     OW 1333   0.196   0.293   2.851
  218SOL    HW1 1334   0.232   0.269   2.937
  218SOL    HW2 1335   0.132   0.224   2.832
  219SOL     OW 1336   0.006   0.378   2.504
  219SOL    HW1 1337   4.427   0.415   2.543
  219SOL    HW2 1338   4.474   0.307   2.449
  220SOL     OW 1339   0.567   1.283   3.035
  220SOL    HW1 1340   0.479   1.288   2.997
  220SOL    HW2 1341   0.583   1.371   3.070
  221SOL     OW 1342   1.558   1.512   2.568
  221SOL    HW1 1343   1.515   1.494   2.651
  221SOL    HW2 1344   1.487   1.517   2.504
  222SOL     OW 1345   1.132   0.699   2.563
  222SOL    HW1 1346   1.180   0.782   2.551
  222SOL    HW2 1347   1.083   0.711   2.644
  223SOL     OW 1348   1.765   0.608   2.091
  223SOL    HW1 1349   1.746   0.598   1.998
  223SOL    HW2 1350   1.733   0.528   2.132
  224SOL     OW 1351   0.758   1.144   2.901
  224SOL    HW1 1352   0.688   1.178   2.957
  224SOL    HW2 1353   0.792   1.221   2.856
  225SOL     OW 1354   0.863   0.778   3.683
  225SOL    HW1 1355   0.850   0.849   3.745
  225SOL    HW2 1356   0.887   0.822   3.601
  226SOL     OW 1357   0.686   1.006   2.511
  226SOL    HW1 1358   0.750   0.992   2.580
  226SOL    HW2 1359   0.616   1.056   2.553
  227SOL     OW 1360   0.709   1.151   3.672
  227SOL    HW1 1361   0.756   1.230   3.697
  227SOL    HW2 1362   0.625   1.182   3.638
  228SOL     OW 1363   0.336   1.423   2.932
  228SOL    HW1 1364   0.255   1.403   2.885
  228SOL    HW2 1365   0.387   1.477   2.871
  229SOL     OW 1366   1.461   1.499   3.213
  229SOL    HW1 1367   1.508   1.582   3.222
  229SOL    HW2 1368   1.405   1.494   3.290
  230SOL     OW 1369   0.437   0.396   3.355
  230SOL    HW1 1370   0.525   0.360   3.356
  230SOL    HW2 1371   0.380   0.321   3.371
  231SOL     OW 1372   1.612   0.447   2.600
  231SOL    HW1 1373   1.532   0.471   2.553
  231SOL    HW2 1374   1.633   0.525   2.652
  232SOL     OW 1375   0.245   1.692   2.341
  232SOL    HW1 1376   0.232   1.776   2.383
  232SOL    HW2 1377   0.309   1.709   2.272
  233SOL     OW 1378   1.136   1.341   3.554
  233SOL    HW1 1379   1.176   1.337   3.641
  233SOL    HW2 1380   1.083   1.261   3.548
  234SOL     OW 1381   0.245   1.427   2.390
  234SOL    HW1 1382   0.237   1.523   2.394
  234SOL    HW2 1383   0.181   1.395   2.453
  235SOL     OW 1384   0.245   1.081   2.745
  235SOL    HW1 1385   0.263   0.993   2.777
  235SOL    HW2 1386   0.187   1.120   2.810
  236SOL     OW 1387   0.615   1.791   3.294
  236SOL    HW1 1388   0.532   1.773   3.337
  236SOL    HW2 1389   0.636   1.881   3.318
  237SOL     OW 1390   0.583   0.984   1.998
  237SOL    HW1 1391   0.628   1.030   1.927
  237SOL    HW2 1392   0.628   1.012   2.078
  238SOL     OW 1393   1.584   0.115   3.335
  238SOL    HW1 1394   1.599   0.184   3.270
  238SOL    HW2 1395   1.574   0.162   3.418
  239SOL     OW 1396   0.136   0.642   2.436
  239SOL    HW1 1397   0.083   0.564   2.452
  239SOL    HW2 1398   0.107   0.704   2.504
  240SOL     OW 1399   1.841   1.761   2.197
  240SOL    HW1 1400   1.901   1.733   2.266
  240SOL    HW2 1401   1.867   1.851   2.178
  241SOL     OW 1402   0.033   1.601   1.999
  241SOL    HW1 1403   0.021   1.506   1.999
  241SOL    HW2 1404   0.014   1.628   2.089
  242SOL     OW 1405   1.691   0.920   2.501
  242SOL    HW1 1406   1.775   0.879   2.480
  242SOL    HW2 1407   1.669   0.969   2.422
  243SOL     OW 1408   1.645   1.108   2.291
  243SOL    HW1 1409   1.731   1.116   2.249
  243SOL    HW2 1410   1.650   1.168   2.365
  244SOL     OW 1411   0.106   0.762   3.448
  244SOL    HW1 1412   0.200   0.760   3.428
  244SOL    HW2 1413   0.086   0.855   3.459
  245SOL     OW 1414   0.613   1.383   2.598
  245SOL    HW1 1415   0.566   1.300   2.607
  245SOL    HW2 1416   0.597   1.410   2.507
  246SOL     OW 1417   1.290   1.238   3.286
  246SOL    HW1 1418   1.322   1.171   3.226
  246SOL    HW2 1419   1.346   1.231   3.363
  247SOL     OW 1420   0.818   0.012   2.410
  247SOL    HW1 1421   0.852   0.098   2.386
  247SOL    HW2 1422   0.723   0.019   2.400
  248SOL     OW 1423   0.182   0.943   3.141
  248SOL    HW1 1424   0.273   0.926   3.119
  248SOL    HW2 1425   0.133   0.922   3.062
  249SOL     OW 1426   1.532   0.991   2.059
  249SOL    HW1 1427   1.461   0.934   2.090
  249SOL    HW2 1428   1.571   1.026   2.139
  250SOL     OW 1429   1.185   1.804   3.483
  250SOL    HW1 1430   1.200   1.862   3.408
  250SOL    HW2 1431   1.200   1.716   3.449
  251SOL     OW 1432   0.318   0.260   3.633
  251SOL    HW1 1433   0.386   0.312   3.676
  251SOL    HW2 1434   0.242   0.268   3.691
  252SOL     OW 1435   1.465   1.419   2.814
  252SOL    HW1 1436   1.397   1.434   2.880
  252SOL    HW2 1437   1.454   1.328   2.788
  253SOL     OW 1438   1.662   1.734   2.439
  253SOL    HW1 1439   1.637   1.705   2.351
  253SOL    HW2 1440   1.635   1.662   2.496
  254SOL     OW 1441   0.596   0.723   2.127
  254SOL    HW1 1442   0.601   0.804   2.075
  254SOL    HW2 1443   0.530   0.741   2.194
  255SOL     OW 1444   1.290   0.360   2.796
  255SOL    HW1 1445   1.201   0.328   2.780
  255SOL    HW2 1446   1.327   0.297   2.858
  256SOL     OW 1447   1.581   1.669   2.171
  256SOL    HW1 1448   1.670   1.702   2.164
  256SOL    HW2 1449   1.555   1.651   2.080
  257SOL     OW 1450   0.797   0.617   3.316
  257SOL    HW1 1451   0.769   0.593   3.405
  257SOL    HW2 1452   0.752   0.554   3.259
  258SOL     OW 1453   1.389   0.478   3.538
  258SOL    HW1 1454   1.391   0.522   3.623
  258SOL    HW2 1455   1.456   0.410   3.544
  259SOL     OW 1456   0.957   0.888   3.443
  259SOL    HW1 1457   1.011   0.817   3.409
  259SOL    HW2 1458   0.910   0.922   3.367
  260SOL     OW 1459   0.996   0.417   3.099
  260SOL    HW1 1460   0.911   0.429   3.140
  260SOL    HW2 1461   0.978   0.365   3.021
  261SOL     OW 1462   1.049   0.698   2.290
  261SOL    HW1 1463   1.065   0.691   2.384
  261SOL    HW2 1464   0.967   0.651   2.275
  262SOL     OW 1465   0.099   0.824   2.645
  262SOL    HW1 1466   0.185   0.806   2.682
  262SOL    HW2 1467   0.050   0.866   2.716
  263SOL     OW 1468   0.124   1.855   3.438
  263SOL    HW1 1469   0.118   1.830   3.531
  263SOL    HW2 1470   0.045   1.817   3.398
  264SOL     OW 1471   0.853   0.368   2.039
  264SOL    HW1 1472   0.928   0.403   1.993
  264SOL    HW2 1473   0.871   0.274   2.047
  265SOL     OW 1474   1.706   0.575   3.690
  265SOL    HW1 1475   1.670   0.651   3.644
  265SOL    HW2 1476   1.740   0.519   3.620
  266SOL     OW 1477   1.376   1.143   2.404
  266SOL    HW1 1478   1.454   1.129   2.351
  266SOL    HW2 1479   1.323   1.205   2.353
  267SOL     OW 1480   0.543   0.202   2.763
  267SOL    HW1 1481   0.562   0.222   2.855
  267SOL    HW2 1482   0.534   0.288   2.722
  268SOL     OW 1483   1.008   1.445   2.335
  268SOL    HW1 1484   0.968   1.517   2.286
  268SOL    HW2 1485   0.992   1.467   2.427
  269SOL     OW 1486   0.355   1.808   2.719
  269SOL    HW1 1487   0.398   1.723   2.729
  269SOL    HW2 1488   0.425   1.872   2.733
  270SOL     OW 1489   1.798   1.059   2.729
  270SOL    HW1 1490   1.742   1.042   2.653
  270SOL    HW2 1491   1.738   1.064   2.803
  271SOL     OW 1492   1.228   1.539   3.375
  271SOL    HW1 1493   1.214   1.466   3.435
  271SOL    HW2 1494   1.167   1.523   3.303
  272SOL     OW 1495   0.317   0.954   2.112
  272SOL    HW1 1496   0.402   0.977   2.073
  272SOL    HW2 1497   0.300   0.865   2.083
  273SOL     OW 1498   1.477   0.740   2.587
  273SOL    HW1 1499   1.464   0.694   2.670
  273SOL    HW2 1500   1.554   0.796   2.603
  274SOL     OW 1501   0.466   1.261   3.597
  274SOL    HW1 1502   0.438   1.268   3.506
  274SOL    HW2 1503   0.385   1.267   3.648
  275SOL     OW 1504   1.121   1.777   2.094
  275SOL    HW1 1505   1.049   1.735   2.140
  275SOL    HW2 1506   1.143   1.717   2.022
  276SOL     OW 1507   0.165   0.263   3.371
  276SOL    HW1 1508   0.136   0.350   3.344
  276SOL    HW2 1509   0.199   0.276   3.460
  277SOL     OW 1510   1.629   1.380   1.949
  277SOL    HW1 1511   1.588   1.465   1.933
  277SOL    HW2 1512   1.560   1.316   1.930
  278SOL     OW 1513   0.469   1.743   2.177
  278SOL    HW1 1514   0.509   1.796   2.245
  278SOL    HW2 1515   0.543   1.711   2.125
  279SOL     OW 1516   1.417   0.134   2.280
  279SOL    HW1 1517   1.400   0.085   2.199
  279SOL    HW2 1518   1.512   0.130   2.291
  280SOL     OW 1519   0.257   1.790   3.098
  280SOL    HW1 1520   0.305   1.717   3.135
  280SOL    HW2 1521   0.228   1.759   3.012
  281SOL     OW 1522   0.938   1.698   2.762
  281SOL    HW1 1523   1.015   1.646   2.783
  281SOL    HW2 1524   0.893   1.649   2.693
  282SOL     OW 1525   0.393   0.694   2.336
  282SOL    HW1 1526   0.418   0.603   2.347
  282SOL    HW2 1527   0.300   0.697   2.362
  283SOL     OW 1528   1.526   0.233   3.584
  283SOL    HW1 1529   1.525   0.256   3.677
  283SOL    HW2 1530   1.450   0.175   3.573
  284SOL     OW 1531   0.622   0.122   1.979
  284SOL    HW1 1532   0.711   0.087   1.991
  284SOL    HW2 1533   0.594   0.086   1.895
  285SOL     OW 1534   0.769   0.269   3.615
  285SOL    HW1 1535   0.835   0.201   3.629
  285SOL    HW2 1536   0.725   0.278   3.700
  286SOL     OW 1537   0.877   1.521   3.055
  286SOL    HW1 1538   0.862   1.485   2.968
  286SOL    HW2 1539   0.946   1.466   3.092
  287SOL     OW 1540   1.342   0.589   3.291
  287SOL    HW1 1541   1.370   0.559   3.378
  287SOL    HW2 1542   1.376   0.678   3.284
  288SOL     OW 1543   0.814   1.397   2.799
  288SOL    HW1 1544   0.898   1.387   2.754
  288SOL    HW2 1545   0.749   1.396   2.729
  289SOL     OW 1546   0.922   0.516   2.764
  289SOL    HW1 1547   0.906   0.514   2.669
  289SOL    HW2 1548   0.963   0.431   2.782
  290SOL     OW 1549   0.559   0.067   2.371
  290SOL    HW1 1550   0.472   0.054   2.408
  290SOL    HW2 1551   0.548   0.139   2.309
  291SOL     OW 1552   1.429   1.198   1.903
  291SOL    HW1 1553   1.459   1.122   1.953
  291SOL    HW2 1554   1.343   1.218   1.940
  292SOL     OW 1555   0.303   0.076   2.047
  292SOL    HW1 1556   0.387   0.122   2.043
  292SOL    HW2 1557   0.320   4.499   2.102
  293SOL     OW 1558   0.951   0.241   2.334
  293SOL    HW1 1559   0.899   0.290   2.271
  293SOL    HW2 1560   1.039   0.276   2.325
  294SOL     OW 1561   1.080   0.680   3.323
  294SOL    HW1 1562   1.009   0.616   3.324
  294SOL    HW2 1563   1.159   0.627   3.311
  295SOL     OW 1564   1.225   1.569   2.655
  295SOL    HW1 1565   1.242   1.637   2.590
  295SOL    HW2 1566   1.292   1.582   2.722
  296SOL     OW 1567   0.465   1.148   2.599
  296SOL    HW1 1568   0.394   1.129   2.660
  296SOL    HW2 1569   0.428   1.132   2.512
  297SOL     OW 1570   1.270   1.795   2.468
  297SOL    HW1 1571   1.315   1.856   2.410
  297SOL    HW2 1572   1.206   1.848   2.514
  298SOL     OW 1573   1.030   0.549   1.877
  298SOL    HW1 1574   0.982   0.630   1.862
  298SOL    HW2 1575   1.089   0.569   1.950
  299SOL     OW 1576   0.092   0.522   3.274
  299SOL    HW1 1577   0.152   0.532   3.200
  299SOL    HW2 1578   0.061   0.611   3.292
  300SOL     OW 1579   0.563   0.243   3.028
  300SOL    HW1 1580   0.593   0.158   3.061
  300SOL    HW2 1581   0.469   0.244   3.047
  301SOL     OW 1582   0.866   0.502   2.488
  301SOL    HW1 1583   0.816   0.544   2.418
  301SOL    HW2 1584   0.845   0.409   2.480
  302SOL     OW 1585   0.968   0.030   2.640
  302SOL    HW1 1586   0.919   0.026   2.557
  302SOL    HW2 1587   0.979   4.438   2.664
  303SOL     OW 1588   1.436   1.163   2.720
  303SOL    HW1 1589   1.368   1.096   2.718
  303SOL    HW2 1590   1.459   1.176   2.628
  304SOL     OW 1591   1.467   0.603   2.840
  304SOL    HW1 1592   1.415   0.522   2.843
  304SOL    HW2 1593   1.526   0.597   2.915
  305SOL     OW 1594   1.847   0.818   2.244
  305SOL    HW1 1595   1.903   0.766   2.302
  305SOL    HW2 1596   1.818   0.757   2.177
  306SOL     OW 1597   0.492   1.415   2.023
  306SOL    HW1 1598   0.416   1.385   2.073
  306SOL    HW2 1599   0.472   1.392   1.932
  307SOL     OW 1600   1.669   1.265   2.509
  307SOL    HW1 1601   1.764   1.271   2.523
  307SOL    HW2 1602   1.637   1.353   2.531
  308SOL     OW 1603   1.394   0.570   1.932
  308SOL    HW1 1604   1.333   0.554   2.004
  308SOL    HW2 1605   1.480   0.550   1.968
  309SOL     OW 1606   0.523   0.264   2.184
  309SOL    HW1 1607   0.569   0.214   2.117
  309SOL    HW2 1608   0.508   0.350   2.144
  310SOL     OW 1609   1.754   1.237   3.439
  310SOL    HW1 1610   1.841   1.198   3.434
  310SOL    HW2 1611   1.769   1.327   3.466
  311SOL     OW 1612   1.060   1.353   3.197
  311SOL    HW1 1613   0.985   1.323   3.248
  311SOL    HW2 1614   1.136   1.312   3.238
  312SOL     OW 1615   1.607   1.624   3.514
  312SOL    HW1 1616   1.603   1.660   3.425
  312SOL    HW2 1617   1.691   1.579   3.517
  313SOL     OW 1618   1.126   1.202   2.969
  313SOL    HW1 1619   1.068   1.240   3.034
  313SOL    HW2 1620   1.092   1.233   2.885
  314SOL     OW 1621   1.630   1.099   2.940
  314SOL    HW1 1622   1.626   1.161   3.013
  314SOL    HW2 1623   1.550   1.115   2.890
  315SOL     OW 1624   0.903   0.131   3.251
  315SOL    HW1 1625   0.926   0.087   3.169
  315SOL    HW2 1626   0.987   0.144   3.295
  316SOL     OW 1627   0.984   1.114   3.585
  316SOL    HW1 1628   0.892   1.130   3.604
  316SOL    HW2 1629   0.984   1.037   3.528
  317SOL     OW 1630   0.708   1.060   2.235
  317SOL    HW1 1631   0.696   1.046   2.328
  317SOL    HW2 1632   0.784   1.007   2.212
  318SOL     OW 1633   0.429   0.824   3.101
  318SOL    HW1 1634   0.497   0.834   3.168
  318SOL    HW2 1635   0.370   0.758   3.138
  319SOL     OW 1636   1.269   0.376   3.134
  319SOL    HW1 1637   1.301   0.455   3.179
  319SOL    HW2 1638   1.181   0.399   3.106
  320SOL     OW 1639   0.061   1.576   3.203
  320SOL    HW1 1640   0.034   1.664   3.177
  320SOL    HW2 1641   0.157   1.581   3.208
  321SOL     OW 1642   0.349   1.107   2.356
  321SOL    HW1 1643   0.359   1.180   2.295
  321SOL    HW2 1644   0.352   1.029   2.300
  322SOL     OW 1645   0.564   0.529   2.717
  322SOL    HW1 1646   0.576   0.589   2.643
  322SOL    HW2 1647   0.622   0.561   2.785
  323SOL     OW 1648   1.248   1.348   2.251
  323SOL    HW1 1649   1.303   1.420   2.282
  323SOL    HW2 1650   1.161   1.369   2.285
  324SOL     OW 1651   1.278   1.456   3.008
  324SOL    HW1 1652   1.333   1.459   3.086
  324SOL    HW2 1653   1.223   1.379   3.020
  325SOL     OW 1654   1.583   0.624   2.338
  325SOL    HW1 1655   1.538   0.677   2.404
  325SOL    HW2 1656   1.627   0.688   2.282
  326SOL     OW 1657   0.348   1.529   3.179
  326SOL    HW1 1658   0.333   1.482   3.097
  326SOL    HW2 1659   0.443   1.540   3.184
  327SOL     OW 1660   0.480   0.760   3.527
  327SOL    HW1 1661   0.505   0.799   3.444
  327SOL    HW2 1662   0.514   0.671   3.524
  328SOL     OW 1663   1.598   0.777   3.541
  328SOL    HW1 1664   1.512   0.818   3.534
  328SOL    HW2 1665   1.651   0.819   3.473
  329SOL     OW 1666   1.007   0.086   3.586
  329SOL    HW1 1667   1.031   0.170   3.547
  329SOL    HW2 1668   1.032   0.021   3.521
  330SOL     OW 1669   0.496   0.045   3.612
  330SOL    HW1 1670   0.479   4.497   3.531
  330SOL    HW2 1671   0.429   0.114   3.614
  331SOL     OW 1672   0.588   0.874   2.885
  331SOL    HW1 1673   0.617   0.965   2.888
  331SOL    HW2 1674   0.532   0.865   2.963
  332SOL     OW 1675   1.360   0.858   2.894
  332SOL    HW1 1676   1.278   0.852   2.845
  332SOL    HW2 1677   1.398   0.771   2.890
  333SOL     OW 1678   1.206   0.535   2.127
  333SOL    HW1 1679   1.212   0.454   2.179
  333SOL    HW2 1680   1.163   0.597   2.186
  334SOL     OW 1681   0.285   0.219   3.096
  334SOL    HW1 1682   0.248   0.236   3.183
  334SOL    HW2 1683   0.322   0.131   3.103
  335SOL     OW 1684   0.045   1.313   3.146
  335SOL    HW1 1685   0.077   1.266   3.223
  335SOL    HW2 1686   0.048   1.405   3.172
  336SOL     OW 1687   0.725   0.632   2.922
  336SOL    HW1 1688   0.798   0.611   2.864
  336SOL    HW2 1689   0.699   0.721   2.897
  337SOL     OW 1690   1.734   0.959   3.713
  337SOL    HW1 1691   1.685   0.903   3.652
  337SOL    HW2 1692   1.674   0.971   3.787
  338SOL     OW 1693   0.319   0.075   2.493
  338SOL    HW1 1694   0.301   0.163   2.526
  338SOL    HW2 1695   0.306   0.018   2.569
  339SOL     OW 1696   1.611   0.375   2.228
  339SOL    HW1 1697   1.642   0.313   2.293
  339SOL    HW2 1698   1.590   0.454   2.278
  340SOL     OW 1699   1.028   0.761   2.824
  340SOL    HW1 1700   1.027   0.777   2.918
  340SOL    HW2 1701   0.999   0.670   2.815
  341SOL     OW 1702   0.983   1.566   3.577
  341SOL    HW1 1703   0.967   1.610   3.494
  341SOL    HW2 1704   1.025   1.484   3.553
  342SOL     OW 1705   1.857   1.507   3.467
  342SOL    HW1 1706   1.870   1.535   3.377
  342SOL    HW2 1707   1.937   1.531   3.512
  343SOL     OW 1708   0.347   0.931   3.680
  343SOL    HW1 1709   0.421   0.960   3.734
  343SOL    HW2 1710   0.385   0.865   3.622
  344SOL     OW 1711   1.532   0.267   1.990
  344SOL    HW1 1712   1.460   0.210   2.018
  344SOL    HW2 1713   1.560   0.311   2.070
  345SOL     OW 1714   1.294   0.827   1.894
  345SOL    HW1 1715   1.336   0.741   1.896
  345SOL    HW2 1716   1.324   0.866   1.812
  346SOL     OW 1717   1.065   1.335   2.715
  346SOL    HW1 1718   1.068   1.262   2.653
  346SOL    HW2 1719   1.128   1.398   2.680
  347SOL     OW 1720   0.317   0.813   2.811
  347SOL    HW1 1721   0.411   0.830   2.807
  347SOL    HW2 1722   0.311   0.722   2.842
  348SOL     OW 1723   0.337   0.528   2.855
  348SOL    HW1 1724   0.292   0.446   2.835
  348SOL    HW2 1725   0.414   0.527   2.798
  349SOL     OW 1726   1.135   0.375   3.555
  349SOL    HW1 1727   1.087   0.439   3.607
  349SOL    HW2 1728   1.221   0.414   3.542
  350SOL     OW 1729   1.159   0.211   3.335
  350SOL    HW1 1730   1.152   0.276   3.406
  350SOL    HW2 1731   1.195   0.261   3.262
  351SOL     OW 1732   4.492   1.323   2.064
  351SOL    HW1 1733   4.399   1.338   2.047
  351SOL    HW2 1734   4.497   1.230   2.087
  352SOL     OW 1735   0.096   1.780   2.802
  352SOL    HW1 1736   0.058   1.722   2.736
  352SOL    HW2 1737   0.183   1.800   2.768
  353SOL     OW 1738   0.498   1.573   2.768
  353SOL    HW1 1739   0.566   1.636   2.792
  353SOL    HW2 1740   0.543   1.509   2.713
  354SOL     OW 1741   0.987   0.794   3.090
  354SOL    HW1 1742   1.040   0.770   3.166
  354SOL    HW2 1743   0.901   0.757   3.108
  355SOL     OW 1744   0.040   0.567   2.973
  355SOL    HW1 1745   0.114   0.522   2.932
  355SOL    HW2 1746   0.022   0.516   3.052
  356SOL     OW 1747   0.180   0.520   3.573
  356SOL    HW1 1748   0.266   0.503   3.535
  356SOL    HW2 1749   0.151   0.601   3.531
  357SOL     OW 1750   1.376   0.941   3.521
  357SOL    HW1 1751   1.397   1.034   3.521
  357SOL    HW2 1752   1.374   0.916   3.429
  358SOL     OW 1753   0.812   0.573   2.215
  358SOL    HW1 1754   0.814   0.501   2.152
  358SOL    HW2 1755   0.738   0.627   2.187
  359SOL     OW 1756   1.642   0.601   3.050
  359SOL    HW1 1757   1.631   0.541   3.125
  359SOL    HW2 1758   1.729   0.581   3.016
  360SOL     OW 1759   0.271   1.562   3.603
  360SOL    HW1 1760   0.217   1.614   3.662
  360SOL    HW2 1761   0.251   1.471   3.626
  361SOL     OW 1762   0.683   0.464   3.130
  361SOL    HW1 1763   0.647   0.383   3.093
  361SOL    HW2 1764   0.691   0.522   3.054
  362SOL     OW 1765   0.930   1.679   3.329
  362SOL    HW1 1766   0.903   1.647   3.242
  362SOL    HW2 1767   0.928   1.774   3.321
  363SOL     OW 1768   0.473   0.491   2.047
  363SOL    HW1 1769   0.532   0.563   2.069
  363SOL    HW2 1770   0.388   0.533   2.033
  364SOL     OW 1771   0.162   1.141   3.325
  364SOL    HW1 1772   0.147   1.093   3.407
  364SOL    HW2 1773   0.170   1.072   3.259
  365SOL     OW 1774   1.328   1.048   3.087
  365SOL    HW1 1775   1.352   0.985   3.018
  365SOL    HW2 1776   1.256   1.099   3.049
  366SOL     OW 1777   1.310   0.856   2.169
  366SOL    HW1 1778   1.234   0.827   2.219
  366SOL    HW2 1779   1.285   0.843   2.077
  367SOL     OW 1780   1.764   1.743   3.010
  367SOL    HW1 1781   1.827   1.773   2.944
  367SOL    HW2 1782   1.747   1.652   2.987
  368SOL     OW 1783   1.241   1.733   2.977
  368SOL    HW1 1784   1.323   1.752   2.932
  368SOL    HW2 1785   1.245   1.639   2.995
  369SOL     OW 1786   0.068   1.187   2.911
  369SOL    HW1 1787   0.071   1.221   3.000
  369SOL    HW2 1788   0.015   1.251   2.863
  370SOL     OW 1789   0.679   1.664   3.588
  370SOL    HW1 1790   0.625   1.743   3.584
  370SOL    HW2 1791   0.741   1.674   3.516
  371SOL     OW 1792   1.718   0.130   2.358
  371SOL    HW1 1793   1.792   0.136   2.297
  371SOL    HW2 1794   1.740   0.056   2.415
  372SOL     OW 1795   1.390   1.568   2.345
  372SOL    HW1 1796   1.450   1.599   2.278
  372SOL    HW2 1797   1.342   1.646   2.373
  373SOL     OW 1798   0.120   1.808   3.710
  373SOL    HW1 1799   0.081   1.734   3.756
  373SOL    HW2 1800   0.183   1.844   3.771
  374SOL     OW 1801   1.278   0.926   2.534
  374SOL    HW1 1802   1.351   0.864   2.538
  374SOL    HW2 1803   1.312   0.999   2.482
  375SOL     OW 1804   0.817   1.273   3.293
  375SOL    HW1 1805   0.790   1.311   3.376
  375SOL    HW2 1806   0.746   1.294   3.233
  376SOL     OW 1807   0.673   1.617   2.017
  376SOL    HW1 1808   0.681   1.628   1.923
  376SOL    HW2 1809   0.619   1.539   2.027
  377SOL     OW 1810   1.629   1.726   3.253
  377SOL    HW1 1811   1.678   1.734   3.172
  377SOL    HW2 1812   1.615   1.816   3.282
  378SOL     OW 1813   1.839   0.155   2.828
  378SOL    HW1 1814   1.868   0.078   2.779
  378SOL    HW2 1815   1.752   0.175   2.793
  379SOL     OW 1816   0.266   0.325   2.586
  379SOL    HW1 1817   0.183   0.360   2.552
  379SOL    HW2 1818   0.251   0.317   2.680
  380SOL     OW 1819   1.206   1.607   1.893
  380SOL    HW1 1820   1.198   1.516   1.920
  380SOL    HW2 1821   1.141   1.618   1.823
  381SOL     OW 1822   0.825   1.006   3.234
  381SOL    HW1 1823   0.868   1.003   3.148
  381SOL    HW2 1824   0.825   1.099   3.257
  382SOL     OW 1825   0.915   0.910   2.151
  382SOL    HW1 1826   0.977   0.942   2.086
  382SOL    HW2 1827   0.962   0.840   2.196
  383SOL     OW 1828   1.494   1.624   1.904
  383SOL    HW1 1829   1.399   1.620   1.892
  383SOL    HW2 1830   1.529   1.630   1.815
  384SOL     OW 1831   0.373   1.306   3.353
  384SOL    HW1 1832   0.356   1.384   3.301
  384SOL    HW2 1833   0.297   1.249   3.337
  385SOL     OW 1834   1.611   1.283   3.143
  385SOL    HW1 1835   1.672   1.276   3.216
  385SOL    HW2 1836   1.551   1.353   3.168
  386SOL     OW 1837   1.049   1.106   2.567
  386SOL    HW1 1838   0.979   1.055   2.607
  386SOL    HW2 1839   1.111   1.040   2.534
  387SOL     OW 1840   1.006   0.242   2.862
  387SOL    HW1 1841   1.013   0.215   2.770
  387SOL    HW2 1842   1.000   0.160   2.910
  388SOL     OW 1843   0.603   1.489   2.345
  388SOL    HW1 1844   0.643   1.439   2.274
  388SOL    HW2 1845   0.532   1.538   2.303
  389SOL     OW 1846   1.720   0.393   3.240
  389SOL    HW1 1847   1.792   0.456   3.239
  389SOL    HW2 1848   1.750   0.321   3.183
  390SOL     OW 1849   0.252   1.345   2.139
  390SOL    HW1 1850   0.157   1.345   2.125
  390SOL    HW2 1851   0.263   1.377   2.229
  391SOL     OW 1852   0.116   1.007   3.558
  391SOL    HW1 1853   0.052   1.048   3.616
  391SOL    HW2 1854   0.194   0.996   3.612
  392SOL     OW 1855   0.659   0.207   3.358
  392SOL    HW1 1856   0.739   0.181   3.312
  392SOL    HW2 1857   0.687   0.223   3.448
  393SOL     OW 1858   0.071   0.321   1.888
  393SOL    HW1 1859   4.476   0.329   1.899
  393SOL    HW2 1860   0.099   0.407   1.857
  394SOL     OW 1861   1.431   0.858   3.263
  394SOL    HW1 1862   1.383   0.918   3.207
  394SOL    HW2 1863   1.521   0.861   3.230
  395SOL     OW 1864   0.084   0.188   2.165
  395SOL    HW1 1865   0.079   0.260   2.103
  395SOL    HW2 1866   0.162   0.139   2.139
  396SOL     OW 1867   1.180   1.341   1.979
  396SOL    HW1 1868   1.089   1.311   1.982
  396SOL    HW2 1869   1.208   1.341   2.070
  397SOL     OW 1870   0.621   0.831   3.290
  397SOL    HW1 1871   0.676   0.908   3.278
  397SOL    HW2 1872   0.684   0.759   3.300
  398SOL     OW 1873   1.485   1.774   2.838
  398SOL    HW1 1874   1.509   1.834   2.768
  398SOL    HW2 1875   1.566   1.761   2.887
  399SOL     OW 1876   0.715   0.561   3.567
  399SOL    HW1 1877   0.748   0.629   3.626
  399SOL    HW2 1878   0.754   0.480   3.599
  400SOL     OW 1879   1.469   1.202   3.495
  400SOL    HW1 1880   1.458   1.216   3.589
  400SOL    HW2 1881   1.563   1.215   3.480
  401SOL     OW 1882   0.382   1.743   3.426
  401SOL    HW1 1883   0.296   1.783   3.410
  401SOL    HW2 1884   0.362   1.662   3.473
  402SOL     OW 1885   1.672   0.882   3.117
  402SOL    HW1 1886   1.662   0.797   3.074
  402SOL    HW2 1887   1.662   0.946   3.047
  403SOL     OW 1888   1.218   0.328   2.310
  403SOL    HW1 1889   1.283   0.259   2.300
  403SOL    HW2 1890   1.245   0.375   2.389
  404SOL     OW 1891   0.588   0.739   2.531
  404SOL    HW1 1892   0.629   0.824   2.514
  404SOL    HW2 1893   0.519   0.733   2.465
  405SOL     OW 1894   1.765   0.362   3.505
  405SOL    HW1 1895   1.749   0.376   3.412
  405SOL    HW2 1896   1.686   0.318   3.537
  406SOL     OW 1897   1.744   0.933   3.375
  406SOL    HW1 1898   1.745   1.028   3.388
  406SOL    HW2 1899   1.729   0.923   3.281
  407SOL     OW 1900   0.863   1.368   1.893
  407SOL    HW1 1901   0.823   1.395   1.976
  407SOL    HW2 1902   0.881   1.450   1.848
  408SOL     OW 1903   0.659   1.794   2.810
  408SOL    HW1 1904   0.638   1.883   2.784
  408SOL    HW2 1905   0.755   1.788   2.801
  409SOL     OW 1906   0.867   0.966   2.717
  409SOL    HW1 1907   0.917   0.895   2.757
  409SOL    HW2 1908   0.833   1.016   2.792
  410SOL     OW 1909   1.080   0.988   1.951
  410SOL    HW1 1910   1.058   1.038   1.873
  410SOL    HW2 1911   1.155   0.935   1.925
  411SOL     OW 1912   1.857   1.553   2.704
  411SOL    HW1 1913   1.776   1.544   2.653
  411SOL    HW2 1914   1.846   1.491   2.776
  412SOL     OW 1915   0.229   1.306   3.719
  412SOL    HW1 1916   0.158   1.246   3.695
  412SOL    HW2 1917   0.220   1.316   3.813
  413SOL     OW 1918   0.103   1.238   2.529
  413SOL    HW1 1919   0.110   1.188   2.610
  413SOL    HW2 1920   0.163   1.194   2.469
  414SOL     OW 1921   0.681   1.401   3.489
  414SOL    HW1 1922   0.601   1.357   3.517
  414SOL    HW2 1923   0.675   1.489   3.526
  415SOL     OW 1924   1.810   0.183   3.101
  415SOL    HW1 1925   1.809   0.090   3.122
  415SOL    HW2 1926   1.825   0.186   3.006
  416SOL     OW 1927   0.439   0.431   2.392
  416SOL    HW1 1928   0.458   0.361   2.330
  416SOL    HW2 1929   0.381   0.391   2.456
  417SOL     OW 1930   1.704   1.487   2.956
  417SOL    HW1 1931   1.620   1.464   2.916
  417SOL    HW2 1932   1.717   1.422   3.025
  418SOL     OW 1933   0.312   0.504   3.118
  418SOL    HW1 1934   0.384   0.456   3.159
  418SOL    HW2 1935   0.339   0.513   3.027
  419SOL     OW 1936   0.826   1.578   2.541
  419SOL    HW1 1937   0.818   1.626   2.459
  419SOL    HW2 1938   0.748   1.523   2.545
  420SOL     OW 1939   1.432   0.215   2.980
  420SOL    HW1 1940   1.468   0.145   3.034
  420SOL    HW2 1941   1.381   0.268   3.041
  421SOL     OW 1942   0.997   0.011   3.011
  421SOL    HW1 1943   0.952   4.427   3.000
  421SOL    HW2 1944   1.089   4.487   3.023
  422SOL     OW 1945   0.772   1.332   2.173
  422SOL    HW1 1946   0.739   1.242   2.180
  422SOL    HW2 1947   0.854   1.331   2.222
  423SOL     OW 1948   0.621   1.558   3.147
  423SOL    HW1 1949   0.623   1.639   3.197
  423SOL    HW2 1950   0.708   1.550   3.108
  424SOL     OW 1951   1.342   0.053   2.014
  424SOL    HW1 1952   1.381   4.478   1.970
  424SOL    HW2 1953   1.266   0.017   2.061
  425SOL     OW 1954   1.314   0.462   2.541
  425SOL    HW1 1955   1.253   0.536   2.542
  425SOL    HW2 1956   1.302   0.420   2.626
  426SOL     OW 1957   1.586   0.202   2.730
  426SOL    HW1 1958   1.525   0.216   2.802
  426SOL    HW2 1959   1.588   0.286   2.683
  427SOL     OW 1960   0.041   1.053   2.149
  427SOL    HW1 1961   0.136   1.040   2.141
  427SOL    HW2 1962   0.019   1.015   2.234
  428SOL     OW 1963   0.882   1.650   2.206
  428SOL    HW1 1964   0.811   1.632   2.145
  428SOL    HW2 1965   0.853   1.726   2.256
  429SOL     OW 1966   0.247   0.626   3.844
  429SOL    HW1 1967   0.172   0.610   3.900
  429SOL    HW2 1968   0.215   0.611   3.755
  430SOL     OW 1969   0.196   0.293   4.714
  430SOL    HW1 1970   0.232   0.269   4.799
  430SOL    HW2 1971   0.132   0.224   4.694
  431SOL     OW 1972   0.006   0.378   4.366
  431SOL    HW1 1973   4.427   0.415   4.405
  431SOL    HW2 1974   4.474   0.307   4.311
  432SOL     OW 1975   0.567   1.284   4.897
  432SOL    HW1 1976   0.480   1.288   4.859
  432SOL    HW2 1977   0.582   1.371   4.932
  433SOL     OW 1978   1.559   1.513   4.429
  433SOL    HW1 1979   1.516   1.492   4.511
  433SOL    HW2 1980   1.489   1.517   4.364
  434SOL     OW 1981   1.133   0.699   4.425
  434SOL    HW1 1982   1.180   0.782   4.414
  434SOL    HW2 1983   1.083   0.711   4.506
  435SOL     OW 1984   1.765   0.608   3.953
  435SOL    HW1 1985   1.745   0.598   3.860
  435SOL    HW2 1986   1.733   0.527   3.993
  436SOL     OW 1987   0.759   1.144   4.763
  436SOL    HW1 1988   0.689   1.178   4.819
  436SOL    HW2 1989   0.792   1.222   4.717
  437SOL     OW 1990   0.864   0.778   5.545
  437SOL    HW1 1991   0.850   0.849   5.607
  437SOL    HW2 1992   0.887   0.822   5.463
  438SOL     OW 1993   0.686   1.006   4.372
  438SOL    HW1 1994   0.750   0.992   4.442
  438SOL    HW2 1995   0.616   1.056   4.415
  439SOL     OW 1996   0.709   1.151   5.534
  439SOL    HW1 1997   0.756   1.231   5.559
  439SOL    HW2 1998   0.625   1.182   5.500
  440SOL     OW 1999   0.336   1.423   4.794
  440SOL    HW1 2000   0.255   1.403   4.747
  440SOL    HW2 2001   0.386   1.477   4.733
  441SOL     OW 2002   0.437   0.396   5.217
  441SOL    HW1 2003   0.526   0.359   5.218
  441SOL    HW2 2004   0.380   0.321   5.233
  442SOL     OW 2005   1.612   0.447   4.462
  442SOL    HW1 2006   1.532   0.471   4.415
  442SOL    HW2 2007   1.633   0.525   4.514
  443SOL     OW 2008   0.245   1.692   4.203
  443SOL    HW1 2009   0.232   1.777   4.245
  443SOL    HW2 2010   0.309   1.710   4.134
  444SOL     OW 2011   1.137   1.340   5.414
  444SOL    HW1 2012   1.176   1.338   5.501
  444SOL    HW2 2013   1.082   1.261   5.410
  445SOL     OW 2014   0.246   1.427   4.252
  445SOL    HW1 2015   0.237   1.523   4.256
  445SOL    HW2 2016   0.182   1.395   4.315
  446SOL     OW 2017   0.246   1.081   4.607
  446SOL    HW1 2018   0.263   0.993   4.640
  446SOL    HW2 2019   0.188   1.120   4.673
  447SOL     OW 2020   0.616   1.790   5.157
  447SOL    HW1 2021   0.532   1.772   5.199
  447SOL    HW2 2022   0.635   1.881   5.180
  448SOL     OW 2023   0.583   0.984   3.860
  448SOL    HW1 2024   0.628   1.030   3.789
  448SOL    HW2 2025   0.628   1.012   3.940
  449SOL     OW 2026   1.585   0.115   5.197
  449SOL    HW1 2027   1.598   0.184   5.132
  449SOL    HW2 2028   1.574   0.162   5.280
  450SOL     OW 2029   0.136   0.642   4.299
  450SOL    HW1 2030   0.083   0.564   4.313
  450SOL    HW2 2031   0.107   0.704   4.366
  451SOL     OW 2032   1.841   1.762   4.060
  451SOL    HW1 2033   1.901   1.731   4.128
  451SOL    HW2 2034   1.870   1.852   4.042
  452SOL     OW 2035   0.033   1.601   3.861
  452SOL    HW1 2036   0.021   1.506   3.861
  452SOL    HW2 2037   0.013   1.628   3.951
  453SOL     OW 2038   1.692   0.921   4.363
  453SOL    HW1 2039   1.775   0.879   4.342
  453SOL    HW2 2040   1.669   0.969   4.284
  454SOL     OW 2041   1.645   1.108   4.153
  454SOL    HW1 2042   1.730   1.115   4.111
  454SOL    HW2 2043   1.650   1.168   4.227
  455SOL     OW 2044   0.106   0.762   5.310
  455SOL    HW1 2045   0.200   0.760   5.290
  455SOL    HW2 2046   0.086   0.855   5.321
  456SOL     OW 2047   0.613   1.383   4.460
  456SOL    HW1 2048   0.566   1.300   4.469
  456SOL    HW2 2049   0.597   1.410   4.370
  457SOL     OW 2050   1.299   1.248   5.140
  457SOL    HW1 2051   1.324   1.172   5.087
  457SOL    HW2 2052   1.346   1.235   5.223
  458SOL     OW 2053   0.818   0.012   4.272
  458SOL    HW1 2054   0.852   0.098   4.248
  458SOL    HW2 2055   0.723   0.019   4.262
  459SOL     OW 2056   0.182   0.943   5.004
  459SOL    HW1 2057   0.273   0.926   4.981
  459SOL    HW2 2058   0.133   0.922   4.924
  460SOL     OW 2059   1.532   0.991   3.921
  460SOL    HW1 2060   1.461   0.934   3.952
  460SOL    HW2 2061   1.571   1.026   4.001
  461SOL     OW 2062   1.185   1.808   5.332
  461SOL    HW1 2063   1.225   1.848   5.255
  461SOL    HW2 2064   1.190   1.714   5.316
  462SOL     OW 2065   0.318   0.260   5.495
  462SOL    HW1 2066   0.386   0.312   5.538
  462SOL    HW2 2067   0.242   0.268   5.553
  463SOL     OW 2068   1.449   1.427   4.662
  463SOL    HW1 2069   1.400   1.436   4.743
  463SOL    HW2 2070   1.449   1.333   4.645
  464SOL     OW 2071   1.659   1.736   4.298
  464SOL    HW1 2072   1.636   1.706   4.211
  464SOL    HW2 2073   1.635   1.663   4.356
  465SOL     OW 2074   0.596   0.723   3.989
  465SOL    HW1 2075   0.600   0.804   3.937
  465SOL    HW2 2076   0.530   0.741   4.056
  466SOL     OW 2077   1.290   0.360   4.658
  466SOL    HW1 2078   1.201   0.328   4.642
  466SOL    HW2 2079   1.327   0.297   4.720
  467SOL     OW 2080   1.581   1.669   4.032
  467SOL    HW1 2081   1.670   1.702   4.025
  467SOL    HW2 2082   1.555   1.651   3.942
  468SOL     OW 2083   0.797   0.617   5.178
  468SOL    HW1 2084   0.769   0.593   5.267
  468SOL    HW2 2085   0.752   0.554   5.121
  469SOL     OW 2086   1.389   0.478   5.400
  469SOL    HW1 2087   1.391   0.522   5.485
  469SOL    HW2 2088   1.455   0.410   5.407
  470SOL     OW 2089   0.958   0.889   5.305
  470SOL    HW1 2090   1.011   0.817   5.271
  470SOL    HW2 2091   0.910   0.922   5.229
  471SOL     OW 2092   0.996   0.417   4.961
  471SOL    HW1 2093   0.911   0.429   5.003
  471SOL    HW2 2094   0.979   0.365   4.883
  472SOL     OW 2095   1.049   0.698   4.152
  472SOL    HW1 2096   1.064   0.690   4.246
  472SOL    HW2 2097   0.967   0.651   4.137
  473SOL     OW 2098   0.098   0.824   4.507
  473SOL    HW1 2099   0.185   0.806   4.544
  473SOL    HW2 2100   0.050   0.865   4.579
  474SOL     OW 2101   0.124   1.855   5.300
  474SOL    HW1 2102   0.118   1.830   5.392
  474SOL    HW2 2103   0.045   1.818   5.260
  475SOL     OW 2104   0.853   0.368   3.902
  475SOL    HW1 2105   0.928   0.403   3.855
  475SOL    HW2 2106   0.871   0.274   3.909
  476SOL     OW 2107   1.706   0.575   5.552
  476SOL    HW1 2108   1.670   0.651   5.506
  476SOL    HW2 2109   1.740   0.518   5.482
  477SOL     OW 2110   1.376   1.143   4.266
  477SOL    HW1 2111   1.454   1.129   4.213
  477SOL    HW2 2112   1.323   1.205   4.215
  478SOL     OW 2113   0.543   0.202   4.625
  478SOL    HW1 2114   0.562   0.222   4.717
  478SOL    HW2 2115   0.534   0.288   4.584
  479SOL     OW 2116   1.008   1.446   4.198
  479SOL    HW1 2117   0.968   1.517   4.148
  479SOL    HW2 2118   0.992   1.468   4.289
  480SOL     OW 2119   0.355   1.808   4.581
  480SOL    HW1 2120   0.397   1.723   4.591
  480SOL    HW2 2121   0.425   1.872   4.595
  481SOL     OW 2122   1.799   1.061   4.591
  481SOL    HW1 2123   1.744   1.042   4.515
  481SOL    HW2 2124   1.738   1.064   4.665
  482SOL     OW 2125   1.227   1.546   5.227
  482SOL    HW1 2126   1.230   1.472   5.288
  482SOL    HW2 2127   1.159   1.523   5.164
  483SOL     OW 2128   0.317   0.954   3.974
  483SOL    HW1 2129   0.402   0.977   3.935
  483SOL    HW2 2130   0.300   0.865   3.945
  484SOL     OW 2131   1.477   0.740   4.449
  484SOL    HW1 2132   1.464   0.694   4.532
  484SOL    HW2 2133   1.554   0.796   4.465
  485SOL     OW 2134   0.466   1.261   5.459
  485SOL    HW1 2135   0.438   1.268   5.368
  485SOL    HW2 2136   0.385   1.266   5.510
  486SOL     OW 2137   1.121   1.777   3.956
  486SOL    HW1 2138   1.049   1.735   4.002
  486SOL    HW2 2139   1.143   1.717   3.884
  487SOL     OW 2140   0.166   0.263   5.232
  487SOL    HW1 2141   0.136   0.350   5.206
  487SOL    HW2 2142   0.199   0.275   5.321
  488SOL     OW 2143   1.629   1.380   3.812
  488SOL    HW1 2144   1.588   1.465   3.795
  488SOL    HW2 2145   1.560   1.316   3.792
  489SOL     OW 2146   0.469   1.744   4.038
  489SOL    HW1 2147   0.509   1.796   4.107
  489SOL    HW2 2148   0.543   1.711   3.987
  490SOL     OW 2149   1.417   0.134   4.142
  490SOL    HW1 2150   1.400   0.085   4.061
  490SOL    HW2 2151   1.512   0.130   4.153
  491SOL     OW 2152   0.257   1.790   4.959
  491SOL    HW1 2153   0.305   1.717   4.997
  491SOL    HW2 2154   0.227   1.759   4.874
  492SOL     OW 2155   0.938   1.698   4.624
  492SOL    HW1 2156   1.017   1.646   4.642
  492SOL    HW2 2157   0.892   1.649   4.555
  493SOL     OW 2158   0.393   0.694   4.198
  493SOL    HW1 2159   0.418   0.602   4.209
  493SOL    HW2 2160   0.301   0.697   4.224
  494SOL     OW 2161   1.526   0.233   5.446
  494SOL    HW1 2162   1.525   0.256   5.539
  494SOL    HW2 2163   1.450   0.175   5.435
  495SOL     OW 2164   0.623   0.123   3.841
  495SOL    HW1 2165   0.711   0.087   3.853
  495SOL    HW2 2166   0.594   0.086   3.757
  496SOL     OW 2167   0.769   0.269   5.477
  496SOL    HW1 2168   0.835   0.201   5.491
  496SOL    HW2 2169   0.725   0.278   5.562
  497SOL     OW 2170   0.877   1.522   4.917
  497SOL    HW1 2171   0.862   1.486   4.830
  497SOL    HW2 2172   0.945   1.466   4.955
  498SOL     OW 2173   1.342   0.589   5.153
  498SOL    HW1 2174   1.370   0.559   5.240
  498SOL    HW2 2175   1.376   0.678   5.146
  499SOL     OW 2176   0.814   1.397   4.661
  499SOL    HW1 2177   0.897   1.387   4.615
  499SOL    HW2 2178   0.748   1.396   4.591
  500SOL     OW 2179   0.922   0.516   4.625
  500SOL    HW1 2180   0.906   0.514   4.531
  500SOL    HW2 2181   0.962   0.431   4.644
  501SOL     OW 2182   0.559   0.068   4.233
  501SOL    HW1 2183   0.472   0.054   4.270
  501SOL    HW2 2184   0.548   0.139   4.171
  502SOL     OW 2185   1.429   1.198   3.765
  502SOL    HW1 2186   1.459   1.122   3.815
  502SOL    HW2 2187   1.342   1.218   3.802
  503SOL     OW 2188   0.303   0.076   3.909
  503SOL    HW1 2189   0.387   0.122   3.905
  503SOL    HW2 2190   0.320   4.499   3.964
  504SOL     OW 2191   0.951   0.241   4.196
  504SOL    HW1 2192   0.899   0.290   4.133
  504SOL    HW2 2193   1.039   0.276   4.187
  505SOL     OW 2194   1.080   0.680   5.185
  505SOL    HW1 2195   1.009   0.616   5.186
  505SOL    HW2 2196   1.159   0.627   5.173
  506SOL     OW 2197   1.220   1.572   4.520
  506SOL    HW1 2198   1.241   1.638   4.454
  506SOL    HW2 2199   1.296   1.571   4.578
  507SOL     OW 2200   0.465   1.148   4.461
  507SOL    HW1 2201   0.394   1.129   4.522
  507SOL    HW2 2202   0.428   1.132   4.375
  508SOL     OW 2203   1.271   1.795   4.330
  508SOL    HW1 2204   1.315   1.857   4.271
  508SOL    HW2 2205   1.207   1.847   4.377
  509SOL     OW 2206   1.030   0.549   3.739
  509SOL    HW1 2207   0.982   0.630   3.723
  509SOL    HW2 2208   1.089   0.569   3.812
  510SOL     OW 2209   0.092   0.522   5.136
  510SOL    HW1 2210   0.152   0.532   5.062
  510SOL    HW2 2211   0.061   0.611   5.154
  511SOL     OW 2212   0.563   0.243   4.890
  511SOL    HW1 2213   0.593   0.158   4.922
  511SOL    HW2 2214   0.469   0.244   4.909
  512SOL     OW 2215   0.866   0.502   4.350
  512SOL    HW1 2216   0.816   0.544   4.280
  512SOL    HW2 2217   0.845   0.409   4.342
  513SOL     OW 2218   0.968   0.030   4.501
  513SOL    HW1 2219   0.919   0.026   4.419
  513SOL    HW2 2220   0.979   4.438   4.527
  514SOL     OW 2221   1.437   1.162   4.583
  514SOL    HW1 2222   1.369   1.095   4.580
  514SOL    HW2 2223   1.460   1.176   4.491
  515SOL     OW 2224   1.467   0.603   4.702
  515SOL    HW1 2225   1.415   0.523   4.705
  515SOL    HW2 2226   1.526   0.597   4.777
  516SOL     OW 2227   1.846   0.818   4.106
  516SOL    HW1 2228   1.903   0.766   4.164
  516SOL    HW2 2229   1.818   0.757   4.039
  517SOL     OW 2230   0.492   1.415   3.885
  517SOL    HW1 2231   0.416   1.385   3.935
  517SOL    HW2 2232   0.472   1.392   3.794
  518SOL     OW 2233   1.669   1.266   4.371
  518SOL    HW1 2234   1.764   1.270   4.384
  518SOL    HW2 2235   1.638   1.354   4.393
  519SOL     OW 2236   1.394   0.570   3.794
  519SOL    HW1 2237   1.333   0.554   3.866
  519SOL    HW2 2238   1.480   0.550   3.830
  520SOL     OW 2239   0.523   0.264   4.046
  520SOL    HW1 2240   0.569   0.214   3.979
  520SOL    HW2 2241   0.508   0.350   4.006
  521SOL     OW 2242   1.751   1.221   5.297
  521SOL    HW1 2243   1.842   1.192   5.288
  521SOL    HW2 2244   1.757   1.302   5.348
  522SOL     OW 2245   1.059   1.356   5.062
  522SOL    HW1 2246   0.985   1.324   5.111
  522SOL    HW2 2247   1.135   1.313   5.101
  523SOL     OW 2248   1.595   1.579   5.370
  523SOL    HW1 2249   1.598   1.625   5.286
  523SOL    HW2 2250   1.685   1.585   5.403
  524SOL     OW 2251   1.130   1.209   4.830
  524SOL    HW1 2252   1.067   1.240   4.895
  524SOL    HW2 2253   1.091   1.232   4.746
  525SOL     OW 2254   1.630   1.096   4.800
  525SOL    HW1 2255   1.624   1.154   4.876
  525SOL    HW2 2256   1.551   1.114   4.750
  526SOL     OW 2257   0.903   0.132   5.113
  526SOL    HW1 2258   0.926   0.087   5.032
  526SOL    HW2 2259   0.987   0.144   5.157
  527SOL     OW 2260   0.984   1.114   5.446
  527SOL    HW1 2261   0.892   1.130   5.467
  527SOL    HW2 2262   0.983   1.037   5.390
  528SOL     OW 2263   0.708   1.060   4.096
  528SOL    HW1 2264   0.696   1.046   4.190
  528SOL    HW2 2265   0.784   1.007   4.074
  529SOL     OW 2266   0.429   0.824   4.963
  529SOL    HW1 2267   0.497   0.834   5.030
  529SOL    HW2 2268   0.370   0.758   4.999
  530SOL     OW 2269   1.269   0.376   4.996
  530SOL    HW1 2270   1.301   0.455   5.041
  530SOL    HW2 2271   1.181   0.399   4.968
  531SOL     OW 2272   0.061   1.576   5.065
  531SOL    HW1 2273   0.033   1.664   5.040
  531SOL    HW2 2274   0.157   1.582   5.071
  532SOL     OW 2275   0.350   1.107   4.217
  532SOL    HW1 2276   0.358   1.180   4.157
  532SOL    HW2 2277   0.352   1.029   4.162
  533SOL     OW 2278   0.564   0.529   4.579
  533SOL    HW1 2279   0.576   0.589   4.505
  533SOL    HW2 2280   0.623   0.561   4.647
  534SOL     OW 2281   1.248   1.348   4.113
  534SOL    HW1 2282   1.303   1.420   4.144
  534SOL    HW2 2283   1.161   1.369   4.147
  535SOL     OW 2284   1.285   1.450   4.882
  535SOL    HW1 2285   1.299   1.443   4.976
  535SOL    HW2 2286   1.226   1.377   4.861
  536SOL     OW 2287   1.583   0.624   4.200
  536SOL    HW1 2288   1.538   0.677   4.265
  536SOL    HW2 2289   1.628   0.688   4.144
  537SOL     OW 2290   0.348   1.530   5.041
  537SOL    HW1 2291   0.333   1.482   4.959
  537SOL    HW2 2292   0.443   1.540   5.046
  538SOL     OW 2293   0.480   0.761   5.390
  538SOL    HW1 2294   0.505   0.799   5.306
  538SOL    HW2 2295   0.513   0.671   5.385
  539SOL     OW 2296   1.599   0.778   5.404
  539SOL    HW1 2297   1.513   0.818   5.396
  539SOL    HW2 2298   1.651   0.819   5.335
  540SOL     OW 2299   1.007   0.087   5.448
  540SOL    HW1 2300   1.031   0.170   5.409
  540SOL    HW2 2301   1.032   0.021   5.383
  541SOL     OW 2302   0.496   0.046   5.474
  541SOL    HW1 2303   0.479   4.497   5.393
  541SOL    HW2 2304   0.429   0.114   5.476
  542SOL     OW 2305   0.588   0.874   4.748
  542SOL    HW1 2306   0.616   0.965   4.750
  542SOL    HW2 2307   0.532   0.864   4.824
  543SOL     OW 2308   1.360   0.858   4.757
  543SOL    HW1 2309   1.278   0.851   4.707
  543SOL    HW2 2310   1.398   0.771   4.752
  544SOL     OW 2311   1.206   0.535   3.989
  544SOL    HW1 2312   1.212   0.454   4.041
  544SOL    HW2 2313   1.163   0.597   4.048
  545SOL     OW 2314   0.285   0.219   4.958
  545SOL    HW1 2315   0.248   0.236   5.045
  545SOL    HW2 2316   0.322   0.131   4.965
  546SOL     OW 2317   0.046   1.313   5.008
  546SOL    HW1 2318   0.078   1.266   5.085
  546SOL    HW2 2319   0.048   1.405   5.034
  547SOL     OW 2320   0.725   0.632   4.784
  547SOL    HW1 2321   0.798   0.611   4.725
  547SOL    HW2 2322   0.699   0.720   4.759
  548SOL     OW 2323   1.732   0.961   5.574
  548SOL    HW1 2324   1.685   0.902   5.515
  548SOL    HW2 2325   1.674   0.970   5.649
  549SOL     OW 2326   0.319   0.075   4.355
  549SOL    HW1 2327   0.301   0.163   4.389
  549SOL    HW2 2328   0.306   0.018   4.431
  550SOL     OW 2329   1.611   0.375   4.090
  550SOL    HW1 2330   1.643   0.313   4.155
  550SOL    HW2 2331   1.590   0.454   4.140
  551SOL     OW 2332   1.028   0.761   4.686
  551SOL    HW1 2333   1.027   0.777   4.780
  551SOL    HW2 2334   0.999   0.670   4.677
  552SOL     OW 2335   0.984   1.566   5.436
  552SOL    HW1 2336   0.966   1.609   5.352
  552SOL    HW2 2337   1.026   1.483   5.412
  553SOL     OW 2338   0.347   0.931   5.542
  553SOL    HW1 2339   0.421   0.960   5.596
  553SOL    HW2 2340   0.385   0.865   5.484
  554SOL     OW 2341   1.532   0.267   3.852
  554SOL    HW1 2342   1.460   0.210   3.880
  554SOL    HW2 2343   1.560   0.311   3.932
  555SOL     OW 2344   1.294   0.827   3.756
  555SOL    HW1 2345   1.335   0.741   3.758
  555SOL    HW2 2346   1.324   0.866   3.674
  556SOL     OW 2347   1.065   1.335   4.577
  556SOL    HW1 2348   1.068   1.262   4.515
  556SOL    HW2 2349   1.127   1.399   4.541
  557SOL     OW 2350   0.317   0.813   4.673
  557SOL    HW1 2351   0.411   0.830   4.669
  557SOL    HW2 2352   0.311   0.722   4.704
  558SOL     OW 2353   0.337   0.528   4.717
  558SOL    HW1 2354   0.292   0.446   4.697
  558SOL    HW2 2355   0.414   0.527   4.660
  559SOL     OW 2356   1.135   0.375   5.417
  559SOL    HW1 2357   1.087   0.439   5.469
  559SOL    HW2 2358   1.221   0.414   5.404
  560SOL     OW 2359   1.159   0.211   5.198
  560SOL    HW1 2360   1.152   0.276   5.268
  560SOL    HW2 2361   1.196   0.261   5.124
  561SOL     OW 2362   4.492   1.323   3.926
  561SOL    HW1 2363   4.399   1.338   3.909
  561SOL    HW2 2364   4.497   1.230   3.949
  562SOL     OW 2365   0.096   1.780   4.664
  562SOL    HW1 2366   0.057   1.722   4.598
  562SOL    HW2 2367   0.183   1.800   4.630
  563SOL     OW 2368   0.498   1.573   4.630
  563SOL    HW1 2369   0.567   1.636   4.654
  563SOL    HW2 2370   0.543   1.509   4.575
  564SOL     OW 2371   0.987   0.795   4.953
  564SOL    HW1 2372   1.040   0.770   5.028
  564SOL    HW2 2373   0.901   0.756   4.969
  565SOL     OW 2374   0.040   0.567   4.835
  565SOL    HW1 2375   0.114   0.522   4.794
  565SOL    HW2 2376   0.022   0.516   4.914
  566SOL     OW 2377   0.180   0.520   5.435
  566SOL    HW1 2378   0.266   0.502   5.397
  566SOL    HW2 2379   0.151   0.601   5.393
  567SOL     OW 2380   1.376   0.940   5.383
  567SOL    HW1 2381   1.395   1.033   5.382
  567SOL    HW2 2382   1.374   0.915   5.290
  568SOL     OW 2383   0.812   0.573   4.077
  568SOL    HW1 2384   0.815   0.501   4.014
  568SOL    HW2 2385   0.738   0.627   4.049
  569SOL     OW 2386   1.642   0.601   4.913
  569SOL    HW1 2387   1.631   0.541   4.986
  569SOL    HW2 2388   1.729   0.581   4.878
  570SOL     OW 2389   0.272   1.562   5.466
  570SOL    HW1 2390   0.217   1.614   5.524
  570SOL    HW2 2391   0.251   1.471   5.488
  571SOL     OW 2392   0.684   0.464   4.992
  571SOL    HW1 2393   0.647   0.383   4.956
  571SOL    HW2 2394   0.692   0.522   4.916
  572SOL     OW 2395   0.929   1.677   5.189
  572SOL    HW1 2396   0.902   1.647   5.102
  572SOL    HW2 2397   0.928   1.773   5.182
  573SOL     OW 2398   0.473   0.491   3.909
  573SOL    HW1 2399   0.532   0.563   3.931
  573SOL    HW2 2400   0.388   0.533   3.895
  574SOL     OW 2401   0.162   1.141   5.187
  574SOL    HW1 2402   0.147   1.093   5.269
  574SOL    HW2 2403   0.170   1.072   5.121
  575SOL     OW 2404   1.326   1.047   4.949
  575SOL    HW1 2405   1.351   0.985   4.881
  575SOL    HW2 2406   1.256   1.099   4.909
  576SOL     OW 2407   1.310   0.856   4.031
  576SOL    HW1 2408   1.233   0.827   4.081
  576SOL    HW2 2409   1.285   0.843   3.939
  577SOL     OW 2410   1.241   1.732   4.840
  577SOL    HW1 2411   1.322   1.754   4.793
  577SOL    HW2 2412   1.248   1.638   4.858
  578SOL     OW 2413   0.068   1.187   4.772
  578SOL    HW1 2414   0.071   1.221   4.862
  578SOL    HW2 2415   0.014   1.251   4.725
  579SOL     OW 2416   0.679   1.664   5.450
  579SOL    HW1 2417   0.625   1.743   5.446
  579SOL    HW2 2418   0.741   1.674   5.378
  580SOL     OW 2419   1.718   0.130   4.221
  580SOL    HW1 2420   1.791   0.136   4.159
  580SOL    HW2 2421   1.740   0.056   4.277
  581SOL     OW 2422   1.390   1.568   4.207
  581SOL    HW1 2423   1.450   1.599   4.139
  581SOL    HW2 2424   1.342   1.646   4.235
  582SOL     OW 2425   0.120   1.808   5.571
  582SOL    HW1 2426   0.081   1.734   5.618
  582SOL    HW2 2427   0.184   1.844   5.633
  583SOL     OW 2428   1.278   0.926   4.397
  583SOL    HW1 2429   1.351   0.864   4.400
  583SOL    HW2 2430   1.312   0.999   4.344
  584SOL     OW 2431   0.817   1.273   5.154
  584SOL    HW1 2432   0.791   1.311   5.238
  584SOL    HW2 2433   0.745   1.294   5.095
  585SOL     OW 2434   0.673   1.617   3.879
  585SOL    HW1 2435   0.681   1.628   3.784
  585SOL    HW2 2436   0.619   1.539   3.889
  586SOL     OW 2437   1.839   0.155   4.690
  586SOL    HW1 2438   1.868   0.078   4.641
  586SOL    HW2 2439   1.752   0.175   4.655
  587SOL     OW 2440   0.266   0.325   4.448
  587SOL    HW1 2441   0.183   0.360   4.414
  587SOL    HW2 2442   0.251   0.317   4.542
  588SOL     OW 2443   1.206   1.607   3.755
  588SOL    HW1 2444   1.197   1.516   3.782
  588SOL    HW2 2445   1.141   1.618   3.685
  589SOL     OW 2446   0.825   1.006   5.096
  589SOL    HW1 2447   0.867   1.003   5.010
  589SOL    HW2 2448   0.825   1.099   5.119
  590SOL     OW 2449   0.915   0.910   4.014
  590SOL    HW1 2450   0.977   0.942   3.948
  590SOL    HW2 2451   0.962   0.840   4.058
  591SOL     OW 2452   1.494   1.625   3.766
  591SOL    HW1 2453   1.399   1.620   3.753
  591SOL    HW2 2454   1.530   1.631   3.677
  592SOL     OW 2455   0.373   1.306   5.215
  592SOL    HW1 2456   0.356   1.384   5.163
  592SOL    HW2 2457   0.297   1.249   5.199
  593SOL     OW 2458   1.604   1.256   5.017
  593SOL    HW1 2459   1.681   1.267   5.073
  593SOL    HW2 2460   1.541   1.320   5.050
  594SOL     OW 2461   1.049   1.106   4.430
  594SOL    HW1 2462   0.979   1.055   4.469
  594SOL    HW2 2463   1.111   1.041   4.396
  595SOL     OW 2464   1.006   0.242   4.724
  595SOL    HW1 2465   1.013   0.215   4.632
  595SOL    HW2 2466   1.000   0.160   4.772
  596SOL     OW 2467   0.603   1.489   4.207
  596SOL    HW1 2468   0.643   1.439   4.136
  596SOL    HW2 2469   0.531   1.537   4.166
  597SOL     OW 2470   1.720   0.393   5.101
  597SOL    HW1 2471   1.792   0.456   5.100
  597SOL    HW2 2472   1.750   0.321   5.045
  598SOL     OW 2473   0.252   1.345   4.001
  598SOL    HW1 2474   0.157   1.345   3.987
  598SOL    HW2 2475   0.262   1.377   4.091
  599SOL     OW 2476   0.116   1.007   5.420
  599SOL    HW1 2477   0.052   1.048   5.478
  599SOL    HW2 2478   0.194   0.996   5.474
  600SOL     OW 2479   0.659   0.208   5.220
  600SOL    HW1 2480   0.739   0.181   5.174
  600SOL    HW2 2481   0.687   0.223   5.310
  601SOL     OW 2482   0.071   0.321   3.750
  601SOL    HW1 2483   4.476   0.329   3.761
  601SOL    HW2 2484   0.099   0.407   3.719
  602SOL     OW 2485   1.432   0.859   5.125
  602SOL    HW1 2486   1.383   0.918   5.068
  602SOL    HW2 2487   1.521   0.861   5.091
  603SOL     OW 2488   0.084   0.188   4.027
  603SOL    HW1 2489   0.079   0.260   3.964
  603SOL    HW2 2490   0.162   0.139   4.001
  604SOL     OW 2491   1.180   1.341   3.841
  604SOL    HW1 2492   1.089   1.311   3.843
  604SOL    HW2 2493   1.208   1.340   3.932
  605SOL     OW 2494   0.621   0.831   5.152
  605SOL    HW1 2495   0.676   0.908   5.140
  605SOL    HW2 2496   0.684   0.759   5.162
  606SOL     OW 2497   1.480   1.783   4.696
  606SOL    HW1 2498   1.501   1.837   4.619
  606SOL    HW2 2499   1.565   1.753   4.727
  607SOL     OW 2500   0.715   0.561   5.429
  607SOL    HW1 2501   0.748   0.628   5.489
  607SOL    HW2 2502   0.753   0.480   5.461
  608SOL     OW 2503   1.465   1.201   5.357
  608SOL    HW1 2504   1.456   1.216   5.451
  608SOL    HW2 2505   1.559   1.208   5.341
  609SOL     OW 2506   0.382   1.743   5.288
  609SOL    HW1 2507   0.296   1.783   5.272
  609SOL    HW2 2508   0.362   1.662   5.335
  610SOL     OW 2509   1.672   0.881   4.979
  610SOL    HW1 2510   1.662   0.796   4.936
  610SOL    HW2 2511   1.662   0.945   4.908
  611SOL     OW 2512   1.218   0.328   4.172
  611SOL    HW1 2513   1.283   0.259   4.162
  611SOL    HW2 2514   1.245   0.375   4.251
  612SOL     OW 2515   0.588   0.739   4.393
  612SOL    HW1 2516   0.629   0.824   4.376
  612SOL    HW2 2517   0.519   0.732   4.327
  613SOL     OW 2518   1.765   0.363   5.367
  613SOL    HW1 2519   1.748   0.376   5.274
  613SOL    HW2 2520   1.687   0.318   5.399
  614SOL     OW 2521   1.745   0.933   5.236
  614SOL    HW1 2522   1.743   1.027   5.250
  614SOL    HW2 2523   1.729   0.922   5.142
  615SOL     OW 2524   0.864   1.368   3.755
  615SOL    HW1 2525   0.823   1.395   3.838
  615SOL    HW2 2526   0.881   1.450   3.710
  616SOL     OW 2527   0.660   1.794   4.672
  616SOL    HW1 2528   0.638   1.883   4.647
  616SOL    HW2 2529   0.755   1.788   4.662
  617SOL     OW 2530   0.867   0.966   4.580
  617SOL    HW1 2531   0.916   0.894   4.619
  617SOL    HW2 2532   0.833   1.016   4.654
  618SOL     OW 2533   1.080   0.988   3.813
  618SOL    HW1 2534   1.057   1.038   3.735
  618SOL    HW2 2535   1.155   0.935   3.787
  619SOL     OW 2536   1.862   1.560   4.568
  619SOL    HW1 2537   1.781   1.551   4.519
  619SOL    HW2 2538   1.866   1.483   4.624
  620SOL     OW 2539   0.229   1.306   5.581
  620SOL    HW1 2540   0.158   1.246   5.556
  620SOL    HW2 2541   0.220   1.316   5.675
  621SOL     OW 2542   0.103   1.239   4.391
  621SOL    HW1 2543   0.108   1.188   4.472
  621SOL    HW2 2544   0.163   1.194   4.331
  622SOL     OW 2545   0.681   1.401   5.351
  622SOL    HW1 2546   0.601   1.357   5.379
  622SOL    HW2 2547   0.674   1.489   5.388
  623SOL     OW 2548   1.811   0.183   4.963
  623SOL    HW1 2549   1.809   0.090   4.984
  623SOL    HW2 2550   1.825   0.186   4.868
  624SOL     OW 2551   0.439   0.431   4.254
  624SOL    HW1 2552   0.458   0.361   4.192
  624SOL    HW2 2553   0.381   0.391   4.318
  625SOL     OW 2554   0.313   0.505   4.980
  625SOL    HW1 2555   0.384   0.456   5.021
  625SOL    HW2 2556   0.339   0.513   4.889
  626SOL     OW 2557   0.826   1.578   4.403
  626SOL    HW1 2558   0.818   1.626   4.321
  626SOL    HW2 2559   0.748   1.523   4.407
  627SOL     OW 2560   1.432   0.215   4.842
  627SOL    HW1 2561   1.468   0.145   4.895
  627SOL    HW2 2562   1.381   0.268   4.903
  628SOL     OW 2563   0.997   0.011   4.873
  628SOL    HW1 2564   0.952   4.427   4.863
  628SOL    HW2 2565   1.089   4.487   4.885
  629SOL     OW 2566   0.771   1.332   4.035
  629SOL    HW1 2567   0.738   1.242   4.042
  629SOL    HW2 2568   0.854   1.331   4.084
  630SOL     OW 2569   0.621   1.558   5.009
  630SOL    HW1 2570   0.623   1.639   5.059
  630SOL    HW2 2571   0.708   1.551   4.969
  631SOL     OW 2572   1.342   0.053   3.876
  631SOL    HW1 2573   1.381   4.479   3.832
  631SOL    HW2 2574   1.266   0.017   3.923
  632SOL     OW 2575   1.314   0.462   4.403
  632SOL    HW1 2576   1.253   0.536   4.404
  632SOL    HW2 2577   1.302   0.420   4.488
  633SOL     OW 2578   1.586   0.202   4.592
  633SOL    HW1 2579   1.525   0.216   4.664
  633SOL    HW2 2580   1.588   0.286   4.545
  634SOL     OW 2581   0.041   1.053   4.011
  634SOL    HW1 2582   0.136   1.040   4.003
  634SOL    HW2 2583   0.019   1.015   4.096
  635SOL     OW 2584   0.882   1.650   4.068
  635SOL    HW1 2585   0.811   1.632   4.007
  635SOL    HW2 2586   0.852   1.726   4.118
  636SOL     OW 2587   0.247   0.626   5.705
  636SOL    HW1 2588   0.172   0.610   5.762
  636SOL    HW2 2589   0.215   0.610   5.617
  637SOL     OW 2590   0.196   0.293   6.576
  637SOL    HW1 2591   0.232   0.269   6.661
  637SOL    HW2 2592   0.132   0.224   6.556
  638SOL     OW 2593   0.006   0.378   6.228
  638SOL    HW1 2594   4.427   0.415   6.267
  638SOL    HW2 2595   4.474   0.307   6.173
  639SOL     OW 2596   0.567   1.284   6.759
  639SOL    HW1 2597   0.479   1.288   6.721
  639SOL    HW2 2598   0.582   1.371   6.795
  640SOL     OW 2599   1.559   1.510   6.286
  640SOL    HW1 2600   1.514   1.495   6.369
  640SOL    HW2 2601   1.489   1.527   6.223
  641SOL     OW 2602   1.132   0.699   6.287
  641SOL    HW1 2603   1.180   0.782   6.276
  641SOL    HW2 2604   1.083   0.711   6.368
  642SOL     OW 2605   1.765   0.608   5.815
  642SOL    HW1 2606   1.746   0.597   5.722
  642SOL    HW2 2607   1.733   0.528   5.856
  643SOL     OW 2608   0.758   1.144   6.625
  643SOL    HW1 2609   0.688   1.178   6.681
  643SOL    HW2 2610   0.792   1.221   6.580
  644SOL     OW 2611   0.863   0.778   7.407
  644SOL    HW1 2612   0.850   0.849   7.469
  644SOL    HW2 2613   0.887   0.822   7.325
  645SOL     OW 2614   0.686   1.006   6.234
  645SOL    HW1 2615   0.750   0.992   6.304
  645SOL    HW2 2616   0.616   1.056   6.277
  646SOL     OW 2617   0.709   1.151   7.396
  646SOL    HW1 2618   0.756   1.230   7.421
  646SOL    HW2 2619   0.625   1.182   7.362
  647SOL     OW 2620   0.336   1.423   6.656
  647SOL    HW1 2621   0.255   1.404   6.609
  647SOL    HW2 2622   0.386   1.477   6.595
  648SOL     OW 2623   1.461   1.499   6.937
  648SOL    HW1 2624   1.510   1.581   6.948
  648SOL    HW2 2625   1.405   1.493   7.015
  649SOL     OW 2626   0.437   0.396   7.079
  649SOL    HW1 2627   0.525   0.360   7.080
  649SOL    HW2 2628   0.380   0.321   7.095
  650SOL     OW 2629   1.612   0.448   6.324
  650SOL    HW1 2630   1.532   0.471   6.277
  650SOL    HW2 2631   1.633   0.525   6.377
  651SOL     OW 2632   0.245   1.692   6.065
  651SOL    HW1 2633   0.232   1.776   6.107
  651SOL    HW2 2634   0.309   1.710   5.996
  652SOL     OW 2635   1.136   1.341   7.278
  652SOL    HW1 2636   1.176   1.337   7.365
  652SOL    HW2 2637   1.083   1.261   7.272
  653SOL     OW 2638   0.246   1.427   6.114
  653SOL    HW1 2639   0.238   1.523   6.118
  653SOL    HW2 2640   0.181   1.395   6.177
  654SOL     OW 2641   0.245   1.081   6.469
  654SOL    HW1 2642   0.263   0.993   6.501
  654SOL    HW2 2643   0.187   1.120   6.535
  655SOL     OW 2644   0.616   1.791   7.018
  655SOL    HW1 2645   0.532   1.773   7.061
  655SOL    HW2 2646   0.636   1.881   7.042
  656SOL     OW 2647   0.583   0.984   5.722
  656SOL    HW1 2648   0.628   1.030   5.651
  656SOL    HW2 2649   0.628   1.012   5.802
  657SOL     OW 2650   1.584   0.115   7.059
  657SOL    HW1 2651   1.599   0.184   6.994
  657SOL    HW2 2652   1.574   0.162   7.142
  658SOL     OW 2653   0.136   0.642   6.161
  658SOL    HW1 2654   0.083   0.564   6.176
  658SOL    HW2 2655   0.107   0.704   6.228
  659SOL     OW 2656   0.033   1.601   5.723
  659SOL    HW1 2657   0.021   1.506   5.723
  659SOL    HW2 2658   0.013   1.628   5.812
  660SOL     OW 2659   1.689   0.919   6.223
  660SOL    HW1 2660   1.775   0.880   6.206
  660SOL    HW2 2661   1.669   0.969   6.145
  661SOL     OW 2662   1.645   1.110   6.016
  661SOL    HW1 2663   1.732   1.115   5.975
  661SOL    HW2 2664   1.651   1.170   6.090
  662SOL     OW 2665   0.106   0.762   7.172
  662SOL    HW1 2666   0.200   0.760   7.152
  662SOL    HW2 2667   0.086   0.855   7.183
  663SOL     OW 2668   0.613   1.383   6.322
  663SOL    HW1 2669   0.566   1.300   6.331
  663SOL    HW2 2670   0.597   1.410   6.231
  664SOL     OW 2671   1.290   1.239   7.010
  664SOL    HW1 2672   1.323   1.172   6.950
  664SOL    HW2 2673   1.346   1.232   7.087
  665SOL     OW 2674   0.818   0.012   6.134
  665SOL    HW1 2675   0.852   0.098   6.110
  665SOL    HW2 2676   0.723   0.019   6.124
  666SOL     OW 2677   0.182   0.943   6.865
  666SOL    HW1 2678   0.273   0.926   6.843
  666SOL    HW2 2679   0.133   0.922   6.786
  667SOL     OW 2680   1.532   0.991   5.783
  667SOL    HW1 2681   1.462   0.934   5.814
  667SOL    HW2 2682   1.572   1.026   5.864
  668SOL     OW 2683   1.185   1.804   7.207
  668SOL    HW1 2684   1.200   1.862   7.132
  668SOL    HW2 2685   1.200   1.716   7.173
  669SOL     OW 2686   0.318   0.260   7.357
  669SOL    HW1 2687   0.386   0.312   7.400
  669SOL    HW2 2688   0.242   0.268   7.415
  670SOL     OW 2689   1.456   1.426   6.533
  670SOL    HW1 2690   1.393   1.434   6.605
  670SOL    HW2 2691   1.453   1.334   6.508
  671SOL     OW 2692   0.596   0.723   5.851
  671SOL    HW1 2693   0.600   0.804   5.799
  671SOL    HW2 2694   0.530   0.741   5.918
  672SOL     OW 2695   1.290   0.360   6.520
  672SOL    HW1 2696   1.201   0.328   6.504
  672SOL    HW2 2697   1.327   0.297   6.582
  673SOL     OW 2698   0.797   0.617   7.040
  673SOL    HW1 2699   0.769   0.593   7.129
  673SOL    HW2 2700   0.752   0.554   6.983
  674SOL     OW 2701   1.389   0.478   7.262
  674SOL    HW1 2702   1.391   0.522   7.347
  674SOL    HW2 2703   1.456   0.410   7.268
  675SOL     OW 2704   0.957   0.889   7.167
  675SOL    HW1 2705   1.011   0.817   7.133
  675SOL    HW2 2706   0.910   0.922   7.091
  676SOL     OW 2707   0.996   0.417   6.823
  676SOL    HW1 2708   0.911   0.429   6.865
  676SOL    HW2 2709   0.978   0.365   6.745
  677SOL     OW 2710   1.049   0.698   6.013
  677SOL    HW1 2711   1.065   0.691   6.108
  677SOL    HW2 2712   0.967   0.651   5.999
  678SOL     OW 2713   0.098   0.824   6.369
  678SOL    HW1 2714   0.185   0.805   6.406
  678SOL    HW2 2715   0.050   0.866   6.440
  679SOL     OW 2716   0.124   1.854   7.162
  679SOL    HW1 2717   0.118   1.830   7.255
  679SOL    HW2 2718   0.045   1.817   7.123
  680SOL     OW 2719   0.853   0.368   5.764
  680SOL    HW1 2720   0.929   0.403   5.717
  680SOL    HW2 2721   0.871   0.274   5.771
  681SOL     OW 2722   1.706   0.575   7.414
  681SOL    HW1 2723   1.670   0.651   7.368
  681SOL    HW2 2724   1.740   0.519   7.344
  682SOL     OW 2725   1.375   1.142   6.127
  682SOL    HW1 2726   1.455   1.129   6.076
  682SOL    HW2 2727   1.323   1.204   6.076
  683SOL     OW 2728   0.543   0.202   6.487
  683SOL    HW1 2729   0.562   0.222   6.579
  683SOL    HW2 2730   0.534   0.288   6.446
  684SOL     OW 2731   1.008   1.446   6.060
  684SOL    HW1 2732   0.968   1.517   6.011
  684SOL    HW2 2733   0.991   1.467   6.152
  685SOL     OW 2734   0.355   1.808   6.443
  685SOL    HW1 2735   0.397   1.723   6.453
  685SOL    HW2 2736   0.425   1.872   6.457
  686SOL     OW 2737   1.799   1.055   6.453
  686SOL    HW1 2738   1.742   1.044   6.378
  686SOL    HW2 2739   1.740   1.063   6.528
  687SOL     OW 2740   1.227   1.539   7.098
  687SOL    HW1 2741   1.214   1.467   7.159
  687SOL    HW2 2742   1.165   1.523   7.027
  688SOL     OW 2743   0.317   0.954   5.836
  688SOL    HW1 2744   0.401   0.976   5.797
  688SOL    HW2 2745   0.300   0.865   5.807
  689SOL     OW 2746   1.477   0.740   6.311
  689SOL    HW1 2747   1.464   0.694   6.395
  689SOL    HW2 2748   1.553   0.796   6.326
  690SOL     OW 2749   0.466   1.261   7.321
  690SOL    HW1 2750   0.438   1.268   7.230
  690SOL    HW2 2751   0.385   1.267   7.372
  691SOL     OW 2752   1.112   1.770   5.827
  691SOL    HW1 2753   1.038   1.725   5.868
  691SOL    HW2 2754   1.135   1.715   5.752
  692SOL     OW 2755   0.166   0.263   7.095
  692SOL    HW1 2756   0.136   0.350   7.068
  692SOL    HW2 2757   0.199   0.276   7.184
  693SOL     OW 2758   1.631   1.385   5.666
  693SOL    HW1 2759   1.582   1.464   5.642
  693SOL    HW2 2760   1.569   1.314   5.657
  694SOL     OW 2761   0.469   1.744   5.900
  694SOL    HW1 2762   0.509   1.796   5.969
  694SOL    HW2 2763   0.543   1.711   5.849
  695SOL     OW 2764   1.417   0.134   6.004
  695SOL    HW1 2765   1.400   0.085   5.924
  695SOL    HW2 2766   1.512   0.130   6.015
  696SOL     OW 2767   0.257   1.790   6.822
  696SOL    HW1 2768   0.305   1.717   6.859
  696SOL    HW2 2769   0.228   1.758   6.736
  697SOL     OW 2770   0.938   1.699   6.486
  697SOL    HW1 2771   1.015   1.645   6.506
  697SOL    HW2 2772   0.892   1.650   6.417
  698SOL     OW 2773   0.393   0.694   6.060
  698SOL    HW1 2774   0.418   0.603   6.071
  698SOL    HW2 2775   0.301   0.697   6.086
  699SOL     OW 2776   1.526   0.233   7.308
  699SOL    HW1 2777   1.525   0.256   7.401
  699SOL    HW2 2778   1.450   0.175   7.297
  700SOL     OW 2779   0.623   0.123   5.703
  700SOL    HW1 2780   0.711   0.087   5.715
  700SOL    HW2 2781   0.594   0.086   5.619
  701SOL     OW 2782   0.769   0.269   7.339
  701SOL    HW1 2783   0.835   0.201   7.353
  701SOL    HW2 2784   0.726   0.278   7.424
  702SOL     OW 2785   0.878   1.522   6.779
  702SOL    HW1 2786   0.862   1.485   6.692
  702SOL    HW2 2787   0.946   1.466   6.816
  703SOL     OW 2788   1.342   0.589   7.015
  703SOL    HW1 2789   1.370   0.559   7.102
  703SOL    HW2 2790   1.376   0.678   7.008
  704SOL     OW 2791   0.813   1.398   6.523
  704SOL    HW1 2792   0.897   1.386   6.478
  704SOL    HW2 2793   0.748   1.396   6.453
  705SOL     OW 2794   0.922   0.516   6.487
  705SOL    HW1 2795   0.906   0.514   6.393
  705SOL    HW2 2796   0.962   0.431   6.506
  706SOL     OW 2797   0.559   0.068   6.095
  706SOL    HW1 2798   0.472   0.054   6.132
  706SOL    HW2 2799   0.548   0.139   6.033
  707SOL     OW 2800   1.432   1.200   5.630
  707SOL    HW1 2801   1.460   1.122   5.679
  707SOL    HW2 2802   1.344   1.219   5.663
  708SOL     OW 2803   0.303   0.076   5.771
  708SOL    HW1 2804   0.387   0.122   5.767
  708SOL    HW2 2805   0.320   4.499   5.826
  709SOL     OW 2806   0.951   0.241   6.058
  709SOL    HW1 2807   0.899   0.290   5.995
  709SOL    HW2 2808   1.039   0.276   6.049
  710SOL     OW 2809   1.080   0.680   7.047
  710SOL    HW1 2810   1.009   0.616   7.048
  710SOL    HW2 2811   1.159   0.627   7.036
  711SOL     OW 2812   1.218   1.569   6.380
  711SOL    HW1 2813   1.242   1.635   6.315
  711SOL    HW2 2814   1.294   1.565   6.439
  712SOL     OW 2815   0.465   1.148   6.323
  712SOL    HW1 2816   0.394   1.129   6.384
  712SOL    HW2 2817   0.428   1.132   6.237
  713SOL     OW 2818   1.269   1.794   6.189
  713SOL    HW1 2819   1.315   1.861   6.138
  713SOL    HW2 2820   1.202   1.843   6.237
  714SOL     OW 2821   1.030   0.549   5.601
  714SOL    HW1 2822   0.982   0.630   5.586
  714SOL    HW2 2823   1.088   0.569   5.674
  715SOL     OW 2824   0.092   0.522   6.998
  715SOL    HW1 2825   0.152   0.532   6.924
  715SOL    HW2 2826   0.061   0.611   7.016
  716SOL     OW 2827   0.563   0.243   6.752
  716SOL    HW1 2828   0.593   0.158   6.785
  716SOL    HW2 2829   0.469   0.244   6.771
  717SOL     OW 2830   0.866   0.502   6.212
  717SOL    HW1 2831   0.816   0.544   6.142
  717SOL    HW2 2832   0.845   0.409   6.204
  718SOL     OW 2833   0.968   0.030   6.364
  718SOL    HW1 2834   0.919   0.026   6.281
  718SOL    HW2 2835   0.980   4.438   6.389
  719SOL     OW 2836   1.437   1.165   6.445
  719SOL    HW1 2837   1.370   1.097   6.442
  719SOL    HW2 2838   1.462   1.178   6.353
  720SOL     OW 2839   1.467   0.603   6.564
  720SOL    HW1 2840   1.415   0.523   6.567
  720SOL    HW2 2841   1.526   0.597   6.639
  721SOL     OW 2842   1.847   0.818   5.967
  721SOL    HW1 2843   1.903   0.766   6.026
  721SOL    HW2 2844   1.818   0.756   5.901
  722SOL     OW 2845   0.492   1.415   5.747
  722SOL    HW1 2846   0.416   1.385   5.797
  722SOL    HW2 2847   0.472   1.393   5.656
  723SOL     OW 2848   1.669   1.267   6.234
  723SOL    HW1 2849   1.764   1.271   6.246
  723SOL    HW2 2850   1.639   1.356   6.255
  724SOL     OW 2851   1.394   0.570   5.656
  724SOL    HW1 2852   1.333   0.554   5.728
  724SOL    HW2 2853   1.480   0.549   5.692
  725SOL     OW 2854   0.523   0.264   5.908
  725SOL    HW1 2855   0.569   0.214   5.841
  725SOL    HW2 2856   0.508   0.350   5.868
  726SOL     OW 2857   1.754   1.236   7.163
  726SOL    HW1 2858   1.841   1.198   7.158
  726SOL    HW2 2859   1.768   1.327   7.191
  727SOL     OW 2860   1.060   1.354   6.921
  727SOL    HW1 2861   0.985   1.323   6.972
  727SOL    HW2 2862   1.136   1.312   6.962
  728SOL     OW 2863   1.606   1.624   7.238
  728SOL    HW1 2864   1.602   1.659   7.149
  728SOL    HW2 2865   1.690   1.578   7.242
  729SOL     OW 2866   1.127   1.203   6.693
  729SOL    HW1 2867   1.067   1.240   6.758
  729SOL    HW2 2868   1.092   1.232   6.609
  730SOL     OW 2869   1.631   1.099   6.664
  730SOL    HW1 2870   1.626   1.161   6.737
  730SOL    HW2 2871   1.551   1.115   6.614
  731SOL     OW 2872   0.903   0.131   6.975
  731SOL    HW1 2873   0.926   0.087   6.893
  731SOL    HW2 2874   0.987   0.144   7.019
  732SOL     OW 2875   0.984   1.114   7.308
  732SOL    HW1 2876   0.892   1.130   7.328
  732SOL    HW2 2877   0.984   1.037   7.252
  733SOL     OW 2878   0.708   1.060   5.959
  733SOL    HW1 2879   0.695   1.046   6.052
  733SOL    HW2 2880   0.784   1.007   5.936
  734SOL     OW 2881   0.429   0.824   6.825
  734SOL    HW1 2882   0.497   0.834   6.892
  734SOL    HW2 2883   0.370   0.758   6.862
  735SOL     OW 2884   1.269   0.376   6.858
  735SOL    HW1 2885   1.301   0.455   6.903
  735SOL    HW2 2886   1.181   0.399   6.830
  736SOL     OW 2887   0.061   1.576   6.926
  736SOL    HW1 2888   0.034   1.664   6.902
  736SOL    HW2 2889   0.157   1.581   6.933
  737SOL     OW 2890   0.350   1.107   6.079
  737SOL    HW1 2891   0.358   1.180   6.019
  737SOL    HW2 2892   0.352   1.029   6.024
  738SOL     OW 2893   0.564   0.529   6.441
  738SOL    HW1 2894   0.576   0.589   6.367
  738SOL    HW2 2895   0.623   0.561   6.509
  739SOL     OW 2896   1.248   1.348   5.975
  739SOL    HW1 2897   1.302   1.420   6.008
  739SOL    HW2 2898   1.160   1.367   6.008
  740SOL     OW 2899   1.277   1.456   6.734
  740SOL    HW1 2900   1.332   1.457   6.812
  740SOL    HW2 2901   1.222   1.378   6.745
  741SOL     OW 2902   1.583   0.625   6.062
  741SOL    HW1 2903   1.538   0.677   6.128
  741SOL    HW2 2904   1.628   0.689   6.007
  742SOL     OW 2905   0.348   1.529   6.903
  742SOL    HW1 2906   0.333   1.482   6.821
  742SOL    HW2 2907   0.443   1.540   6.908
  743SOL     OW 2908   0.479   0.760   7.251
  743SOL    HW1 2909   0.505   0.799   7.168
  743SOL    HW2 2910   0.514   0.671   7.248
  744SOL     OW 2911   1.598   0.777   7.265
  744SOL    HW1 2912   1.512   0.818   7.258
  744SOL    HW2 2913   1.651   0.820   7.197
  745SOL     OW 2914   1.007   0.086   7.310
  745SOL    HW1 2915   1.031   0.170   7.271
  745SOL    HW2 2916   1.032   0.021   7.245
  746SOL     OW 2917   0.496   0.045   7.336
  746SOL    HW1 2918   0.479   4.497   7.255
  746SOL    HW2 2919   0.429   0.114   7.338
  747SOL     OW 2920   0.588   0.874   6.609
  747SOL    HW1 2921   0.617   0.965   6.612
  747SOL    HW2 2922   0.532   0.864   6.686
  748SOL     OW 2923   1.360   0.859   6.618
  748SOL    HW1 2924   1.278   0.851   6.569
  748SOL    HW2 2925   1.398   0.771   6.614
  749SOL     OW 2926   1.206   0.535   5.851
  749SOL    HW1 2927   1.212   0.454   5.903
  749SOL    HW2 2928   1.163   0.597   5.910
  750SOL     OW 2929   0.285   0.219   6.820
  750SOL    HW1 2930   0.248   0.236   6.907
  750SOL    HW2 2931   0.322   0.131   6.827
  751SOL     OW 2932   0.045   1.313   6.870
  751SOL    HW1 2933   0.077   1.266   6.947
  751SOL    HW2 2934   0.048   1.405   6.896
  752SOL     OW 2935   0.725   0.632   6.646
  752SOL    HW1 2936   0.798   0.611   6.588
  752SOL    HW2 2937   0.699   0.721   6.621
  753SOL     OW 2938   1.734   0.959   7.437
  753SOL    HW1 2939   1.685   0.903   7.376
  753SOL    HW2 2940   1.674   0.971   7.511
  754SOL     OW 2941   0.319   0.075   6.217
  754SOL    HW1 2942   0.301   0.163   6.251
  754SOL    HW2 2943   0.306   0.018   6.293
  755SOL     OW 2944   1.612   0.375   5.951
  755SOL    HW1 2945   1.642   0.313   6.017
  755SOL    HW2 2946   1.590   0.454   6.002
  756SOL     OW 2947   1.028   0.761   6.548
  756SOL    HW1 2948   1.027   0.777   6.642
  756SOL    HW2 2949   0.999   0.670   6.539
  757SOL     OW 2950   0.983   1.566   7.301
  757SOL    HW1 2951   0.967   1.610   7.217
  757SOL    HW2 2952   1.025   1.484   7.277
  758SOL     OW 2953   1.856   1.508   7.192
  758SOL    HW1 2954   1.872   1.534   7.101
  758SOL    HW2 2955   1.937   1.529   7.238
  759SOL     OW 2956   0.347   0.931   7.404
  759SOL    HW1 2957   0.421   0.960   7.458
  759SOL    HW2 2958   0.385   0.865   7.346
  760SOL     OW 2959   1.531   0.267   5.714
  760SOL    HW1 2960   1.460   0.210   5.742
  760SOL    HW2 2961   1.560   0.311   5.794
  761SOL     OW 2962   1.294   0.827   5.618
  761SOL    HW1 2963   1.335   0.741   5.621
  761SOL    HW2 2964   1.324   0.865   5.536
  762SOL     OW 2965   1.064   1.334   6.439
  762SOL    HW1 2966   1.067   1.261   6.377
  762SOL    HW2 2967   1.125   1.398   6.403
  763SOL     OW 2968   0.317   0.813   6.535
  763SOL    HW1 2969   0.411   0.830   6.531
  763SOL    HW2 2970   0.311   0.722   6.566
  764SOL     OW 2971   0.337   0.528   6.579
  764SOL    HW1 2972   0.292   0.446   6.559
  764SOL    HW2 2973   0.413   0.527   6.522
  765SOL     OW 2974   1.135   0.375   7.279
  765SOL    HW1 2975   1.087   0.439   7.331
  765SOL    HW2 2976   1.221   0.414   7.266
  766SOL     OW 2977   1.159   0.212   7.060
  766SOL    HW1 2978   1.152   0.276   7.130
  766SOL    HW2 2979   1.196   0.261   6.986
  767SOL     OW 2980   4.492   1.323   5.788
  767SOL    HW1 2981   4.399   1.338   5.770
  767SOL    HW2 2982   4.497   1.230   5.811
  768SOL     OW 2983   0.095   1.780   6.526
  768SOL    HW1 2984   0.058   1.722   6.460
  768SOL    HW2 2985   0.183   1.800   6.493
  769SOL     OW 2986   0.498   1.573   6.492
  769SOL    HW1 2987   0.566   1.636   6.516
  769SOL    HW2 2988   0.543   1.509   6.437
  770SOL     OW 2989   0.987   0.795   6.814
  770SOL    HW1 2990   1.040   0.770   6.890
  770SOL    HW2 2991   0.901   0.757   6.832
  771SOL     OW 2992   0.040   0.567   6.697
  771SOL    HW1 2993   0.114   0.522   6.656
  771SOL    HW2 2994   0.022   0.516   6.776
  772SOL     OW 2995   0.180   0.520   7.297
  772SOL    HW1 2996   0.266   0.503   7.259
  772SOL    HW2 2997   0.151   0.601   7.255
  773SOL     OW 2998   1.377   0.941   7.245
  773SOL    HW1 2999   1.397   1.034   7.245
  773SOL    HW2 3000   1.374   0.916   7.153
  774SOL     OW 3001   0.812   0.573   5.939
  774SOL    HW1 3002   0.815   0.501   5.876
  774SOL    HW2 3003   0.738   0.627   5.911
  775SOL     OW 3004   1.642   0.601   6.774
  775SOL    HW1 3005   1.631   0.541   6.848
  775SOL    HW2 3006   1.729   0.581   6.740
  776SOL     OW 3007   0.271   1.562   7.327
  776SOL    HW1 3008   0.217   1.614   7.386
  776SOL    HW2 3009   0.251   1.471   7.350
  777SOL     OW 3010   0.683   0.464   6.854
  777SOL    HW1 3011   0.647   0.383   6.817
  777SOL    HW2 3012   0.691   0.522   6.778
  778SOL     OW 3013   0.930   1.679   7.052
  778SOL    HW1 3014   0.902   1.647   6.966
  778SOL    HW2 3015   0.927   1.774   7.045
  779SOL     OW 3016   0.473   0.491   5.771
  779SOL    HW1 3017   0.532   0.563   5.793
  779SOL    HW2 3018   0.388   0.533   5.757
  780SOL     OW 3019   0.162   1.141   7.049
  780SOL    HW1 3020   0.147   1.094   7.131
  780SOL    HW2 3021   0.170   1.072   6.983
  781SOL     OW 3022   1.328   1.048   6.811
  781SOL    HW1 3023   1.352   0.985   6.742
  781SOL    HW2 3024   1.256   1.099   6.772
  782SOL     OW 3025   1.310   0.856   5.893
  782SOL    HW1 3026   1.234   0.827   5.943
  782SOL    HW2 3027   1.285   0.843   5.801
  783SOL     OW 3028   1.775   1.745   6.749
  783SOL    HW1 3029   1.814   1.783   6.670
  783SOL    HW2 3030   1.743   1.659   6.722
  784SOL     OW 3031   1.235   1.729   6.705
  784SOL    HW1 3032   1.325   1.747   6.677
  784SOL    HW2 3033   1.234   1.635   6.723
  785SOL     OW 3034   0.067   1.187   6.634
  785SOL    HW1 3035   0.071   1.221   6.724
  785SOL    HW2 3036   0.015   1.251   6.587
  786SOL     OW 3037   0.679   1.664   7.312
  786SOL    HW1 3038   0.625   1.743   7.308
  786SOL    HW2 3039   0.741   1.674   7.240
  787SOL     OW 3040   1.718   0.130   6.082
  787SOL    HW1 3041   1.791   0.136   6.021
  787SOL    HW2 3042   1.740   0.056   6.139
  788SOL     OW 3043   1.387   1.570   6.068
  788SOL    HW1 3044   1.448   1.604   6.003
  788SOL    HW2 3045   1.339   1.647   6.099
  789SOL     OW 3046   0.120   1.808   7.434
  789SOL    HW1 3047   0.081   1.734   7.481
  789SOL    HW2 3048   0.183   1.844   7.495
  790SOL     OW 3049   1.278   0.926   6.258
  790SOL    HW1 3050   1.351   0.864   6.262
  790SOL    HW2 3051   1.312   0.999   6.206
  791SOL     OW 3052   0.817   1.273   7.017
  791SOL    HW1 3053   0.791   1.311   7.100
  791SOL    HW2 3054   0.746   1.294   6.957
  792SOL     OW 3055   0.673   1.617   5.741
  792SOL    HW1 3056   0.681   1.628   5.646
  792SOL    HW2 3057   0.619   1.539   5.751
  793SOL     OW 3058   1.626   1.726   6.980
  793SOL    HW1 3059   1.680   1.732   6.901
  793SOL    HW2 3060   1.614   1.817   7.007
  794SOL     OW 3061   1.839   0.155   6.552
  794SOL    HW1 3062   1.867   0.078   6.504
  794SOL    HW2 3063   1.752   0.175   6.517
  795SOL     OW 3064   0.266   0.326   6.310
  795SOL    HW1 3065   0.183   0.360   6.276
  795SOL    HW2 3066   0.251   0.317   6.404
  796SOL     OW 3067   1.190   1.611   5.622
  796SOL    HW1 3068   1.197   1.518   5.644
  796SOL    HW2 3069   1.127   1.614   5.550
  797SOL     OW 3070   0.825   1.006   6.958
  797SOL    HW1 3071   0.868   1.003   6.872
  797SOL    HW2 3072   0.825   1.099   6.981
  798SOL     OW 3073   0.915   0.910   5.875
  798SOL    HW1 3074   0.977   0.942   5.810
  798SOL    HW2 3075   0.961   0.840   5.920
  799SOL     OW 3076   0.373   1.305   7.077
  799SOL    HW1 3077   0.356   1.384   7.025
  799SOL    HW2 3078   0.297   1.249   7.061
  800SOL     OW 3079   1.609   1.281   6.867
  800SOL    HW1 3080   1.672   1.276   6.939
  800SOL    HW2 3081   1.551   1.353   6.892
  801SOL     OW 3082   1.049   1.106   6.290
  801SOL    HW1 3083   0.979   1.055   6.331
  801SOL    HW2 3084   1.111   1.040   6.258
  802SOL     OW 3085   1.006   0.242   6.586
  802SOL    HW1 3086   1.013   0.215   6.494
  802SOL    HW2 3087   1.000   0.160   6.634
  803SOL     OW 3088   0.603   1.490   6.069
  803SOL    HW1 3089   0.642   1.439   5.997
  803SOL    HW2 3090   0.531   1.537   6.028
  804SOL     OW 3091   1.720   0.393   6.963
  804SOL    HW1 3092   1.792   0.456   6.963
  804SOL    HW2 3093   1.750   0.321   6.907
  805SOL     OW 3094   0.252   1.345   5.863
  805SOL    HW1 3095   0.157   1.345   5.849
  805SOL    HW2 3096   0.262   1.377   5.953
  806SOL     OW 3097   0.116   1.007   7.282
  806SOL    HW1 3098   0.052   1.047   7.340
  806SOL    HW2 3099   0.194   0.996   7.336
  807SOL     OW 3100   0.659   0.208   7.082
  807SOL    HW1 3101   0.739   0.181   7.036
  807SOL    HW2 3102   0.687   0.223   7.172
  808SOL     OW 3103   0.071   0.321   5.612
  808SOL    HW1 3104   4.476   0.329   5.623
  808SOL    HW2 3105   0.099   0.407   5.581
  809SOL     OW 3106   1.431   0.858   6.987
  809SOL    HW1 3107   1.383   0.918   6.931
  809SOL    HW2 3108   1.521   0.861   6.954
  810SOL     OW 3109   0.084   0.188   5.889
  810SOL    HW1 3110   0.079   0.260   5.826
  810SOL    HW2 3111   0.162   0.139   5.864
  811SOL     OW 3112   1.182   1.338   5.702
  811SOL    HW1 3113   1.090   1.312   5.704
  811SOL    HW2 3114   1.208   1.339   5.794
  812SOL     OW 3115   0.621   0.831   7.014
  812SOL    HW1 3116   0.676   0.908   7.002
  812SOL    HW2 3117   0.684   0.759   7.024
  813SOL     OW 3118   0.715   0.562   7.291
  813SOL    HW1 3119   0.748   0.629   7.350
  813SOL    HW2 3120   0.753   0.480   7.323
  814SOL     OW 3121   1.469   1.202   7.219
  814SOL    HW1 3122   1.457   1.216   7.313
  814SOL    HW2 3123   1.563   1.215   7.204
  815SOL     OW 3124   0.382   1.743   7.150
  815SOL    HW1 3125   0.296   1.783   7.134
  815SOL    HW2 3126   0.362   1.662   7.197
  816SOL     OW 3127   1.671   0.882   6.841
  816SOL    HW1 3128   1.662   0.797   6.798
  816SOL    HW2 3129   1.662   0.946   6.771
  817SOL     OW 3130   1.218   0.328   6.034
  817SOL    HW1 3131   1.283   0.259   6.024
  817SOL    HW2 3132   1.245   0.375   6.113
  818SOL     OW 3133   0.588   0.739   6.255
  818SOL    HW1 3134   0.629   0.824   6.238
  818SOL    HW2 3135   0.519   0.733   6.189
  819SOL     OW 3136   1.765   0.362   7.229
  819SOL    HW1 3137   1.748   0.376   7.136
  819SOL    HW2 3138   1.686   0.318   7.261
  820SOL     OW 3139   1.744   0.933   7.099
  820SOL    HW1 3140   1.745   1.028   7.112
  820SOL    HW2 3141   1.729   0.923   7.005
  821SOL     OW 3142   0.864   1.368   5.617
  821SOL    HW1 3143   0.824   1.394   5.700
  821SOL    HW2 3144   0.881   1.451   5.573
  822SOL     OW 3145   0.659   1.794   6.533
  822SOL    HW1 3146   0.638   1.883   6.509
  822SOL    HW2 3147   0.755   1.789   6.525
  823SOL     OW 3148   0.867   0.966   6.441
  823SOL    HW1 3149   0.917   0.894   6.481
  823SOL    HW2 3150   0.833   1.016   6.516
  824SOL     OW 3151   1.080   0.988   5.675
  824SOL    HW1 3152   1.058   1.038   5.596
  824SOL    HW2 3153   1.155   0.935   5.649
  825SOL     OW 3154   0.229   1.307   7.443
  825SOL    HW1 3155   0.158   1.246   7.419
  825SOL    HW2 3156   0.221   1.317   7.537
  826SOL     OW 3157   0.103   1.238   6.253
  826SOL    HW1 3158   0.109   1.188   6.334
  826SOL    HW2 3159   0.163   1.194   6.193
  827SOL     OW 3160   0.681   1.401   7.212
  827SOL    HW1 3161   0.601   1.357   7.241
  827SOL    HW2 3162   0.675   1.489   7.250
  828SOL     OW 3163   1.811   0.183   6.825
  828SOL    HW1 3164   1.808   0.090   6.846
  828SOL    HW2 3165   1.826   0.186   6.730
  829SOL     OW 3166   0.439   0.431   6.116
  829SOL    HW1 3167   0.458   0.361   6.054
  829SOL    HW2 3168   0.381   0.391   6.181
  830SOL     OW 3169   1.696   1.497   6.690
  830SOL    HW1 3170   1.622   1.466   6.638
  830SOL    HW2 3171   1.717   1.425   6.749
  831SOL     OW 3172   0.312   0.504   6.842
  831SOL    HW1 3173   0.384   0.456   6.883
  831SOL    HW2 3174   0.339   0.513   6.751
  832SOL     OW 3175   0.826   1.578   6.265
  832SOL    HW1 3176   0.817   1.625   6.182
  832SOL    HW2 3177   0.748   1.522   6.269
  833SOL     OW 3178   1.432   0.215   6.704
  833SOL    HW1 3179   1.468   0.145   6.758
  833SOL    HW2 3180   1.381   0.269   6.765
  834SOL     OW 3181   0.997   0.011   6.735
  834SOL    HW1 3182   0.952   4.427   6.725
  834SOL    HW2 3183   1.089   4.487   6.747
  835SOL     OW 3184   0.772   1.332   5.896
  835SOL    HW1 3185   0.738   1.242   5.904
  835SOL    HW2 3186   0.854   1.331   5.946
  836SOL     OW 3187   0.621   1.558   6.870
  836SOL    HW1 3188   0.623   1.639   6.921
  836SOL    HW2 3189   0.708   1.551   6.832
  837SOL     OW 3190   1.342   0.053   5.738
  837SOL    HW1 3191   1.381   4.478   5.694
  837SOL    HW2 3192   1.267   0.017   5.785
  838SOL     OW 3193   1.314   0.462   6.265
  838SOL    HW1 3194   1.253   0.536   6.266
  838SOL    HW2 3195   1.302   0.420   6.350
  839SOL     OW 3196   1.586   0.202   6.454
  839SOL    HW1 3197   1.525   0.216   6.526
  839SOL    HW2 3198   1.588   0.286   6.408
  840SOL     OW 3199   0.041   1.053   5.873
  840SOL    HW1 3200   0.136   1.040   5.865
  840SOL    HW2 3201   0.019   1.015   5.958
  841SOL     OW 3202   0.880   1.649   5.931
  841SOL    HW1 3203   0.809   1.631   5.870
  841SOL    HW2 3204   0.850   1.725   5.981
  842SOL     OW 3205   0.247   0.626   7.567
  842SOL    HW1 3206   0.172   0.610   7.624
  842SOL    HW2 3207   0.215   0.610   7.479
  843SOL     OW 3208   0.196   0.293   8.437
  843SOL    HW1 3209   0.232   0.269   8.523
  843SOL    HW2 3210   0.132   0.224   8.418
  844SOL     OW 3211   0.006   0.378   8.090
  844SOL    HW1 3212   4.427   0.415   8.129
  844SOL    HW2 3213   4.474   0.307   8.035
  845SOL     OW 3214   0.567   1.283   8.621
  845SOL    HW1 3215   0.479   1.289   8.583
  845SOL    HW2 3216   0.583   1.371   8.656
  846SOL     OW 3217   1.558   1.512   8.154
  846SOL    HW1 3218   1.515   1.494   8.237
  846SOL    HW2 3219   1.487   1.517   8.090
  847SOL     OW 3220   1.132   0.699   8.149
  847SOL    HW1 3221   1.180   0.782   8.137
  847SOL    HW2 3222   1.083   0.711   8.230
  848SOL     OW 3223   1.765   0.608   7.677
  848SOL    HW1 3224   1.746   0.598   7.584
  848SOL    HW2 3225   1.733   0.528   7.718
  849SOL     OW 3226   0.758   1.144   8.486
  849SOL    HW1 3227   0.688   1.178   8.543
  849SOL    HW2 3228   0.792   1.221   8.442
  850SOL     OW 3229   0.863   0.778   9.269
  850SOL    HW1 3230   0.850   0.849   9.331
  850SOL    HW2 3231   0.887   0.822   9.187
  851SOL     OW 3232   0.686   1.006   8.097
  851SOL    HW1 3233   0.750   0.992   8.166
  851SOL    HW2 3234   0.616   1.056   8.139
  852SOL     OW 3235   0.709   1.151   9.258
  852SOL    HW1 3236   0.756   1.230   9.283
  852SOL    HW2 3237   0.625   1.182   9.224
  853SOL     OW 3238   0.336   1.423   8.518
  853SOL    HW1 3239   0.255   1.404   8.471
  853SOL    HW2 3240   0.387   1.477   8.457
  854SOL     OW 3241   1.462   1.499   8.799
  854SOL    HW1 3242   1.509   1.582   8.808
  854SOL    HW2 3243   1.405   1.494   8.876
  855SOL     OW 3244   0.437   0.396   8.941
  855SOL    HW1 3245   0.525   0.360   8.942
  855SOL    HW2 3246   0.380   0.321   8.957
  856SOL     OW 3247   1.612   0.448   8.186
  856SOL    HW1 3248   1.532   0.471   8.139
  856SOL    HW2 3249   1.633   0.525   8.239
  857SOL     OW 3250   0.245   1.692   7.926
  857SOL    HW1 3251   0.232   1.776   7.969
  857SOL    HW2 3252   0.310   1.709   7.858
  858SOL     OW 3253   1.136   1.341   9.140
  858SOL    HW1 3254   1.176   1.337   9.227
  858SOL    HW2 3255   1.083   1.261   9.134
  859SOL     OW 3256   0.245   1.427   7.976
  859SOL    HW1 3257   0.237   1.523   7.980
  859SOL    HW2 3258   0.181   1.395   8.039
  860SOL     OW 3259   0.245   1.081   8.331
  860SOL    HW1 3260   0.263   0.993   8.363
  860SOL    HW2 3261   0.187   1.120   8.396
  861SOL     OW 3262   0.615   1.791   8.880
  861SOL    HW1 3263   0.532   1.773   8.923
  861SOL    HW2 3264   0.636   1.881   8.904
  862SOL     OW 3265   0.583   0.984   7.584
  862SOL    HW1 3266   0.628   1.030   7.513
  862SOL    HW2 3267   0.628   1.012   7.664
  863SOL     OW 3268   1.584   0.115   8.921
  863SOL    HW1 3269   1.599   0.184   8.856
  863SOL    HW2 3270   1.574   0.162   9.004
  864SOL     OW 3271   0.136   0.642   8.022
  864SOL    HW1 3272   0.083   0.564   8.038
  864SOL    HW2 3273   0.107   0.704   8.090
  865SOL     OW 3274   1.841   1.761   7.783
  865SOL    HW1 3275   1.899   1.731   7.854
  865SOL    HW2 3276   1.868   1.851   7.767
  866SOL     OW 3277   0.033   1.601   7.585
  866SOL    HW1 3278   0.021   1.506   7.585
  866SOL    HW2 3279   0.014   1.628   7.675
  867SOL     OW 3280   1.691   0.920   8.087
  867SOL    HW1 3281   1.775   0.879   8.066
  867SOL    HW2 3282   1.669   0.969   8.008
  868SOL     OW 3283   1.645   1.108   7.877
  868SOL    HW1 3284   1.731   1.116   7.835
  868SOL    HW2 3285   1.650   1.168   7.951
  869SOL     OW 3286   0.106   0.762   9.035
  869SOL    HW1 3287   0.200   0.760   9.014
  869SOL    HW2 3288   0.086   0.855   9.045
  870SOL     OW 3289   0.613   1.383   8.184
  870SOL    HW1 3290   0.566   1.300   8.193
  870SOL    HW2 3291   0.597   1.410   8.093
  871SOL     OW 3292   1.290   1.238   8.872
  871SOL    HW1 3293   1.323   1.171   8.812
  871SOL    HW2 3294   1.346   1.231   8.949
  872SOL     OW 3295   0.818   0.012   7.996
  872SOL    HW1 3296   0.852   0.098   7.972
  872SOL    HW2 3297   0.723   0.019   7.986
  873SOL     OW 3298   0.182   0.943   8.727
  873SOL    HW1 3299   0.273   0.926   8.705
  873SOL    HW2 3300   0.133   0.922   8.647
  874SOL     OW 3301   1.532   0.991   7.645
  874SOL    HW1 3302   1.461   0.934   7.676
  874SOL    HW2 3303   1.571   1.026   7.725
  875SOL     OW 3304   1.184   1.804   9.068
  875SOL    HW1 3305   1.201   1.862   8.994
  875SOL    HW2 3306   1.200   1.716   9.034
  876SOL     OW 3307   0.318   0.260   9.219
  876SOL    HW1 3308   0.386   0.312   9.262
  876SOL    HW2 3309   0.242   0.268   9.277
  877SOL     OW 3310   1.466   1.419   8.401
  877SOL    HW1 3311   1.397   1.434   8.466
  877SOL    HW2 3312   1.454   1.328   8.374
  878SOL     OW 3313   1.663   1.733   8.025
  878SOL    HW1 3314   1.637   1.705   7.937
  878SOL    HW2 3315   1.635   1.661   8.082
  879SOL     OW 3316   0.596   0.723   7.713
  879SOL    HW1 3317   0.601   0.804   7.661
  879SOL    HW2 3318   0.530   0.741   7.780
  880SOL     OW 3319   1.290   0.360   8.382
  880SOL    HW1 3320   1.201   0.328   8.366
  880SOL    HW2 3321   1.327   0.297   8.444
  881SOL     OW 3322   1.581   1.668   7.757
  881SOL    HW1 3323   1.670   1.703   7.750
  881SOL    HW2 3324   1.555   1.651   7.666
  882SOL     OW 3325   0.797   0.617   8.902
  882SOL    HW1 3326   0.769   0.593   8.991
  882SOL    HW2 3327   0.752   0.554   8.845
  883SOL     OW 3328   1.389   0.478   9.124
  883SOL    HW1 3329   1.391   0.522   9.209
  883SOL    HW2 3330   1.456   0.410   9.130
  884SOL     OW 3331   0.957   0.888   9.029
  884SOL    HW1 3332   1.011   0.817   8.995
  884SOL    HW2 3333   0.910   0.922   8.953
  885SOL     OW 3334   0.996   0.417   8.685
  885SOL    HW1 3335   0.911   0.429   8.726
  885SOL    HW2 3336   0.978   0.365   8.607
  886SOL     OW 3337   1.049   0.698   7.876
  886SOL    HW1 3338   1.065   0.691   7.970
  886SOL    HW2 3339   0.967   0.651   7.861
  887SOL     OW 3340   0.099   0.824   8.231
  887SOL    HW1 3341   0.185   0.805   8.268
  887SOL    HW2 3342   0.050   0.866   8.302
  888SOL     OW 3343   0.124   1.855   9.024
  888SOL    HW1 3344   0.118   1.830   9.117
  888SOL    HW2 3345   0.045   1.817   8.984
  889SOL     OW 3346   0.853   0.368   7.626
  889SOL    HW1 3347   0.928   0.403   7.579
  889SOL    HW2 3348   0.871   0.274   7.633
  890SOL     OW 3349   1.706   0.575   9.276
  890SOL    HW1 3350   1.670   0.651   9.230
  890SOL    HW2 3351   1.740   0.519   9.206
  891SOL     OW 3352   1.376   1.142   7.990
  891SOL    HW1 3353   1.454   1.129   7.937
  891SOL    HW2 3354   1.323   1.205   7.939
  892SOL     OW 3355   0.543   0.202   8.349
  892SOL    HW1 3356   0.562   0.222   8.441
  892SOL    HW2 3357   0.534   0.288   8.308
  893SOL     OW 3358   1.008   1.445   7.921
  893SOL    HW1 3359   0.968   1.517   7.872
  893SOL    HW2 3360   0.993   1.467   8.013
  894SOL     OW 3361   0.355   1.808   8.305
  894SOL    HW1 3362   0.398   1.723   8.315
  894SOL    HW2 3363   0.425   1.872   8.319
  895SOL     OW 3364   1.799   1.059   8.315
  895SOL    HW1 3365   1.742   1.042   8.239
  895SOL    HW2 3366   1.738   1.064   8.389
  896SOL     OW 3367   1.228   1.539   8.961
  896SOL    HW1 3368   1.214   1.466   9.021
  896SOL    HW2 3369   1.167   1.523   8.889
  897SOL     OW 3370   0.317   0.954   7.698
  897SOL    HW1 3371   0.402   0.977   7.659
  897SOL    HW2 3372   0.300   0.865   7.669
  898SOL     OW 3373   1.477   0.740   8.173
  898SOL    HW1 3374   1.464   0.694   8.256
  898SOL    HW2 3375   1.553   0.796   8.189
  899SOL     OW 3376   0.466   1.261   9.183
  899SOL    HW1 3377   0.438   1.268   9.092
  899SOL    HW2 3378   0.385   1.267   9.234
  900SOL     OW 3379   1.121   1.777   7.679
  900SOL    HW1 3380   1.049   1.735   7.726
  900SOL    HW2 3381   1.143   1.717   7.608
  901SOL     OW 3382   0.165   0.263   8.957
  901SOL    HW1 3383   0.136   0.350   8.930
  901SOL    HW2 3384   0.199   0.276   9.046
  902SOL     OW 3385   1.629   1.379   7.535
  902SOL    HW1 3386   1.588   1.464   7.520
  902SOL    HW2 3387   1.560   1.316   7.516
  903SOL     OW 3388   0.469   1.743   7.763
  903SOL    HW1 3389   0.509   1.796   7.831
  903SOL    HW2 3390   0.543   1.711   7.711
  904SOL     OW 3391   1.417   0.134   7.866
  904SOL    HW1 3392   1.400   0.085   7.785
  904SOL    HW2 3393   1.512   0.130   7.877
  905SOL     OW 3394   0.256   1.790   8.684
  905SOL    HW1 3395   0.306   1.717   8.721
  905SOL    HW2 3396   0.228   1.758   8.598
  906SOL     OW 3397   0.938   1.698   8.348
  906SOL    HW1 3398   1.015   1.646   8.369
  906SOL    HW2 3399   0.893   1.649   8.279
  907SOL     OW 3400   0.392   0.694   7.922
  907SOL    HW1 3401   0.418   0.603   7.933
  907SOL    HW2 3402   0.300   0.697   7.948
  908SOL     OW 3403   1.526   0.233   9.170
  908SOL    HW1 3404   1.525   0.256   9.263
  908SOL    HW2 3405   1.450   0.175   9.159
  909SOL     OW 3406   0.622   0.122   7.565
  909SOL    HW1 3407   0.711   0.087   7.577
  909SOL    HW2 3408   0.594   0.086   7.481
  910SOL     OW 3409   0.769   0.269   9.201
  910SOL    HW1 3410   0.835   0.201   9.215
  910SOL    HW2 3411   0.726   0.278   9.286
  911SOL     OW 3412   0.877   1.521   8.641
  911SOL    HW1 3413   0.862   1.485   8.554
  911SOL    HW2 3414   0.946   1.466   8.678
  912SOL     OW 3415   1.342   0.589   8.877
  912SOL    HW1 3416   1.370   0.559   8.964
  912SOL    HW2 3417   1.376   0.678   8.870
  913SOL     OW 3418   0.814   1.397   8.385
  913SOL    HW1 3419   0.898   1.387   8.340
  913SOL    HW2 3420   0.749   1.396   8.315
  914SOL     OW 3421   0.922   0.516   8.350
  914SOL    HW1 3422   0.906   0.514   8.255
  914SOL    HW2 3423   0.963   0.431   8.368
  915SOL     OW 3424   0.559   0.067   7.957
  915SOL    HW1 3425   0.472   0.054   7.994
  915SOL    HW2 3426   0.548   0.139   7.895
  916SOL     OW 3427   1.428   1.198   7.489
  916SOL    HW1 3428   1.459   1.122   7.539
  916SOL    HW2 3429   1.343   1.218   7.526
  917SOL     OW 3430   0.303   0.076   7.633
  917SOL    HW1 3431   0.387   0.122   7.629
  917SOL    HW2 3432   0.320   4.499   7.688
  918SOL     OW 3433   0.951   0.241   7.920
  918SOL    HW1 3434   0.899   0.290   7.857
  918SOL    HW2 3435   1.039   0.276   7.911
  919SOL     OW 3436   1.080   0.680   8.909
  919SOL    HW1 3437   1.009   0.616   8.910
  919SOL    HW2 3438   1.159   0.627   8.897
  920SOL     OW 3439   1.225   1.569   8.241
  920SOL    HW1 3440   1.242   1.637   8.176
  920SOL    HW2 3441   1.292   1.582   8.308
  921SOL     OW 3442   0.465   1.148   8.185
  921SOL    HW1 3443   0.394   1.129   8.246
  921SOL    HW2 3444   0.428   1.132   8.098
  922SOL     OW 3445   1.270   1.795   8.054
  922SOL    HW1 3446   1.315   1.856   7.995
  922SOL    HW2 3447   1.206   1.848   8.100
  923SOL     OW 3448   1.030   0.549   7.463
  923SOL    HW1 3449   0.982   0.630   7.448
  923SOL    HW2 3450   1.089   0.569   7.536
  924SOL     OW 3451   0.092   0.522   8.860
  924SOL    HW1 3452   0.152   0.532   8.786
  924SOL    HW2 3453   0.061   0.611   8.878
  925SOL     OW 3454   0.563   0.243   8.614
  925SOL    HW1 3455   0.593   0.158   8.647
  925SOL    HW2 3456   0.469   0.244   8.633
  926SOL     OW 3457   0.866   0.502   8.074
  926SOL    HW1 3458   0.816   0.544   8.004
  926SOL    HW2 3459   0.845   0.409   8.066
  927SOL     OW 3460   0.968   0.030   8.226
  927SOL    HW1 3461   0.919   0.026   8.143
  927SOL    HW2 3462   0.980   4.438   8.250
  928SOL     OW 3463   1.436   1.163   8.306
  928SOL    HW1 3464   1.368   1.096   8.304
  928SOL    HW2 3465   1.459   1.176   8.214
  929SOL     OW 3466   1.467   0.603   8.426
  929SOL    HW1 3467   1.415   0.522   8.429
  929SOL    HW2 3468   1.526   0.597   8.501
  930SOL     OW 3469   1.847   0.818   7.830
  930SOL    HW1 3470   1.903   0.766   7.888
  930SOL    HW2 3471   1.818   0.757   7.763
  931SOL     OW 3472   0.492   1.415   7.609
  931SOL    HW1 3473   0.416   1.385   7.659
  931SOL    HW2 3474   0.472   1.392   7.518
  932SOL     OW 3475   1.669   1.265   8.095
  932SOL    HW1 3476   1.763   1.271   8.109
  932SOL    HW2 3477   1.637   1.353   8.117
  933SOL     OW 3478   1.394   0.570   7.518
  933SOL    HW1 3479   1.333   0.554   7.590
  933SOL    HW2 3480   1.480   0.550   7.554
  934SOL     OW 3481   0.523   0.264   7.770
  934SOL    HW1 3482   0.569   0.214   7.703
  934SOL    HW2 3483   0.508   0.350   7.730
  935SOL     OW 3484   1.754   1.237   9.025
  935SOL    HW1 3485   1.841   1.198   9.020
  935SOL    HW2 3486   1.768   1.327   9.052
  936SOL     OW 3487   1.060   1.353   8.782
  936SOL    HW1 3488   0.985   1.322   8.834
  936SOL    HW2 3489   1.136   1.312   8.824
  937SOL     OW 3490   1.606   1.624   9.099
  937SOL    HW1 3491   1.603   1.660   9.011
  937SOL    HW2 3492   1.691   1.579   9.103
  938SOL     OW 3493   1.126   1.202   8.555
  938SOL    HW1 3494   1.068   1.240   8.620
  938SOL    HW2 3495   1.092   1.233   8.471
  939SOL     OW 3496   1.631   1.099   8.526
  939SOL    HW1 3497   1.626   1.162   8.599
  939SOL    HW2 3498   1.550   1.115   8.476
  940SOL     OW 3499   0.903   0.131   8.837
  940SOL    HW1 3500   0.926   0.087   8.755
  940SOL    HW2 3501   0.987   0.144   8.881
  941SOL     OW 3502   0.984   1.114   9.171
  941SOL    HW1 3503   0.892   1.130   9.190
  941SOL    HW2 3504   0.984   1.037   9.114
  942SOL     OW 3505   0.708   1.060   7.821
  942SOL    HW1 3506   0.696   1.046   7.914
  942SOL    HW2 3507   0.784   1.007   7.798
  943SOL     OW 3508   0.429   0.824   8.687
  943SOL    HW1 3509   0.497   0.834   8.754
  943SOL    HW2 3510   0.370   0.758   8.724
  944SOL     OW 3511   1.269   0.376   8.720
  944SOL    HW1 3512   1.301   0.455   8.765
  944SOL    HW2 3513   1.181   0.399   8.692
  945SOL     OW 3514   0.061   1.576   8.789
  945SOL    HW1 3515   0.034   1.664   8.763
  945SOL    HW2 3516   0.157   1.581   8.794
  946SOL     OW 3517   0.349   1.107   7.941
  946SOL    HW1 3518   0.359   1.180   7.881
  946SOL    HW2 3519   0.352   1.029   7.886
  947SOL     OW 3520   0.564   0.529   8.303
  947SOL    HW1 3521   0.576   0.589   8.229
  947SOL    HW2 3522   0.622   0.561   8.371
  948SOL     OW 3523   1.248   1.348   7.837
  948SOL    HW1 3524   1.303   1.420   7.868
  948SOL    HW2 3525   1.161   1.369   7.871
  949SOL     OW 3526   1.278   1.456   8.594
  949SOL    HW1 3527   1.333   1.459   8.672
  949SOL    HW2 3528   1.223   1.379   8.607
  950SOL     OW 3529   1.583   0.624   7.924
  950SOL    HW1 3530   1.538   0.677   7.990
  950SOL    HW2 3531   1.627   0.689   7.868
  951SOL     OW 3532   0.348   1.529   8.765
  951SOL    HW1 3533   0.333   1.482   8.683
  951SOL    HW2 3534   0.443   1.540   8.770
  952SOL     OW 3535   0.479   0.760   9.113
  952SOL    HW1 3536   0.505   0.799   9.030
  952SOL    HW2 3537   0.515   0.671   9.110
  953SOL     OW 3538   1.598   0.777   9.127
  953SOL    HW1 3539   1.512   0.818   9.120
  953SOL    HW2 3540   1.651   0.819   9.059
  954SOL     OW 3541   1.007   0.086   9.172
  954SOL    HW1 3542   1.031   0.170   9.133
  954SOL    HW2 3543   1.032   0.021   9.107
  955SOL     OW 3544   0.496   0.045   9.198
  955SOL    HW1 3545   0.479   4.497   9.117
  955SOL    HW2 3546   0.429   0.114   9.200
  956SOL     OW 3547   0.588   0.874   8.471
  956SOL    HW1 3548   0.618   0.965   8.474
  956SOL    HW2 3549   0.532   0.865   8.549
  957SOL     OW 3550   1.360   0.858   8.480
  957SOL    HW1 3551   1.278   0.852   8.432
  957SOL    HW2 3552   1.398   0.771   8.476
  958SOL     OW 3553   1.206   0.535   7.713
  958SOL    HW1 3554   1.212   0.454   7.765
  958SOL    HW2 3555   1.163   0.597   7.772
  959SOL     OW 3556   0.285   0.219   8.682
  959SOL    HW1 3557   0.248   0.236   8.769
  959SOL    HW2 3558   0.322   0.131   8.689
  960SOL     OW 3559   0.045   1.313   8.732
  960SOL    HW1 3560   0.077   1.266   8.809
  960SOL    HW2 3561   0.048   1.405   8.758
  961SOL     OW 3562   0.725   0.632   8.508
  961SOL    HW1 3563   0.798   0.611   8.450
  961SOL    HW2 3564   0.699   0.721   8.483
  962SOL     OW 3565   1.734   0.958   9.299
  962SOL    HW1 3566   1.685   0.903   9.238
  962SOL    HW2 3567   1.674   0.971   9.373
  963SOL     OW 3568   0.319   0.075   8.079
  963SOL    HW1 3569   0.301   0.163   8.112
  963SOL    HW2 3570   0.306   0.018   8.155
  964SOL     OW 3571   1.611   0.375   7.813
  964SOL    HW1 3572   1.642   0.313   7.879
  964SOL    HW2 3573   1.590   0.454   7.864
  965SOL     OW 3574   1.028   0.761   8.410
  965SOL    HW1 3575   1.027   0.777   8.504
  965SOL    HW2 3576   0.999   0.670   8.401
  966SOL     OW 3577   0.982   1.566   9.163
  966SOL    HW1 3578   0.967   1.610   9.080
  966SOL    HW2 3579   1.025   1.484   9.139
  967SOL     OW 3580   1.857   1.506   9.053
  967SOL    HW1 3581   1.870   1.535   8.963
  967SOL    HW2 3582   1.937   1.532   9.099
  968SOL     OW 3583   0.347   0.931   9.266
  968SOL    HW1 3584   0.421   0.960   9.320
  968SOL    HW2 3585   0.385   0.865   9.208
  969SOL     OW 3586   1.532   0.267   7.576
  969SOL    HW1 3587   1.460   0.210   7.604
  969SOL    HW2 3588   1.560   0.311   7.656
  970SOL     OW 3589   1.294   0.827   7.480
  970SOL    HW1 3590   1.335   0.741   7.482
  970SOL    HW2 3591   1.324   0.866   7.398
  971SOL     OW 3592   1.065   1.335   8.301
  971SOL    HW1 3593   1.068   1.262   8.239
  971SOL    HW2 3594   1.128   1.398   8.266
  972SOL     OW 3595   0.317   0.813   8.397
  972SOL    HW1 3596   0.411   0.830   8.393
  972SOL    HW2 3597   0.311   0.722   8.428
  973SOL     OW 3598   0.337   0.528   8.441
  973SOL    HW1 3599   0.292   0.446   8.421
  973SOL    HW2 3600   0.413   0.527   8.384
  974SOL     OW 3601   1.135   0.375   9.141
  974SOL    HW1 3602   1.087   0.439   9.193
  974SOL    HW2 3603   1.221   0.414   9.128
  975SOL     OW 3604   1.159   0.211   8.922
  975SOL    HW1 3605   1.152   0.276   8.992
  975SOL    HW2 3606   1.195   0.261   8.848
  976SOL     OW 3607   4.492   1.323   7.650
  976SOL    HW1 3608   4.399   1.338   7.633
  976SOL    HW2 3609   4.497   1.230   7.673
  977SOL     OW 3610   0.095   1.780   8.387
  977SOL    HW1 3611   0.058   1.722   8.322
  977SOL    HW2 3612   0.183   1.800   8.354
  978SOL     OW 3613   0.498   1.573   8.354
  978SOL    HW1 3614   0.566   1.636   8.378
  978SOL    HW2 3615   0.543   1.509   8.299
  979SOL     OW 3616   0.987   0.794   8.676
  979SOL    HW1 3617   1.040   0.770   8.752
  979SOL    HW2 3618   0.901   0.757   8.694
  980SOL     OW 3619   0.040   0.567   8.559
  980SOL    HW1 3620   0.114   0.522   8.518
  980SOL    HW2 3621   0.022   0.516   8.638
  981SOL     OW 3622   0.180   0.520   9.159
  981SOL    HW1 3623   0.266   0.503   9.121
  981SOL    HW2 3624   0.151   0.601   9.117
  982SOL     OW 3625   1.377   0.941   9.107
  982SOL    HW1 3626   1.397   1.034   9.107
  982SOL    HW2 3627   1.374   0.916   9.015
  983SOL     OW 3628   0.812   0.573   7.801
  983SOL    HW1 3629   0.814   0.501   7.738
  983SOL    HW2 3630   0.738   0.627   7.773
  984SOL     OW 3631   1.642   0.601   8.636
  984SOL    HW1 3632   1.631   0.541   8.711
  984SOL    HW2 3633   1.729   0.581   8.602
  985SOL     OW 3634   0.271   1.562   9.189
  985SOL    HW1 3635   0.217   1.614   9.249
  985SOL    HW2 3636   0.251   1.471   9.212
  986SOL     OW 3637   0.683   0.464   8.716
  986SOL    HW1 3638   0.647   0.383   8.679
  986SOL    HW2 3639   0.691   0.522   8.640
  987SOL     OW 3640   0.929   1.679   8.915
  987SOL    HW1 3641   0.903   1.647   8.828
  987SOL    HW2 3642   0.928   1.774   8.907
  988SOL     OW 3643   0.473   0.491   7.633
  988SOL    HW1 3644   0.532   0.563   7.655
  988SOL    HW2 3645   0.388   0.533   7.619
  989SOL     OW 3646   0.161   1.141   8.911
  989SOL    HW1 3647   0.147   1.094   8.993
  989SOL    HW2 3648   0.170   1.072   8.845
  990SOL     OW 3649   1.328   1.048   8.672
  990SOL    HW1 3650   1.352   0.985   8.604
  990SOL    HW2 3651   1.256   1.099   8.635
  991SOL     OW 3652   1.310   0.856   7.755
  991SOL    HW1 3653   1.234   0.827   7.805
  991SOL    HW2 3654   1.285   0.843   7.663
  992SOL     OW 3655   1.761   1.745   8.593
  992SOL    HW1 3656   1.826   1.773   8.529
  992SOL    HW2 3657   1.745   1.653   8.572
  993SOL     OW 3658   1.241   1.732   8.563
  993SOL    HW1 3659   1.323   1.752   8.518
  993SOL    HW2 3660   1.245   1.639   8.581
  994SOL     OW 3661   0.067   1.187   8.497
  994SOL    HW1 3662   0.071   1.221   8.586
  994SOL    HW2 3663   0.015   1.251   8.449
  995SOL     OW 3664   0.679   1.664   9.174
  995SOL    HW1 3665   0.625   1.743   9.170
  995SOL    HW2 3666   0.741   1.674   9.102
  996SOL     OW 3667   1.718   0.130   7.944
  996SOL    HW1 3668   1.792   0.136   7.883
  996SOL    HW2 3669   1.740   0.056   8.001
  997SOL     OW 3670   1.390   1.568   7.931
  997SOL    HW1 3671   1.450   1.599   7.864
  997SOL    HW2 3672   1.342   1.646   7.959
  998SOL     OW 3673   0.119   1.808   9.296
  998SOL    HW1 3674   0.080   1.734   9.343
  998SOL    HW2 3675   0.183   1.844   9.357
  999SOL     OW 3676   1.278   0.926   8.120
  999SOL    HW1 3677   1.351   0.864   8.124
  999SOL    HW2 3678   1.312   0.999   8.068
 1000SOL     OW 3679   0.817   1.272   8.879
 1000SOL    HW1 3680   0.791   1.311   8.962
 1000SOL    HW2 3681   0.747   1.295   8.819
 1001SOL     OW 3682   0.673   1.617   7.603
 1001SOL    HW1 3683   0.681   1.628   7.509
 1001SOL    HW2 3684   0.619   1.539   7.613
 1002SOL     OW 3685   1.629   1.726   8.839
 1002SOL    HW1 3686   1.678   1.735   8.757
 1002SOL    HW2 3687   1.616   1.816   8.868
 1003SOL     OW 3688   1.839   0.155   8.414
 1003SOL    HW1 3689   1.868   0.078   8.365
 1003SOL    HW2 3690   1.752   0.175   8.379
 1004SOL     OW 3691   0.266   0.325   8.172
 1004SOL    HW1 3692   0.183   0.360   8.138
 1004SOL    HW2 3693   0.251   0.317   8.266
 1005SOL     OW 3694   1.206   1.607   7.479
 1005SOL    HW1 3695   1.198   1.516   7.506
 1005SOL    HW2 3696   1.141   1.618   7.410
 1006SOL     OW 3697   0.825   1.006   8.820
 1006SOL    HW1 3698   0.868   1.003   8.734
 1006SOL    HW2 3699   0.825   1.099   8.843
 1007SOL     OW 3700   0.915   0.910   7.737
 1007SOL    HW1 3701   0.977   0.942   7.672
 1007SOL    HW2 3702   0.962   0.840   7.782
 1008SOL     OW 3703   1.494   1.624   7.490
 1008SOL    HW1 3704   1.399   1.620   7.478
 1008SOL    HW2 3705   1.529   1.630   7.402
 1009SOL     OW 3706   0.373   1.306   8.939
 1009SOL    HW1 3707   0.356   1.384   8.887
 1009SOL    HW2 3708   0.297   1.249   8.922
 1010SOL     OW 3709   1.611   1.283   8.729
 1010SOL    HW1 3710   1.672   1.276   8.803
 1010SOL    HW2 3711   1.551   1.353   8.754
 1011SOL     OW 3712   1.049   1.106   8.153
 1011SOL    HW1 3713   0.979   1.055   8.193
 1011SOL    HW2 3714   1.111   1.040   8.120
 1012SOL     OW 3715   1.006   0.242   8.448
 1012SOL    HW1 3716   1.013   0.215   8.356
 1012SOL    HW2 3717   1.000   0.160   8.496
 1013SOL     OW 3718   0.603   1.489   7.931
 1013SOL    HW1 3719   0.643   1.439   7.859
 1013SOL    HW2 3720   0.532   1.538   7.889
 1014SOL     OW 3721   1.720   0.393   8.826
 1014SOL    HW1 3722   1.792   0.456   8.825
 1014SOL    HW2 3723   1.750   0.321   8.769
 1015SOL     OW 3724   0.252   1.345   7.725
 1015SOL    HW1 3725   0.157   1.345   7.711
 1015SOL    HW2 3726   0.263   1.377   7.814
 1016SOL     OW 3727   0.117   1.008   9.144
 1016SOL    HW1 3728   0.052   1.047   9.202
 1016SOL    HW2 3729   0.195   0.996   9.198
 1017SOL     OW 3730   0.659   0.207   8.944
 1017SOL    HW1 3731   0.739   0.181   8.898
 1017SOL    HW2 3732   0.687   0.223   9.034
 1018SOL     OW 3733   0.071   0.321   7.474
 1018SOL    HW1 3734   4.476   0.329   7.485
 1018SOL    HW2 3735   0.099   0.407   7.443
 1019SOL     OW 3736   1.431   0.858   8.849
 1019SOL    HW1 3737   1.383   0.918   8.793
 1019SOL    HW2 3738   1.521   0.861   8.816
 1020SOL     OW 3739   0.084   0.188   7.751
 1020SOL    HW1 3740   0.079   0.260   7.688
 1020SOL    HW2 3741   0.162   0.139   7.726
 1021SOL     OW 3742   1.180   1.341   7.565
 1021SOL    HW1 3743   1.089   1.311   7.568
 1021SOL    HW2 3744   1.208   1.341   7.656
 1022SOL     OW 3745   0.621   0.831   8.876
 1022SOL    HW1 3746   0.676   0.908   8.864
 1022SOL    HW2 3747   0.684   0.759   8.886
 1023SOL     OW 3748   1.486   1.774   8.424
 1023SOL    HW1 3749   1.512   1.834   8.354
 1023SOL    HW2 3750   1.566   1.761   8.475
 1024SOL     OW 3751   0.714   0.562   9.153
 1024SOL    HW1 3752   0.748   0.629   9.212
 1024SOL    HW2 3753   0.753   0.480   9.185
 1025SOL     OW 3754   1.469   1.202   9.081
 1025SOL    HW1 3755   1.457   1.216   9.175
 1025SOL    HW2 3756   1.563   1.216   9.066
 1026SOL     OW 3757   0.382   1.743   9.012
 1026SOL    HW1 3758   0.296   1.783   8.996
 1026SOL    HW2 3759   0.362   1.662   9.059
 1027SOL     OW 3760   1.672   0.882   8.703
 1027SOL    HW1 3761   1.662   0.797   8.660
 1027SOL    HW2 3762   1.662   0.946   8.633
 1028SOL     OW 3763   1.218   0.328   7.896
 1028SOL    HW1 3764   1.283   0.259   7.886
 1028SOL    HW2 3765   1.245   0.375   7.975
 1029SOL     OW 3766   0.588   0.739   8.117
 1029SOL    HW1 3767   0.629   0.824   8.101
 1029SOL    HW2 3768   0.519   0.733   8.051
 1030SOL     OW 3769   1.765   0.362   9.091
 1030SOL    HW1 3770   1.748   0.376   8.998
 1030SOL    HW2 3771   1.686   0.318   9.123
 1031SOL     OW 3772   1.744   0.933   8.961
 1031SOL    HW1 3773   1.745   1.028   8.974
 1031SOL    HW2 3774   1.729   0.923   8.867
 1032SOL     OW 3775   0.863   1.368   7.479
 1032SOL    HW1 3776   0.823   1.394   7.562
 1032SOL    HW2 3777   0.881   1.451   7.434
 1033SOL     OW 3778   0.659   1.794   8.396
 1033SOL    HW1 3779   0.638   1.883   8.370
 1033SOL    HW2 3780   0.754   1.788   8.387
 1034SOL     OW 3781   0.867   0.966   8.303
 1034SOL    HW1 3782   0.917   0.895   8.343
 1034SOL    HW2 3783   0.833   1.016   8.378
 1035SOL     OW 3784   1.080   0.988   7.537
 1035SOL    HW1 3785   1.058   1.038   7.458
 1035SOL    HW2 3786   1.155   0.935   7.511
 1036SOL     OW 3787   1.857   1.554   8.292
 1036SOL    HW1 3788   1.778   1.546   8.239
 1036SOL    HW2 3789   1.845   1.492   8.363
 1037SOL     OW 3790   0.229   1.307   9.305
 1037SOL    HW1 3791   0.158   1.246   9.281
 1037SOL    HW2 3792   0.221   1.316   9.400
 1038SOL     OW 3793   0.103   1.238   8.115
 1038SOL    HW1 3794   0.110   1.188   8.196
 1038SOL    HW2 3795   0.163   1.195   8.055
 1039SOL     OW 3796   0.681   1.401   9.075
 1039SOL    HW1 3797   0.601   1.357   9.103
 1039SOL    HW2 3798   0.675   1.489   9.112
 1040SOL     OW 3799   1.811   0.183   8.687
 1040SOL    HW1 3800   1.808   0.090   8.708
 1040SOL    HW2 3801   1.826   0.186   8.592
 1041SOL     OW 3802   0.439   0.431   7.978
 1041SOL    HW1 3803   0.458   0.361   7.916
 1041SOL    HW2 3804   0.381   0.391   8.043
 1042SOL     OW 3805   1.704   1.487   8.542
 1042SOL    HW1 3806   1.620   1.464   8.502
 1042SOL    HW2 3807   1.717   1.422   8.611
 1043SOL     OW 3808   0.312   0.504   8.704
 1043SOL    HW1 3809   0.384   0.456   8.745
 1043SOL    HW2 3810   0.339   0.513   8.613
 1044SOL     OW 3811   0.826   1.578   8.127
 1044SOL    HW1 3812   0.818   1.626   8.045
 1044SOL    HW2 3813   0.748   1.523   8.131
 1045SOL     OW 3814   1.432   0.215   8.566
 1045SOL    HW1 3815   1.468   0.145   8.620
 1045SOL    HW2 3816   1.381   0.269   8.627
 1046SOL     OW 3817   0.997   0.011   8.597
 1046SOL    HW1 3818   0.952   4.427   8.587
 1046SOL    HW2 3819   1.089   4.487   8.609
 1047SOL     OW 3820   0.772   1.332   7.759
 1047SOL    HW1 3821   0.739   1.242   7.766
 1047SOL    HW2 3822   0.854   1.331   7.808
 1048SOL     OW 3823   0.621   1.558   8.732
 1048SOL    HW1 3824   0.623   1.639   8.783
 1048SOL    HW2 3825   0.708   1.550   8.694
 1049SOL     OW 3826   1.342   0.053   7.600
 1049SOL    HW1 3827   1.381   4.478   7.556
 1049SOL    HW2 3828   1.266   0.017   7.647
 1050SOL     OW 3829   1.314   0.462   8.127
 1050SOL    HW1 3830   1.253   0.536   8.128
 1050SOL    HW2 3831   1.302   0.420   8.212
 1051SOL     OW 3832   1.586   0.202   8.316
 1051SOL    HW1 3833   1.525   0.216   8.388
 1051SOL    HW2 3834   1.588   0.286   8.269
 1052SOL     OW 3835   0.041   1.053   7.735
 1052SOL    HW1 3836   0.136   1.040   7.727
 1052SOL    HW2 3837   0.019   1.015   7.820
 1053SOL     OW 3838   0.882   1.650   7.792
 1053SOL    HW1 3839   0.811   1.632   7.731
 1053SOL    HW2 3840   0.853   1.726   7.842
 1054SOL     OW 3841   0.247   0.627   9.429
 1054SOL    HW1 3842   0.172   0.610   9.486
 1054SOL    HW2 3843   0.215   0.610   9.341
 1055SOL     OW 3844   0.198   0.292  10.300
 1055SOL    HW1 3845   0.234   0.269  10.386
 1055SOL    HW2 3846   0.134   0.223  10.282
 1056SOL     OW 3847   0.006   0.379   9.952
 1056SOL    HW1 3848   4.427   0.415   9.991
 1056SOL    HW2 3849   4.474   0.307   9.897
 1057SOL     OW 3850   0.567   1.284  10.484
 1057SOL    HW1 3851   0.480   1.288  10.445
 1057SOL    HW2 3852   0.582   1.372  10.518
 1058SOL     OW 3853   1.558   1.512  10.016
 1058SOL    HW1 3854   1.515   1.493  10.099
 1058SOL    HW2 3855   1.487   1.517   9.952
 1059SOL     OW 3856   1.132   0.699  10.011
 1059SOL    HW1 3857   1.180   0.782  10.000
 1059SOL    HW2 3858   1.083   0.711  10.092
 1060SOL     OW 3859   1.765   0.608   9.539
 1060SOL    HW1 3860   1.746   0.598   9.446
 1060SOL    HW2 3861   1.733   0.528   9.580
 1061SOL     OW 3862   0.759   1.144  10.349
 1061SOL    HW1 3863   0.688   1.178  10.405
 1061SOL    HW2 3864   0.792   1.221  10.303
 1062SOL     OW 3865   0.851   0.780   0.021
 1062SOL    HW1 3866   0.859   0.837   0.097
 1062SOL    HW2 3867   0.884   0.832  11.048
 1063SOL     OW 3868   0.686   1.006   9.958
 1063SOL    HW1 3869   0.750   0.992  10.028
 1063SOL    HW2 3870   0.616   1.056  10.001
 1064SOL     OW 3871   0.337   1.422  10.379
 1064SOL    HW1 3872   0.255   1.403  10.333
 1064SOL    HW2 3873   0.387   1.477  10.318
 1065SOL     OW 3874   1.463   1.500  10.657
 1065SOL    HW1 3875   1.516   1.580  10.667
 1065SOL    HW2 3876   1.415   1.493  10.740
 1066SOL     OW 3877   0.441   0.392  10.787
 1066SOL    HW1 3878   0.528   0.353  10.794
 1066SOL    HW2 3879   0.385   0.337  10.842
 1067SOL     OW 3880   1.612   0.448  10.048
 1067SOL    HW1 3881   1.532   0.471  10.001
 1067SOL    HW2 3882   1.633   0.525  10.100
 1068SOL     OW 3883   0.245   1.692   9.788
 1068SOL    HW1 3884   0.232   1.776   9.831
 1068SOL    HW2 3885   0.310   1.709   9.720
 1069SOL     OW 3886   0.245   1.427   9.838
 1069SOL    HW1 3887   0.237   1.523   9.842
 1069SOL    HW2 3888   0.181   1.395   9.901
 1070SOL     OW 3889   0.245   1.081  10.193
 1070SOL    HW1 3890   0.263   0.993  10.225
 1070SOL    HW2 3891   0.187   1.120  10.259
 1071SOL     OW 3892   0.614   1.790  10.740
 1071SOL    HW1 3893   0.533   1.771  10.787
 1071SOL    HW2 3894   0.636   1.880  10.764
 1072SOL     OW 3895   0.582   0.984   9.446
 1072SOL    HW1 3896   0.628   1.030   9.375
 1072SOL    HW2 3897   0.628   1.012   9.526
 1073SOL     OW 3898   1.555   0.134  10.782
 1073SOL    HW1 3899   1.602   0.192  10.722
 1073SOL    HW2 3900   1.611   0.129  10.860
 1074SOL     OW 3901   0.135   0.643   9.884
 1074SOL    HW1 3902   0.083   0.564   9.900
 1074SOL    HW2 3903   0.107   0.704   9.952
 1075SOL     OW 3904   1.840   1.761   9.645
 1075SOL    HW1 3905   1.901   1.730   9.712
 1075SOL    HW2 3906   1.867   1.851   9.627
 1076SOL     OW 3907   0.033   1.601   9.447
 1076SOL    HW1 3908   0.021   1.506   9.447
 1076SOL    HW2 3909   0.014   1.628   9.537
 1077SOL     OW 3910   1.691   0.920   9.949
 1077SOL    HW1 3911   1.775   0.879   9.928
 1077SOL    HW2 3912   1.669   0.969   9.870
 1078SOL     OW 3913   1.645   1.108   9.739
 1078SOL    HW1 3914   1.730   1.116   9.697
 1078SOL    HW2 3915   1.650   1.168   9.814
 1079SOL     OW 3916   0.097   0.758  10.911
 1079SOL    HW1 3917   0.189   0.742  10.891
 1079SOL    HW2 3918   0.087   0.853  10.902
 1080SOL     OW 3919   0.613   1.383  10.046
 1080SOL    HW1 3920   0.566   1.300  10.055
 1080SOL    HW2 3921   0.597   1.410   9.955
 1081SOL     OW 3922   1.296   1.237  10.751
 1081SOL    HW1 3923   1.321   1.177  10.681
 1081SOL    HW2 3924   1.352   1.213  10.825
 1082SOL     OW 3925   0.818   0.012   9.858
 1082SOL    HW1 3926   0.852   0.098   9.834
 1082SOL    HW2 3927   0.723   0.019   9.848
 1083SOL     OW 3928   0.181   0.942  10.589
 1083SOL    HW1 3929   0.273   0.925  10.568
 1083SOL    HW2 3930   0.133   0.921  10.509
 1084SOL     OW 3931   1.532   0.991   9.507
 1084SOL    HW1 3932   1.461   0.934   9.538
 1084SOL    HW2 3933   1.571   1.026   9.587
 1085SOL     OW 3934   1.195   1.805  10.926
 1085SOL    HW1 3935   1.197   1.867  10.854
 1085SOL    HW2 3936   1.203   1.719  10.885
 1086SOL     OW 3937   0.327   0.289  11.066
 1086SOL    HW1 3938   0.390   0.332   0.023
 1086SOL    HW2 3939   0.246   0.283   0.018
 1087SOL     OW 3940   1.466   1.419  10.262
 1087SOL    HW1 3941   1.397   1.435  10.327
 1087SOL    HW2 3942   1.454   1.328  10.235
 1088SOL     OW 3943   1.662   1.734   9.887
 1088SOL    HW1 3944   1.638   1.706   9.799
 1088SOL    HW2 3945   1.635   1.662   9.944
 1089SOL     OW 3946   0.596   0.723   9.575
 1089SOL    HW1 3947   0.601   0.804   9.523
 1089SOL    HW2 3948   0.530   0.741   9.642
 1090SOL     OW 3949   1.290   0.359  10.244
 1090SOL    HW1 3950   1.201   0.328  10.228
 1090SOL    HW2 3951   1.327   0.296  10.307
 1091SOL     OW 3952   1.581   1.668   9.619
 1091SOL    HW1 3953   1.670   1.703   9.612
 1091SOL    HW2 3954   1.555   1.651   9.528
 1092SOL     OW 3955   0.797   0.617  10.765
 1092SOL    HW1 3956   0.768   0.593  10.853
 1092SOL    HW2 3957   0.754   0.554  10.707
 1093SOL     OW 3958   0.966   0.898  10.900
 1093SOL    HW1 3959   1.014   0.825  10.861
 1093SOL    HW2 3960   0.916   0.935  10.827
 1094SOL     OW 3961   0.996   0.419  10.547
 1094SOL    HW1 3962   0.910   0.429  10.588
 1094SOL    HW2 3963   0.979   0.365  10.469
 1095SOL     OW 3964   1.049   0.698   9.738
 1095SOL    HW1 3965   1.065   0.691   9.832
 1095SOL    HW2 3966   0.967   0.651   9.723
 1096SOL     OW 3967   0.098   0.824  10.093
 1096SOL    HW1 3968   0.185   0.805  10.130
 1096SOL    HW2 3969   0.050   0.865  10.164
 1097SOL     OW 3970   0.118   1.851  10.900
 1097SOL    HW1 3971   0.116   1.790  10.973
 1097SOL    HW2 3972   0.051   1.818  10.839
 1098SOL     OW 3973   0.853   0.368   9.488
 1098SOL    HW1 3974   0.928   0.403   9.441
 1098SOL    HW2 3975   0.871   0.274   9.495
 1099SOL     OW 3976   1.376   1.143   9.852
 1099SOL    HW1 3977   1.454   1.129   9.799
 1099SOL    HW2 3978   1.323   1.205   9.801
 1100SOL     OW 3979   0.544   0.203  10.211
 1100SOL    HW1 3980   0.561   0.222  10.303
 1100SOL    HW2 3981   0.534   0.289  10.170
 1101SOL     OW 3982   1.008   1.445   9.783
 1101SOL    HW1 3983   0.968   1.517   9.734
 1101SOL    HW2 3984   0.992   1.468   9.875
 1102SOL     OW 3985   0.355   1.808  10.167
 1102SOL    HW1 3986   0.398   1.723  10.177
 1102SOL    HW2 3987   0.424   1.872  10.181
 1103SOL     OW 3988   1.799   1.059  10.177
 1103SOL    HW1 3989   1.742   1.042  10.101
 1103SOL    HW2 3990   1.738   1.064  10.251
 1104SOL     OW 3991   1.226   1.540  10.825
 1104SOL    HW1 3992   1.235   1.452  10.863
 1104SOL    HW2 3993   1.167   1.527  10.750
 1105SOL     OW 3994   0.317   0.954   9.560
 1105SOL    HW1 3995   0.402   0.977   9.521
 1105SOL    HW2 3996   0.300   0.865   9.531
 1106SOL     OW 3997   1.477   0.740  10.035
 1106SOL    HW1 3998   1.464   0.694  10.118
 1106SOL    HW2 3999   1.554   0.796  10.051
 1107SOL     OW 4000   0.455   1.268  11.052
 1107SOL    HW1 4001   0.427   1.278  10.961
 1107SOL    HW2 4002   0.386   1.216  11.093
 1108SOL     OW 4003   1.121   1.777   9.542
 1108SOL    HW1 4004   1.049   1.734   9.588
 1108SOL    HW2 4005   1.143   1.717   9.470
 1109SOL     OW 4006   0.167   0.261  10.819
 1109SOL    HW1 4007   0.140   0.350  10.796
 1109SOL    HW2 4008   0.205   0.268  10.906
 1110SOL     OW 4009   1.629   1.379   9.397
 1110SOL    HW1 4010   1.588   1.464   9.382
 1110SOL    HW2 4011   1.560   1.316   9.378
 1111SOL     OW 4012   0.469   1.743   9.625
 1111SOL    HW1 4013   0.509   1.796   9.693
 1111SOL    HW2 4014   0.543   1.711   9.573
 1112SOL     OW 4015   1.417   0.134   9.728
 1112SOL    HW1 4016   1.400   0.085   9.648
 1112SOL    HW2 4017   1.512   0.130   9.739
 1113SOL     OW 4018   0.254   1.790  10.547
 1113SOL    HW1 4019   0.305   1.720  10.586
 1113SOL    HW2 4020   0.230   1.757  10.460
 1114SOL     OW 4021   0.938   1.698  10.210
 1114SOL    HW1 4022   1.016   1.646  10.230
 1114SOL    HW2 4023   0.893   1.649  10.142
 1115SOL     OW 4024   0.393   0.694   9.784
 1115SOL    HW1 4025   0.418   0.603   9.795
 1115SOL    HW2 4026   0.300   0.697   9.810
 1116SOL     OW 4027   0.622   0.123   9.427
 1116SOL    HW1 4028   0.711   0.087   9.439
 1116SOL    HW2 4029   0.594   0.086   9.343
 1117SOL     OW 4030   0.769   0.271  11.043
 1117SOL    HW1 4031   0.830   0.205  11.075
 1117SOL    HW2 4032   0.712   0.289   0.017
 1118SOL     OW 4033   0.876   1.521  10.503
 1118SOL    HW1 4034   0.861   1.486  10.415
 1118SOL    HW2 4035   0.948   1.468  10.538
 1119SOL     OW 4036   1.344   0.589  10.752
 1119SOL    HW1 4037   1.393   0.571  10.833
 1119SOL    HW2 4038   1.371   0.678  10.728
 1120SOL     OW 4039   0.814   1.397  10.247
 1120SOL    HW1 4040   0.898   1.387  10.202
 1120SOL    HW2 4041   0.749   1.396  10.177
 1121SOL     OW 4042   0.922   0.516  10.211
 1121SOL    HW1 4043   0.906   0.514  10.117
 1121SOL    HW2 4044   0.962   0.431  10.231
 1122SOL     OW 4045   0.559   0.067   9.819
 1122SOL    HW1 4046   0.472   0.054   9.856
 1122SOL    HW2 4047   0.548   0.139   9.757
 1123SOL     OW 4048   1.428   1.198   9.351
 1123SOL    HW1 4049   1.459   1.122   9.401
 1123SOL    HW2 4050   1.343   1.218   9.388
 1124SOL     OW 4051   0.303   0.075   9.495
 1124SOL    HW1 4052   0.387   0.122   9.491
 1124SOL    HW2 4053   0.320   4.499   9.550
 1125SOL     OW 4054   0.951   0.240   9.782
 1125SOL    HW1 4055   0.899   0.290   9.719
 1125SOL    HW2 4056   1.039   0.276   9.773
 1126SOL     OW 4057   1.079   0.683  10.772
 1126SOL    HW1 4058   1.006   0.621  10.773
 1126SOL    HW2 4059   1.157   0.629  10.765
 1127SOL     OW 4060   1.224   1.570  10.104
 1127SOL    HW1 4061   1.242   1.637  10.038
 1127SOL    HW2 4062   1.292   1.582  10.170
 1128SOL     OW 4063   0.465   1.148  10.047
 1128SOL    HW1 4064   0.393   1.129  10.108
 1128SOL    HW2 4065   0.428   1.132   9.961
 1129SOL     OW 4066   1.271   1.795   9.916
 1129SOL    HW1 4067   1.315   1.856   9.857
 1129SOL    HW2 4068   1.206   1.848   9.962
 1130SOL     OW 4069   1.030   0.549   9.325
 1130SOL    HW1 4070   0.982   0.630   9.310
 1130SOL    HW2 4071   1.089   0.569   9.398
 1131SOL     OW 4072   0.085   0.523  10.721
 1131SOL    HW1 4073   0.151   0.533  10.653
 1131SOL    HW2 4074   0.065   0.613  10.748
 1132SOL     OW 4075   0.562   0.244  10.476
 1132SOL    HW1 4076   0.591   0.157  10.503
 1132SOL    HW2 4077   0.469   0.247  10.498
 1133SOL     OW 4078   0.866   0.502   9.936
 1133SOL    HW1 4079   0.816   0.544   9.866
 1133SOL    HW2 4080   0.845   0.409   9.928
 1134SOL     OW 4081   0.969   0.030  10.087
 1134SOL    HW1 4082   0.919   0.026  10.005
 1134SOL    HW2 4083   0.979   4.438  10.113
 1135SOL     OW 4084   1.435   1.163  10.168
 1135SOL    HW1 4085   1.368   1.095  10.166
 1135SOL    HW2 4086   1.459   1.176  10.076
 1136SOL     OW 4087   1.467   0.603  10.288
 1136SOL    HW1 4088   1.415   0.523  10.290
 1136SOL    HW2 4089   1.526   0.597  10.363
 1137SOL     OW 4090   1.847   0.818   9.692
 1137SOL    HW1 4091   1.903   0.766   9.750
 1137SOL    HW2 4092   1.818   0.757   9.625
 1138SOL     OW 4093   0.492   1.415   9.471
 1138SOL    HW1 4094   0.416   1.385   9.521
 1138SOL    HW2 4095   0.472   1.392   9.380
 1139SOL     OW 4096   1.669   1.265   9.958
 1139SOL    HW1 4097   1.763   1.270   9.971
 1139SOL    HW2 4098   1.637   1.353   9.979
 1140SOL     OW 4099   1.394   0.570   9.380
 1140SOL    HW1 4100   1.333   0.554   9.452
 1140SOL    HW2 4101   1.480   0.550   9.416
 1141SOL     OW 4102   0.523   0.264   9.632
 1141SOL    HW1 4103   0.569   0.214   9.565
 1141SOL    HW2 4104   0.508   0.350   9.592
 1142SOL     OW 4105   1.760   1.229  10.873
 1142SOL    HW1 4106   1.851   1.200  10.876
 1142SOL    HW2 4107   1.761   1.316  10.912
 1143SOL     OW 4108   1.065   1.354  10.650
 1143SOL    HW1 4109   0.987   1.321  10.694
 1143SOL    HW2 4110   1.137   1.306  10.690
 1144SOL     OW 4111   1.127   1.204  10.417
 1144SOL    HW1 4112   1.063   1.240  10.479
 1144SOL    HW2 4113   1.095   1.232  10.331
 1145SOL     OW 4114   1.631   1.100  10.388
 1145SOL    HW1 4115   1.627   1.162  10.461
 1145SOL    HW2 4116   1.550   1.116  10.339
 1146SOL     OW 4117   0.900   0.127  10.698
 1146SOL    HW1 4118   0.927   0.087  10.616
 1146SOL    HW2 4119   0.981   0.142  10.746
 1147SOL     OW 4120   0.708   1.060   9.683
 1147SOL    HW1 4121   0.696   1.046   9.776
 1147SOL    HW2 4122   0.784   1.007   9.660
 1148SOL     OW 4123   0.428   0.823  10.550
 1148SOL    HW1 4124   0.496   0.832  10.616
 1148SOL    HW2 4125   0.369   0.757  10.585
 1149SOL     OW 4126   1.270   0.381  10.581
 1149SOL    HW1 4127   1.300   0.459  10.628
 1149SOL    HW2 4128   1.182   0.403  10.552
 1150SOL     OW 4129   0.062   1.578  10.654
 1150SOL    HW1 4130   0.037   1.663  10.620
 1150SOL    HW2 4131   0.158   1.580  10.656
 1151SOL     OW 4132   0.350   1.107   9.804
 1151SOL    HW1 4133   0.359   1.180   9.743
 1151SOL    HW2 4134   0.352   1.029   9.748
 1152SOL     OW 4135   0.564   0.528  10.164
 1152SOL    HW1 4136   0.577   0.589  10.092
 1152SOL    HW2 4137   0.622   0.561  10.233
 1153SOL     OW 4138   1.248   1.348   9.699
 1153SOL    HW1 4139   1.303   1.420   9.730
 1153SOL    HW2 4140   1.161   1.369   9.733
 1154SOL     OW 4141   1.277   1.457  10.454
 1154SOL    HW1 4142   1.333   1.460  10.532
 1154SOL    HW2 4143   1.224   1.378  10.466
 1155SOL     OW 4144   1.583   0.624   9.786
 1155SOL    HW1 4145   1.538   0.677   9.851
 1155SOL    HW2 4146   1.627   0.688   9.730
 1156SOL     OW 4147   0.347   1.526  10.626
 1156SOL    HW1 4148   0.334   1.481  10.543
 1156SOL    HW2 4149   0.441   1.539  10.632
 1157SOL     OW 4150   0.484   0.748  10.969
 1157SOL    HW1 4151   0.515   0.786  10.886
 1157SOL    HW2 4152   0.516   0.658  10.967
 1158SOL     OW 4153   1.592   0.761  10.970
 1158SOL    HW1 4154   1.515   0.818  10.965
 1158SOL    HW2 4155   1.661   0.811  10.926
 1159SOL     OW 4156   0.588   0.874  10.334
 1159SOL    HW1 4157   0.616   0.965  10.336
 1159SOL    HW2 4158   0.532   0.864  10.411
 1160SOL     OW 4159   1.360   0.860  10.345
 1160SOL    HW1 4160   1.279   0.853  10.295
 1160SOL    HW2 4161   1.399   0.773  10.340
 1161SOL     OW 4162   1.206   0.535   9.575
 1161SOL    HW1 4163   1.212   0.454   9.627
 1161SOL    HW2 4164   1.163   0.597   9.634
 1162SOL     OW 4165   0.286   0.218  10.545
 1162SOL    HW1 4166   0.254   0.235  10.634
 1162SOL    HW2 4167   0.317   0.127  10.549
 1163SOL     OW 4168   0.046   1.315  10.594
 1163SOL    HW1 4169   0.077   1.266  10.670
 1163SOL    HW2 4170   0.047   1.406  10.622
 1164SOL     OW 4171   0.725   0.632  10.370
 1164SOL    HW1 4172   0.798   0.611  10.311
 1164SOL    HW2 4173   0.699   0.721  10.344
 1165SOL     OW 4174   0.318   0.075   9.941
 1165SOL    HW1 4175   0.301   0.163   9.975
 1165SOL    HW2 4176   0.306   0.018  10.017
 1166SOL     OW 4177   1.612   0.375   9.675
 1166SOL    HW1 4178   1.642   0.313   9.741
 1166SOL    HW2 4179   1.590   0.454   9.726
 1167SOL     OW 4180   1.028   0.761  10.272
 1167SOL    HW1 4181   1.026   0.777  10.366
 1167SOL    HW2 4182   0.999   0.670  10.263
 1168SOL     OW 4183   0.974   1.572  11.004
 1168SOL    HW1 4184   0.960   1.621  10.924
 1168SOL    HW2 4185   1.006   1.487  10.975
 1169SOL     OW 4186   1.860   1.495  10.911
 1169SOL    HW1 4187   1.872   1.530  10.823
 1169SOL    HW2 4188   1.925   1.540  10.964
 1170SOL     OW 4189   0.348   0.933  11.096
 1170SOL    HW1 4190   0.423   0.961   0.048
 1170SOL    HW2 4191   0.382   0.861  11.043
 1171SOL     OW 4192   1.532   0.267   9.438
 1171SOL    HW1 4193   1.460   0.210   9.466
 1171SOL    HW2 4194   1.560   0.311   9.518
 1172SOL     OW 4195   1.294   0.827   9.342
 1172SOL    HW1 4196   1.336   0.741   9.344
 1172SOL    HW2 4197   1.324   0.866   9.260
 1173SOL     OW 4198   1.066   1.334  10.163
 1173SOL    HW1 4199   1.068   1.262  10.101
 1173SOL    HW2 4200   1.128   1.398  10.128
 1174SOL     OW 4201   0.317   0.813  10.259
 1174SOL    HW1 4202   0.411   0.830  10.255
 1174SOL    HW2 4203   0.311   0.722  10.290
 1175SOL     OW 4204   0.336   0.528  10.303
 1175SOL    HW1 4205   0.292   0.446  10.285
 1175SOL    HW2 4206   0.413   0.527  10.246
 1176SOL     OW 4207   1.153   0.217  10.771
 1176SOL    HW1 4208   1.167   0.268  10.850
 1176SOL    HW2 4209   1.192   0.270  10.701
 1177SOL     OW 4210   4.492   1.323   9.512
 1177SOL    HW1 4211   4.399   1.338   9.495
 1177SOL    HW2 4212   4.497   1.230   9.535
 1178SOL     OW 4213   0.095   1.779  10.249
 1178SOL    HW1 4214   0.058   1.721  10.183
 1178SOL    HW2 4215   0.183   1.800  10.217
 1179SOL     OW 4216   0.498   1.573  10.216
 1179SOL    HW1 4217   0.566   1.636  10.240
 1179SOL    HW2 4218   0.543   1.509  10.161
 1180SOL     OW 4219   0.987   0.796  10.539
 1180SOL    HW1 4220   1.039   0.771  10.615
 1180SOL    HW2 4221   0.901   0.757  10.555
 1181SOL     OW 4222   0.036   0.564  10.418
 1181SOL    HW1 4223   0.115   0.523  10.381
 1181SOL    HW2 4224   0.026   0.522  10.503
 1182SOL     OW 4225   0.812   0.573   9.663
 1182SOL    HW1 4226   0.814   0.501   9.600
 1182SOL    HW2 4227   0.738   0.627   9.635
 1183SOL     OW 4228   1.642   0.601  10.498
 1183SOL    HW1 4229   1.632   0.542  10.572
 1183SOL    HW2 4230   1.729   0.582  10.463
 1184SOL     OW 4231   0.263   1.572  11.057
 1184SOL    HW1 4232   0.211   1.601   0.031
 1184SOL    HW2 4233   0.244   1.479  11.048
 1185SOL     OW 4234   0.690   0.462  10.577
 1185SOL    HW1 4235   0.647   0.383  10.543
 1185SOL    HW2 4236   0.694   0.521  10.502
 1186SOL     OW 4237   0.941   1.682  10.760
 1186SOL    HW1 4238   0.902   1.651  10.678
 1186SOL    HW2 4239   0.927   1.777  10.758
 1187SOL     OW 4240   0.473   0.491   9.495
 1187SOL    HW1 4241   0.532   0.563   9.517
 1187SOL    HW2 4242   0.388   0.533   9.481
 1188SOL     OW 4243   0.162   1.141  10.771
 1188SOL    HW1 4244   0.140   1.098  10.853
 1188SOL    HW2 4245   0.169   1.070  10.707
 1189SOL     OW 4246   1.326   1.053  10.538
 1189SOL    HW1 4247   1.353   0.988  10.473
 1189SOL    HW2 4248   1.255   1.101  10.496
 1190SOL     OW 4249   1.310   0.856   9.617
 1190SOL    HW1 4250   1.233   0.827   9.667
 1190SOL    HW2 4251   1.285   0.843   9.525
 1191SOL     OW 4252   1.765   1.747  10.458
 1191SOL    HW1 4253   1.827   1.774  10.391
 1191SOL    HW2 4254   1.745   1.656  10.438
 1192SOL     OW 4255   1.241   1.733  10.425
 1192SOL    HW1 4256   1.323   1.753  10.380
 1192SOL    HW2 4257   1.245   1.639  10.442
 1193SOL     OW 4258   0.067   1.187  10.359
 1193SOL    HW1 4259   0.072   1.221  10.448
 1193SOL    HW2 4260   0.014   1.251  10.311
 1194SOL     OW 4261   1.718   0.130   9.806
 1194SOL    HW1 4262   1.791   0.136   9.745
 1194SOL    HW2 4263   1.740   0.056   9.863
 1195SOL     OW 4264   1.390   1.568   9.793
 1195SOL    HW1 4265   1.450   1.599   9.726
 1195SOL    HW2 4266   1.342   1.646   9.821
 1196SOL     OW 4267   1.278   0.926   9.983
 1196SOL    HW1 4268   1.351   0.864   9.986
 1196SOL    HW2 4269   1.312   0.999   9.930
 1197SOL     OW 4270   0.821   1.273  10.739
 1197SOL    HW1 4271   0.791   1.307  10.823
 1197SOL    HW2 4272   0.750   1.294  10.678
 1198SOL     OW 4273   0.673   1.617   9.465
 1198SOL    HW1 4274   0.681   1.628   9.371
 1198SOL    HW2 4275   0.619   1.539   9.475
 1199SOL     OW 4276   1.625   1.720  10.699
 1199SOL    HW1 4277   1.678   1.734  10.620
 1199SOL    HW2 4278   1.610   1.807  10.735
 1200SOL     OW 4279   1.839   0.156  10.277
 1200SOL    HW1 4280   1.868   0.078  10.228
 1200SOL    HW2 4281   1.752   0.175  10.241
 1201SOL     OW 4282   0.266   0.325  10.034
 1201SOL    HW1 4283   0.183   0.360  10.001
 1201SOL    HW2 4284   0.251   0.317  10.129
 1202SOL     OW 4285   1.206   1.607   9.341
 1202SOL    HW1 4286   1.198   1.516   9.368
 1202SOL    HW2 4287   1.141   1.618   9.271
 1203SOL     OW 4288   0.825   1.006  10.685
 1203SOL    HW1 4289   0.868   1.000  10.599
 1203SOL    HW2 4290   0.827   1.099  10.706
 1204SOL     OW 4291   0.915   0.910   9.599
 1204SOL    HW1 4292   0.977   0.942   9.534
 1204SOL    HW2 4293   0.962   0.840   9.644
 1205SOL     OW 4294   1.494   1.624   9.352
 1205SOL    HW1 4295   1.399   1.620   9.340
 1205SOL    HW2 4296   1.530   1.630   9.263
 1206SOL     OW 4297   0.369   1.308  10.805
 1206SOL    HW1 4298   0.356   1.384  10.748
 1206SOL    HW2 4299   0.296   1.250  10.785
 1207SOL     OW 4300   1.613   1.283  10.593
 1207SOL    HW1 4301   1.670   1.272  10.669
 1207SOL    HW2 4302   1.555   1.356  10.615
 1208SOL     OW 4303   1.049   1.106  10.015
 1208SOL    HW1 4304   0.979   1.055  10.055
 1208SOL    HW2 4305   1.111   1.040   9.982
 1209SOL     OW 4306   1.007   0.242  10.309
 1209SOL    HW1 4307   1.013   0.215  10.218
 1209SOL    HW2 4308   1.000   0.160  10.358
 1210SOL     OW 4309   0.603   1.489   9.793
 1210SOL    HW1 4310   0.643   1.439   9.722
 1210SOL    HW2 4311   0.532   1.538   9.751
 1211SOL     OW 4312   1.717   0.394  10.689
 1211SOL    HW1 4313   1.790   0.457  10.690
 1211SOL    HW2 4314   1.747   0.324  10.631
 1212SOL     OW 4315   0.252   1.345   9.587
 1212SOL    HW1 4316   0.157   1.345   9.573
 1212SOL    HW2 4317   0.263   1.377   9.677
 1213SOL     OW 4318   0.110   1.018  11.005
 1213SOL    HW1 4319   0.051   1.020  11.080
 1213SOL    HW2 4320   0.196   1.000  11.043
 1214SOL     OW 4321   0.656   0.198  10.803
 1214SOL    HW1 4322   0.735   0.173  10.755
 1214SOL    HW2 4323   0.688   0.225  10.889
 1215SOL     OW 4324   0.071   0.321   9.336
 1215SOL    HW1 4325   4.476   0.329   9.347
 1215SOL    HW2 4326   0.099   0.407   9.305
 1216SOL     OW 4327   1.430   0.849  10.709
 1216SOL    HW1 4328   1.382   0.916  10.661
 1216SOL    HW2 4329   1.521   0.859  10.680
 1217SOL     OW 4330   0.084   0.188   9.613
 1217SOL    HW1 4331   0.079   0.260   9.550
 1217SOL    HW2 4332   0.162   0.139   9.588
 1218SOL     OW 4333   1.180   1.341   9.427
 1218SOL    HW1 4334   1.089   1.311   9.430
 1218SOL    HW2 4335   1.208   1.341   9.518
 1219SOL     OW 4336   0.622   0.829  10.738
 1219SOL    HW1 4337   0.676   0.907  10.725
 1219SOL    HW2 4338   0.685   0.758  10.747
 1220SOL     OW 4339   1.485   1.775  10.286
 1220SOL    HW1 4340   1.511   1.834  10.215
 1220SOL    HW2 4341   1.566   1.760  10.335
 1221SOL     OW 4342   0.714   0.562  11.015
 1221SOL    HW1 4343   0.746   0.634  11.069
 1221SOL    HW2 4344   0.765   0.486  11.044
 1222SOL     OW 4345   0.384   1.736  10.870
 1222SOL    HW1 4346   0.307   1.793  10.865
 1222SOL    HW2 4347   0.357   1.665  10.929
 1223SOL     OW 4348   1.673   0.883  10.567
 1223SOL    HW1 4349   1.662   0.798  10.524
 1223SOL    HW2 4350   1.663   0.946  10.496
 1224SOL     OW 4351   1.218   0.328   9.758
 1224SOL    HW1 4352   1.283   0.259   9.748
 1224SOL    HW2 4353   1.245   0.375   9.837
 1225SOL     OW 4354   0.588   0.739   9.979
 1225SOL    HW1 4355   0.629   0.824   9.962
 1225SOL    HW2 4356   0.519   0.732   9.913
 1226SOL     OW 4357   1.754   0.315  10.949
 1226SOL    HW1 4358   1.735   0.355  10.865
 1226SOL    HW2 4359   1.675   0.331  11.001
 1227SOL     OW 4360   1.748   0.935  10.825
 1227SOL    HW1 4361   1.742   1.030  10.839
 1227SOL    HW2 4362   1.731   0.924  10.732
 1228SOL     OW 4363   0.863   1.368   9.341
 1228SOL    HW1 4364   0.823   1.395   9.424
 1228SOL    HW2 4365   0.882   1.450   9.296
 1229SOL     OW 4366   0.660   1.793  10.258
 1229SOL    HW1 4367   0.638   1.883  10.233
 1229SOL    HW2 4368   0.755   1.788  10.248
 1230SOL     OW 4369   0.867   0.966  10.165
 1230SOL    HW1 4370   0.916   0.894  10.205
 1230SOL    HW2 4371   0.833   1.016  10.240
 1231SOL     OW 4372   1.080   0.988   9.399
 1231SOL    HW1 4373   1.058   1.038   9.321
 1231SOL    HW2 4374   1.155   0.935   9.373
 1232SOL     OW 4375   1.857   1.555  10.154
 1232SOL    HW1 4376   1.779   1.545  10.101
 1232SOL    HW2 4377   1.847   1.491  10.224
 1233SOL     OW 4378   0.103   1.238   9.977
 1233SOL    HW1 4379   0.110   1.188  10.058
 1233SOL    HW2 4380   0.163   1.195   9.917
 1234SOL     OW 4381   0.679   1.394  10.936
 1234SOL    HW1 4382   0.606   1.344  10.972
 1234SOL    HW2 4383   0.649   1.485  10.938
 1235SOL     OW 4384   1.805   0.181  10.549
 1235SOL    HW1 4385   1.815   0.089  10.570
 1235SOL    HW2 4386   1.822   0.187  10.455
 1236SOL     OW 4387   0.438   0.431   9.839
 1236SOL    HW1 4388   0.458   0.361   9.778
 1236SOL    HW2 4389   0.381   0.391   9.905
 1237SOL     OW 4390   1.703   1.490  10.406
 1237SOL    HW1 4391   1.621   1.464  10.365
 1237SOL    HW2 4392   1.718   1.423  10.474
 1238SOL     OW 4393   0.307   0.505  10.568
 1238SOL    HW1 4394   0.375   0.456  10.614
 1238SOL    HW2 4395   0.340   0.511  10.478
 1239SOL     OW 4396   0.826   1.578   9.989
 1239SOL    HW1 4397   0.818   1.626   9.907
 1239SOL    HW2 4398   0.748   1.523   9.992
 1240SOL     OW 4399   1.431   0.214  10.429
 1240SOL    HW1 4400   1.471   0.147  10.484
 1240SOL    HW2 4401   1.382   0.269  10.490
 1241SOL     OW 4402   0.996   0.011  10.458
 1241SOL    HW1 4403   0.951   4.427  10.448
 1241SOL    HW2 4404   1.088   4.488  10.473
 1242SOL     OW 4405   0.771   1.332   9.621
 1242SOL    HW1 4406   0.739   1.242   9.628
 1242SOL    HW2 4407   0.854   1.331   9.670
 1243SOL     OW 4408   0.620   1.557  10.596
 1243SOL    HW1 4409   0.621   1.639  10.644
 1243SOL    HW2 4410   0.707   1.551  10.556
 1244SOL     OW 4411   1.342   0.053   9.462
 1244SOL    HW1 4412   1.381   4.478   9.418
 1244SOL    HW2 4413   1.266   0.017   9.509
 1245SOL     OW 4414   1.314   0.462   9.989
 1245SOL    HW1 4415   1.253   0.536   9.990
 1245SOL    HW2 4416   1.302   0.420  10.074
 1246SOL     OW 4417   1.586   0.202  10.178
 1246SOL    HW1 4418   1.525   0.216  10.250
 1246SOL    HW2 4419   1.588   0.286  10.132
 1247SOL     OW 4420   0.041   1.053   9.597
 1247SOL    HW1 4421   0.136   1.040   9.589
 1247SOL    HW2 4422   0.019   1.015   9.682
 1248SOL     OW 4423   0.882   1.650   9.654
 1248SOL    HW1 4424   0.811   1.632   9.593
 1248SOL    HW2 4425   0.852   1.726   9.704
 1249SOL     OW 4426   0.243   2.460   0.108
 1249SOL    HW1 4427   0.170   2.460   0.170
 1249SOL    HW2 4428   0.206   2.496   0.027
 1250SOL     OW 4429   0.213   2.138   0.992
 1250SOL    HW1 4430   0.250   2.111   1.076
 1250SOL    HW2 4431   0.137   2.080   0.980
 1251SOL     OW 4432   0.009   2.250   0.638
 1251SOL    HW1 4433   4.429   2.280   0.681
 1251SOL    HW2 4434   4.485   2.168   0.596
 1252SOL     OW 4435   0.567   3.145   1.173
 1252SOL    HW1 4436   0.479   3.150   1.135
 1252SOL    HW2 4437   0.582   3.233   1.208
 1253SOL     OW 4438   1.558   3.373   0.706
 1253SOL    HW1 4439   1.514   3.354   0.789
 1253SOL    HW2 4440   1.487   3.378   0.641
 1254SOL     OW 4441   1.129   2.561   0.703
 1254SOL    HW1 4442   1.180   2.641   0.689
 1254SOL    HW2 4443   1.083   2.576   0.785
 1255SOL     OW 4444   1.769   2.467   0.226
 1255SOL    HW1 4445   1.735   2.460   0.137
 1255SOL    HW2 4446   1.733   2.391   0.271
 1256SOL     OW 4447   0.758   3.006   1.038
 1256SOL    HW1 4448   0.688   3.039   1.094
 1256SOL    HW2 4449   0.792   3.083   0.993
 1257SOL     OW 4450   0.864   2.640   1.821
 1257SOL    HW1 4451   0.850   2.712   1.883
 1257SOL    HW2 4452   0.887   2.684   1.739
 1258SOL     OW 4453   0.686   2.868   0.648
 1258SOL    HW1 4454   0.750   2.854   0.718
 1258SOL    HW2 4455   0.616   2.918   0.691
 1259SOL     OW 4456   0.709   3.013   1.810
 1259SOL    HW1 4457   0.756   3.093   1.835
 1259SOL    HW2 4458   0.625   3.044   1.776
 1260SOL     OW 4459   0.336   3.285   1.070
 1260SOL    HW1 4460   0.255   3.266   1.023
 1260SOL    HW2 4461   0.386   3.339   1.009
 1261SOL     OW 4462   1.461   3.360   1.351
 1261SOL    HW1 4463   1.507   3.444   1.362
 1261SOL    HW2 4464   1.404   3.354   1.428
 1262SOL     OW 4465   0.443   2.266   1.495
 1262SOL    HW1 4466   0.523   2.214   1.498
 1262SOL    HW2 4467   0.372   2.202   1.498
 1263SOL     OW 4468   1.612   2.310   0.742
 1263SOL    HW1 4469   1.537   2.335   0.687
 1263SOL    HW2 4470   1.632   2.389   0.791
 1264SOL     OW 4471   0.245   3.553   0.483
 1264SOL    HW1 4472   0.233   3.640   0.522
 1264SOL    HW2 4473   0.301   3.569   0.407
 1265SOL     OW 4474   1.136   3.203   1.691
 1265SOL    HW1 4475   1.175   3.199   1.778
 1265SOL    HW2 4476   1.083   3.123   1.686
 1266SOL     OW 4477   0.243   3.289   0.529
 1266SOL    HW1 4478   0.238   3.385   0.531
 1266SOL    HW2 4479   0.177   3.261   0.592
 1267SOL     OW 4480   0.245   2.944   0.883
 1267SOL    HW1 4481   0.263   2.855   0.915
 1267SOL    HW2 4482   0.187   2.982   0.948
 1268SOL     OW 4483   0.616   3.652   1.433
 1268SOL    HW1 4484   0.532   3.635   1.475
 1268SOL    HW2 4485   0.636   3.743   1.456
 1269SOL     OW 4486   0.576   2.854   0.145
 1269SOL    HW1 4487   0.621   2.898   0.073
 1269SOL    HW2 4488   0.626   2.877   0.223
 1270SOL     OW 4489   1.591   1.983   1.469
 1270SOL    HW1 4490   1.601   2.062   1.415
 1270SOL    HW2 4491   1.584   2.015   1.558
 1271SOL     OW 4492   0.136   2.507   0.574
 1271SOL    HW1 4493   0.087   2.426   0.589
 1271SOL    HW2 4494   0.106   2.566   0.643
 1272SOL     OW 4495   1.842   3.623   0.336
 1272SOL    HW1 4496   1.903   3.593   0.403
 1272SOL    HW2 4497   1.870   3.713   0.316
 1273SOL     OW 4498   0.071   3.454   0.151
 1273SOL    HW1 4499   0.036   3.366   0.153
 1273SOL    HW2 4500   0.016   3.504   0.211
 1274SOL     OW 4501   1.690   2.781   0.639
 1274SOL    HW1 4502   1.774   2.740   0.617
 1274SOL    HW2 4503   1.667   2.832   0.561
 1275SOL     OW 4504   1.645   2.968   0.432
 1275SOL    HW1 4505   1.728   2.980   0.384
 1275SOL    HW2 4506   1.651   3.030   0.505
 1276SOL     OW 4507   0.111   2.622   1.588
 1276SOL    HW1 4508   0.205   2.623   1.569
 1276SOL    HW2 4509   0.088   2.714   1.596
 1277SOL     OW 4510   0.613   3.245   0.736
 1277SOL    HW1 4511   0.566   3.162   0.745
 1277SOL    HW2 4512   0.596   3.272   0.645
 1278SOL     OW 4513   1.290   3.101   1.424
 1278SOL    HW1 4514   1.322   3.033   1.364
 1278SOL    HW2 4515   1.346   3.093   1.501
 1279SOL     OW 4516   0.814   1.861   0.506
 1279SOL    HW1 4517   0.853   1.947   0.491
 1279SOL    HW2 4518   0.720   1.879   0.516
 1280SOL     OW 4519   0.182   2.805   1.279
 1280SOL    HW1 4520   0.274   2.788   1.257
 1280SOL    HW2 4521   0.133   2.783   1.200
 1281SOL     OW 4522   1.520   2.862   0.201
 1281SOL    HW1 4523   1.456   2.798   0.234
 1281SOL    HW2 4524   1.568   2.890   0.278
 1282SOL     OW 4525   1.186   3.667   1.621
 1282SOL    HW1 4526   1.199   3.724   1.545
 1282SOL    HW2 4527   1.200   3.578   1.587
 1283SOL     OW 4528   0.329   2.118   1.796
 1283SOL    HW1 4529   0.381   2.191   1.830
 1283SOL    HW2 4530   0.243   2.127   1.838
 1284SOL     OW 4531   1.466   3.282   0.953
 1284SOL    HW1 4532   1.397   3.296   1.018
 1284SOL    HW2 4533   1.454   3.191   0.925
 1285SOL     OW 4534   1.660   3.597   0.579
 1285SOL    HW1 4535   1.639   3.570   0.490
 1285SOL    HW2 4536   1.634   3.523   0.634
 1286SOL     OW 4537   0.596   2.582   0.263
 1286SOL    HW1 4538   0.601   2.662   0.212
 1286SOL    HW2 4539   0.532   2.602   0.332
 1287SOL     OW 4540   1.279   2.211   0.932
 1287SOL    HW1 4541   1.190   2.178   0.940
 1287SOL    HW2 4542   1.330   2.159   0.994
 1288SOL     OW 4543   1.582   3.531   0.311
 1288SOL    HW1 4544   1.672   3.564   0.305
 1288SOL    HW2 4545   1.557   3.512   0.221
 1289SOL     OW 4546   0.794   2.478   1.452
 1289SOL    HW1 4547   0.768   2.455   1.541
 1289SOL    HW2 4548   0.750   2.414   1.397
 1290SOL     OW 4549   1.393   2.336   1.678
 1290SOL    HW1 4550   1.395   2.380   1.763
 1290SOL    HW2 4551   1.457   2.265   1.686
 1291SOL     OW 4552   0.957   2.750   1.581
 1291SOL    HW1 4553   1.011   2.679   1.546
 1291SOL    HW2 4554   0.910   2.784   1.505
 1292SOL     OW 4555   0.993   2.276   1.239
 1292SOL    HW1 4556   0.910   2.298   1.280
 1292SOL    HW2 4557   0.969   2.227   1.160
 1293SOL     OW 4558   1.049   2.563   0.427
 1293SOL    HW1 4559   1.065   2.555   0.521
 1293SOL    HW2 4560   0.968   2.516   0.412
 1294SOL     OW 4561   0.098   2.687   0.784
 1294SOL    HW1 4562   0.184   2.667   0.821
 1294SOL    HW2 4563   0.050   2.729   0.855
 1295SOL     OW 4564   0.126   3.713   1.575
 1295SOL    HW1 4565   0.118   3.691   1.668
 1295SOL    HW2 4566   0.044   3.681   1.537
 1296SOL     OW 4567   0.886   2.216   0.207
 1296SOL    HW1 4568   0.935   2.271   0.145
 1296SOL    HW2 4569   0.900   2.127   0.176
 1297SOL     OW 4570   1.713   2.443   1.829
 1297SOL    HW1 4571   1.674   2.517   1.782
 1297SOL    HW2 4572   1.730   2.378   1.761
 1298SOL     OW 4573   1.376   3.004   0.542
 1298SOL    HW1 4574   1.453   2.989   0.488
 1298SOL    HW2 4575   1.323   3.066   0.492
 1299SOL     OW 4576   0.551   2.045   0.893
 1299SOL    HW1 4577   0.553   2.075   0.984
 1299SOL    HW2 4578   0.552   2.126   0.842
 1300SOL     OW 4579   1.008   3.308   0.474
 1300SOL    HW1 4580   0.967   3.379   0.425
 1300SOL    HW2 4581   0.991   3.329   0.566
 1301SOL     OW 4582   0.354   3.670   0.858
 1301SOL    HW1 4583   0.397   3.585   0.867
 1301SOL    HW2 4584   0.425   3.734   0.870
 1302SOL     OW 4585   1.799   2.920   0.867
 1302SOL    HW1 4586   1.743   2.905   0.791
 1302SOL    HW2 4587   1.738   2.926   0.941
 1303SOL     OW 4588   1.228   3.401   1.513
 1303SOL    HW1 4589   1.214   3.328   1.573
 1303SOL    HW2 4590   1.166   3.385   1.441
 1304SOL     OW 4591   0.314   2.818   0.276
 1304SOL    HW1 4592   0.398   2.845   0.238
 1304SOL    HW2 4593   0.305   2.726   0.251
 1305SOL     OW 4594   1.476   2.601   0.727
 1305SOL    HW1 4595   1.466   2.556   0.811
 1305SOL    HW2 4596   1.553   2.657   0.739
 1306SOL     OW 4597   0.466   3.123   1.735
 1306SOL    HW1 4598   0.438   3.130   1.644
 1306SOL    HW2 4599   0.385   3.129   1.786
 1307SOL     OW 4600   1.107   3.640   0.227
 1307SOL    HW1 4601   1.049   3.588   0.282
 1307SOL    HW2 4602   1.148   3.577   0.167
 1308SOL     OW 4603   0.195   2.140   1.487
 1308SOL    HW1 4604   0.133   2.212   1.492
 1308SOL    HW2 4605   0.185   2.094   1.570
 1309SOL     OW 4606   1.628   3.237   0.088
 1309SOL    HW1 4607   1.586   3.322   0.076
 1309SOL    HW2 4608   1.562   3.173   0.061
 1310SOL     OW 4609   0.470   3.604   0.317
 1310SOL    HW1 4610   0.507   3.659   0.385
 1310SOL    HW2 4611   0.545   3.577   0.265
 1311SOL     OW 4612   1.401   1.970   0.430
 1311SOL    HW1 4613   1.392   1.947   0.338
 1311SOL    HW2 4614   1.496   1.978   0.443
 1312SOL     OW 4615   0.260   3.656   1.233
 1312SOL    HW1 4616   0.306   3.582   1.273
 1312SOL    HW2 4617   0.228   3.622   1.150
 1313SOL     OW 4618   0.938   3.560   0.900
 1313SOL    HW1 4619   1.015   3.507   0.921
 1313SOL    HW2 4620   0.893   3.511   0.831
 1314SOL     OW 4621   0.392   2.557   0.472
 1314SOL    HW1 4622   0.417   2.465   0.484
 1314SOL    HW2 4623   0.301   2.560   0.501
 1315SOL     OW 4624   1.537   2.086   1.726
 1315SOL    HW1 4625   1.543   2.107   1.820
 1315SOL    HW2 4626   1.469   2.019   1.721
 1316SOL     OW 4627   0.613   1.969   0.123
 1316SOL    HW1 4628   0.705   1.940   0.123
 1316SOL    HW2 4629   0.584   1.954   0.033
 1317SOL     OW 4630   0.768   2.138   1.753
 1317SOL    HW1 4631   0.842   2.077   1.758
 1317SOL    HW2 4632   0.718   2.122   1.833
 1318SOL     OW 4633   0.877   3.384   1.193
 1318SOL    HW1 4634   0.861   3.348   1.106
 1318SOL    HW2 4635   0.946   3.328   1.230
 1319SOL     OW 4636   1.341   2.451   1.432
 1319SOL    HW1 4637   1.372   2.418   1.517
 1319SOL    HW2 4638   1.377   2.539   1.425
 1320SOL     OW 4639   0.814   3.259   0.937
 1320SOL    HW1 4640   0.897   3.249   0.892
 1320SOL    HW2 4641   0.748   3.258   0.867
 1321SOL     OW 4642   0.927   2.371   0.904
 1321SOL    HW1 4643   0.904   2.363   0.811
 1321SOL    HW2 4644   0.960   2.285   0.928
 1322SOL     OW 4645   0.551   1.923   0.506
 1322SOL    HW1 4646   0.469   1.922   0.555
 1322SOL    HW2 4647   0.545   2.002   0.451
 1323SOL     OW 4648   1.426   3.058   0.031
 1323SOL    HW1 4649   1.459   2.986   0.084
 1323SOL    HW2 4650   1.343   3.082   0.072
 1324SOL     OW 4651   0.287   1.911   0.192
 1324SOL    HW1 4652   0.336   1.962   0.128
 1324SOL    HW2 4653   0.348   1.845   0.224
 1325SOL     OW 4654   0.938   2.106   0.463
 1325SOL    HW1 4655   0.909   2.152   0.385
 1325SOL    HW2 4656   1.033   2.121   0.466
 1326SOL     OW 4657   1.080   2.542   1.460
 1326SOL    HW1 4658   1.010   2.476   1.465
 1326SOL    HW2 4659   1.160   2.491   1.453
 1327SOL     OW 4660   1.224   3.431   0.794
 1327SOL    HW1 4661   1.242   3.498   0.728
 1327SOL    HW2 4662   1.293   3.444   0.860
 1328SOL     OW 4663   0.467   3.010   0.740
 1328SOL    HW1 4664   0.395   2.991   0.800
 1328SOL    HW2 4665   0.430   2.996   0.653
 1329SOL     OW 4666   1.270   3.657   0.605
 1329SOL    HW1 4667   1.316   3.718   0.547
 1329SOL    HW2 4668   1.206   3.711   0.651
 1330SOL     OW 4669   1.014   2.400   0.035
 1330SOL    HW1 4670   0.982   2.487   0.012
 1330SOL    HW2 4671   1.093   2.416   0.087
 1331SOL     OW 4672   0.081   2.394   1.408
 1331SOL    HW1 4673   0.149   2.393   1.340
 1331SOL    HW2 4674   0.069   2.486   1.428
 1332SOL     OW 4675   0.561   2.090   1.165
 1332SOL    HW1 4676   0.602   2.009   1.197
 1332SOL    HW2 4677   0.470   2.083   1.192
 1333SOL     OW 4678   0.869   2.322   0.640
 1333SOL    HW1 4679   0.823   2.376   0.576
 1333SOL    HW2 4680   0.888   2.240   0.594
 1334SOL     OW 4681   1.015   1.915   0.753
 1334SOL    HW1 4682   0.956   1.907   0.678
 1334SOL    HW2 4683   0.994   1.839   0.808
 1335SOL     OW 4684   1.436   3.025   0.857
 1335SOL    HW1 4685   1.368   2.958   0.856
 1335SOL    HW2 4686   1.459   3.038   0.765
 1336SOL     OW 4687   1.466   2.465   0.980
 1336SOL    HW1 4688   1.419   2.382   0.983
 1336SOL    HW2 4689   1.526   2.461   1.055
 1337SOL     OW 4690   1.850   2.678   0.382
 1337SOL    HW1 4691   1.905   2.624   0.440
 1337SOL    HW2 4692   1.820   2.617   0.315
 1338SOL     OW 4693   0.494   3.284   0.175
 1338SOL    HW1 4694   0.415   3.258   0.222
 1338SOL    HW2 4695   0.488   3.238   0.091
 1339SOL     OW 4696   1.669   3.127   0.650
 1339SOL    HW1 4697   1.764   3.133   0.660
 1339SOL    HW2 4698   1.637   3.215   0.669
 1340SOL     OW 4699   1.390   2.441   0.079
 1340SOL    HW1 4700   1.331   2.417   0.151
 1340SOL    HW2 4701   1.462   2.377   0.085
 1341SOL     OW 4702   0.529   2.125   0.328
 1341SOL    HW1 4703   0.555   2.066   0.257
 1341SOL    HW2 4704   0.512   2.208   0.284
 1342SOL     OW 4705   1.753   3.099   1.575
 1342SOL    HW1 4706   1.840   3.060   1.573
 1342SOL    HW2 4707   1.768   3.189   1.605
 1343SOL     OW 4708   1.060   3.216   1.335
 1343SOL    HW1 4709   0.985   3.185   1.386
 1343SOL    HW2 4710   1.136   3.174   1.376
 1344SOL     OW 4711   1.606   3.488   1.652
 1344SOL    HW1 4712   1.603   3.521   1.563
 1344SOL    HW2 4713   1.690   3.441   1.657
 1345SOL     OW 4714   1.127   3.064   1.107
 1345SOL    HW1 4715   1.068   3.102   1.172
 1345SOL    HW2 4716   1.092   3.095   1.023
 1346SOL     OW 4717   1.631   2.962   1.078
 1346SOL    HW1 4718   1.626   3.024   1.151
 1346SOL    HW2 4719   1.550   2.977   1.028
 1347SOL     OW 4720   0.917   1.961   1.398
 1347SOL    HW1 4721   0.940   1.941   1.307
 1347SOL    HW2 4722   0.997   1.999   1.435
 1348SOL     OW 4723   0.984   2.976   1.722
 1348SOL    HW1 4724   0.892   2.991   1.742
 1348SOL    HW2 4725   0.984   2.899   1.666
 1349SOL     OW 4726   0.710   2.921   0.373
 1349SOL    HW1 4727   0.696   2.907   0.467
 1349SOL    HW2 4728   0.786   2.868   0.352
 1350SOL     OW 4729   0.430   2.685   1.239
 1350SOL    HW1 4730   0.499   2.697   1.305
 1350SOL    HW2 4731   0.370   2.621   1.278
 1351SOL     OW 4732   1.267   2.240   1.273
 1351SOL    HW1 4733   1.299   2.317   1.320
 1351SOL    HW2 4734   1.177   2.263   1.249
 1352SOL     OW 4735   0.061   3.438   1.340
 1352SOL    HW1 4736   0.033   3.526   1.317
 1352SOL    HW2 4737   0.157   3.444   1.347
 1353SOL     OW 4738   0.352   2.976   0.499
 1353SOL    HW1 4739   0.354   3.050   0.438
 1353SOL    HW2 4740   0.345   2.898   0.443
 1354SOL     OW 4741   0.562   2.397   0.857
 1354SOL    HW1 4742   0.576   2.456   0.783
 1354SOL    HW2 4743   0.621   2.428   0.925
 1355SOL     OW 4744   1.247   3.208   0.394
 1355SOL    HW1 4745   1.303   3.281   0.421
 1355SOL    HW2 4746   1.160   3.231   0.426
 1356SOL     OW 4747   1.278   3.318   1.146
 1356SOL    HW1 4748   1.333   3.320   1.224
 1356SOL    HW2 4749   1.222   3.241   1.157
 1357SOL     OW 4750   1.585   2.488   0.477
 1357SOL    HW1 4751   1.537   2.540   0.542
 1357SOL    HW2 4752   1.623   2.553   0.418
 1358SOL     OW 4753   0.347   3.392   1.317
 1358SOL    HW1 4754   0.333   3.345   1.235
 1358SOL    HW2 4755   0.443   3.402   1.322
 1359SOL     OW 4756   0.474   2.621   1.662
 1359SOL    HW1 4757   0.504   2.660   1.580
 1359SOL    HW2 4758   0.511   2.532   1.661
 1360SOL     OW 4759   1.599   2.641   1.681
 1360SOL    HW1 4760   1.512   2.681   1.673
 1360SOL    HW2 4761   1.651   2.682   1.612
 1361SOL     OW 4762   0.996   1.981   1.756
 1361SOL    HW1 4763   1.049   2.054   1.724
 1361SOL    HW2 4764   1.045   1.903   1.730
 1362SOL     OW 4765   0.498   1.906   1.746
 1362SOL    HW1 4766   0.458   1.849   1.680
 1362SOL    HW2 4767   0.437   1.979   1.755
 1363SOL     OW 4768   0.589   2.735   1.024
 1363SOL    HW1 4769   0.617   2.827   1.026
 1363SOL    HW2 4770   0.532   2.726   1.100
 1364SOL     OW 4771   1.360   2.721   1.033
 1364SOL    HW1 4772   1.279   2.714   0.983
 1364SOL    HW2 4773   1.398   2.633   1.029
 1365SOL     OW 4774   1.204   2.388   0.271
 1365SOL    HW1 4775   1.213   2.311   0.327
 1365SOL    HW2 4776   1.162   2.453   0.328
 1366SOL     OW 4777   0.303   2.055   1.242
 1366SOL    HW1 4778   0.264   2.089   1.322
 1366SOL    HW2 4779   0.285   1.961   1.245
 1367SOL     OW 4780   0.045   3.175   1.284
 1367SOL    HW1 4781   0.077   3.128   1.361
 1367SOL    HW2 4782   0.048   3.267   1.309
 1368SOL     OW 4783   0.726   2.494   1.060
 1368SOL    HW1 4784   0.799   2.475   1.001
 1368SOL    HW2 4785   0.699   2.583   1.037
 1369SOL     OW 4786   1.733   2.823   1.850
 1369SOL    HW1 4787   1.687   2.763   1.791
 1369SOL    HW2 4788   1.673   2.834   1.925
 1370SOL     OW 4789   0.309   1.933   0.620
 1370SOL    HW1 4790   0.287   2.021   0.648
 1370SOL    HW2 4791   0.304   1.880   0.700
 1371SOL     OW 4792   1.614   2.234   0.369
 1371SOL    HW1 4793   1.643   2.171   0.435
 1371SOL    HW2 4794   1.591   2.313   0.419
 1372SOL     OW 4795   1.027   2.621   0.962
 1372SOL    HW1 4796   1.026   2.639   1.056
 1372SOL    HW2 4797   1.001   2.530   0.954
 1373SOL     OW 4798   0.983   3.429   1.715
 1373SOL    HW1 4799   0.967   3.472   1.631
 1373SOL    HW2 4800   1.025   3.346   1.691
 1374SOL     OW 4801   1.856   3.371   1.606
 1374SOL    HW1 4802   1.873   3.396   1.515
 1374SOL    HW2 4803   1.937   3.391   1.652
 1375SOL     OW 4804   0.347   2.793   1.818
 1375SOL    HW1 4805   0.422   2.821   1.872
 1375SOL    HW2 4806   0.384   2.727   1.759
 1376SOL     OW 4807   1.535   2.148   0.118
 1376SOL    HW1 4808   1.475   2.076   0.135
 1376SOL    HW2 4809   1.567   2.174   0.204
 1377SOL     OW 4810   1.289   2.687   0.033
 1377SOL    HW1 4811   1.332   2.602   0.045
 1377SOL    HW2 4812   1.323   2.720  11.050
 1378SOL     OW 4813   1.065   3.197   0.853
 1378SOL    HW1 4814   1.068   3.124   0.790
 1378SOL    HW2 4815   1.127   3.260   0.818
 1379SOL     OW 4816   0.317   2.674   0.949
 1379SOL    HW1 4817   0.411   2.691   0.945
 1379SOL    HW2 4818   0.310   2.583   0.979
 1380SOL     OW 4819   0.333   2.386   0.992
 1380SOL    HW1 4820   0.294   2.299   0.977
 1380SOL    HW2 4821   0.410   2.388   0.937
 1381SOL     OW 4822   1.134   2.240   1.680
 1381SOL    HW1 4823   1.088   2.295   1.744
 1381SOL    HW2 4824   1.223   2.277   1.676
 1382SOL     OW 4825   1.159   2.066   1.470
 1382SOL    HW1 4826   1.151   2.129   1.541
 1382SOL    HW2 4827   1.199   2.117   1.398
 1383SOL     OW 4828   4.495   3.186   0.198
 1383SOL    HW1 4829   4.402   3.204   0.190
 1383SOL    HW2 4830   0.000   3.094   0.225
 1384SOL     OW 4831   0.095   3.642   0.940
 1384SOL    HW1 4832   0.057   3.585   0.874
 1384SOL    HW2 4833   0.183   3.661   0.907
 1385SOL     OW 4834   0.498   3.435   0.907
 1385SOL    HW1 4835   0.566   3.498   0.930
 1385SOL    HW2 4836   0.543   3.371   0.851
 1386SOL     OW 4837   0.987   2.656   1.228
 1386SOL    HW1 4838   1.040   2.631   1.303
 1386SOL    HW2 4839   0.900   2.620   1.247
 1387SOL     OW 4840   0.036   2.424   1.106
 1387SOL    HW1 4841   0.119   2.388   1.073
 1387SOL    HW2 4842   0.025   2.384   1.192
 1388SOL     OW 4843   0.179   2.378   1.714
 1388SOL    HW1 4844   0.259   2.350   1.668
 1388SOL    HW2 4845   0.155   2.460   1.670
 1389SOL     OW 4846   1.375   2.803   1.659
 1389SOL    HW1 4847   1.396   2.896   1.658
 1389SOL    HW2 4848   1.374   2.778   1.567
 1390SOL     OW 4849   0.815   2.436   0.362
 1390SOL    HW1 4850   0.823   2.361   0.303
 1390SOL    HW2 4851   0.740   2.484   0.328
 1391SOL     OW 4852   1.641   2.465   1.190
 1391SOL    HW1 4853   1.632   2.402   1.261
 1391SOL    HW2 4854   1.729   2.449   1.155
 1392SOL     OW 4855   0.272   3.423   1.742
 1392SOL    HW1 4856   0.217   3.476   1.799
 1392SOL    HW2 4857   0.251   3.333   1.764
 1393SOL     OW 4858   0.687   2.318   1.264
 1393SOL    HW1 4859   0.644   2.240   1.229
 1393SOL    HW2 4860   0.691   2.378   1.190
 1394SOL     OW 4861   0.930   3.541   1.466
 1394SOL    HW1 4862   0.903   3.509   1.380
 1394SOL    HW2 4863   0.927   3.636   1.458
 1395SOL     OW 4864   0.476   2.347   0.184
 1395SOL    HW1 4865   0.532   2.421   0.206
 1395SOL    HW2 4866   0.390   2.386   0.168
 1396SOL     OW 4867   0.162   3.003   1.463
 1396SOL    HW1 4868   0.147   2.956   1.545
 1396SOL    HW2 4869   0.170   2.934   1.397
 1397SOL     OW 4870   1.329   2.911   1.224
 1397SOL    HW1 4871   1.352   2.847   1.156
 1397SOL    HW2 4872   1.256   2.961   1.186
 1398SOL     OW 4873   1.307   2.715   0.310
 1398SOL    HW1 4874   1.229   2.683   0.357
 1398SOL    HW2 4875   1.286   2.702   0.218
 1399SOL     OW 4876   1.769   3.608   1.149
 1399SOL    HW1 4877   1.829   3.634   1.079
 1399SOL    HW2 4878   1.745   3.518   1.128
 1400SOL     OW 4879   1.242   3.595   1.116
 1400SOL    HW1 4880   1.323   3.614   1.070
 1400SOL    HW2 4881   1.245   3.501   1.134
 1401SOL     OW 4882   0.067   3.049   1.048
 1401SOL    HW1 4883   0.070   3.083   1.138
 1401SOL    HW2 4884   0.016   3.114   1.000
 1402SOL     OW 4885   0.679   3.526   1.726
 1402SOL    HW1 4886   0.624   3.605   1.722
 1402SOL    HW2 4887   0.741   3.536   1.654
 1403SOL     OW 4888   0.917   1.954   0.111
 1403SOL    HW1 4889   0.968   1.919   0.038
 1403SOL    HW2 4890   0.952   1.911   0.189
 1404SOL     OW 4891   1.719   2.005   0.512
 1404SOL    HW1 4892   1.791   1.990   0.451
 1404SOL    HW2 4893   1.703   1.919   0.552
 1405SOL     OW 4894   1.390   3.430   0.484
 1405SOL    HW1 4895   1.451   3.461   0.417
 1405SOL    HW2 4896   1.343   3.509   0.512
 1406SOL     OW 4897   0.120   3.669   1.847
 1406SOL    HW1 4898   0.081   3.596   1.894
 1406SOL    HW2 4899   0.183   3.706   1.909
 1407SOL     OW 4900   1.277   2.787   0.671
 1407SOL    HW1 4901   1.350   2.725   0.676
 1407SOL    HW2 4902   1.311   2.860   0.619
 1408SOL     OW 4903   0.817   3.135   1.431
 1408SOL    HW1 4904   0.790   3.173   1.514
 1408SOL    HW2 4905   0.746   3.156   1.371
 1409SOL     OW 4906   0.675   3.480   0.166
 1409SOL    HW1 4907   0.683   3.490   0.071
 1409SOL    HW2 4908   0.618   3.405   0.178
 1410SOL     OW 4909   1.631   3.588   1.392
 1410SOL    HW1 4910   1.679   3.596   1.309
 1410SOL    HW2 4911   1.618   3.679   1.420
 1411SOL     OW 4912   1.846   2.044   0.966
 1411SOL    HW1 4913   1.879   1.958   0.941
 1411SOL    HW2 4914   1.759   2.049   0.926
 1412SOL     OW 4915   0.266   2.183   0.720
 1412SOL    HW1 4916   0.183   2.221   0.691
 1412SOL    HW2 4917   0.255   2.170   0.814
 1413SOL     OW 4918   1.222   3.465   0.050
 1413SOL    HW1 4919   1.209   3.373   0.072
 1413SOL    HW2 4920   1.155   3.484  11.085
 1414SOL     OW 4921   0.825   2.868   1.372
 1414SOL    HW1 4922   0.868   2.865   1.286
 1414SOL    HW2 4923   0.825   2.961   1.395
 1415SOL     OW 4924   0.914   2.770   0.282
 1415SOL    HW1 4925   0.981   2.809   0.226
 1415SOL    HW2 4926   0.961   2.703   0.333
 1416SOL     OW 4927   1.499   3.484   0.046
 1416SOL    HW1 4928   1.404   3.480   0.042
 1416SOL    HW2 4929   1.527   3.497  11.055
 1417SOL     OW 4930   0.373   3.168   1.491
 1417SOL    HW1 4931   0.356   3.246   1.439
 1417SOL    HW2 4932   0.297   3.111   1.475
 1418SOL     OW 4933   1.612   3.145   1.281
 1418SOL    HW1 4934   1.670   3.136   1.357
 1418SOL    HW2 4935   1.551   3.215   1.306
 1419SOL     OW 4936   1.049   2.968   0.705
 1419SOL    HW1 4937   0.979   2.916   0.745
 1419SOL    HW2 4938   1.111   2.902   0.672
 1420SOL     OW 4939   1.020   2.102   0.966
 1420SOL    HW1 4940   1.015   2.054   0.883
 1420SOL    HW2 4941   1.015   2.034   1.033
 1421SOL     OW 4942   0.603   3.353   0.483
 1421SOL    HW1 4943   0.640   3.302   0.412
 1421SOL    HW2 4944   0.530   3.402   0.443
 1422SOL     OW 4945   1.717   2.256   1.379
 1422SOL    HW1 4946   1.792   2.316   1.381
 1422SOL    HW2 4947   1.746   2.182   1.327
 1423SOL     OW 4948   0.262   3.194   0.284
 1423SOL    HW1 4949   0.174   3.206   0.248
 1423SOL    HW2 4950   0.258   3.233   0.371
 1424SOL     OW 4951   0.117   2.870   1.695
 1424SOL    HW1 4952   0.052   2.908   1.754
 1424SOL    HW2 4953   0.195   2.858   1.750
 1425SOL     OW 4954   0.673   2.061   1.498
 1425SOL    HW1 4955   0.756   2.040   1.456
 1425SOL    HW2 4956   0.697   2.088   1.587
 1426SOL     OW 4957   0.059   2.202   0.005
 1426SOL    HW1 4958   4.470   2.194   0.038
 1426SOL    HW2 4959   0.080   2.295   0.014
 1427SOL     OW 4960   1.432   2.721   1.402
 1427SOL    HW1 4961   1.383   2.780   1.345
 1427SOL    HW2 4962   1.521   2.723   1.368
 1428SOL     OW 4963   0.079   2.034   0.307
 1428SOL    HW1 4964   0.083   2.115   0.256
 1428SOL    HW2 4965   0.154   1.983   0.278
 1429SOL     OW 4966   1.181   3.204   0.122
 1429SOL    HW1 4967   1.088   3.182   0.117
 1429SOL    HW2 4968   1.203   3.197   0.215
 1430SOL     OW 4969   0.621   2.693   1.429
 1430SOL    HW1 4970   0.677   2.770   1.416
 1430SOL    HW2 4971   0.683   2.621   1.438
 1431SOL     OW 4972   1.485   3.637   0.976
 1431SOL    HW1 4973   1.510   3.694   0.904
 1431SOL    HW2 4974   1.566   3.620   1.023
 1432SOL     OW 4975   0.716   2.425   1.704
 1432SOL    HW1 4976   0.751   2.490   1.765
 1432SOL    HW2 4977   0.751   2.341   1.735
 1433SOL     OW 4978   1.469   3.065   1.633
 1433SOL    HW1 4979   1.457   3.077   1.727
 1433SOL    HW2 4980   1.563   3.077   1.619
 1434SOL     OW 4981   0.382   3.605   1.564
 1434SOL    HW1 4982   0.296   3.644   1.548
 1434SOL    HW2 4983   0.363   3.524   1.611
 1435SOL     OW 4984   1.672   2.744   1.255
 1435SOL    HW1 4985   1.662   2.659   1.213
 1435SOL    HW2 4986   1.662   2.807   1.184
 1436SOL     OW 4987   1.217   2.180   0.459
 1436SOL    HW1 4988   1.282   2.110   0.449
 1436SOL    HW2 4989   1.246   2.229   0.536
 1437SOL     OW 4990   0.591   2.601   0.667
 1437SOL    HW1 4991   0.629   2.688   0.652
 1437SOL    HW2 4992   0.521   2.594   0.602
 1438SOL     OW 4993   1.753   2.235   1.657
 1438SOL    HW1 4994   1.754   2.234   1.562
 1438SOL    HW2 4995   1.685   2.172   1.681
 1439SOL     OW 4996   1.744   2.796   1.512
 1439SOL    HW1 4997   1.744   2.891   1.525
 1439SOL    HW2 4998   1.729   2.784   1.418
 1440SOL     OW 4999   0.898   3.220   0.062
 1440SOL    HW1 5000   0.828   3.221   0.128
 1440SOL    HW2 5001   0.890   3.303   0.016
 1441SOL     OW 5002   0.660   3.655   0.949
 1441SOL    HW1 5003   0.638   3.745   0.923
 1441SOL    HW2 5004   0.755   3.650   0.938
 1442SOL     OW 5005   0.867   2.828   0.855
 1442SOL    HW1 5006   0.917   2.757   0.896
 1442SOL    HW2 5007   0.833   2.878   0.929
 1443SOL     OW 5008   1.080   2.852   0.086
 1443SOL    HW1 5009   1.056   2.886  11.099
 1443SOL    HW2 5010   1.156   2.797   0.069
 1444SOL     OW 5011   1.855   3.418   0.846
 1444SOL    HW1 5012   1.779   3.407   0.789
 1444SOL    HW2 5013   1.846   3.350   0.912
 1445SOL     OW 5014   0.229   3.168   1.857
 1445SOL    HW1 5015   0.159   3.108   1.832
 1445SOL    HW2 5016   0.220   3.178   1.951
 1446SOL     OW 5017   0.101   3.098   0.667
 1446SOL    HW1 5018   0.111   3.050   0.749
 1446SOL    HW2 5019   0.165   3.059   0.608
 1447SOL     OW 5020   0.681   3.263   1.627
 1447SOL    HW1 5021   0.601   3.219   1.655
 1447SOL    HW2 5022   0.674   3.351   1.664
 1448SOL     OW 5023   1.806   2.055   1.232
 1448SOL    HW1 5024   1.839   1.970   1.261
 1448SOL    HW2 5025   1.821   2.055   1.137
 1449SOL     OW 5026   0.433   2.296   0.525
 1449SOL    HW1 5027   0.461   2.223   0.470
 1449SOL    HW2 5028   0.384   2.255   0.596
 1450SOL     OW 5029   1.701   3.353   1.099
 1450SOL    HW1 5030   1.620   3.328   1.055
 1450SOL    HW2 5031   1.714   3.284   1.165
 1451SOL     OW 5032   0.304   2.351   1.256
 1451SOL    HW1 5033   0.378   2.310   1.301
 1451SOL    HW2 5034   0.335   2.365   1.167
 1452SOL     OW 5035   0.826   3.440   0.679
 1452SOL    HW1 5036   0.816   3.487   0.596
 1452SOL    HW2 5037   0.748   3.384   0.684
 1453SOL     OW 5038   1.432   2.086   1.117
 1453SOL    HW1 5039   1.466   2.010   1.166
 1453SOL    HW2 5040   1.380   2.134   1.182
 1454SOL     OW 5041   1.008   1.882   1.145
 1454SOL    HW1 5042   0.954   1.813   1.106
 1454SOL    HW2 5043   1.096   1.845   1.147
 1455SOL     OW 5044   0.768   3.190   0.313
 1455SOL    HW1 5045   0.737   3.100   0.326
 1455SOL    HW2 5046   0.852   3.194   0.358
 1456SOL     OW 5047   0.621   3.420   1.285
 1456SOL    HW1 5048   0.623   3.501   1.335
 1456SOL    HW2 5049   0.708   3.413   1.246
 1457SOL     OW 5050   1.351   1.915   0.164
 1457SOL    HW1 5051   1.373   1.867   0.085
 1457SOL    HW2 5052   1.265   1.883   0.189
 1458SOL     OW 5053   1.297   2.322   0.682
 1458SOL    HW1 5054   1.243   2.401   0.691
 1458SOL    HW2 5055   1.294   2.282   0.769
 1459SOL     OW 5056   1.588   2.065   0.877
 1459SOL    HW1 5057   1.525   2.083   0.947
 1459SOL    HW2 5058   1.587   2.144   0.823
 1460SOL     OW 5059   0.039   2.911   0.283
 1460SOL    HW1 5060   0.134   2.910   0.285
 1460SOL    HW2 5061   0.012   2.876   0.367
 1461SOL     OW 5062   0.884   3.513   0.347
 1461SOL    HW1 5063   0.812   3.493   0.287
 1461SOL    HW2 5064   0.851   3.588   0.398
 1462SOL     OW 5065   0.248   2.490   1.981
 1462SOL    HW1 5066   0.173   2.473   2.038
 1462SOL    HW2 5067   0.217   2.470   1.893
 1463SOL     OW 5068   0.213   2.138   2.854
 1463SOL    HW1 5069   0.250   2.111   2.938
 1463SOL    HW2 5070   0.137   2.081   2.841
 1464SOL     OW 5071   0.009   2.250   2.502
 1464SOL    HW1 5072   4.429   2.281   2.543
 1464SOL    HW2 5073   4.484   2.170   2.455
 1465SOL     OW 5074   0.567   3.145   3.035
 1465SOL    HW1 5075   0.479   3.150   2.997
 1465SOL    HW2 5076   0.582   3.233   3.070
 1466SOL     OW 5077   1.558   3.374   2.568
 1466SOL    HW1 5078   1.514   3.355   2.651
 1466SOL    HW2 5079   1.487   3.378   2.504
 1467SOL     OW 5080   1.130   2.561   2.565
 1467SOL    HW1 5081   1.179   2.641   2.551
 1467SOL    HW2 5082   1.083   2.576   2.647
 1468SOL     OW 5083   1.768   2.468   2.092
 1468SOL    HW1 5084   1.746   2.460   1.999
 1468SOL    HW2 5085   1.731   2.389   2.132
 1469SOL     OW 5086   0.758   3.006   2.900
 1469SOL    HW1 5087   0.688   3.040   2.956
 1469SOL    HW2 5088   0.792   3.083   2.856
 1470SOL     OW 5089   0.864   2.640   3.683
 1470SOL    HW1 5090   0.849   2.712   3.744
 1470SOL    HW2 5091   0.887   2.683   3.601
 1471SOL     OW 5092   0.686   2.868   2.511
 1471SOL    HW1 5093   0.750   2.854   2.580
 1471SOL    HW2 5094   0.616   2.918   2.553
 1472SOL     OW 5095   0.709   3.013   3.672
 1472SOL    HW1 5096   0.756   3.093   3.697
 1472SOL    HW2 5097   0.625   3.044   3.638
 1473SOL     OW 5098   0.336   3.285   2.932
 1473SOL    HW1 5099   0.255   3.265   2.885
 1473SOL    HW2 5100   0.386   3.339   2.871
 1474SOL     OW 5101   1.461   3.360   3.214
 1474SOL    HW1 5102   1.507   3.444   3.224
 1474SOL    HW2 5103   1.404   3.354   3.290
 1475SOL     OW 5104   0.443   2.266   3.357
 1475SOL    HW1 5105   0.523   2.213   3.360
 1475SOL    HW2 5106   0.372   2.203   3.360
 1476SOL     OW 5107   1.610   2.312   2.604
 1476SOL    HW1 5108   1.535   2.337   2.549
 1476SOL    HW2 5109   1.633   2.392   2.651
 1477SOL     OW 5110   0.246   3.553   2.341
 1477SOL    HW1 5111   0.232   3.638   2.383
 1477SOL    HW2 5112   0.309   3.571   2.271
 1478SOL     OW 5113   1.136   3.203   3.553
 1478SOL    HW1 5114   1.175   3.199   3.641
 1478SOL    HW2 5115   1.083   3.123   3.548
 1479SOL     OW 5116   0.246   3.289   2.390
 1479SOL    HW1 5117   0.238   3.384   2.394
 1479SOL    HW2 5118   0.181   3.257   2.453
 1480SOL     OW 5119   0.246   2.943   2.745
 1480SOL    HW1 5120   0.263   2.855   2.777
 1480SOL    HW2 5121   0.188   2.982   2.811
 1481SOL     OW 5122   0.616   3.652   3.295
 1481SOL    HW1 5123   0.532   3.634   3.337
 1481SOL    HW2 5124   0.636   3.743   3.318
 1482SOL     OW 5125   0.583   2.846   1.998
 1482SOL    HW1 5126   0.628   2.892   1.927
 1482SOL    HW2 5127   0.628   2.874   2.077
 1483SOL     OW 5128   1.589   1.981   3.333
 1483SOL    HW1 5129   1.602   2.057   3.276
 1483SOL    HW2 5130   1.583   2.018   3.421
 1484SOL     OW 5131   0.136   2.506   2.436
 1484SOL    HW1 5132   0.087   2.426   2.451
 1484SOL    HW2 5133   0.106   2.566   2.505
 1485SOL     OW 5134   1.842   3.623   2.198
 1485SOL    HW1 5135   1.902   3.594   2.267
 1485SOL    HW2 5136   1.868   3.713   2.180
 1486SOL     OW 5137   0.033   3.463   1.999
 1486SOL    HW1 5138   0.021   3.368   2.000
 1486SOL    HW2 5139   0.013   3.490   2.088
 1487SOL     OW 5140   1.691   2.782   2.501
 1487SOL    HW1 5141   1.774   2.738   2.480
 1487SOL    HW2 5142   1.669   2.831   2.422
 1488SOL     OW 5143   1.645   2.970   2.292
 1488SOL    HW1 5144   1.730   2.977   2.249
 1488SOL    HW2 5145   1.649   3.030   2.366
 1489SOL     OW 5146   0.111   2.622   3.450
 1489SOL    HW1 5147   0.205   2.623   3.431
 1489SOL    HW2 5148   0.088   2.714   3.458
 1490SOL     OW 5149   0.613   3.245   2.598
 1490SOL    HW1 5150   0.566   3.162   2.607
 1490SOL    HW2 5151   0.597   3.272   2.507
 1491SOL     OW 5152   1.290   3.101   3.286
 1491SOL    HW1 5153   1.322   3.033   3.226
 1491SOL    HW2 5154   1.346   3.093   3.363
 1492SOL     OW 5155   0.814   1.861   2.368
 1492SOL    HW1 5156   0.854   1.946   2.352
 1492SOL    HW2 5157   0.720   1.880   2.379
 1493SOL     OW 5158   0.182   2.805   3.141
 1493SOL    HW1 5159   0.274   2.788   3.119
 1493SOL    HW2 5160   0.133   2.783   3.062
 1494SOL     OW 5161   1.532   2.854   2.059
 1494SOL    HW1 5162   1.462   2.796   2.088
 1494SOL    HW2 5163   1.571   2.888   2.139
 1495SOL     OW 5164   1.186   3.667   3.483
 1495SOL    HW1 5165   1.199   3.724   3.407
 1495SOL    HW2 5166   1.201   3.578   3.449
 1496SOL     OW 5167   0.329   2.118   3.658
 1496SOL    HW1 5168   0.380   2.191   3.692
 1496SOL    HW2 5169   0.243   2.127   3.700
 1497SOL     OW 5170   1.466   3.281   2.815
 1497SOL    HW1 5171   1.398   3.296   2.880
 1497SOL    HW2 5172   1.454   3.191   2.787
 1498SOL     OW 5173   1.661   3.596   2.440
 1498SOL    HW1 5174   1.638   3.568   2.351
 1498SOL    HW2 5175   1.634   3.523   2.495
 1499SOL     OW 5176   0.598   2.584   2.127
 1499SOL    HW1 5177   0.602   2.664   2.075
 1499SOL    HW2 5178   0.532   2.602   2.194
 1500SOL     OW 5179   1.279   2.212   2.795
 1500SOL    HW1 5180   1.190   2.178   2.802
 1500SOL    HW2 5181   1.330   2.159   2.856
 1501SOL     OW 5182   1.581   3.531   2.171
 1501SOL    HW1 5183   1.671   3.565   2.164
 1501SOL    HW2 5184   1.556   3.514   2.080
 1502SOL     OW 5185   0.794   2.478   3.314
 1502SOL    HW1 5186   0.768   2.455   3.403
 1502SOL    HW2 5187   0.750   2.414   3.259
 1503SOL     OW 5188   1.394   2.336   3.539
 1503SOL    HW1 5189   1.395   2.380   3.625
 1503SOL    HW2 5190   1.456   2.264   3.548
 1504SOL     OW 5191   0.957   2.750   3.443
 1504SOL    HW1 5192   1.011   2.679   3.408
 1504SOL    HW2 5193   0.910   2.784   3.367
 1505SOL     OW 5194   0.993   2.276   3.101
 1505SOL    HW1 5195   0.909   2.298   3.142
 1505SOL    HW2 5196   0.969   2.227   3.022
 1506SOL     OW 5197   1.050   2.561   2.289
 1506SOL    HW1 5198   1.065   2.554   2.383
 1506SOL    HW2 5199   0.968   2.513   2.274
 1507SOL     OW 5200   0.098   2.687   2.645
 1507SOL    HW1 5201   0.184   2.667   2.681
 1507SOL    HW2 5202   0.050   2.728   2.718
 1508SOL     OW 5203   0.126   3.712   3.437
 1508SOL    HW1 5204   0.118   3.691   3.530
 1508SOL    HW2 5205   0.044   3.681   3.399
 1509SOL     OW 5206   0.888   2.209   2.056
 1509SOL    HW1 5207   0.931   2.270   1.996
 1509SOL    HW2 5208   0.906   2.122   2.019
 1510SOL     OW 5209   1.711   2.442   3.692
 1510SOL    HW1 5210   1.673   2.516   3.645
 1510SOL    HW2 5211   1.733   2.379   3.623
 1511SOL     OW 5212   1.376   3.005   2.404
 1511SOL    HW1 5213   1.454   2.990   2.351
 1511SOL    HW2 5214   1.323   3.066   2.354
 1512SOL     OW 5215   0.551   2.046   2.754
 1512SOL    HW1 5216   0.553   2.074   2.846
 1512SOL    HW2 5217   0.552   2.127   2.704
 1513SOL     OW 5218   1.008   3.308   2.336
 1513SOL    HW1 5219   0.968   3.379   2.286
 1513SOL    HW2 5220   0.991   3.329   2.427
 1514SOL     OW 5221   0.355   3.670   2.719
 1514SOL    HW1 5222   0.397   3.585   2.729
 1514SOL    HW2 5223   0.425   3.734   2.733
 1515SOL     OW 5224   1.799   2.921   2.729
 1515SOL    HW1 5225   1.744   2.903   2.653
 1515SOL    HW2 5226   1.738   2.926   2.802
 1516SOL     OW 5227   1.228   3.401   3.374
 1516SOL    HW1 5228   1.214   3.328   3.435
 1516SOL    HW2 5229   1.166   3.386   3.303
 1517SOL     OW 5230   0.317   2.816   2.112
 1517SOL    HW1 5231   0.401   2.838   2.073
 1517SOL    HW2 5232   0.299   2.727   2.083
 1518SOL     OW 5233   1.477   2.602   2.590
 1518SOL    HW1 5234   1.465   2.556   2.673
 1518SOL    HW2 5235   1.553   2.657   2.603
 1519SOL     OW 5236   0.466   3.123   3.597
 1519SOL    HW1 5237   0.438   3.130   3.506
 1519SOL    HW2 5238   0.385   3.128   3.648
 1520SOL     OW 5239   1.121   3.639   2.094
 1520SOL    HW1 5240   1.049   3.597   2.140
 1520SOL    HW2 5241   1.143   3.579   2.022
 1521SOL     OW 5242   0.195   2.140   3.349
 1521SOL    HW1 5243   0.133   2.212   3.354
 1521SOL    HW2 5244   0.185   2.093   3.432
 1522SOL     OW 5245   1.629   3.242   1.949
 1522SOL    HW1 5246   1.588   3.327   1.934
 1522SOL    HW2 5247   1.560   3.178   1.931
 1523SOL     OW 5248   0.469   3.606   2.176
 1523SOL    HW1 5249   0.509   3.658   2.245
 1523SOL    HW2 5250   0.543   3.573   2.125
 1524SOL     OW 5251   1.401   1.970   2.293
 1524SOL    HW1 5252   1.390   1.944   2.201
 1524SOL    HW2 5253   1.495   1.977   2.304
 1525SOL     OW 5254   0.261   3.656   3.095
 1525SOL    HW1 5255   0.306   3.582   3.135
 1525SOL    HW2 5256   0.227   3.622   3.012
 1526SOL     OW 5257   0.938   3.560   2.762
 1526SOL    HW1 5258   1.015   3.507   2.783
 1526SOL    HW2 5259   0.893   3.511   2.693
 1527SOL     OW 5260   0.393   2.557   2.336
 1527SOL    HW1 5261   0.417   2.465   2.346
 1527SOL    HW2 5262   0.301   2.560   2.362
 1528SOL     OW 5263   1.538   2.089   3.588
 1528SOL    HW1 5264   1.543   2.108   3.682
 1528SOL    HW2 5265   1.471   2.020   3.582
 1529SOL     OW 5266   0.631   1.988   1.967
 1529SOL    HW1 5267   0.703   1.927   1.981
 1529SOL    HW2 5268   0.585   1.953   1.890
 1530SOL     OW 5269   0.768   2.138   3.615
 1530SOL    HW1 5270   0.842   2.077   3.620
 1530SOL    HW2 5271   0.718   2.121   3.695
 1531SOL     OW 5272   0.878   3.384   3.055
 1531SOL    HW1 5273   0.861   3.347   2.968
 1531SOL    HW2 5274   0.946   3.328   3.092
 1532SOL     OW 5275   1.341   2.451   3.294
 1532SOL    HW1 5276   1.372   2.418   3.378
 1532SOL    HW2 5277   1.377   2.539   3.287
 1533SOL     OW 5278   0.814   3.259   2.799
 1533SOL    HW1 5279   0.897   3.249   2.754
 1533SOL    HW2 5280   0.748   3.258   2.729
 1534SOL     OW 5281   0.927   2.371   2.766
 1534SOL    HW1 5282   0.904   2.363   2.673
 1534SOL    HW2 5283   0.960   2.285   2.790
 1535SOL     OW 5284   0.551   1.924   2.365
 1535SOL    HW1 5285   0.470   1.923   2.417
 1535SOL    HW2 5286   0.544   2.002   2.312
 1536SOL     OW 5287   1.429   3.060   1.903
 1536SOL    HW1 5288   1.459   2.984   1.953
 1536SOL    HW2 5289   1.342   3.079   1.940
 1537SOL     OW 5290   0.295   1.908   2.040
 1537SOL    HW1 5291   0.357   1.975   2.013
 1537SOL    HW2 5292   0.349   1.842   2.084
 1538SOL     OW 5293   0.937   2.107   2.325
 1538SOL    HW1 5294   0.908   2.149   2.244
 1538SOL    HW2 5295   1.031   2.119   2.327
 1539SOL     OW 5296   1.080   2.542   3.322
 1539SOL    HW1 5297   1.010   2.476   3.327
 1539SOL    HW2 5298   1.160   2.490   3.314
 1540SOL     OW 5299   1.225   3.431   2.655
 1540SOL    HW1 5300   1.242   3.499   2.590
 1540SOL    HW2 5301   1.292   3.444   2.722
 1541SOL     OW 5302   0.465   3.010   2.599
 1541SOL    HW1 5303   0.394   2.991   2.660
 1541SOL    HW2 5304   0.428   2.994   2.512
 1542SOL     OW 5305   1.271   3.657   2.468
 1542SOL    HW1 5306   1.315   3.718   2.410
 1542SOL    HW2 5307   1.205   3.710   2.514
 1543SOL     OW 5308   1.025   2.406   1.882
 1543SOL    HW1 5309   0.982   2.490   1.862
 1543SOL    HW2 5310   1.089   2.428   1.950
 1544SOL     OW 5311   0.081   2.394   3.270
 1544SOL    HW1 5312   0.149   2.393   3.202
 1544SOL    HW2 5313   0.068   2.486   3.290
 1545SOL     OW 5314   0.561   2.089   3.027
 1545SOL    HW1 5315   0.602   2.009   3.059
 1545SOL    HW2 5316   0.470   2.083   3.054
 1546SOL     OW 5317   0.869   2.322   2.502
 1546SOL    HW1 5318   0.822   2.375   2.438
 1546SOL    HW2 5319   0.889   2.240   2.455
 1547SOL     OW 5320   1.014   1.915   2.615
 1547SOL    HW1 5321   0.956   1.907   2.540
 1547SOL    HW2 5322   0.994   1.839   2.670
 1548SOL     OW 5323   1.436   3.025   2.719
 1548SOL    HW1 5324   1.368   2.958   2.718
 1548SOL    HW2 5325   1.459   3.038   2.627
 1549SOL     OW 5326   1.466   2.466   2.843
 1549SOL    HW1 5327   1.418   2.383   2.845
 1549SOL    HW2 5328   1.527   2.461   2.917
 1550SOL     OW 5329   1.848   2.679   2.245
 1550SOL    HW1 5330   1.903   2.626   2.303
 1550SOL    HW2 5331   1.819   2.619   2.176
 1551SOL     OW 5332   0.492   3.277   2.023
 1551SOL    HW1 5333   0.416   3.247   2.073
 1551SOL    HW2 5334   0.472   3.255   1.932
 1552SOL     OW 5335   1.669   3.127   2.510
 1552SOL    HW1 5336   1.763   3.133   2.522
 1552SOL    HW2 5337   1.636   3.215   2.531
 1553SOL     OW 5338   1.394   2.434   1.933
 1553SOL    HW1 5339   1.333   2.415   2.005
 1553SOL    HW2 5340   1.478   2.400   1.964
 1554SOL     OW 5341   0.525   2.122   2.182
 1554SOL    HW1 5342   0.568   2.075   2.111
 1554SOL    HW2 5343   0.507   2.209   2.145
 1555SOL     OW 5344   1.753   3.099   3.437
 1555SOL    HW1 5345   1.840   3.060   3.435
 1555SOL    HW2 5346   1.768   3.189   3.467
 1556SOL     OW 5347   1.060   3.216   3.197
 1556SOL    HW1 5348   0.985   3.185   3.248
 1556SOL    HW2 5349   1.136   3.174   3.238
 1557SOL     OW 5350   1.606   3.487   3.514
 1557SOL    HW1 5351   1.603   3.521   3.425
 1557SOL    HW2 5352   1.690   3.441   3.519
 1558SOL     OW 5353   1.127   3.064   2.969
 1558SOL    HW1 5354   1.068   3.102   3.034
 1558SOL    HW2 5355   1.092   3.095   2.885
 1559SOL     OW 5356   1.631   2.962   2.940
 1559SOL    HW1 5357   1.626   3.024   3.013
 1559SOL    HW2 5358   1.550   2.977   2.890
 1560SOL     OW 5359   0.917   1.961   3.260
 1560SOL    HW1 5360   0.940   1.940   3.169
 1560SOL    HW2 5361   0.997   1.999   3.297
 1561SOL     OW 5362   0.984   2.976   3.585
 1561SOL    HW1 5363   0.892   2.992   3.604
 1561SOL    HW2 5364   0.984   2.898   3.528
 1562SOL     OW 5365   0.708   2.923   2.234
 1562SOL    HW1 5366   0.695   2.908   2.328
 1562SOL    HW2 5367   0.784   2.869   2.212
 1563SOL     OW 5368   0.429   2.685   3.101
 1563SOL    HW1 5369   0.498   2.697   3.167
 1563SOL    HW2 5370   0.370   2.621   3.140
 1564SOL     OW 5371   1.267   2.240   3.135
 1564SOL    HW1 5372   1.299   2.317   3.182
 1564SOL    HW2 5373   1.177   2.262   3.110
 1565SOL     OW 5374   0.061   3.438   3.201
 1565SOL    HW1 5375   0.033   3.527   3.180
 1565SOL    HW2 5376   0.156   3.444   3.209
 1566SOL     OW 5377   0.350   2.969   2.355
 1566SOL    HW1 5378   0.358   3.042   2.294
 1566SOL    HW2 5379   0.351   2.891   2.300
 1567SOL     OW 5380   0.562   2.397   2.719
 1567SOL    HW1 5381   0.575   2.456   2.645
 1567SOL    HW2 5382   0.621   2.428   2.787
 1568SOL     OW 5383   1.248   3.210   2.251
 1568SOL    HW1 5384   1.303   3.282   2.282
 1568SOL    HW2 5385   1.161   3.231   2.285
 1569SOL     OW 5386   1.278   3.318   3.008
 1569SOL    HW1 5387   1.332   3.320   3.086
 1569SOL    HW2 5388   1.222   3.241   3.019
 1570SOL     OW 5389   1.581   2.487   2.338
 1570SOL    HW1 5390   1.537   2.542   2.402
 1570SOL    HW2 5391   1.629   2.548   2.282
 1571SOL     OW 5392   0.348   3.392   3.179
 1571SOL    HW1 5393   0.333   3.345   3.097
 1571SOL    HW2 5394   0.443   3.402   3.184
 1572SOL     OW 5395   0.475   2.621   3.524
 1572SOL    HW1 5396   0.504   2.660   3.442
 1572SOL    HW2 5397   0.510   2.532   3.522
 1573SOL     OW 5398   1.599   2.641   3.543
 1573SOL    HW1 5399   1.512   2.680   3.535
 1573SOL    HW2 5400   1.651   2.682   3.474
 1574SOL     OW 5401   0.996   1.981   3.618
 1574SOL    HW1 5402   1.049   2.054   3.586
 1574SOL    HW2 5403   1.045   1.903   3.592
 1575SOL     OW 5404   0.498   1.906   3.608
 1575SOL    HW1 5405   0.458   1.849   3.542
 1575SOL    HW2 5406   0.437   1.979   3.617
 1576SOL     OW 5407   0.589   2.735   2.886
 1576SOL    HW1 5408   0.616   2.827   2.888
 1576SOL    HW2 5409   0.532   2.726   2.962
 1577SOL     OW 5410   1.360   2.721   2.895
 1577SOL    HW1 5411   1.278   2.714   2.846
 1577SOL    HW2 5412   1.398   2.633   2.891
 1578SOL     OW 5413   1.207   2.391   2.131
 1578SOL    HW1 5414   1.214   2.313   2.185
 1578SOL    HW2 5415   1.164   2.455   2.187
 1579SOL     OW 5416   0.303   2.055   3.104
 1579SOL    HW1 5417   0.264   2.090   3.184
 1579SOL    HW2 5418   0.285   1.961   3.107
 1580SOL     OW 5419   0.045   3.175   3.146
 1580SOL    HW1 5420   0.077   3.128   3.223
 1580SOL    HW2 5421   0.048   3.267   3.171
 1581SOL     OW 5422   0.727   2.494   2.922
 1581SOL    HW1 5423   0.799   2.475   2.863
 1581SOL    HW2 5424   0.699   2.583   2.899
 1582SOL     OW 5425   1.733   2.822   3.713
 1582SOL    HW1 5426   1.687   2.763   3.653
 1582SOL    HW2 5427   1.672   2.834   3.786
 1583SOL     OW 5428   0.309   1.932   2.481
 1583SOL    HW1 5429   0.287   2.021   2.509
 1583SOL    HW2 5430   0.305   1.880   2.561
 1584SOL     OW 5431   1.614   2.234   2.231
 1584SOL    HW1 5432   1.642   2.172   2.299
 1584SOL    HW2 5433   1.591   2.314   2.280
 1585SOL     OW 5434   1.027   2.621   2.824
 1585SOL    HW1 5435   1.026   2.639   2.918
 1585SOL    HW2 5436   1.001   2.530   2.816
 1586SOL     OW 5437   0.983   3.429   3.577
 1586SOL    HW1 5438   0.967   3.473   3.493
 1586SOL    HW2 5439   1.025   3.346   3.553
 1587SOL     OW 5440   1.856   3.370   3.468
 1587SOL    HW1 5441   1.873   3.396   3.377
 1587SOL    HW2 5442   1.937   3.391   3.514
 1588SOL     OW 5443   0.347   2.793   3.680
 1588SOL    HW1 5444   0.422   2.821   3.734
 1588SOL    HW2 5445   0.384   2.727   3.621
 1589SOL     OW 5446   1.531   2.135   1.990
 1589SOL    HW1 5447   1.466   2.070   2.016
 1589SOL    HW2 5448   1.563   2.172   2.072
 1590SOL     OW 5449   1.294   2.689   1.895
 1590SOL    HW1 5450   1.336   2.603   1.898
 1590SOL    HW2 5451   1.324   2.728   1.813
 1591SOL     OW 5452   1.065   3.197   2.715
 1591SOL    HW1 5453   1.068   3.124   2.653
 1591SOL    HW2 5454   1.127   3.260   2.680
 1592SOL     OW 5455   0.317   2.674   2.812
 1592SOL    HW1 5456   0.411   2.691   2.807
 1592SOL    HW2 5457   0.310   2.583   2.841
 1593SOL     OW 5458   0.333   2.386   2.855
 1593SOL    HW1 5459   0.294   2.299   2.839
 1593SOL    HW2 5460   0.410   2.388   2.799
 1594SOL     OW 5461   1.134   2.240   3.542
 1594SOL    HW1 5462   1.088   2.295   3.605
 1594SOL    HW2 5463   1.223   2.277   3.538
 1595SOL     OW 5464   1.159   2.066   3.332
 1595SOL    HW1 5465   1.151   2.129   3.403
 1595SOL    HW2 5466   1.199   2.116   3.260
 1596SOL     OW 5467   4.492   3.185   2.064
 1596SOL    HW1 5468   4.399   3.200   2.047
 1596SOL    HW2 5469   4.497   3.092   2.087
 1597SOL     OW 5470   0.096   3.642   2.802
 1597SOL    HW1 5471   0.057   3.584   2.737
 1597SOL    HW2 5472   0.183   3.662   2.769
 1598SOL     OW 5473   0.498   3.435   2.768
 1598SOL    HW1 5474   0.566   3.498   2.792
 1598SOL    HW2 5475   0.543   3.371   2.713
 1599SOL     OW 5476   0.987   2.656   3.090
 1599SOL    HW1 5477   1.040   2.631   3.165
 1599SOL    HW2 5478   0.900   2.620   3.108
 1600SOL     OW 5479   0.036   2.424   2.968
 1600SOL    HW1 5480   0.119   2.388   2.935
 1600SOL    HW2 5481   0.025   2.384   3.054
 1601SOL     OW 5482   0.179   2.378   3.576
 1601SOL    HW1 5483   0.258   2.350   3.530
 1601SOL    HW2 5484   0.154   2.460   3.532
 1602SOL     OW 5485   1.375   2.803   3.521
 1602SOL    HW1 5486   1.396   2.896   3.520
 1602SOL    HW2 5487   1.373   2.778   3.429
 1603SOL     OW 5488   0.816   2.431   2.218
 1603SOL    HW1 5489   0.819   2.356   2.159
 1603SOL    HW2 5490   0.742   2.483   2.188
 1604SOL     OW 5491   1.647   2.464   3.049
 1604SOL    HW1 5492   1.636   2.402   3.121
 1604SOL    HW2 5493   1.733   2.445   3.014
 1605SOL     OW 5494   0.273   3.423   3.604
 1605SOL    HW1 5495   0.217   3.476   3.661
 1605SOL    HW2 5496   0.251   3.333   3.627
 1606SOL     OW 5497   0.688   2.318   3.126
 1606SOL    HW1 5498   0.644   2.240   3.091
 1606SOL    HW2 5499   0.691   2.378   3.052
 1607SOL     OW 5500   0.931   3.541   3.328
 1607SOL    HW1 5501   0.903   3.509   3.242
 1607SOL    HW2 5502   0.927   3.636   3.320
 1608SOL     OW 5503   0.472   2.352   2.049
 1608SOL    HW1 5504   0.531   2.425   2.071
 1608SOL    HW2 5505   0.387   2.394   2.035
 1609SOL     OW 5506   0.162   3.003   3.325
 1609SOL    HW1 5507   0.147   2.956   3.407
 1609SOL    HW2 5508   0.170   2.934   3.259
 1610SOL     OW 5509   1.329   2.911   3.086
 1610SOL    HW1 5510   1.352   2.847   3.018
 1610SOL    HW2 5511   1.257   2.961   3.048
 1611SOL     OW 5512   1.309   2.719   2.169
 1611SOL    HW1 5513   1.233   2.688   2.218
 1611SOL    HW2 5514   1.286   2.705   2.077
 1612SOL     OW 5515   1.769   3.608   3.011
 1612SOL    HW1 5516   1.829   3.634   2.941
 1612SOL    HW2 5517   1.745   3.518   2.990
 1613SOL     OW 5518   1.242   3.595   2.978
 1613SOL    HW1 5519   1.323   3.614   2.932
 1613SOL    HW2 5520   1.245   3.501   2.996
 1614SOL     OW 5521   0.068   3.049   2.910
 1614SOL    HW1 5522   0.071   3.083   3.000
 1614SOL    HW2 5523   0.015   3.113   2.863
 1615SOL     OW 5524   0.679   3.526   3.588
 1615SOL    HW1 5525   0.624   3.605   3.584
 1615SOL    HW2 5526   0.740   3.536   3.516
 1616SOL     OW 5527   1.719   2.004   2.375
 1616SOL    HW1 5528   1.790   1.987   2.313
 1616SOL    HW2 5529   1.701   1.919   2.415
 1617SOL     OW 5530   1.390   3.430   2.346
 1617SOL    HW1 5531   1.451   3.461   2.278
 1617SOL    HW2 5532   1.342   3.508   2.373
 1618SOL     OW 5533   0.121   3.669   3.709
 1618SOL    HW1 5534   0.081   3.596   3.756
 1618SOL    HW2 5535   0.183   3.706   3.771
 1619SOL     OW 5536   1.277   2.787   2.533
 1619SOL    HW1 5537   1.350   2.725   2.538
 1619SOL    HW2 5538   1.311   2.860   2.481
 1620SOL     OW 5539   0.817   3.135   3.293
 1620SOL    HW1 5540   0.790   3.173   3.376
 1620SOL    HW2 5541   0.746   3.156   3.233
 1621SOL     OW 5542   0.673   3.479   2.017
 1621SOL    HW1 5543   0.681   3.490   1.922
 1621SOL    HW2 5544   0.619   3.401   2.027
 1622SOL     OW 5545   1.631   3.588   3.254
 1622SOL    HW1 5546   1.679   3.596   3.171
 1622SOL    HW2 5547   1.618   3.679   3.282
 1623SOL     OW 5548   1.805   2.004   2.831
 1623SOL    HW1 5549   1.844   1.928   2.788
 1623SOL    HW2 5550   1.725   2.021   2.781
 1624SOL     OW 5551   0.266   2.182   2.581
 1624SOL    HW1 5552   0.183   2.221   2.553
 1624SOL    HW2 5553   0.255   2.170   2.676
 1625SOL     OW 5554   1.206   3.469   1.893
 1625SOL    HW1 5555   1.198   3.378   1.921
 1625SOL    HW2 5556   1.141   3.480   1.824
 1626SOL     OW 5557   0.825   2.868   3.234
 1626SOL    HW1 5558   0.867   2.865   3.148
 1626SOL    HW2 5559   0.825   2.961   3.257
 1627SOL     OW 5560   0.916   2.773   2.151
 1627SOL    HW1 5561   0.977   2.804   2.085
 1627SOL    HW2 5562   0.962   2.702   2.196
 1628SOL     OW 5563   1.494   3.487   1.904
 1628SOL    HW1 5564   1.399   3.482   1.892
 1628SOL    HW2 5565   1.529   3.493   1.815
 1629SOL     OW 5566   0.373   3.168   3.353
 1629SOL    HW1 5567   0.356   3.246   3.301
 1629SOL    HW2 5568   0.297   3.111   3.337
 1630SOL     OW 5569   1.613   3.146   3.143
 1630SOL    HW1 5570   1.670   3.136   3.219
 1630SOL    HW2 5571   1.551   3.215   3.168
 1631SOL     OW 5572   1.049   2.968   2.567
 1631SOL    HW1 5573   0.979   2.917   2.607
 1631SOL    HW2 5574   1.110   2.902   2.534
 1632SOL     OW 5575   1.020   2.102   2.828
 1632SOL    HW1 5576   1.015   2.054   2.745
 1632SOL    HW2 5577   1.015   2.034   2.895
 1633SOL     OW 5578   0.603   3.352   2.345
 1633SOL    HW1 5579   0.642   3.301   2.274
 1633SOL    HW2 5580   0.531   3.399   2.304
 1634SOL     OW 5581   1.718   2.257   3.247
 1634SOL    HW1 5582   1.792   2.318   3.241
 1634SOL    HW2 5583   1.744   2.183   3.193
 1635SOL     OW 5584   0.252   3.207   2.140
 1635SOL    HW1 5585   0.157   3.207   2.125
 1635SOL    HW2 5586   0.262   3.239   2.229
 1636SOL     OW 5587   0.117   2.870   3.557
 1636SOL    HW1 5588   0.052   2.908   3.616
 1636SOL    HW2 5589   0.195   2.858   3.612
 1637SOL     OW 5590   0.673   2.061   3.360
 1637SOL    HW1 5591   0.756   2.040   3.318
 1637SOL    HW2 5592   0.697   2.088   3.449
 1638SOL     OW 5593   0.072   2.188   1.895
 1638SOL    HW1 5594   4.477   2.198   1.895
 1638SOL    HW2 5595   0.104   2.270   1.857
 1639SOL     OW 5596   1.432   2.721   3.264
 1639SOL    HW1 5597   1.383   2.780   3.207
 1639SOL    HW2 5598   1.521   2.723   3.230
 1640SOL     OW 5599   0.085   2.039   2.168
 1640SOL    HW1 5600   0.078   2.111   2.105
 1640SOL    HW2 5601   0.161   1.989   2.140
 1641SOL     OW 5602   1.179   3.203   1.979
 1641SOL    HW1 5603   1.089   3.173   1.981
 1641SOL    HW2 5604   1.208   3.202   2.070
 1642SOL     OW 5605   0.621   2.693   3.291
 1642SOL    HW1 5606   0.677   2.770   3.278
 1642SOL    HW2 5607   0.683   2.621   3.300
 1643SOL     OW 5608   1.485   3.637   2.838
 1643SOL    HW1 5609   1.510   3.695   2.766
 1643SOL    HW2 5610   1.566   3.621   2.886
 1644SOL     OW 5611   0.716   2.424   3.566
 1644SOL    HW1 5612   0.751   2.489   3.627
 1644SOL    HW2 5613   0.751   2.341   3.597
 1645SOL     OW 5614   1.469   3.064   3.495
 1645SOL    HW1 5615   1.457   3.078   3.589
 1645SOL    HW2 5616   1.563   3.077   3.481
 1646SOL     OW 5617   0.382   3.604   3.426
 1646SOL    HW1 5618   0.297   3.644   3.410
 1646SOL    HW2 5619   0.363   3.523   3.473
 1647SOL     OW 5620   1.672   2.744   3.117
 1647SOL    HW1 5621   1.663   2.658   3.075
 1647SOL    HW2 5622   1.662   2.807   3.046
 1648SOL     OW 5623   1.218   2.182   2.319
 1648SOL    HW1 5624   1.281   2.110   2.311
 1648SOL    HW2 5625   1.247   2.230   2.397
 1649SOL     OW 5626   0.591   2.601   2.530
 1649SOL    HW1 5627   0.629   2.687   2.513
 1649SOL    HW2 5628   0.521   2.593   2.465
 1650SOL     OW 5629   1.762   2.228   3.518
 1650SOL    HW1 5630   1.747   2.240   3.424
 1650SOL    HW2 5631   1.691   2.171   3.546
 1651SOL     OW 5632   1.743   2.796   3.374
 1651SOL    HW1 5633   1.744   2.891   3.387
 1651SOL    HW2 5634   1.729   2.784   3.281
 1652SOL     OW 5635   0.864   3.230   1.893
 1652SOL    HW1 5636   0.823   3.256   1.976
 1652SOL    HW2 5637   0.881   3.313   1.848
 1653SOL     OW 5638   0.660   3.655   2.810
 1653SOL    HW1 5639   0.638   3.745   2.785
 1653SOL    HW2 5640   0.755   3.650   2.800
 1654SOL     OW 5641   0.867   2.828   2.718
 1654SOL    HW1 5642   0.916   2.757   2.758
 1654SOL    HW2 5643   0.833   2.878   2.792
 1655SOL     OW 5644   1.080   2.851   1.951
 1655SOL    HW1 5645   1.058   2.900   1.872
 1655SOL    HW2 5646   1.155   2.797   1.925
 1656SOL     OW 5647   1.856   3.418   2.707
 1656SOL    HW1 5648   1.779   3.407   2.651
 1656SOL    HW2 5649   1.846   3.351   2.775
 1657SOL     OW 5650   0.229   3.168   3.719
 1657SOL    HW1 5651   0.158   3.108   3.694
 1657SOL    HW2 5652   0.220   3.178   3.813
 1658SOL     OW 5653   0.103   3.100   2.529
 1658SOL    HW1 5654   0.109   3.050   2.610
 1658SOL    HW2 5655   0.163   3.056   2.469
 1659SOL     OW 5656   0.681   3.263   3.489
 1659SOL    HW1 5657   0.601   3.219   3.517
 1659SOL    HW2 5658   0.674   3.351   3.526
 1660SOL     OW 5659   1.785   2.045   3.104
 1660SOL    HW1 5660   1.835   1.969   3.134
 1660SOL    HW2 5661   1.794   2.043   3.008
 1661SOL     OW 5662   0.435   2.295   2.387
 1661SOL    HW1 5663   0.459   2.222   2.331
 1661SOL    HW2 5664   0.384   2.255   2.458
 1662SOL     OW 5665   1.701   3.352   2.961
 1662SOL    HW1 5666   1.620   3.328   2.916
 1662SOL    HW2 5667   1.714   3.284   3.027
 1663SOL     OW 5668   0.304   2.351   3.118
 1663SOL    HW1 5669   0.378   2.310   3.163
 1663SOL    HW2 5670   0.335   2.365   3.029
 1664SOL     OW 5671   0.826   3.440   2.541
 1664SOL    HW1 5672   0.817   3.487   2.458
 1664SOL    HW2 5673   0.748   3.384   2.545
 1665SOL     OW 5674   1.433   2.087   2.979
 1665SOL    HW1 5675   1.466   2.010   3.027
 1665SOL    HW2 5676   1.381   2.134   3.043
 1666SOL     OW 5677   1.008   1.882   3.007
 1666SOL    HW1 5678   0.954   1.813   2.968
 1666SOL    HW2 5679   1.096   1.845   3.009
 1667SOL     OW 5680   0.772   3.194   2.173
 1667SOL    HW1 5681   0.738   3.105   2.179
 1667SOL    HW2 5682   0.854   3.193   2.222
 1668SOL     OW 5683   0.621   3.420   3.147
 1668SOL    HW1 5684   0.623   3.501   3.197
 1668SOL    HW2 5685   0.708   3.413   3.108
 1669SOL     OW 5686   1.352   1.915   2.026
 1669SOL    HW1 5687   1.378   1.856   1.956
 1669SOL    HW2 5688   1.265   1.884   2.053
 1670SOL     OW 5689   1.297   2.322   2.545
 1670SOL    HW1 5690   1.243   2.401   2.553
 1670SOL    HW2 5691   1.294   2.282   2.631
 1671SOL     OW 5692   1.568   2.064   2.726
 1671SOL    HW1 5693   1.514   2.086   2.803
 1671SOL    HW2 5694   1.575   2.147   2.678
 1672SOL     OW 5695   0.041   2.915   2.149
 1672SOL    HW1 5696   0.136   2.902   2.141
 1672SOL    HW2 5697   0.019   2.877   2.234
 1673SOL     OW 5698   0.882   3.513   2.206
 1673SOL    HW1 5699   0.811   3.494   2.145
 1673SOL    HW2 5700   0.852   3.588   2.256
 1674SOL     OW 5701   0.249   2.489   3.843
 1674SOL    HW1 5702   0.173   2.473   3.900
 1674SOL    HW2 5703   0.217   2.470   3.755
 1675SOL     OW 5704   0.213   2.138   4.716
 1675SOL    HW1 5705   0.249   2.111   4.800
 1675SOL    HW2 5706   0.137   2.081   4.704
 1676SOL     OW 5707   0.009   2.250   4.363
 1676SOL    HW1 5708   4.429   2.280   4.406
 1676SOL    HW2 5709   4.483   2.170   4.317
 1677SOL     OW 5710   0.567   3.145   4.897
 1677SOL    HW1 5711   0.479   3.150   4.859
 1677SOL    HW2 5712   0.583   3.233   4.933
 1678SOL     OW 5713   1.557   3.373   4.431
 1678SOL    HW1 5714   1.514   3.354   4.514
 1678SOL    HW2 5715   1.486   3.378   4.367
 1679SOL     OW 5716   1.133   2.562   4.430
 1679SOL    HW1 5717   1.180   2.644   4.415
 1679SOL    HW2 5718   1.084   2.576   4.511
 1680SOL     OW 5719   1.764   2.467   3.956
 1680SOL    HW1 5720   1.745   2.461   3.862
 1680SOL    HW2 5721   1.731   2.385   3.992
 1681SOL     OW 5722   0.757   3.006   4.761
 1681SOL    HW1 5723   0.687   3.039   4.818
 1681SOL    HW2 5724   0.792   3.083   4.718
 1682SOL     OW 5725   0.863   2.639   5.544
 1682SOL    HW1 5726   0.853   2.709   5.609
 1682SOL    HW2 5727   0.886   2.684   5.463
 1683SOL     OW 5728   0.686   2.868   4.373
 1683SOL    HW1 5729   0.750   2.854   4.443
 1683SOL    HW2 5730   0.616   2.918   4.415
 1684SOL     OW 5731   0.709   3.013   5.534
 1684SOL    HW1 5732   0.756   3.092   5.559
 1684SOL    HW2 5733   0.625   3.044   5.500
 1685SOL     OW 5734   0.336   3.285   4.794
 1685SOL    HW1 5735   0.255   3.266   4.748
 1685SOL    HW2 5736   0.386   3.339   4.733
 1686SOL     OW 5737   1.468   3.360   5.058
 1686SOL    HW1 5738   1.508   3.443   5.084
 1686SOL    HW2 5739   1.429   3.326   5.139
 1687SOL     OW 5740   0.443   2.266   5.218
 1687SOL    HW1 5741   0.522   2.213   5.222
 1687SOL    HW2 5742   0.371   2.203   5.222
 1688SOL     OW 5743   0.246   3.553   4.203
 1688SOL    HW1 5744   0.232   3.638   4.246
 1688SOL    HW2 5745   0.309   3.572   4.133
 1689SOL     OW 5746   1.137   3.203   5.416
 1689SOL    HW1 5747   1.173   3.200   5.504
 1689SOL    HW2 5748   1.083   3.124   5.409
 1690SOL     OW 5749   0.246   3.289   4.252
 1690SOL    HW1 5750   0.238   3.384   4.256
 1690SOL    HW2 5751   0.181   3.257   4.315
 1691SOL     OW 5752   0.246   2.944   4.607
 1691SOL    HW1 5753   0.263   2.855   4.639
 1691SOL    HW2 5754   0.188   2.982   4.672
 1692SOL     OW 5755   0.615   3.653   5.156
 1692SOL    HW1 5756   0.532   3.635   5.199
 1692SOL    HW2 5757   0.636   3.743   5.180
 1693SOL     OW 5758   0.583   2.846   3.860
 1693SOL    HW1 5759   0.628   2.892   3.789
 1693SOL    HW2 5760   0.628   2.874   3.940
 1694SOL     OW 5761   0.137   2.506   4.299
 1694SOL    HW1 5762   0.086   2.426   4.313
 1694SOL    HW2 5763   0.106   2.566   4.367
 1695SOL     OW 5764   1.842   3.623   4.060
 1695SOL    HW1 5765   1.902   3.594   4.129
 1695SOL    HW2 5766   1.868   3.713   4.041
 1696SOL     OW 5767   0.033   3.463   3.861
 1696SOL    HW1 5768   0.021   3.368   3.862
 1696SOL    HW2 5769   0.013   3.490   3.950
 1697SOL     OW 5770   1.682   2.780   4.352
 1697SOL    HW1 5771   1.767   2.738   4.337
 1697SOL    HW2 5772   1.668   2.834   4.274
 1698SOL     OW 5773   1.645   2.971   4.152
 1698SOL    HW1 5774   1.730   2.980   4.108
 1698SOL    HW2 5775   1.649   3.032   4.225
 1699SOL     OW 5776   0.111   2.622   5.311
 1699SOL    HW1 5777   0.205   2.623   5.294
 1699SOL    HW2 5778   0.087   2.714   5.320
 1700SOL     OW 5779   0.613   3.245   4.460
 1700SOL    HW1 5780   0.566   3.162   4.469
 1700SOL    HW2 5781   0.597   3.272   4.369
 1701SOL     OW 5782   1.290   3.104   5.150
 1701SOL    HW1 5783   1.319   3.036   5.089
 1701SOL    HW2 5784   1.346   3.092   5.227
 1702SOL     OW 5785   0.814   1.861   4.230
 1702SOL    HW1 5786   0.854   1.946   4.214
 1702SOL    HW2 5787   0.720   1.879   4.241
 1703SOL     OW 5788   0.182   2.805   5.003
 1703SOL    HW1 5789   0.274   2.788   4.980
 1703SOL    HW2 5790   0.133   2.783   4.924
 1704SOL     OW 5791   1.532   2.853   3.921
 1704SOL    HW1 5792   1.462   2.795   3.950
 1704SOL    HW2 5793   1.570   2.888   4.001
 1705SOL     OW 5794   1.186   3.667   5.345
 1705SOL    HW1 5795   1.199   3.723   5.269
 1705SOL    HW2 5796   1.199   3.578   5.312
 1706SOL     OW 5797   0.330   2.118   5.521
 1706SOL    HW1 5798   0.380   2.192   5.554
 1706SOL    HW2 5799   0.243   2.127   5.561
 1707SOL     OW 5800   1.468   3.282   4.680
 1707SOL    HW1 5801   1.397   3.295   4.743
 1707SOL    HW2 5802   1.456   3.192   4.649
 1708SOL     OW 5803   1.662   3.594   4.302
 1708SOL    HW1 5804   1.639   3.568   4.213
 1708SOL    HW2 5805   1.633   3.522   4.357
 1709SOL     OW 5806   0.598   2.584   3.989
 1709SOL    HW1 5807   0.601   2.664   3.937
 1709SOL    HW2 5808   0.532   2.602   4.056
 1710SOL     OW 5809   1.271   2.216   4.672
 1710SOL    HW1 5810   1.182   2.180   4.671
 1710SOL    HW2 5811   1.324   2.147   4.713
 1711SOL     OW 5812   1.582   3.531   4.033
 1711SOL    HW1 5813   1.671   3.565   4.026
 1711SOL    HW2 5814   1.556   3.514   3.942
 1712SOL     OW 5815   0.799   2.478   5.176
 1712SOL    HW1 5816   0.770   2.457   5.265
 1712SOL    HW2 5817   0.754   2.415   5.121
 1713SOL     OW 5818   0.957   2.748   5.305
 1713SOL    HW1 5819   1.014   2.679   5.270
 1713SOL    HW2 5820   0.912   2.783   5.228
 1714SOL     OW 5821   0.985   2.266   4.981
 1714SOL    HW1 5822   0.896   2.295   5.004
 1714SOL    HW2 5823   0.977   2.232   4.892
 1715SOL     OW 5824   1.050   2.560   4.151
 1715SOL    HW1 5825   1.064   2.552   4.245
 1715SOL    HW2 5826   0.968   2.513   4.135
 1716SOL     OW 5827   0.098   2.687   4.507
 1716SOL    HW1 5828   0.184   2.668   4.544
 1716SOL    HW2 5829   0.050   2.728   4.580
 1717SOL     OW 5830   0.126   3.713   5.299
 1717SOL    HW1 5831   0.118   3.691   5.392
 1717SOL    HW2 5832   0.044   3.681   5.261
 1718SOL     OW 5833   0.889   2.209   3.919
 1718SOL    HW1 5834   0.931   2.270   3.858
 1718SOL    HW2 5835   0.905   2.122   3.881
 1719SOL     OW 5836   1.374   3.005   4.266
 1719SOL    HW1 5837   1.452   2.991   4.213
 1719SOL    HW2 5838   1.321   3.067   4.217
 1720SOL     OW 5839   0.551   2.046   4.617
 1720SOL    HW1 5840   0.553   2.075   4.708
 1720SOL    HW2 5841   0.552   2.127   4.566
 1721SOL     OW 5842   1.008   3.307   4.197
 1721SOL    HW1 5843   0.968   3.379   4.148
 1721SOL    HW2 5844   0.992   3.329   4.289
 1722SOL     OW 5845   0.355   3.670   4.581
 1722SOL    HW1 5846   0.397   3.585   4.591
 1722SOL    HW2 5847   0.425   3.734   4.595
 1723SOL     OW 5848   1.806   2.913   4.577
 1723SOL    HW1 5849   1.738   2.900   4.511
 1723SOL    HW2 5850   1.758   2.936   4.657
 1724SOL     OW 5851   1.225   3.405   5.238
 1724SOL    HW1 5852   1.215   3.329   5.296
 1724SOL    HW2 5853   1.171   3.385   5.162
 1725SOL     OW 5854   0.317   2.816   3.974
 1725SOL    HW1 5855   0.401   2.838   3.934
 1725SOL    HW2 5856   0.299   2.727   3.945
 1726SOL     OW 5857   0.466   3.123   5.459
 1726SOL    HW1 5858   0.438   3.130   5.368
 1726SOL    HW2 5859   0.385   3.129   5.509
 1727SOL     OW 5860   1.121   3.639   3.956
 1727SOL    HW1 5861   1.049   3.597   4.002
 1727SOL    HW2 5862   1.142   3.579   3.884
 1728SOL     OW 5863   0.196   2.140   5.211
 1728SOL    HW1 5864   0.133   2.212   5.215
 1728SOL    HW2 5865   0.184   2.093   5.294
 1729SOL     OW 5866   1.629   3.241   3.811
 1729SOL    HW1 5867   1.588   3.326   3.796
 1729SOL    HW2 5868   1.560   3.178   3.792
 1730SOL     OW 5869   0.469   3.606   4.038
 1730SOL    HW1 5870   0.509   3.658   4.108
 1730SOL    HW2 5871   0.543   3.573   3.987
 1731SOL     OW 5872   1.400   1.970   4.154
 1731SOL    HW1 5873   1.388   1.944   4.062
 1731SOL    HW2 5874   1.495   1.973   4.166
 1732SOL     OW 5875   0.261   3.656   4.957
 1732SOL    HW1 5876   0.306   3.582   4.997
 1732SOL    HW2 5877   0.227   3.622   4.874
 1733SOL     OW 5878   0.938   3.561   4.624
 1733SOL    HW1 5879   1.014   3.507   4.646
 1733SOL    HW2 5880   0.893   3.511   4.555
 1734SOL     OW 5881   0.393   2.557   4.198
 1734SOL    HW1 5882   0.417   2.465   4.208
 1734SOL    HW2 5883   0.301   2.560   4.224
 1735SOL     OW 5884   1.540   2.051   5.471
 1735SOL    HW1 5885   1.529   2.061   5.566
 1735SOL    HW2 5886   1.458   2.009   5.442
 1736SOL     OW 5887   0.632   1.988   3.828
 1736SOL    HW1 5888   0.703   1.926   3.843
 1736SOL    HW2 5889   0.585   1.954   3.752
 1737SOL     OW 5890   0.767   2.140   5.478
 1737SOL    HW1 5891   0.842   2.079   5.480
 1737SOL    HW2 5892   0.716   2.118   5.556
 1738SOL     OW 5893   0.878   3.384   4.917
 1738SOL    HW1 5894   0.862   3.347   4.830
 1738SOL    HW2 5895   0.946   3.328   4.954
 1739SOL     OW 5896   0.814   3.259   4.661
 1739SOL    HW1 5897   0.897   3.249   4.616
 1739SOL    HW2 5898   0.748   3.258   4.591
 1740SOL     OW 5899   0.927   2.371   4.628
 1740SOL    HW1 5900   0.904   2.363   4.536
 1740SOL    HW2 5901   0.960   2.284   4.652
 1741SOL     OW 5902   0.551   1.924   4.228
 1741SOL    HW1 5903   0.470   1.923   4.279
 1741SOL    HW2 5904   0.544   2.002   4.174
 1742SOL     OW 5905   1.429   3.060   3.765
 1742SOL    HW1 5906   1.458   2.984   3.815
 1742SOL    HW2 5907   1.342   3.080   3.802
 1743SOL     OW 5908   0.295   1.908   3.902
 1743SOL    HW1 5909   0.357   1.976   3.875
 1743SOL    HW2 5910   0.349   1.842   3.946
 1744SOL     OW 5911   0.936   2.107   4.187
 1744SOL    HW1 5912   0.908   2.149   4.106
 1744SOL    HW2 5913   1.031   2.119   4.189
 1745SOL     OW 5914   1.080   2.534   5.183
 1745SOL    HW1 5915   0.996   2.488   5.188
 1745SOL    HW2 5916   1.144   2.464   5.167
 1746SOL     OW 5917   1.226   3.430   4.517
 1746SOL    HW1 5918   1.243   3.499   4.453
 1746SOL    HW2 5919   1.291   3.443   4.585
 1747SOL     OW 5920   0.465   3.010   4.461
 1747SOL    HW1 5921   0.394   2.991   4.522
 1747SOL    HW2 5922   0.428   2.994   4.374
 1748SOL     OW 5923   1.271   3.657   4.330
 1748SOL    HW1 5924   1.315   3.718   4.272
 1748SOL    HW2 5925   1.205   3.709   4.376
 1749SOL     OW 5926   1.025   2.407   3.744
 1749SOL    HW1 5927   0.982   2.490   3.724
 1749SOL    HW2 5928   1.089   2.429   3.811
 1750SOL     OW 5929   0.082   2.393   5.132
 1750SOL    HW1 5930   0.149   2.394   5.064
 1750SOL    HW2 5931   0.067   2.486   5.153
 1751SOL     OW 5932   0.561   2.090   4.889
 1751SOL    HW1 5933   0.601   2.009   4.921
 1751SOL    HW2 5934   0.470   2.083   4.916
 1752SOL     OW 5935   0.871   2.323   4.364
 1752SOL    HW1 5936   0.821   2.375   4.301
 1752SOL    HW2 5937   0.889   2.241   4.317
 1753SOL     OW 5938   1.014   1.915   4.477
 1753SOL    HW1 5939   0.956   1.907   4.401
 1753SOL    HW2 5940   0.993   1.838   4.531
 1754SOL     OW 5941   1.435   3.036   4.571
 1754SOL    HW1 5942   1.380   2.960   4.591
 1754SOL    HW2 5943   1.444   3.035   4.476
 1755SOL     OW 5944   1.849   2.679   4.107
 1755SOL    HW1 5945   1.907   2.625   4.161
 1755SOL    HW2 5946   1.819   2.621   4.038
 1756SOL     OW 5947   0.492   3.276   3.885
 1756SOL    HW1 5948   0.416   3.247   3.935
 1756SOL    HW2 5949   0.471   3.255   3.794
 1757SOL     OW 5950   1.671   3.129   4.368
 1757SOL    HW1 5951   1.765   3.140   4.383
 1757SOL    HW2 5952   1.633   3.213   4.393
 1758SOL     OW 5953   1.394   2.434   3.795
 1758SOL    HW1 5954   1.333   2.415   3.867
 1758SOL    HW2 5955   1.478   2.398   3.825
 1759SOL     OW 5956   0.525   2.122   4.043
 1759SOL    HW1 5957   0.568   2.075   3.973
 1759SOL    HW2 5958   0.507   2.209   4.007
 1760SOL     OW 5959   1.743   3.114   5.316
 1760SOL    HW1 5960   1.824   3.063   5.308
 1760SOL    HW2 5961   1.771   3.203   5.332
 1761SOL     OW 5962   1.060   3.214   5.057
 1761SOL    HW1 5963   0.985   3.184   5.109
 1761SOL    HW2 5964   1.136   3.174   5.099
 1762SOL     OW 5965   1.608   3.488   5.377
 1762SOL    HW1 5966   1.603   3.522   5.288
 1762SOL    HW2 5967   1.690   3.439   5.380
 1763SOL     OW 5968   1.124   3.062   4.830
 1763SOL    HW1 5969   1.068   3.103   4.897
 1763SOL    HW2 5970   1.091   3.096   4.747
 1764SOL     OW 5971   0.919   1.960   5.124
 1764SOL    HW1 5972   0.945   1.942   5.034
 1764SOL    HW2 5973   0.986   2.020   5.157
 1765SOL     OW 5974   0.984   2.978   5.443
 1765SOL    HW1 5975   0.891   2.991   5.465
 1765SOL    HW2 5976   0.984   2.899   5.389
 1766SOL     OW 5977   0.708   2.923   4.096
 1766SOL    HW1 5978   0.695   2.908   4.190
 1766SOL    HW2 5979   0.784   2.869   4.074
 1767SOL     OW 5980   0.430   2.685   4.963
 1767SOL    HW1 5981   0.499   2.697   5.028
 1767SOL    HW2 5982   0.370   2.621   5.003
 1768SOL     OW 5983   0.061   3.438   5.063
 1768SOL    HW1 5984   0.033   3.527   5.042
 1768SOL    HW2 5985   0.156   3.444   5.071
 1769SOL     OW 5986   0.351   2.969   4.217
 1769SOL    HW1 5987   0.358   3.042   4.156
 1769SOL    HW2 5988   0.351   2.891   4.161
 1770SOL     OW 5989   0.562   2.396   4.580
 1770SOL    HW1 5990   0.576   2.456   4.507
 1770SOL    HW2 5991   0.621   2.429   4.649
 1771SOL     OW 5992   1.248   3.210   4.114
 1771SOL    HW1 5993   1.303   3.282   4.144
 1771SOL    HW2 5994   1.161   3.231   4.147
 1772SOL     OW 5995   1.276   3.319   4.868
 1772SOL    HW1 5996   1.336   3.323   4.942
 1772SOL    HW2 5997   1.224   3.240   4.884
 1773SOL     OW 5998   1.592   2.491   4.203
 1773SOL    HW1 5999   1.560   2.561   4.261
 1773SOL    HW2 6000   1.634   2.538   4.131
 1774SOL     OW 6001   0.348   3.392   5.041
 1774SOL    HW1 6002   0.333   3.345   4.959
 1774SOL    HW2 6003   0.443   3.402   5.046
 1775SOL     OW 6004   0.474   2.621   5.386
 1775SOL    HW1 6005   0.503   2.660   5.303
 1775SOL    HW2 6006   0.510   2.532   5.384
 1776SOL     OW 6007   0.995   1.983   5.478
 1776SOL    HW1 6008   1.050   2.058   5.456
 1776SOL    HW2 6009   1.046   1.907   5.451
 1777SOL     OW 6010   0.498   1.906   5.470
 1777SOL    HW1 6011   0.458   1.849   5.404
 1777SOL    HW2 6012   0.437   1.979   5.479
 1778SOL     OW 6013   0.590   2.735   4.748
 1778SOL    HW1 6014   0.617   2.827   4.750
 1778SOL    HW2 6015   0.532   2.726   4.824
 1779SOL     OW 6016   1.359   2.729   4.757
 1779SOL    HW1 6017   1.278   2.704   4.713
 1779SOL    HW2 6018   1.407   2.647   4.769
 1780SOL     OW 6019   1.208   2.391   3.993
 1780SOL    HW1 6020   1.215   2.312   4.047
 1780SOL    HW2 6021   1.164   2.455   4.049
 1781SOL     OW 6022   0.303   2.055   4.966
 1781SOL    HW1 6023   0.264   2.090   5.046
 1781SOL    HW2 6024   0.285   1.961   4.969
 1782SOL     OW 6025   0.045   3.174   5.008
 1782SOL    HW1 6026   0.077   3.128   5.085
 1782SOL    HW2 6027   0.048   3.267   5.033
 1783SOL     OW 6028   0.726   2.495   4.784
 1783SOL    HW1 6029   0.799   2.476   4.724
 1783SOL    HW2 6030   0.698   2.583   4.761
 1784SOL     OW 6031   0.309   1.932   4.343
 1784SOL    HW1 6032   0.286   2.021   4.371
 1784SOL    HW2 6033   0.305   1.880   4.423
 1785SOL     OW 6034   1.615   2.236   4.092
 1785SOL    HW1 6035   1.640   2.170   4.157
 1785SOL    HW2 6036   1.589   2.312   4.144
 1786SOL     OW 6037   1.029   2.620   4.686
 1786SOL    HW1 6038   1.026   2.639   4.780
 1786SOL    HW2 6039   1.001   2.529   4.679
 1787SOL     OW 6040   0.983   3.428   5.439
 1787SOL    HW1 6041   0.967   3.472   5.356
 1787SOL    HW2 6042   1.026   3.346   5.415
 1788SOL     OW 6043   1.858   3.369   5.331
 1788SOL    HW1 6044   1.873   3.406   5.243
 1788SOL    HW2 6045   1.939   3.389   5.378
 1789SOL     OW 6046   0.347   2.793   5.542
 1789SOL    HW1 6047   0.421   2.821   5.596
 1789SOL    HW2 6048   0.384   2.727   5.484
 1790SOL     OW 6049   1.530   2.136   3.852
 1790SOL    HW1 6050   1.465   2.070   3.878
 1790SOL    HW2 6051   1.562   2.172   3.934
 1791SOL     OW 6052   1.295   2.690   3.758
 1791SOL    HW1 6053   1.336   2.603   3.760
 1791SOL    HW2 6054   1.325   2.728   3.675
 1792SOL     OW 6055   1.064   3.198   4.576
 1792SOL    HW1 6056   1.068   3.124   4.515
 1792SOL    HW2 6057   1.128   3.261   4.543
 1793SOL     OW 6058   0.317   2.674   4.673
 1793SOL    HW1 6059   0.411   2.691   4.669
 1793SOL    HW2 6060   0.310   2.583   4.703
 1794SOL     OW 6061   0.333   2.385   4.716
 1794SOL    HW1 6062   0.294   2.299   4.701
 1794SOL    HW2 6063   0.411   2.387   4.660
 1795SOL     OW 6064   1.124   2.232   5.426
 1795SOL    HW1 6065   1.080   2.295   5.483
 1795SOL    HW2 6066   1.212   2.268   5.413
 1796SOL     OW 6067   4.492   3.185   3.926
 1796SOL    HW1 6068   4.399   3.200   3.909
 1796SOL    HW2 6069   4.497   3.092   3.949
 1797SOL     OW 6070   0.096   3.642   4.664
 1797SOL    HW1 6071   0.057   3.584   4.599
 1797SOL    HW2 6072   0.183   3.662   4.631
 1798SOL     OW 6073   0.498   3.435   4.630
 1798SOL    HW1 6074   0.566   3.498   4.654
 1798SOL    HW2 6075   0.543   3.371   4.575
 1799SOL     OW 6076   0.987   2.654   4.951
 1799SOL    HW1 6077   1.041   2.630   5.027
 1799SOL    HW2 6078   0.900   2.621   4.972
 1800SOL     OW 6079   0.037   2.424   4.830
 1800SOL    HW1 6080   0.119   2.388   4.798
 1800SOL    HW2 6081   0.024   2.384   4.916
 1801SOL     OW 6082   0.179   2.378   5.437
 1801SOL    HW1 6083   0.258   2.350   5.391
 1801SOL    HW2 6084   0.154   2.460   5.394
 1802SOL     OW 6085   1.331   2.815   5.384
 1802SOL    HW1 6086   1.367   2.903   5.383
 1802SOL    HW2 6087   1.334   2.787   5.293
 1803SOL     OW 6088   0.817   2.431   4.080
 1803SOL    HW1 6089   0.819   2.356   4.021
 1803SOL    HW2 6090   0.742   2.483   4.050
 1804SOL     OW 6091   0.272   3.423   5.465
 1804SOL    HW1 6092   0.217   3.476   5.523
 1804SOL    HW2 6093   0.251   3.333   5.489
 1805SOL     OW 6094   0.690   2.318   4.988
 1805SOL    HW1 6095   0.645   2.240   4.954
 1805SOL    HW2 6096   0.691   2.379   4.914
 1806SOL     OW 6097   0.928   3.541   5.191
 1806SOL    HW1 6098   0.903   3.509   5.105
 1806SOL    HW2 6099   0.926   3.637   5.182
 1807SOL     OW 6100   0.473   2.352   3.912
 1807SOL    HW1 6101   0.531   2.425   3.933
 1807SOL    HW2 6102   0.388   2.394   3.897
 1808SOL     OW 6103   0.162   3.003   5.187
 1808SOL    HW1 6104   0.147   2.955   5.269
 1808SOL    HW2 6105   0.170   2.934   5.121
 1809SOL     OW 6106   1.335   2.922   4.952
 1809SOL    HW1 6107   1.362   2.853   4.892
 1809SOL    HW2 6108   1.260   2.963   4.909
 1810SOL     OW 6109   1.309   2.716   4.032
 1810SOL    HW1 6110   1.231   2.688   4.079
 1810SOL    HW2 6111   1.288   2.705   3.940
 1811SOL     OW 6112   1.771   3.610   4.873
 1811SOL    HW1 6113   1.830   3.637   4.803
 1811SOL    HW2 6114   1.746   3.520   4.851
 1812SOL     OW 6115   1.241   3.595   4.840
 1812SOL    HW1 6116   1.323   3.613   4.793
 1812SOL    HW2 6117   1.244   3.502   4.859
 1813SOL     OW 6118   0.068   3.049   4.772
 1813SOL    HW1 6119   0.071   3.083   4.862
 1813SOL    HW2 6120   0.014   3.113   4.725
 1814SOL     OW 6121   0.679   3.526   5.450
 1814SOL    HW1 6122   0.625   3.605   5.446
 1814SOL    HW2 6123   0.741   3.536   5.378
 1815SOL     OW 6124   1.722   2.008   4.238
 1815SOL    HW1 6125   1.792   1.991   4.175
 1815SOL    HW2 6126   1.701   1.922   4.274
 1816SOL     OW 6127   1.390   3.430   4.207
 1816SOL    HW1 6128   1.451   3.462   4.140
 1816SOL    HW2 6129   1.342   3.507   4.235
 1817SOL     OW 6130   0.120   3.669   5.571
 1817SOL    HW1 6131   0.081   3.596   5.618
 1817SOL    HW2 6132   0.183   3.706   5.633
 1818SOL     OW 6133   1.286   2.784   4.392
 1818SOL    HW1 6134   1.366   2.731   4.387
 1818SOL    HW2 6135   1.307   2.865   4.346
 1819SOL     OW 6136   0.817   3.134   5.155
 1819SOL    HW1 6137   0.791   3.173   5.239
 1819SOL    HW2 6138   0.746   3.156   5.095
 1820SOL     OW 6139   0.673   3.479   3.879
 1820SOL    HW1 6140   0.681   3.490   3.784
 1820SOL    HW2 6141   0.619   3.401   3.889
 1821SOL     OW 6142   1.630   3.589   5.117
 1821SOL    HW1 6143   1.678   3.597   5.035
 1821SOL    HW2 6144   1.616   3.680   5.145
 1822SOL     OW 6145   0.266   2.182   4.443
 1822SOL    HW1 6146   0.183   2.221   4.415
 1822SOL    HW2 6147   0.255   2.170   4.538
 1823SOL     OW 6148   1.206   3.469   3.755
 1823SOL    HW1 6149   1.197   3.378   3.782
 1823SOL    HW2 6150   1.141   3.480   3.686
 1824SOL     OW 6151   0.827   2.868   5.095
 1824SOL    HW1 6152   0.868   2.868   5.008
 1824SOL    HW2 6153   0.826   2.960   5.120
 1825SOL     OW 6154   0.916   2.773   4.014
 1825SOL    HW1 6155   0.977   2.805   3.947
 1825SOL    HW2 6156   0.962   2.701   4.057
 1826SOL     OW 6157   1.494   3.486   3.766
 1826SOL    HW1 6158   1.399   3.482   3.754
 1826SOL    HW2 6159   1.529   3.493   3.677
 1827SOL     OW 6160   0.373   3.167   5.215
 1827SOL    HW1 6161   0.356   3.246   5.163
 1827SOL    HW2 6162   0.297   3.111   5.199
 1828SOL     OW 6163   1.049   2.968   4.429
 1828SOL    HW1 6164   0.978   2.918   4.471
 1828SOL    HW2 6165   1.107   2.901   4.392
 1829SOL     OW 6166   1.019   2.101   4.689
 1829SOL    HW1 6167   1.014   2.052   4.607
 1829SOL    HW2 6168   1.013   2.034   4.757
 1830SOL     OW 6169   0.603   3.352   4.207
 1830SOL    HW1 6170   0.642   3.301   4.135
 1830SOL    HW2 6171   0.531   3.399   4.166
 1831SOL     OW 6172   0.252   3.207   4.002
 1831SOL    HW1 6173   0.157   3.207   3.987
 1831SOL    HW2 6174   0.262   3.239   4.091
 1832SOL     OW 6175   0.117   2.869   5.419
 1832SOL    HW1 6176   0.052   2.909   5.478
 1832SOL    HW2 6177   0.194   2.858   5.474
 1833SOL     OW 6178   0.672   2.061   5.223
 1833SOL    HW1 6179   0.755   2.040   5.181
 1833SOL    HW2 6180   0.696   2.088   5.311
 1834SOL     OW 6181   0.072   2.188   3.757
 1834SOL    HW1 6182   4.477   2.197   3.757
 1834SOL    HW2 6183   0.104   2.270   3.719
 1835SOL     OW 6184   0.085   2.039   4.030
 1835SOL    HW1 6185   0.078   2.111   3.967
 1835SOL    HW2 6186   0.161   1.989   4.002
 1836SOL     OW 6187   1.180   3.203   3.841
 1836SOL    HW1 6188   1.088   3.174   3.843
 1836SOL    HW2 6189   1.207   3.202   3.932
 1837SOL     OW 6190   0.622   2.693   5.153
 1837SOL    HW1 6191   0.677   2.771   5.140
 1837SOL    HW2 6192   0.684   2.621   5.163
 1838SOL     OW 6193   1.485   3.637   4.699
 1838SOL    HW1 6194   1.510   3.696   4.628
 1838SOL    HW2 6195   1.565   3.623   4.748
 1839SOL     OW 6196   0.716   2.425   5.426
 1839SOL    HW1 6197   0.749   2.490   5.489
 1839SOL    HW2 6198   0.749   2.341   5.459
 1840SOL     OW 6199   1.467   3.063   5.360
 1840SOL    HW1 6200   1.459   3.078   5.454
 1840SOL    HW2 6201   1.559   3.083   5.341
 1841SOL     OW 6202   0.382   3.605   5.288
 1841SOL    HW1 6203   0.296   3.644   5.272
 1841SOL    HW2 6204   0.363   3.523   5.335
 1842SOL     OW 6205   1.219   2.183   4.182
 1842SOL    HW1 6206   1.282   2.111   4.174
 1842SOL    HW2 6207   1.247   2.230   4.261
 1843SOL     OW 6208   0.591   2.601   4.391
 1843SOL    HW1 6209   0.629   2.688   4.375
 1843SOL    HW2 6210   0.521   2.593   4.327
 1844SOL     OW 6211   0.864   3.230   3.756
 1844SOL    HW1 6212   0.823   3.256   3.838
 1844SOL    HW2 6213   0.881   3.313   3.710
 1845SOL     OW 6214   0.660   3.655   4.672
 1845SOL    HW1 6215   0.638   3.745   4.647
 1845SOL    HW2 6216   0.755   3.650   4.663
 1846SOL     OW 6217   0.867   2.828   4.580
 1846SOL    HW1 6218   0.917   2.757   4.621
 1846SOL    HW2 6219   0.833   2.879   4.653
 1847SOL     OW 6220   1.081   2.850   3.813
 1847SOL    HW1 6221   1.057   2.900   3.735
 1847SOL    HW2 6222   1.155   2.797   3.787
 1848SOL     OW 6223   1.855   3.412   4.571
 1848SOL    HW1 6224   1.781   3.411   4.510
 1848SOL    HW2 6225   1.824   3.364   4.647
 1849SOL     OW 6226   0.229   3.168   5.581
 1849SOL    HW1 6227   0.158   3.108   5.557
 1849SOL    HW2 6228   0.220   3.178   5.675
 1850SOL     OW 6229   0.103   3.100   4.391
 1850SOL    HW1 6230   0.109   3.051   4.472
 1850SOL    HW2 6231   0.163   3.056   4.331
 1851SOL     OW 6232   0.680   3.263   5.350
 1851SOL    HW1 6233   0.600   3.219   5.379
 1851SOL    HW2 6234   0.675   3.351   5.388
 1852SOL     OW 6235   0.435   2.295   4.250
 1852SOL    HW1 6236   0.459   2.222   4.193
 1852SOL    HW2 6237   0.384   2.256   4.320
 1853SOL     OW 6238   1.706   3.354   4.816
 1853SOL    HW1 6239   1.620   3.329   4.783
 1853SOL    HW2 6240   1.717   3.303   4.896
 1854SOL     OW 6241   0.304   2.351   4.980
 1854SOL    HW1 6242   0.378   2.310   5.025
 1854SOL    HW2 6243   0.336   2.365   4.891
 1855SOL     OW 6244   0.826   3.440   4.403
 1855SOL    HW1 6245   0.817   3.487   4.320
 1855SOL    HW2 6246   0.748   3.384   4.407
 1856SOL     OW 6247   1.010   1.882   4.870
 1856SOL    HW1 6248   0.953   1.816   4.832
 1856SOL    HW2 6249   1.097   1.842   4.870
 1857SOL     OW 6250   0.772   3.194   4.034
 1857SOL    HW1 6251   0.738   3.105   4.042
 1857SOL    HW2 6252   0.854   3.193   4.084
 1858SOL     OW 6253   0.621   3.420   5.008
 1858SOL    HW1 6254   0.623   3.501   5.059
 1858SOL    HW2 6255   0.708   3.413   4.970
 1859SOL     OW 6256   1.352   1.915   3.888
 1859SOL    HW1 6257   1.378   1.855   3.818
 1859SOL    HW2 6258   1.265   1.884   3.915
 1860SOL     OW 6259   1.292   2.321   4.411
 1860SOL    HW1 6260   1.234   2.397   4.422
 1860SOL    HW2 6261   1.295   2.282   4.498
 1861SOL     OW 6262   1.525   2.087   4.574
 1861SOL    HW1 6263   1.547   2.087   4.667
 1861SOL    HW2 6264   1.571   2.163   4.538
 1862SOL     OW 6265   0.041   2.915   4.011
 1862SOL    HW1 6266   0.136   2.902   4.003
 1862SOL    HW2 6267   0.019   2.877   4.096
 1863SOL     OW 6268   0.883   3.513   4.068
 1863SOL    HW1 6269   0.811   3.494   4.007
 1863SOL    HW2 6270   0.852   3.588   4.118
 1864SOL     OW 6271   0.249   2.488   5.705
 1864SOL    HW1 6272   0.174   2.473   5.762
 1864SOL    HW2 6273   0.216   2.470   5.616
 1865SOL     OW 6274   0.213   2.138   6.578
 1865SOL    HW1 6275   0.250   2.111   6.662
 1865SOL    HW2 6276   0.137   2.081   6.566
 1866SOL     OW 6277   0.009   2.250   6.226
 1866SOL    HW1 6278   4.429   2.281   6.267
 1866SOL    HW2 6279   4.483   2.170   6.179
 1867SOL     OW 6280   0.567   3.145   6.759
 1867SOL    HW1 6281   0.479   3.150   6.721
 1867SOL    HW2 6282   0.582   3.233   6.795
 1868SOL     OW 6283   1.562   3.375   6.292
 1868SOL    HW1 6284   1.520   3.350   6.374
 1868SOL    HW2 6285   1.492   3.374   6.227
 1869SOL     OW 6286   1.127   2.566   6.288
 1869SOL    HW1 6287   1.180   2.644   6.275
 1869SOL    HW2 6288   1.082   2.581   6.371
 1870SOL     OW 6289   0.758   3.006   6.625
 1870SOL    HW1 6290   0.688   3.040   6.681
 1870SOL    HW2 6291   0.792   3.083   6.580
 1871SOL     OW 6292   0.863   2.640   7.407
 1871SOL    HW1 6293   0.850   2.711   7.469
 1871SOL    HW2 6294   0.887   2.684   7.325
 1872SOL     OW 6295   0.686   2.868   6.235
 1872SOL    HW1 6296   0.750   2.854   6.304
 1872SOL    HW2 6297   0.616   2.918   6.277
 1873SOL     OW 6298   0.709   3.013   7.396
 1873SOL    HW1 6299   0.756   3.092   7.421
 1873SOL    HW2 6300   0.625   3.044   7.362
 1874SOL     OW 6301   0.336   3.285   6.656
 1874SOL    HW1 6302   0.255   3.265   6.609
 1874SOL    HW2 6303   0.386   3.339   6.595
 1875SOL     OW 6304   1.461   3.360   6.937
 1875SOL    HW1 6305   1.507   3.443   6.947
 1875SOL    HW2 6306   1.404   3.355   7.014
 1876SOL     OW 6307   0.443   2.266   7.081
 1876SOL    HW1 6308   0.523   2.214   7.084
 1876SOL    HW2 6309   0.372   2.202   7.084
 1877SOL     OW 6310   0.246   3.553   6.065
 1877SOL    HW1 6311   0.232   3.638   6.107
 1877SOL    HW2 6312   0.309   3.571   5.995
 1878SOL     OW 6313   1.136   3.203   7.277
 1878SOL    HW1 6314   1.176   3.199   7.364
 1878SOL    HW2 6315   1.083   3.123   7.272
 1879SOL     OW 6316   0.246   3.289   6.114
 1879SOL    HW1 6317   0.238   3.384   6.118
 1879SOL    HW2 6318   0.181   3.257   6.177
 1880SOL     OW 6319   0.246   2.943   6.469
 1880SOL    HW1 6320   0.263   2.855   6.501
 1880SOL    HW2 6321   0.188   2.982   6.535
 1881SOL     OW 6322   0.616   3.652   7.018
 1881SOL    HW1 6323   0.532   3.635   7.061
 1881SOL    HW2 6324   0.636   3.743   7.042
 1882SOL     OW 6325   0.583   2.846   5.722
 1882SOL    HW1 6326   0.629   2.892   5.651
 1882SOL    HW2 6327   0.628   2.873   5.801
 1883SOL     OW 6328   1.594   1.985   7.054
 1883SOL    HW1 6329   1.600   2.067   7.005
 1883SOL    HW2 6330   1.584   2.013   7.145
 1884SOL     OW 6331   0.137   2.506   6.161
 1884SOL    HW1 6332   0.086   2.426   6.175
 1884SOL    HW2 6333   0.106   2.566   6.229
 1885SOL     OW 6334   1.841   3.622   5.919
 1885SOL    HW1 6335   1.900   3.593   5.989
 1885SOL    HW2 6336   1.868   3.713   5.902
 1886SOL     OW 6337   0.033   3.463   5.723
 1886SOL    HW1 6338   0.021   3.368   5.724
 1886SOL    HW2 6339   0.013   3.490   5.812
 1887SOL     OW 6340   0.111   2.622   7.174
 1887SOL    HW1 6341   0.205   2.623   7.155
 1887SOL    HW2 6342   0.088   2.714   7.182
 1888SOL     OW 6343   0.613   3.245   6.322
 1888SOL    HW1 6344   0.566   3.162   6.331
 1888SOL    HW2 6345   0.597   3.272   6.231
 1889SOL     OW 6346   1.290   3.101   7.010
 1889SOL    HW1 6347   1.323   3.033   6.950
 1889SOL    HW2 6348   1.346   3.093   7.088
 1890SOL     OW 6349   0.812   1.860   6.093
 1890SOL    HW1 6350   0.850   1.946   6.076
 1890SOL    HW2 6351   0.718   1.877   6.104
 1891SOL     OW 6352   0.182   2.805   6.865
 1891SOL    HW1 6353   0.274   2.788   6.843
 1891SOL    HW2 6354   0.133   2.783   6.786
 1892SOL     OW 6355   1.186   3.667   7.207
 1892SOL    HW1 6356   1.199   3.724   7.131
 1892SOL    HW2 6357   1.201   3.578   7.173
 1893SOL     OW 6358   0.329   2.118   7.382
 1893SOL    HW1 6359   0.381   2.190   7.416
 1893SOL    HW2 6360   0.243   2.127   7.423
 1894SOL     OW 6361   1.466   3.280   6.540
 1894SOL    HW1 6362   1.398   3.297   6.604
 1894SOL    HW2 6363   1.455   3.187   6.517
 1895SOL     OW 6364   1.661   3.597   6.163
 1895SOL    HW1 6365   1.636   3.567   6.075
 1895SOL    HW2 6366   1.639   3.524   6.220
 1896SOL     OW 6367   0.598   2.584   5.851
 1896SOL    HW1 6368   0.603   2.664   5.799
 1896SOL    HW2 6369   0.532   2.602   5.918
 1897SOL     OW 6370   1.282   2.214   6.531
 1897SOL    HW1 6371   1.194   2.178   6.538
 1897SOL    HW2 6372   1.336   2.157   6.586
 1898SOL     OW 6373   1.581   3.531   5.895
 1898SOL    HW1 6374   1.670   3.566   5.889
 1898SOL    HW2 6375   1.555   3.515   5.804
 1899SOL     OW 6376   0.794   2.478   7.038
 1899SOL    HW1 6377   0.768   2.455   7.127
 1899SOL    HW2 6378   0.750   2.414   6.983
 1900SOL     OW 6379   1.394   2.336   7.264
 1900SOL    HW1 6380   1.395   2.380   7.349
 1900SOL    HW2 6381   1.457   2.265   7.273
 1901SOL     OW 6382   0.957   2.750   7.167
 1901SOL    HW1 6383   1.011   2.679   7.132
 1901SOL    HW2 6384   0.910   2.784   7.091
 1902SOL     OW 6385   0.993   2.275   6.825
 1902SOL    HW1 6386   0.909   2.298   6.866
 1902SOL    HW2 6387   0.968   2.228   6.745
 1903SOL     OW 6388   1.047   2.566   6.010
 1903SOL    HW1 6389   1.066   2.554   6.103
 1903SOL    HW2 6390   0.968   2.514   5.995
 1904SOL     OW 6391   0.098   2.687   6.369
 1904SOL    HW1 6392   0.184   2.667   6.406
 1904SOL    HW2 6393   0.050   2.728   6.441
 1905SOL     OW 6394   0.126   3.713   7.161
 1905SOL    HW1 6395   0.118   3.691   7.254
 1905SOL    HW2 6396   0.044   3.681   7.123
 1906SOL     OW 6397   0.893   2.207   5.782
 1906SOL    HW1 6398   0.929   2.269   5.719
 1906SOL    HW2 6399   0.903   2.122   5.739
 1907SOL     OW 6400   1.708   2.440   7.415
 1907SOL    HW1 6401   1.672   2.514   7.366
 1907SOL    HW2 6402   1.735   2.378   7.348
 1908SOL     OW 6403   0.552   2.046   6.478
 1908SOL    HW1 6404   0.553   2.074   6.570
 1908SOL    HW2 6405   0.552   2.127   6.428
 1909SOL     OW 6406   1.006   3.307   6.062
 1909SOL    HW1 6407   0.968   3.378   6.011
 1909SOL    HW2 6408   0.991   3.331   6.153
 1910SOL     OW 6409   0.355   3.670   6.443
 1910SOL    HW1 6410   0.397   3.585   6.453
 1910SOL    HW2 6411   0.425   3.734   6.457
 1911SOL     OW 6412   1.792   2.939   6.460
 1911SOL    HW1 6413   1.731   2.928   6.388
 1911SOL    HW2 6414   1.738   2.934   6.539
 1912SOL     OW 6415   1.228   3.401   7.099
 1912SOL    HW1 6416   1.214   3.328   7.159
 1912SOL    HW2 6417   1.166   3.386   7.027
 1913SOL     OW 6418   0.317   2.817   5.836
 1913SOL    HW1 6419   0.402   2.839   5.797
 1913SOL    HW2 6420   0.300   2.727   5.807
 1914SOL     OW 6421   1.435   2.615   6.354
 1914SOL    HW1 6422   1.425   2.540   6.414
 1914SOL    HW2 6423   1.529   2.626   6.344
 1915SOL     OW 6424   0.466   3.123   7.321
 1915SOL    HW1 6425   0.438   3.130   7.230
 1915SOL    HW2 6426   0.385   3.129   7.372
 1916SOL     OW 6427   1.120   3.640   5.817
 1916SOL    HW1 6428   1.049   3.597   5.864
 1916SOL    HW2 6429   1.143   3.579   5.746
 1917SOL     OW 6430   0.195   2.139   7.073
 1917SOL    HW1 6431   0.133   2.213   7.078
 1917SOL    HW2 6432   0.185   2.094   7.156
 1918SOL     OW 6433   1.644   3.248   5.671
 1918SOL    HW1 6434   1.595   3.329   5.658
 1918SOL    HW2 6435   1.579   3.178   5.660
 1919SOL     OW 6436   0.469   3.606   5.900
 1919SOL    HW1 6437   0.509   3.658   5.969
 1919SOL    HW2 6438   0.543   3.573   5.849
 1920SOL     OW 6439   0.260   3.656   6.819
 1920SOL    HW1 6440   0.306   3.582   6.859
 1920SOL    HW2 6441   0.228   3.622   6.736
 1921SOL     OW 6442   0.938   3.561   6.486
 1921SOL    HW1 6443   1.015   3.507   6.507
 1921SOL    HW2 6444   0.893   3.512   6.417
 1922SOL     OW 6445   0.393   2.557   6.060
 1922SOL    HW1 6446   0.417   2.465   6.070
 1922SOL    HW2 6447   0.301   2.560   6.086
 1923SOL     OW 6448   1.537   2.087   7.311
 1923SOL    HW1 6449   1.546   2.108   7.404
 1923SOL    HW2 6450   1.468   2.021   7.308
 1924SOL     OW 6451   0.634   1.989   5.689
 1924SOL    HW1 6452   0.702   1.925   5.705
 1924SOL    HW2 6453   0.585   1.954   5.614
 1925SOL     OW 6454   0.768   2.138   7.339
 1925SOL    HW1 6455   0.841   2.077   7.344
 1925SOL    HW2 6456   0.718   2.122   7.419
 1926SOL     OW 6457   0.877   3.384   6.779
 1926SOL    HW1 6458   0.861   3.347   6.692
 1926SOL    HW2 6459   0.946   3.328   6.816
 1927SOL     OW 6460   1.343   2.450   7.018
 1927SOL    HW1 6461   1.372   2.419   7.104
 1927SOL    HW2 6462   1.377   2.539   7.012
 1928SOL     OW 6463   0.813   3.259   6.523
 1928SOL    HW1 6464   0.897   3.249   6.478
 1928SOL    HW2 6465   0.748   3.258   6.453
 1929SOL     OW 6466   0.927   2.371   6.491
 1929SOL    HW1 6467   0.904   2.363   6.398
 1929SOL    HW2 6468   0.962   2.285   6.514
 1930SOL     OW 6469   0.550   1.923   6.089
 1930SOL    HW1 6470   0.469   1.922   6.141
 1930SOL    HW2 6471   0.544   2.002   6.036
 1931SOL     OW 6472   1.432   3.058   5.636
 1931SOL    HW1 6473   1.441   2.977   5.687
 1931SOL    HW2 6474   1.346   3.092   5.661
 1932SOL     OW 6475   0.295   1.908   5.764
 1932SOL    HW1 6476   0.356   1.976   5.737
 1932SOL    HW2 6477   0.349   1.842   5.808
 1933SOL     OW 6478   0.928   2.105   6.049
 1933SOL    HW1 6479   0.903   2.149   5.968
 1933SOL    HW2 6480   1.023   2.107   6.049
 1934SOL     OW 6481   1.080   2.541   7.046
 1934SOL    HW1 6482   1.010   2.476   7.051
 1934SOL    HW2 6483   1.160   2.490   7.038
 1935SOL     OW 6484   1.225   3.430   6.379
 1935SOL    HW1 6485   1.242   3.497   6.313
 1935SOL    HW2 6486   1.294   3.443   6.445
 1936SOL     OW 6487   0.465   3.010   6.323
 1936SOL    HW1 6488   0.394   2.991   6.384
 1936SOL    HW2 6489   0.428   2.994   6.236
 1937SOL     OW 6490   1.270   3.657   6.192
 1937SOL    HW1 6491   1.315   3.718   6.134
 1937SOL    HW2 6492   1.205   3.710   6.238
 1938SOL     OW 6493   1.020   2.416   5.608
 1938SOL    HW1 6494   0.969   2.492   5.581
 1938SOL    HW2 6495   1.089   2.451   5.664
 1939SOL     OW 6496   0.081   2.394   6.994
 1939SOL    HW1 6497   0.149   2.393   6.926
 1939SOL    HW2 6498   0.068   2.486   7.015
 1940SOL     OW 6499   0.561   2.089   6.751
 1940SOL    HW1 6500   0.602   2.009   6.784
 1940SOL    HW2 6501   0.470   2.083   6.777
 1941SOL     OW 6502   0.867   2.322   6.227
 1941SOL    HW1 6503   0.822   2.378   6.164
 1941SOL    HW2 6504   0.885   2.241   6.179
 1942SOL     OW 6505   1.018   1.911   6.336
 1942SOL    HW1 6506   0.954   1.906   6.265
 1942SOL    HW2 6507   0.996   1.838   6.393
 1943SOL     OW 6508   1.438   3.020   6.446
 1943SOL    HW1 6509   1.370   2.953   6.448
 1943SOL    HW2 6510   1.440   3.050   6.355
 1944SOL     OW 6511   1.453   2.459   6.585
 1944SOL    HW1 6512   1.414   2.372   6.577
 1944SOL    HW2 6513   1.519   2.450   6.654
 1945SOL     OW 6514   0.492   3.277   5.747
 1945SOL    HW1 6515   0.416   3.247   5.797
 1945SOL    HW2 6516   0.472   3.255   5.656
 1946SOL     OW 6517   1.371   2.439   5.665
 1946SOL    HW1 6518   1.350   2.419   5.756
 1946SOL    HW2 6519   1.464   2.418   5.656
 1947SOL     OW 6520   0.525   2.122   5.905
 1947SOL    HW1 6521   0.569   2.075   5.834
 1947SOL    HW2 6522   0.507   2.209   5.869
 1948SOL     OW 6523   1.753   3.099   7.161
 1948SOL    HW1 6524   1.841   3.060   7.160
 1948SOL    HW2 6525   1.768   3.189   7.191
 1949SOL     OW 6526   1.060   3.215   6.920
 1949SOL    HW1 6527   0.985   3.185   6.971
 1949SOL    HW2 6528   1.136   3.174   6.962
 1950SOL     OW 6529   1.606   3.487   7.238
 1950SOL    HW1 6530   1.603   3.521   7.148
 1950SOL    HW2 6531   1.690   3.441   7.243
 1951SOL     OW 6532   1.127   3.064   6.692
 1951SOL    HW1 6533   1.068   3.101   6.758
 1951SOL    HW2 6534   1.092   3.095   6.609
 1952SOL     OW 6535   1.626   2.958   6.670
 1952SOL    HW1 6536   1.624   3.022   6.741
 1952SOL    HW2 6537   1.546   2.974   6.620
 1953SOL     OW 6538   0.917   1.960   6.985
 1953SOL    HW1 6539   0.940   1.941   6.893
 1953SOL    HW2 6540   0.997   2.000   7.021
 1954SOL     OW 6541   0.984   2.976   7.308
 1954SOL    HW1 6542   0.892   2.991   7.328
 1954SOL    HW2 6543   0.984   2.899   7.252
 1955SOL     OW 6544   0.708   2.922   5.958
 1955SOL    HW1 6545   0.696   2.908   6.052
 1955SOL    HW2 6546   0.784   2.869   5.935
 1956SOL     OW 6547   0.430   2.685   6.825
 1956SOL    HW1 6548   0.499   2.697   6.891
 1956SOL    HW2 6549   0.370   2.621   6.865
 1957SOL     OW 6550   1.267   2.240   6.861
 1957SOL    HW1 6551   1.299   2.318   6.906
 1957SOL    HW2 6552   1.179   2.263   6.834
 1958SOL     OW 6553   0.061   3.438   6.925
 1958SOL    HW1 6554   0.033   3.527   6.903
 1958SOL    HW2 6555   0.157   3.444   6.933
 1959SOL     OW 6556   0.350   2.969   6.079
 1959SOL    HW1 6557   0.359   3.042   6.018
 1959SOL    HW2 6558   0.352   2.891   6.024
 1960SOL     OW 6559   0.562   2.397   6.443
 1960SOL    HW1 6560   0.576   2.456   6.369
 1960SOL    HW2 6561   0.621   2.428   6.511
 1961SOL     OW 6562   1.246   3.218   5.962
 1961SOL    HW1 6563   1.304   3.282   6.003
 1961SOL    HW2 6564   1.162   3.230   6.005
 1962SOL     OW 6565   1.278   3.318   6.732
 1962SOL    HW1 6566   1.333   3.320   6.811
 1962SOL    HW2 6567   1.222   3.242   6.745
 1963SOL     OW 6568   0.347   3.392   6.903
 1963SOL    HW1 6569   0.333   3.345   6.821
 1963SOL    HW2 6570   0.443   3.402   6.908
 1964SOL     OW 6571   0.474   2.620   7.247
 1964SOL    HW1 6572   0.504   2.660   7.166
 1964SOL    HW2 6573   0.511   2.532   7.247
 1965SOL     OW 6574   1.598   2.640   7.266
 1965SOL    HW1 6575   1.512   2.681   7.259
 1965SOL    HW2 6576   1.651   2.683   7.198
 1966SOL     OW 6577   0.996   1.981   7.342
 1966SOL    HW1 6578   1.049   2.054   7.311
 1966SOL    HW2 6579   1.045   1.903   7.316
 1967SOL     OW 6580   0.498   1.906   7.332
 1967SOL    HW1 6581   0.458   1.849   7.266
 1967SOL    HW2 6582   0.437   1.979   7.341
 1968SOL     OW 6583   0.589   2.735   6.610
 1968SOL    HW1 6584   0.617   2.827   6.612
 1968SOL    HW2 6585   0.532   2.726   6.686
 1969SOL     OW 6586   1.360   2.719   6.625
 1969SOL    HW1 6587   1.283   2.716   6.568
 1969SOL    HW2 6588   1.399   2.632   6.619
 1970SOL     OW 6589   0.303   2.055   6.827
 1970SOL    HW1 6590   0.264   2.090   6.908
 1970SOL    HW2 6591   0.285   1.961   6.831
 1971SOL     OW 6592   0.045   3.175   6.870
 1971SOL    HW1 6593   0.077   3.128   6.947
 1971SOL    HW2 6594   0.048   3.267   6.895
 1972SOL     OW 6595   0.726   2.494   6.646
 1972SOL    HW1 6596   0.799   2.475   6.587
 1972SOL    HW2 6597   0.699   2.583   6.623
 1973SOL     OW 6598   1.732   2.823   7.436
 1973SOL    HW1 6599   1.687   2.763   7.378
 1973SOL    HW2 6600   1.673   2.834   7.511
 1974SOL     OW 6601   0.309   1.932   6.205
 1974SOL    HW1 6602   0.286   2.021   6.233
 1974SOL    HW2 6603   0.305   1.880   6.285
 1975SOL     OW 6604   1.026   2.622   6.547
 1975SOL    HW1 6605   1.027   2.640   6.641
 1975SOL    HW2 6606   1.001   2.530   6.540
 1976SOL     OW 6607   0.983   3.429   7.301
 1976SOL    HW1 6608   0.967   3.472   7.217
 1976SOL    HW2 6609   1.025   3.346   7.277
 1977SOL     OW 6610   1.856   3.371   7.192
 1977SOL    HW1 6611   1.873   3.396   7.101
 1977SOL    HW2 6612   1.937   3.391   7.238
 1978SOL     OW 6613   0.347   2.793   7.404
 1978SOL    HW1 6614   0.422   2.821   7.458
 1978SOL    HW2 6615   0.384   2.727   7.345
 1979SOL     OW 6616   1.302   2.699   5.628
 1979SOL    HW1 6617   1.331   2.608   5.626
 1979SOL    HW2 6618   1.316   2.731   5.539
 1980SOL     OW 6619   1.065   3.198   6.440
 1980SOL    HW1 6620   1.066   3.125   6.377
 1980SOL    HW2 6621   1.126   3.262   6.403
 1981SOL     OW 6622   0.317   2.674   6.536
 1981SOL    HW1 6623   0.411   2.691   6.531
 1981SOL    HW2 6624   0.310   2.583   6.565
 1982SOL     OW 6625   0.333   2.386   6.579
 1982SOL    HW1 6626   0.294   2.299   6.563
 1982SOL    HW2 6627   0.410   2.388   6.523
 1983SOL     OW 6628   1.134   2.240   7.266
 1983SOL    HW1 6629   1.088   2.294   7.329
 1983SOL    HW2 6630   1.223   2.276   7.262
 1984SOL     OW 6631   1.160   2.066   7.055
 1984SOL    HW1 6632   1.151   2.128   7.128
 1984SOL    HW2 6633   1.198   2.118   6.984
 1985SOL     OW 6634   4.492   3.185   5.788
 1985SOL    HW1 6635   4.399   3.200   5.771
 1985SOL    HW2 6636   4.497   3.092   5.811
 1986SOL     OW 6637   0.096   3.642   6.526
 1986SOL    HW1 6638   0.057   3.584   6.461
 1986SOL    HW2 6639   0.183   3.662   6.493
 1987SOL     OW 6640   0.498   3.435   6.492
 1987SOL    HW1 6641   0.566   3.498   6.516
 1987SOL    HW2 6642   0.543   3.371   6.437
 1988SOL     OW 6643   0.987   2.656   6.814
 1988SOL    HW1 6644   1.041   2.631   6.889
 1988SOL    HW2 6645   0.900   2.620   6.833
 1989SOL     OW 6646   0.036   2.424   6.692
 1989SOL    HW1 6647   0.119   2.388   6.660
 1989SOL    HW2 6648   0.025   2.384   6.778
 1990SOL     OW 6649   0.179   2.378   7.299
 1990SOL    HW1 6650   0.259   2.350   7.255
 1990SOL    HW2 6651   0.154   2.460   7.256
 1991SOL     OW 6652   1.375   2.803   7.245
 1991SOL    HW1 6653   1.397   2.896   7.245
 1991SOL    HW2 6654   1.373   2.778   7.153
 1992SOL     OW 6655   0.815   2.429   5.943
 1992SOL    HW1 6656   0.816   2.355   5.883
 1992SOL    HW2 6657   0.742   2.483   5.913
 1993SOL     OW 6658   1.632   2.456   6.798
 1993SOL    HW1 6659   1.609   2.400   6.872
 1993SOL    HW2 6660   1.725   2.436   6.782
 1994SOL     OW 6661   0.272   3.423   7.328
 1994SOL    HW1 6662   0.217   3.476   7.385
 1994SOL    HW2 6663   0.251   3.333   7.351
 1995SOL     OW 6664   0.688   2.318   6.850
 1995SOL    HW1 6665   0.644   2.240   6.815
 1995SOL    HW2 6666   0.691   2.379   6.776
 1996SOL     OW 6667   0.930   3.541   7.052
 1996SOL    HW1 6668   0.903   3.509   6.966
 1996SOL    HW2 6669   0.927   3.636   7.044
 1997SOL     OW 6670   0.473   2.352   5.773
 1997SOL    HW1 6671   0.531   2.425   5.796
 1997SOL    HW2 6672   0.388   2.393   5.758
 1998SOL     OW 6673   0.162   3.003   7.049
 1998SOL    HW1 6674   0.147   2.956   7.131
 1998SOL    HW2 6675   0.170   2.934   6.983
 1999SOL     OW 6676   1.329   2.912   6.810
 1999SOL    HW1 6677   1.350   2.845   6.744
 1999SOL    HW2 6678   1.257   2.961   6.773
 2000SOL     OW 6679   1.257   2.736   5.915
 2000SOL    HW1 6680   1.191   2.672   5.940
 2000SOL    HW2 6681   1.271   2.721   5.821
 2001SOL     OW 6682   1.770   3.608   6.735
 2001SOL    HW1 6683   1.829   3.634   6.665
 2001SOL    HW2 6684   1.746   3.518   6.715
 2002SOL     OW 6685   1.241   3.595   6.702
 2002SOL    HW1 6686   1.323   3.615   6.656
 2002SOL    HW2 6687   1.245   3.501   6.719
 2003SOL     OW 6688   0.067   3.049   6.634
 2003SOL    HW1 6689   0.071   3.083   6.724
 2003SOL    HW2 6690   0.015   3.113   6.587
 2004SOL     OW 6691   0.679   3.526   7.312
 2004SOL    HW1 6692   0.624   3.605   7.308
 2004SOL    HW2 6693   0.741   3.536   7.240
 2005SOL     OW 6694   1.391   3.429   6.071
 2005SOL    HW1 6695   1.451   3.460   6.003
 2005SOL    HW2 6696   1.343   3.507   6.099
 2006SOL     OW 6697   0.120   3.669   7.433
 2006SOL    HW1 6698   0.081   3.596   7.480
 2006SOL    HW2 6699   0.183   3.706   7.495
 2007SOL     OW 6700   1.281   2.807   6.248
 2007SOL    HW1 6701   1.340   2.739   6.278
 2007SOL    HW2 6702   1.302   2.818   6.155
 2008SOL     OW 6703   0.817   3.135   7.017
 2008SOL    HW1 6704   0.791   3.173   7.100
 2008SOL    HW2 6705   0.746   3.156   6.957
 2009SOL     OW 6706   0.673   3.479   5.741
 2009SOL    HW1 6707   0.682   3.490   5.647
 2009SOL    HW2 6708   0.619   3.401   5.751
 2010SOL     OW 6709   1.631   3.588   6.978
 2010SOL    HW1 6710   1.679   3.595   6.895
 2010SOL    HW2 6711   1.618   3.679   7.006
 2011SOL     OW 6712   1.831   2.008   6.555
 2011SOL    HW1 6713   1.883   1.973   6.483
 2011SOL    HW2 6714   1.752   2.043   6.512
 2012SOL     OW 6715   0.266   2.182   6.305
 2012SOL    HW1 6716   0.183   2.221   6.277
 2012SOL    HW2 6717   0.255   2.170   6.400
 2013SOL     OW 6718   1.207   3.469   5.617
 2013SOL    HW1 6719   1.198   3.378   5.645
 2013SOL    HW2 6720   1.142   3.480   5.548
 2014SOL     OW 6721   0.825   2.868   6.958
 2014SOL    HW1 6722   0.868   2.865   6.872
 2014SOL    HW2 6723   0.825   2.961   6.981
 2015SOL     OW 6724   0.913   2.772   5.873
 2015SOL    HW1 6725   0.976   2.805   5.809
 2015SOL    HW2 6726   0.961   2.705   5.922
 2016SOL     OW 6727   1.495   3.486   5.629
 2016SOL    HW1 6728   1.400   3.481   5.618
 2016SOL    HW2 6729   1.529   3.493   5.539
 2017SOL     OW 6730   0.373   3.168   7.077
 2017SOL    HW1 6731   0.356   3.246   7.025
 2017SOL    HW2 6732   0.297   3.111   7.061
 2018SOL     OW 6733   1.611   3.144   6.868
 2018SOL    HW1 6734   1.671   3.137   6.943
 2018SOL    HW2 6735   1.551   3.215   6.892
 2019SOL     OW 6736   1.049   2.970   6.293
 2019SOL    HW1 6737   0.979   2.917   6.331
 2019SOL    HW2 6738   1.112   2.907   6.259
 2020SOL     OW 6739   1.021   2.102   6.552
 2020SOL    HW1 6740   1.016   2.055   6.469
 2020SOL    HW2 6741   1.014   2.033   6.619
 2021SOL     OW 6742   0.603   3.352   6.069
 2021SOL    HW1 6743   0.643   3.301   5.998
 2021SOL    HW2 6744   0.531   3.399   6.028
 2022SOL     OW 6745   1.721   2.248   6.973
 2022SOL    HW1 6746   1.789   2.315   6.970
 2022SOL    HW2 6747   1.754   2.178   6.917
 2023SOL     OW 6748   0.252   3.207   5.863
 2023SOL    HW1 6749   0.157   3.207   5.849
 2023SOL    HW2 6750   0.262   3.239   5.953
 2024SOL     OW 6751   0.117   2.870   7.281
 2024SOL    HW1 6752   0.052   2.908   7.340
 2024SOL    HW2 6753   0.195   2.858   7.336
 2025SOL     OW 6754   0.673   2.061   7.084
 2025SOL    HW1 6755   0.756   2.040   7.043
 2025SOL    HW2 6756   0.696   2.088   7.173
 2026SOL     OW 6757   0.072   2.188   5.619
 2026SOL    HW1 6758   4.477   2.197   5.619
 2026SOL    HW2 6759   0.104   2.270   5.581
 2027SOL     OW 6760   1.431   2.721   6.988
 2027SOL    HW1 6761   1.384   2.780   6.930
 2027SOL    HW2 6762   1.522   2.726   6.958
 2028SOL     OW 6763   0.085   2.039   5.893
 2028SOL    HW1 6764   0.078   2.111   5.829
 2028SOL    HW2 6765   0.161   1.989   5.864
 2029SOL     OW 6766   1.182   3.200   5.699
 2029SOL    HW1 6767   1.091   3.172   5.703
 2029SOL    HW2 6768   1.210   3.204   5.790
 2030SOL     OW 6769   0.621   2.693   7.015
 2030SOL    HW1 6770   0.677   2.770   7.002
 2030SOL    HW2 6771   0.683   2.621   7.024
 2031SOL     OW 6772   1.484   3.638   6.564
 2031SOL    HW1 6773   1.510   3.692   6.489
 2031SOL    HW2 6774   1.566   3.618   6.608
 2032SOL     OW 6775   0.716   2.425   7.290
 2032SOL    HW1 6776   0.751   2.490   7.351
 2032SOL    HW2 6777   0.751   2.341   7.321
 2033SOL     OW 6778   1.469   3.065   7.219
 2033SOL    HW1 6779   1.457   3.077   7.313
 2033SOL    HW2 6780   1.563   3.077   7.205
 2034SOL     OW 6781   0.382   3.605   7.150
 2034SOL    HW1 6782   0.296   3.644   7.134
 2034SOL    HW2 6783   0.363   3.523   7.197
 2035SOL     OW 6784   1.675   2.744   6.841
 2035SOL    HW1 6785   1.651   2.660   6.803
 2035SOL    HW2 6786   1.659   2.808   6.772
 2036SOL     OW 6787   0.591   2.601   6.254
 2036SOL    HW1 6788   0.630   2.687   6.237
 2036SOL    HW2 6789   0.521   2.594   6.189
 2037SOL     OW 6790   1.765   2.224   7.245
 2037SOL    HW1 6791   1.758   2.234   7.150
 2037SOL    HW2 6792   1.692   2.168   7.268
 2038SOL     OW 6793   1.742   2.797   7.099
 2038SOL    HW1 6794   1.744   2.892   7.112
 2038SOL    HW2 6795   1.730   2.785   7.005
 2039SOL     OW 6796   0.863   3.230   5.617
 2039SOL    HW1 6797   0.824   3.256   5.700
 2039SOL    HW2 6798   0.881   3.313   5.572
 2040SOL     OW 6799   0.660   3.655   6.534
 2040SOL    HW1 6800   0.638   3.745   6.509
 2040SOL    HW2 6801   0.755   3.650   6.524
 2041SOL     OW 6802   0.867   2.828   6.442
 2041SOL    HW1 6803   0.916   2.757   6.482
 2041SOL    HW2 6804   0.833   2.878   6.516
 2042SOL     OW 6805   1.075   2.848   5.670
 2042SOL    HW1 6806   1.058   2.900   5.592
 2042SOL    HW2 6807   1.157   2.802   5.651
 2043SOL     OW 6808   1.851   3.422   6.432
 2043SOL    HW1 6809   1.784   3.400   6.367
 2043SOL    HW2 6810   1.852   3.348   6.492
 2044SOL     OW 6811   0.229   3.168   7.443
 2044SOL    HW1 6812   0.159   3.108   7.418
 2044SOL    HW2 6813   0.220   3.178   7.537
 2045SOL     OW 6814   0.103   3.100   6.253
 2045SOL    HW1 6815   0.110   3.050   6.334
 2045SOL    HW2 6816   0.163   3.056   6.193
 2046SOL     OW 6817   0.681   3.263   7.213
 2046SOL    HW1 6818   0.601   3.219   7.241
 2046SOL    HW2 6819   0.674   3.351   7.250
 2047SOL     OW 6820   1.816   2.049   6.823
 2047SOL    HW1 6821   1.831   1.958   6.849
 2047SOL    HW2 6822   1.829   2.049   6.728
 2048SOL     OW 6823   0.435   2.295   6.111
 2048SOL    HW1 6824   0.458   2.221   6.055
 2048SOL    HW2 6825   0.384   2.256   6.182
 2049SOL     OW 6826   1.699   3.354   6.690
 2049SOL    HW1 6827   1.621   3.329   6.641
 2049SOL    HW2 6828   1.712   3.283   6.753
 2050SOL     OW 6829   0.304   2.350   6.842
 2050SOL    HW1 6830   0.378   2.310   6.887
 2050SOL    HW2 6831   0.335   2.365   6.753
 2051SOL     OW 6832   0.826   3.440   6.265
 2051SOL    HW1 6833   0.818   3.487   6.182
 2051SOL    HW2 6834   0.748   3.384   6.269
 2052SOL     OW 6835   1.428   2.076   6.716
 2052SOL    HW1 6836   1.470   2.012   6.774
 2052SOL    HW2 6837   1.376   2.132   6.774
 2053SOL     OW 6838   1.006   1.882   6.730
 2053SOL    HW1 6839   0.951   1.813   6.693
 2053SOL    HW2 6840   1.094   1.844   6.733
 2054SOL     OW 6841   0.772   3.194   5.897
 2054SOL    HW1 6842   0.739   3.105   5.904
 2054SOL    HW2 6843   0.854   3.193   5.946
 2055SOL     OW 6844   0.621   3.420   6.871
 2055SOL    HW1 6845   0.623   3.501   6.921
 2055SOL    HW2 6846   0.708   3.413   6.832
 2056SOL     OW 6847   1.321   1.914   5.730
 2056SOL    HW1 6848   1.345   1.849   5.665
 2056SOL    HW2 6849   1.244   1.878   5.774
 2057SOL     OW 6850   1.268   2.312   6.278
 2057SOL    HW1 6851   1.222   2.395   6.287
 2057SOL    HW2 6852   1.280   2.282   6.368
 2058SOL     OW 6853   0.041   2.915   5.873
 2058SOL    HW1 6854   0.136   2.902   5.865
 2058SOL    HW2 6855   0.019   2.877   5.958
 2059SOL     OW 6856   0.883   3.512   5.930
 2059SOL    HW1 6857   0.811   3.494   5.869
 2059SOL    HW2 6858   0.852   3.588   5.980
 2060SOL     OW 6859   0.248   2.490   7.567
 2060SOL    HW1 6860   0.173   2.473   7.624
 2060SOL    HW2 6861   0.216   2.470   7.479
 2061SOL     OW 6862   0.213   2.138   8.440
 2061SOL    HW1 6863   0.250   2.111   8.524
 2061SOL    HW2 6864   0.137   2.081   8.428
 2062SOL     OW 6865   0.009   2.250   8.087
 2062SOL    HW1 6866   4.429   2.281   8.129
 2062SOL    HW2 6867   4.484   2.170   8.041
 2063SOL     OW 6868   0.567   3.145   8.621
 2063SOL    HW1 6869   0.479   3.150   8.583
 2063SOL    HW2 6870   0.582   3.233   8.657
 2064SOL     OW 6871   1.558   3.374   8.154
 2064SOL    HW1 6872   1.514   3.355   8.237
 2064SOL    HW2 6873   1.487   3.378   8.090
 2065SOL     OW 6874   1.129   2.561   8.151
 2065SOL    HW1 6875   1.179   2.641   8.137
 2065SOL    HW2 6876   1.083   2.576   8.233
 2066SOL     OW 6877   1.766   2.469   7.678
 2066SOL    HW1 6878   1.746   2.460   7.585
 2066SOL    HW2 6879   1.732   2.389   7.718
 2067SOL     OW 6880   0.758   3.006   8.486
 2067SOL    HW1 6881   0.688   3.040   8.542
 2067SOL    HW2 6882   0.792   3.083   8.441
 2068SOL     OW 6883   0.863   2.640   9.269
 2068SOL    HW1 6884   0.850   2.712   9.331
 2068SOL    HW2 6885   0.887   2.684   9.187
 2069SOL     OW 6886   0.686   2.868   8.097
 2069SOL    HW1 6887   0.750   2.854   8.166
 2069SOL    HW2 6888   0.616   2.918   8.139
 2070SOL     OW 6889   0.709   3.013   9.258
 2070SOL    HW1 6890   0.756   3.092   9.283
 2070SOL    HW2 6891   0.625   3.044   9.224
 2071SOL     OW 6892   0.336   3.285   8.518
 2071SOL    HW1 6893   0.255   3.265   8.471
 2071SOL    HW2 6894   0.386   3.339   8.457
 2072SOL     OW 6895   1.461   3.360   8.799
 2072SOL    HW1 6896   1.507   3.444   8.810
 2072SOL    HW2 6897   1.404   3.354   8.876
 2073SOL     OW 6898   0.443   2.266   8.943
 2073SOL    HW1 6899   0.523   2.214   8.946
 2073SOL    HW2 6900   0.372   2.202   8.946
 2074SOL     OW 6901   1.612   2.310   8.189
 2074SOL    HW1 6902   1.537   2.335   8.135
 2074SOL    HW2 6903   1.633   2.389   8.238
 2075SOL     OW 6904   0.246   3.553   7.927
 2075SOL    HW1 6905   0.232   3.638   7.969
 2075SOL    HW2 6906   0.309   3.571   7.857
 2076SOL     OW 6907   1.136   3.203   9.139
 2076SOL    HW1 6908   1.175   3.199   9.226
 2076SOL    HW2 6909   1.083   3.123   9.134
 2077SOL     OW 6910   0.246   3.289   7.976
 2077SOL    HW1 6911   0.238   3.384   7.980
 2077SOL    HW2 6912   0.181   3.257   8.039
 2078SOL     OW 6913   0.246   2.943   8.331
 2078SOL    HW1 6914   0.263   2.855   8.363
 2078SOL    HW2 6915   0.188   2.982   8.397
 2079SOL     OW 6916   0.616   3.652   8.880
 2079SOL    HW1 6917   0.532   3.634   8.923
 2079SOL    HW2 6918   0.636   3.743   8.904
 2080SOL     OW 6919   0.583   2.846   7.584
 2080SOL    HW1 6920   0.628   2.892   7.513
 2080SOL    HW2 6921   0.628   2.874   7.664
 2081SOL     OW 6922   1.590   1.982   8.917
 2081SOL    HW1 6923   1.602   2.061   8.863
 2081SOL    HW2 6924   1.584   2.016   9.006
 2082SOL     OW 6925   0.136   2.506   8.022
 2082SOL    HW1 6926   0.087   2.426   8.037
 2082SOL    HW2 6927   0.106   2.566   8.091
 2083SOL     OW 6928   1.842   3.623   7.784
 2083SOL    HW1 6929   1.902   3.594   7.853
 2083SOL    HW2 6930   1.868   3.713   7.766
 2084SOL     OW 6931   0.033   3.463   7.585
 2084SOL    HW1 6932   0.021   3.368   7.586
 2084SOL    HW2 6933   0.013   3.490   7.674
 2085SOL     OW 6934   1.691   2.782   8.087
 2085SOL    HW1 6935   1.773   2.738   8.065
 2085SOL    HW2 6936   1.669   2.831   8.008
 2086SOL     OW 6937   1.645   2.970   7.877
 2086SOL    HW1 6938   1.730   2.977   7.835
 2086SOL    HW2 6939   1.649   3.030   7.952
 2087SOL     OW 6940   0.111   2.622   9.036
 2087SOL    HW1 6941   0.205   2.623   9.017
 2087SOL    HW2 6942   0.088   2.714   9.044
 2088SOL     OW 6943   0.613   3.245   8.184
 2088SOL    HW1 6944   0.566   3.162   8.193
 2088SOL    HW2 6945   0.597   3.272   8.093
 2089SOL     OW 6946   1.290   3.101   8.872
 2089SOL    HW1 6947   1.322   3.033   8.812
 2089SOL    HW2 6948   1.346   3.093   8.949
 2090SOL     OW 6949   0.813   1.860   7.954
 2090SOL    HW1 6950   0.854   1.946   7.938
 2090SOL    HW2 6951   0.720   1.880   7.965
 2091SOL     OW 6952   0.182   2.805   8.727
 2091SOL    HW1 6953   0.274   2.788   8.705
 2091SOL    HW2 6954   0.134   2.783   8.648
 2092SOL     OW 6955   1.532   2.854   7.645
 2092SOL    HW1 6956   1.462   2.796   7.674
 2092SOL    HW2 6957   1.571   2.888   7.725
 2093SOL     OW 6958   1.186   3.667   9.069
 2093SOL    HW1 6959   1.199   3.724   8.993
 2093SOL    HW2 6960   1.200   3.578   9.035
 2094SOL     OW 6961   0.329   2.118   9.244
 2094SOL    HW1 6962   0.381   2.190   9.278
 2094SOL    HW2 6963   0.243   2.127   9.286
 2095SOL     OW 6964   1.466   3.281   8.401
 2095SOL    HW1 6965   1.398   3.296   8.466
 2095SOL    HW2 6966   1.454   3.191   8.373
 2096SOL     OW 6967   1.661   3.596   8.026
 2096SOL    HW1 6968   1.638   3.568   7.937
 2096SOL    HW2 6969   1.634   3.523   8.082
 2097SOL     OW 6970   0.598   2.584   7.713
 2097SOL    HW1 6971   0.602   2.664   7.661
 2097SOL    HW2 6972   0.532   2.602   7.780
 2098SOL     OW 6973   1.279   2.212   8.380
 2098SOL    HW1 6974   1.190   2.178   8.388
 2098SOL    HW2 6975   1.330   2.159   8.442
 2099SOL     OW 6976   1.581   3.531   7.757
 2099SOL    HW1 6977   1.671   3.565   7.750
 2099SOL    HW2 6978   1.556   3.514   7.666
 2100SOL     OW 6979   0.794   2.478   8.900
 2100SOL    HW1 6980   0.768   2.455   8.989
 2100SOL    HW2 6981   0.750   2.414   8.845
 2101SOL     OW 6982   1.393   2.336   9.126
 2101SOL    HW1 6983   1.395   2.379   9.211
 2101SOL    HW2 6984   1.457   2.265   9.134
 2102SOL     OW 6985   0.957   2.750   9.029
 2102SOL    HW1 6986   1.011   2.679   8.994
 2102SOL    HW2 6987   0.910   2.784   8.953
 2103SOL     OW 6988   0.993   2.276   8.687
 2103SOL    HW1 6989   0.909   2.298   8.728
 2103SOL    HW2 6990   0.969   2.227   8.608
 2104SOL     OW 6991   1.050   2.561   7.875
 2104SOL    HW1 6992   1.065   2.554   7.969
 2104SOL    HW2 6993   0.968   2.513   7.860
 2105SOL     OW 6994   0.098   2.687   8.231
 2105SOL    HW1 6995   0.184   2.667   8.268
 2105SOL    HW2 6996   0.050   2.728   8.304
 2106SOL     OW 6997   0.126   3.712   9.023
 2106SOL    HW1 6998   0.118   3.691   9.116
 2106SOL    HW2 6999   0.044   3.681   8.985
 2107SOL     OW 7000   0.888   2.209   7.642
 2107SOL    HW1 7001   0.931   2.270   7.582
 2107SOL    HW2 7002   0.907   2.122   7.605
 2108SOL     OW 7003   1.714   2.444   9.276
 2108SOL    HW1 7004   1.674   2.518   9.230
 2108SOL    HW2 7005   1.729   2.378   9.209
 2109SOL     OW 7006   1.376   3.005   7.990
 2109SOL    HW1 7007   1.454   2.990   7.937
 2109SOL    HW2 7008   1.323   3.066   7.940
 2110SOL     OW 7009   0.551   2.046   8.340
 2110SOL    HW1 7010   0.553   2.074   8.432
 2110SOL    HW2 7011   0.552   2.127   8.290
 2111SOL     OW 7012   1.008   3.308   7.922
 2111SOL    HW1 7013   0.968   3.379   7.872
 2111SOL    HW2 7014   0.992   3.329   8.013
 2112SOL     OW 7015   0.355   3.670   8.305
 2112SOL    HW1 7016   0.397   3.585   8.315
 2112SOL    HW2 7017   0.425   3.734   8.319
 2113SOL     OW 7018   1.799   2.921   8.315
 2113SOL    HW1 7019   1.744   2.903   8.239
 2113SOL    HW2 7020   1.738   2.926   8.388
 2114SOL     OW 7021   1.228   3.401   8.960
 2114SOL    HW1 7022   1.214   3.328   9.021
 2114SOL    HW2 7023   1.166   3.385   8.889
 2115SOL     OW 7024   0.317   2.817   7.698
 2115SOL    HW1 7025   0.401   2.838   7.659
 2115SOL    HW2 7026   0.299   2.727   7.669
 2116SOL     OW 7027   1.476   2.602   8.176
 2116SOL    HW1 7028   1.465   2.556   8.259
 2116SOL    HW2 7029   1.554   2.657   8.189
 2117SOL     OW 7030   0.466   3.123   9.183
 2117SOL    HW1 7031   0.438   3.130   9.092
 2117SOL    HW2 7032   0.385   3.129   9.234
 2118SOL     OW 7033   1.121   3.640   7.680
 2118SOL    HW1 7034   1.049   3.597   7.726
 2118SOL    HW2 7035   1.143   3.579   7.608
 2119SOL     OW 7036   0.195   2.139   8.935
 2119SOL    HW1 7037   0.133   2.212   8.940
 2119SOL    HW2 7038   0.185   2.094   9.018
 2120SOL     OW 7039   1.629   3.242   7.535
 2120SOL    HW1 7040   1.588   3.326   7.520
 2120SOL    HW2 7041   1.560   3.178   7.516
 2121SOL     OW 7042   0.469   3.606   7.762
 2121SOL    HW1 7043   0.509   3.658   7.831
 2121SOL    HW2 7044   0.543   3.573   7.711
 2122SOL     OW 7045   1.401   1.970   7.879
 2122SOL    HW1 7046   1.390   1.945   7.787
 2122SOL    HW2 7047   1.496   1.978   7.891
 2123SOL     OW 7048   0.261   3.656   8.681
 2123SOL    HW1 7049   0.306   3.582   8.721
 2123SOL    HW2 7050   0.228   3.622   8.598
 2124SOL     OW 7051   0.938   3.560   8.348
 2124SOL    HW1 7052   1.015   3.507   8.369
 2124SOL    HW2 7053   0.893   3.511   8.279
 2125SOL     OW 7054   0.393   2.557   7.922
 2125SOL    HW1 7055   0.417   2.465   7.932
 2125SOL    HW2 7056   0.301   2.560   7.948
 2126SOL     OW 7057   1.536   2.086   9.174
 2126SOL    HW1 7058   1.543   2.107   9.268
 2126SOL    HW2 7059   1.469   2.018   9.170
 2127SOL     OW 7060   0.631   1.988   7.553
 2127SOL    HW1 7061   0.703   1.927   7.567
 2127SOL    HW2 7062   0.585   1.953   7.476
 2128SOL     OW 7063   0.768   2.138   9.201
 2128SOL    HW1 7064   0.842   2.077   9.206
 2128SOL    HW2 7065   0.718   2.122   9.281
 2129SOL     OW 7066   0.878   3.384   8.641
 2129SOL    HW1 7067   0.862   3.347   8.554
 2129SOL    HW2 7068   0.946   3.328   8.678
 2130SOL     OW 7069   1.341   2.451   8.880
 2130SOL    HW1 7070   1.372   2.418   8.964
 2130SOL    HW2 7071   1.378   2.539   8.874
 2131SOL     OW 7072   0.814   3.260   8.385
 2131SOL    HW1 7073   0.897   3.249   8.340
 2131SOL    HW2 7074   0.748   3.258   8.315
 2132SOL     OW 7075   0.927   2.371   8.352
 2132SOL    HW1 7076   0.904   2.363   8.260
 2132SOL    HW2 7077   0.960   2.285   8.376
 2133SOL     OW 7078   0.550   1.924   7.951
 2133SOL    HW1 7079   0.470   1.923   8.003
 2133SOL    HW2 7080   0.544   2.003   7.898
 2134SOL     OW 7081   1.429   3.060   7.489
 2134SOL    HW1 7082   1.459   2.984   7.539
 2134SOL    HW2 7083   1.342   3.079   7.526
 2135SOL     OW 7084   0.295   1.908   7.626
 2135SOL    HW1 7085   0.357   1.976   7.599
 2135SOL    HW2 7086   0.349   1.842   7.670
 2136SOL     OW 7087   0.937   2.107   7.911
 2136SOL    HW1 7088   0.908   2.149   7.830
 2136SOL    HW2 7089   1.031   2.119   7.913
 2137SOL     OW 7090   1.080   2.542   8.908
 2137SOL    HW1 7091   1.010   2.476   8.913
 2137SOL    HW2 7092   1.161   2.491   8.901
 2138SOL     OW 7093   1.225   3.431   8.241
 2138SOL    HW1 7094   1.242   3.499   8.176
 2138SOL    HW2 7095   1.292   3.444   8.308
 2139SOL     OW 7096   0.465   3.010   8.185
 2139SOL    HW1 7097   0.394   2.991   8.246
 2139SOL    HW2 7098   0.428   2.994   8.098
 2140SOL     OW 7099   1.271   3.657   8.054
 2140SOL    HW1 7100   1.315   3.718   7.996
 2140SOL    HW2 7101   1.205   3.710   8.100
 2141SOL     OW 7102   1.025   2.406   7.468
 2141SOL    HW1 7103   0.982   2.490   7.448
 2141SOL    HW2 7104   1.089   2.428   7.535
 2142SOL     OW 7105   0.081   2.394   8.856
 2142SOL    HW1 7106   0.149   2.393   8.788
 2142SOL    HW2 7107   0.069   2.486   8.876
 2143SOL     OW 7108   0.561   2.089   8.613
 2143SOL    HW1 7109   0.602   2.009   8.646
 2143SOL    HW2 7110   0.470   2.082   8.640
 2144SOL     OW 7111   0.869   2.322   8.088
 2144SOL    HW1 7112   0.822   2.375   8.024
 2144SOL    HW2 7113   0.889   2.240   8.041
 2145SOL     OW 7114   1.014   1.915   8.201
 2145SOL    HW1 7115   0.956   1.907   8.126
 2145SOL    HW2 7116   0.994   1.839   8.256
 2146SOL     OW 7117   1.436   3.026   8.305
 2146SOL    HW1 7118   1.368   2.958   8.305
 2146SOL    HW2 7119   1.458   3.038   8.213
 2147SOL     OW 7120   1.466   2.465   8.429
 2147SOL    HW1 7121   1.419   2.382   8.431
 2147SOL    HW2 7122   1.526   2.461   8.503
 2148SOL     OW 7123   1.848   2.679   7.831
 2148SOL    HW1 7124   1.903   2.626   7.889
 2148SOL    HW2 7125   1.819   2.619   7.763
 2149SOL     OW 7126   0.492   3.277   7.609
 2149SOL    HW1 7127   0.416   3.247   7.659
 2149SOL    HW2 7128   0.472   3.255   7.518
 2150SOL     OW 7129   1.669   3.127   8.095
 2150SOL    HW1 7130   1.763   3.133   8.108
 2150SOL    HW2 7131   1.637   3.215   8.117
 2151SOL     OW 7132   1.394   2.434   7.519
 2151SOL    HW1 7133   1.334   2.414   7.592
 2151SOL    HW2 7134   1.479   2.402   7.549
 2152SOL     OW 7135   0.524   2.122   7.768
 2152SOL    HW1 7136   0.568   2.075   7.697
 2152SOL    HW2 7137   0.507   2.209   7.731
 2153SOL     OW 7138   1.753   3.099   9.023
 2153SOL    HW1 7139   1.840   3.060   9.021
 2153SOL    HW2 7140   1.768   3.189   9.053
 2154SOL     OW 7141   1.060   3.216   8.783
 2154SOL    HW1 7142   0.985   3.185   8.834
 2154SOL    HW2 7143   1.136   3.174   8.824
 2155SOL     OW 7144   1.606   3.488   9.100
 2155SOL    HW1 7145   1.603   3.521   9.010
 2155SOL    HW2 7146   1.690   3.440   9.105
 2156SOL     OW 7147   1.127   3.064   8.555
 2156SOL    HW1 7148   1.068   3.102   8.620
 2156SOL    HW2 7149   1.092   3.095   8.471
 2157SOL     OW 7150   1.631   2.962   8.526
 2157SOL    HW1 7151   1.626   3.024   8.599
 2157SOL    HW2 7152   1.550   2.977   8.477
 2158SOL     OW 7153   0.917   1.961   8.846
 2158SOL    HW1 7154   0.940   1.941   8.755
 2158SOL    HW2 7155   0.997   2.000   8.883
 2159SOL     OW 7156   0.984   2.976   9.170
 2159SOL    HW1 7157   0.892   2.991   9.190
 2159SOL    HW2 7158   0.984   2.899   9.114
 2160SOL     OW 7159   0.708   2.922   7.820
 2160SOL    HW1 7160   0.695   2.908   7.914
 2160SOL    HW2 7161   0.784   2.869   7.798
 2161SOL     OW 7162   0.430   2.686   8.687
 2161SOL    HW1 7163   0.499   2.697   8.753
 2161SOL    HW2 7164   0.370   2.621   8.727
 2162SOL     OW 7165   1.267   2.240   8.721
 2162SOL    HW1 7166   1.299   2.317   8.768
 2162SOL    HW2 7167   1.177   2.263   8.697
 2163SOL     OW 7168   0.061   3.438   8.787
 2163SOL    HW1 7169   0.033   3.527   8.766
 2163SOL    HW2 7170   0.157   3.444   8.795
 2164SOL     OW 7171   0.350   2.969   7.941
 2164SOL    HW1 7172   0.358   3.042   7.880
 2164SOL    HW2 7173   0.351   2.891   7.886
 2165SOL     OW 7174   0.562   2.397   8.305
 2165SOL    HW1 7175   0.576   2.456   8.231
 2165SOL    HW2 7176   0.621   2.428   8.373
 2166SOL     OW 7177   1.248   3.210   7.837
 2166SOL    HW1 7178   1.303   3.282   7.868
 2166SOL    HW2 7179   1.161   3.231   7.871
 2167SOL     OW 7180   1.278   3.318   8.594
 2167SOL    HW1 7181   1.333   3.320   8.672
 2167SOL    HW2 7182   1.222   3.241   8.605
 2168SOL     OW 7183   1.581   2.486   7.924
 2168SOL    HW1 7184   1.537   2.543   7.988
 2168SOL    HW2 7185   1.629   2.547   7.868
 2169SOL     OW 7186   0.347   3.392   8.765
 2169SOL    HW1 7187   0.333   3.345   8.683
 2169SOL    HW2 7188   0.443   3.402   8.770
 2170SOL     OW 7189   0.474   2.620   9.109
 2170SOL    HW1 7190   0.504   2.660   9.028
 2170SOL    HW2 7191   0.511   2.532   9.109
 2171SOL     OW 7192   1.599   2.642   9.129
 2171SOL    HW1 7193   1.512   2.681   9.121
 2171SOL    HW2 7194   1.650   2.682   9.060
 2172SOL     OW 7195   0.996   1.981   9.204
 2172SOL    HW1 7196   1.049   2.054   9.172
 2172SOL    HW2 7197   1.045   1.903   9.178
 2173SOL     OW 7198   0.498   1.906   9.194
 2173SOL    HW1 7199   0.458   1.849   9.128
 2173SOL    HW2 7200   0.437   1.979   9.202
 2174SOL     OW 7201   0.589   2.735   8.472
 2174SOL    HW1 7202   0.617   2.827   8.474
 2174SOL    HW2 7203   0.532   2.726   8.548
 2175SOL     OW 7204   1.360   2.721   8.481
 2175SOL    HW1 7205   1.278   2.714   8.431
 2175SOL    HW2 7206   1.398   2.633   8.477
 2176SOL     OW 7207   1.206   2.391   7.717
 2176SOL    HW1 7208   1.215   2.313   7.771
 2176SOL    HW2 7209   1.164   2.455   7.773
 2177SOL     OW 7210   0.303   2.055   8.689
 2177SOL    HW1 7211   0.264   2.089   8.770
 2177SOL    HW2 7212   0.285   1.961   8.693
 2178SOL     OW 7213   0.045   3.175   8.732
 2178SOL    HW1 7214   0.077   3.128   8.809
 2178SOL    HW2 7215   0.048   3.267   8.757
 2179SOL     OW 7216   0.726   2.494   8.508
 2179SOL    HW1 7217   0.799   2.475   8.449
 2179SOL    HW2 7218   0.699   2.583   8.485
 2180SOL     OW 7219   1.733   2.823   9.298
 2180SOL    HW1 7220   1.687   2.763   9.239
 2180SOL    HW2 7221   1.674   2.834   9.373
 2181SOL     OW 7222   0.308   1.932   8.067
 2181SOL    HW1 7223   0.287   2.021   8.095
 2181SOL    HW2 7224   0.305   1.880   8.147
 2182SOL     OW 7225   1.613   2.234   7.817
 2182SOL    HW1 7226   1.642   2.172   7.884
 2182SOL    HW2 7227   1.591   2.313   7.866
 2183SOL     OW 7228   1.027   2.621   8.410
 2183SOL    HW1 7229   1.026   2.639   8.504
 2183SOL    HW2 7230   1.001   2.530   8.402
 2184SOL     OW 7231   0.983   3.429   9.163
 2184SOL    HW1 7232   0.967   3.472   9.079
 2184SOL    HW2 7233   1.025   3.346   9.139
 2185SOL     OW 7234   1.856   3.371   9.054
 2185SOL    HW1 7235   1.873   3.396   8.963
 2185SOL    HW2 7236   1.937   3.391   9.100
 2186SOL     OW 7237   0.347   2.793   9.266
 2186SOL    HW1 7238   0.422   2.821   9.320
 2186SOL    HW2 7239   0.384   2.727   9.207
 2187SOL     OW 7240   1.530   2.135   7.575
 2187SOL    HW1 7241   1.466   2.070   7.602
 2187SOL    HW2 7242   1.563   2.172   7.657
 2188SOL     OW 7243   1.294   2.689   7.481
 2188SOL    HW1 7244   1.336   2.603   7.484
 2188SOL    HW2 7245   1.324   2.728   7.399
 2189SOL     OW 7246   1.065   3.197   8.301
 2189SOL    HW1 7247   1.068   3.124   8.239
 2189SOL    HW2 7248   1.127   3.260   8.266
 2190SOL     OW 7249   0.317   2.674   8.398
 2190SOL    HW1 7250   0.411   2.691   8.393
 2190SOL    HW2 7251   0.310   2.583   8.427
 2191SOL     OW 7252   0.333   2.386   8.440
 2191SOL    HW1 7253   0.294   2.299   8.425
 2191SOL    HW2 7254   0.410   2.388   8.385
 2192SOL     OW 7255   1.134   2.240   9.128
 2192SOL    HW1 7256   1.088   2.295   9.192
 2192SOL    HW2 7257   1.223   2.276   9.124
 2193SOL     OW 7258   1.159   2.066   8.918
 2193SOL    HW1 7259   1.151   2.129   8.989
 2193SOL    HW2 7260   1.199   2.116   8.847
 2194SOL     OW 7261   4.492   3.185   7.650
 2194SOL    HW1 7262   4.399   3.200   7.633
 2194SOL    HW2 7263   4.497   3.092   7.673
 2195SOL     OW 7264   0.096   3.642   8.388
 2195SOL    HW1 7265   0.057   3.584   8.323
 2195SOL    HW2 7266   0.183   3.662   8.355
 2196SOL     OW 7267   0.498   3.435   8.354
 2196SOL    HW1 7268   0.566   3.498   8.378
 2196SOL    HW2 7269   0.543   3.371   8.299
 2197SOL     OW 7270   0.987   2.656   8.676
 2197SOL    HW1 7271   1.040   2.631   8.751
 2197SOL    HW2 7272   0.900   2.620   8.695
 2198SOL     OW 7273   0.036   2.424   8.554
 2198SOL    HW1 7274   0.119   2.388   8.521
 2198SOL    HW2 7275   0.025   2.384   8.640
 2199SOL     OW 7276   0.179   2.378   9.161
 2199SOL    HW1 7277   0.259   2.350   9.117
 2199SOL    HW2 7278   0.155   2.460   9.118
 2200SOL     OW 7279   1.375   2.803   9.107
 2200SOL    HW1 7280   1.396   2.896   9.106
 2200SOL    HW2 7281   1.374   2.778   9.015
 2201SOL     OW 7282   0.816   2.431   7.804
 2201SOL    HW1 7283   0.819   2.356   7.745
 2201SOL    HW2 7284   0.742   2.483   7.774
 2202SOL     OW 7285   1.642   2.465   8.638
 2202SOL    HW1 7286   1.633   2.402   8.709
 2202SOL    HW2 7287   1.730   2.449   8.602
 2203SOL     OW 7288   0.272   3.423   9.190
 2203SOL    HW1 7289   0.217   3.476   9.247
 2203SOL    HW2 7290   0.251   3.333   9.213
 2204SOL     OW 7291   0.687   2.318   8.712
 2204SOL    HW1 7292   0.644   2.240   8.677
 2204SOL    HW2 7293   0.691   2.379   8.638
 2205SOL     OW 7294   0.930   3.541   8.914
 2205SOL    HW1 7295   0.903   3.509   8.828
 2205SOL    HW2 7296   0.927   3.636   8.906
 2206SOL     OW 7297   0.472   2.352   7.635
 2206SOL    HW1 7298   0.531   2.425   7.657
 2206SOL    HW2 7299   0.387   2.394   7.621
 2207SOL     OW 7300   0.162   3.003   8.911
 2207SOL    HW1 7301   0.147   2.956   8.993
 2207SOL    HW2 7302   0.170   2.934   8.845
 2208SOL     OW 7303   1.329   2.911   8.672
 2208SOL    HW1 7304   1.352   2.847   8.604
 2208SOL    HW2 7305   1.257   2.961   8.634
 2209SOL     OW 7306   1.309   2.719   7.755
 2209SOL    HW1 7307   1.233   2.688   7.804
 2209SOL    HW2 7308   1.286   2.705   7.663
 2210SOL     OW 7309   1.769   3.608   8.597
 2210SOL    HW1 7310   1.829   3.634   8.527
 2210SOL    HW2 7311   1.745   3.518   8.576
 2211SOL     OW 7312   1.242   3.595   8.564
 2211SOL    HW1 7313   1.323   3.614   8.518
 2211SOL    HW2 7314   1.245   3.501   8.582
 2212SOL     OW 7315   0.067   3.049   8.496
 2212SOL    HW1 7316   0.071   3.083   8.586
 2212SOL    HW2 7317   0.015   3.113   8.449
 2213SOL     OW 7318   0.679   3.526   9.174
 2213SOL    HW1 7319   0.624   3.605   9.170
 2213SOL    HW2 7320   0.741   3.536   9.102
 2214SOL     OW 7321   1.717   2.004   7.959
 2214SOL    HW1 7322   1.791   1.990   7.900
 2214SOL    HW2 7323   1.702   1.919   8.000
 2215SOL     OW 7324   1.390   3.430   7.931
 2215SOL    HW1 7325   1.451   3.461   7.864
 2215SOL    HW2 7326   1.342   3.508   7.959
 2216SOL     OW 7327   0.120   3.669   9.295
 2216SOL    HW1 7328   0.081   3.596   9.342
 2216SOL    HW2 7329   0.183   3.706   9.357
 2217SOL     OW 7330   1.277   2.787   8.119
 2217SOL    HW1 7331   1.350   2.725   8.124
 2217SOL    HW2 7332   1.311   2.860   8.067
 2218SOL     OW 7333   0.817   3.135   8.879
 2218SOL    HW1 7334   0.791   3.173   8.962
 2218SOL    HW2 7335   0.746   3.156   8.819
 2219SOL     OW 7336   0.673   3.479   7.603
 2219SOL    HW1 7337   0.681   3.490   7.508
 2219SOL    HW2 7338   0.619   3.401   7.613
 2220SOL     OW 7339   1.631   3.589   8.840
 2220SOL    HW1 7340   1.679   3.596   8.757
 2220SOL    HW2 7341   1.618   3.679   8.868
 2221SOL     OW 7342   1.847   2.044   8.414
 2221SOL    HW1 7343   1.880   1.958   8.389
 2221SOL    HW2 7344   1.760   2.050   8.374
 2222SOL     OW 7345   0.266   2.182   8.167
 2222SOL    HW1 7346   0.183   2.221   8.139
 2222SOL    HW2 7347   0.255   2.170   8.262
 2223SOL     OW 7348   1.206   3.469   7.479
 2223SOL    HW1 7349   1.198   3.378   7.507
 2223SOL    HW2 7350   1.141   3.480   7.410
 2224SOL     OW 7351   0.825   2.868   8.820
 2224SOL    HW1 7352   0.868   2.865   8.734
 2224SOL    HW2 7353   0.825   2.961   8.843
 2225SOL     OW 7354   0.915   2.773   7.737
 2225SOL    HW1 7355   0.977   2.804   7.671
 2225SOL    HW2 7356   0.962   2.702   7.782
 2226SOL     OW 7357   1.494   3.487   7.490
 2226SOL    HW1 7358   1.399   3.482   7.478
 2226SOL    HW2 7359   1.529   3.493   7.401
 2227SOL     OW 7360   0.373   3.168   8.939
 2227SOL    HW1 7361   0.356   3.246   8.887
 2227SOL    HW2 7362   0.297   3.111   8.923
 2228SOL     OW 7363   1.613   3.146   8.729
 2228SOL    HW1 7364   1.670   3.136   8.805
 2228SOL    HW2 7365   1.551   3.215   8.754
 2229SOL     OW 7366   1.049   2.968   8.153
 2229SOL    HW1 7367   0.979   2.917   8.193
 2229SOL    HW2 7368   1.111   2.902   8.120
 2230SOL     OW 7369   1.019   2.102   8.414
 2230SOL    HW1 7370   1.015   2.054   8.331
 2230SOL    HW2 7371   1.015   2.034   8.481
 2231SOL     OW 7372   0.603   3.352   7.931
 2231SOL    HW1 7373   0.642   3.301   7.860
 2231SOL    HW2 7374   0.531   3.399   7.890
 2232SOL     OW 7375   1.717   2.258   8.825
 2232SOL    HW1 7376   1.794   2.314   8.829
 2232SOL    HW2 7377   1.746   2.182   8.774
 2233SOL     OW 7378   0.252   3.207   7.725
 2233SOL    HW1 7379   0.157   3.207   7.711
 2233SOL    HW2 7380   0.262   3.239   7.815
 2234SOL     OW 7381   0.117   2.870   9.143
 2234SOL    HW1 7382   0.052   2.908   9.202
 2234SOL    HW2 7383   0.195   2.858   9.198
 2235SOL     OW 7384   0.673   2.061   8.946
 2235SOL    HW1 7385   0.756   2.040   8.904
 2235SOL    HW2 7386   0.697   2.088   9.035
 2236SOL     OW 7387   0.072   2.188   7.481
 2236SOL    HW1 7388   4.477   2.198   7.481
 2236SOL    HW2 7389   0.104   2.270   7.443
 2237SOL     OW 7390   1.432   2.721   8.850
 2237SOL    HW1 7391   1.383   2.780   8.793
 2237SOL    HW2 7392   1.521   2.723   8.816
 2238SOL     OW 7393   0.085   2.039   7.754
 2238SOL    HW1 7394   0.078   2.111   7.691
 2238SOL    HW2 7395   0.161   1.989   7.726
 2239SOL     OW 7396   1.179   3.203   7.565
 2239SOL    HW1 7397   1.089   3.173   7.568
 2239SOL    HW2 7398   1.208   3.202   7.656
 2240SOL     OW 7399   0.621   2.693   8.877
 2240SOL    HW1 7400   0.677   2.770   8.864
 2240SOL    HW2 7401   0.683   2.621   8.886
 2241SOL     OW 7402   1.485   3.637   8.424
 2241SOL    HW1 7403   1.510   3.694   8.352
 2241SOL    HW2 7404   1.566   3.620   8.471
 2242SOL     OW 7405   0.716   2.425   9.152
 2242SOL    HW1 7406   0.751   2.490   9.213
 2242SOL    HW2 7407   0.751   2.341   9.183
 2243SOL     OW 7408   1.469   3.065   9.081
 2243SOL    HW1 7409   1.457   3.077   9.175
 2243SOL    HW2 7410   1.563   3.077   9.067
 2244SOL     OW 7411   0.382   3.605   9.012
 2244SOL    HW1 7412   0.296   3.644   8.996
 2244SOL    HW2 7413   0.363   3.523   9.059
 2245SOL     OW 7414   1.672   2.744   8.703
 2245SOL    HW1 7415   1.662   2.658   8.662
 2245SOL    HW2 7416   1.662   2.807   8.632
 2246SOL     OW 7417   1.218   2.182   7.905
 2246SOL    HW1 7418   1.282   2.111   7.896
 2246SOL    HW2 7419   1.247   2.230   7.983
 2247SOL     OW 7420   0.591   2.601   8.116
 2247SOL    HW1 7421   0.629   2.687   8.099
 2247SOL    HW2 7422   0.521   2.594   8.051
 2248SOL     OW 7423   1.750   2.237   9.105
 2248SOL    HW1 7424   1.757   2.233   9.010
 2248SOL    HW2 7425   1.683   2.172   9.127
 2249SOL     OW 7426   1.744   2.795   8.960
 2249SOL    HW1 7427   1.744   2.890   8.973
 2249SOL    HW2 7428   1.729   2.784   8.866
 2250SOL     OW 7429   0.863   3.230   7.479
 2250SOL    HW1 7430   0.823   3.256   7.562
 2250SOL    HW2 7431   0.881   3.313   7.434
 2251SOL     OW 7432   0.660   3.655   8.396
 2251SOL    HW1 7433   0.638   3.745   8.371
 2251SOL    HW2 7434   0.755   3.650   8.386
 2252SOL     OW 7435   0.867   2.828   8.304
 2252SOL    HW1 7436   0.917   2.757   8.344
 2252SOL    HW2 7437   0.833   2.878   8.378
 2253SOL     OW 7438   1.080   2.850   7.537
 2253SOL    HW1 7439   1.058   2.900   7.458
 2253SOL    HW2 7440   1.155   2.797   7.511
 2254SOL     OW 7441   1.856   3.418   8.293
 2254SOL    HW1 7442   1.779   3.407   8.237
 2254SOL    HW2 7443   1.846   3.351   8.361
 2255SOL     OW 7444   0.229   3.168   9.305
 2255SOL    HW1 7445   0.159   3.108   9.280
 2255SOL    HW2 7446   0.220   3.178   9.399
 2256SOL     OW 7447   0.103   3.100   8.115
 2256SOL    HW1 7448   0.110   3.050   8.196
 2256SOL    HW2 7449   0.163   3.056   8.055
 2257SOL     OW 7450   0.681   3.263   9.075
 2257SOL    HW1 7451   0.601   3.219   9.103
 2257SOL    HW2 7452   0.674   3.351   9.112
 2258SOL     OW 7453   1.804   2.054   8.679
 2258SOL    HW1 7454   1.842   1.971   8.710
 2258SOL    HW2 7455   1.820   2.054   8.585
 2259SOL     OW 7456   0.434   2.295   7.973
 2259SOL    HW1 7457   0.459   2.222   7.917
 2259SOL    HW2 7458   0.384   2.255   8.044
 2260SOL     OW 7459   1.701   3.352   8.547
 2260SOL    HW1 7460   1.620   3.328   8.502
 2260SOL    HW2 7461   1.714   3.284   8.613
 2261SOL     OW 7462   0.304   2.350   8.704
 2261SOL    HW1 7463   0.378   2.310   8.749
 2261SOL    HW2 7464   0.335   2.365   8.615
 2262SOL     OW 7465   0.826   3.440   8.127
 2262SOL    HW1 7466   0.817   3.487   8.044
 2262SOL    HW2 7467   0.748   3.384   8.131
 2263SOL     OW 7468   1.432   2.085   8.565
 2263SOL    HW1 7469   1.467   2.011   8.614
 2263SOL    HW2 7470   1.380   2.134   8.630
 2264SOL     OW 7471   1.008   1.882   8.593
 2264SOL    HW1 7472   0.954   1.813   8.554
 2264SOL    HW2 7473   1.096   1.845   8.595
 2265SOL     OW 7474   0.772   3.194   7.759
 2265SOL    HW1 7475   0.738   3.105   7.766
 2265SOL    HW2 7476   0.854   3.193   7.808
 2266SOL     OW 7477   0.621   3.420   8.732
 2266SOL    HW1 7478   0.623   3.501   8.783
 2266SOL    HW2 7479   0.708   3.413   8.694
 2267SOL     OW 7480   1.352   1.916   7.612
 2267SOL    HW1 7481   1.378   1.855   7.543
 2267SOL    HW2 7482   1.265   1.884   7.639
 2268SOL     OW 7483   1.297   2.322   8.130
 2268SOL    HW1 7484   1.243   2.401   8.139
 2268SOL    HW2 7485   1.294   2.282   8.217
 2269SOL     OW 7486   1.589   2.065   8.325
 2269SOL    HW1 7487   1.526   2.083   8.395
 2269SOL    HW2 7488   1.588   2.143   8.271
 2270SOL     OW 7489   0.041   2.915   7.735
 2270SOL    HW1 7490   0.136   2.902   7.727
 2270SOL    HW2 7491   0.019   2.877   7.820
 2271SOL     OW 7492   0.882   3.513   7.792
 2271SOL    HW1 7493   0.811   3.494   7.731
 2271SOL    HW2 7494   0.852   3.588   7.842
 2272SOL     OW 7495   0.248   2.490   9.429
 2272SOL    HW1 7496   0.173   2.473   9.486
 2272SOL    HW2 7497   0.217   2.469   9.341
 2273SOL     OW 7498   0.214   2.138  10.301
 2273SOL    HW1 7499   0.250   2.112  10.386
 2273SOL    HW2 7500   0.137   2.082  10.290
 2274SOL     OW 7501   0.009   2.250   9.949
 2274SOL    HW1 7502   4.429   2.281   9.991
 2274SOL    HW2 7503   4.484   2.170   9.904
 2275SOL     OW 7504   0.567   3.146  10.484
 2275SOL    HW1 7505   0.480   3.149  10.445
 2275SOL    HW2 7506   0.582   3.234  10.518
 2276SOL     OW 7507   1.558   3.374  10.016
 2276SOL    HW1 7508   1.515   3.355  10.099
 2276SOL    HW2 7509   1.487   3.378   9.952
 2277SOL     OW 7510   1.129   2.561  10.013
 2277SOL    HW1 7511   1.180   2.641   9.999
 2277SOL    HW2 7512   1.083   2.576  10.095
 2278SOL     OW 7513   1.767   2.468   9.540
 2278SOL    HW1 7514   1.746   2.460   9.447
 2278SOL    HW2 7515   1.732   2.389   9.579
 2279SOL     OW 7516   0.759   3.006  10.349
 2279SOL    HW1 7517   0.688   3.040  10.405
 2279SOL    HW2 7518   0.792   3.084  10.303
 2280SOL     OW 7519   0.849   2.645   0.020
 2280SOL    HW1 7520   0.859   2.701   0.097
 2280SOL    HW2 7521   0.884   2.697  11.048
 2281SOL     OW 7522   0.686   2.868   9.959
 2281SOL    HW1 7523   0.750   2.854  10.028
 2281SOL    HW2 7524   0.616   2.918  10.001
 2282SOL     OW 7525   0.337   3.284  10.379
 2282SOL    HW1 7526   0.255   3.265  10.333
 2282SOL    HW2 7527   0.386   3.339  10.318
 2283SOL     OW 7528   1.463   3.362  10.657
 2283SOL    HW1 7529   1.516   3.441  10.667
 2283SOL    HW2 7530   1.415   3.354  10.739
 2284SOL     OW 7531   0.447   2.264  10.792
 2284SOL    HW1 7532   0.525   2.209  10.802
 2284SOL    HW2 7533   0.374   2.206  10.814
 2285SOL     OW 7534   1.611   2.310  10.051
 2285SOL    HW1 7535   1.536   2.335   9.997
 2285SOL    HW2 7536   1.633   2.389  10.100
 2286SOL     OW 7537   0.246   3.553   9.789
 2286SOL    HW1 7538   0.232   3.638   9.831
 2286SOL    HW2 7539   0.309   3.571   9.719
 2287SOL     OW 7540   0.246   3.289   9.838
 2287SOL    HW1 7541   0.238   3.384   9.842
 2287SOL    HW2 7542   0.181   3.257   9.901
 2288SOL     OW 7543   0.246   2.944  10.193
 2288SOL    HW1 7544   0.263   2.855  10.226
 2288SOL    HW2 7545   0.188   2.982  10.259
 2289SOL     OW 7546   0.614   3.652  10.740
 2289SOL    HW1 7547   0.533   3.633  10.787
 2289SOL    HW2 7548   0.635   3.742  10.765
 2290SOL     OW 7549   0.583   2.846   9.446
 2290SOL    HW1 7550   0.628   2.892   9.375
 2290SOL    HW2 7551   0.628   2.874   9.526
 2291SOL     OW 7552   1.587   1.978  10.780
 2291SOL    HW1 7553   1.599   2.057  10.727
 2291SOL    HW2 7554   1.597   2.009  10.871
 2292SOL     OW 7555   0.136   2.506   9.884
 2292SOL    HW1 7556   0.087   2.426   9.899
 2292SOL    HW2 7557   0.106   2.566   9.953
 2293SOL     OW 7558   1.842   3.623   9.646
 2293SOL    HW1 7559   1.902   3.594   9.715
 2293SOL    HW2 7560   1.868   3.713   9.628
 2294SOL     OW 7561   0.033   3.463   9.447
 2294SOL    HW1 7562   0.021   3.368   9.448
 2294SOL    HW2 7563   0.013   3.490   9.536
 2295SOL     OW 7564   1.691   2.782   9.949
 2295SOL    HW1 7565   1.773   2.738   9.928
 2295SOL    HW2 7566   1.669   2.831   9.870
 2296SOL     OW 7567   1.645   2.970   9.740
 2296SOL    HW1 7568   1.730   2.977   9.697
 2296SOL    HW2 7569   1.649   3.030   9.814
 2297SOL     OW 7570   0.101   2.619  10.911
 2297SOL    HW1 7571   0.194   2.605  10.892
 2297SOL    HW2 7572   0.088   2.713  10.901
 2298SOL     OW 7573   0.613   3.245  10.046
 2298SOL    HW1 7574   0.566   3.162  10.055
 2298SOL    HW2 7575   0.597   3.272   9.956
 2299SOL     OW 7576   1.296   3.100  10.751
 2299SOL    HW1 7577   1.321   3.039  10.681
 2299SOL    HW2 7578   1.351   3.075  10.825
 2300SOL     OW 7579   0.814   1.861   9.816
 2300SOL    HW1 7580   0.854   1.946   9.800
 2300SOL    HW2 7581   0.720   1.880   9.827
 2301SOL     OW 7582   0.181   2.805  10.589
 2301SOL    HW1 7583   0.273   2.787  10.567
 2301SOL    HW2 7584   0.133   2.782  10.510
 2302SOL     OW 7585   1.532   2.854   9.507
 2302SOL    HW1 7586   1.462   2.796   9.536
 2302SOL    HW2 7587   1.571   2.888   9.588
 2303SOL     OW 7588   1.195   3.668  10.926
 2303SOL    HW1 7589   1.196   3.729  10.853
 2303SOL    HW2 7590   1.203   3.582  10.885
 2304SOL     OW 7591   0.339   2.125   0.004
 2304SOL    HW1 7592   0.387   2.199   0.042
 2304SOL    HW2 7593   0.247   2.145   0.021
 2305SOL     OW 7594   1.466   3.281  10.263
 2305SOL    HW1 7595   1.397   3.296  10.327
 2305SOL    HW2 7596   1.454   3.191  10.235
 2306SOL     OW 7597   1.661   3.596   9.888
 2306SOL    HW1 7598   1.638   3.568   9.799
 2306SOL    HW2 7599   1.635   3.523   9.944
 2307SOL     OW 7600   0.598   2.584   9.575
 2307SOL    HW1 7601   0.602   2.664   9.523
 2307SOL    HW2 7602   0.532   2.602   9.642
 2308SOL     OW 7603   1.279   2.212  10.243
 2308SOL    HW1 7604   1.190   2.178  10.250
 2308SOL    HW2 7605   1.330   2.159  10.304
 2309SOL     OW 7606   1.581   3.531   9.619
 2309SOL    HW1 7607   1.671   3.565   9.613
 2309SOL    HW2 7608   1.556   3.514   9.528
 2310SOL     OW 7609   0.795   2.477  10.763
 2310SOL    HW1 7610   0.767   2.454  10.852
 2310SOL    HW2 7611   0.751   2.413  10.707
 2311SOL     OW 7612   0.966   2.760  10.900
 2311SOL    HW1 7613   1.014   2.687  10.861
 2311SOL    HW2 7614   0.916   2.797  10.827
 2312SOL     OW 7615   0.992   2.275  10.550
 2312SOL    HW1 7616   0.908   2.299  10.589
 2312SOL    HW2 7617   0.970   2.228  10.470
 2313SOL     OW 7618   1.050   2.561   9.737
 2313SOL    HW1 7619   1.065   2.554   9.831
 2313SOL    HW2 7620   0.968   2.513   9.722
 2314SOL     OW 7621   0.098   2.687  10.093
 2314SOL    HW1 7622   0.184   2.667  10.130
 2314SOL    HW2 7623   0.050   2.728  10.166
 2315SOL     OW 7624   0.120   3.712  10.899
 2315SOL    HW1 7625   0.115   3.652  10.974
 2315SOL    HW2 7626   0.051   3.681  10.839
 2316SOL     OW 7627   0.888   2.209   9.504
 2316SOL    HW1 7628   0.931   2.270   9.444
 2316SOL    HW2 7629   0.906   2.122   9.467
 2317SOL     OW 7630   1.375   3.005   9.852
 2317SOL    HW1 7631   1.454   2.990   9.799
 2317SOL    HW2 7632   1.323   3.066   9.802
 2318SOL     OW 7633   0.551   2.045  10.203
 2318SOL    HW1 7634   0.553   2.074  10.294
 2318SOL    HW2 7635   0.552   2.127  10.152
 2319SOL     OW 7636   1.008   3.308   9.784
 2319SOL    HW1 7637   0.968   3.379   9.734
 2319SOL    HW2 7638   0.992   3.330   9.875
 2320SOL     OW 7639   0.354   3.670  10.167
 2320SOL    HW1 7640   0.398   3.585  10.177
 2320SOL    HW2 7641   0.424   3.734  10.181
 2321SOL     OW 7642   1.799   2.920  10.176
 2321SOL    HW1 7643   1.743   2.903  10.101
 2321SOL    HW2 7644   1.739   2.926  10.250
 2322SOL     OW 7645   1.227   3.402  10.824
 2322SOL    HW1 7646   1.235   3.315  10.864
 2322SOL    HW2 7647   1.167   3.389  10.750
 2323SOL     OW 7648   0.317   2.816   9.560
 2323SOL    HW1 7649   0.401   2.838   9.521
 2323SOL    HW2 7650   0.299   2.727   9.531
 2324SOL     OW 7651   1.476   2.602  10.038
 2324SOL    HW1 7652   1.465   2.556  10.121
 2324SOL    HW2 7653   1.554   2.657  10.051
 2325SOL     OW 7654   0.455   3.130  11.052
 2325SOL    HW1 7655   0.427   3.140  10.961
 2325SOL    HW2 7656   0.386   3.078  11.093
 2326SOL     OW 7657   1.121   3.640   9.542
 2326SOL    HW1 7658   1.049   3.597   9.588
 2326SOL    HW2 7659   1.143   3.579   9.470
 2327SOL     OW 7660   0.193   2.139  10.797
 2327SOL    HW1 7661   0.136   2.216  10.804
 2327SOL    HW2 7662   0.190   2.098  10.883
 2328SOL     OW 7663   1.629   3.242   9.397
 2328SOL    HW1 7664   1.588   3.327   9.382
 2328SOL    HW2 7665   1.560   3.178   9.378
 2329SOL     OW 7666   0.469   3.606   9.624
 2329SOL    HW1 7667   0.509   3.658   9.693
 2329SOL    HW2 7668   0.543   3.573   9.573
 2330SOL     OW 7669   1.401   1.970   9.741
 2330SOL    HW1 7670   1.390   1.945   9.649
 2330SOL    HW2 7671   1.496   1.977   9.752
 2331SOL     OW 7672   0.256   3.655  10.545
 2331SOL    HW1 7673   0.305   3.583  10.586
 2331SOL    HW2 7674   0.229   3.620  10.460
 2332SOL     OW 7675   0.938   3.560  10.210
 2332SOL    HW1 7676   1.016   3.507  10.230
 2332SOL    HW2 7677   0.893   3.511  10.141
 2333SOL     OW 7678   0.393   2.557   9.784
 2333SOL    HW1 7679   0.417   2.465   9.794
 2333SOL    HW2 7680   0.301   2.560   9.810
 2334SOL     OW 7681   0.631   1.988   9.415
 2334SOL    HW1 7682   0.703   1.927   9.429
 2334SOL    HW2 7683   0.585   1.953   9.338
 2335SOL     OW 7684   0.770   2.133  11.045
 2335SOL    HW1 7685   0.835   2.076  11.087
 2335SOL    HW2 7686   0.710   2.157   0.016
 2336SOL     OW 7687   0.876   3.383  10.503
 2336SOL    HW1 7688   0.861   3.348  10.415
 2336SOL    HW2 7689   0.948   3.330  10.538
 2337SOL     OW 7690   1.343   2.451  10.752
 2337SOL    HW1 7691   1.393   2.429  10.831
 2337SOL    HW2 7692   1.371   2.540  10.730
 2338SOL     OW 7693   0.814   3.259  10.247
 2338SOL    HW1 7694   0.898   3.249  10.201
 2338SOL    HW2 7695   0.748   3.258  10.177
 2339SOL     OW 7696   0.927   2.371  10.214
 2339SOL    HW1 7697   0.904   2.363  10.121
 2339SOL    HW2 7698   0.960   2.284  10.238
 2340SOL     OW 7699   0.551   1.924   9.813
 2340SOL    HW1 7700   0.470   1.923   9.865
 2340SOL    HW2 7701   0.544   2.002   9.760
 2341SOL     OW 7702   1.429   3.060   9.351
 2341SOL    HW1 7703   1.459   2.984   9.401
 2341SOL    HW2 7704   1.342   3.079   9.388
 2342SOL     OW 7705   0.295   1.908   9.488
 2342SOL    HW1 7706   0.357   1.975   9.461
 2342SOL    HW2 7707   0.349   1.842   9.532
 2343SOL     OW 7708   0.937   2.107   9.773
 2343SOL    HW1 7709   0.908   2.149   9.692
 2343SOL    HW2 7710   1.031   2.119   9.775
 2344SOL     OW 7711   1.079   2.546  10.771
 2344SOL    HW1 7712   1.008   2.481  10.776
 2344SOL    HW2 7713   1.158   2.493  10.767
 2345SOL     OW 7714   1.224   3.431  10.104
 2345SOL    HW1 7715   1.242   3.499  10.038
 2345SOL    HW2 7716   1.292   3.444  10.170
 2346SOL     OW 7717   0.465   3.010  10.047
 2346SOL    HW1 7718   0.394   2.991  10.108
 2346SOL    HW2 7719   0.428   2.994   9.960
 2347SOL     OW 7720   1.271   3.657   9.916
 2347SOL    HW1 7721   1.315   3.718   9.858
 2347SOL    HW2 7722   1.205   3.710   9.962
 2348SOL     OW 7723   1.025   2.406   9.330
 2348SOL    HW1 7724   0.982   2.490   9.310
 2348SOL    HW2 7725   1.089   2.428   9.398
 2349SOL     OW 7726   0.074   2.394  10.714
 2349SOL    HW1 7727   0.148   2.395  10.653
 2349SOL    HW2 7728   0.069   2.483  10.748
 2350SOL     OW 7729   0.561   2.089  10.475
 2350SOL    HW1 7730   0.601   2.009  10.509
 2350SOL    HW2 7731   0.470   2.084  10.502
 2351SOL     OW 7732   0.869   2.322   9.950
 2351SOL    HW1 7733   0.822   2.375   9.886
 2351SOL    HW2 7734   0.889   2.240   9.903
 2352SOL     OW 7735   1.014   1.915  10.063
 2352SOL    HW1 7736   0.956   1.907   9.988
 2352SOL    HW2 7737   0.994   1.839  10.118
 2353SOL     OW 7738   1.435   3.026  10.167
 2353SOL    HW1 7739   1.368   2.957  10.166
 2353SOL    HW2 7740   1.458   3.038  10.075
 2354SOL     OW 7741   1.466   2.466  10.290
 2354SOL    HW1 7742   1.419   2.383  10.292
 2354SOL    HW2 7743   1.527   2.461  10.364
 2355SOL     OW 7744   1.848   2.680   9.692
 2355SOL    HW1 7745   1.902   2.626   9.750
 2355SOL    HW2 7746   1.819   2.619   9.624
 2356SOL     OW 7747   0.492   3.277   9.471
 2356SOL    HW1 7748   0.416   3.247   9.521
 2356SOL    HW2 7749   0.472   3.255   9.380
 2357SOL     OW 7750   1.668   3.127   9.958
 2357SOL    HW1 7751   1.763   3.133   9.971
 2357SOL    HW2 7752   1.636   3.215   9.979
 2358SOL     OW 7753   1.394   2.434   9.382
 2358SOL    HW1 7754   1.333   2.415   9.453
 2358SOL    HW2 7755   1.478   2.399   9.412
 2359SOL     OW 7756   0.525   2.122   9.630
 2359SOL    HW1 7757   0.568   2.075   9.559
 2359SOL    HW2 7758   0.507   2.209   9.593
 2360SOL     OW 7759   1.760   3.092  10.871
 2360SOL    HW1 7760   1.850   3.061  10.878
 2360SOL    HW2 7761   1.761   3.178  10.912
 2361SOL     OW 7762   1.065   3.216  10.650
 2361SOL    HW1 7763   0.987   3.183  10.695
 2361SOL    HW2 7764   1.137   3.168  10.690
 2362SOL     OW 7765   1.127   3.066  10.417
 2362SOL    HW1 7766   1.063   3.102  10.479
 2362SOL    HW2 7767   1.095   3.094  10.331
 2363SOL     OW 7768   1.631   2.962  10.388
 2363SOL    HW1 7769   1.628   3.024  10.461
 2363SOL    HW2 7770   1.550   2.978  10.339
 2364SOL     OW 7771   0.917   1.961  10.708
 2364SOL    HW1 7772   0.941   1.941  10.617
 2364SOL    HW2 7773   0.996   2.002  10.745
 2365SOL     OW 7774   0.708   2.923   9.682
 2365SOL    HW1 7775   0.695   2.908   9.776
 2365SOL    HW2 7776   0.784   2.869   9.660
 2366SOL     OW 7777   0.428   2.684  10.550
 2366SOL    HW1 7778   0.497   2.694  10.616
 2366SOL    HW2 7779   0.368   2.620  10.588
 2367SOL     OW 7780   1.267   2.241  10.586
 2367SOL    HW1 7781   1.299   2.319  10.631
 2367SOL    HW2 7782   1.178   2.263  10.559
 2368SOL     OW 7783   0.062   3.440  10.654
 2368SOL    HW1 7784   0.037   3.526  10.621
 2368SOL    HW2 7785   0.158   3.442  10.656
 2369SOL     OW 7786   0.351   2.969   9.803
 2369SOL    HW1 7787   0.358   3.042   9.742
 2369SOL    HW2 7788   0.352   2.891   9.748
 2370SOL     OW 7789   0.562   2.396  10.167
 2370SOL    HW1 7790   0.576   2.456  10.093
 2370SOL    HW2 7791   0.621   2.428  10.235
 2371SOL     OW 7792   1.248   3.210   9.699
 2371SOL    HW1 7793   1.303   3.282   9.730
 2371SOL    HW2 7794   1.161   3.231   9.733
 2372SOL     OW 7795   1.277   3.319  10.454
 2372SOL    HW1 7796   1.333   3.322  10.531
 2372SOL    HW2 7797   1.224   3.240  10.466
 2373SOL     OW 7798   1.581   2.486   9.786
 2373SOL    HW1 7799   1.537   2.542   9.850
 2373SOL    HW2 7800   1.629   2.547   9.730
 2374SOL     OW 7801   0.347   3.388  10.626
 2374SOL    HW1 7802   0.334   3.343  10.543
 2374SOL    HW2 7803   0.441   3.401  10.632
 2375SOL     OW 7804   0.480   2.608  10.965
 2375SOL    HW1 7805   0.514   2.647  10.885
 2375SOL    HW2 7806   0.514   2.519  10.966
 2376SOL     OW 7807   1.591   2.624  10.969
 2376SOL    HW1 7808   1.514   2.681  10.964
 2376SOL    HW2 7809   1.661   2.674  10.927
 2377SOL     OW 7810   0.589   2.735  10.335
 2377SOL    HW1 7811   0.616   2.827  10.336
 2377SOL    HW2 7812   0.531   2.725  10.411
 2378SOL     OW 7813   1.360   2.723  10.345
 2378SOL    HW1 7814   1.279   2.715  10.295
 2378SOL    HW2 7815   1.399   2.635  10.341
 2379SOL     OW 7816   1.206   2.391   9.579
 2379SOL    HW1 7817   1.214   2.313   9.633
 2379SOL    HW2 7818   1.164   2.455   9.635
 2380SOL     OW 7819   0.302   2.055  10.551
 2380SOL    HW1 7820   0.265   2.091  10.632
 2380SOL    HW2 7821   0.284   1.961  10.555
 2381SOL     OW 7822   0.046   3.177  10.594
 2381SOL    HW1 7823   0.077   3.128  10.671
 2381SOL    HW2 7824   0.047   3.268  10.622
 2382SOL     OW 7825   0.726   2.495  10.370
 2382SOL    HW1 7826   0.799   2.475  10.311
 2382SOL    HW2 7827   0.699   2.583  10.346
 2383SOL     OW 7828   0.309   1.932   9.929
 2383SOL    HW1 7829   0.287   2.021   9.957
 2383SOL    HW2 7830   0.305   1.880  10.009
 2384SOL     OW 7831   1.613   2.234   9.679
 2384SOL    HW1 7832   1.642   2.172   9.746
 2384SOL    HW2 7833   1.591   2.313   9.728
 2385SOL     OW 7834   1.027   2.622  10.272
 2385SOL    HW1 7835   1.026   2.639  10.366
 2385SOL    HW2 7836   1.000   2.530  10.264
 2386SOL     OW 7837   0.974   3.434  11.004
 2386SOL    HW1 7838   0.960   3.483  10.923
 2386SOL    HW2 7839   1.005   3.348  10.975
 2387SOL     OW 7840   1.858   3.358  10.912
 2387SOL    HW1 7841   1.873   3.393  10.824
 2387SOL    HW2 7842   1.925   3.400  10.965
 2388SOL     OW 7843   0.349   2.795  11.095
 2388SOL    HW1 7844   0.424   2.823   0.048
 2388SOL    HW2 7845   0.382   2.722  11.042
 2389SOL     OW 7846   1.530   2.136   9.438
 2389SOL    HW1 7847   1.466   2.070   9.464
 2389SOL    HW2 7848   1.563   2.172   9.520
 2390SOL     OW 7849   1.294   2.689   9.343
 2390SOL    HW1 7850   1.336   2.603   9.346
 2390SOL    HW2 7851   1.324   2.728   9.261
 2391SOL     OW 7852   1.066   3.196  10.163
 2391SOL    HW1 7853   1.068   3.124  10.101
 2391SOL    HW2 7854   1.128   3.260  10.128
 2392SOL     OW 7855   0.317   2.674  10.260
 2392SOL    HW1 7856   0.411   2.691  10.255
 2392SOL    HW2 7857   0.310   2.583  10.289
 2393SOL     OW 7858   0.333   2.386  10.303
 2393SOL    HW1 7859   0.294   2.300  10.287
 2393SOL    HW2 7860   0.410   2.387  10.247
 2394SOL     OW 7861   1.156   2.071  10.781
 2394SOL    HW1 7862   1.169   2.128  10.857
 2394SOL    HW2 7863   1.196   2.119  10.709
 2395SOL     OW 7864   4.492   3.185   9.512
 2395SOL    HW1 7865   4.399   3.200   9.495
 2395SOL    HW2 7866   4.497   3.092   9.535
 2396SOL     OW 7867   0.095   3.641  10.250
 2396SOL    HW1 7868   0.057   3.583  10.184
 2396SOL    HW2 7869   0.182   3.662  10.217
 2397SOL     OW 7870   0.498   3.435  10.216
 2397SOL    HW1 7871   0.567   3.498  10.240
 2397SOL    HW2 7872   0.543   3.371  10.161
 2398SOL     OW 7873   0.987   2.657  10.538
 2398SOL    HW1 7874   1.040   2.633  10.614
 2398SOL    HW2 7875   0.900   2.620  10.556
 2399SOL     OW 7876   0.035   2.422  10.414
 2399SOL    HW1 7877   0.119   2.388  10.384
 2399SOL    HW2 7878   0.026   2.390  10.504
 2400SOL     OW 7879   0.816   2.431   9.666
 2400SOL    HW1 7880   0.819   2.356   9.607
 2400SOL    HW2 7881   0.742   2.483   9.636
 2401SOL     OW 7882   1.644   2.464  10.497
 2401SOL    HW1 7883   1.636   2.404  10.570
 2401SOL    HW2 7884   1.731   2.448  10.462
 2402SOL     OW 7885   0.264   3.434  11.057
 2402SOL    HW1 7886   0.211   3.463   0.032
 2402SOL    HW2 7887   0.244   3.341  11.048
 2403SOL     OW 7888   0.693   2.317  10.573
 2403SOL    HW1 7889   0.645   2.240  10.540
 2403SOL    HW2 7890   0.693   2.378  10.499
 2404SOL     OW 7891   0.941   3.544  10.759
 2404SOL    HW1 7892   0.902   3.512  10.678
 2404SOL    HW2 7893   0.927   3.639  10.757
 2405SOL     OW 7894   0.472   2.352   9.497
 2405SOL    HW1 7895   0.531   2.425   9.519
 2405SOL    HW2 7896   0.387   2.394   9.483
 2406SOL     OW 7897   0.163   3.004  10.771
 2406SOL    HW1 7898   0.140   2.960  10.853
 2406SOL    HW2 7899   0.169   2.932  10.707
 2407SOL     OW 7900   1.327   2.916  10.538
 2407SOL    HW1 7901   1.353   2.850  10.473
 2407SOL    HW2 7902   1.255   2.963  10.496
 2408SOL     OW 7903   1.309   2.719   9.617
 2408SOL    HW1 7904   1.233   2.688   9.666
 2408SOL    HW2 7905   1.286   2.705   9.525
 2409SOL     OW 7906   1.770   3.609  10.460
 2409SOL    HW1 7907   1.829   3.634  10.389
 2409SOL    HW2 7908   1.746   3.518  10.440
 2410SOL     OW 7909   1.241   3.596  10.426
 2410SOL    HW1 7910   1.323   3.615  10.380
 2410SOL    HW2 7911   1.245   3.502  10.443
 2411SOL     OW 7912   0.068   3.049  10.358
 2411SOL    HW1 7913   0.072   3.083  10.448
 2411SOL    HW2 7914   0.014   3.113  10.311
 2412SOL     OW 7915   1.719   2.005   9.823
 2412SOL    HW1 7916   1.791   1.990   9.761
 2412SOL    HW2 7917   1.703   1.919   9.862
 2413SOL     OW 7918   1.390   3.430   9.793
 2413SOL    HW1 7919   1.451   3.461   9.726
 2413SOL    HW2 7920   1.342   3.508   9.821
 2414SOL     OW 7921   1.277   2.787   9.981
 2414SOL    HW1 7922   1.350   2.725   9.986
 2414SOL    HW2 7923   1.311   2.860   9.929
 2415SOL     OW 7924   0.821   3.135  10.739
 2415SOL    HW1 7925   0.791   3.169  10.823
 2415SOL    HW2 7926   0.750   3.156  10.678
 2416SOL     OW 7927   0.673   3.479   9.465
 2416SOL    HW1 7928   0.681   3.490   9.370
 2416SOL    HW2 7929   0.619   3.401   9.475
 2417SOL     OW 7930   1.626   3.581  10.699
 2417SOL    HW1 7931   1.679   3.596  10.620
 2417SOL    HW2 7932   1.611   3.669  10.734
 2418SOL     OW 7933   1.843   2.044  10.279
 2418SOL    HW1 7934   1.878   1.959  10.253
 2418SOL    HW2 7935   1.757   2.049  10.237
 2419SOL     OW 7936   0.266   2.182  10.029
 2419SOL    HW1 7937   0.183   2.221  10.001
 2419SOL    HW2 7938   0.256   2.170  10.124
 2420SOL     OW 7939   1.206   3.469   9.341
 2420SOL    HW1 7940   1.198   3.378   9.369
 2420SOL    HW2 7941   1.141   3.480   9.272
 2421SOL     OW 7942   0.826   2.868  10.684
 2421SOL    HW1 7943   0.868   2.863  10.598
 2421SOL    HW2 7944   0.827   2.961  10.706
 2422SOL     OW 7945   0.916   2.773   9.600
 2422SOL    HW1 7946   0.977   2.804   9.533
 2422SOL    HW2 7947   0.962   2.702   9.644
 2423SOL     OW 7948   1.494   3.487   9.352
 2423SOL    HW1 7949   1.399   3.482   9.340
 2423SOL    HW2 7950   1.529   3.493   9.263
 2424SOL     OW 7951   0.369   3.170  10.805
 2424SOL    HW1 7952   0.355   3.246  10.748
 2424SOL    HW2 7953   0.296   3.112  10.785
 2425SOL     OW 7954   1.614   3.145  10.593
 2425SOL    HW1 7955   1.669   3.133  10.670
 2425SOL    HW2 7956   1.556   3.217  10.616
 2426SOL     OW 7957   1.049   2.968  10.015
 2426SOL    HW1 7958   0.979   2.917  10.055
 2426SOL    HW2 7959   1.110   2.902   9.981
 2427SOL     OW 7960   1.020   2.102  10.276
 2427SOL    HW1 7961   1.015   2.054  10.193
 2427SOL    HW2 7962   1.015   2.034  10.343
 2428SOL     OW 7963   0.603   3.352   9.793
 2428SOL    HW1 7964   0.642   3.301   9.722
 2428SOL    HW2 7965   0.531   3.399   9.752
 2429SOL     OW 7966   1.718   2.257  10.689
 2429SOL    HW1 7967   1.792   2.317  10.692
 2429SOL    HW2 7968   1.748   2.184  10.635
 2430SOL     OW 7969   0.252   3.207   9.588
 2430SOL    HW1 7970   0.157   3.207   9.573
 2430SOL    HW2 7971   0.262   3.239   9.677
 2431SOL     OW 7972   0.111   2.880  11.005
 2431SOL    HW1 7973   0.050   2.881  11.079
 2431SOL    HW2 7974   0.196   2.862  11.044
 2432SOL     OW 7975   0.673   2.059  10.803
 2432SOL    HW1 7976   0.755   2.037  10.758
 2432SOL    HW2 7977   0.701   2.091  10.889
 2433SOL     OW 7978   0.072   2.188   9.343
 2433SOL    HW1 7979   4.477   2.198   9.343
 2433SOL    HW2 7980   0.104   2.270   9.305
 2434SOL     OW 7981   1.430   2.711  10.709
 2434SOL    HW1 7982   1.383   2.779  10.661
 2434SOL    HW2 7983   1.521   2.720  10.682
 2435SOL     OW 7984   0.085   2.039   9.616
 2435SOL    HW1 7985   0.078   2.111   9.553
 2435SOL    HW2 7986   0.161   1.989   9.588
 2436SOL     OW 7987   1.179   3.203   9.427
 2436SOL    HW1 7988   1.089   3.173   9.429
 2436SOL    HW2 7989   1.208   3.202   9.518
 2437SOL     OW 7990   0.622   2.692  10.739
 2437SOL    HW1 7991   0.677   2.769  10.725
 2437SOL    HW2 7992   0.684   2.620  10.747
 2438SOL     OW 7993   1.485   3.636  10.286
 2438SOL    HW1 7994   1.511   3.695  10.214
 2438SOL    HW2 7995   1.565   3.620  10.334
 2439SOL     OW 7996   0.716   2.425  11.015
 2439SOL    HW1 7997   0.746   2.498  11.069
 2439SOL    HW2 7998   0.770   2.350  11.044
 2440SOL     OW 7999   0.384   3.598  10.871
 2440SOL    HW1 8000   0.306   3.654  10.865
 2440SOL    HW2 8001   0.358   3.527  10.929
 2441SOL     OW 8002   1.673   2.745  10.566
 2441SOL    HW1 8003   1.662   2.659  10.525
 2441SOL    HW2 8004   1.663   2.808  10.495
 2442SOL     OW 8005   1.218   2.182   9.767
 2442SOL    HW1 8006   1.282   2.111   9.758
 2442SOL    HW2 8007   1.247   2.230   9.845
 2443SOL     OW 8008   0.591   2.602   9.978
 2443SOL    HW1 8009   0.629   2.688   9.961
 2443SOL    HW2 8010   0.521   2.593   9.913
 2444SOL     OW 8011   1.752   2.179  10.956
 2444SOL    HW1 8012   1.739   2.216  10.868
 2444SOL    HW2 8013   1.671   2.198  11.002
 2445SOL     OW 8014   1.747   2.799  10.825
 2445SOL    HW1 8015   1.741   2.894  10.838
 2445SOL    HW2 8016   1.731   2.786  10.732
 2446SOL     OW 8017   0.864   3.230   9.341
 2446SOL    HW1 8018   0.823   3.256   9.424
 2446SOL    HW2 8019   0.881   3.313   9.296
 2447SOL     OW 8020   0.660   3.655  10.258
 2447SOL    HW1 8021   0.637   3.745  10.233
 2447SOL    HW2 8022   0.755   3.651  10.248
 2448SOL     OW 8023   0.867   2.828  10.166
 2448SOL    HW1 8024   0.916   2.756  10.206
 2448SOL    HW2 8025   0.833   2.878  10.240
 2449SOL     OW 8026   1.080   2.850   9.399
 2449SOL    HW1 8027   1.058   2.900   9.320
 2449SOL    HW2 8028   1.155   2.797   9.373
 2450SOL     OW 8029   1.856   3.417  10.155
 2450SOL    HW1 8030   1.778   3.407  10.100
 2450SOL    HW2 8031   1.846   3.351  10.223
 2451SOL     OW 8032   0.103   3.100   9.977
 2451SOL    HW1 8033   0.109   3.050  10.058
 2451SOL    HW2 8034   0.163   3.056   9.917
 2452SOL     OW 8035   0.679   3.257  10.936
 2452SOL    HW1 8036   0.606   3.206  10.972
 2452SOL    HW2 8037   0.648   3.347  10.938
 2453SOL     OW 8038   1.814   2.051  10.547
 2453SOL    HW1 8039   1.831   1.958  10.564
 2453SOL    HW2 8040   1.827   2.060  10.453
 2454SOL     OW 8041   0.435   2.295   9.835
 2454SOL    HW1 8042   0.459   2.222   9.779
 2454SOL    HW2 8043   0.384   2.256   9.906
 2455SOL     OW 8044   1.702   3.353  10.408
 2455SOL    HW1 8045   1.621   3.327  10.365
 2455SOL    HW2 8046   1.717   3.285  10.475
 2456SOL     OW 8047   0.302   2.352  10.567
 2456SOL    HW1 8048   0.373   2.312  10.616
 2456SOL    HW2 8049   0.337   2.364  10.479
 2457SOL     OW 8050   0.826   3.440   9.989
 2457SOL    HW1 8051   0.818   3.488   9.907
 2457SOL    HW2 8052   0.748   3.384   9.993
 2458SOL     OW 8053   1.432   2.086  10.428
 2458SOL    HW1 8054   1.463   2.008  10.475
 2458SOL    HW2 8055   1.380   2.134  10.493
 2459SOL     OW 8056   1.008   1.882  10.455
 2459SOL    HW1 8057   0.954   1.814  10.415
 2459SOL    HW2 8058   1.096   1.844  10.457
 2460SOL     OW 8059   0.772   3.194   9.621
 2460SOL    HW1 8060   0.738   3.105   9.627
 2460SOL    HW2 8061   0.854   3.193   9.670
 2461SOL     OW 8062   0.620   3.419  10.596
 2461SOL    HW1 8063   0.621   3.501  10.644
 2461SOL    HW2 8064   0.707   3.413  10.556
 2462SOL     OW 8065   1.352   1.915   9.474
 2462SOL    HW1 8066   1.378   1.856   9.404
 2462SOL    HW2 8067   1.265   1.884   9.501
 2463SOL     OW 8068   1.297   2.322   9.992
 2463SOL    HW1 8069   1.243   2.401  10.000
 2463SOL    HW2 8070   1.294   2.282  10.079
 2464SOL     OW 8071   1.587   2.064  10.186
 2464SOL    HW1 8072   1.525   2.083  10.256
 2464SOL    HW2 8073   1.587   2.144  10.132
 2465SOL     OW 8074   0.041   2.915   9.597
 2465SOL    HW1 8075   0.136   2.902   9.589
 2465SOL    HW2 8076   0.019   2.877   9.682
 2466SOL     OW 8077   0.882   3.513   9.654
 2466SOL    HW1 8078   0.811   3.494   9.593
 2466SOL    HW2 8079   0.852   3.588   9.704
 2467SOL     OW 8080   0.208   4.283   0.084
 2467SOL    HW1 8081   0.157   4.315   0.159
 2467SOL    HW2 8082   0.229   4.362   0.034
 2468SOL     OW 8083   0.209   3.997   0.992
 2468SOL    HW1 8084   0.246   3.970   1.076
 2468SOL    HW2 8085   0.135   3.939   0.978
 2469SOL     OW 8086   0.000   4.100   0.629
 2469SOL    HW1 8087   4.421   4.127   0.676
 2469SOL    HW2 8088   4.478   4.014   0.592
 2470SOL     OW 8089   1.733   4.333   0.229
 2470SOL    HW1 8090   1.749   4.306   0.138
 2470SOL    HW2 8091   1.728   4.250   0.277
 2471SOL     OW 8092   0.731   0.267   0.683
 2471SOL    HW1 8093   0.723   0.204   0.754
 2471SOL    HW2 8094   0.641   0.287   0.658
 2472SOL     OW 8095   0.443   4.120   1.489
 2472SOL    HW1 8096   0.524   4.069   1.492
 2472SOL    HW2 8097   0.374   4.055   1.499
 2473SOL     OW 8098   1.615   4.173   0.740
 2473SOL    HW1 8099   1.545   4.199   0.680
 2473SOL    HW2 8100   1.621   4.245   0.803
 2474SOL     OW 8101   1.597   3.845   1.470
 2474SOL    HW1 8102   1.595   3.925   1.416
 2474SOL    HW2 8103   1.584   3.876   1.559
 2475SOL     OW 8104   0.166   4.320   0.631
 2475SOL    HW1 8105   0.104   4.249   0.615
 2475SOL    HW2 8106   0.119   4.400   0.606
 2476SOL     OW 8107   0.118   4.499   1.589
 2476SOL    HW1 8108   0.212   4.484   1.591
 2476SOL    HW2 8109   0.109   0.084   1.546
 2477SOL     OW 8110   0.814   3.724   0.506
 2477SOL    HW1 8111   0.853   3.811   0.491
 2477SOL    HW2 8112   0.721   3.741   0.516
 2478SOL     OW 8113   0.329   3.979   1.797
 2478SOL    HW1 8114   0.376   4.057   1.827
 2478SOL    HW2 8115   0.241   3.988   1.833
 2479SOL     OW 8116   1.278   4.071   0.932
 2479SOL    HW1 8117   1.189   4.037   0.942
 2479SOL    HW2 8118   1.330   4.020   0.994
 2480SOL     OW 8119   0.824   4.308   1.449
 2480SOL    HW1 8120   0.784   4.313   1.536
 2480SOL    HW2 8121   0.758   4.267   1.394
 2481SOL     OW 8122   1.396   4.199   1.676
 2481SOL    HW1 8123   1.396   4.243   1.762
 2481SOL    HW2 8124   1.455   4.125   1.687
 2482SOL     OW 8125   0.996   4.148   1.234
 2482SOL    HW1 8126   0.923   4.168   1.292
 2482SOL    HW2 8127   0.960   4.089   1.168
 2483SOL     OW 8128   1.060   4.403   0.423
 2483SOL    HW1 8129   1.057   4.453   0.505
 2483SOL    HW2 8130   0.968   4.383   0.405
 2484SOL     OW 8131   0.053   0.046   0.840
 2484SOL    HW1 8132   0.145   0.024   0.851
 2484SOL    HW2 8133   0.052   0.112   0.772
 2485SOL     OW 8134   0.884   4.073   0.209
 2485SOL    HW1 8135   0.931   4.130   0.148
 2485SOL    HW2 8136   0.899   3.984   0.175
 2486SOL     OW 8137   1.706   4.298   1.828
 2486SOL    HW1 8138   1.717   4.387   1.795
 2486SOL    HW2 8139   1.729   4.242   1.755
 2487SOL     OW 8140   0.552   3.906   0.892
 2487SOL    HW1 8141   0.554   3.936   0.984
 2487SOL    HW2 8142   0.548   3.987   0.841
 2488SOL     OW 8143   1.486   4.462   0.737
 2488SOL    HW1 8144   1.468   4.408   0.815
 2488SOL    HW2 8145   1.528   0.041   0.772
 2489SOL     OW 8146   0.190   4.000   1.486
 2489SOL    HW1 8147   0.136   4.079   1.494
 2489SOL    HW2 8148   0.185   3.959   1.572
 2490SOL     OW 8149   1.402   3.831   0.430
 2490SOL    HW1 8150   1.392   3.808   0.337
 2490SOL    HW2 8151   1.496   3.840   0.443
 2491SOL     OW 8152   0.350   4.376   0.405
 2491SOL    HW1 8153   0.397   4.304   0.448
 2491SOL    HW2 8154   0.298   4.416   0.475
 2492SOL     OW 8155   1.537   3.950   1.725
 2492SOL    HW1 8156   1.545   3.972   1.818
 2492SOL    HW2 8157   1.469   3.882   1.722
 2493SOL     OW 8158   0.615   3.834   0.122
 2493SOL    HW1 8159   0.705   3.800   0.121
 2493SOL    HW2 8160   0.582   3.814   0.034
 2494SOL     OW 8161   0.768   4.001   1.754
 2494SOL    HW1 8162   0.842   3.941   1.757
 2494SOL    HW2 8163   0.717   3.981   1.833
 2495SOL     OW 8164   1.344   4.311   1.429
 2495SOL    HW1 8165   1.367   4.274   1.514
 2495SOL    HW2 8166   1.383   4.399   1.429
 2496SOL     OW 8167   0.922   4.236   0.900
 2496SOL    HW1 8168   0.900   4.220   0.808
 2496SOL    HW2 8169   0.962   4.154   0.929
 2497SOL     OW 8170   0.551   3.786   0.505
 2497SOL    HW1 8171   0.470   3.784   0.555
 2497SOL    HW2 8172   0.544   3.864   0.450
 2498SOL     OW 8173   0.285   3.772   0.192
 2498SOL    HW1 8174   0.333   3.824   0.128
 2498SOL    HW2 8175   0.349   3.707   0.223
 2499SOL     OW 8176   0.938   3.971   0.465
 2499SOL    HW1 8177   0.910   4.012   0.383
 2499SOL    HW2 8178   1.032   3.984   0.467
 2500SOL     OW 8179   1.077   4.396   1.515
 2500SOL    HW1 8180   0.993   4.365   1.480
 2500SOL    HW2 8181   1.143   4.354   1.460
 2501SOL     OW 8182   1.009   4.265   0.040
 2501SOL    HW1 8183   1.017   4.327  11.068
 2501SOL    HW2 8184   1.090   4.275   0.090
 2502SOL     OW 8185   0.086   4.259   1.410
 2502SOL    HW1 8186   0.158   4.271   1.349
 2502SOL    HW2 8187   0.054   4.347   1.428
 2503SOL     OW 8188   0.561   3.951   1.164
 2503SOL    HW1 8189   0.600   3.870   1.197
 2503SOL    HW2 8190   0.470   3.947   1.193
 2504SOL     OW 8191   0.870   4.188   0.640
 2504SOL    HW1 8192   0.836   4.249   0.574
 2504SOL    HW2 8193   0.887   4.108   0.591
 2505SOL     OW 8194   1.014   3.777   0.753
 2505SOL    HW1 8195   0.955   3.769   0.678
 2505SOL    HW2 8196   0.994   3.701   0.807
 2506SOL     OW 8197   1.477   4.313   0.969
 2506SOL    HW1 8198   1.421   4.237   0.988
 2506SOL    HW2 8199   1.528   4.325   1.049
 2507SOL     OW 8200   1.400   4.294   0.072
 2507SOL    HW1 8201   1.335   4.277   0.141
 2507SOL    HW2 8202   1.469   4.230   0.088
 2508SOL     OW 8203   0.527   3.989   0.326
 2508SOL    HW1 8204   0.553   3.929   0.256
 2508SOL    HW2 8205   0.512   4.072   0.281
 2509SOL     OW 8206   0.917   3.823   1.398
 2509SOL    HW1 8207   0.941   3.802   1.307
 2509SOL    HW2 8208   0.997   3.861   1.435
 2510SOL     OW 8209   0.440   0.004   1.259
 2510SOL    HW1 8210   0.496   0.006   1.336
 2510SOL    HW2 8211   0.401   4.416   1.259
 2511SOL     OW 8212   1.266   4.100   1.273
 2511SOL    HW1 8213   1.300   4.178   1.319
 2511SOL    HW2 8214   1.177   4.125   1.247
 2512SOL     OW 8215   0.556   4.255   0.864
 2512SOL    HW1 8216   0.577   4.299   0.781
 2512SOL    HW2 8217   0.621   4.290   0.926
 2513SOL     OW 8218   1.580   4.341   0.479
 2513SOL    HW1 8219   1.536   4.406   0.534
 2513SOL    HW2 8220   1.624   4.393   0.412
 2514SOL     OW 8221   0.996   3.844   1.756
 2514SOL    HW1 8222   1.050   3.917   1.726
 2514SOL    HW2 8223   1.045   3.765   1.730
 2515SOL     OW 8224   0.498   3.768   1.746
 2515SOL    HW1 8225   0.457   3.711   1.681
 2515SOL    HW2 8226   0.437   3.841   1.756
 2516SOL     OW 8227   1.212   4.252   0.266
 2516SOL    HW1 8228   1.222   4.172   0.319
 2516SOL    HW2 8229   1.163   4.312   0.322
 2517SOL     OW 8230   0.300   3.924   1.244
 2517SOL    HW1 8231   0.261   3.952   1.327
 2517SOL    HW2 8232   0.287   3.829   1.242
 2518SOL     OW 8233   0.732   4.360   1.048
 2518SOL    HW1 8234   0.805   4.324   0.997
 2518SOL    HW2 8235   0.737   4.454   1.033
 2519SOL     OW 8236   1.750   0.135   1.856
 2519SOL    HW1 8237   1.688   0.148   1.785
 2519SOL    HW2 8238   1.704   0.165   1.934
 2520SOL     OW 8239   0.310   3.794   0.619
 2520SOL    HW1 8240   0.286   3.882   0.648
 2520SOL    HW2 8241   0.304   3.741   0.699
 2521SOL     OW 8242   1.613   4.092   0.369
 2521SOL    HW1 8243   1.642   4.029   0.436
 2521SOL    HW2 8244   1.591   4.171   0.418
 2522SOL     OW 8245   1.536   4.010   0.117
 2522SOL    HW1 8246   1.476   3.938   0.134
 2522SOL    HW2 8247   1.567   4.036   0.204
 2523SOL     OW 8248   0.317   0.018   0.921
 2523SOL    HW1 8249   0.400   0.065   0.927
 2523SOL    HW2 8250   0.330   4.439   0.974
 2524SOL     OW 8251   0.335   4.237   1.011
 2524SOL    HW1 8252   0.291   4.156   0.987
 2524SOL    HW2 8253   0.409   4.243   0.951
 2525SOL     OW 8254   1.138   4.096   1.684
 2525SOL    HW1 8255   1.086   4.154   1.740
 2525SOL    HW2 8256   1.223   4.139   1.675
 2526SOL     OW 8257   1.160   3.928   1.469
 2526SOL    HW1 8258   1.151   3.989   1.542
 2526SOL    HW2 8259   1.199   3.980   1.399
 2527SOL     OW 8260   0.027   4.280   1.108
 2527SOL    HW1 8261   0.111   4.255   1.069
 2527SOL    HW2 8262   0.029   4.243   1.196
 2528SOL     OW 8263   0.177   4.236   1.696
 2528SOL    HW1 8264   0.263   4.217   1.658
 2528SOL    HW2 8265   0.148   4.316   1.652
 2529SOL     OW 8266   0.815   4.308   0.327
 2529SOL    HW1 8267   0.824   4.222   0.287
 2529SOL    HW2 8268   0.720   4.317   0.343
 2530SOL     OW 8269   1.638   4.319   1.189
 2530SOL    HW1 8270   1.632   4.260   1.264
 2530SOL    HW2 8271   1.726   4.304   1.154
 2531SOL     OW 8272   0.675   4.186   1.260
 2531SOL    HW1 8273   0.639   4.105   1.226
 2531SOL    HW2 8274   0.685   4.242   1.183
 2532SOL     OW 8275   0.477   4.218   0.184
 2532SOL    HW1 8276   0.521   4.302   0.196
 2532SOL    HW2 8277   0.383   4.239   0.187
 2533SOL     OW 8278   0.917   3.814   0.109
 2533SOL    HW1 8279   0.968   3.779   0.037
 2533SOL    HW2 8280   0.953   3.771   0.187
 2534SOL     OW 8281   1.719   3.867   0.512
 2534SOL    HW1 8282   1.792   3.854   0.451
 2534SOL    HW2 8283   1.704   3.781   0.551
 2535SOL     OW 8284   1.279   0.138   0.682
 2535SOL    HW1 8285   1.335   0.061   0.687
 2535SOL    HW2 8286   1.327   0.200   0.627
 2536SOL     OW 8287   1.839   3.897   0.967
 2536SOL    HW1 8288   1.868   3.810   0.938
 2536SOL    HW2 8289   1.753   3.908   0.927
 2537SOL     OW 8290   0.268   4.042   0.721
 2537SOL    HW1 8291   0.192   4.091   0.692
 2537SOL    HW2 8292   0.254   4.030   0.815
 2538SOL     OW 8293   1.062   0.304   0.725
 2538SOL    HW1 8294   0.978   0.268   0.697
 2538SOL    HW2 8295   1.127   0.238   0.699
 2539SOL     OW 8296   1.019   3.964   0.965
 2539SOL    HW1 8297   1.014   3.916   0.883
 2539SOL    HW2 8298   1.015   3.896   1.033
 2540SOL     OW 8299   1.720   4.114   1.380
 2540SOL    HW1 8300   1.791   4.178   1.377
 2540SOL    HW2 8301   1.749   4.043   1.324
 2541SOL     OW 8302   0.673   3.922   1.499
 2541SOL    HW1 8303   0.756   3.902   1.457
 2541SOL    HW2 8304   0.697   3.950   1.587
 2542SOL     OW 8305   0.060   4.061   0.003
 2542SOL    HW1 8306   4.468   4.070   0.030
 2542SOL    HW2 8307   0.099   4.146   0.022
 2543SOL     OW 8308   0.081   3.898   0.310
 2543SOL    HW1 8309   0.078   3.973   0.250
 2543SOL    HW2 8310   0.155   3.846   0.280
 2544SOL     OW 8311   0.725   4.285   1.702
 2544SOL    HW1 8312   0.730   4.334   1.784
 2544SOL    HW2 8313   0.752   4.197   1.725
 2545SOL     OW 8314   1.218   4.040   0.456
 2545SOL    HW1 8315   1.282   3.970   0.446
 2545SOL    HW2 8316   1.247   4.089   0.533
 2546SOL     OW 8317   1.762   4.089   1.648
 2546SOL    HW1 8318   1.745   4.099   1.554
 2546SOL    HW2 8319   1.693   4.030   1.679
 2547SOL     OW 8320   1.099   0.203   0.051
 2547SOL    HW1 8321   1.097   0.288   0.007
 2547SOL    HW2 8322   1.191   0.177   0.047
 2548SOL     OW 8323   1.815   3.909   1.238
 2548SOL    HW1 8324   1.823   3.815   1.253
 2548SOL    HW2 8325   1.823   3.919   1.143
 2549SOL     OW 8326   0.449   4.154   0.536
 2549SOL    HW1 8327   0.467   4.080   0.477
 2549SOL    HW2 8328   0.391   4.118   0.603
 2550SOL     OW 8329   0.322   4.259   1.276
 2550SOL    HW1 8330   0.374   4.192   1.320
 2550SOL    HW2 8331   0.335   4.242   1.183
 2551SOL     OW 8332   1.432   3.948   1.118
 2551SOL    HW1 8333   1.459   3.869   1.164
 2551SOL    HW2 8334   1.380   3.997   1.181
 2552SOL     OW 8335   1.008   3.744   1.145
 2552SOL    HW1 8336   0.954   3.676   1.106
 2552SOL    HW2 8337   1.096   3.706   1.147
 2553SOL     OW 8338   1.351   3.778   0.164
 2553SOL    HW1 8339   1.373   3.727   0.086
 2553SOL    HW2 8340   1.264   3.745   0.189
 2554SOL     OW 8341   1.300   4.175   0.682
 2554SOL    HW1 8342   1.258   4.260   0.695
 2554SOL    HW2 8343   1.300   4.135   0.769
 2555SOL     OW 8344   1.587   3.929   0.877
 2555SOL    HW1 8345   1.524   3.948   0.946
 2555SOL    HW2 8346   1.588   4.007   0.822
 2556SOL     OW 8347   0.232   4.285   1.973
 2556SOL    HW1 8348   0.165   4.320   2.031
 2556SOL    HW2 8349   0.214   4.326   1.888
 2557SOL     OW 8350   0.210   3.997   2.853
 2557SOL    HW1 8351   0.246   3.969   2.938
 2557SOL    HW2 8352   0.134   3.940   2.840
 2558SOL     OW 8353   0.001   4.098   2.493
 2558SOL    HW1 8354   4.421   4.129   2.537
 2558SOL    HW2 8355   4.475   4.016   2.451
 2559SOL     OW 8356   1.733   4.335   2.099
 2559SOL    HW1 8357   1.733   4.321   2.004
 2559SOL    HW2 8358   1.732   4.247   2.136
 2560SOL     OW 8359   0.726   0.266   2.544
 2560SOL    HW1 8360   0.720   0.208   2.619
 2560SOL    HW2 8361   0.635   0.288   2.523
 2561SOL     OW 8362   0.443   4.120   3.351
 2561SOL    HW1 8363   0.524   4.069   3.354
 2561SOL    HW2 8364   0.374   4.055   3.361
 2562SOL     OW 8365   1.615   4.173   2.601
 2562SOL    HW1 8366   1.544   4.199   2.543
 2562SOL    HW2 8367   1.621   4.244   2.665
 2563SOL     OW 8368   1.597   3.845   3.332
 2563SOL    HW1 8369   1.595   3.925   3.278
 2563SOL    HW2 8370   1.584   3.876   3.421
 2564SOL     OW 8371   0.165   4.323   2.494
 2564SOL    HW1 8372   0.105   4.251   2.473
 2564SOL    HW2 8373   0.119   4.402   2.466
 2565SOL     OW 8374   0.118   4.500   3.452
 2565SOL    HW1 8375   0.212   4.484   3.453
 2565SOL    HW2 8376   0.108   0.084   3.408
 2566SOL     OW 8377   0.814   3.723   2.368
 2566SOL    HW1 8378   0.853   3.809   2.352
 2566SOL    HW2 8379   0.720   3.741   2.379
 2567SOL     OW 8380   0.329   3.979   3.659
 2567SOL    HW1 8381   0.376   4.057   3.689
 2567SOL    HW2 8382   0.241   3.988   3.695
 2568SOL     OW 8383   1.278   4.070   2.794
 2568SOL    HW1 8384   1.189   4.037   2.804
 2568SOL    HW2 8385   1.330   4.019   2.856
 2569SOL     OW 8386   0.825   4.308   3.311
 2569SOL    HW1 8387   0.784   4.313   3.398
 2569SOL    HW2 8388   0.758   4.267   3.256
 2570SOL     OW 8389   1.396   4.199   3.538
 2570SOL    HW1 8390   1.396   4.243   3.624
 2570SOL    HW2 8391   1.455   4.125   3.549
 2571SOL     OW 8392   0.996   4.148   3.096
 2571SOL    HW1 8393   0.924   4.168   3.154
 2571SOL    HW2 8394   0.959   4.089   3.030
 2572SOL     OW 8395   1.057   4.410   2.281
 2572SOL    HW1 8396   1.056   4.446   2.370
 2572SOL    HW2 8397   0.969   4.374   2.269
 2573SOL     OW 8398   0.053   0.054   2.709
 2573SOL    HW1 8399   0.145   0.025   2.713
 2573SOL    HW2 8400   0.049   0.106   2.629
 2574SOL     OW 8401   0.887   4.063   2.053
 2574SOL    HW1 8402   0.931   4.125   1.995
 2574SOL    HW2 8403   0.906   3.977   2.015
 2575SOL     OW 8404   1.706   4.298   3.690
 2575SOL    HW1 8405   1.717   4.387   3.657
 2575SOL    HW2 8406   1.729   4.242   3.616
 2576SOL     OW 8407   0.552   3.907   2.754
 2576SOL    HW1 8408   0.554   3.936   2.845
 2576SOL    HW2 8409   0.548   3.988   2.703
 2577SOL     OW 8410   1.489   4.463   2.599
 2577SOL    HW1 8411   1.469   4.408   2.675
 2577SOL    HW2 8412   1.529   0.041   2.635
 2578SOL     OW 8413   0.189   4.000   3.348
 2578SOL    HW1 8414   0.136   4.079   3.356
 2578SOL    HW2 8415   0.185   3.959   3.435
 2579SOL     OW 8416   1.401   3.831   2.292
 2579SOL    HW1 8417   1.390   3.806   2.201
 2579SOL    HW2 8418   1.495   3.840   2.304
 2580SOL     OW 8419   0.351   4.378   2.269
 2580SOL    HW1 8420   0.397   4.306   2.311
 2580SOL    HW2 8421   0.298   4.417   2.339
 2581SOL     OW 8422   1.537   3.950   3.587
 2581SOL    HW1 8423   1.545   3.972   3.680
 2581SOL    HW2 8424   1.469   3.883   3.584
 2582SOL     OW 8425   0.632   3.851   1.965
 2582SOL    HW1 8426   0.702   3.788   1.981
 2582SOL    HW2 8427   0.585   3.816   1.890
 2583SOL     OW 8428   0.768   4.001   3.616
 2583SOL    HW1 8429   0.842   3.941   3.619
 2583SOL    HW2 8430   0.717   3.981   3.695
 2584SOL     OW 8431   1.345   4.311   3.291
 2584SOL    HW1 8432   1.367   4.274   3.376
 2584SOL    HW2 8433   1.383   4.399   3.291
 2585SOL     OW 8434   0.922   4.236   2.761
 2585SOL    HW1 8435   0.901   4.220   2.669
 2585SOL    HW2 8436   0.962   4.154   2.791
 2586SOL     OW 8437   0.551   3.786   2.366
 2586SOL    HW1 8438   0.470   3.785   2.417
 2586SOL    HW2 8439   0.543   3.865   2.311
 2587SOL     OW 8440   0.294   3.770   2.040
 2587SOL    HW1 8441   0.355   3.838   2.012
 2587SOL    HW2 8442   0.349   3.705   2.084
 2588SOL     OW 8443   0.936   3.971   2.326
 2588SOL    HW1 8444   0.909   4.009   2.242
 2588SOL    HW2 8445   1.031   3.982   2.327
 2589SOL     OW 8446   1.077   4.396   3.377
 2589SOL    HW1 8447   0.993   4.365   3.342
 2589SOL    HW2 8448   1.142   4.354   3.322
 2590SOL     OW 8449   1.025   4.268   1.886
 2590SOL    HW1 8450   1.007   4.356   1.853
 2590SOL    HW2 8451   1.088   4.282   1.957
 2591SOL     OW 8452   0.086   4.259   3.272
 2591SOL    HW1 8453   0.158   4.271   3.211
 2591SOL    HW2 8454   0.053   4.347   3.290
 2592SOL     OW 8455   0.561   3.950   3.026
 2592SOL    HW1 8456   0.600   3.870   3.060
 2592SOL    HW2 8457   0.470   3.947   3.055
 2593SOL     OW 8458   0.871   4.189   2.500
 2593SOL    HW1 8459   0.833   4.247   2.434
 2593SOL    HW2 8460   0.888   4.108   2.453
 2594SOL     OW 8461   1.014   3.777   2.615
 2594SOL    HW1 8462   0.956   3.768   2.539
 2594SOL    HW2 8463   0.994   3.701   2.669
 2595SOL     OW 8464   1.477   4.312   2.830
 2595SOL    HW1 8465   1.421   4.237   2.850
 2595SOL    HW2 8466   1.529   4.325   2.910
 2596SOL     OW 8467   1.401   4.296   1.935
 2596SOL    HW1 8468   1.340   4.269   2.003
 2596SOL    HW2 8469   1.484   4.255   1.960
 2597SOL     OW 8470   0.523   3.985   2.180
 2597SOL    HW1 8471   0.566   3.936   2.109
 2597SOL    HW2 8472   0.511   4.073   2.144
 2598SOL     OW 8473   0.917   3.823   3.260
 2598SOL    HW1 8474   0.941   3.802   3.169
 2598SOL    HW2 8475   0.997   3.861   3.297
 2599SOL     OW 8476   0.440   0.004   3.120
 2599SOL    HW1 8477   0.496   0.006   3.198
 2599SOL    HW2 8478   0.401   4.416   3.121
 2600SOL     OW 8479   1.266   4.100   3.135
 2600SOL    HW1 8480   1.300   4.178   3.180
 2600SOL    HW2 8481   1.177   4.125   3.110
 2601SOL     OW 8482   0.557   4.254   2.726
 2601SOL    HW1 8483   0.576   4.300   2.644
 2601SOL    HW2 8484   0.621   4.290   2.788
 2602SOL     OW 8485   1.572   4.341   2.338
 2602SOL    HW1 8486   1.541   4.407   2.400
 2602SOL    HW2 8487   1.630   4.388   2.279
 2603SOL     OW 8488   0.996   3.844   3.618
 2603SOL    HW1 8489   1.050   3.917   3.588
 2603SOL    HW2 8490   1.045   3.765   3.592
 2604SOL     OW 8491   0.498   3.768   3.608
 2604SOL    HW1 8492   0.457   3.711   3.543
 2604SOL    HW2 8493   0.437   3.841   3.618
 2605SOL     OW 8494   1.211   4.255   2.128
 2605SOL    HW1 8495   1.221   4.175   2.180
 2605SOL    HW2 8496   1.162   4.315   2.184
 2606SOL     OW 8497   0.300   3.924   3.106
 2606SOL    HW1 8498   0.261   3.952   3.189
 2606SOL    HW2 8499   0.287   3.829   3.104
 2607SOL     OW 8500   0.732   4.360   2.910
 2607SOL    HW1 8501   0.805   4.324   2.859
 2607SOL    HW2 8502   0.737   4.454   2.896
 2608SOL     OW 8503   1.750   0.134   3.718
 2608SOL    HW1 8504   1.688   0.149   3.646
 2608SOL    HW2 8505   1.704   0.165   3.796
 2609SOL     OW 8506   0.309   3.794   2.481
 2609SOL    HW1 8507   0.286   3.882   2.509
 2609SOL    HW2 8508   0.304   3.741   2.561
 2610SOL     OW 8509   1.612   4.091   2.232
 2610SOL    HW1 8510   1.641   4.030   2.300
 2610SOL    HW2 8511   1.590   4.171   2.279
 2611SOL     OW 8512   1.528   3.999   1.989
 2611SOL    HW1 8513   1.466   3.932   2.015
 2611SOL    HW2 8514   1.562   4.033   2.072
 2612SOL     OW 8515   0.319   0.017   2.782
 2612SOL    HW1 8516   0.401   0.065   2.789
 2612SOL    HW2 8517   0.332   4.440   2.837
 2613SOL     OW 8518   0.336   4.237   2.873
 2613SOL    HW1 8519   0.291   4.156   2.849
 2613SOL    HW2 8520   0.410   4.243   2.813
 2614SOL     OW 8521   1.138   4.095   3.546
 2614SOL    HW1 8522   1.086   4.154   3.601
 2614SOL    HW2 8523   1.223   4.139   3.537
 2615SOL     OW 8524   1.160   3.928   3.331
 2615SOL    HW1 8525   1.151   3.989   3.404
 2615SOL    HW2 8526   1.199   3.980   3.261
 2616SOL     OW 8527   0.027   4.279   2.970
 2616SOL    HW1 8528   0.111   4.256   2.931
 2616SOL    HW2 8529   0.030   4.243   3.058
 2617SOL     OW 8530   0.177   4.235   3.557
 2617SOL    HW1 8531   0.263   4.217   3.520
 2617SOL    HW2 8532   0.148   4.316   3.514
 2618SOL     OW 8533   0.819   4.287   2.204
 2618SOL    HW1 8534   0.818   4.209   2.148
 2618SOL    HW2 8535   0.730   4.320   2.201
 2619SOL     OW 8536   1.638   4.319   3.051
 2619SOL    HW1 8537   1.632   4.260   3.126
 2619SOL    HW2 8538   1.726   4.304   3.015
 2620SOL     OW 8539   0.676   4.186   3.122
 2620SOL    HW1 8540   0.639   4.105   3.087
 2620SOL    HW2 8541   0.685   4.242   3.045
 2621SOL     OW 8542   0.486   4.222   2.052
 2621SOL    HW1 8543   0.519   4.309   2.075
 2621SOL    HW2 8544   0.392   4.235   2.037
 2622SOL     OW 8545   1.719   3.867   2.375
 2622SOL    HW1 8546   1.792   3.853   2.314
 2622SOL    HW2 8547   1.704   3.781   2.413
 2623SOL     OW 8548   1.280   0.138   2.541
 2623SOL    HW1 8549   1.338   0.062   2.548
 2623SOL    HW2 8550   1.330   0.202   2.491
 2624SOL     OW 8551   1.839   3.897   2.830
 2624SOL    HW1 8552   1.868   3.810   2.800
 2624SOL    HW2 8553   1.753   3.908   2.789
 2625SOL     OW 8554   0.268   4.042   2.583
 2625SOL    HW1 8555   0.191   4.089   2.553
 2625SOL    HW2 8556   0.255   4.030   2.677
 2626SOL     OW 8557   0.909   0.094   2.086
 2626SOL    HW1 8558   0.991   0.134   2.057
 2626SOL    HW2 8559   0.931   0.051   2.169
 2627SOL     OW 8560   1.067   0.303   2.601
 2627SOL    HW1 8561   0.985   0.286   2.554
 2627SOL    HW2 8562   1.128   0.238   2.566
 2628SOL     OW 8563   1.019   3.964   2.827
 2628SOL    HW1 8564   1.014   3.915   2.745
 2628SOL    HW2 8565   1.015   3.896   2.895
 2629SOL     OW 8566   1.720   4.114   3.242
 2629SOL    HW1 8567   1.791   4.178   3.239
 2629SOL    HW2 8568   1.749   4.043   3.186
 2630SOL     OW 8569   0.673   3.922   3.361
 2630SOL    HW1 8570   0.756   3.902   3.319
 2630SOL    HW2 8571   0.697   3.950   3.449
 2631SOL     OW 8572   0.068   4.045   1.895
 2631SOL    HW1 8573   4.474   4.062   1.887
 2631SOL    HW2 8574   0.109   4.131   1.879
 2632SOL     OW 8575   0.085   3.902   2.169
 2632SOL    HW1 8576   0.076   3.971   2.102
 2632SOL    HW2 8577   0.160   3.850   2.140
 2633SOL     OW 8578   0.724   4.285   3.564
 2633SOL    HW1 8579   0.730   4.335   3.646
 2633SOL    HW2 8580   0.752   4.197   3.587
 2634SOL     OW 8581   1.219   4.043   2.317
 2634SOL    HW1 8582   1.282   3.971   2.308
 2634SOL    HW2 8583   1.248   4.090   2.395
 2635SOL     OW 8584   1.762   4.088   3.510
 2635SOL    HW1 8585   1.745   4.099   3.416
 2635SOL    HW2 8586   1.693   4.030   3.541
 2636SOL     OW 8587   1.110   0.229   1.966
 2636SOL    HW1 8588   1.091   0.269   1.882
 2636SOL    HW2 8589   1.191   0.180   1.951
 2637SOL     OW 8590   1.815   3.909   3.100
 2637SOL    HW1 8591   1.823   3.815   3.115
 2637SOL    HW2 8592   1.823   3.919   3.005
 2638SOL     OW 8593   0.451   4.152   2.398
 2638SOL    HW1 8594   0.462   4.079   2.337
 2638SOL    HW2 8595   0.391   4.119   2.465
 2639SOL     OW 8596   0.322   4.259   3.138
 2639SOL    HW1 8597   0.374   4.192   3.182
 2639SOL    HW2 8598   0.335   4.242   3.045
 2640SOL     OW 8599   1.432   3.948   2.980
 2640SOL    HW1 8600   1.459   3.869   3.027
 2640SOL    HW2 8601   1.380   3.997   3.043
 2641SOL     OW 8602   1.008   3.744   3.007
 2641SOL    HW1 8603   0.954   3.676   2.968
 2641SOL    HW2 8604   1.096   3.707   3.009
 2642SOL     OW 8605   1.352   3.777   2.026
 2642SOL    HW1 8606   1.378   3.716   1.957
 2642SOL    HW2 8607   1.265   3.747   2.053
 2643SOL     OW 8608   1.300   4.176   2.544
 2643SOL    HW1 8609   1.258   4.261   2.558
 2643SOL    HW2 8610   1.300   4.135   2.631
 2644SOL     OW 8611   1.587   3.929   2.739
 2644SOL    HW1 8612   1.524   3.948   2.809
 2644SOL    HW2 8613   1.587   4.007   2.684
 2645SOL     OW 8614   0.232   4.285   3.835
 2645SOL    HW1 8615   0.165   4.320   3.893
 2645SOL    HW2 8616   0.214   4.327   3.750
 2646SOL     OW 8617   0.210   3.997   4.715
 2646SOL    HW1 8618   0.246   3.969   4.800
 2646SOL    HW2 8619   0.134   3.940   4.702
 2647SOL     OW 8620   0.001   4.098   4.355
 2647SOL    HW1 8621   4.422   4.129   4.399
 2647SOL    HW2 8622   4.474   4.016   4.313
 2648SOL     OW 8623   1.733   4.335   3.961
 2648SOL    HW1 8624   1.732   4.321   3.866
 2648SOL    HW2 8625   1.733   4.247   3.998
 2649SOL     OW 8626   0.726   0.266   4.406
 2649SOL    HW1 8627   0.720   0.207   4.481
 2649SOL    HW2 8628   0.635   0.287   4.385
 2650SOL     OW 8629   0.443   4.120   5.213
 2650SOL    HW1 8630   0.524   4.069   5.216
 2650SOL    HW2 8631   0.374   4.055   5.223
 2651SOL     OW 8632   1.615   4.173   4.463
 2651SOL    HW1 8633   1.544   4.199   4.405
 2651SOL    HW2 8634   1.621   4.244   4.527
 2652SOL     OW 8635   1.597   3.846   5.193
 2652SOL    HW1 8636   1.595   3.926   5.141
 2652SOL    HW2 8637   1.584   3.876   5.283
 2653SOL     OW 8638   0.165   4.323   4.356
 2653SOL    HW1 8639   0.105   4.251   4.335
 2653SOL    HW2 8640   0.119   4.402   4.328
 2654SOL     OW 8641   0.118   4.500   5.314
 2654SOL    HW1 8642   0.212   4.484   5.315
 2654SOL    HW2 8643   0.109   0.084   5.270
 2655SOL     OW 8644   0.814   3.723   4.230
 2655SOL    HW1 8645   0.853   3.809   4.214
 2655SOL    HW2 8646   0.720   3.741   4.241
 2656SOL     OW 8647   0.329   3.979   5.521
 2656SOL    HW1 8648   0.376   4.057   5.551
 2656SOL    HW2 8649   0.241   3.988   5.557
 2657SOL     OW 8650   1.278   4.070   4.656
 2657SOL    HW1 8651   1.189   4.037   4.666
 2657SOL    HW2 8652   1.330   4.019   4.719
 2658SOL     OW 8653   0.824   4.308   5.173
 2658SOL    HW1 8654   0.784   4.313   5.260
 2658SOL    HW2 8655   0.758   4.267   5.118
 2659SOL     OW 8656   1.396   4.199   5.400
 2659SOL    HW1 8657   1.396   4.243   5.486
 2659SOL    HW2 8658   1.455   4.125   5.411
 2660SOL     OW 8659   0.996   4.149   4.957
 2660SOL    HW1 8660   0.924   4.168   5.016
 2660SOL    HW2 8661   0.960   4.089   4.893
 2661SOL     OW 8662   1.057   4.410   4.143
 2661SOL    HW1 8663   1.056   4.446   4.232
 2661SOL    HW2 8664   0.969   4.374   4.131
 2662SOL     OW 8665   0.053   0.054   4.571
 2662SOL    HW1 8666   0.145   0.025   4.575
 2662SOL    HW2 8667   0.049   0.106   4.491
 2663SOL     OW 8668   0.887   4.063   3.915
 2663SOL    HW1 8669   0.931   4.125   3.857
 2663SOL    HW2 8670   0.906   3.977   3.877
 2664SOL     OW 8671   1.706   4.298   5.552
 2664SOL    HW1 8672   1.717   4.387   5.518
 2664SOL    HW2 8673   1.729   4.241   5.479
 2665SOL     OW 8674   0.552   3.907   4.616
 2665SOL    HW1 8675   0.554   3.936   4.707
 2665SOL    HW2 8676   0.548   3.988   4.565
 2666SOL     OW 8677   1.489   4.463   4.461
 2666SOL    HW1 8678   1.469   4.408   4.537
 2666SOL    HW2 8679   1.529   0.041   4.497
 2667SOL     OW 8680   0.190   4.000   5.210
 2667SOL    HW1 8681   0.136   4.079   5.218
 2667SOL    HW2 8682   0.185   3.959   5.297
 2668SOL     OW 8683   1.401   3.831   4.154
 2668SOL    HW1 8684   1.390   3.806   4.063
 2668SOL    HW2 8685   1.495   3.841   4.166
 2669SOL     OW 8686   0.351   4.378   4.131
 2669SOL    HW1 8687   0.397   4.306   4.173
 2669SOL    HW2 8688   0.298   4.417   4.200
 2670SOL     OW 8689   1.537   3.950   5.449
 2670SOL    HW1 8690   1.545   3.972   5.542
 2670SOL    HW2 8691   1.469   3.882   5.446
 2671SOL     OW 8692   0.632   3.851   3.827
 2671SOL    HW1 8693   0.702   3.788   3.843
 2671SOL    HW2 8694   0.585   3.816   3.752
 2672SOL     OW 8695   0.768   4.002   5.478
 2672SOL    HW1 8696   0.842   3.941   5.481
 2672SOL    HW2 8697   0.717   3.981   5.557
 2673SOL     OW 8698   1.345   4.311   5.153
 2673SOL    HW1 8699   1.367   4.274   5.238
 2673SOL    HW2 8700   1.383   4.399   5.154
 2674SOL     OW 8701   0.922   4.236   4.623
 2674SOL    HW1 8702   0.901   4.220   4.531
 2674SOL    HW2 8703   0.962   4.154   4.653
 2675SOL     OW 8704   0.551   3.786   4.227
 2675SOL    HW1 8705   0.470   3.784   4.279
 2675SOL    HW2 8706   0.543   3.865   4.173
 2676SOL     OW 8707   0.294   3.770   3.902
 2676SOL    HW1 8708   0.355   3.838   3.874
 2676SOL    HW2 8709   0.349   3.705   3.946
 2677SOL     OW 8710   0.936   3.971   4.188
 2677SOL    HW1 8711   0.909   4.009   4.105
 2677SOL    HW2 8712   1.031   3.982   4.189
 2678SOL     OW 8713   1.077   4.396   5.239
 2678SOL    HW1 8714   0.993   4.365   5.204
 2678SOL    HW2 8715   1.142   4.353   5.184
 2679SOL     OW 8716   1.025   4.268   3.748
 2679SOL    HW1 8717   1.007   4.356   3.715
 2679SOL    HW2 8718   1.088   4.282   3.819
 2680SOL     OW 8719   0.086   4.259   5.135
 2680SOL    HW1 8720   0.158   4.271   5.073
 2680SOL    HW2 8721   0.053   4.347   5.151
 2681SOL     OW 8722   0.561   3.950   4.888
 2681SOL    HW1 8723   0.600   3.870   4.922
 2681SOL    HW2 8724   0.470   3.947   4.917
 2682SOL     OW 8725   0.871   4.189   4.362
 2682SOL    HW1 8726   0.833   4.247   4.296
 2682SOL    HW2 8727   0.888   4.108   4.315
 2683SOL     OW 8728   1.014   3.777   4.477
 2683SOL    HW1 8729   0.955   3.768   4.401
 2683SOL    HW2 8730   0.994   3.701   4.532
 2684SOL     OW 8731   1.477   4.312   4.692
 2684SOL    HW1 8732   1.421   4.238   4.712
 2684SOL    HW2 8733   1.529   4.325   4.772
 2685SOL     OW 8734   1.401   4.296   3.796
 2685SOL    HW1 8735   1.340   4.269   3.865
 2685SOL    HW2 8736   1.484   4.256   3.822
 2686SOL     OW 8737   0.523   3.985   4.042
 2686SOL    HW1 8738   0.566   3.936   3.971
 2686SOL    HW2 8739   0.511   4.073   4.006
 2687SOL     OW 8740   0.917   3.824   5.121
 2687SOL    HW1 8741   0.941   3.802   5.031
 2687SOL    HW2 8742   0.997   3.861   5.159
 2688SOL     OW 8743   0.440   0.004   4.982
 2688SOL    HW1 8744   0.496   0.006   5.060
 2688SOL    HW2 8745   0.401   4.416   4.983
 2689SOL     OW 8746   1.266   4.101   4.997
 2689SOL    HW1 8747   1.300   4.178   5.042
 2689SOL    HW2 8748   1.177   4.125   4.971
 2690SOL     OW 8749   0.557   4.254   4.588
 2690SOL    HW1 8750   0.576   4.300   4.506
 2690SOL    HW2 8751   0.621   4.290   4.650
 2691SOL     OW 8752   1.571   4.341   4.200
 2691SOL    HW1 8753   1.541   4.406   4.262
 2691SOL    HW2 8754   1.630   4.388   4.141
 2692SOL     OW 8755   0.996   3.844   5.480
 2692SOL    HW1 8756   1.050   3.916   5.450
 2692SOL    HW2 8757   1.045   3.765   5.455
 2693SOL     OW 8758   0.498   3.768   5.470
 2693SOL    HW1 8759   0.457   3.711   5.405
 2693SOL    HW2 8760   0.437   3.841   5.479
 2694SOL     OW 8761   1.212   4.255   3.990
 2694SOL    HW1 8762   1.221   4.175   4.042
 2694SOL    HW2 8763   1.162   4.315   4.046
 2695SOL     OW 8764   0.300   3.924   4.968
 2695SOL    HW1 8765   0.261   3.952   5.051
 2695SOL    HW2 8766   0.287   3.829   4.966
 2696SOL     OW 8767   0.732   4.360   4.772
 2696SOL    HW1 8768   0.805   4.324   4.721
 2696SOL    HW2 8769   0.737   4.454   4.758
 2697SOL     OW 8770   1.750   0.136   5.580
 2697SOL    HW1 8771   1.687   0.148   5.509
 2697SOL    HW2 8772   1.704   0.165   5.658
 2698SOL     OW 8773   0.308   3.794   4.343
 2698SOL    HW1 8774   0.286   3.882   4.371
 2698SOL    HW2 8775   0.304   3.741   4.423
 2699SOL     OW 8776   1.612   4.091   4.094
 2699SOL    HW1 8777   1.641   4.030   4.162
 2699SOL    HW2 8778   1.590   4.171   4.141
 2700SOL     OW 8779   1.528   3.999   3.851
 2700SOL    HW1 8780   1.466   3.932   3.877
 2700SOL    HW2 8781   1.563   4.033   3.933
 2701SOL     OW 8782   0.319   0.017   4.645
 2701SOL    HW1 8783   0.401   0.065   4.651
 2701SOL    HW2 8784   0.332   4.439   4.699
 2702SOL     OW 8785   0.336   4.237   4.735
 2702SOL    HW1 8786   0.291   4.156   4.711
 2702SOL    HW2 8787   0.410   4.243   4.675
 2703SOL     OW 8788   1.138   4.096   5.407
 2703SOL    HW1 8789   1.087   4.154   5.463
 2703SOL    HW2 8790   1.223   4.139   5.399
 2704SOL     OW 8791   1.160   3.928   5.192
 2704SOL    HW1 8792   1.151   3.989   5.266
 2704SOL    HW2 8793   1.199   3.980   5.122
 2705SOL     OW 8794   0.027   4.280   4.832
 2705SOL    HW1 8795   0.111   4.256   4.793
 2705SOL    HW2 8796   0.030   4.242   4.920
 2706SOL     OW 8797   0.177   4.236   5.420
 2706SOL    HW1 8798   0.263   4.217   5.382
 2706SOL    HW2 8799   0.148   4.315   5.375
 2707SOL     OW 8800   0.819   4.287   4.066
 2707SOL    HW1 8801   0.818   4.209   4.010
 2707SOL    HW2 8802   0.730   4.321   4.063
 2708SOL     OW 8803   1.638   4.319   4.913
 2708SOL    HW1 8804   1.632   4.260   4.988
 2708SOL    HW2 8805   1.726   4.304   4.877
 2709SOL     OW 8806   0.675   4.186   4.984
 2709SOL    HW1 8807   0.639   4.104   4.950
 2709SOL    HW2 8808   0.685   4.242   4.907
 2710SOL     OW 8809   0.486   4.222   3.914
 2710SOL    HW1 8810   0.519   4.309   3.937
 2710SOL    HW2 8811   0.392   4.235   3.899
 2711SOL     OW 8812   1.719   3.867   4.237
 2711SOL    HW1 8813   1.792   3.853   4.176
 2711SOL    HW2 8814   1.704   3.781   4.276
 2712SOL     OW 8815   1.280   0.138   4.403
 2712SOL    HW1 8816   1.338   0.062   4.410
 2712SOL    HW2 8817   1.330   0.201   4.352
 2713SOL     OW 8818   1.839   3.896   4.692
 2713SOL    HW1 8819   1.868   3.810   4.661
 2713SOL    HW2 8820   1.753   3.908   4.652
 2714SOL     OW 8821   0.268   4.042   4.445
 2714SOL    HW1 8822   0.191   4.089   4.415
 2714SOL    HW2 8823   0.255   4.030   4.539
 2715SOL     OW 8824   0.909   0.093   3.948
 2715SOL    HW1 8825   0.991   0.134   3.919
 2715SOL    HW2 8826   0.931   0.051   4.031
 2716SOL     OW 8827   1.067   0.303   4.462
 2716SOL    HW1 8828   0.985   0.286   4.416
 2716SOL    HW2 8829   1.128   0.238   4.428
 2717SOL     OW 8830   1.019   3.964   4.689
 2717SOL    HW1 8831   1.014   3.915   4.607
 2717SOL    HW2 8832   1.015   3.896   4.757
 2718SOL     OW 8833   1.720   4.115   5.104
 2718SOL    HW1 8834   1.791   4.179   5.101
 2718SOL    HW2 8835   1.749   4.043   5.048
 2719SOL     OW 8836   0.673   3.923   5.223
 2719SOL    HW1 8837   0.756   3.902   5.181
 2719SOL    HW2 8838   0.697   3.950   5.311
 2720SOL     OW 8839   0.068   4.045   3.756
 2720SOL    HW1 8840   4.474   4.063   3.749
 2720SOL    HW2 8841   0.109   4.130   3.741
 2721SOL     OW 8842   0.085   3.902   4.031
 2721SOL    HW1 8843   0.076   3.971   3.965
 2721SOL    HW2 8844   0.160   3.850   4.001
 2722SOL     OW 8845   0.725   4.285   5.426
 2722SOL    HW1 8846   0.730   4.334   5.508
 2722SOL    HW2 8847   0.752   4.196   5.449
 2723SOL     OW 8848   1.219   4.043   4.179
 2723SOL    HW1 8849   1.282   3.971   4.170
 2723SOL    HW2 8850   1.248   4.090   4.257
 2724SOL     OW 8851   1.762   4.089   5.372
 2724SOL    HW1 8852   1.744   4.099   5.278
 2724SOL    HW2 8853   1.693   4.030   5.403
 2725SOL     OW 8854   1.110   0.229   3.828
 2725SOL    HW1 8855   1.091   0.269   3.744
 2725SOL    HW2 8856   1.191   0.180   3.813
 2726SOL     OW 8857   1.815   3.910   4.962
 2726SOL    HW1 8858   1.823   3.816   4.978
 2726SOL    HW2 8859   1.823   3.918   4.867
 2727SOL     OW 8860   0.451   4.152   4.260
 2727SOL    HW1 8861   0.462   4.079   4.199
 2727SOL    HW2 8862   0.391   4.119   4.327
 2728SOL     OW 8863   0.322   4.259   5.000
 2728SOL    HW1 8864   0.374   4.192   5.044
 2728SOL    HW2 8865   0.335   4.242   4.907
 2729SOL     OW 8866   1.432   3.947   4.842
 2729SOL    HW1 8867   1.458   3.869   4.890
 2729SOL    HW2 8868   1.380   3.997   4.905
 2730SOL     OW 8869   1.008   3.745   4.869
 2730SOL    HW1 8870   0.953   3.676   4.831
 2730SOL    HW2 8871   1.096   3.707   4.871
 2731SOL     OW 8872   1.352   3.777   3.888
 2731SOL    HW1 8873   1.378   3.717   3.818
 2731SOL    HW2 8874   1.265   3.747   3.915
 2732SOL     OW 8875   1.300   4.176   4.406
 2732SOL    HW1 8876   1.258   4.261   4.421
 2732SOL    HW2 8877   1.300   4.135   4.493
 2733SOL     OW 8878   1.587   3.929   4.601
 2733SOL    HW1 8879   1.525   3.948   4.671
 2733SOL    HW2 8880   1.588   4.007   4.546
 2734SOL     OW 8881   0.232   4.285   5.697
 2734SOL    HW1 8882   0.165   4.320   5.755
 2734SOL    HW2 8883   0.214   4.326   5.612
 2735SOL     OW 8884   0.210   3.997   6.577
 2735SOL    HW1 8885   0.246   3.969   6.662
 2735SOL    HW2 8886   0.134   3.940   6.564
 2736SOL     OW 8887   0.001   4.098   6.217
 2736SOL    HW1 8888   4.421   4.129   6.261
 2736SOL    HW2 8889   4.475   4.016   6.175
 2737SOL     OW 8890   1.734   4.335   5.823
 2737SOL    HW1 8891   1.733   4.321   5.728
 2737SOL    HW2 8892   1.732   4.247   5.860
 2738SOL     OW 8893   0.726   0.266   6.268
 2738SOL    HW1 8894   0.721   0.207   6.343
 2738SOL    HW2 8895   0.635   0.287   6.247
 2739SOL     OW 8896   0.443   4.120   7.075
 2739SOL    HW1 8897   0.524   4.069   7.078
 2739SOL    HW2 8898   0.374   4.055   7.085
 2740SOL     OW 8899   1.616   4.174   6.325
 2740SOL    HW1 8900   1.544   4.199   6.267
 2740SOL    HW2 8901   1.620   4.244   6.389
 2741SOL     OW 8902   1.597   3.845   7.056
 2741SOL    HW1 8903   1.595   3.925   7.002
 2741SOL    HW2 8904   1.584   3.876   7.145
 2742SOL     OW 8905   0.165   4.323   6.218
 2742SOL    HW1 8906   0.105   4.251   6.197
 2742SOL    HW2 8907   0.118   4.402   6.190
 2743SOL     OW 8908   0.118   4.500   7.176
 2743SOL    HW1 8909   0.212   4.484   7.177
 2743SOL    HW2 8910   0.109   0.084   7.132
 2744SOL     OW 8911   0.814   3.723   6.092
 2744SOL    HW1 8912   0.853   3.809   6.077
 2744SOL    HW2 8913   0.720   3.741   6.103
 2745SOL     OW 8914   0.329   3.979   7.383
 2745SOL    HW1 8915   0.376   4.057   7.413
 2745SOL    HW2 8916   0.241   3.988   7.419
 2746SOL     OW 8917   1.278   4.071   6.518
 2746SOL    HW1 8918   1.189   4.037   6.528
 2746SOL    HW2 8919   1.330   4.020   6.580
 2747SOL     OW 8920   0.824   4.308   7.035
 2747SOL    HW1 8921   0.784   4.313   7.122
 2747SOL    HW2 8922   0.758   4.267   6.980
 2748SOL     OW 8923   1.396   4.199   7.262
 2748SOL    HW1 8924   1.396   4.243   7.348
 2748SOL    HW2 8925   1.455   4.125   7.273
 2749SOL     OW 8926   0.996   4.149   6.819
 2749SOL    HW1 8927   0.923   4.168   6.878
 2749SOL    HW2 8928   0.960   4.089   6.755
 2750SOL     OW 8929   1.057   4.410   6.005
 2750SOL    HW1 8930   1.056   4.445   6.094
 2750SOL    HW2 8931   0.969   4.374   5.993
 2751SOL     OW 8932   0.054   0.054   6.433
 2751SOL    HW1 8933   0.144   0.024   6.437
 2751SOL    HW2 8934   0.049   0.106   6.353
 2752SOL     OW 8935   0.887   4.063   5.777
 2752SOL    HW1 8936   0.931   4.125   5.719
 2752SOL    HW2 8937   0.905   3.977   5.739
 2753SOL     OW 8938   1.706   4.298   7.414
 2753SOL    HW1 8939   1.717   4.387   7.381
 2753SOL    HW2 8940   1.729   4.242   7.341
 2754SOL     OW 8941   0.551   3.907   6.478
 2754SOL    HW1 8942   0.554   3.936   6.569
 2754SOL    HW2 8943   0.548   3.988   6.427
 2755SOL     OW 8944   1.489   4.463   6.323
 2755SOL    HW1 8945   1.469   4.408   6.399
 2755SOL    HW2 8946   1.529   0.042   6.359
 2756SOL     OW 8947   0.189   4.000   7.072
 2756SOL    HW1 8948   0.136   4.079   7.080
 2756SOL    HW2 8949   0.185   3.959   7.159
 2757SOL     OW 8950   1.400   3.832   6.016
 2757SOL    HW1 8951   1.390   3.806   5.925
 2757SOL    HW2 8952   1.495   3.839   6.029
 2758SOL     OW 8953   0.351   4.378   5.993
 2758SOL    HW1 8954   0.397   4.306   6.035
 2758SOL    HW2 8955   0.298   4.417   6.063
 2759SOL     OW 8956   1.537   3.950   7.311
 2759SOL    HW1 8957   1.545   3.972   7.404
 2759SOL    HW2 8958   1.470   3.882   7.308
 2760SOL     OW 8959   0.632   3.851   5.689
 2760SOL    HW1 8960   0.702   3.787   5.705
 2760SOL    HW2 8961   0.585   3.816   5.614
 2761SOL     OW 8962   0.768   4.001   7.340
 2761SOL    HW1 8963   0.842   3.941   7.343
 2761SOL    HW2 8964   0.717   3.981   7.419
 2762SOL     OW 8965   1.345   4.311   7.015
 2762SOL    HW1 8966   1.367   4.274   7.100
 2762SOL    HW2 8967   1.383   4.399   7.016
 2763SOL     OW 8968   0.922   4.236   6.485
 2763SOL    HW1 8969   0.901   4.220   6.393
 2763SOL    HW2 8970   0.962   4.154   6.515
 2764SOL     OW 8971   0.551   3.786   6.090
 2764SOL    HW1 8972   0.470   3.785   6.141
 2764SOL    HW2 8973   0.543   3.865   6.035
 2765SOL     OW 8974   0.294   3.770   5.764
 2765SOL    HW1 8975   0.355   3.838   5.736
 2765SOL    HW2 8976   0.349   3.705   5.808
 2766SOL     OW 8977   0.936   3.971   6.050
 2766SOL    HW1 8978   0.909   4.009   5.966
 2766SOL    HW2 8979   1.031   3.981   6.051
 2767SOL     OW 8980   1.077   4.396   7.101
 2767SOL    HW1 8981   0.993   4.365   7.066
 2767SOL    HW2 8982   1.143   4.354   7.046
 2768SOL     OW 8983   1.026   4.268   5.610
 2768SOL    HW1 8984   1.007   4.356   5.577
 2768SOL    HW2 8985   1.088   4.282   5.681
 2769SOL     OW 8986   0.086   4.259   6.996
 2769SOL    HW1 8987   0.158   4.271   6.935
 2769SOL    HW2 8988   0.054   4.347   7.014
 2770SOL     OW 8989   0.561   3.951   6.750
 2770SOL    HW1 8990   0.600   3.870   6.784
 2770SOL    HW2 8991   0.470   3.947   6.779
 2771SOL     OW 8992   0.871   4.189   6.224
 2771SOL    HW1 8993   0.833   4.247   6.158
 2771SOL    HW2 8994   0.888   4.108   6.177
 2772SOL     OW 8995   1.013   3.778   6.339
 2772SOL    HW1 8996   0.956   3.768   6.263
 2772SOL    HW2 8997   0.994   3.701   6.394
 2773SOL     OW 8998   1.477   4.312   6.554
 2773SOL    HW1 8999   1.421   4.237   6.574
 2773SOL    HW2 9000   1.529   4.325   6.634
 2774SOL     OW 9001   1.401   4.296   5.659
 2774SOL    HW1 9002   1.340   4.269   5.727
 2774SOL    HW2 9003   1.484   4.255   5.684
 2775SOL     OW 9004   0.523   3.985   5.903
 2775SOL    HW1 9005   0.566   3.936   5.833
 2775SOL    HW2 9006   0.511   4.073   5.868
 2776SOL     OW 9007   0.917   3.823   6.984
 2776SOL    HW1 9008   0.941   3.802   6.893
 2776SOL    HW2 9009   0.997   3.861   7.021
 2777SOL     OW 9010   0.440   0.004   6.845
 2777SOL    HW1 9011   0.496   0.006   6.922
 2777SOL    HW2 9012   0.401   4.416   6.845
 2778SOL     OW 9013   1.266   4.100   6.859
 2778SOL    HW1 9014   1.300   4.178   6.905
 2778SOL    HW2 9015   1.177   4.125   6.834
 2779SOL     OW 9016   0.557   4.255   6.450
 2779SOL    HW1 9017   0.576   4.300   6.368
 2779SOL    HW2 9018   0.621   4.290   6.512
 2780SOL     OW 9019   1.571   4.341   6.062
 2780SOL    HW1 9020   1.541   4.407   6.124
 2780SOL    HW2 9021   1.630   4.389   6.003
 2781SOL     OW 9022   0.996   3.844   7.342
 2781SOL    HW1 9023   1.050   3.917   7.312
 2781SOL    HW2 9024   1.045   3.765   7.316
 2782SOL     OW 9025   0.498   3.768   7.332
 2782SOL    HW1 9026   0.457   3.711   7.267
 2782SOL    HW2 9027   0.437   3.841   7.342
 2783SOL     OW 9028   1.211   4.255   5.852
 2783SOL    HW1 9029   1.221   4.175   5.904
 2783SOL    HW2 9030   1.162   4.315   5.908
 2784SOL     OW 9031   0.300   3.924   6.830
 2784SOL    HW1 9032   0.261   3.952   6.913
 2784SOL    HW2 9033   0.287   3.829   6.828
 2785SOL     OW 9034   0.732   4.360   6.634
 2785SOL    HW1 9035   0.805   4.324   6.583
 2785SOL    HW2 9036   0.737   4.454   6.620
 2786SOL     OW 9037   1.750   0.135   7.442
 2786SOL    HW1 9038   1.688   0.148   7.371
 2786SOL    HW2 9039   1.704   0.165   7.520
 2787SOL     OW 9040   0.309   3.794   6.205
 2787SOL    HW1 9041   0.286   3.882   6.233
 2787SOL    HW2 9042   0.304   3.741   6.285
 2788SOL     OW 9043   1.613   4.091   5.955
 2788SOL    HW1 9044   1.641   4.030   6.023
 2788SOL    HW2 9045   1.590   4.171   6.003
 2789SOL     OW 9046   1.528   3.999   5.713
 2789SOL    HW1 9047   1.466   3.932   5.739
 2789SOL    HW2 9048   1.563   4.033   5.796
 2790SOL     OW 9049   0.319   0.017   6.507
 2790SOL    HW1 9050   0.401   0.065   6.513
 2790SOL    HW2 9051   0.332   4.439   6.561
 2791SOL     OW 9052   0.336   4.237   6.597
 2791SOL    HW1 9053   0.291   4.156   6.573
 2791SOL    HW2 9054   0.410   4.243   6.537
 2792SOL     OW 9055   1.138   4.095   7.270
 2792SOL    HW1 9056   1.086   4.154   7.325
 2792SOL    HW2 9057   1.223   4.139   7.261
 2793SOL     OW 9058   1.160   3.928   7.055
 2793SOL    HW1 9059   1.151   3.989   7.128
 2793SOL    HW2 9060   1.199   3.980   6.985
 2794SOL     OW 9061   0.027   4.279   6.694
 2794SOL    HW1 9062   0.111   4.256   6.655
 2794SOL    HW2 9063   0.030   4.243   6.782
 2795SOL     OW 9064   0.177   4.236   7.282
 2795SOL    HW1 9065   0.263   4.217   7.244
 2795SOL    HW2 9066   0.148   4.316   7.237
 2796SOL     OW 9067   0.819   4.287   5.928
 2796SOL    HW1 9068   0.818   4.209   5.872
 2796SOL    HW2 9069   0.730   4.320   5.925
 2797SOL     OW 9070   1.638   4.319   6.775
 2797SOL    HW1 9071   1.632   4.260   6.850
 2797SOL    HW2 9072   1.726   4.304   6.739
 2798SOL     OW 9073   0.675   4.186   6.846
 2798SOL    HW1 9074   0.639   4.105   6.811
 2798SOL    HW2 9075   0.685   4.242   6.769
 2799SOL     OW 9076   0.486   4.222   5.776
 2799SOL    HW1 9077   0.519   4.309   5.799
 2799SOL    HW2 9078   0.392   4.235   5.761
 2800SOL     OW 9079   1.719   3.867   6.098
 2800SOL    HW1 9080   1.792   3.853   6.038
 2800SOL    HW2 9081   1.703   3.781   6.138
 2801SOL     OW 9082   1.280   0.138   6.265
 2801SOL    HW1 9083   1.338   0.062   6.272
 2801SOL    HW2 9084   1.330   0.201   6.214
 2802SOL     OW 9085   1.840   3.897   6.553
 2802SOL    HW1 9086   1.868   3.810   6.525
 2802SOL    HW2 9087   1.753   3.908   6.513
 2803SOL     OW 9088   0.268   4.042   6.307
 2803SOL    HW1 9089   0.191   4.089   6.277
 2803SOL    HW2 9090   0.255   4.030   6.401
 2804SOL     OW 9091   0.909   0.094   5.810
 2804SOL    HW1 9092   0.991   0.134   5.781
 2804SOL    HW2 9093   0.931   0.051   5.893
 2805SOL     OW 9094   1.067   0.303   6.324
 2805SOL    HW1 9095   0.985   0.286   6.278
 2805SOL    HW2 9096   1.128   0.238   6.290
 2806SOL     OW 9097   1.019   3.964   6.551
 2806SOL    HW1 9098   1.014   3.915   6.469
 2806SOL    HW2 9099   1.015   3.896   6.619
 2807SOL     OW 9100   1.720   4.114   6.966
 2807SOL    HW1 9101   1.791   4.178   6.963
 2807SOL    HW2 9102   1.749   4.043   6.910
 2808SOL     OW 9103   0.673   3.922   7.085
 2808SOL    HW1 9104   0.756   3.902   7.043
 2808SOL    HW2 9105   0.697   3.950   7.173
 2809SOL     OW 9106   0.068   4.045   5.619
 2809SOL    HW1 9107   4.474   4.062   5.611
 2809SOL    HW2 9108   0.109   4.131   5.603
 2810SOL     OW 9109   0.086   3.902   5.893
 2810SOL    HW1 9110   0.076   3.971   5.826
 2810SOL    HW2 9111   0.160   3.850   5.864
 2811SOL     OW 9112   0.724   4.285   7.288
 2811SOL    HW1 9113   0.731   4.334   7.370
 2811SOL    HW2 9114   0.752   4.197   7.311
 2812SOL     OW 9115   1.219   4.043   6.041
 2812SOL    HW1 9116   1.282   3.971   6.032
 2812SOL    HW2 9117   1.248   4.090   6.119
 2813SOL     OW 9118   1.762   4.089   7.234
 2813SOL    HW1 9119   1.745   4.099   7.140
 2813SOL    HW2 9120   1.693   4.030   7.265
 2814SOL     OW 9121   1.110   0.229   5.690
 2814SOL    HW1 9122   1.090   0.269   5.605
 2814SOL    HW2 9123   1.191   0.179   5.675
 2815SOL     OW 9124   1.815   3.909   6.824
 2815SOL    HW1 9125   1.823   3.815   6.839
 2815SOL    HW2 9126   1.823   3.919   6.729
 2816SOL     OW 9127   0.451   4.152   6.122
 2816SOL    HW1 9128   0.462   4.079   6.061
 2816SOL    HW2 9129   0.391   4.119   6.189
 2817SOL     OW 9130   0.322   4.259   6.862
 2817SOL    HW1 9131   0.374   4.192   6.906
 2817SOL    HW2 9132   0.335   4.242   6.769
 2818SOL     OW 9133   1.432   3.948   6.703
 2818SOL    HW1 9134   1.459   3.868   6.749
 2818SOL    HW2 9135   1.380   3.996   6.768
 2819SOL     OW 9136   1.008   3.744   6.731
 2819SOL    HW1 9137   0.954   3.676   6.692
 2819SOL    HW2 9138   1.096   3.707   6.733
 2820SOL     OW 9139   1.352   3.777   5.749
 2820SOL    HW1 9140   1.378   3.716   5.680
 2820SOL    HW2 9141   1.265   3.747   5.777
 2821SOL     OW 9142   1.300   4.176   6.268
 2821SOL    HW1 9143   1.257   4.261   6.283
 2821SOL    HW2 9144   1.300   4.135   6.355
 2822SOL     OW 9145   1.588   3.929   6.463
 2822SOL    HW1 9146   1.525   3.948   6.532
 2822SOL    HW2 9147   1.587   4.008   6.408
 2823SOL     OW 9148   0.232   4.285   7.559
 2823SOL    HW1 9149   0.165   4.320   7.617
 2823SOL    HW2 9150   0.214   4.326   7.474
 2824SOL     OW 9151   0.210   3.997   8.439
 2824SOL    HW1 9152   0.246   3.969   8.524
 2824SOL    HW2 9153   0.134   3.940   8.426
 2825SOL     OW 9154   0.001   4.098   8.079
 2825SOL    HW1 9155   4.421   4.129   8.123
 2825SOL    HW2 9156   4.475   4.016   8.037
 2826SOL     OW 9157   1.733   4.335   7.685
 2826SOL    HW1 9158   1.733   4.321   7.590
 2826SOL    HW2 9159   1.732   4.247   7.722
 2827SOL     OW 9160   0.726   0.266   8.130
 2827SOL    HW1 9161   0.721   0.208   8.205
 2827SOL    HW2 9162   0.635   0.287   8.109
 2828SOL     OW 9163   0.443   4.120   8.937
 2828SOL    HW1 9164   0.524   4.069   8.940
 2828SOL    HW2 9165   0.374   4.055   8.947
 2829SOL     OW 9166   1.615   4.173   8.187
 2829SOL    HW1 9167   1.544   4.199   8.129
 2829SOL    HW2 9168   1.621   4.244   8.251
 2830SOL     OW 9169   1.597   3.846   8.918
 2830SOL    HW1 9170   1.595   3.925   8.864
 2830SOL    HW2 9171   1.584   3.876   9.007
 2831SOL     OW 9172   0.165   4.323   8.080
 2831SOL    HW1 9173   0.105   4.251   8.059
 2831SOL    HW2 9174   0.119   4.402   8.052
 2832SOL     OW 9175   0.118   4.500   9.038
 2832SOL    HW1 9176   0.212   4.484   9.039
 2832SOL    HW2 9177   0.109   0.084   8.994
 2833SOL     OW 9178   0.814   3.723   7.954
 2833SOL    HW1 9179   0.853   3.809   7.938
 2833SOL    HW2 9180   0.720   3.741   7.965
 2834SOL     OW 9181   0.329   3.979   9.245
 2834SOL    HW1 9182   0.376   4.057   9.275
 2834SOL    HW2 9183   0.241   3.988   9.281
 2835SOL     OW 9184   1.278   4.070   8.380
 2835SOL    HW1 9185   1.189   4.037   8.390
 2835SOL    HW2 9186   1.330   4.019   8.442
 2836SOL     OW 9187   0.825   4.308   8.897
 2836SOL    HW1 9188   0.784   4.313   8.984
 2836SOL    HW2 9189   0.758   4.267   8.842
 2837SOL     OW 9190   1.396   4.199   9.124
 2837SOL    HW1 9191   1.396   4.243   9.210
 2837SOL    HW2 9192   1.455   4.125   9.135
 2838SOL     OW 9193   0.996   4.148   8.682
 2838SOL    HW1 9194   0.924   4.168   8.740
 2838SOL    HW2 9195   0.959   4.089   8.617
 2839SOL     OW 9196   1.057   4.410   7.867
 2839SOL    HW1 9197   1.056   4.446   7.956
 2839SOL    HW2 9198   0.969   4.374   7.855
 2840SOL     OW 9199   0.053   0.054   8.295
 2840SOL    HW1 9200   0.144   0.024   8.299
 2840SOL    HW2 9201   0.049   0.106   8.215
 2841SOL     OW 9202   0.887   4.063   7.639
 2841SOL    HW1 9203   0.931   4.125   7.581
 2841SOL    HW2 9204   0.906   3.977   7.601
 2842SOL     OW 9205   1.706   4.298   9.276
 2842SOL    HW1 9206   1.717   4.387   9.243
 2842SOL    HW2 9207   1.729   4.242   9.202
 2843SOL     OW 9208   0.552   3.907   8.340
 2843SOL    HW1 9209   0.554   3.936   8.431
 2843SOL    HW2 9210   0.548   3.988   8.289
 2844SOL     OW 9211   1.489   4.463   8.185
 2844SOL    HW1 9212   1.469   4.408   8.261
 2844SOL    HW2 9213   1.529   0.041   8.221
 2845SOL     OW 9214   0.189   4.000   8.934
 2845SOL    HW1 9215   0.136   4.079   8.942
 2845SOL    HW2 9216   0.185   3.959   9.021
 2846SOL     OW 9217   1.401   3.831   7.878
 2846SOL    HW1 9218   1.390   3.806   7.787
 2846SOL    HW2 9219   1.495   3.840   7.890
 2847SOL     OW 9220   0.351   4.378   7.855
 2847SOL    HW1 9221   0.397   4.306   7.897
 2847SOL    HW2 9222   0.298   4.417   7.925
 2848SOL     OW 9223   1.537   3.950   9.173
 2848SOL    HW1 9224   1.545   3.972   9.266
 2848SOL    HW2 9225   1.469   3.882   9.170
 2849SOL     OW 9226   0.632   3.851   7.551
 2849SOL    HW1 9227   0.703   3.788   7.567
 2849SOL    HW2 9228   0.585   3.816   7.476
 2850SOL     OW 9229   0.767   4.001   9.202
 2850SOL    HW1 9230   0.842   3.941   9.205
 2850SOL    HW2 9231   0.717   3.981   9.281
 2851SOL     OW 9232   1.345   4.311   8.877
 2851SOL    HW1 9233   1.367   4.274   8.962
 2851SOL    HW2 9234   1.383   4.399   8.878
 2852SOL     OW 9235   0.922   4.236   8.347
 2852SOL    HW1 9236   0.901   4.220   8.255
 2852SOL    HW2 9237   0.962   4.154   8.377
 2853SOL     OW 9238   0.551   3.786   7.952
 2853SOL    HW1 9239   0.470   3.785   8.003
 2853SOL    HW2 9240   0.543   3.865   7.897
 2854SOL     OW 9241   0.294   3.770   7.626
 2854SOL    HW1 9242   0.355   3.838   7.598
 2854SOL    HW2 9243   0.349   3.705   7.670
 2855SOL     OW 9244   0.936   3.971   7.912
 2855SOL    HW1 9245   0.909   4.009   7.828
 2855SOL    HW2 9246   1.031   3.982   7.913
 2856SOL     OW 9247   1.077   4.396   8.963
 2856SOL    HW1 9248   0.993   4.365   8.928
 2856SOL    HW2 9249   1.142   4.354   8.908
 2857SOL     OW 9250   1.025   4.268   7.472
 2857SOL    HW1 9251   1.007   4.356   7.439
 2857SOL    HW2 9252   1.088   4.282   7.543
 2858SOL     OW 9253   0.086   4.259   8.858
 2858SOL    HW1 9254   0.158   4.271   8.797
 2858SOL    HW2 9255   0.054   4.347   8.876
 2859SOL     OW 9256   0.561   3.950   8.612
 2859SOL    HW1 9257   0.600   3.870   8.646
 2859SOL    HW2 9258   0.470   3.947   8.641
 2860SOL     OW 9259   0.871   4.189   8.086
 2860SOL    HW1 9260   0.833   4.247   8.020
 2860SOL    HW2 9261   0.888   4.108   8.039
 2861SOL     OW 9262   1.014   3.777   8.201
 2861SOL    HW1 9263   0.956   3.768   8.125
 2861SOL    HW2 9264   0.994   3.701   8.255
 2862SOL     OW 9265   1.477   4.312   8.416
 2862SOL    HW1 9266   1.421   4.237   8.436
 2862SOL    HW2 9267   1.529   4.325   8.496
 2863SOL     OW 9268   1.401   4.296   7.521
 2863SOL    HW1 9269   1.340   4.269   7.589
 2863SOL    HW2 9270   1.484   4.255   7.546
 2864SOL     OW 9271   0.523   3.985   7.766
 2864SOL    HW1 9272   0.566   3.936   7.695
 2864SOL    HW2 9273   0.511   4.073   7.730
 2865SOL     OW 9274   0.917   3.823   8.846
 2865SOL    HW1 9275   0.941   3.802   8.755
 2865SOL    HW2 9276   0.997   3.861   8.883
 2866SOL     OW 9277   0.440   0.004   8.707
 2866SOL    HW1 9278   0.496   0.006   8.784
 2866SOL    HW2 9279   0.401   4.416   8.707
 2867SOL     OW 9280   1.266   4.100   8.721
 2867SOL    HW1 9281   1.300   4.178   8.766
 2867SOL    HW2 9282   1.177   4.125   8.695
 2868SOL     OW 9283   0.557   4.254   8.312
 2868SOL    HW1 9284   0.576   4.300   8.230
 2868SOL    HW2 9285   0.621   4.290   8.374
 2869SOL     OW 9286   1.572   4.341   7.924
 2869SOL    HW1 9287   1.541   4.407   7.986
 2869SOL    HW2 9288   1.630   4.389   7.865
 2870SOL     OW 9289   0.996   3.844   9.204
 2870SOL    HW1 9290   1.050   3.917   9.174
 2870SOL    HW2 9291   1.045   3.765   9.178
 2871SOL     OW 9292   0.498   3.768   9.194
 2871SOL    HW1 9293   0.457   3.711   9.129
 2871SOL    HW2 9294   0.437   3.841   9.204
 2872SOL     OW 9295   1.211   4.255   7.714
 2872SOL    HW1 9296   1.221   4.175   7.766
 2872SOL    HW2 9297   1.162   4.315   7.770
 2873SOL     OW 9298   0.300   3.924   8.692
 2873SOL    HW1 9299   0.261   3.952   8.775
 2873SOL    HW2 9300   0.287   3.829   8.690
 2874SOL     OW 9301   0.732   4.360   8.496
 2874SOL    HW1 9302   0.805   4.324   8.445
 2874SOL    HW2 9303   0.737   4.454   8.482
 2875SOL     OW 9304   1.750   0.135   9.304
 2875SOL    HW1 9305   1.688   0.148   9.233
 2875SOL    HW2 9306   1.704   0.165   9.382
 2876SOL     OW 9307   0.308   3.794   8.067
 2876SOL    HW1 9308   0.286   3.882   8.095
 2876SOL    HW2 9309   0.304   3.741   8.147
 2877SOL     OW 9310   1.613   4.091   7.818
 2877SOL    HW1 9311   1.641   4.030   7.886
 2877SOL    HW2 9312   1.590   4.171   7.865
 2878SOL     OW 9313   1.528   3.999   7.575
 2878SOL    HW1 9314   1.466   3.932   7.601
 2878SOL    HW2 9315   1.563   4.033   7.658
 2879SOL     OW 9316   0.319   0.017   8.368
 2879SOL    HW1 9317   0.401   0.065   8.375
 2879SOL    HW2 9318   0.332   4.440   8.423
 2880SOL     OW 9319   0.336   4.237   8.459
 2880SOL    HW1 9320   0.291   4.156   8.435
 2880SOL    HW2 9321   0.410   4.243   8.399
 2881SOL     OW 9322   1.138   4.095   9.132
 2881SOL    HW1 9323   1.086   4.154   9.187
 2881SOL    HW2 9324   1.223   4.139   9.123
 2882SOL     OW 9325   1.160   3.928   8.917
 2882SOL    HW1 9326   1.151   3.989   8.990
 2882SOL    HW2 9327   1.199   3.980   8.847
 2883SOL     OW 9328   0.027   4.279   8.556
 2883SOL    HW1 9329   0.111   4.256   8.517
 2883SOL    HW2 9330   0.030   4.243   8.645
 2884SOL     OW 9331   0.177   4.235   9.143
 2884SOL    HW1 9332   0.263   4.217   9.106
 2884SOL    HW2 9333   0.148   4.316   9.099
 2885SOL     OW 9334   0.819   4.287   7.790
 2885SOL    HW1 9335   0.818   4.209   7.734
 2885SOL    HW2 9336   0.730   4.320   7.787
 2886SOL     OW 9337   1.638   4.319   8.637
 2886SOL    HW1 9338   1.632   4.260   8.712
 2886SOL    HW2 9339   1.726   4.304   8.601
 2887SOL     OW 9340   0.675   4.186   8.708
 2887SOL    HW1 9341   0.639   4.105   8.673
 2887SOL    HW2 9342   0.685   4.242   8.631
 2888SOL     OW 9343   0.486   4.222   7.638
 2888SOL    HW1 9344   0.519   4.309   7.661
 2888SOL    HW2 9345   0.392   4.235   7.623
 2889SOL     OW 9346   1.719   3.867   7.961
 2889SOL    HW1 9347   1.792   3.853   7.900
 2889SOL    HW2 9348   1.704   3.781   7.999
 2890SOL     OW 9349   1.280   0.138   8.127
 2890SOL    HW1 9350   1.338   0.062   8.134
 2890SOL    HW2 9351   1.330   0.202   8.077
 2891SOL     OW 9352   1.839   3.897   8.415
 2891SOL    HW1 9353   1.868   3.810   8.386
 2891SOL    HW2 9354   1.753   3.908   8.375
 2892SOL     OW 9355   0.268   4.042   8.169
 2892SOL    HW1 9356   0.191   4.089   8.139
 2892SOL    HW2 9357   0.255   4.030   8.263
 2893SOL     OW 9358   0.909   0.094   7.672
 2893SOL    HW1 9359   0.991   0.134   7.643
 2893SOL    HW2 9360   0.931   0.051   7.755
 2894SOL     OW 9361   1.067   0.303   8.186
 2894SOL    HW1 9362   0.985   0.286   8.140
 2894SOL    HW2 9363   1.128   0.238   8.152
 2895SOL     OW 9364   1.019   3.964   8.413
 2895SOL    HW1 9365   1.014   3.915   8.331
 2895SOL    HW2 9366   1.015   3.896   8.481
 2896SOL     OW 9367   1.720   4.114   8.828
 2896SOL    HW1 9368   1.791   4.178   8.825
 2896SOL    HW2 9369   1.749   4.043   8.772
 2897SOL     OW 9370   0.673   3.922   8.947
 2897SOL    HW1 9371   0.756   3.902   8.905
 2897SOL    HW2 9372   0.697   3.950   9.035
 2898SOL     OW 9373   0.068   4.045   7.481
 2898SOL    HW1 9374   4.474   4.063   7.473
 2898SOL    HW2 9375   0.109   4.130   7.465
 2899SOL     OW 9376   0.085   3.902   7.755
 2899SOL    HW1 9377   0.076   3.971   7.688
 2899SOL    HW2 9378   0.160   3.850   7.726
 2900SOL     OW 9379   0.724   4.285   9.150
 2900SOL    HW1 9380   0.730   4.334   9.232
 2900SOL    HW2 9381   0.752   4.197   9.173
 2901SOL     OW 9382   1.219   4.043   7.903
 2901SOL    HW1 9383   1.282   3.971   7.894
 2901SOL    HW2 9384   1.248   4.090   7.981
 2902SOL     OW 9385   1.762   4.088   9.096
 2902SOL    HW1 9386   1.745   4.099   9.002
 2902SOL    HW2 9387   1.693   4.030   9.127
 2903SOL     OW 9388   1.110   0.229   7.552
 2903SOL    HW1 9389   1.091   0.269   7.467
 2903SOL    HW2 9390   1.191   0.180   7.537
 2904SOL     OW 9391   1.815   3.909   8.686
 2904SOL    HW1 9392   1.823   3.815   8.701
 2904SOL    HW2 9393   1.823   3.919   8.591
 2905SOL     OW 9394   0.451   4.152   7.984
 2905SOL    HW1 9395   0.462   4.079   7.923
 2905SOL    HW2 9396   0.391   4.119   8.051
 2906SOL     OW 9397   0.322   4.259   8.724
 2906SOL    HW1 9398   0.374   4.192   8.768
 2906SOL    HW2 9399   0.335   4.242   8.631
 2907SOL     OW 9400   1.432   3.948   8.566
 2907SOL    HW1 9401   1.459   3.869   8.613
 2907SOL    HW2 9402   1.380   3.997   8.629
 2908SOL     OW 9403   1.008   3.744   8.593
 2908SOL    HW1 9404   0.954   3.676   8.554
 2908SOL    HW2 9405   1.096   3.707   8.595
 2909SOL     OW 9406   1.352   3.777   7.612
 2909SOL    HW1 9407   1.379   3.716   7.543
 2909SOL    HW2 9408   1.265   3.747   7.639
 2910SOL     OW 9409   1.300   4.176   8.130
 2910SOL    HW1 9410   1.258   4.261   8.145
 2910SOL    HW2 9411   1.300   4.135   8.217
 2911SOL     OW 9412   1.587   3.929   8.325
 2911SOL    HW1 9413   1.524   3.948   8.395
 2911SOL    HW2 9414   1.587   4.007   8.270
 2912SOL     OW 9415   0.232   4.285   9.421
 2912SOL    HW1 9416   0.165   4.320   9.479
 2912SOL    HW2 9417   0.214   4.327   9.336
 2913SOL     OW 9418   0.212   3.997  10.301
 2913SOL    HW1 9419   0.247   3.971  10.386
 2913SOL    HW2 9420   0.135   3.942  10.289
 2914SOL     OW 9421   0.001   4.099   9.941
 2914SOL    HW1 9422   4.422   4.129   9.985
 2914SOL    HW2 9423   4.474   4.016   9.899
 2915SOL     OW 9424   1.733   4.335   9.547
 2915SOL    HW1 9425   1.733   4.321   9.452
 2915SOL    HW2 9426   1.732   4.247   9.584
 2916SOL     OW 9427   0.726   0.266   9.992
 2916SOL    HW1 9428   0.721   0.208  10.067
 2916SOL    HW2 9429   0.635   0.287   9.971
 2917SOL     OW 9430   0.446   4.124  10.793
 2917SOL    HW1 9431   0.524   4.069  10.801
 2917SOL    HW2 9432   0.373   4.066  10.815
 2918SOL     OW 9433   1.616   4.173  10.049
 2918SOL    HW1 9434   1.544   4.199   9.991
 2918SOL    HW2 9435   1.621   4.244  10.113
 2919SOL     OW 9436   1.589   3.840  10.779
 2919SOL    HW1 9437   1.598   3.920  10.728
 2919SOL    HW2 9438   1.589   3.869  10.870
 2920SOL     OW 9439   0.165   4.323   9.942
 2920SOL    HW1 9440   0.105   4.251   9.921
 2920SOL    HW2 9441   0.119   4.402   9.914
 2921SOL     OW 9442   0.100   4.486  10.936
 2921SOL    HW1 9443   0.195   4.473  10.947
 2921SOL    HW2 9444   0.092   0.068  10.889
 2922SOL     OW 9445   0.814   3.723   9.816
 2922SOL    HW1 9446   0.853   3.809   9.800
 2922SOL    HW2 9447   0.720   3.741   9.827
 2923SOL     OW 9448   0.339   3.984   0.008
 2923SOL    HW1 9449   0.384   4.064   0.035
 2923SOL    HW2 9450   0.246   4.005   0.017
 2924SOL     OW 9451   1.278   4.071  10.243
 2924SOL    HW1 9452   1.189   4.037  10.252
 2924SOL    HW2 9453   1.330   4.019  10.304
 2925SOL     OW 9454   0.823   4.302  10.764
 2925SOL    HW1 9455   0.777   4.315  10.847
 2925SOL    HW2 9456   0.758   4.265  10.706
 2926SOL     OW 9457   0.996   4.147  10.546
 2926SOL    HW1 9458   0.921   4.168  10.601
 2926SOL    HW2 9459   0.960   4.090  10.477
 2927SOL     OW 9460   1.057   4.410   9.729
 2927SOL    HW1 9461   1.056   4.446   9.818
 2927SOL    HW2 9462   0.969   4.374   9.717
 2928SOL     OW 9463   0.053   0.054  10.156
 2928SOL    HW1 9464   0.144   0.024  10.162
 2928SOL    HW2 9465   0.050   0.107  10.077
 2929SOL     OW 9466   0.887   4.063   9.501
 2929SOL    HW1 9467   0.931   4.125   9.443
 2929SOL    HW2 9468   0.906   3.977   9.463
 2930SOL     OW 9469   0.552   3.907  10.202
 2930SOL    HW1 9470   0.553   3.936  10.294
 2930SOL    HW2 9471   0.549   3.988  10.152
 2931SOL     OW 9472   1.489   4.463  10.046
 2931SOL    HW1 9473   1.469   4.408  10.123
 2931SOL    HW2 9474   1.529   0.042  10.083
 2932SOL     OW 9475   0.192   4.001  10.797
 2932SOL    HW1 9476   0.139   4.081  10.805
 2932SOL    HW2 9477   0.186   3.961  10.884
 2933SOL     OW 9478   1.401   3.831   9.740
 2933SOL    HW1 9479   1.390   3.806   9.649
 2933SOL    HW2 9480   1.495   3.840   9.752
 2934SOL     OW 9481   0.351   4.378   9.717
 2934SOL    HW1 9482   0.397   4.306   9.759
 2934SOL    HW2 9483   0.298   4.417   9.786
 2935SOL     OW 9484   0.632   3.851   9.413
 2935SOL    HW1 9485   0.703   3.788   9.429
 2935SOL    HW2 9486   0.585   3.816   9.338
 2936SOL     OW 9487   0.770   3.999  11.045
 2936SOL    HW1 9488   0.835   3.940  11.084
 2936SOL    HW2 9489   0.708   4.015   0.016
 2937SOL     OW 9490   1.352   4.308  10.744
 2937SOL    HW1 9491   1.374   4.287  10.835
 2937SOL    HW2 9492   1.375   4.400  10.734
 2938SOL     OW 9493   0.923   4.236  10.209
 2938SOL    HW1 9494   0.901   4.221  10.117
 2938SOL    HW2 9495   0.962   4.154  10.239
 2939SOL     OW 9496   0.551   3.786   9.813
 2939SOL    HW1 9497   0.470   3.785   9.865
 2939SOL    HW2 9498   0.543   3.865   9.759
 2940SOL     OW 9499   0.294   3.770   9.488
 2940SOL    HW1 9500   0.355   3.838   9.460
 2940SOL    HW2 9501   0.349   3.705   9.532
 2941SOL     OW 9502   0.936   3.970   9.774
 2941SOL    HW1 9503   0.909   4.009   9.690
 2941SOL    HW2 9504   1.031   3.982   9.775
 2942SOL     OW 9505   1.079   4.387  10.814
 2942SOL    HW1 9506   0.993   4.363  10.782
 2942SOL    HW2 9507   1.140   4.343  10.755
 2943SOL     OW 9508   1.025   4.268   9.334
 2943SOL    HW1 9509   1.007   4.356   9.301
 2943SOL    HW2 9510   1.088   4.282   9.405
 2944SOL     OW 9511   0.081   4.256  10.720
 2944SOL    HW1 9512   0.155   4.263  10.659
 2944SOL    HW2 9513   0.053   4.346  10.735
 2945SOL     OW 9514   0.561   3.950  10.474
 2945SOL    HW1 9515   0.600   3.870  10.509
 2945SOL    HW2 9516   0.469   3.947  10.502
 2946SOL     OW 9517   0.872   4.189   9.948
 2946SOL    HW1 9518   0.832   4.247   9.882
 2946SOL    HW2 9519   0.888   4.108   9.901
 2947SOL     OW 9520   1.014   3.777  10.063
 2947SOL    HW1 9521   0.956   3.769   9.988
 2947SOL    HW2 9522   0.994   3.701  10.117
 2948SOL     OW 9523   1.477   4.312  10.278
 2948SOL    HW1 9524   1.421   4.237  10.298
 2948SOL    HW2 9525   1.529   4.325  10.357
 2949SOL     OW 9526   1.401   4.296   9.382
 2949SOL    HW1 9527   1.339   4.269   9.451
 2949SOL    HW2 9528   1.484   4.255   9.408
 2950SOL     OW 9529   0.523   3.984   9.627
 2950SOL    HW1 9530   0.566   3.936   9.557
 2950SOL    HW2 9531   0.511   4.073   9.592
 2951SOL     OW 9532   0.918   3.823  10.708
 2951SOL    HW1 9533   0.941   3.802  10.617
 2951SOL    HW2 9534   0.996   3.863  10.744
 2952SOL     OW 9535   0.446   4.498  10.555
 2952SOL    HW1 9536   0.498   0.011  10.635
 2952SOL    HW2 9537   0.389   4.424  10.576
 2953SOL     OW 9538   1.267   4.100  10.585
 2953SOL    HW1 9539   1.302   4.177  10.629
 2953SOL    HW2 9540   1.178   4.125  10.558
 2954SOL     OW 9541   0.561   4.251  10.171
 2954SOL    HW1 9542   0.578   4.301  10.091
 2954SOL    HW2 9543   0.621   4.289  10.236
 2955SOL     OW 9544   1.571   4.341   9.786
 2955SOL    HW1 9545   1.541   4.406   9.848
 2955SOL    HW2 9546   1.630   4.389   9.727
 2956SOL     OW 9547   0.487   4.500  10.996
 2956SOL    HW1 9548   0.478   0.047  10.914
 2956SOL    HW2 9549   0.484   4.407  10.971
 2957SOL     OW 9550   1.211   4.255   9.576
 2957SOL    HW1 9551   1.221   4.175   9.628
 2957SOL    HW2 9552   1.162   4.315   9.632
 2958SOL     OW 9553   0.301   3.922  10.553
 2958SOL    HW1 9554   0.264   3.953  10.635
 2958SOL    HW2 9555   0.285   3.827  10.554
 2959SOL     OW 9556   0.732   4.359  10.358
 2959SOL    HW1 9557   0.805   4.325  10.307
 2959SOL    HW2 9558   0.736   4.454  10.344
 2960SOL     OW 9559   0.308   3.793   9.929
 2960SOL    HW1 9560   0.286   3.882   9.957
 2960SOL    HW2 9561   0.304   3.741  10.009
 2961SOL     OW 9562   1.613   4.091   9.679
 2961SOL    HW1 9563   1.641   4.030   9.748
 2961SOL    HW2 9564   1.590   4.171   9.727
 2962SOL     OW 9565   1.528   3.999   9.437
 2962SOL    HW1 9566   1.466   3.932   9.463
 2962SOL    HW2 9567   1.563   4.033   9.519
 2963SOL     OW 9568   0.318   0.017  10.231
 2963SOL    HW1 9569   0.401   0.065  10.239
 2963SOL    HW2 9570   0.331   4.439  10.284
 2964SOL     OW 9571   0.336   4.239  10.312
 2964SOL    HW1 9572   0.292   4.156  10.291
 2964SOL    HW2 9573   0.411   4.242  10.253
 2965SOL     OW 9574   1.157   3.933  10.781
 2965SOL    HW1 9575   1.165   3.992  10.856
 2965SOL    HW2 9576   1.197   3.981  10.709
 2966SOL     OW 9577   0.026   4.276  10.415
 2966SOL    HW1 9578   0.113   4.258  10.379
 2966SOL    HW2 9579   0.031   4.245  10.506
 2967SOL     OW 9580   1.352   0.186  10.988
 2967SOL    HW1 9581   1.415   0.257  11.002
 2967SOL    HW2 9582   1.370   0.154  10.900
 2968SOL     OW 9583   0.820   4.287   9.652
 2968SOL    HW1 9584   0.818   4.209   9.596
 2968SOL    HW2 9585   0.730   4.320   9.649
 2969SOL     OW 9586   1.638   4.319  10.498
 2969SOL    HW1 9587   1.633   4.260  10.573
 2969SOL    HW2 9588   1.726   4.306  10.463
 2970SOL     OW 9589   0.681   4.184  10.569
 2970SOL    HW1 9590   0.639   4.105  10.535
 2970SOL    HW2 9591   0.684   4.243  10.493
 2971SOL     OW 9592   0.486   4.222   9.500
 2971SOL    HW1 9593   0.519   4.309   9.523
 2971SOL    HW2 9594   0.392   4.235   9.485
 2972SOL     OW 9595   1.719   3.867   9.822
 2972SOL    HW1 9596   1.792   3.853   9.762
 2972SOL    HW2 9597   1.704   3.781   9.862
 2973SOL     OW 9598   1.280   0.138   9.989
 2973SOL    HW1 9599   1.338   0.062   9.996
 2973SOL    HW2 9600   1.330   0.201   9.938
 2974SOL     OW 9601   1.839   3.897  10.277
 2974SOL    HW1 9602   1.868   3.810  10.249
 2974SOL    HW2 9603   1.753   3.908  10.237
 2975SOL     OW 9604   0.268   4.042  10.030
 2975SOL    HW1 9605   0.191   4.090  10.001
 2975SOL    HW2 9606   0.256   4.030  10.124
 2976SOL     OW 9607   0.909   0.093   9.534
 2976SOL    HW1 9608   0.991   0.134   9.505
 2976SOL    HW2 9609   0.931   0.051   9.617
 2977SOL     OW 9610   1.067   0.304  10.048
 2977SOL    HW1 9611   0.985   0.286  10.002
 2977SOL    HW2 9612   1.128   0.238  10.014
 2978SOL     OW 9613   1.019   3.964  10.275
 2978SOL    HW1 9614   1.014   3.916  10.193
 2978SOL    HW2 9615   1.015   3.896  10.343
 2979SOL     OW 9616   1.716   4.116  10.689
 2979SOL    HW1 9617   1.788   4.180  10.690
 2979SOL    HW2 9618   1.747   4.045  10.633
 2980SOL     OW 9619   0.673   3.920  10.804
 2980SOL    HW1 9620   0.754   3.899  10.758
 2980SOL    HW2 9621   0.701   3.954  10.889
 2981SOL     OW 9622   0.068   4.045   9.342
 2981SOL    HW1 9623   4.474   4.063   9.335
 2981SOL    HW2 9624   0.109   4.130   9.327
 2982SOL     OW 9625   0.085   3.902   9.617
 2982SOL    HW1 9626   0.076   3.971   9.551
 2982SOL    HW2 9627   0.160   3.850   9.587
 2983SOL     OW 9628   0.719   4.290  11.022
 2983SOL    HW1 9629   0.751   4.344  11.094
 2983SOL    HW2 9630   0.768   4.208  11.030
 2984SOL     OW 9631   1.219   4.043   9.765
 2984SOL    HW1 9632   1.282   3.971   9.756
 2984SOL    HW2 9633   1.248   4.090   9.843
 2985SOL     OW 9634   1.755   4.051  10.953
 2985SOL    HW1 9635   1.733   4.081  10.865
 2985SOL    HW2 9636   1.672   4.055  11.000
 2986SOL     OW 9637   1.110   0.229   9.414
 2986SOL    HW1 9638   1.091   0.269   9.330
 2986SOL    HW2 9639   1.191   0.180   9.399
 2987SOL     OW 9640   1.811   3.909  10.548
 2987SOL    HW1 9641   1.823   3.815  10.563
 2987SOL    HW2 9642   1.821   3.919  10.453
 2988SOL     OW 9643   0.451   4.152   9.846
 2988SOL    HW1 9644   0.462   4.079   9.785
 2988SOL    HW2 9645   0.391   4.119   9.913
 2989SOL     OW 9646   0.313   4.237  10.576
 2989SOL    HW1 9647   0.373   4.178  10.620
 2989SOL    HW2 9648   0.336   4.231  10.483
 2990SOL     OW 9649   1.432   3.947  10.428
 2990SOL    HW1 9650   1.461   3.869  10.475
 2990SOL    HW2 9651   1.380   3.996  10.492
 2991SOL     OW 9652   1.008   3.744  10.455
 2991SOL    HW1 9653   0.954   3.677  10.416
 2991SOL    HW2 9654   1.096   3.707  10.457
 2992SOL     OW 9655   1.352   3.777   9.474
 2992SOL    HW1 9656   1.378   3.716   9.405
 2992SOL    HW2 9657   1.265   3.747   9.501
 2993SOL     OW 9658   1.299   4.176   9.992
 2993SOL    HW1 9659   1.258   4.261  10.006
 2993SOL    HW2 9660   1.300   4.135  10.079
 2994SOL     OW 9661   1.587   3.929  10.187
 2994SOL    HW1 9662   1.524   3.948  10.256
 2994SOL    HW2 9663   1.588   4.007  10.132
 2995SOL     OW 9664   2.089   0.617   0.120
 2995SOL    HW1 9665   2.002   0.620   0.159
 2995SOL    HW2 9666   2.075   0.632   0.027
 2996SOL     OW 9667   2.072   0.296   0.989
 2996SOL    HW1 9668   2.102   0.269   1.075
 2996SOL    HW2 9669   1.989   0.249   0.976
 2997SOL     OW 9670   1.870   0.384   0.639
 2997SOL    HW1 9671   1.784   0.405   0.676
 2997SOL    HW2 9672   1.854   0.308   0.582
 2998SOL     OW 9673   2.429   1.284   1.172
 2998SOL    HW1 9674   2.341   1.285   1.136
 2998SOL    HW2 9675   2.442   1.372   1.207
 2999SOL     OW 9676   3.420   1.512   0.706
 2999SOL    HW1 9677   3.377   1.492   0.789
 2999SOL    HW2 9678   3.349   1.515   0.642
 3000SOL     OW 9679   2.994   0.700   0.700
 3000SOL    HW1 9680   3.042   0.782   0.690
 3000SOL    HW2 9681   2.945   0.711   0.781
 3001SOL     OW 9682   3.636   0.603   0.219
 3001SOL    HW1 9683   3.586   0.603   0.138
 3001SOL    HW2 9684   3.597   0.533   0.272
 3002SOL     OW 9685   2.621   1.144   1.039
 3002SOL    HW1 9686   2.551   1.177   1.095
 3002SOL    HW2 9687   2.654   1.222   0.994
 3003SOL     OW 9688   2.725   0.779   1.822
 3003SOL    HW1 9689   2.713   0.850   1.884
 3003SOL    HW2 9690   2.749   0.822   1.740
 3004SOL     OW 9691   2.549   1.006   0.648
 3004SOL    HW1 9692   2.613   0.992   0.717
 3004SOL    HW2 9693   2.478   1.056   0.690
 3005SOL     OW 9694   2.570   1.152   1.809
 3005SOL    HW1 9695   2.618   1.231   1.835
 3005SOL    HW2 9696   2.486   1.184   1.776
 3006SOL     OW 9697   2.193   1.427   1.069
 3006SOL    HW1 9698   2.120   1.391   1.019
 3006SOL    HW2 9699   2.244   1.476   1.004
 3007SOL     OW 9700   3.323   1.498   1.351
 3007SOL    HW1 9701   3.369   1.582   1.362
 3007SOL    HW2 9702   3.266   1.493   1.428
 3008SOL     OW 9703   2.303   0.396   1.491
 3008SOL    HW1 9704   2.385   0.346   1.492
 3008SOL    HW2 9705   2.235   0.330   1.504
 3009SOL     OW 9706   3.474   0.448   0.738
 3009SOL    HW1 9707   3.393   0.470   0.693
 3009SOL    HW2 9708   3.494   0.525   0.791
 3010SOL     OW 9709   2.080   1.711   0.472
 3010SOL    HW1 9710   2.104   1.785   0.527
 3010SOL    HW2 9711   2.150   1.704   0.407
 3011SOL     OW 9712   2.998   1.341   1.691
 3011SOL    HW1 9713   3.037   1.337   1.779
 3011SOL    HW2 9714   2.945   1.262   1.686
 3012SOL     OW 9715   2.091   1.439   0.535
 3012SOL    HW1 9716   2.072   1.533   0.537
 3012SOL    HW2 9717   2.029   1.401   0.596
 3013SOL     OW 9718   2.117   1.090   0.891
 3013SOL    HW1 9719   2.114   1.004   0.933
 3013SOL    HW2 9720   2.059   1.145   0.943
 3014SOL     OW 9721   2.475   1.790   1.427
 3014SOL    HW1 9722   2.393   1.772   1.473
 3014SOL    HW2 9723   2.500   1.878   1.454
 3015SOL     OW 9724   2.448   0.986   0.139
 3015SOL    HW1 9725   2.486   1.042   0.072
 3015SOL    HW2 9726   2.491   1.011   0.220
 3016SOL     OW 9727   3.447   0.114   1.474
 3016SOL    HW1 9728   3.461   0.183   1.408
 3016SOL    HW2 9729   3.436   0.162   1.556
 3017SOL     OW 9730   1.977   0.651   0.559
 3017SOL    HW1 9731   1.947   0.563   0.581
 3017SOL    HW2 9732   1.968   0.700   0.641
 3018SOL     OW 9733   3.703   1.760   0.336
 3018SOL    HW1 9734   3.764   1.730   0.403
 3018SOL    HW2 9735   3.731   1.850   0.317
 3019SOL     OW 9736   1.907   1.602   0.120
 3019SOL    HW1 9737   1.878   1.513   0.142
 3019SOL    HW2 9738   1.877   1.655   0.194
 3020SOL     OW 9739   3.552   0.919   0.639
 3020SOL    HW1 9740   3.637   0.880   0.620
 3020SOL    HW2 9741   3.531   0.970   0.561
 3021SOL     OW 9742   3.508   1.106   0.431
 3021SOL    HW1 9743   3.590   1.119   0.384
 3021SOL    HW2 9744   3.512   1.168   0.505
 3022SOL     OW 9745   1.984   0.744   1.585
 3022SOL    HW1 9746   2.076   0.767   1.598
 3022SOL    HW2 9747   1.936   0.826   1.593
 3023SOL     OW 9748   2.475   1.383   0.735
 3023SOL    HW1 9749   2.429   1.300   0.744
 3023SOL    HW2 9750   2.458   1.410   0.644
 3024SOL     OW 9751   3.152   1.239   1.424
 3024SOL    HW1 9752   3.184   1.171   1.364
 3024SOL    HW2 9753   3.208   1.231   1.501
 3025SOL     OW 9754   2.678   0.010   0.550
 3025SOL    HW1 9755   2.716   0.088   0.509
 3025SOL    HW2 9756   2.584   0.023   0.542
 3026SOL     OW 9757   2.053   0.968   1.270
 3026SOL    HW1 9758   2.137   0.925   1.254
 3026SOL    HW2 9759   1.989   0.912   1.226
 3027SOL     OW 9760   3.382   0.998   0.201
 3027SOL    HW1 9761   3.317   0.937   0.235
 3027SOL    HW2 9762   3.430   1.029   0.278
 3028SOL     OW 9763   3.048   1.804   1.621
 3028SOL    HW1 9764   3.061   1.862   1.545
 3028SOL    HW2 9765   3.063   1.716   1.587
 3029SOL     OW 9766   2.177   0.255   1.781
 3029SOL    HW1 9767   2.241   0.319   1.813
 3029SOL    HW2 9768   2.103   0.262   1.841
 3030SOL     OW 9769   3.327   1.420   0.952
 3030SOL    HW1 9770   3.259   1.434   1.018
 3030SOL    HW2 9771   3.316   1.329   0.925
 3031SOL     OW 9772   3.521   1.736   0.579
 3031SOL    HW1 9773   3.501   1.707   0.490
 3031SOL    HW2 9774   3.496   1.661   0.634
 3032SOL     OW 9775   2.455   0.720   0.262
 3032SOL    HW1 9776   2.465   0.801   0.213
 3032SOL    HW2 9777   2.391   0.741   0.331
 3033SOL     OW 9778   3.150   0.358   0.934
 3033SOL    HW1 9779   3.060   0.326   0.924
 3033SOL    HW2 9780   3.190   0.297   0.996
 3034SOL     OW 9781   3.444   1.669   0.311
 3034SOL    HW1 9782   3.534   1.701   0.305
 3034SOL    HW2 9783   3.419   1.650   0.221
 3035SOL     OW 9784   2.658   0.618   1.455
 3035SOL    HW1 9785   2.629   0.594   1.543
 3035SOL    HW2 9786   2.616   0.554   1.397
 3036SOL     OW 9787   3.251   0.478   1.676
 3036SOL    HW1 9788   3.253   0.522   1.761
 3036SOL    HW2 9789   3.317   0.410   1.683
 3037SOL     OW 9790   2.819   0.889   1.581
 3037SOL    HW1 9791   2.873   0.817   1.547
 3037SOL    HW2 9792   2.771   0.921   1.505
 3038SOL     OW 9793   2.857   0.417   1.238
 3038SOL    HW1 9794   2.772   0.430   1.279
 3038SOL    HW2 9795   2.838   0.367   1.159
 3039SOL     OW 9796   2.911   0.701   0.428
 3039SOL    HW1 9797   2.927   0.692   0.522
 3039SOL    HW2 9798   2.829   0.653   0.414
 3040SOL     OW 9799   1.952   0.820   0.775
 3040SOL    HW1 9800   2.032   0.814   0.826
 3040SOL    HW2 9801   1.907   0.897   0.810
 3041SOL     OW 9802   1.987   1.813   1.573
 3041SOL    HW1 9803   1.977   1.811   1.668
 3041SOL    HW2 9804   1.924   1.879   1.544
 3042SOL     OW 9805   2.736   0.359   0.197
 3042SOL    HW1 9806   2.794   0.412   0.143
 3042SOL    HW2 9807   2.770   0.270   0.188
 3043SOL     OW 9808   3.568   0.575   1.828
 3043SOL    HW1 9809   3.533   0.651   1.782
 3043SOL    HW2 9810   3.602   0.519   1.758
 3044SOL     OW 9811   3.238   1.142   0.542
 3044SOL    HW1 9812   3.316   1.128   0.488
 3044SOL    HW2 9813   3.185   1.204   0.491
 3045SOL     OW 9814   2.403   0.203   0.900
 3045SOL    HW1 9815   2.422   0.220   0.992
 3045SOL    HW2 9816   2.394   0.289   0.861
 3046SOL     OW 9817   2.870   1.445   0.474
 3046SOL    HW1 9818   2.829   1.517   0.425
 3046SOL    HW2 9819   2.855   1.467   0.566
 3047SOL     OW 9820   2.217   1.796   0.865
 3047SOL    HW1 9821   2.251   1.707   0.871
 3047SOL    HW2 9822   2.292   1.853   0.883
 3048SOL     OW 9823   3.660   1.060   0.868
 3048SOL    HW1 9824   3.604   1.043   0.792
 3048SOL    HW2 9825   3.599   1.065   0.942
 3049SOL     OW 9826   3.090   1.539   1.512
 3049SOL    HW1 9827   3.076   1.467   1.573
 3049SOL    HW2 9828   3.028   1.523   1.441
 3050SOL     OW 9829   2.179   0.956   0.274
 3050SOL    HW1 9830   2.257   0.982   0.225
 3050SOL    HW2 9831   2.151   0.875   0.233
 3051SOL     OW 9832   3.340   0.739   0.724
 3051SOL    HW1 9833   3.326   0.694   0.808
 3051SOL    HW2 9834   3.415   0.796   0.740
 3052SOL     OW 9835   2.327   1.263   1.737
 3052SOL    HW1 9836   2.299   1.268   1.646
 3052SOL    HW2 9837   2.245   1.262   1.787
 3053SOL     OW 9838   2.969   1.779   0.226
 3053SOL    HW1 9839   2.911   1.726   0.282
 3053SOL    HW2 9840   3.010   1.715   0.167
 3054SOL     OW 9841   2.051   0.268   1.509
 3054SOL    HW1 9842   1.984   0.335   1.492
 3054SOL    HW2 9843   2.061   0.268   1.604
 3055SOL     OW 9844   3.490   1.375   0.088
 3055SOL    HW1 9845   3.448   1.460   0.076
 3055SOL    HW2 9846   3.424   1.311   0.061
 3056SOL     OW 9847   2.328   1.736   0.325
 3056SOL    HW1 9848   2.369   1.796   0.387
 3056SOL    HW2 9849   2.399   1.709   0.267
 3057SOL     OW 9850   3.279   0.131   0.424
 3057SOL    HW1 9851   3.257   0.097   0.338
 3057SOL    HW2 9852   3.375   0.132   0.426
 3058SOL     OW 9853   2.114   1.784   1.236
 3058SOL    HW1 9854   2.168   1.719   1.279
 3058SOL    HW2 9855   2.105   1.753   1.146
 3059SOL     OW 9856   2.798   1.698   0.901
 3059SOL    HW1 9857   2.876   1.646   0.922
 3059SOL    HW2 9858   2.754   1.649   0.831
 3060SOL     OW 9859   2.253   0.694   0.475
 3060SOL    HW1 9860   2.276   0.602   0.488
 3060SOL    HW2 9861   2.160   0.698   0.496
 3061SOL     OW 9862   3.388   0.233   1.722
 3061SOL    HW1 9863   3.387   0.256   1.815
 3061SOL    HW2 9864   3.312   0.176   1.711
 3062SOL     OW 9865   2.465   0.097   0.122
 3062SOL    HW1 9866   2.560   0.081   0.129
 3062SOL    HW2 9867   2.448   0.100   0.028
 3063SOL     OW 9868   2.632   0.271   1.753
 3063SOL    HW1 9869   2.696   0.202   1.768
 3063SOL    HW2 9870   2.584   0.278   1.836
 3064SOL     OW 9871   2.739   1.522   1.193
 3064SOL    HW1 9872   2.724   1.484   1.106
 3064SOL    HW2 9873   2.808   1.467   1.231
 3065SOL     OW 9874   3.204   0.589   1.429
 3065SOL    HW1 9875   3.232   0.559   1.516
 3065SOL    HW2 9876   3.238   0.678   1.423
 3066SOL     OW 9877   2.675   1.398   0.937
 3066SOL    HW1 9878   2.759   1.386   0.892
 3066SOL    HW2 9879   2.611   1.395   0.866
 3067SOL     OW 9880   2.786   0.515   0.901
 3067SOL    HW1 9881   2.769   0.515   0.807
 3067SOL    HW2 9882   2.825   0.430   0.919
 3068SOL     OW 9883   2.416   0.073   0.521
 3068SOL    HW1 9884   2.327   0.051   0.548
 3068SOL    HW2 9885   2.405   0.140   0.454
 3069SOL     OW 9886   3.288   1.196   0.032
 3069SOL    HW1 9887   3.321   1.123   0.085
 3069SOL    HW2 9888   3.205   1.220   0.072
 3070SOL     OW 9889   2.149   0.057   0.197
 3070SOL    HW1 9890   2.217   0.106   0.151
 3070SOL    HW2 9891   2.196   0.005   0.262
 3071SOL     OW 9892   2.811   0.225   0.443
 3071SOL    HW1 9893   2.764   0.293   0.395
 3071SOL    HW2 9894   2.899   0.261   0.453
 3072SOL     OW 9895   2.942   0.680   1.461
 3072SOL    HW1 9896   2.870   0.616   1.463
 3072SOL    HW2 9897   3.020   0.626   1.450
 3073SOL     OW 9898   3.086   1.570   0.794
 3073SOL    HW1 9899   3.105   1.637   0.728
 3073SOL    HW2 9900   3.154   1.581   0.860
 3074SOL     OW 9901   2.331   1.149   0.738
 3074SOL    HW1 9902   2.260   1.130   0.800
 3074SOL    HW2 9903   2.292   1.133   0.652
 3075SOL     OW 9904   3.132   1.795   0.604
 3075SOL    HW1 9905   3.178   1.857   0.547
 3075SOL    HW2 9906   3.069   1.849   0.652
 3076SOL     OW 9907   2.883   0.534   0.033
 3076SOL    HW1 9908   2.847   0.619   0.007
 3076SOL    HW2 9909   2.956   0.555   0.092
 3077SOL     OW 9910   1.942   0.551   1.394
 3077SOL    HW1 9911   2.033   0.554   1.364
 3077SOL    HW2 9912   1.935   0.623   1.457
 3078SOL     OW 9913   2.426   0.241   1.165
 3078SOL    HW1 9914   2.453   0.158   1.203
 3078SOL    HW2 9915   2.334   0.251   1.190
 3079SOL     OW 9916   2.725   0.508   0.627
 3079SOL    HW1 9917   2.678   0.543   0.551
 3079SOL    HW2 9918   2.706   0.414   0.626
 3080SOL     OW 9919   2.828   0.036   0.776
 3080SOL    HW1 9920   2.779   0.027   0.694
 3080SOL    HW2 9921   2.845   4.445   0.803
 3081SOL     OW 9922   3.298   1.164   0.857
 3081SOL    HW1 9923   3.230   1.096   0.856
 3081SOL    HW2 9924   3.321   1.176   0.765
 3082SOL     OW 9925   3.329   0.603   0.978
 3082SOL    HW1 9926   3.277   0.523   0.981
 3082SOL    HW2 9927   3.388   0.597   1.053
 3083SOL     OW 9928   3.712   0.816   0.378
 3083SOL    HW1 9929   3.764   0.765   0.440
 3083SOL    HW2 9930   3.683   0.752   0.313
 3084SOL     OW 9931   2.355   1.423   0.173
 3084SOL    HW1 9932   2.278   1.397   0.223
 3084SOL    HW2 9933   2.350   1.373   0.092
 3085SOL     OW 9934   3.531   1.265   0.649
 3085SOL    HW1 9935   3.625   1.270   0.661
 3085SOL    HW2 9936   3.499   1.353   0.669
 3086SOL     OW 9937   3.252   0.575   0.076
 3086SOL    HW1 9938   3.191   0.556   0.148
 3086SOL    HW2 9939   3.325   0.515   0.090
 3087SOL     OW 9940   2.387   0.263   0.326
 3087SOL    HW1 9941   2.419   0.204   0.257
 3087SOL    HW2 9942   2.372   0.346   0.280
 3088SOL     OW 9943   3.615   1.237   1.576
 3088SOL    HW1 9944   3.703   1.198   1.572
 3088SOL    HW2 9945   3.630   1.326   1.605
 3089SOL     OW 9946   2.922   1.354   1.335
 3089SOL    HW1 9947   2.847   1.323   1.386
 3089SOL    HW2 9948   2.998   1.312   1.376
 3090SOL     OW 9949   3.468   1.625   1.652
 3090SOL    HW1 9950   3.465   1.659   1.562
 3090SOL    HW2 9951   3.551   1.578   1.657
 3091SOL     OW 9952   2.989   1.203   1.107
 3091SOL    HW1 9953   2.930   1.240   1.172
 3091SOL    HW2 9954   2.954   1.232   1.023
 3092SOL     OW 9955   3.492   1.099   1.079
 3092SOL    HW1 9956   3.488   1.162   1.151
 3092SOL    HW2 9957   3.412   1.115   1.029
 3093SOL     OW 9958   2.766   0.131   1.390
 3093SOL    HW1 9959   2.788   0.087   1.308
 3093SOL    HW2 9960   2.850   0.144   1.433
 3094SOL     OW 9961   2.846   1.115   1.722
 3094SOL    HW1 9962   2.754   1.130   1.742
 3094SOL    HW2 9963   2.846   1.037   1.666
 3095SOL     OW 9964   2.572   1.060   0.372
 3095SOL    HW1 9965   2.557   1.046   0.466
 3095SOL    HW2 9966   2.648   1.006   0.352
 3096SOL     OW 9967   2.280   0.814   1.251
 3096SOL    HW1 9968   2.349   0.824   1.317
 3096SOL    HW2 9969   2.245   0.727   1.266
 3097SOL     OW 9970   3.131   0.377   1.272
 3097SOL    HW1 9971   3.163   0.455   1.317
 3097SOL    HW2 9972   3.042   0.399   1.245
 3098SOL     OW 9973   1.928   1.570   1.347
 3098SOL    HW1 9974   1.895   1.649   1.303
 3098SOL    HW2 9975   2.023   1.583   1.349
 3099SOL     OW 9976   2.216   1.113   0.496
 3099SOL    HW1 9977   2.214   1.186   0.435
 3099SOL    HW2 9978   2.209   1.035   0.441
 3100SOL     OW 9979   2.419   0.532   0.859
 3100SOL    HW1 9980   2.435   0.590   0.785
 3100SOL    HW2 9981   2.481   0.561   0.926
 3101SOL     OW 9982   3.110   1.346   0.393
 3101SOL    HW1 9983   3.165   1.419   0.421
 3101SOL    HW2 9984   3.022   1.369   0.425
 3102SOL     OW 9985   3.140   1.456   1.146
 3102SOL    HW1 9986   3.195   1.458   1.224
 3102SOL    HW2 9987   3.085   1.379   1.157
 3103SOL     OW 9988   3.447   0.628   0.474
 3103SOL    HW1 9989   3.399   0.673   0.543
 3103SOL    HW2 9990   3.485   0.699   0.421
 3104SOL     OW 9991   2.212   1.523   1.319
 3104SOL    HW1 9992   2.196   1.481   1.234
 3104SOL    HW2 9993   2.307   1.535   1.322
 3105SOL     OW 9994   2.275   0.743   1.602
 3105SOL    HW1 9995   2.335   0.790   1.543
 3105SOL    HW2 9996   2.320   0.660   1.619
 3106SOL     OW 9997   3.461   0.777   1.679
 3106SOL    HW1 9998   3.374   0.818   1.672
 3106SOL    HW2 9999   3.513   0.820   1.611
 3107SOL     OW10000   2.869   0.086   1.725
 3107SOL    HW110001   2.892   0.170   1.686
 3107SOL    HW210002   2.894   0.021   1.659
 3108SOL     OW10003   2.361   0.049   1.757
 3108SOL    HW110004   2.352   0.002   1.674
 3108SOL    HW210005   2.293   0.115   1.755
 3109SOL     OW10006   2.444   0.873   1.031
 3109SOL    HW110007   2.474   0.964   1.029
 3109SOL    HW210008   2.388   0.867   1.108
 3110SOL     OW10009   3.222   0.859   1.032
 3110SOL    HW110010   3.140   0.851   0.984
 3110SOL    HW210011   3.260   0.771   1.028
 3111SOL     OW10012   3.064   0.531   0.267
 3111SOL    HW110013   3.073   0.453   0.321
 3111SOL    HW210014   3.023   0.596   0.325
 3112SOL     OW10015   2.153   0.235   1.240
 3112SOL    HW110016   2.111   0.251   1.325
 3112SOL    HW210017   2.183   0.145   1.245
 3113SOL     OW10018   1.908   1.309   1.277
 3113SOL    HW110019   1.942   1.258   1.350
 3113SOL    HW210020   1.915   1.400   1.306
 3114SOL     OW10021   2.586   0.632   1.059
 3114SOL    HW110022   2.659   0.612   1.000
 3114SOL    HW210023   2.560   0.721   1.035
 3115SOL     OW10024   3.595   0.959   1.851
 3115SOL    HW110025   3.547   0.902   1.791
 3115SOL    HW210026   3.536   0.971   1.925
 3116SOL     OW10027   2.163   0.060   0.653
 3116SOL    HW110028   2.151   0.155   0.658
 3116SOL    HW210029   2.173   0.032   0.744
 3117SOL     OW10030   3.477   0.375   0.366
 3117SOL    HW110031   3.505   0.311   0.431
 3117SOL    HW210032   3.452   0.452   0.417
 3118SOL     OW10033   2.890   0.761   0.962
 3118SOL    HW110034   2.888   0.777   1.056
 3118SOL    HW210035   2.862   0.670   0.953
 3119SOL     OW10036   2.845   1.567   1.715
 3119SOL    HW110037   2.829   1.610   1.631
 3119SOL    HW210038   2.887   1.484   1.691
 3120SOL     OW10039   3.718   1.508   1.606
 3120SOL    HW110040   3.734   1.534   1.515
 3120SOL    HW210041   3.799   1.529   1.652
 3121SOL     OW10042   2.216   0.916   1.807
 3121SOL    HW110043   2.298   0.934   1.853
 3121SOL    HW210044   2.240   0.854   1.739
 3122SOL     OW10045   3.398   0.293   0.113
 3122SOL    HW110046   3.339   0.219   0.126
 3122SOL    HW210047   3.428   0.315   0.201
 3123SOL     OW10048   3.151   0.824   0.033
 3123SOL    HW110049   3.194   0.739   0.043
 3123SOL    HW210050   3.184   0.858  11.049
 3124SOL     OW10051   2.926   1.335   0.852
 3124SOL    HW110052   2.929   1.262   0.790
 3124SOL    HW210053   2.989   1.398   0.818
 3125SOL     OW10054   2.172   0.810   0.948
 3125SOL    HW110055   2.265   0.832   0.942
 3125SOL    HW210056   2.171   0.721   0.983
 3126SOL     OW10057   2.199   0.529   1.013
 3126SOL    HW110058   2.157   0.446   0.993
 3126SOL    HW210059   2.274   0.532   0.954
 3127SOL     OW10060   2.997   0.375   1.693
 3127SOL    HW110061   2.949   0.439   1.745
 3127SOL    HW210062   3.083   0.414   1.680
 3128SOL     OW10063   3.022   0.211   1.473
 3128SOL    HW110064   3.014   0.275   1.544
 3128SOL    HW210065   3.058   0.261   1.400
 3129SOL     OW10066   1.869   1.328   0.195
 3129SOL    HW110067   1.782   1.340   0.157
 3129SOL    HW210068   1.870   1.237   0.225
 3130SOL     OW10069   1.949   1.791   0.935
 3130SOL    HW110070   1.918   1.711   0.893
 3130SOL    HW210071   2.041   1.798   0.908
 3131SOL     OW10072   2.362   1.570   0.905
 3131SOL    HW110073   2.431   1.633   0.924
 3131SOL    HW210074   2.405   1.504   0.850
 3132SOL     OW10075   2.849   0.795   1.229
 3132SOL    HW110076   2.902   0.770   1.304
 3132SOL    HW210077   2.763   0.756   1.246
 3133SOL     OW10078   1.896   0.542   1.118
 3133SOL    HW110079   1.975   0.523   1.067
 3133SOL    HW210080   1.927   0.548   1.208
 3134SOL     OW10081   2.047   0.518   1.720
 3134SOL    HW110082   2.120   0.497   1.662
 3134SOL    HW210083   2.004   0.593   1.679
 3135SOL     OW10084   3.239   0.941   1.659
 3135SOL    HW110085   3.259   1.034   1.659
 3135SOL    HW210086   3.236   0.916   1.567
 3136SOL     OW10087   2.673   0.575   0.356
 3136SOL    HW110088   2.679   0.499   0.298
 3136SOL    HW210089   2.598   0.624   0.323
 3137SOL     OW10090   3.504   0.601   1.189
 3137SOL    HW110091   3.493   0.541   1.262
 3137SOL    HW210092   3.591   0.582   1.154
 3138SOL     OW10093   2.113   1.551   1.732
 3138SOL    HW110094   2.083   1.613   1.799
 3138SOL    HW210095   2.108   1.465   1.775
 3139SOL     OW10096   2.557   0.459   1.265
 3139SOL    HW110097   2.511   0.382   1.232
 3139SOL    HW210098   2.558   0.520   1.191
 3140SOL     OW10099   2.791   1.679   1.467
 3140SOL    HW110100   2.765   1.647   1.380
 3140SOL    HW210101   2.791   1.774   1.459
 3141SOL     OW10102   2.327   0.488   0.182
 3141SOL    HW110103   2.387   0.560   0.202
 3141SOL    HW210104   2.241   0.529   0.176
 3142SOL     OW10105   2.010   1.140   1.472
 3142SOL    HW110106   2.013   1.086   1.551
 3142SOL    HW210107   2.026   1.078   1.401
 3143SOL     OW10108   3.190   1.048   1.224
 3143SOL    HW110109   3.214   0.985   1.156
 3143SOL    HW210110   3.118   1.099   1.186
 3144SOL     OW10111   3.170   0.853   0.310
 3144SOL    HW110112   3.093   0.823   0.358
 3144SOL    HW210113   3.147   0.840   0.218
 3145SOL     OW10114   3.631   1.746   1.149
 3145SOL    HW110115   3.691   1.772   1.079
 3145SOL    HW210116   3.608   1.656   1.128
 3146SOL     OW10117   3.104   1.733   1.116
 3146SOL    HW110118   3.185   1.752   1.069
 3146SOL    HW210119   3.107   1.639   1.133
 3147SOL     OW10120   1.947   1.265   1.014
 3147SOL    HW110121   1.933   1.278   1.108
 3147SOL    HW210122   1.871   1.214   0.985
 3148SOL     OW10123   2.540   1.663   1.725
 3148SOL    HW110124   2.490   1.744   1.725
 3148SOL    HW210125   2.604   1.674   1.654
 3149SOL     OW10126   2.742   0.064   0.126
 3149SOL    HW110127   2.826   0.092   0.091
 3149SOL    HW210128   2.765   0.016   0.206
 3150SOL     OW10129   3.581   0.133   0.499
 3150SOL    HW110130   3.655   0.136   0.438
 3150SOL    HW210131   3.598   0.056   0.553
 3151SOL     OW10132   3.251   1.568   0.483
 3151SOL    HW110133   3.313   1.599   0.417
 3151SOL    HW210134   3.205   1.647   0.512
 3152SOL     OW10135   2.000   1.800   1.848
 3152SOL    HW110136   1.947   1.732   1.890
 3152SOL    HW210137   2.043   1.845   1.921
 3153SOL     OW10138   3.140   0.927   0.673
 3153SOL    HW110139   3.213   0.864   0.676
 3153SOL    HW210140   3.174   0.999   0.620
 3154SOL     OW10141   2.679   1.273   1.431
 3154SOL    HW110142   2.653   1.311   1.514
 3154SOL    HW210143   2.608   1.293   1.371
 3155SOL     OW10144   2.534   1.621   0.166
 3155SOL    HW110145   2.548   1.628   0.072
 3155SOL    HW210146   2.479   1.544   0.177
 3156SOL     OW10147   3.493   1.727   1.392
 3156SOL    HW110148   3.541   1.734   1.309
 3156SOL    HW210149   3.479   1.817   1.420
 3157SOL     OW10150   3.701   0.155   0.967
 3157SOL    HW110151   3.731   0.078   0.918
 3157SOL    HW210152   3.614   0.174   0.931
 3158SOL     OW10153   2.128   0.325   0.719
 3158SOL    HW110154   2.042   0.357   0.691
 3158SOL    HW210155   2.120   0.314   0.814
 3159SOL     OW10156   3.084   1.603   0.051
 3159SOL    HW110157   3.071   1.511   0.072
 3159SOL    HW210158   3.018   1.622  11.084
 3160SOL     OW10159   2.686   1.006   1.372
 3160SOL    HW110160   2.729   1.002   1.287
 3160SOL    HW210161   2.687   1.099   1.395
 3161SOL     OW10162   2.776   0.907   0.282
 3161SOL    HW110163   2.844   0.946   0.227
 3161SOL    HW210164   2.822   0.841   0.334
 3162SOL     OW10165   3.361   1.622   0.046
 3162SOL    HW110166   3.266   1.618   0.042
 3162SOL    HW210167   3.389   1.635  11.055
 3163SOL     OW10168   2.232   1.301   1.491
 3163SOL    HW110169   2.218   1.379   1.438
 3163SOL    HW210170   2.154   1.247   1.476
 3164SOL     OW10171   3.474   1.283   1.281
 3164SOL    HW110172   3.532   1.274   1.356
 3164SOL    HW210173   3.413   1.353   1.306
 3165SOL     OW10174   2.911   1.105   0.705
 3165SOL    HW110175   2.841   1.054   0.745
 3165SOL    HW210176   2.973   1.040   0.673
 3166SOL     OW10177   2.875   0.240   0.991
 3166SOL    HW110178   2.876   0.203   0.902
 3166SOL    HW210179   2.865   0.163   1.048
 3167SOL     OW10180   2.465   1.492   0.482
 3167SOL    HW110181   2.504   1.438   0.414
 3167SOL    HW210182   2.394   1.539   0.438
 3168SOL     OW10183   3.582   0.393   1.377
 3168SOL    HW110184   3.654   0.456   1.376
 3168SOL    HW210185   3.611   0.321   1.321
 3169SOL     OW10186   2.127   1.339   0.291
 3169SOL    HW110187   2.039   1.341   0.253
 3169SOL    HW210188   2.117   1.378   0.377
 3170SOL     OW10189   1.974   1.018   1.719
 3170SOL    HW110190   1.898   0.996   1.773
 3170SOL    HW210191   2.049   0.983   1.767
 3171SOL     OW10192   2.521   0.204   1.497
 3171SOL    HW110193   2.601   0.179   1.451
 3171SOL    HW210194   2.550   0.223   1.586
 3172SOL     OW10195   1.939   0.348   0.053
 3172SOL    HW110196   1.863   0.311   0.008
 3172SOL    HW210197   1.958   0.429   0.006
 3173SOL     OW10198   3.293   0.858   1.401
 3173SOL    HW110199   3.245   0.918   1.345
 3173SOL    HW210200   3.383   0.861   1.367
 3174SOL     OW10201   1.929   0.179   0.326
 3174SOL    HW110202   1.923   0.246   0.258
 3174SOL    HW210203   2.001   0.123   0.298
 3175SOL     OW10204   3.044   1.342   0.122
 3175SOL    HW110205   2.951   1.320   0.117
 3175SOL    HW210206   3.065   1.335   0.214
 3176SOL     OW10207   2.480   0.831   1.433
 3176SOL    HW110208   2.536   0.907   1.418
 3176SOL    HW210209   2.542   0.758   1.441
 3177SOL     OW10210   3.347   1.775   0.976
 3177SOL    HW110211   3.373   1.833   0.904
 3177SOL    HW210212   3.428   1.758   1.023
 3178SOL     OW10213   2.578   0.564   1.706
 3178SOL    HW110214   2.614   0.628   1.767
 3178SOL    HW210215   2.614   0.480   1.737
 3179SOL     OW10216   3.331   1.203   1.633
 3179SOL    HW110217   3.319   1.216   1.727
 3179SOL    HW210218   3.425   1.215   1.619
 3180SOL     OW10219   2.246   1.738   1.565
 3180SOL    HW110220   2.158   1.773   1.547
 3180SOL    HW210221   2.230   1.653   1.606
 3181SOL     OW10222   3.533   0.882   1.256
 3181SOL    HW110223   3.524   0.797   1.213
 3181SOL    HW210224   3.524   0.945   1.185
 3182SOL     OW10225   3.081   0.327   0.447
 3182SOL    HW110226   3.146   0.257   0.438
 3182SOL    HW210227   3.104   0.372   0.528
 3183SOL     OW10228   2.450   0.740   0.669
 3183SOL    HW110229   2.492   0.824   0.652
 3183SOL    HW210230   2.381   0.734   0.602
 3184SOL     OW10231   3.627   0.362   1.643
 3184SOL    HW110232   3.610   0.376   1.550
 3184SOL    HW210233   3.549   0.318   1.675
 3185SOL     OW10234   3.606   0.933   1.513
 3185SOL    HW110235   3.606   1.028   1.526
 3185SOL    HW210236   3.591   0.922   1.419
 3186SOL     OW10237   2.761   1.357   0.063
 3186SOL    HW110238   2.690   1.360   0.127
 3186SOL    HW210239   2.752   1.440   0.015
 3187SOL     OW10240   2.519   1.804   0.938
 3187SOL    HW110241   2.516   1.892   0.975
 3187SOL    HW210242   2.612   1.781   0.938
 3188SOL     OW10243   2.728   0.966   0.856
 3188SOL    HW110244   2.778   0.894   0.895
 3188SOL    HW210245   2.695   1.016   0.930
 3189SOL     OW10246   2.942   0.991   0.086
 3189SOL    HW110247   2.917   1.024  11.100
 3189SOL    HW210248   3.018   0.935   0.069
 3190SOL     OW10249   3.718   1.556   0.846
 3190SOL    HW110250   3.641   1.544   0.789
 3190SOL    HW210251   3.710   1.487   0.912
 3191SOL     OW10252   2.086   1.303   1.856
 3191SOL    HW110253   2.018   1.243   1.827
 3191SOL    HW210254   2.070   1.316   1.949
 3192SOL     OW10255   1.945   1.235   0.664
 3192SOL    HW110256   1.947   1.186   0.746
 3192SOL    HW210257   2.016   1.196   0.612
 3193SOL     OW10258   2.541   1.401   1.625
 3193SOL    HW110259   2.462   1.357   1.656
 3193SOL    HW210260   2.537   1.489   1.663
 3194SOL     OW10261   3.672   0.183   1.239
 3194SOL    HW110262   3.671   0.090   1.260
 3194SOL    HW210263   3.688   0.186   1.144
 3195SOL     OW10264   2.296   0.433   0.527
 3195SOL    HW110265   2.320   0.362   0.468
 3195SOL    HW210266   2.242   0.391   0.594
 3196SOL     OW10267   3.563   1.491   1.100
 3196SOL    HW110268   3.482   1.466   1.055
 3196SOL    HW210269   3.577   1.422   1.164
 3197SOL     OW10270   2.190   0.555   1.291
 3197SOL    HW110271   2.245   0.499   1.345
 3197SOL    HW210272   2.210   0.529   1.201
 3198SOL     OW10273   2.687   1.578   0.679
 3198SOL    HW110274   2.678   1.622   0.595
 3198SOL    HW210275   2.610   1.522   0.685
 3199SOL     OW10276   3.294   0.216   1.118
 3199SOL    HW110277   3.330   0.145   1.171
 3199SOL    HW210278   3.243   0.269   1.179
 3200SOL     OW10279   2.859   0.013   1.148
 3200SOL    HW110280   2.813   4.429   1.140
 3200SOL    HW210281   2.951   4.489   1.161
 3201SOL     OW10282   2.629   1.329   0.315
 3201SOL    HW110283   2.599   1.239   0.326
 3201SOL    HW210284   2.714   1.332   0.357
 3202SOL     OW10285   2.482   1.558   1.282
 3202SOL    HW110286   2.485   1.638   1.334
 3202SOL    HW210287   2.571   1.550   1.246
 3203SOL     OW10288   3.209   0.059   0.169
 3203SOL    HW110289   3.246   0.005   0.099
 3203SOL    HW210290   3.131   0.012   0.198
 3204SOL     OW10291   3.178   0.463   0.681
 3204SOL    HW110292   3.114   0.535   0.680
 3204SOL    HW210293   3.164   0.419   0.765
 3205SOL     OW10294   3.448   0.202   0.867
 3205SOL    HW110295   3.387   0.216   0.940
 3205SOL    HW210296   3.451   0.285   0.821
 3206SOL     OW10297   1.905   1.072   0.300
 3206SOL    HW110298   2.000   1.065   0.296
 3206SOL    HW210299   1.876   0.984   0.327
 3207SOL     OW10300   2.745   1.651   0.347
 3207SOL    HW110301   2.674   1.630   0.287
 3207SOL    HW210302   2.713   1.726   0.398
 3208SOL     OW10303   2.092   0.627   1.982
 3208SOL    HW110304   2.004   0.621   2.019
 3208SOL    HW210305   2.082   0.595   1.892
 3209SOL     OW10306   2.071   0.296   2.851
 3209SOL    HW110307   2.102   0.269   2.937
 3209SOL    HW210308   1.989   0.249   2.838
 3210SOL     OW10309   1.870   0.384   2.501
 3210SOL    HW110310   1.784   0.404   2.538
 3210SOL    HW210311   1.855   0.310   2.443
 3211SOL     OW10312   2.429   1.284   3.034
 3211SOL    HW110313   2.341   1.286   2.997
 3211SOL    HW210314   2.443   1.372   3.069
 3212SOL     OW10315   3.420   1.512   2.568
 3212SOL    HW110316   3.377   1.493   2.651
 3212SOL    HW210317   3.349   1.516   2.504
 3213SOL     OW10318   2.994   0.699   2.563
 3213SOL    HW110319   3.042   0.782   2.552
 3213SOL    HW210320   2.945   0.711   2.644
 3214SOL     OW10321   3.627   0.608   2.091
 3214SOL    HW110322   3.608   0.597   1.998
 3214SOL    HW210323   3.595   0.528   2.132
 3215SOL     OW10324   2.621   1.144   2.901
 3215SOL    HW110325   2.551   1.177   2.957
 3215SOL    HW210326   2.654   1.222   2.856
 3216SOL     OW10327   2.725   0.779   3.683
 3216SOL    HW110328   2.713   0.850   3.747
 3216SOL    HW210329   2.749   0.823   3.602
 3217SOL     OW10330   2.549   1.006   2.510
 3217SOL    HW110331   2.613   0.992   2.580
 3217SOL    HW210332   2.478   1.056   2.552
 3218SOL     OW10333   2.570   1.151   3.671
 3218SOL    HW110334   2.618   1.230   3.697
 3218SOL    HW210335   2.486   1.183   3.638
 3219SOL     OW10336   2.193   1.427   2.930
 3219SOL    HW110337   2.120   1.391   2.880
 3219SOL    HW210338   2.243   1.478   2.867
 3220SOL     OW10339   3.323   1.498   3.214
 3220SOL    HW110340   3.369   1.582   3.224
 3220SOL    HW210341   3.266   1.492   3.290
 3221SOL     OW10342   2.303   0.396   3.353
 3221SOL    HW110343   2.385   0.346   3.354
 3221SOL    HW210344   2.235   0.330   3.366
 3222SOL     OW10345   3.474   0.447   2.600
 3222SOL    HW110346   3.394   0.471   2.554
 3222SOL    HW210347   3.495   0.525   2.652
 3223SOL     OW10348   2.083   1.724   2.337
 3223SOL    HW110349   2.123   1.768   2.412
 3223SOL    HW210350   2.156   1.709   2.277
 3224SOL     OW10351   2.998   1.341   3.554
 3224SOL    HW110352   3.038   1.337   3.641
 3224SOL    HW210353   2.945   1.262   3.548
 3225SOL     OW10354   2.089   1.443   2.396
 3225SOL    HW110355   2.067   1.535   2.406
 3225SOL    HW210356   2.031   1.397   2.457
 3226SOL     OW10357   2.117   1.090   2.752
 3226SOL    HW110358   2.114   1.004   2.795
 3226SOL    HW210359   2.059   1.145   2.805
 3227SOL     OW10360   2.476   1.791   3.291
 3227SOL    HW110361   2.394   1.773   3.336
 3227SOL    HW210362   2.498   1.881   3.316
 3228SOL     OW10363   2.450   0.980   1.994
 3228SOL    HW110364   2.494   1.032   1.926
 3228SOL    HW210365   2.491   1.009   2.076
 3229SOL     OW10366   3.447   0.114   3.336
 3229SOL    HW110367   3.461   0.183   3.270
 3229SOL    HW210368   3.436   0.162   3.418
 3230SOL     OW10369   1.977   0.652   2.421
 3230SOL    HW110370   1.948   0.563   2.443
 3230SOL    HW210371   1.969   0.700   2.503
 3231SOL     OW10372   3.704   1.761   2.198
 3231SOL    HW110373   3.763   1.731   2.267
 3231SOL    HW210374   3.730   1.851   2.180
 3232SOL     OW10375   1.894   1.597   1.985
 3232SOL    HW110376   1.876   1.504   2.003
 3232SOL    HW210377   1.867   1.642   2.065
 3233SOL     OW10378   3.553   0.921   2.501
 3233SOL    HW110379   3.637   0.879   2.482
 3233SOL    HW210380   3.531   0.969   2.422
 3234SOL     OW10381   3.507   1.108   2.291
 3234SOL    HW110382   3.593   1.116   2.249
 3234SOL    HW210383   3.511   1.168   2.365
 3235SOL     OW10384   1.984   0.744   3.448
 3235SOL    HW110385   2.076   0.767   3.460
 3235SOL    HW210386   1.936   0.826   3.455
 3236SOL     OW10387   2.475   1.383   2.597
 3236SOL    HW110388   2.429   1.300   2.606
 3236SOL    HW210389   2.458   1.410   2.506
 3237SOL     OW10390   3.152   1.239   3.286
 3237SOL    HW110391   3.184   1.171   3.226
 3237SOL    HW210392   3.208   1.231   3.363
 3238SOL     OW10393   2.677   0.012   2.409
 3238SOL    HW110394   2.712   0.098   2.385
 3238SOL    HW210395   2.582   0.022   2.402
 3239SOL     OW10396   2.053   0.968   3.132
 3239SOL    HW110397   2.137   0.925   3.116
 3239SOL    HW210398   1.989   0.912   3.087
 3240SOL     OW10399   3.394   0.991   2.059
 3240SOL    HW110400   3.323   0.934   2.089
 3240SOL    HW210401   3.433   1.026   2.139
 3241SOL     OW10402   3.047   1.805   3.482
 3241SOL    HW110403   3.062   1.861   3.407
 3241SOL    HW210404   3.062   1.716   3.449
 3242SOL     OW10405   2.177   0.255   3.643
 3242SOL    HW110406   2.241   0.319   3.675
 3242SOL    HW210407   2.103   0.262   3.703
 3243SOL     OW10408   3.328   1.419   2.815
 3243SOL    HW110409   3.260   1.434   2.880
 3243SOL    HW210410   3.316   1.329   2.787
 3244SOL     OW10411   3.523   1.734   2.440
 3244SOL    HW110412   3.500   1.706   2.351
 3244SOL    HW210413   3.497   1.661   2.496
 3245SOL     OW10414   2.456   0.723   2.126
 3245SOL    HW110415   2.463   0.804   2.075
 3245SOL    HW210416   2.391   0.743   2.193
 3246SOL     OW10417   3.152   0.360   2.796
 3246SOL    HW110418   3.063   0.329   2.781
 3246SOL    HW210419   3.189   0.297   2.858
 3247SOL     OW10420   3.443   1.669   2.171
 3247SOL    HW110421   3.533   1.703   2.165
 3247SOL    HW210422   3.418   1.652   2.080
 3248SOL     OW10423   2.658   0.618   3.317
 3248SOL    HW110424   2.629   0.594   3.405
 3248SOL    HW210425   2.616   0.554   3.259
 3249SOL     OW10426   3.251   0.478   3.538
 3249SOL    HW110427   3.253   0.522   3.623
 3249SOL    HW210428   3.318   0.410   3.545
 3250SOL     OW10429   2.819   0.889   3.443
 3250SOL    HW110430   2.873   0.817   3.409
 3250SOL    HW210431   2.772   0.921   3.367
 3251SOL     OW10432   2.857   0.417   3.100
 3251SOL    HW110433   2.771   0.429   3.139
 3251SOL    HW210434   2.840   0.365   3.021
 3252SOL     OW10435   2.911   0.698   2.289
 3252SOL    HW110436   2.927   0.691   2.384
 3252SOL    HW210437   2.829   0.651   2.275
 3253SOL     OW10438   1.951   0.820   2.638
 3253SOL    HW110439   2.032   0.813   2.688
 3253SOL    HW210440   1.908   0.898   2.673
 3254SOL     OW10441   1.989   1.810   3.436
 3254SOL    HW110442   1.975   1.807   3.530
 3254SOL    HW210443   1.922   1.870   3.403
 3255SOL     OW10444   2.716   0.368   2.042
 3255SOL    HW110445   2.791   0.403   1.993
 3255SOL    HW210446   2.733   0.274   2.047
 3256SOL     OW10447   3.568   0.575   3.690
 3256SOL    HW110448   3.533   0.651   3.644
 3256SOL    HW210449   3.601   0.519   3.620
 3257SOL     OW10450   3.238   1.143   2.404
 3257SOL    HW110451   3.316   1.129   2.351
 3257SOL    HW210452   3.185   1.205   2.353
 3258SOL     OW10453   2.401   0.202   2.763
 3258SOL    HW110454   2.421   0.220   2.855
 3258SOL    HW210455   2.393   0.289   2.723
 3259SOL     OW10456   2.870   1.446   2.335
 3259SOL    HW110457   2.830   1.517   2.286
 3259SOL    HW210458   2.854   1.467   2.427
 3260SOL     OW10459   2.219   1.807   2.700
 3260SOL    HW110460   2.260   1.723   2.719
 3260SOL    HW210461   2.286   1.872   2.720
 3261SOL     OW10462   3.660   1.061   2.729
 3261SOL    HW110463   3.604   1.042   2.654
 3261SOL    HW210464   3.599   1.065   2.803
 3262SOL     OW10465   3.090   1.539   3.375
 3262SOL    HW110466   3.076   1.467   3.435
 3262SOL    HW210467   3.028   1.523   3.303
 3263SOL     OW10468   2.183   0.956   2.110
 3263SOL    HW110469   2.265   0.975   2.065
 3263SOL    HW210470   2.152   0.874   2.071
 3264SOL     OW10471   3.339   0.740   2.587
 3264SOL    HW110472   3.326   0.694   2.670
 3264SOL    HW210473   3.416   0.796   2.603
 3265SOL     OW10474   2.327   1.264   3.600
 3265SOL    HW110475   2.299   1.269   3.508
 3265SOL    HW210476   2.245   1.262   3.650
 3266SOL     OW10477   2.983   1.777   2.094
 3266SOL    HW110478   2.911   1.734   2.140
 3266SOL    HW210479   3.005   1.717   2.022
 3267SOL     OW10480   2.051   0.268   3.371
 3267SOL    HW110481   1.985   0.335   3.354
 3267SOL    HW210482   2.061   0.268   3.467
 3268SOL     OW10483   3.491   1.379   1.948
 3268SOL    HW110484   3.450   1.464   1.934
 3268SOL    HW210485   3.422   1.316   1.930
 3269SOL     OW10486   2.328   1.723   2.200
 3269SOL    HW110487   2.365   1.796   2.250
 3269SOL    HW210488   2.389   1.711   2.128
 3270SOL     OW10489   3.280   0.134   2.280
 3270SOL    HW110490   3.263   0.085   2.199
 3270SOL    HW210491   3.374   0.130   2.291
 3271SOL     OW10492   2.110   1.786   3.094
 3271SOL    HW110493   2.167   1.724   3.139
 3271SOL    HW210494   2.106   1.753   3.004
 3272SOL     OW10495   2.801   1.698   2.762
 3272SOL    HW110496   2.878   1.644   2.782
 3272SOL    HW210497   2.755   1.649   2.694
 3273SOL     OW10498   2.253   0.695   2.339
 3273SOL    HW110499   2.277   0.603   2.350
 3273SOL    HW210500   2.159   0.698   2.357
 3274SOL     OW10501   3.388   0.233   3.584
 3274SOL    HW110502   3.387   0.256   3.677
 3274SOL    HW210503   3.312   0.176   3.573
 3275SOL     OW10504   2.487   0.122   1.983
 3275SOL    HW110505   2.575   0.087   1.992
 3275SOL    HW210506   2.455   0.088   1.900
 3276SOL     OW10507   2.631   0.270   3.615
 3276SOL    HW110508   2.696   0.202   3.630
 3276SOL    HW210509   2.585   0.278   3.698
 3277SOL     OW10510   2.739   1.522   3.055
 3277SOL    HW110511   2.723   1.485   2.968
 3277SOL    HW210512   2.808   1.466   3.092
 3278SOL     OW10513   3.204   0.589   3.291
 3278SOL    HW110514   3.232   0.559   3.378
 3278SOL    HW210515   3.238   0.678   3.284
 3279SOL     OW10516   2.676   1.397   2.799
 3279SOL    HW110517   2.759   1.386   2.754
 3279SOL    HW210518   2.610   1.396   2.729
 3280SOL     OW10519   2.785   0.516   2.763
 3280SOL    HW110520   2.768   0.514   2.669
 3280SOL    HW210521   2.824   0.431   2.782
 3281SOL     OW10522   2.415   0.073   2.382
 3281SOL    HW110523   2.326   0.049   2.406
 3281SOL    HW210524   2.404   0.141   2.315
 3282SOL     OW10525   3.290   1.198   1.903
 3282SOL    HW110526   3.321   1.122   1.953
 3282SOL    HW210527   3.205   1.218   1.940
 3283SOL     OW10528   2.158   0.071   2.055
 3283SOL    HW110529   2.236   0.122   2.037
 3283SOL    HW210530   2.188   4.499   2.112
 3284SOL     OW10531   2.812   0.240   2.333
 3284SOL    HW110532   2.761   0.291   2.270
 3284SOL    HW210533   2.901   0.276   2.325
 3285SOL     OW10534   2.942   0.680   3.323
 3285SOL    HW110535   2.870   0.616   3.324
 3285SOL    HW210536   3.020   0.626   3.311
 3286SOL     OW10537   3.087   1.569   2.655
 3286SOL    HW110538   3.104   1.637   2.590
 3286SOL    HW210539   3.154   1.582   2.722
 3287SOL     OW10540   2.329   1.149   2.598
 3287SOL    HW110541   2.259   1.130   2.660
 3287SOL    HW210542   2.291   1.131   2.512
 3288SOL     OW10543   3.133   1.795   2.468
 3288SOL    HW110544   3.177   1.856   2.410
 3288SOL    HW210545   3.067   1.848   2.514
 3289SOL     OW10546   2.893   0.549   1.877
 3289SOL    HW110547   2.845   0.630   1.862
 3289SOL    HW210548   2.951   0.569   1.951
 3290SOL     OW10549   1.942   0.551   3.256
 3290SOL    HW110550   2.033   0.554   3.226
 3290SOL    HW210551   1.935   0.623   3.319
 3291SOL     OW10552   2.426   0.242   3.027
 3291SOL    HW110553   2.454   0.158   3.065
 3291SOL    HW210554   2.334   0.251   3.053
 3292SOL     OW10555   2.728   0.502   2.488
 3292SOL    HW110556   2.679   0.544   2.417
 3292SOL    HW210557   2.707   0.409   2.480
 3293SOL     OW10558   2.830   0.030   2.638
 3293SOL    HW110559   2.781   0.026   2.557
 3293SOL    HW210560   2.841   4.439   2.665
 3294SOL     OW10561   3.298   1.163   2.719
 3294SOL    HW110562   3.230   1.096   2.719
 3294SOL    HW210563   3.320   1.176   2.627
 3295SOL     OW10564   3.329   0.603   2.840
 3295SOL    HW110565   3.277   0.523   2.843
 3295SOL    HW210566   3.388   0.597   2.915
 3296SOL     OW10567   3.709   0.818   2.244
 3296SOL    HW110568   3.764   0.766   2.302
 3296SOL    HW210569   3.680   0.756   2.177
 3297SOL     OW10570   2.354   1.415   2.021
 3297SOL    HW110571   2.280   1.386   2.074
 3297SOL    HW210572   2.334   1.384   1.933
 3298SOL     OW10573   3.531   1.265   2.509
 3298SOL    HW110574   3.625   1.270   2.523
 3298SOL    HW210575   3.499   1.353   2.531
 3299SOL     OW10576   3.256   0.570   1.932
 3299SOL    HW110577   3.195   0.554   2.004
 3299SOL    HW210578   3.342   0.549   1.968
 3300SOL     OW10579   2.386   0.266   2.186
 3300SOL    HW110580   2.430   0.213   2.119
 3300SOL    HW210581   2.369   0.350   2.144
 3301SOL     OW10582   3.615   1.237   3.437
 3301SOL    HW110583   3.703   1.198   3.435
 3301SOL    HW210584   3.630   1.326   3.468
 3302SOL     OW10585   2.922   1.354   3.197
 3302SOL    HW110586   2.847   1.323   3.248
 3302SOL    HW210587   2.998   1.312   3.238
 3303SOL     OW10588   3.468   1.626   3.514
 3303SOL    HW110589   3.465   1.659   3.424
 3303SOL    HW210590   3.551   1.578   3.519
 3304SOL     OW10591   2.989   1.203   2.969
 3304SOL    HW110592   2.929   1.239   3.034
 3304SOL    HW210593   2.954   1.232   2.885
 3305SOL     OW10594   3.492   1.099   2.941
 3305SOL    HW110595   3.488   1.162   3.013
 3305SOL    HW210596   3.412   1.115   2.891
 3306SOL     OW10597   2.766   0.131   3.252
 3306SOL    HW110598   2.788   0.087   3.169
 3306SOL    HW210599   2.850   0.144   3.295
 3307SOL     OW10600   2.846   1.115   3.584
 3307SOL    HW110601   2.754   1.130   3.604
 3307SOL    HW210602   2.846   1.037   3.528
 3308SOL     OW10603   2.570   1.061   2.234
 3308SOL    HW110604   2.557   1.046   2.327
 3308SOL    HW210605   2.646   1.007   2.212
 3309SOL     OW10606   2.280   0.814   3.113
 3309SOL    HW110607   2.349   0.824   3.179
 3309SOL    HW210608   2.245   0.727   3.128
 3310SOL     OW10609   3.131   0.377   3.134
 3310SOL    HW110610   3.163   0.455   3.179
 3310SOL    HW210611   3.042   0.399   3.106
 3311SOL     OW10612   1.929   1.570   3.209
 3311SOL    HW110613   1.896   1.648   3.163
 3311SOL    HW210614   2.024   1.582   3.211
 3312SOL     OW10615   2.214   1.107   2.354
 3312SOL    HW110616   2.219   1.180   2.292
 3312SOL    HW210617   2.213   1.029   2.298
 3313SOL     OW10618   2.419   0.532   2.721
 3313SOL    HW110619   2.434   0.590   2.647
 3313SOL    HW210620   2.482   0.561   2.788
 3314SOL     OW10621   3.110   1.348   2.251
 3314SOL    HW110622   3.165   1.420   2.282
 3314SOL    HW210623   3.023   1.369   2.285
 3315SOL     OW10624   3.140   1.456   3.008
 3315SOL    HW110625   3.194   1.458   3.086
 3315SOL    HW210626   3.084   1.379   3.019
 3316SOL     OW10627   3.445   0.625   2.338
 3316SOL    HW110628   3.399   0.677   2.404
 3316SOL    HW210629   3.489   0.689   2.283
 3317SOL     OW10630   2.212   1.522   3.181
 3317SOL    HW110631   2.196   1.482   3.095
 3317SOL    HW210632   2.307   1.536   3.184
 3318SOL     OW10633   2.275   0.743   3.464
 3318SOL    HW110634   2.334   0.790   3.405
 3318SOL    HW210635   2.320   0.660   3.481
 3319SOL     OW10636   3.461   0.777   3.541
 3319SOL    HW110637   3.374   0.818   3.534
 3319SOL    HW210638   3.513   0.820   3.473
 3320SOL     OW10639   2.869   0.085   3.587
 3320SOL    HW110640   2.892   0.170   3.548
 3320SOL    HW210641   2.894   0.021   3.521
 3321SOL     OW10642   2.361   0.048   3.619
 3321SOL    HW110643   2.352   0.003   3.535
 3321SOL    HW210644   2.293   0.115   3.617
 3322SOL     OW10645   2.444   0.873   2.893
 3322SOL    HW110646   2.474   0.964   2.891
 3322SOL    HW210647   2.388   0.868   2.970
 3323SOL     OW10648   3.222   0.859   2.894
 3323SOL    HW110649   3.140   0.851   2.846
 3323SOL    HW210650   3.260   0.771   2.890
 3324SOL     OW10651   3.068   0.535   2.127
 3324SOL    HW110652   3.074   0.454   2.179
 3324SOL    HW210653   3.025   0.597   2.186
 3325SOL     OW10654   2.152   0.235   3.102
 3325SOL    HW110655   2.111   0.251   3.187
 3325SOL    HW210656   2.183   0.144   3.107
 3326SOL     OW10657   1.907   1.309   3.139
 3326SOL    HW110658   1.942   1.258   3.212
 3326SOL    HW210659   1.915   1.400   3.168
 3327SOL     OW10660   2.586   0.632   2.921
 3327SOL    HW110661   2.659   0.612   2.863
 3327SOL    HW210662   2.560   0.721   2.897
 3328SOL     OW10663   3.595   0.959   3.713
 3328SOL    HW110664   3.547   0.902   3.653
 3328SOL    HW210665   3.536   0.971   3.787
 3329SOL     OW10666   2.160   0.058   2.516
 3329SOL    HW110667   2.151   0.153   2.519
 3329SOL    HW210668   2.172   0.032   2.607
 3330SOL     OW10669   3.474   0.375   2.227
 3330SOL    HW110670   3.505   0.313   2.293
 3330SOL    HW210671   3.452   0.454   2.278
 3331SOL     OW10672   2.890   0.761   2.824
 3331SOL    HW110673   2.888   0.777   2.919
 3331SOL    HW210674   2.861   0.670   2.815
 3332SOL     OW10675   2.845   1.567   3.577
 3332SOL    HW110676   2.829   1.610   3.493
 3332SOL    HW210677   2.887   1.484   3.554
 3333SOL     OW10678   3.718   1.508   3.468
 3333SOL    HW110679   3.734   1.534   3.377
 3333SOL    HW210680   3.799   1.529   3.514
 3334SOL     OW10681   2.216   0.916   3.669
 3334SOL    HW110682   2.298   0.934   3.715
 3334SOL    HW210683   2.240   0.854   3.601
 3335SOL     OW10684   3.394   0.267   1.990
 3335SOL    HW110685   3.322   0.210   2.018
 3335SOL    HW210686   3.422   0.311   2.070
 3336SOL     OW10687   3.156   0.827   1.894
 3336SOL    HW110688   3.197   0.741   1.897
 3336SOL    HW210689   3.186   0.866   1.812
 3337SOL     OW10690   2.927   1.335   2.714
 3337SOL    HW110691   2.930   1.262   2.653
 3337SOL    HW210692   2.990   1.398   2.680
 3338SOL     OW10693   2.172   0.810   2.810
 3338SOL    HW110694   2.265   0.832   2.804
 3338SOL    HW210695   2.171   0.721   2.844
 3339SOL     OW10696   2.199   0.529   2.875
 3339SOL    HW110697   2.157   0.446   2.855
 3339SOL    HW210698   2.274   0.532   2.816
 3340SOL     OW10699   2.997   0.375   3.555
 3340SOL    HW110700   2.949   0.439   3.607
 3340SOL    HW210701   3.083   0.414   3.542
 3341SOL     OW10702   3.022   0.211   3.335
 3341SOL    HW110703   3.014   0.275   3.406
 3341SOL    HW210704   3.057   0.261   3.262
 3342SOL     OW10705   1.867   1.322   2.057
 3342SOL    HW110706   1.780   1.336   2.019
 3342SOL    HW210707   1.865   1.233   2.090
 3343SOL     OW10708   1.959   1.785   2.792
 3343SOL    HW110709   1.929   1.703   2.753
 3343SOL    HW210710   2.046   1.798   2.755
 3344SOL     OW10711   2.358   1.573   2.766
 3344SOL    HW110712   2.427   1.635   2.791
 3344SOL    HW210713   2.403   1.507   2.713
 3345SOL     OW10714   2.849   0.795   3.091
 3345SOL    HW110715   2.902   0.770   3.166
 3345SOL    HW210716   2.763   0.756   3.108
 3346SOL     OW10717   1.896   0.542   2.980
 3346SOL    HW110718   1.975   0.523   2.929
 3346SOL    HW210719   1.927   0.548   3.070
 3347SOL     OW10720   2.047   0.518   3.582
 3347SOL    HW110721   2.120   0.497   3.524
 3347SOL    HW210722   2.004   0.593   3.541
 3348SOL     OW10723   3.239   0.940   3.521
 3348SOL    HW110724   3.259   1.034   3.521
 3348SOL    HW210725   3.236   0.916   3.429
 3349SOL     OW10726   2.673   0.574   2.215
 3349SOL    HW110727   2.677   0.502   2.153
 3349SOL    HW210728   2.599   0.627   2.187
 3350SOL     OW10729   3.504   0.602   3.051
 3350SOL    HW110730   3.493   0.541   3.124
 3350SOL    HW210731   3.591   0.582   3.016
 3351SOL     OW10732   2.113   1.552   3.596
 3351SOL    HW110733   2.082   1.613   3.663
 3351SOL    HW210734   2.108   1.466   3.637
 3352SOL     OW10735   2.556   0.460   3.127
 3352SOL    HW110736   2.511   0.382   3.094
 3352SOL    HW210737   2.558   0.520   3.053
 3353SOL     OW10738   2.791   1.679   3.329
 3353SOL    HW110739   2.765   1.647   3.242
 3353SOL    HW210740   2.790   1.774   3.320
 3354SOL     OW10741   2.328   0.493   2.047
 3354SOL    HW110742   2.387   0.566   2.068
 3354SOL    HW210743   2.242   0.533   2.038
 3355SOL     OW10744   2.010   1.140   3.334
 3355SOL    HW110745   2.013   1.087   3.413
 3355SOL    HW210746   2.026   1.078   3.263
 3356SOL     OW10747   3.190   1.049   3.086
 3356SOL    HW110748   3.214   0.985   3.018
 3356SOL    HW210749   3.118   1.099   3.048
 3357SOL     OW10750   3.172   0.856   2.169
 3357SOL    HW110751   3.096   0.827   2.219
 3357SOL    HW210752   3.147   0.843   2.077
 3358SOL     OW10753   3.632   1.746   3.011
 3358SOL    HW110754   3.691   1.772   2.941
 3358SOL    HW210755   3.607   1.656   2.990
 3359SOL     OW10756   3.104   1.733   2.978
 3359SOL    HW110757   3.185   1.752   2.932
 3359SOL    HW210758   3.107   1.639   2.996
 3360SOL     OW10759   1.946   1.265   2.876
 3360SOL    HW110760   1.932   1.278   2.969
 3360SOL    HW210761   1.871   1.213   2.847
 3361SOL     OW10762   2.541   1.664   3.587
 3361SOL    HW110763   2.490   1.744   3.583
 3361SOL    HW210764   2.604   1.672   3.516
 3362SOL     OW10765   3.580   0.130   2.358
 3362SOL    HW110766   3.653   0.136   2.297
 3362SOL    HW210767   3.602   0.057   2.416
 3363SOL     OW10768   3.252   1.568   2.345
 3363SOL    HW110769   3.312   1.599   2.278
 3363SOL    HW210770   3.204   1.646   2.373
 3364SOL     OW10771   1.992   1.803   3.708
 3364SOL    HW110772   1.943   1.734   3.752
 3364SOL    HW210773   2.045   1.843   3.777
 3365SOL     OW10774   3.140   0.926   2.534
 3365SOL    HW110775   3.213   0.864   2.538
 3365SOL    HW210776   3.174   0.999   2.482
 3366SOL     OW10777   2.680   1.272   3.293
 3366SOL    HW110778   2.653   1.311   3.376
 3366SOL    HW210779   2.609   1.294   3.232
 3367SOL     OW10780   2.535   1.618   2.015
 3367SOL    HW110781   2.544   1.627   1.920
 3367SOL    HW210782   2.480   1.540   2.027
 3368SOL     OW10783   3.493   1.727   3.254
 3368SOL    HW110784   3.541   1.734   3.171
 3368SOL    HW210785   3.480   1.817   3.282
 3369SOL     OW10786   3.701   0.155   2.829
 3369SOL    HW110787   3.732   0.079   2.779
 3369SOL    HW210788   3.614   0.174   2.793
 3370SOL     OW10789   2.128   0.324   2.581
 3370SOL    HW110790   2.043   0.358   2.553
 3370SOL    HW210791   2.120   0.314   2.676
 3371SOL     OW10792   3.068   1.607   1.893
 3371SOL    HW110793   3.060   1.516   1.921
 3371SOL    HW210794   3.003   1.618   1.824
 3372SOL     OW10795   2.686   1.006   3.234
 3372SOL    HW110796   2.729   1.002   3.149
 3372SOL    HW210797   2.687   1.099   3.257
 3373SOL     OW10798   2.777   0.910   2.151
 3373SOL    HW110799   2.840   0.942   2.086
 3373SOL    HW210800   2.824   0.839   2.196
 3374SOL     OW10801   3.356   1.624   1.904
 3374SOL    HW110802   3.261   1.620   1.892
 3374SOL    HW210803   3.391   1.631   1.815
 3375SOL     OW10804   2.231   1.301   3.354
 3375SOL    HW110805   2.219   1.379   3.300
 3375SOL    HW210806   2.154   1.247   3.337
 3376SOL     OW10807   3.474   1.283   3.143
 3376SOL    HW110808   3.532   1.274   3.219
 3376SOL    HW210809   3.413   1.353   3.168
 3377SOL     OW10810   2.911   1.106   2.567
 3377SOL    HW110811   2.841   1.055   2.607
 3377SOL    HW210812   2.973   1.040   2.534
 3378SOL     OW10813   2.869   0.242   2.861
 3378SOL    HW110814   2.875   0.214   2.769
 3378SOL    HW210815   2.862   0.160   2.910
 3379SOL     OW10816   2.463   1.490   2.343
 3379SOL    HW110817   2.504   1.438   2.274
 3379SOL    HW210818   2.400   1.546   2.298
 3380SOL     OW10819   3.582   0.393   3.239
 3380SOL    HW110820   3.654   0.456   3.238
 3380SOL    HW210821   3.611   0.322   3.183
 3381SOL     OW10822   2.120   1.347   2.149
 3381SOL    HW110823   2.027   1.344   2.127
 3381SOL    HW210824   2.123   1.384   2.237
 3382SOL     OW10825   1.974   1.019   3.581
 3382SOL    HW110826   1.898   0.996   3.635
 3382SOL    HW210827   2.049   0.983   3.629
 3383SOL     OW10828   2.521   0.203   3.359
 3383SOL    HW110829   2.601   0.179   3.313
 3383SOL    HW210830   2.550   0.223   3.448
 3384SOL     OW10831   1.943   0.342   1.908
 3384SOL    HW110832   1.871   0.290   1.872
 3384SOL    HW210833   1.958   0.410   1.843
 3385SOL     OW10834   3.293   0.858   3.263
 3385SOL    HW110835   3.245   0.918   3.206
 3385SOL    HW210836   3.383   0.861   3.229
 3386SOL     OW10837   1.928   0.181   2.184
 3386SOL    HW110838   1.925   0.247   2.115
 3386SOL    HW210839   2.003   0.126   2.161
 3387SOL     OW10840   3.041   1.341   1.979
 3387SOL    HW110841   2.951   1.311   1.982
 3387SOL    HW210842   3.070   1.341   2.070
 3388SOL     OW10843   2.480   0.831   3.295
 3388SOL    HW110844   2.536   0.907   3.280
 3388SOL    HW210845   2.542   0.758   3.303
 3389SOL     OW10846   3.347   1.775   2.838
 3389SOL    HW110847   3.372   1.832   2.766
 3389SOL    HW210848   3.428   1.758   2.885
 3390SOL     OW10849   2.578   0.564   3.568
 3390SOL    HW110850   2.614   0.629   3.629
 3390SOL    HW210851   2.614   0.480   3.599
 3391SOL     OW10852   3.331   1.202   3.495
 3391SOL    HW110853   3.319   1.216   3.589
 3391SOL    HW210854   3.425   1.215   3.481
 3392SOL     OW10855   2.247   1.739   3.428
 3392SOL    HW110856   2.159   1.772   3.410
 3392SOL    HW210857   2.232   1.653   3.468
 3393SOL     OW10858   3.533   0.882   3.118
 3393SOL    HW110859   3.524   0.797   3.075
 3393SOL    HW210860   3.524   0.945   3.047
 3394SOL     OW10861   3.080   0.328   2.310
 3394SOL    HW110862   3.145   0.259   2.300
 3394SOL    HW210863   3.107   0.375   2.389
 3395SOL     OW10864   2.450   0.740   2.531
 3395SOL    HW110865   2.492   0.824   2.514
 3395SOL    HW210866   2.382   0.733   2.465
 3396SOL     OW10867   3.627   0.362   3.505
 3396SOL    HW110868   3.610   0.376   3.412
 3396SOL    HW210869   3.549   0.318   3.537
 3397SOL     OW10870   3.607   0.933   3.374
 3397SOL    HW110871   3.606   1.028   3.388
 3397SOL    HW210872   3.591   0.922   3.281
 3398SOL     OW10873   2.724   1.368   1.893
 3398SOL    HW110874   2.685   1.394   1.976
 3398SOL    HW210875   2.743   1.451   1.849
 3399SOL     OW10876   2.526   1.782   2.806
 3399SOL    HW110877   2.505   1.873   2.785
 3399SOL    HW210878   2.622   1.778   2.804
 3400SOL     OW10879   2.728   0.966   2.718
 3400SOL    HW110880   2.779   0.894   2.757
 3400SOL    HW210881   2.695   1.016   2.792
 3401SOL     OW10882   2.942   0.988   1.951
 3401SOL    HW110883   2.920   1.038   1.872
 3401SOL    HW210884   3.017   0.935   1.925
 3402SOL     OW10885   3.718   1.556   2.707
 3402SOL    HW110886   3.641   1.544   2.652
 3402SOL    HW210887   3.710   1.488   2.774
 3403SOL     OW10888   2.086   1.304   3.718
 3403SOL    HW110889   2.018   1.243   3.689
 3403SOL    HW210890   2.070   1.315   3.811
 3404SOL     OW10891   1.947   1.235   2.525
 3404SOL    HW110892   1.948   1.187   2.608
 3404SOL    HW210893   2.015   1.193   2.472
 3405SOL     OW10894   2.541   1.401   3.487
 3405SOL    HW110895   2.462   1.357   3.518
 3405SOL    HW210896   2.537   1.488   3.526
 3406SOL     OW10897   3.672   0.183   3.101
 3406SOL    HW110898   3.671   0.090   3.122
 3406SOL    HW210899   3.688   0.187   3.007
 3407SOL     OW10900   2.297   0.433   2.390
 3407SOL    HW110901   2.320   0.363   2.329
 3407SOL    HW210902   2.242   0.390   2.456
 3408SOL     OW10903   3.563   1.491   2.961
 3408SOL    HW110904   3.482   1.466   2.917
 3408SOL    HW210905   3.576   1.422   3.026
 3409SOL     OW10906   2.190   0.555   3.153
 3409SOL    HW110907   2.246   0.499   3.207
 3409SOL    HW210908   2.210   0.529   3.063
 3410SOL     OW10909   2.688   1.578   2.541
 3410SOL    HW110910   2.679   1.623   2.457
 3410SOL    HW210911   2.610   1.522   2.546
 3411SOL     OW10912   3.294   0.215   2.980
 3411SOL    HW110913   3.331   0.145   3.034
 3411SOL    HW210914   3.243   0.268   3.041
 3412SOL     OW10915   2.859   0.011   3.011
 3412SOL    HW110916   2.814   4.427   3.002
 3412SOL    HW210917   2.951   4.488   3.023
 3413SOL     OW10918   2.634   1.332   2.173
 3413SOL    HW110919   2.600   1.243   2.180
 3413SOL    HW210920   2.716   1.330   2.223
 3414SOL     OW10921   2.482   1.558   3.146
 3414SOL    HW110922   2.485   1.639   3.196
 3414SOL    HW210923   2.570   1.550   3.107
 3415SOL     OW10924   3.204   0.053   2.014
 3415SOL    HW110925   3.243   4.478   1.970
 3415SOL    HW210926   3.129   0.017   2.061
 3416SOL     OW10927   3.177   0.463   2.541
 3416SOL    HW110928   3.115   0.536   2.542
 3416SOL    HW210929   3.164   0.420   2.626
 3417SOL     OW10930   3.447   0.201   2.729
 3417SOL    HW110931   3.387   0.216   2.802
 3417SOL    HW210932   3.450   0.286   2.683
 3418SOL     OW10933   1.906   1.073   2.167
 3418SOL    HW110934   2.000   1.063   2.150
 3418SOL    HW210935   1.877   0.985   2.190
 3419SOL     OW10936   2.743   1.651   2.206
 3419SOL    HW110937   2.672   1.632   2.145
 3419SOL    HW210938   2.713   1.726   2.256
 3420SOL     OW10939   2.092   0.627   3.844
 3420SOL    HW110940   2.004   0.620   3.881
 3420SOL    HW210941   2.082   0.595   3.754
 3421SOL     OW10942   2.071   0.297   4.713
 3421SOL    HW110943   2.102   0.269   4.799
 3421SOL    HW210944   1.989   0.249   4.700
 3422SOL     OW10945   1.870   0.384   4.363
 3422SOL    HW110946   1.784   0.404   4.400
 3422SOL    HW210947   1.855   0.310   4.305
 3423SOL     OW10948   2.431   1.292   4.899
 3423SOL    HW110949   2.348   1.281   4.852
 3423SOL    HW210950   2.430   1.383   4.929
 3424SOL     OW10951   3.419   1.512   4.430
 3424SOL    HW110952   3.376   1.494   4.514
 3424SOL    HW210953   3.347   1.516   4.367
 3425SOL     OW10954   2.994   0.699   4.425
 3425SOL    HW110955   3.042   0.781   4.413
 3425SOL    HW210956   2.945   0.711   4.506
 3426SOL     OW10957   3.628   0.608   3.953
 3426SOL    HW110958   3.608   0.597   3.860
 3426SOL    HW210959   3.595   0.528   3.994
 3427SOL     OW10960   2.619   1.144   4.760
 3427SOL    HW110961   2.553   1.190   4.812
 3427SOL    HW210962   2.652   1.211   4.700
 3428SOL     OW10963   2.726   0.779   5.546
 3428SOL    HW110964   2.712   0.851   5.607
 3428SOL    HW210965   2.749   0.822   5.463
 3429SOL     OW10966   2.548   1.004   4.372
 3429SOL    HW110967   2.613   0.992   4.441
 3429SOL    HW210968   2.479   1.057   4.413
 3430SOL     OW10969   2.562   1.148   5.533
 3430SOL    HW110970   2.613   1.226   5.551
 3430SOL    HW210971   2.480   1.181   5.496
 3431SOL     OW10972   2.206   1.411   4.777
 3431SOL    HW110973   2.123   1.386   4.736
 3431SOL    HW210974   2.245   1.474   4.715
 3432SOL     OW10975   3.322   1.495   5.081
 3432SOL    HW110976   3.359   1.584   5.082
 3432SOL    HW210977   3.265   1.492   5.158
 3433SOL     OW10978   2.303   0.396   5.216
 3433SOL    HW110979   2.385   0.346   5.217
 3433SOL    HW210980   2.235   0.330   5.228
 3434SOL     OW10981   3.474   0.448   4.462
 3434SOL    HW110982   3.394   0.471   4.416
 3434SOL    HW210983   3.495   0.525   4.514
 3435SOL     OW10984   2.081   1.716   4.196
 3435SOL    HW110985   2.109   1.791   4.249
 3435SOL    HW210986   2.153   1.703   4.134
 3436SOL     OW10987   2.993   1.351   5.422
 3436SOL    HW110988   3.037   1.339   5.506
 3436SOL    HW210989   2.941   1.272   5.411
 3437SOL     OW10990   2.089   1.441   4.257
 3437SOL    HW110991   2.070   1.534   4.266
 3437SOL    HW210992   2.031   1.398   4.320
 3438SOL     OW10993   2.113   1.091   4.614
 3438SOL    HW110994   2.113   1.005   4.657
 3438SOL    HW210995   2.058   1.145   4.670
 3439SOL     OW10996   2.450   0.980   3.857
 3439SOL    HW110997   2.494   1.031   3.788
 3439SOL    HW210998   2.491   1.009   3.938
 3440SOL     OW10999   3.447   0.114   5.198
 3440SOL    HW111000   3.461   0.182   5.132
 3440SOL    HW211001   3.436   0.162   5.280
 3441SOL     OW11002   1.977   0.652   4.283
 3441SOL    HW111003   1.948   0.563   4.305
 3441SOL    HW211004   1.969   0.700   4.365
 3442SOL     OW11005   3.704   1.761   4.059
 3442SOL    HW111006   3.762   1.731   4.129
 3442SOL    HW211007   3.731   1.851   4.042
 3443SOL     OW11008   1.894   1.596   3.848
 3443SOL    HW111009   1.876   1.504   3.865
 3443SOL    HW211010   1.867   1.642   3.928
 3444SOL     OW11011   3.553   0.920   4.363
 3444SOL    HW111012   3.637   0.880   4.343
 3444SOL    HW211013   3.530   0.969   4.284
 3445SOL     OW11014   3.507   1.108   4.153
 3445SOL    HW111015   3.593   1.116   4.111
 3445SOL    HW211016   3.511   1.168   4.227
 3446SOL     OW11017   1.984   0.743   5.310
 3446SOL    HW111018   2.075   0.768   5.323
 3446SOL    HW211019   1.936   0.826   5.315
 3447SOL     OW11020   2.477   1.381   4.455
 3447SOL    HW111021   2.428   1.299   4.464
 3447SOL    HW211022   2.458   1.410   4.365
 3448SOL     OW11023   3.154   1.233   5.154
 3448SOL    HW111024   3.188   1.170   5.090
 3448SOL    HW211025   3.215   1.227   5.228
 3449SOL     OW11026   2.677   0.012   4.271
 3449SOL    HW111027   2.712   0.098   4.247
 3449SOL    HW211028   2.582   0.022   4.264
 3450SOL     OW11029   2.054   0.971   4.995
 3450SOL    HW111030   2.137   0.926   4.979
 3450SOL    HW211031   1.989   0.916   4.953
 3451SOL     OW11032   3.394   0.991   3.921
 3451SOL    HW111033   3.324   0.934   3.952
 3451SOL    HW211034   3.433   1.026   4.001
 3452SOL     OW11035   2.177   0.255   5.505
 3452SOL    HW111036   2.241   0.319   5.537
 3452SOL    HW211037   2.103   0.262   5.566
 3453SOL     OW11038   3.336   1.416   4.678
 3453SOL    HW111039   3.266   1.433   4.741
 3453SOL    HW211040   3.321   1.327   4.648
 3454SOL     OW11041   3.523   1.734   4.301
 3454SOL    HW111042   3.499   1.705   4.213
 3454SOL    HW211043   3.495   1.662   4.358
 3455SOL     OW11044   2.456   0.723   3.988
 3455SOL    HW111045   2.464   0.804   3.937
 3455SOL    HW211046   2.391   0.744   4.056
 3456SOL     OW11047   3.152   0.360   4.658
 3456SOL    HW111048   3.063   0.328   4.642
 3456SOL    HW211049   3.189   0.297   4.720
 3457SOL     OW11050   3.443   1.671   4.032
 3457SOL    HW111051   3.533   1.703   4.026
 3457SOL    HW211052   3.418   1.653   3.942
 3458SOL     OW11053   2.656   0.619   5.179
 3458SOL    HW111054   2.628   0.594   5.267
 3458SOL    HW211055   2.615   0.554   5.121
 3459SOL     OW11056   3.251   0.479   5.400
 3459SOL    HW111057   3.254   0.522   5.485
 3459SOL    HW211058   3.318   0.410   5.406
 3460SOL     OW11059   2.819   0.889   5.305
 3460SOL    HW111060   2.873   0.817   5.272
 3460SOL    HW211061   2.772   0.921   5.228
 3461SOL     OW11062   2.857   0.417   4.962
 3461SOL    HW111063   2.770   0.429   5.001
 3461SOL    HW211064   2.841   0.366   4.883
 3462SOL     OW11065   2.911   0.698   4.151
 3462SOL    HW111066   2.927   0.691   4.246
 3462SOL    HW211067   2.829   0.651   4.137
 3463SOL     OW11068   1.951   0.819   4.500
 3463SOL    HW111069   2.033   0.813   4.550
 3463SOL    HW211070   1.909   0.898   4.534
 3464SOL     OW11071   2.013   1.884   5.326
 3464SOL    HW111072   1.994   1.800   5.368
 3464SOL    HW211073   1.935   1.904   5.275
 3465SOL     OW11074   2.716   0.368   3.904
 3465SOL    HW111075   2.791   0.403   3.855
 3465SOL    HW211076   2.733   0.274   3.909
 3466SOL     OW11077   3.568   0.575   5.552
 3466SOL    HW111078   3.533   0.651   5.506
 3466SOL    HW211079   3.602   0.519   5.482
 3467SOL     OW11080   3.237   1.142   4.266
 3467SOL    HW111081   3.316   1.130   4.212
 3467SOL    HW211082   3.184   1.205   4.217
 3468SOL     OW11083   2.401   0.202   4.625
 3468SOL    HW111084   2.421   0.220   4.717
 3468SOL    HW211085   2.392   0.289   4.585
 3469SOL     OW11086   2.870   1.445   4.197
 3469SOL    HW111087   2.832   1.519   4.149
 3469SOL    HW211088   2.856   1.467   4.289
 3470SOL     OW11089   3.659   1.061   4.591
 3470SOL    HW111090   3.603   1.043   4.516
 3470SOL    HW211091   3.599   1.065   4.665
 3471SOL     OW11092   3.087   1.540   5.244
 3471SOL    HW111093   3.060   1.466   5.298
 3471SOL    HW211094   3.039   1.529   5.162
 3472SOL     OW11095   2.183   0.956   3.972
 3472SOL    HW111096   2.265   0.974   3.927
 3472SOL    HW211097   2.152   0.874   3.933
 3473SOL     OW11098   3.340   0.739   4.449
 3473SOL    HW111099   3.326   0.694   4.532
 3473SOL    HW211100   3.415   0.797   4.465
 3474SOL     OW11101   2.323   1.266   5.438
 3474SOL    HW111102   2.275   1.241   5.359
 3474SOL    HW211103   2.256   1.273   5.506
 3475SOL     OW11104   2.983   1.779   3.954
 3475SOL    HW111105   2.913   1.736   4.003
 3475SOL    HW211106   3.005   1.717   3.884
 3476SOL     OW11107   2.051   0.268   5.233
 3476SOL    HW111108   1.984   0.335   5.216
 3476SOL    HW211109   2.061   0.268   5.328
 3477SOL     OW11110   3.492   1.379   3.810
 3477SOL    HW111111   3.450   1.464   3.796
 3477SOL    HW211112   3.422   1.316   3.793
 3478SOL     OW11113   2.329   1.738   4.044
 3478SOL    HW111114   2.373   1.793   4.109
 3478SOL    HW211115   2.400   1.705   3.988
 3479SOL     OW11116   3.279   0.134   4.142
 3479SOL    HW111117   3.263   0.085   4.061
 3479SOL    HW211118   3.374   0.130   4.153
 3480SOL     OW11119   2.253   0.695   4.200
 3480SOL    HW111120   2.277   0.603   4.212
 3480SOL    HW211121   2.159   0.698   4.219
 3481SOL     OW11122   3.388   0.233   5.446
 3481SOL    HW111123   3.387   0.256   5.539
 3481SOL    HW211124   3.312   0.175   5.435
 3482SOL     OW11125   2.487   0.122   3.845
 3482SOL    HW111126   2.575   0.087   3.854
 3482SOL    HW211127   2.455   0.088   3.762
 3483SOL     OW11128   2.632   0.271   5.477
 3483SOL    HW111129   2.696   0.202   5.491
 3483SOL    HW211130   2.584   0.277   5.560
 3484SOL     OW11131   2.835   1.512   4.881
 3484SOL    HW111132   2.778   1.462   4.823
 3484SOL    HW211133   2.861   1.449   4.949
 3485SOL     OW11134   3.203   0.589   5.153
 3485SOL    HW111135   3.232   0.560   5.240
 3485SOL    HW211136   3.238   0.678   5.146
 3486SOL     OW11137   2.784   0.516   4.625
 3486SOL    HW111138   2.768   0.514   4.531
 3486SOL    HW211139   2.824   0.431   4.644
 3487SOL     OW11140   2.415   0.073   4.244
 3487SOL    HW111141   2.326   0.049   4.268
 3487SOL    HW211142   2.404   0.140   4.177
 3488SOL     OW11143   3.290   1.198   3.766
 3488SOL    HW111144   3.321   1.122   3.816
 3488SOL    HW211145   3.205   1.218   3.803
 3489SOL     OW11146   2.158   0.070   3.917
 3489SOL    HW111147   2.236   0.122   3.899
 3489SOL    HW211148   2.189   4.499   3.974
 3490SOL     OW11149   2.812   0.240   4.195
 3490SOL    HW111150   2.761   0.291   4.133
 3490SOL    HW211151   2.901   0.276   4.187
 3491SOL     OW11152   2.941   0.679   5.186
 3491SOL    HW111153   2.870   0.615   5.186
 3491SOL    HW211154   3.021   0.627   5.173
 3492SOL     OW11155   3.099   1.558   4.505
 3492SOL    HW111156   3.108   1.635   4.450
 3492SOL    HW211157   3.145   1.580   4.586
 3493SOL     OW11158   2.328   1.146   4.460
 3493SOL    HW111159   2.257   1.129   4.522
 3493SOL    HW211160   2.289   1.129   4.374
 3494SOL     OW11161   3.134   1.794   4.329
 3494SOL    HW111162   3.175   1.861   4.275
 3494SOL    HW211163   3.052   1.834   4.359
 3495SOL     OW11164   2.893   0.549   3.739
 3495SOL    HW111165   2.845   0.630   3.724
 3495SOL    HW211166   2.951   0.569   3.813
 3496SOL     OW11167   1.942   0.551   5.118
 3496SOL    HW111168   2.033   0.554   5.088
 3496SOL    HW211169   1.936   0.623   5.181
 3497SOL     OW11170   2.426   0.242   4.889
 3497SOL    HW111171   2.454   0.158   4.927
 3497SOL    HW211172   2.334   0.250   4.915
 3498SOL     OW11173   2.728   0.502   4.350
 3498SOL    HW111174   2.679   0.544   4.280
 3498SOL    HW211175   2.707   0.409   4.342
 3499SOL     OW11176   2.830   0.030   4.501
 3499SOL    HW111177   2.781   0.026   4.419
 3499SOL    HW211178   2.841   4.438   4.526
 3500SOL     OW11179   3.301   1.160   4.582
 3500SOL    HW111180   3.227   1.100   4.582
 3500SOL    HW211181   3.319   1.176   4.489
 3501SOL     OW11182   3.329   0.603   4.702
 3501SOL    HW111183   3.277   0.522   4.705
 3501SOL    HW211184   3.388   0.597   4.777
 3502SOL     OW11185   3.710   0.818   4.105
 3502SOL    HW111186   3.765   0.766   4.164
 3502SOL    HW211187   3.680   0.756   4.039
 3503SOL     OW11188   2.353   1.416   3.884
 3503SOL    HW111189   2.278   1.385   3.935
 3503SOL    HW211190   2.336   1.383   3.795
 3504SOL     OW11191   3.531   1.266   4.369
 3504SOL    HW111192   3.625   1.272   4.385
 3504SOL    HW211193   3.497   1.352   4.393
 3505SOL     OW11194   3.256   0.570   3.794
 3505SOL    HW111195   3.195   0.554   3.866
 3505SOL    HW211196   3.342   0.549   3.831
 3506SOL     OW11197   2.386   0.266   4.048
 3506SOL    HW111198   2.430   0.213   3.982
 3506SOL    HW211199   2.369   0.350   4.006
 3507SOL     OW11200   3.616   1.237   5.301
 3507SOL    HW111201   3.703   1.198   5.296
 3507SOL    HW211202   3.631   1.327   5.329
 3508SOL     OW11203   2.927   1.338   5.064
 3508SOL    HW111204   2.853   1.308   5.117
 3508SOL    HW211205   3.004   1.300   5.106
 3509SOL     OW11206   3.468   1.624   5.377
 3509SOL    HW111207   3.463   1.659   5.288
 3509SOL    HW211208   3.552   1.578   5.380
 3510SOL     OW11209   2.984   1.190   4.831
 3510SOL    HW111210   2.933   1.239   4.896
 3510SOL    HW211211   2.963   1.232   4.748
 3511SOL     OW11212   3.492   1.099   4.803
 3511SOL    HW111213   3.487   1.162   4.874
 3511SOL    HW211214   3.413   1.116   4.750
 3512SOL     OW11215   2.766   0.131   5.114
 3512SOL    HW111216   2.788   0.087   5.032
 3512SOL    HW211217   2.851   0.144   5.157
 3513SOL     OW11218   2.848   1.114   5.447
 3513SOL    HW111219   2.755   1.130   5.465
 3513SOL    HW211220   2.849   1.037   5.389
 3514SOL     OW11221   2.570   1.061   4.096
 3514SOL    HW111222   2.557   1.046   4.189
 3514SOL    HW211223   2.646   1.007   4.074
 3515SOL     OW11224   2.279   0.816   4.977
 3515SOL    HW111225   2.349   0.823   5.041
 3515SOL    HW211226   2.245   0.727   4.989
 3516SOL     OW11227   3.131   0.376   4.996
 3516SOL    HW111228   3.163   0.455   5.041
 3516SOL    HW211229   3.042   0.399   4.968
 3517SOL     OW11230   2.212   1.107   4.216
 3517SOL    HW111231   2.220   1.180   4.155
 3517SOL    HW211232   2.212   1.029   4.160
 3518SOL     OW11233   2.419   0.532   4.583
 3518SOL    HW111234   2.434   0.590   4.509
 3518SOL    HW211235   2.482   0.561   4.649
 3519SOL     OW11236   3.110   1.348   4.113
 3519SOL    HW111237   3.165   1.420   4.145
 3519SOL    HW211238   3.023   1.368   4.148
 3520SOL     OW11239   3.148   1.447   4.865
 3520SOL    HW111240   3.196   1.456   4.948
 3520SOL    HW211241   3.078   1.384   4.885
 3521SOL     OW11242   3.445   0.625   4.199
 3521SOL    HW111243   3.400   0.676   4.266
 3521SOL    HW211244   3.489   0.690   4.145
 3522SOL     OW11245   2.276   0.743   5.326
 3522SOL    HW111246   2.336   0.789   5.267
 3522SOL    HW211247   2.318   0.659   5.343
 3523SOL     OW11248   3.461   0.778   5.404
 3523SOL    HW111249   3.374   0.818   5.396
 3523SOL    HW211250   3.513   0.820   5.335
 3524SOL     OW11251   2.869   0.086   5.449
 3524SOL    HW111252   2.892   0.170   5.409
 3524SOL    HW211253   2.894   0.021   5.383
 3525SOL     OW11254   2.361   0.049   5.481
 3525SOL    HW111255   2.352   0.002   5.398
 3525SOL    HW211256   2.293   0.115   5.479
 3526SOL     OW11257   2.444   0.872   4.754
 3526SOL    HW111258   2.476   0.962   4.751
 3526SOL    HW211259   2.388   0.870   4.832
 3527SOL     OW11260   3.223   0.857   4.758
 3527SOL    HW111261   3.141   0.854   4.708
 3527SOL    HW211262   3.260   0.769   4.751
 3528SOL     OW11263   3.068   0.535   3.989
 3528SOL    HW111264   3.074   0.454   4.041
 3528SOL    HW211265   3.025   0.597   4.048
 3529SOL     OW11266   2.152   0.235   4.964
 3529SOL    HW111267   2.111   0.250   5.049
 3529SOL    HW211268   2.183   0.145   4.969
 3530SOL     OW11269   1.908   1.304   5.007
 3530SOL    HW111270   1.945   1.242   5.069
 3530SOL    HW211271   1.933   1.390   5.042
 3531SOL     OW11272   2.587   0.632   4.784
 3531SOL    HW111273   2.660   0.612   4.725
 3531SOL    HW211274   2.560   0.721   4.759
 3532SOL     OW11275   3.596   0.959   5.575
 3532SOL    HW111276   3.548   0.902   5.514
 3532SOL    HW211277   3.536   0.970   5.649
 3533SOL     OW11278   2.160   0.058   4.378
 3533SOL    HW111279   2.151   0.153   4.381
 3533SOL    HW211280   2.172   0.032   4.469
 3534SOL     OW11281   3.474   0.375   4.089
 3534SOL    HW111282   3.505   0.313   4.155
 3534SOL    HW211283   3.452   0.454   4.140
 3535SOL     OW11284   2.890   0.761   4.686
 3535SOL    HW111285   2.889   0.778   4.780
 3535SOL    HW211286   2.861   0.670   4.678
 3536SOL     OW11287   3.718   1.507   5.331
 3536SOL    HW111288   3.733   1.534   5.240
 3536SOL    HW211289   3.799   1.529   5.375
 3537SOL     OW11290   2.218   0.919   5.529
 3537SOL    HW111291   2.298   0.931   5.579
 3537SOL    HW211292   2.241   0.854   5.463
 3538SOL     OW11293   3.394   0.267   3.852
 3538SOL    HW111294   3.322   0.210   3.880
 3538SOL    HW211295   3.422   0.311   3.932
 3539SOL     OW11296   3.155   0.827   3.756
 3539SOL    HW111297   3.197   0.741   3.758
 3539SOL    HW211298   3.186   0.866   3.674
 3540SOL     OW11299   2.936   1.321   4.593
 3540SOL    HW111300   2.928   1.258   4.521
 3540SOL    HW211301   2.980   1.396   4.554
 3541SOL     OW11302   2.172   0.811   4.673
 3541SOL    HW111303   2.265   0.832   4.665
 3541SOL    HW211304   2.171   0.721   4.706
 3542SOL     OW11305   2.199   0.530   4.737
 3542SOL    HW111306   2.157   0.446   4.717
 3542SOL    HW211307   2.275   0.533   4.678
 3543SOL     OW11308   2.997   0.375   5.417
 3543SOL    HW111309   2.949   0.439   5.469
 3543SOL    HW211310   3.083   0.414   5.404
 3544SOL     OW11311   3.022   0.211   5.197
 3544SOL    HW111312   3.014   0.275   5.268
 3544SOL    HW211313   3.057   0.261   5.124
 3545SOL     OW11314   1.866   1.323   3.919
 3545SOL    HW111315   1.779   1.336   3.882
 3545SOL    HW211316   1.865   1.233   3.952
 3546SOL     OW11317   2.848   0.794   4.953
 3546SOL    HW111318   2.902   0.770   5.028
 3546SOL    HW211319   2.763   0.753   4.970
 3547SOL     OW11320   1.896   0.542   4.842
 3547SOL    HW111321   1.974   0.523   4.790
 3547SOL    HW211322   1.927   0.548   4.932
 3548SOL     OW11323   2.047   0.518   5.444
 3548SOL    HW111324   2.120   0.496   5.386
 3548SOL    HW211325   2.005   0.593   5.403
 3549SOL     OW11326   3.238   0.941   5.383
 3549SOL    HW111327   3.260   1.034   5.382
 3549SOL    HW211328   3.235   0.916   5.291
 3550SOL     OW11329   2.673   0.573   4.078
 3550SOL    HW111330   2.677   0.501   4.015
 3550SOL    HW211331   2.599   0.627   4.049
 3551SOL     OW11332   3.503   0.601   4.913
 3551SOL    HW111333   3.493   0.541   4.986
 3551SOL    HW211334   3.590   0.581   4.878
 3552SOL     OW11335   2.556   0.460   4.989
 3552SOL    HW111336   2.511   0.382   4.956
 3552SOL    HW211337   2.558   0.520   4.915
 3553SOL     OW11338   2.328   0.493   3.909
 3553SOL    HW111339   2.387   0.566   3.930
 3553SOL    HW211340   2.242   0.533   3.900
 3554SOL     OW11341   2.014   1.143   5.200
 3554SOL    HW111342   2.020   1.089   5.279
 3554SOL    HW211343   2.036   1.083   5.129
 3555SOL     OW11344   3.190   1.048   4.949
 3555SOL    HW111345   3.215   0.986   4.881
 3555SOL    HW211346   3.117   1.097   4.911
 3556SOL     OW11347   3.173   0.855   4.030
 3556SOL    HW111348   3.097   0.828   4.081
 3556SOL    HW211349   3.147   0.843   3.939
 3557SOL     OW11350   3.631   1.746   4.873
 3557SOL    HW111351   3.691   1.771   4.802
 3557SOL    HW211352   3.606   1.656   4.853
 3558SOL     OW11353   3.144   1.730   4.871
 3558SOL    HW111354   3.204   1.738   4.797
 3558SOL    HW211355   3.104   1.644   4.862
 3559SOL     OW11356   1.939   1.272   4.738
 3559SOL    HW111357   1.927   1.277   4.833
 3559SOL    HW211358   1.871   1.212   4.708
 3560SOL     OW11359   3.580   0.130   4.220
 3560SOL    HW111360   3.653   0.136   4.159
 3560SOL    HW211361   3.602   0.057   4.278
 3561SOL     OW11362   3.252   1.567   4.205
 3561SOL    HW111363   3.312   1.602   4.139
 3561SOL    HW211364   3.205   1.644   4.237
 3562SOL     OW11365   3.140   0.925   4.395
 3562SOL    HW111366   3.213   0.864   4.399
 3562SOL    HW211367   3.173   0.999   4.344
 3563SOL     OW11368   2.679   1.269   5.154
 3563SOL    HW111369   2.652   1.308   5.237
 3563SOL    HW211370   2.607   1.287   5.094
 3564SOL     OW11371   2.530   1.620   3.880
 3564SOL    HW111372   2.544   1.629   3.785
 3564SOL    HW211373   2.479   1.539   3.889
 3565SOL     OW11374   3.499   1.727   5.119
 3565SOL    HW111375   3.541   1.735   5.034
 3565SOL    HW211376   3.481   1.818   5.145
 3566SOL     OW11377   3.701   0.155   4.691
 3566SOL    HW111378   3.732   0.079   4.641
 3566SOL    HW211379   3.614   0.174   4.655
 3567SOL     OW11380   2.128   0.324   4.443
 3567SOL    HW111381   2.043   0.358   4.415
 3567SOL    HW211382   2.120   0.314   4.538
 3568SOL     OW11383   3.069   1.607   3.755
 3568SOL    HW111384   3.060   1.516   3.783
 3568SOL    HW211385   3.003   1.617   3.686
 3569SOL     OW11386   2.686   1.004   5.094
 3569SOL    HW111387   2.732   0.997   5.010
 3569SOL    HW211388   2.690   1.097   5.116
 3570SOL     OW11389   2.776   0.909   4.012
 3570SOL    HW111390   2.839   0.942   3.948
 3570SOL    HW211391   2.823   0.840   4.059
 3571SOL     OW11392   3.356   1.625   3.766
 3571SOL    HW111393   3.261   1.619   3.755
 3571SOL    HW211394   3.391   1.631   3.677
 3572SOL     OW11395   3.474   1.284   5.005
 3572SOL    HW111396   3.532   1.276   5.081
 3572SOL    HW211397   3.412   1.353   5.029
 3573SOL     OW11398   2.908   1.103   4.423
 3573SOL    HW111399   2.839   1.053   4.467
 3573SOL    HW211400   2.972   1.038   4.395
 3574SOL     OW11401   2.869   0.242   4.723
 3574SOL    HW111402   2.876   0.215   4.632
 3574SOL    HW211403   2.862   0.160   4.772
 3575SOL     OW11404   2.462   1.491   4.200
 3575SOL    HW111405   2.505   1.436   4.134
 3575SOL    HW211406   2.394   1.538   4.152
 3576SOL     OW11407   3.582   0.393   5.102
 3576SOL    HW111408   3.654   0.456   5.100
 3576SOL    HW211409   3.611   0.321   5.045
 3577SOL     OW11410   2.120   1.347   4.011
 3577SOL    HW111411   2.027   1.344   3.989
 3577SOL    HW211412   2.123   1.382   4.100
 3578SOL     OW11413   1.975   1.023   5.447
 3578SOL    HW111414   1.898   0.997   5.498
 3578SOL    HW211415   2.049   0.983   5.493
 3579SOL     OW11416   2.521   0.204   5.221
 3579SOL    HW111417   2.601   0.179   5.174
 3579SOL    HW211418   2.550   0.223   5.310
 3580SOL     OW11419   1.943   0.342   3.770
 3580SOL    HW111420   1.871   0.290   3.734
 3580SOL    HW211421   1.958   0.410   3.705
 3581SOL     OW11422   3.294   0.858   5.125
 3581SOL    HW111423   3.244   0.918   5.069
 3581SOL    HW211424   3.383   0.861   5.091
 3582SOL     OW11425   1.928   0.181   4.046
 3582SOL    HW111426   1.925   0.247   3.977
 3582SOL    HW211427   2.003   0.126   4.023
 3583SOL     OW11428   3.042   1.341   3.841
 3583SOL    HW111429   2.951   1.310   3.845
 3583SOL    HW211430   3.071   1.342   3.933
 3584SOL     OW11431   2.481   0.831   5.157
 3584SOL    HW111432   2.538   0.907   5.140
 3584SOL    HW211433   2.541   0.757   5.165
 3585SOL     OW11434   3.350   1.776   4.690
 3585SOL    HW111435   3.381   1.833   4.620
 3585SOL    HW211436   3.427   1.758   4.744
 3586SOL     OW11437   2.578   0.564   5.431
 3586SOL    HW111438   2.615   0.628   5.492
 3586SOL    HW211439   2.613   0.480   5.460
 3587SOL     OW11440   3.334   1.200   5.359
 3587SOL    HW111441   3.323   1.215   5.453
 3587SOL    HW211442   3.427   1.215   5.343
 3588SOL     OW11443   3.533   0.882   4.980
 3588SOL    HW111444   3.524   0.797   4.936
 3588SOL    HW211445   3.523   0.946   4.910
 3589SOL     OW11446   3.080   0.328   4.172
 3589SOL    HW111447   3.145   0.259   4.162
 3589SOL    HW211448   3.107   0.375   4.251
 3590SOL     OW11449   2.450   0.739   4.393
 3590SOL    HW111450   2.492   0.824   4.378
 3590SOL    HW211451   2.382   0.733   4.326
 3591SOL     OW11452   3.627   0.363   5.367
 3591SOL    HW111453   3.611   0.376   5.274
 3591SOL    HW211454   3.549   0.318   5.399
 3592SOL     OW11455   3.607   0.933   5.237
 3592SOL    HW111456   3.606   1.028   5.249
 3592SOL    HW211457   3.591   0.922   5.143
 3593SOL     OW11458   2.722   1.368   3.753
 3593SOL    HW111459   2.687   1.392   3.840
 3593SOL    HW211460   2.743   1.451   3.712
 3594SOL     OW11461   2.728   0.964   4.580
 3594SOL    HW111462   2.781   0.893   4.618
 3594SOL    HW211463   2.697   1.014   4.655
 3595SOL     OW11464   2.942   0.988   3.812
 3595SOL    HW111465   2.920   1.038   3.734
 3595SOL    HW211466   3.017   0.935   3.787
 3596SOL     OW11467   3.717   1.556   4.569
 3596SOL    HW111468   3.640   1.545   4.514
 3596SOL    HW211469   3.708   1.489   4.637
 3597SOL     OW11470   2.088   1.293   5.577
 3597SOL    HW111471   2.023   1.228   5.552
 3597SOL    HW211472   2.062   1.320   5.665
 3598SOL     OW11473   1.947   1.235   4.388
 3598SOL    HW111474   1.949   1.185   4.469
 3598SOL    HW211475   2.014   1.196   4.333
 3599SOL     OW11476   2.550   1.395   5.352
 3599SOL    HW111477   2.472   1.350   5.385
 3599SOL    HW211478   2.545   1.483   5.390
 3600SOL     OW11479   3.672   0.183   4.963
 3600SOL    HW111480   3.671   0.089   4.983
 3600SOL    HW211481   3.688   0.187   4.869
 3601SOL     OW11482   2.297   0.433   4.252
 3601SOL    HW111483   2.320   0.363   4.191
 3601SOL    HW211484   2.242   0.390   4.318
 3602SOL     OW11485   3.564   1.491   4.823
 3602SOL    HW111486   3.483   1.467   4.777
 3602SOL    HW211487   3.575   1.422   4.889
 3603SOL     OW11488   2.190   0.555   5.015
 3603SOL    HW111489   2.246   0.499   5.069
 3603SOL    HW211490   2.210   0.529   4.925
 3604SOL     OW11491   2.694   1.574   4.390
 3604SOL    HW111492   2.663   1.602   4.304
 3604SOL    HW211493   2.626   1.514   4.421
 3605SOL     OW11494   3.294   0.215   4.842
 3605SOL    HW111495   3.331   0.145   4.896
 3605SOL    HW211496   3.243   0.268   4.903
 3606SOL     OW11497   2.859   0.011   4.873
 3606SOL    HW111498   2.814   4.427   4.864
 3606SOL    HW211499   2.951   4.488   4.885
 3607SOL     OW11500   2.635   1.332   4.034
 3607SOL    HW111501   2.602   1.242   4.042
 3607SOL    HW211502   2.715   1.334   4.086
 3608SOL     OW11503   3.204   0.053   3.876
 3608SOL    HW111504   3.243   4.478   3.832
 3608SOL    HW211505   3.129   0.017   3.923
 3609SOL     OW11506   3.176   0.462   4.403
 3609SOL    HW111507   3.115   0.536   4.404
 3609SOL    HW211508   3.164   0.420   4.488
 3610SOL     OW11509   3.447   0.202   4.591
 3610SOL    HW111510   3.387   0.216   4.664
 3610SOL    HW211511   3.451   0.286   4.545
 3611SOL     OW11512   1.906   1.073   4.029
 3611SOL    HW111513   2.000   1.063   4.012
 3611SOL    HW211514   1.877   0.985   4.052
 3612SOL     OW11515   2.745   1.650   4.065
 3612SOL    HW111516   2.672   1.633   4.006
 3612SOL    HW211517   2.716   1.724   4.119
 3613SOL     OW11518   2.092   0.629   5.705
 3613SOL    HW111519   2.005   0.620   5.744
 3613SOL    HW211520   2.082   0.595   5.616
 3614SOL     OW11521   2.071   0.296   6.575
 3614SOL    HW111522   2.102   0.269   6.661
 3614SOL    HW211523   1.989   0.249   6.562
 3615SOL     OW11524   1.870   0.384   6.225
 3615SOL    HW111525   1.784   0.404   6.262
 3615SOL    HW211526   1.855   0.310   6.167
 3616SOL     OW11527   2.428   1.282   6.759
 3616SOL    HW111528   2.338   1.284   6.724
 3616SOL    HW211529   2.444   1.372   6.788
 3617SOL     OW11530   3.419   1.512   6.291
 3617SOL    HW111531   3.378   1.495   6.376
 3617SOL    HW211532   3.346   1.516   6.229
 3618SOL     OW11533   2.994   0.700   6.286
 3618SOL    HW111534   3.042   0.782   6.276
 3618SOL    HW211535   2.945   0.710   6.368
 3619SOL     OW11536   3.626   0.608   5.815
 3619SOL    HW111537   3.607   0.598   5.722
 3619SOL    HW211538   3.595   0.527   5.856
 3620SOL     OW11539   2.620   1.146   6.623
 3620SOL    HW111540   2.550   1.177   6.681
 3620SOL    HW211541   2.653   1.225   6.580
 3621SOL     OW11542   2.725   0.779   7.408
 3621SOL    HW111543   2.713   0.850   7.470
 3621SOL    HW211544   2.749   0.822   7.326
 3622SOL     OW11545   2.550   1.007   6.236
 3622SOL    HW111546   2.613   0.992   6.306
 3622SOL    HW211547   2.478   1.055   6.278
 3623SOL     OW11548   2.570   1.151   7.396
 3623SOL    HW111549   2.618   1.231   7.420
 3623SOL    HW211550   2.486   1.183   7.362
 3624SOL     OW11551   2.182   1.430   6.662
 3624SOL    HW111552   2.117   1.388   6.605
 3624SOL    HW211553   2.246   1.469   6.602
 3625SOL     OW11554   3.323   1.498   6.937
 3625SOL    HW111555   3.366   1.583   6.946
 3625SOL    HW211556   3.266   1.492   7.014
 3626SOL     OW11557   2.303   0.396   7.077
 3626SOL    HW111558   2.385   0.346   7.078
 3626SOL    HW211559   2.235   0.330   7.090
 3627SOL     OW11560   3.474   0.447   6.324
 3627SOL    HW111561   3.393   0.471   6.278
 3627SOL    HW211562   3.495   0.524   6.377
 3628SOL     OW11563   2.998   1.341   7.278
 3628SOL    HW111564   3.038   1.337   7.364
 3628SOL    HW211565   2.945   1.261   7.272
 3629SOL     OW11566   2.119   1.089   6.476
 3629SOL    HW111567   2.115   1.003   6.517
 3629SOL    HW211568   2.060   1.143   6.528
 3630SOL     OW11569   2.474   1.793   7.014
 3630SOL    HW111570   2.393   1.774   7.061
 3630SOL    HW211571   2.497   1.882   7.041
 3631SOL     OW11572   2.449   0.977   5.718
 3631SOL    HW111573   2.493   1.030   5.651
 3631SOL    HW211574   2.488   1.005   5.801
 3632SOL     OW11575   3.447   0.114   7.060
 3632SOL    HW111576   3.461   0.182   6.994
 3632SOL    HW211577   3.436   0.162   7.142
 3633SOL     OW11578   1.977   0.652   6.145
 3633SOL    HW111579   1.948   0.563   6.167
 3633SOL    HW211580   1.968   0.701   6.227
 3634SOL     OW11581   3.703   1.761   5.922
 3634SOL    HW111582   3.763   1.732   5.991
 3634SOL    HW211583   3.730   1.851   5.904
 3635SOL     OW11584   3.553   0.921   6.225
 3635SOL    HW111585   3.637   0.879   6.207
 3635SOL    HW211586   3.533   0.969   6.145
 3636SOL     OW11587   3.507   1.108   6.016
 3636SOL    HW111588   3.592   1.115   5.972
 3636SOL    HW211589   3.513   1.168   6.090
 3637SOL     OW11590   1.984   0.743   7.172
 3637SOL    HW111591   2.076   0.767   7.184
 3637SOL    HW211592   1.936   0.826   7.179
 3638SOL     OW11593   2.476   1.377   6.316
 3638SOL    HW111594   2.429   1.295   6.333
 3638SOL    HW211595   2.461   1.394   6.223
 3639SOL     OW11596   3.153   1.238   7.011
 3639SOL    HW111597   3.185   1.171   6.951
 3639SOL    HW211598   3.209   1.231   7.088
 3640SOL     OW11599   2.677   0.012   6.133
 3640SOL    HW111600   2.712   0.098   6.109
 3640SOL    HW211601   2.582   0.022   6.126
 3641SOL     OW11602   2.053   0.967   6.857
 3641SOL    HW111603   2.137   0.924   6.840
 3641SOL    HW211604   1.989   0.913   6.811
 3642SOL     OW11605   3.394   0.992   5.783
 3642SOL    HW111606   3.323   0.934   5.813
 3642SOL    HW211607   3.434   1.025   5.863
 3643SOL     OW11608   3.047   1.804   7.205
 3643SOL    HW111609   3.063   1.860   7.130
 3643SOL    HW211610   3.062   1.715   7.173
 3644SOL     OW11611   2.177   0.255   7.367
 3644SOL    HW111612   2.241   0.319   7.399
 3644SOL    HW211613   2.103   0.262   7.427
 3645SOL     OW11614   3.328   1.420   6.538
 3645SOL    HW111615   3.261   1.434   6.605
 3645SOL    HW211616   3.317   1.328   6.511
 3646SOL     OW11617   3.525   1.734   6.165
 3646SOL    HW111618   3.500   1.708   6.076
 3646SOL    HW211619   3.498   1.660   6.220
 3647SOL     OW11620   2.456   0.723   5.851
 3647SOL    HW111621   2.462   0.804   5.799
 3647SOL    HW211622   2.390   0.743   5.918
 3648SOL     OW11623   3.152   0.360   6.520
 3648SOL    HW111624   3.063   0.328   6.505
 3648SOL    HW211625   3.189   0.297   6.582
 3649SOL     OW11626   3.445   1.663   5.895
 3649SOL    HW111627   3.533   1.701   5.891
 3649SOL    HW211628   3.421   1.649   5.804
 3650SOL     OW11629   2.658   0.618   7.041
 3650SOL    HW111630   2.629   0.594   7.129
 3650SOL    HW211631   2.616   0.554   6.983
 3651SOL     OW11632   3.251   0.478   7.262
 3651SOL    HW111633   3.253   0.522   7.347
 3651SOL    HW211634   3.317   0.410   7.269
 3652SOL     OW11635   2.819   0.889   7.167
 3652SOL    HW111636   2.873   0.817   7.133
 3652SOL    HW211637   2.772   0.921   7.091
 3653SOL     OW11638   2.857   0.417   6.824
 3653SOL    HW111639   2.771   0.429   6.864
 3653SOL    HW211640   2.840   0.365   6.745
 3654SOL     OW11641   2.911   0.698   6.014
 3654SOL    HW111642   2.927   0.690   6.108
 3654SOL    HW211643   2.829   0.651   5.999
 3655SOL     OW11644   1.951   0.820   6.361
 3655SOL    HW111645   2.032   0.814   6.412
 3655SOL    HW211646   1.907   0.898   6.397
 3656SOL     OW11647   1.992   1.832   7.160
 3656SOL    HW111648   1.986   1.818   7.255
 3656SOL    HW211649   1.902   1.852   7.134
 3657SOL     OW11650   2.717   0.369   5.767
 3657SOL    HW111651   2.791   0.403   5.717
 3657SOL    HW211652   2.732   0.274   5.771
 3658SOL     OW11653   3.568   0.575   7.414
 3658SOL    HW111654   3.533   0.651   7.368
 3658SOL    HW211655   3.602   0.519   7.344
 3659SOL     OW11656   3.240   1.142   6.126
 3659SOL    HW111657   3.322   1.124   6.079
 3659SOL    HW211658   3.192   1.202   6.069
 3660SOL     OW11659   2.402   0.202   6.487
 3660SOL    HW111660   2.421   0.220   6.579
 3660SOL    HW211661   2.393   0.289   6.447
 3661SOL     OW11662   3.660   1.061   6.454
 3661SOL    HW111663   3.604   1.041   6.378
 3661SOL    HW211664   3.599   1.065   6.527
 3662SOL     OW11665   3.090   1.539   7.100
 3662SOL    HW111666   3.075   1.465   7.158
 3662SOL    HW211667   3.030   1.525   7.027
 3663SOL     OW11668   2.181   0.953   5.834
 3663SOL    HW111669   2.263   0.973   5.789
 3663SOL    HW211670   2.152   0.871   5.795
 3664SOL     OW11671   3.338   0.742   6.312
 3664SOL    HW111672   3.325   0.694   6.394
 3664SOL    HW211673   3.416   0.795   6.327
 3665SOL     OW11674   2.327   1.264   7.324
 3665SOL    HW111675   2.299   1.268   7.232
 3665SOL    HW211676   2.245   1.262   7.374
 3666SOL     OW11677   2.051   0.268   7.095
 3666SOL    HW111678   1.984   0.335   7.078
 3666SOL    HW211679   2.061   0.268   7.190
 3667SOL     OW11680   3.492   1.379   5.674
 3667SOL    HW111681   3.452   1.465   5.657
 3667SOL    HW211682   3.422   1.316   5.655
 3668SOL     OW11683   3.279   0.134   6.004
 3668SOL    HW111684   3.262   0.085   5.924
 3668SOL    HW211685   3.374   0.130   6.015
 3669SOL     OW11686   2.110   1.780   6.818
 3669SOL    HW111687   2.166   1.727   6.875
 3669SOL    HW211688   2.124   1.743   6.731
 3670SOL     OW11689   2.823   1.661   6.501
 3670SOL    HW111690   2.906   1.619   6.478
 3670SOL    HW211691   2.762   1.633   6.433
 3671SOL     OW11692   2.253   0.695   6.063
 3671SOL    HW111693   2.277   0.603   6.074
 3671SOL    HW211694   2.159   0.698   6.082
 3672SOL     OW11695   3.388   0.233   7.308
 3672SOL    HW111696   3.387   0.256   7.401
 3672SOL    HW211697   3.312   0.176   7.297
 3673SOL     OW11698   2.487   0.123   5.706
 3673SOL    HW111699   2.575   0.086   5.716
 3673SOL    HW211700   2.455   0.088   5.624
 3674SOL     OW11701   2.632   0.271   7.339
 3674SOL    HW111702   2.696   0.202   7.354
 3674SOL    HW211703   2.584   0.278   7.422
 3675SOL     OW11704   2.732   1.514   6.788
 3675SOL    HW111705   2.729   1.500   6.693
 3675SOL    HW211706   2.809   1.464   6.817
 3676SOL     OW11707   3.204   0.589   7.015
 3676SOL    HW111708   3.232   0.559   7.102
 3676SOL    HW211709   3.238   0.678   7.009
 3677SOL     OW11710   2.673   1.396   6.514
 3677SOL    HW111711   2.759   1.382   6.475
 3677SOL    HW211712   2.612   1.392   6.441
 3678SOL     OW11713   2.785   0.516   6.487
 3678SOL    HW111714   2.768   0.514   6.393
 3678SOL    HW211715   2.824   0.431   6.507
 3679SOL     OW11716   2.415   0.074   6.107
 3679SOL    HW111717   2.326   0.048   6.130
 3679SOL    HW211718   2.404   0.141   6.039
 3680SOL     OW11719   3.291   1.198   5.629
 3680SOL    HW111720   3.324   1.122   5.677
 3680SOL    HW211721   3.203   1.213   5.664
 3681SOL     OW11722   2.158   0.071   5.779
 3681SOL    HW111723   2.237   0.122   5.761
 3681SOL    HW211724   2.188   4.500   5.835
 3682SOL     OW11725   2.812   0.240   6.057
 3682SOL    HW111726   2.761   0.290   5.994
 3682SOL    HW211727   2.901   0.275   6.049
 3683SOL     OW11728   2.942   0.680   7.047
 3683SOL    HW111729   2.870   0.616   7.048
 3683SOL    HW211730   3.020   0.626   7.036
 3684SOL     OW11731   3.088   1.568   6.378
 3684SOL    HW111732   3.110   1.638   6.317
 3684SOL    HW211733   3.151   1.577   6.449
 3685SOL     OW11734   2.329   1.149   6.321
 3685SOL    HW111735   2.259   1.129   6.383
 3685SOL    HW211736   2.291   1.131   6.235
 3686SOL     OW11737   3.148   1.786   6.206
 3686SOL    HW111738   3.195   1.837   6.140
 3686SOL    HW211739   3.087   1.849   6.247
 3687SOL     OW11740   2.892   0.549   5.601
 3687SOL    HW111741   2.845   0.630   5.586
 3687SOL    HW211742   2.951   0.568   5.675
 3688SOL     OW11743   1.942   0.551   6.980
 3688SOL    HW111744   2.033   0.554   6.950
 3688SOL    HW211745   1.935   0.623   7.043
 3689SOL     OW11746   2.426   0.242   6.751
 3689SOL    HW111747   2.453   0.158   6.789
 3689SOL    HW211748   2.334   0.251   6.777
 3690SOL     OW11749   2.729   0.503   6.211
 3690SOL    HW111750   2.678   0.543   6.141
 3690SOL    HW211751   2.707   0.410   6.205
 3691SOL     OW11752   2.830   0.030   6.362
 3691SOL    HW111753   2.781   0.026   6.281
 3691SOL    HW211754   2.841   4.439   6.389
 3692SOL     OW11755   3.297   1.164   6.443
 3692SOL    HW111756   3.232   1.093   6.442
 3692SOL    HW211757   3.322   1.175   6.352
 3693SOL     OW11758   3.329   0.603   6.564
 3693SOL    HW111759   3.277   0.522   6.567
 3693SOL    HW211760   3.388   0.597   6.639
 3694SOL     OW11761   3.708   0.818   5.968
 3694SOL    HW111762   3.764   0.766   6.026
 3694SOL    HW211763   3.680   0.756   5.901
 3695SOL     OW11764   3.530   1.265   6.233
 3695SOL    HW111765   3.625   1.269   6.247
 3695SOL    HW211766   3.499   1.353   6.255
 3696SOL     OW11767   3.256   0.570   5.656
 3696SOL    HW111768   3.195   0.554   5.728
 3696SOL    HW211769   3.342   0.548   5.692
 3697SOL     OW11770   2.386   0.266   5.910
 3697SOL    HW111771   2.430   0.213   5.843
 3697SOL    HW211772   2.369   0.350   5.868
 3698SOL     OW11773   3.615   1.237   7.162
 3698SOL    HW111774   3.703   1.198   7.159
 3698SOL    HW211775   3.630   1.326   7.191
 3699SOL     OW11776   2.924   1.352   6.920
 3699SOL    HW111777   2.848   1.323   6.971
 3699SOL    HW211778   2.999   1.311   6.963
 3700SOL     OW11779   3.468   1.625   7.238
 3700SOL    HW111780   3.465   1.659   7.149
 3700SOL    HW211781   3.552   1.578   7.243
 3701SOL     OW11782   2.986   1.201   6.692
 3701SOL    HW111783   2.931   1.239   6.760
 3701SOL    HW211784   2.949   1.232   6.610
 3702SOL     OW11785   3.492   1.099   6.665
 3702SOL    HW111786   3.488   1.161   6.737
 3702SOL    HW211787   3.411   1.115   6.616
 3703SOL     OW11788   2.766   0.131   6.976
 3703SOL    HW111789   2.788   0.087   6.893
 3703SOL    HW211790   2.851   0.144   7.019
 3704SOL     OW11791   2.846   1.114   7.309
 3704SOL    HW111792   2.754   1.130   7.328
 3704SOL    HW211793   2.846   1.037   7.252
 3705SOL     OW11794   2.563   1.046   5.961
 3705SOL    HW111795   2.551   1.034   6.055
 3705SOL    HW211796   2.641   0.995   5.940
 3706SOL     OW11797   2.280   0.814   6.836
 3706SOL    HW111798   2.349   0.824   6.902
 3706SOL    HW211799   2.245   0.727   6.851
 3707SOL     OW11800   3.131   0.377   6.858
 3707SOL    HW111801   3.162   0.455   6.903
 3707SOL    HW211802   3.042   0.399   6.830
 3708SOL     OW11803   1.929   1.572   6.936
 3708SOL    HW111804   1.895   1.644   6.884
 3708SOL    HW211805   2.024   1.582   6.933
 3709SOL     OW11806   2.221   1.111   6.074
 3709SOL    HW111807   2.201   1.178   6.009
 3709SOL    HW211808   2.218   1.029   6.025
 3710SOL     OW11809   2.419   0.532   6.445
 3710SOL    HW111810   2.434   0.590   6.371
 3710SOL    HW211811   2.482   0.561   6.512
 3711SOL     OW11812   3.113   1.343   5.973
 3711SOL    HW111813   3.167   1.417   6.001
 3711SOL    HW211814   3.035   1.347   6.030
 3712SOL     OW11815   3.141   1.452   6.730
 3712SOL    HW111816   3.194   1.459   6.809
 3712SOL    HW211817   3.083   1.378   6.746
 3713SOL     OW11818   3.444   0.625   6.062
 3713SOL    HW111819   3.400   0.678   6.127
 3713SOL    HW211820   3.490   0.688   6.007
 3714SOL     OW11821   2.212   1.522   6.909
 3714SOL    HW111822   2.193   1.483   6.824
 3714SOL    HW211823   2.307   1.535   6.909
 3715SOL     OW11824   2.275   0.743   7.188
 3715SOL    HW111825   2.335   0.790   7.129
 3715SOL    HW211826   2.319   0.660   7.205
 3716SOL     OW11827   3.461   0.777   7.266
 3716SOL    HW111828   3.374   0.818   7.258
 3716SOL    HW211829   3.513   0.820   7.197
 3717SOL     OW11830   2.869   0.086   7.311
 3717SOL    HW111831   2.892   0.170   7.272
 3717SOL    HW211832   2.894   0.021   7.245
 3718SOL     OW11833   2.361   0.048   7.343
 3718SOL    HW111834   2.352   0.002   7.260
 3718SOL    HW211835   2.293   0.115   7.341
 3719SOL     OW11836   2.444   0.874   6.616
 3719SOL    HW111837   2.474   0.965   6.616
 3719SOL    HW211838   2.388   0.867   6.694
 3720SOL     OW11839   3.222   0.859   6.617
 3720SOL    HW111840   3.139   0.850   6.571
 3720SOL    HW211841   3.261   0.772   6.614
 3721SOL     OW11842   3.068   0.535   5.852
 3721SOL    HW111843   3.074   0.454   5.902
 3721SOL    HW211844   3.024   0.597   5.911
 3722SOL     OW11845   2.153   0.235   6.826
 3722SOL    HW111846   2.111   0.251   6.911
 3722SOL    HW211847   2.183   0.144   6.831
 3723SOL     OW11848   1.904   1.310   6.864
 3723SOL    HW111849   1.941   1.258   6.935
 3723SOL    HW211850   1.914   1.401   6.893
 3724SOL     OW11851   2.586   0.632   6.645
 3724SOL    HW111852   2.659   0.612   6.587
 3724SOL    HW211853   2.560   0.721   6.621
 3725SOL     OW11854   3.595   0.959   7.437
 3725SOL    HW111855   3.547   0.902   7.377
 3725SOL    HW211856   3.536   0.971   7.511
 3726SOL     OW11857   2.160   0.059   6.240
 3726SOL    HW111858   2.151   0.154   6.244
 3726SOL    HW211859   2.172   0.032   6.331
 3727SOL     OW11860   3.474   0.375   5.951
 3727SOL    HW111861   3.505   0.312   6.016
 3727SOL    HW211862   3.452   0.453   6.002
 3728SOL     OW11863   2.890   0.761   6.548
 3728SOL    HW111864   2.888   0.777   6.642
 3728SOL    HW211865   2.861   0.670   6.539
 3729SOL     OW11866   2.845   1.566   7.301
 3729SOL    HW111867   2.828   1.610   7.218
 3729SOL    HW211868   2.887   1.484   7.278
 3730SOL     OW11869   3.718   1.508   7.192
 3730SOL    HW111870   3.734   1.534   7.101
 3730SOL    HW211871   3.799   1.529   7.238
 3731SOL     OW11872   2.216   0.916   7.393
 3731SOL    HW111873   2.298   0.934   7.439
 3731SOL    HW211874   2.239   0.854   7.325
 3732SOL     OW11875   3.393   0.267   5.714
 3732SOL    HW111876   3.322   0.210   5.742
 3732SOL    HW211877   3.422   0.311   5.794
 3733SOL     OW11878   3.156   0.827   5.619
 3733SOL    HW111879   3.197   0.741   5.621
 3733SOL    HW211880   3.186   0.866   5.536
 3734SOL     OW11881   2.923   1.337   6.432
 3734SOL    HW111882   2.931   1.261   6.374
 3734SOL    HW211883   2.993   1.396   6.404
 3735SOL     OW11884   2.172   0.810   6.534
 3735SOL    HW111885   2.265   0.832   6.528
 3735SOL    HW211886   2.171   0.720   6.568
 3736SOL     OW11887   2.199   0.529   6.599
 3736SOL    HW111888   2.157   0.446   6.579
 3736SOL    HW211889   2.274   0.532   6.540
 3737SOL     OW11890   2.997   0.375   7.279
 3737SOL    HW111891   2.949   0.439   7.331
 3737SOL    HW211892   3.083   0.414   7.266
 3738SOL     OW11893   3.022   0.211   7.060
 3738SOL    HW111894   3.014   0.275   7.130
 3738SOL    HW211895   3.057   0.261   6.986
 3739SOL     OW11896   1.877   1.323   5.780
 3739SOL    HW111897   1.792   1.348   5.743
 3739SOL    HW211898   1.864   1.233   5.811
 3740SOL     OW11899   2.383   1.539   6.522
 3740SOL    HW111900   2.437   1.618   6.521
 3740SOL    HW211901   2.420   1.484   6.453
 3741SOL     OW11902   2.849   0.795   6.814
 3741SOL    HW111903   2.902   0.770   6.890
 3741SOL    HW211904   2.763   0.756   6.832
 3742SOL     OW11905   1.896   0.542   6.704
 3742SOL    HW111906   1.975   0.523   6.653
 3742SOL    HW211907   1.927   0.548   6.794
 3743SOL     OW11908   2.047   0.518   7.306
 3743SOL    HW111909   2.120   0.497   7.248
 3743SOL    HW211910   2.004   0.593   7.265
 3744SOL     OW11911   3.238   0.941   7.245
 3744SOL    HW111912   3.259   1.034   7.245
 3744SOL    HW211913   3.236   0.916   7.153
 3745SOL     OW11914   2.674   0.575   5.939
 3745SOL    HW111915   2.678   0.502   5.877
 3745SOL    HW211916   2.598   0.627   5.910
 3746SOL     OW11917   3.504   0.602   6.775
 3746SOL    HW111918   3.493   0.541   6.848
 3746SOL    HW211919   3.591   0.582   6.740
 3747SOL     OW11920   2.111   1.552   7.317
 3747SOL    HW111921   2.082   1.615   7.384
 3747SOL    HW211922   2.108   1.467   7.361
 3748SOL     OW11923   2.556   0.460   6.851
 3748SOL    HW111924   2.511   0.382   6.818
 3748SOL    HW211925   2.558   0.520   6.777
 3749SOL     OW11926   2.789   1.677   7.054
 3749SOL    HW111927   2.766   1.644   6.967
 3749SOL    HW211928   2.790   1.772   7.044
 3750SOL     OW11929   2.328   0.493   5.771
 3750SOL    HW111930   2.387   0.566   5.792
 3750SOL    HW211931   2.242   0.534   5.762
 3751SOL     OW11932   2.009   1.140   7.058
 3751SOL    HW111933   2.013   1.087   7.137
 3751SOL    HW211934   2.026   1.078   6.987
 3752SOL     OW11935   3.191   1.048   6.810
 3752SOL    HW111936   3.214   0.985   6.742
 3752SOL    HW211937   3.118   1.098   6.772
 3753SOL     OW11938   3.170   0.859   5.893
 3753SOL    HW111939   3.095   0.825   5.943
 3753SOL    HW211940   3.147   0.843   5.802
 3754SOL     OW11941   3.631   1.746   6.735
 3754SOL    HW111942   3.691   1.772   6.665
 3754SOL    HW211943   3.607   1.656   6.714
 3755SOL     OW11944   3.124   1.734   6.717
 3755SOL    HW111945   3.197   1.746   6.656
 3755SOL    HW211946   3.111   1.639   6.721
 3756SOL     OW11947   1.951   1.260   6.602
 3756SOL    HW111948   1.935   1.275   6.695
 3756SOL    HW211949   1.871   1.219   6.570
 3757SOL     OW11950   2.540   1.664   7.311
 3757SOL    HW111951   2.489   1.745   7.307
 3757SOL    HW211952   2.604   1.673   7.240
 3758SOL     OW11953   3.580   0.130   6.082
 3758SOL    HW111954   3.653   0.136   6.021
 3758SOL    HW211955   3.602   0.057   6.140
 3759SOL     OW11956   3.247   1.566   6.063
 3759SOL    HW111957   3.313   1.597   6.000
 3759SOL    HW211958   3.211   1.646   6.100
 3760SOL     OW11959   1.994   1.797   7.428
 3760SOL    HW111960   1.943   1.730   7.475
 3760SOL    HW211961   2.045   1.840   7.497
 3761SOL     OW11962   3.140   0.928   6.259
 3761SOL    HW111963   3.211   0.864   6.264
 3761SOL    HW211964   3.175   0.999   6.205
 3762SOL     OW11965   2.680   1.272   7.017
 3762SOL    HW111966   2.652   1.311   7.100
 3762SOL    HW211967   2.612   1.297   6.955
 3763SOL     OW11968   3.495   1.727   6.979
 3763SOL    HW111969   3.541   1.734   6.895
 3763SOL    HW211970   3.480   1.817   7.006
 3764SOL     OW11971   3.701   0.155   6.553
 3764SOL    HW111972   3.732   0.079   6.503
 3764SOL    HW211973   3.614   0.173   6.516
 3765SOL     OW11974   2.128   0.324   6.305
 3765SOL    HW111975   2.043   0.358   6.277
 3765SOL    HW211976   2.120   0.314   6.400
 3766SOL     OW11977   3.082   1.603   5.621
 3766SOL    HW111978   3.069   1.515   5.657
 3766SOL    HW211979   3.043   1.600   5.534
 3767SOL     OW11980   2.686   1.006   6.958
 3767SOL    HW111981   2.729   1.002   6.873
 3767SOL    HW211982   2.686   1.099   6.981
 3768SOL     OW11983   2.779   0.911   5.877
 3768SOL    HW111984   2.841   0.943   5.811
 3768SOL    HW211985   2.825   0.839   5.920
 3769SOL     OW11986   3.359   1.627   5.629
 3769SOL    HW111987   3.264   1.618   5.617
 3769SOL    HW211988   3.394   1.631   5.540
 3770SOL     OW11989   2.232   1.300   7.079
 3770SOL    HW111990   2.219   1.378   7.025
 3770SOL    HW211991   2.154   1.247   7.061
 3771SOL     OW11992   3.474   1.283   6.867
 3771SOL    HW111993   3.532   1.274   6.942
 3771SOL    HW211994   3.413   1.353   6.892
 3772SOL     OW11995   2.911   1.106   6.285
 3772SOL    HW111996   2.841   1.057   6.329
 3772SOL    HW211997   2.974   1.039   6.259
 3773SOL     OW11998   2.869   0.242   6.585
 3773SOL    HW111999   2.875   0.214   6.493
 3773SOL    HW212000   2.862   0.160   6.634
 3774SOL     OW12001   3.582   0.393   6.963
 3774SOL    HW112002   3.654   0.456   6.962
 3774SOL    HW212003   3.611   0.322   6.907
 3775SOL     OW12004   2.114   1.315   5.914
 3775SOL    HW112005   2.029   1.317   5.871
 3775SOL    HW212006   2.110   1.385   5.979
 3776SOL     OW12007   1.974   1.019   7.305
 3776SOL    HW112008   1.898   0.996   7.359
 3776SOL    HW212009   2.049   0.983   7.353
 3777SOL     OW12010   2.521   0.203   7.083
 3777SOL    HW112011   2.601   0.179   7.037
 3777SOL    HW212012   2.550   0.223   7.172
 3778SOL     OW12013   1.943   0.343   5.633
 3778SOL    HW112014   1.871   0.290   5.597
 3778SOL    HW212015   1.958   0.410   5.567
 3779SOL     OW12016   3.293   0.858   6.987
 3779SOL    HW112017   3.245   0.918   6.931
 3779SOL    HW212018   3.383   0.861   6.953
 3780SOL     OW12019   1.928   0.181   5.908
 3780SOL    HW112020   1.925   0.247   5.839
 3780SOL    HW212021   2.003   0.126   5.885
 3781SOL     OW12022   3.038   1.342   5.707
 3781SOL    HW112023   2.956   1.293   5.711
 3781SOL    HW212024   3.072   1.339   5.796
 3782SOL     OW12025   2.480   0.831   7.019
 3782SOL    HW112026   2.536   0.908   7.004
 3782SOL    HW212027   2.542   0.758   7.027
 3783SOL     OW12028   3.350   1.771   6.555
 3783SOL    HW112029   3.376   1.833   6.487
 3783SOL    HW212030   3.428   1.760   6.608
 3784SOL     OW12031   2.578   0.564   7.292
 3784SOL    HW112032   2.614   0.628   7.353
 3784SOL    HW212033   2.614   0.480   7.323
 3785SOL     OW12034   3.331   1.202   7.219
 3785SOL    HW112035   3.319   1.216   7.313
 3785SOL    HW212036   3.425   1.215   7.205
 3786SOL     OW12037   2.245   1.740   7.152
 3786SOL    HW112038   2.159   1.778   7.136
 3786SOL    HW212039   2.228   1.655   7.191
 3787SOL     OW12040   3.533   0.882   6.842
 3787SOL    HW112041   3.525   0.796   6.799
 3787SOL    HW212042   3.524   0.945   6.771
 3788SOL     OW12043   3.080   0.328   6.034
 3788SOL    HW112044   3.145   0.259   6.024
 3788SOL    HW212045   3.107   0.375   6.113
 3789SOL     OW12046   2.451   0.740   6.255
 3789SOL    HW112047   2.492   0.824   6.237
 3789SOL    HW212048   2.382   0.732   6.189
 3790SOL     OW12049   3.627   0.363   7.229
 3790SOL    HW112050   3.610   0.376   7.136
 3790SOL    HW212051   3.549   0.318   7.261
 3791SOL     OW12052   3.606   0.933   7.099
 3791SOL    HW112053   3.606   1.028   7.112
 3791SOL    HW212054   3.591   0.922   7.005
 3792SOL     OW12055   2.723   1.355   5.600
 3792SOL    HW112056   2.714   1.349   5.695
 3792SOL    HW212057   2.768   1.438   5.586
 3793SOL     OW12058   2.731   0.968   6.442
 3793SOL    HW112059   2.779   0.895   6.481
 3793SOL    HW212060   2.696   1.017   6.516
 3794SOL     OW12061   2.944   0.992   5.675
 3794SOL    HW112062   2.920   1.037   5.595
 3794SOL    HW212063   3.017   0.935   5.650
 3795SOL     OW12064   3.719   1.556   6.431
 3795SOL    HW112065   3.641   1.545   6.376
 3795SOL    HW212066   3.710   1.488   6.498
 3796SOL     OW12067   2.086   1.304   7.442
 3796SOL    HW112068   2.018   1.243   7.412
 3796SOL    HW212069   2.068   1.317   7.535
 3797SOL     OW12070   1.942   1.234   6.246
 3797SOL    HW112071   1.951   1.186   6.328
 3797SOL    HW212072   2.018   1.207   6.194
 3798SOL     OW12073   2.542   1.401   7.212
 3798SOL    HW112074   2.462   1.357   7.242
 3798SOL    HW212075   2.536   1.489   7.250
 3799SOL     OW12076   3.671   0.183   6.825
 3799SOL    HW112077   3.671   0.090   6.846
 3799SOL    HW212078   3.688   0.187   6.731
 3800SOL     OW12079   2.297   0.433   6.114
 3800SOL    HW112080   2.320   0.363   6.053
 3800SOL    HW212081   2.242   0.390   6.180
 3801SOL     OW12082   3.563   1.491   6.685
 3801SOL    HW112083   3.482   1.466   6.641
 3801SOL    HW212084   3.577   1.422   6.750
 3802SOL     OW12085   2.190   0.555   6.877
 3802SOL    HW112086   2.245   0.499   6.931
 3802SOL    HW212087   2.210   0.529   6.787
 3803SOL     OW12088   3.294   0.216   6.704
 3803SOL    HW112089   3.331   0.145   6.757
 3803SOL    HW212090   3.243   0.268   6.765
 3804SOL     OW12091   2.859   0.011   6.735
 3804SOL    HW112092   2.814   4.427   6.726
 3804SOL    HW212093   2.951   4.488   6.747
 3805SOL     OW12094   2.692   1.273   5.873
 3805SOL    HW112095   2.631   1.202   5.890
 3805SOL    HW212096   2.721   1.302   5.959
 3806SOL     OW12097   2.479   1.560   6.871
 3806SOL    HW112098   2.485   1.641   6.921
 3806SOL    HW212099   2.567   1.547   6.835
 3807SOL     OW12100   3.204   0.053   5.738
 3807SOL    HW112101   3.243   4.478   5.694
 3807SOL    HW212102   3.129   0.017   5.784
 3808SOL     OW12103   3.177   0.463   6.266
 3808SOL    HW112104   3.114   0.535   6.266
 3808SOL    HW212105   3.165   0.420   6.350
 3809SOL     OW12106   3.447   0.201   6.453
 3809SOL    HW112107   3.387   0.216   6.526
 3809SOL    HW212108   3.450   0.285   6.407
 3810SOL     OW12109   1.903   1.072   5.890
 3810SOL    HW112110   1.997   1.065   5.875
 3810SOL    HW212111   1.876   0.983   5.913
 3811SOL     OW12112   2.092   0.627   7.568
 3811SOL    HW112113   2.004   0.620   7.605
 3811SOL    HW212114   2.082   0.595   7.478
 3812SOL     OW12115   2.071   0.296   8.437
 3812SOL    HW112116   2.102   0.269   8.523
 3812SOL    HW212117   1.989   0.249   8.424
 3813SOL     OW12118   1.870   0.384   8.087
 3813SOL    HW112119   1.784   0.404   8.124
 3813SOL    HW212120   1.855   0.310   8.029
 3814SOL     OW12121   2.429   1.284   8.620
 3814SOL    HW112122   2.341   1.285   8.584
 3814SOL    HW212123   2.442   1.372   8.655
 3815SOL     OW12124   3.420   1.512   8.154
 3815SOL    HW112125   3.377   1.493   8.237
 3815SOL    HW212126   3.349   1.516   8.090
 3816SOL     OW12127   2.994   0.699   8.149
 3816SOL    HW112128   3.042   0.782   8.138
 3816SOL    HW212129   2.945   0.711   8.230
 3817SOL     OW12130   3.627   0.608   7.677
 3817SOL    HW112131   3.608   0.597   7.584
 3817SOL    HW212132   3.595   0.528   7.718
 3818SOL     OW12133   2.621   1.144   8.487
 3818SOL    HW112134   2.551   1.178   8.543
 3818SOL    HW212135   2.654   1.222   8.442
 3819SOL     OW12136   2.725   0.779   9.270
 3819SOL    HW112137   2.712   0.850   9.332
 3819SOL    HW212138   2.749   0.822   9.188
 3820SOL     OW12139   2.549   1.006   8.096
 3820SOL    HW112140   2.613   0.992   8.166
 3820SOL    HW212141   2.478   1.056   8.138
 3821SOL     OW12142   2.570   1.152   9.258
 3821SOL    HW112143   2.618   1.231   9.282
 3821SOL    HW212144   2.486   1.183   9.224
 3822SOL     OW12145   2.193   1.427   8.517
 3822SOL    HW112146   2.120   1.391   8.467
 3822SOL    HW212147   2.243   1.477   8.452
 3823SOL     OW12148   3.323   1.498   8.799
 3823SOL    HW112149   3.369   1.582   8.810
 3823SOL    HW212150   3.266   1.493   8.876
 3824SOL     OW12151   2.303   0.396   8.939
 3824SOL    HW112152   2.385   0.346   8.940
 3824SOL    HW212153   2.235   0.330   8.952
 3825SOL     OW12154   3.474   0.447   8.186
 3825SOL    HW112155   3.394   0.471   8.140
 3825SOL    HW212156   3.495   0.525   8.238
 3826SOL     OW12157   2.082   1.715   7.924
 3826SOL    HW112158   2.107   1.793   7.975
 3826SOL    HW212159   2.152   1.706   7.860
 3827SOL     OW12160   2.998   1.341   9.139
 3827SOL    HW112161   3.038   1.337   9.227
 3827SOL    HW212162   2.945   1.261   9.134
 3828SOL     OW12163   2.092   1.441   7.983
 3828SOL    HW112164   2.072   1.534   7.989
 3828SOL    HW212165   2.031   1.399   8.044
 3829SOL     OW12166   2.117   1.090   8.339
 3829SOL    HW112167   2.114   1.004   8.380
 3829SOL    HW212168   2.059   1.145   8.391
 3830SOL     OW12169   2.480   1.786   8.883
 3830SOL    HW112170   2.395   1.772   8.924
 3830SOL    HW212171   2.499   1.878   8.897
 3831SOL     OW12172   2.450   0.980   7.580
 3831SOL    HW112173   2.494   1.031   7.512
 3831SOL    HW212174   2.491   1.009   7.662
 3832SOL     OW12175   3.447   0.114   8.922
 3832SOL    HW112176   3.461   0.182   8.856
 3832SOL    HW212177   3.436   0.162   9.004
 3833SOL     OW12178   1.977   0.652   8.007
 3833SOL    HW112179   1.948   0.563   8.029
 3833SOL    HW212180   1.969   0.700   8.089
 3834SOL     OW12181   3.703   1.761   7.784
 3834SOL    HW112182   3.764   1.731   7.852
 3834SOL    HW212183   3.730   1.851   7.766
 3835SOL     OW12184   1.893   1.595   7.572
 3835SOL    HW112185   1.875   1.503   7.591
 3835SOL    HW212186   1.868   1.642   7.652
 3836SOL     OW12187   3.553   0.921   8.087
 3836SOL    HW112188   3.637   0.879   8.068
 3836SOL    HW212189   3.531   0.969   8.008
 3837SOL     OW12190   3.507   1.108   7.877
 3837SOL    HW112191   3.593   1.116   7.835
 3837SOL    HW212192   3.512   1.168   7.951
 3838SOL     OW12193   1.984   0.743   9.033
 3838SOL    HW112194   2.076   0.767   9.046
 3838SOL    HW212195   1.936   0.826   9.041
 3839SOL     OW12196   2.475   1.383   8.183
 3839SOL    HW112197   2.429   1.299   8.192
 3839SOL    HW212198   2.459   1.409   8.092
 3840SOL     OW12199   3.152   1.239   8.872
 3840SOL    HW112200   3.184   1.171   8.812
 3840SOL    HW212201   3.208   1.231   8.949
 3841SOL     OW12202   2.677   0.012   7.995
 3841SOL    HW112203   2.712   0.098   7.971
 3841SOL    HW212204   2.582   0.022   7.988
 3842SOL     OW12205   2.053   0.968   8.718
 3842SOL    HW112206   2.137   0.925   8.702
 3842SOL    HW212207   1.989   0.912   8.674
 3843SOL     OW12208   3.394   0.991   7.645
 3843SOL    HW112209   3.323   0.934   7.675
 3843SOL    HW212210   3.433   1.026   7.725
 3844SOL     OW12211   3.048   1.805   9.069
 3844SOL    HW112212   3.062   1.862   8.993
 3844SOL    HW212213   3.062   1.716   9.035
 3845SOL     OW12214   2.177   0.255   9.229
 3845SOL    HW112215   2.241   0.319   9.261
 3845SOL    HW212216   2.103   0.262   9.289
 3846SOL     OW12217   3.328   1.420   8.401
 3846SOL    HW112218   3.259   1.434   8.466
 3846SOL    HW212219   3.316   1.329   8.373
 3847SOL     OW12220   3.522   1.735   8.026
 3847SOL    HW112221   3.500   1.706   7.937
 3847SOL    HW212222   3.497   1.661   8.082
 3848SOL     OW12223   2.456   0.724   7.712
 3848SOL    HW112224   2.463   0.804   7.661
 3848SOL    HW212225   2.390   0.743   7.779
 3849SOL     OW12226   3.152   0.360   8.382
 3849SOL    HW112227   3.063   0.329   8.367
 3849SOL    HW212228   3.189   0.297   8.444
 3850SOL     OW12229   3.443   1.669   7.757
 3850SOL    HW112230   3.533   1.703   7.751
 3850SOL    HW212231   3.418   1.652   7.666
 3851SOL     OW12232   2.658   0.618   8.903
 3851SOL    HW112233   2.629   0.594   8.991
 3851SOL    HW212234   2.616   0.554   8.845
 3852SOL     OW12235   3.251   0.478   9.124
 3852SOL    HW112236   3.253   0.522   9.209
 3852SOL    HW212237   3.317   0.410   9.131
 3853SOL     OW12238   2.819   0.889   9.029
 3853SOL    HW112239   2.873   0.817   8.995
 3853SOL    HW212240   2.771   0.921   8.953
 3854SOL     OW12241   2.857   0.417   8.686
 3854SOL    HW112242   2.771   0.429   8.725
 3854SOL    HW212243   2.840   0.365   8.607
 3855SOL     OW12244   2.911   0.698   7.875
 3855SOL    HW112245   2.927   0.690   7.970
 3855SOL    HW212246   2.829   0.651   7.861
 3856SOL     OW12247   1.951   0.820   8.224
 3856SOL    HW112248   2.032   0.813   8.274
 3856SOL    HW212249   1.908   0.898   8.259
 3857SOL     OW12250   1.989   1.816   9.022
 3857SOL    HW112251   1.977   1.811   9.117
 3857SOL    HW212252   1.920   1.875   8.992
 3858SOL     OW12253   2.717   0.368   7.629
 3858SOL    HW112254   2.791   0.403   7.579
 3858SOL    HW212255   2.732   0.274   7.633
 3859SOL     OW12256   3.568   0.575   9.276
 3859SOL    HW112257   3.533   0.651   9.230
 3859SOL    HW212258   3.602   0.519   9.206
 3860SOL     OW12259   3.238   1.143   7.990
 3860SOL    HW112260   3.316   1.129   7.937
 3860SOL    HW212261   3.185   1.205   7.939
 3861SOL     OW12262   2.402   0.202   8.349
 3861SOL    HW112263   2.422   0.220   8.441
 3861SOL    HW212264   2.393   0.289   8.309
 3862SOL     OW12265   2.870   1.445   7.921
 3862SOL    HW112266   2.830   1.517   7.873
 3862SOL    HW212267   2.855   1.467   8.013
 3863SOL     OW12268   2.216   1.799   8.305
 3863SOL    HW112269   2.247   1.708   8.312
 3863SOL    HW212270   2.292   1.852   8.326
 3864SOL     OW12271   3.660   1.061   8.315
 3864SOL    HW112272   3.604   1.042   8.240
 3864SOL    HW212273   3.599   1.065   8.389
 3865SOL     OW12274   3.090   1.539   8.961
 3865SOL    HW112275   3.076   1.466   9.021
 3865SOL    HW212276   3.028   1.524   8.889
 3866SOL     OW12277   2.183   0.956   7.696
 3866SOL    HW112278   2.265   0.974   7.651
 3866SOL    HW212279   2.152   0.874   7.657
 3867SOL     OW12280   3.339   0.740   8.173
 3867SOL    HW112281   3.326   0.694   8.256
 3867SOL    HW212282   3.416   0.796   8.189
 3868SOL     OW12283   2.327   1.264   9.185
 3868SOL    HW112284   2.299   1.268   9.094
 3868SOL    HW212285   2.245   1.262   9.236
 3869SOL     OW12286   2.983   1.777   7.680
 3869SOL    HW112287   2.911   1.734   7.726
 3869SOL    HW212288   3.005   1.717   7.608
 3870SOL     OW12289   2.051   0.268   8.957
 3870SOL    HW112290   1.985   0.335   8.940
 3870SOL    HW212291   2.061   0.268   9.052
 3871SOL     OW12292   3.491   1.379   7.535
 3871SOL    HW112293   3.450   1.464   7.520
 3871SOL    HW212294   3.422   1.316   7.517
 3872SOL     OW12295   2.330   1.736   7.771
 3872SOL    HW112296   2.372   1.794   7.834
 3872SOL    HW212297   2.401   1.706   7.714
 3873SOL     OW12298   3.279   0.134   7.866
 3873SOL    HW112299   3.263   0.085   7.786
 3873SOL    HW212300   3.374   0.130   7.877
 3874SOL     OW12301   2.104   1.780   8.684
 3874SOL    HW112302   2.167   1.723   8.728
 3874SOL    HW212303   2.106   1.753   8.592
 3875SOL     OW12304   2.797   1.697   8.349
 3875SOL    HW112305   2.875   1.646   8.370
 3875SOL    HW212306   2.755   1.649   8.279
 3876SOL     OW12307   2.253   0.695   7.925
 3876SOL    HW112308   2.277   0.603   7.936
 3876SOL    HW212309   2.159   0.698   7.944
 3877SOL     OW12310   3.388   0.233   9.170
 3877SOL    HW112311   3.387   0.256   9.263
 3877SOL    HW212312   3.312   0.176   9.159
 3878SOL     OW12313   2.487   0.123   7.569
 3878SOL    HW112314   2.575   0.086   7.578
 3878SOL    HW212315   2.455   0.088   7.486
 3879SOL     OW12316   2.632   0.271   9.201
 3879SOL    HW112317   2.696   0.202   9.216
 3879SOL    HW212318   2.584   0.278   9.284
 3880SOL     OW12319   2.739   1.522   8.641
 3880SOL    HW112320   2.723   1.484   8.554
 3880SOL    HW212321   2.808   1.467   8.679
 3881SOL     OW12322   3.204   0.589   8.877
 3881SOL    HW112323   3.232   0.559   8.964
 3881SOL    HW212324   3.238   0.678   8.870
 3882SOL     OW12325   2.675   1.399   8.385
 3882SOL    HW112326   2.759   1.386   8.340
 3882SOL    HW212327   2.610   1.395   8.314
 3883SOL     OW12328   2.785   0.516   8.349
 3883SOL    HW112329   2.768   0.514   8.255
 3883SOL    HW212330   2.824   0.431   8.368
 3884SOL     OW12331   2.415   0.074   7.968
 3884SOL    HW112332   2.326   0.048   7.992
 3884SOL    HW212333   2.404   0.141   7.901
 3885SOL     OW12334   3.291   1.198   7.490
 3885SOL    HW112335   3.321   1.122   7.539
 3885SOL    HW212336   3.204   1.218   7.526
 3886SOL     OW12337   2.158   0.071   7.641
 3886SOL    HW112338   2.236   0.122   7.623
 3886SOL    HW212339   2.188   4.500   7.698
 3887SOL     OW12340   2.812   0.240   7.919
 3887SOL    HW112341   2.761   0.291   7.856
 3887SOL    HW212342   2.901   0.276   7.911
 3888SOL     OW12343   2.942   0.680   8.909
 3888SOL    HW112344   2.870   0.616   8.910
 3888SOL    HW212345   3.020   0.626   8.897
 3889SOL     OW12346   3.086   1.570   8.242
 3889SOL    HW112347   3.105   1.637   8.176
 3889SOL    HW212348   3.154   1.581   8.308
 3890SOL     OW12349   2.330   1.149   8.184
 3890SOL    HW112350   2.259   1.130   8.246
 3890SOL    HW212351   2.291   1.131   8.098
 3891SOL     OW12352   3.133   1.795   8.054
 3891SOL    HW112353   3.177   1.856   7.995
 3891SOL    HW212354   3.069   1.849   8.100
 3892SOL     OW12355   2.893   0.549   7.463
 3892SOL    HW112356   2.845   0.630   7.448
 3892SOL    HW212357   2.951   0.569   7.537
 3893SOL     OW12358   1.942   0.551   8.842
 3893SOL    HW112359   2.033   0.554   8.812
 3893SOL    HW212360   1.935   0.623   8.905
 3894SOL     OW12361   2.426   0.242   8.613
 3894SOL    HW112362   2.453   0.158   8.651
 3894SOL    HW212363   2.334   0.251   8.639
 3895SOL     OW12364   2.728   0.502   8.074
 3895SOL    HW112365   2.679   0.544   8.003
 3895SOL    HW212366   2.707   0.409   8.067
 3896SOL     OW12367   2.830   0.030   8.225
 3896SOL    HW112368   2.781   0.026   8.143
 3896SOL    HW212369   2.841   4.439   8.251
 3897SOL     OW12370   3.298   1.164   8.305
 3897SOL    HW112371   3.230   1.096   8.304
 3897SOL    HW212372   3.321   1.176   8.213
 3898SOL     OW12373   3.329   0.603   8.426
 3898SOL    HW112374   3.277   0.523   8.429
 3898SOL    HW212375   3.388   0.597   8.501
 3899SOL     OW12376   3.709   0.818   7.830
 3899SOL    HW112377   3.764   0.766   7.888
 3899SOL    HW212378   3.680   0.757   7.763
 3900SOL     OW12379   2.353   1.416   7.608
 3900SOL    HW112380   2.278   1.386   7.660
 3900SOL    HW212381   2.335   1.384   7.519
 3901SOL     OW12382   3.531   1.265   8.095
 3901SOL    HW112383   3.625   1.270   8.109
 3901SOL    HW212384   3.499   1.353   8.117
 3902SOL     OW12385   3.256   0.570   7.518
 3902SOL    HW112386   3.195   0.554   7.590
 3902SOL    HW212387   3.342   0.549   7.554
 3903SOL     OW12388   2.386   0.266   7.772
 3903SOL    HW112389   2.430   0.213   7.705
 3903SOL    HW212390   2.369   0.350   7.730
 3904SOL     OW12391   3.615   1.237   9.024
 3904SOL    HW112392   3.703   1.198   9.021
 3904SOL    HW212393   3.630   1.326   9.053
 3905SOL     OW12394   2.922   1.354   8.783
 3905SOL    HW112395   2.847   1.323   8.834
 3905SOL    HW212396   2.998   1.313   8.824
 3906SOL     OW12397   3.468   1.625   9.100
 3906SOL    HW112398   3.465   1.659   9.011
 3906SOL    HW212399   3.551   1.578   9.105
 3907SOL     OW12400   2.989   1.203   8.555
 3907SOL    HW112401   2.929   1.239   8.620
 3907SOL    HW212402   2.954   1.232   8.471
 3908SOL     OW12403   3.492   1.099   8.527
 3908SOL    HW112404   3.488   1.161   8.599
 3908SOL    HW212405   3.412   1.114   8.477
 3909SOL     OW12406   2.766   0.131   8.838
 3909SOL    HW112407   2.788   0.087   8.755
 3909SOL    HW212408   2.851   0.144   8.881
 3910SOL     OW12409   2.846   1.114   9.170
 3910SOL    HW112410   2.754   1.130   9.190
 3910SOL    HW212411   2.846   1.037   9.114
 3911SOL     OW12412   2.571   1.061   7.820
 3911SOL    HW112413   2.557   1.046   7.913
 3911SOL    HW212414   2.646   1.007   7.797
 3912SOL     OW12415   2.280   0.814   8.699
 3912SOL    HW112416   2.349   0.824   8.765
 3912SOL    HW212417   2.245   0.727   8.713
 3913SOL     OW12418   3.131   0.376   8.720
 3913SOL    HW112419   3.162   0.455   8.765
 3913SOL    HW212420   3.042   0.399   8.692
 3914SOL     OW12421   1.928   1.570   8.795
 3914SOL    HW112422   1.894   1.648   8.751
 3914SOL    HW212423   2.023   1.583   8.797
 3915SOL     OW12424   2.215   1.107   7.939
 3915SOL    HW112425   2.218   1.180   7.878
 3915SOL    HW212426   2.213   1.029   7.884
 3916SOL     OW12427   2.419   0.532   8.307
 3916SOL    HW112428   2.434   0.590   8.233
 3916SOL    HW212429   2.482   0.561   8.374
 3917SOL     OW12430   3.110   1.348   7.837
 3917SOL    HW112431   3.165   1.420   7.868
 3917SOL    HW212432   3.023   1.368   7.871
 3918SOL     OW12433   3.140   1.456   8.594
 3918SOL    HW112434   3.195   1.458   8.672
 3918SOL    HW212435   3.085   1.379   8.605
 3919SOL     OW12436   3.445   0.625   7.924
 3919SOL    HW112437   3.399   0.677   7.990
 3919SOL    HW212438   3.489   0.689   7.868
 3920SOL     OW12439   2.213   1.520   8.768
 3920SOL    HW112440   2.197   1.481   8.682
 3920SOL    HW212441   2.307   1.535   8.770
 3921SOL     OW12442   2.275   0.743   9.050
 3921SOL    HW112443   2.335   0.790   8.991
 3921SOL    HW212444   2.319   0.660   9.067
 3922SOL     OW12445   3.461   0.778   9.128
 3922SOL    HW112446   3.374   0.818   9.120
 3922SOL    HW212447   3.513   0.820   9.059
 3923SOL     OW12448   2.869   0.085   9.173
 3923SOL    HW112449   2.892   0.170   9.134
 3923SOL    HW212450   2.894   0.021   9.107
 3924SOL     OW12451   2.361   0.048   9.205
 3924SOL    HW112452   2.352   0.002   9.122
 3924SOL    HW212453   2.293   0.115   9.203
 3925SOL     OW12454   2.444   0.873   8.479
 3925SOL    HW112455   2.474   0.964   8.477
 3925SOL    HW212456   2.388   0.868   8.556
 3926SOL     OW12457   3.222   0.859   8.480
 3926SOL    HW112458   3.140   0.851   8.432
 3926SOL    HW212459   3.260   0.771   8.476
 3927SOL     OW12460   3.068   0.535   7.713
 3927SOL    HW112461   3.074   0.454   7.765
 3927SOL    HW212462   3.025   0.597   7.772
 3928SOL     OW12463   2.153   0.235   8.688
 3928SOL    HW112464   2.111   0.251   8.773
 3928SOL    HW212465   2.183   0.144   8.693
 3929SOL     OW12466   1.907   1.309   8.725
 3929SOL    HW112467   1.942   1.258   8.798
 3929SOL    HW212468   1.915   1.400   8.754
 3930SOL     OW12469   2.586   0.632   8.507
 3930SOL    HW112470   2.659   0.612   8.449
 3930SOL    HW212471   2.560   0.721   8.483
 3931SOL     OW12472   3.595   0.959   9.299
 3931SOL    HW112473   3.547   0.902   9.239
 3931SOL    HW212474   3.536   0.971   9.373
 3932SOL     OW12475   2.160   0.058   8.102
 3932SOL    HW112476   2.151   0.153   8.105
 3932SOL    HW212477   2.172   0.032   8.193
 3933SOL     OW12478   3.474   0.375   7.813
 3933SOL    HW112479   3.505   0.312   7.878
 3933SOL    HW212480   3.452   0.454   7.864
 3934SOL     OW12481   2.890   0.761   8.410
 3934SOL    HW112482   2.888   0.777   8.505
 3934SOL    HW212483   2.861   0.670   8.401
 3935SOL     OW12484   2.845   1.567   9.163
 3935SOL    HW112485   2.829   1.610   9.080
 3935SOL    HW212486   2.887   1.484   9.139
 3936SOL     OW12487   3.718   1.508   9.054
 3936SOL    HW112488   3.734   1.534   8.963
 3936SOL    HW212489   3.799   1.529   9.100
 3937SOL     OW12490   2.216   0.916   9.256
 3937SOL    HW112491   2.298   0.934   9.301
 3937SOL    HW212492   2.239   0.854   9.187
 3938SOL     OW12493   3.394   0.267   7.576
 3938SOL    HW112494   3.322   0.210   7.604
 3938SOL    HW212495   3.422   0.311   7.656
 3939SOL     OW12496   3.156   0.827   7.480
 3939SOL    HW112497   3.197   0.741   7.483
 3939SOL    HW212498   3.186   0.866   7.398
 3940SOL     OW12499   2.926   1.335   8.300
 3940SOL    HW112500   2.929   1.262   8.239
 3940SOL    HW212501   2.989   1.398   8.266
 3941SOL     OW12502   2.172   0.810   8.396
 3941SOL    HW112503   2.265   0.832   8.389
 3941SOL    HW212504   2.171   0.721   8.430
 3942SOL     OW12505   2.199   0.529   8.461
 3942SOL    HW112506   2.157   0.446   8.441
 3942SOL    HW212507   2.274   0.532   8.402
 3943SOL     OW12508   2.997   0.375   9.141
 3943SOL    HW112509   2.949   0.439   9.193
 3943SOL    HW212510   3.083   0.414   9.128
 3944SOL     OW12511   3.022   0.211   8.922
 3944SOL    HW112512   3.014   0.275   8.992
 3944SOL    HW212513   3.057   0.261   8.848
 3945SOL     OW12514   1.867   1.322   7.643
 3945SOL    HW112515   1.780   1.336   7.605
 3945SOL    HW212516   1.865   1.232   7.676
 3946SOL     OW12517   1.949   1.791   8.382
 3946SOL    HW112518   1.918   1.710   8.341
 3946SOL    HW212519   2.040   1.799   8.353
 3947SOL     OW12520   2.360   1.570   8.352
 3947SOL    HW112521   2.429   1.634   8.372
 3947SOL    HW212522   2.403   1.504   8.298
 3948SOL     OW12523   2.849   0.795   8.677
 3948SOL    HW112524   2.902   0.770   8.752
 3948SOL    HW212525   2.763   0.756   8.693
 3949SOL     OW12526   1.896   0.542   8.566
 3949SOL    HW112527   1.975   0.523   8.515
 3949SOL    HW212528   1.927   0.548   8.656
 3950SOL     OW12529   2.047   0.518   9.168
 3950SOL    HW112530   2.120   0.497   9.110
 3950SOL    HW212531   2.004   0.593   9.127
 3951SOL     OW12532   3.238   0.941   9.107
 3951SOL    HW112533   3.259   1.034   9.107
 3951SOL    HW212534   3.236   0.916   9.015
 3952SOL     OW12535   2.673   0.574   7.802
 3952SOL    HW112536   2.677   0.502   7.739
 3952SOL    HW212537   2.599   0.627   7.773
 3953SOL     OW12538   3.504   0.602   8.637
 3953SOL    HW112539   3.493   0.541   8.710
 3953SOL    HW212540   3.591   0.582   8.602
 3954SOL     OW12541   2.113   1.552   9.181
 3954SOL    HW112542   2.083   1.614   9.247
 3954SOL    HW212543   2.108   1.467   9.225
 3955SOL     OW12544   2.556   0.460   8.713
 3955SOL    HW112545   2.511   0.382   8.680
 3955SOL    HW212546   2.558   0.520   8.639
 3956SOL     OW12547   2.794   1.678   8.914
 3956SOL    HW112548   2.765   1.647   8.829
 3956SOL    HW212549   2.790   1.774   8.907
 3957SOL     OW12550   2.328   0.493   7.633
 3957SOL    HW112551   2.387   0.566   7.654
 3957SOL    HW212552   2.242   0.533   7.624
 3958SOL     OW12553   2.010   1.140   8.920
 3958SOL    HW112554   2.013   1.086   8.999
 3958SOL    HW212555   2.026   1.078   8.849
 3959SOL     OW12556   3.190   1.049   8.672
 3959SOL    HW112557   3.214   0.985   8.605
 3959SOL    HW212558   3.118   1.099   8.634
 3960SOL     OW12559   3.172   0.857   7.755
 3960SOL    HW112560   3.096   0.827   7.805
 3960SOL    HW212561   3.147   0.843   7.663
 3961SOL     OW12562   3.631   1.746   8.597
 3961SOL    HW112563   3.691   1.772   8.527
 3961SOL    HW212564   3.607   1.656   8.576
 3962SOL     OW12565   3.104   1.733   8.564
 3962SOL    HW112566   3.185   1.752   8.518
 3962SOL    HW212567   3.107   1.639   8.582
 3963SOL     OW12568   1.947   1.265   8.462
 3963SOL    HW112569   1.933   1.278   8.556
 3963SOL    HW212570   1.872   1.214   8.433
 3964SOL     OW12571   2.541   1.664   9.174
 3964SOL    HW112572   2.488   1.743   9.172
 3964SOL    HW212573   2.602   1.673   9.101
 3965SOL     OW12574   3.580   0.130   7.944
 3965SOL    HW112575   3.653   0.136   7.883
 3965SOL    HW212576   3.602   0.057   8.002
 3966SOL     OW12577   3.252   1.568   7.931
 3966SOL    HW112578   3.313   1.599   7.864
 3966SOL    HW212579   3.204   1.646   7.959
 3967SOL     OW12580   1.997   1.801   9.295
 3967SOL    HW112581   1.945   1.734   9.339
 3967SOL    HW212582   2.046   1.844   9.364
 3968SOL     OW12583   3.140   0.926   8.121
 3968SOL    HW112584   3.213   0.864   8.124
 3968SOL    HW212585   3.174   0.999   8.068
 3969SOL     OW12586   2.679   1.273   8.879
 3969SOL    HW112587   2.652   1.311   8.962
 3969SOL    HW212588   2.608   1.293   8.819
 3970SOL     OW12589   2.533   1.618   7.604
 3970SOL    HW112590   2.544   1.629   7.509
 3970SOL    HW212591   2.480   1.539   7.613
 3971SOL     OW12592   3.493   1.727   8.840
 3971SOL    HW112593   3.541   1.734   8.757
 3971SOL    HW212594   3.479   1.817   8.868
 3972SOL     OW12595   3.701   0.155   8.415
 3972SOL    HW112596   3.732   0.079   8.365
 3972SOL    HW212597   3.614   0.174   8.379
 3973SOL     OW12598   2.128   0.324   8.167
 3973SOL    HW112599   2.043   0.358   8.139
 3973SOL    HW212600   2.120   0.314   8.262
 3974SOL     OW12601   3.068   1.607   7.479
 3974SOL    HW112602   3.060   1.516   7.506
 3974SOL    HW212603   3.003   1.618   7.409
 3975SOL     OW12604   2.686   1.006   8.820
 3975SOL    HW112605   2.729   1.001   8.735
 3975SOL    HW212606   2.687   1.099   8.843
 3976SOL     OW12607   2.778   0.910   7.738
 3976SOL    HW112608   2.840   0.942   7.672
 3976SOL    HW212609   2.823   0.839   7.782
 3977SOL     OW12610   3.356   1.624   7.490
 3977SOL    HW112611   3.261   1.620   7.478
 3977SOL    HW212612   3.391   1.631   7.401
 3978SOL     OW12613   2.232   1.300   8.940
 3978SOL    HW112614   2.219   1.378   8.887
 3978SOL    HW212615   2.154   1.246   8.924
 3979SOL     OW12616   3.474   1.283   8.729
 3979SOL    HW112617   3.532   1.274   8.804
 3979SOL    HW212618   3.413   1.353   8.754
 3980SOL     OW12619   2.911   1.106   8.154
 3980SOL    HW112620   2.841   1.054   8.193
 3980SOL    HW212621   2.973   1.040   8.120
 3981SOL     OW12622   2.869   0.242   8.447
 3981SOL    HW112623   2.875   0.214   8.355
 3981SOL    HW212624   2.862   0.160   8.496
 3982SOL     OW12625   2.465   1.490   7.930
 3982SOL    HW112626   2.506   1.438   7.861
 3982SOL    HW212627   2.395   1.538   7.885
 3983SOL     OW12628   3.582   0.393   8.826
 3983SOL    HW112629   3.654   0.456   8.824
 3983SOL    HW212630   3.611   0.321   8.769
 3984SOL     OW12631   2.120   1.347   7.736
 3984SOL    HW112632   2.027   1.344   7.713
 3984SOL    HW212633   2.122   1.383   7.825
 3985SOL     OW12634   1.974   1.018   9.167
 3985SOL    HW112635   1.898   0.996   9.221
 3985SOL    HW212636   2.049   0.983   9.215
 3986SOL     OW12637   2.521   0.203   8.945
 3986SOL    HW112638   2.601   0.179   8.899
 3986SOL    HW212639   2.550   0.223   9.034
 3987SOL     OW12640   1.943   0.342   7.494
 3987SOL    HW112641   1.871   0.290   7.458
 3987SOL    HW212642   1.958   0.410   7.429
 3988SOL     OW12643   3.294   0.859   8.849
 3988SOL    HW112644   3.245   0.918   8.793
 3988SOL    HW212645   3.383   0.861   8.815
 3989SOL     OW12646   1.928   0.181   7.770
 3989SOL    HW112647   1.925   0.247   7.701
 3989SOL    HW212648   2.003   0.126   7.747
 3990SOL     OW12649   3.042   1.341   7.565
 3990SOL    HW112650   2.951   1.310   7.568
 3990SOL    HW212651   3.070   1.340   7.656
 3991SOL     OW12652   2.480   0.831   8.881
 3991SOL    HW112653   2.536   0.907   8.866
 3991SOL    HW212654   2.542   0.758   8.889
 3992SOL     OW12655   3.347   1.775   8.424
 3992SOL    HW112656   3.372   1.833   8.352
 3992SOL    HW212657   3.428   1.758   8.471
 3993SOL     OW12658   2.578   0.564   9.154
 3993SOL    HW112659   2.614   0.628   9.215
 3993SOL    HW212660   2.614   0.480   9.185
 3994SOL     OW12661   3.331   1.203   9.081
 3994SOL    HW112662   3.319   1.216   9.175
 3994SOL    HW212663   3.425   1.215   9.067
 3995SOL     OW12664   2.246   1.738   9.013
 3995SOL    HW112665   2.158   1.773   8.995
 3995SOL    HW212666   2.229   1.653   9.054
 3996SOL     OW12667   3.533   0.882   8.704
 3996SOL    HW112668   3.525   0.796   8.661
 3996SOL    HW212669   3.524   0.945   8.633
 3997SOL     OW12670   3.080   0.328   7.896
 3997SOL    HW112671   3.145   0.259   7.886
 3997SOL    HW212672   3.107   0.375   7.975
 3998SOL     OW12673   2.450   0.740   8.117
 3998SOL    HW112674   2.492   0.824   8.100
 3998SOL    HW212675   2.382   0.733   8.051
 3999SOL     OW12676   3.627   0.362   9.091
 3999SOL    HW112677   3.610   0.376   8.998
 3999SOL    HW212678   3.549   0.318   9.123
 4000SOL     OW12679   3.607   0.933   8.961
 4000SOL    HW112680   3.606   1.028   8.973
 4000SOL    HW212681   3.591   0.922   8.867
 4001SOL     OW12682   2.725   1.368   7.479
 4001SOL    HW112683   2.685   1.395   7.562
 4001SOL    HW212684   2.744   1.450   7.434
 4002SOL     OW12685   2.521   1.798   8.384
 4002SOL    HW112686   2.520   1.890   8.413
 4002SOL    HW212687   2.613   1.774   8.385
 4003SOL     OW12688   2.728   0.966   8.304
 4003SOL    HW112689   2.778   0.894   8.343
 4003SOL    HW212690   2.695   1.016   8.378
 4004SOL     OW12691   2.942   0.989   7.537
 4004SOL    HW112692   2.920   1.038   7.458
 4004SOL    HW212693   3.017   0.935   7.511
 4005SOL     OW12694   3.718   1.556   8.293
 4005SOL    HW112695   3.641   1.544   8.238
 4005SOL    HW212696   3.711   1.488   8.360
 4006SOL     OW12697   2.086   1.304   9.304
 4006SOL    HW112698   2.018   1.243   9.274
 4006SOL    HW212699   2.068   1.316   9.397
 4007SOL     OW12700   1.946   1.235   8.111
 4007SOL    HW112701   1.947   1.186   8.194
 4007SOL    HW212702   2.015   1.194   8.059
 4008SOL     OW12703   2.542   1.401   9.074
 4008SOL    HW112704   2.462   1.357   9.104
 4008SOL    HW212705   2.537   1.489   9.112
 4009SOL     OW12706   3.671   0.183   8.687
 4009SOL    HW112707   3.671   0.089   8.708
 4009SOL    HW212708   3.688   0.187   8.593
 4010SOL     OW12709   2.297   0.433   7.976
 4010SOL    HW112710   2.320   0.363   7.915
 4010SOL    HW212711   2.242   0.390   8.042
 4011SOL     OW12712   3.563   1.491   8.548
 4011SOL    HW112713   3.482   1.466   8.503
 4011SOL    HW212714   3.577   1.422   8.612
 4012SOL     OW12715   2.190   0.555   8.739
 4012SOL    HW112716   2.246   0.499   8.793
 4012SOL    HW212717   2.210   0.529   8.649
 4013SOL     OW12718   2.687   1.579   8.127
 4013SOL    HW112719   2.679   1.623   8.043
 4013SOL    HW212720   2.610   1.522   8.132
 4014SOL     OW12721   3.294   0.216   8.566
 4014SOL    HW112722   3.331   0.145   8.619
 4014SOL    HW212723   3.243   0.268   8.627
 4015SOL     OW12724   2.859   0.011   8.597
 4015SOL    HW112725   2.814   4.427   8.588
 4015SOL    HW212726   2.951   4.488   8.609
 4016SOL     OW12727   2.633   1.332   7.760
 4016SOL    HW112728   2.600   1.243   7.766
 4016SOL    HW212729   2.716   1.330   7.808
 4017SOL     OW12730   2.483   1.559   8.730
 4017SOL    HW112731   2.486   1.638   8.784
 4017SOL    HW212732   2.571   1.551   8.694
 4018SOL     OW12733   3.204   0.053   7.600
 4018SOL    HW112734   3.243   4.478   7.556
 4018SOL    HW212735   3.129   0.017   7.647
 4019SOL     OW12736   3.177   0.463   8.127
 4019SOL    HW112737   3.115   0.536   8.128
 4019SOL    HW212738   3.164   0.420   8.212
 4020SOL     OW12739   3.447   0.201   8.315
 4020SOL    HW112740   3.387   0.216   8.388
 4020SOL    HW212741   3.450   0.285   8.269
 4021SOL     OW12742   1.906   1.073   7.753
 4021SOL    HW112743   2.000   1.063   7.735
 4021SOL    HW212744   1.877   0.985   7.776
 4022SOL     OW12745   2.744   1.650   7.792
 4022SOL    HW112746   2.673   1.632   7.731
 4022SOL    HW212747   2.714   1.726   7.842
 4023SOL     OW12748   2.092   0.627   9.430
 4023SOL    HW112749   2.004   0.621   9.467
 4023SOL    HW212750   2.082   0.595   9.340
 4024SOL     OW12751   2.072   0.296  10.298
 4024SOL    HW112752   2.102   0.269  10.385
 4024SOL    HW212753   1.989   0.249  10.286
 4025SOL     OW12754   1.870   0.384   9.949
 4025SOL    HW112755   1.784   0.404   9.986
 4025SOL    HW212756   1.855   0.310   9.891
 4026SOL     OW12757   2.429   1.284  10.483
 4026SOL    HW112758   2.341   1.284  10.446
 4026SOL    HW212759   2.442   1.373  10.516
 4027SOL     OW12760   3.421   1.512  10.016
 4027SOL    HW112761   3.377   1.493  10.099
 4027SOL    HW212762   3.349   1.516   9.952
 4028SOL     OW12763   2.995   0.699  10.011
 4028SOL    HW112764   3.042   0.782  10.000
 4028SOL    HW212765   2.945   0.711  10.092
 4029SOL     OW12766   3.627   0.608   9.539
 4029SOL    HW112767   3.608   0.597   9.446
 4029SOL    HW212768   3.595   0.528   9.580
 4030SOL     OW12769   2.622   1.145  10.350
 4030SOL    HW112770   2.551   1.178  10.405
 4030SOL    HW212771   2.654   1.222  10.303
 4031SOL     OW12772   2.713   0.781   0.021
 4031SOL    HW112773   2.721   0.838   0.097
 4031SOL    HW212774   2.747   0.833  11.048
 4032SOL     OW12775   2.549   1.006   9.958
 4032SOL    HW112776   2.612   0.992  10.028
 4032SOL    HW212777   2.478   1.056  10.000
 4033SOL     OW12778   2.194   1.427  10.378
 4033SOL    HW112779   2.120   1.391  10.329
 4033SOL    HW212780   2.244   1.476  10.313
 4034SOL     OW12781   3.325   1.500  10.657
 4034SOL    HW112782   3.377   1.579  10.667
 4034SOL    HW212783   3.278   1.492  10.740
 4035SOL     OW12784   2.309   0.395  10.789
 4035SOL    HW112785   2.386   0.339  10.799
 4035SOL    HW212786   2.236   0.341  10.819
 4036SOL     OW12787   3.474   0.447  10.048
 4036SOL    HW112788   3.394   0.471  10.002
 4036SOL    HW212789   3.496   0.525  10.100
 4037SOL     OW12790   2.079   1.707   9.777
 4037SOL    HW112791   2.104   1.778   9.836
 4037SOL    HW212792   2.152   1.700   9.715
 4038SOL     OW12793   2.094   1.438   9.846
 4038SOL    HW112794   2.073   1.532   9.847
 4038SOL    HW212795   2.031   1.399   9.907
 4039SOL     OW12796   2.118   1.090  10.201
 4039SOL    HW112797   2.114   1.004  10.243
 4039SOL    HW212798   2.059   1.145  10.253
 4040SOL     OW12799   2.474   1.790  10.738
 4040SOL    HW112800   2.395   1.771  10.787
 4040SOL    HW212801   2.498   1.879  10.763
 4041SOL     OW12802   2.450   0.980   9.442
 4041SOL    HW112803   2.494   1.032   9.374
 4041SOL    HW212804   2.491   1.009   9.524
 4042SOL     OW12805   3.418   0.132  10.780
 4042SOL    HW112806   3.466   0.191  10.722
 4042SOL    HW212807   3.471   0.129  10.860
 4043SOL     OW12808   1.977   0.652   9.869
 4043SOL    HW112809   1.948   0.563   9.891
 4043SOL    HW212810   1.969   0.700   9.951
 4044SOL     OW12811   3.703   1.761   9.646
 4044SOL    HW112812   3.764   1.731   9.715
 4044SOL    HW212813   3.730   1.851   9.628
 4045SOL     OW12814   1.894   1.596   9.434
 4045SOL    HW112815   1.875   1.504   9.452
 4045SOL    HW212816   1.867   1.643   9.513
 4046SOL     OW12817   3.553   0.921   9.949
 4046SOL    HW112818   3.637   0.879   9.930
 4046SOL    HW212819   3.531   0.969   9.870
 4047SOL     OW12820   3.507   1.108   9.739
 4047SOL    HW112821   3.593   1.116   9.697
 4047SOL    HW212822   3.512   1.168   9.814
 4048SOL     OW12823   1.987   0.727  10.913
 4048SOL    HW112824   2.080   0.747  10.909
 4048SOL    HW212825   1.943   0.811  10.907
 4049SOL     OW12826   2.475   1.383  10.045
 4049SOL    HW112827   2.429   1.299  10.054
 4049SOL    HW212828   2.459   1.409   9.955
 4050SOL     OW12829   3.158   1.238  10.751
 4050SOL    HW112830   3.182   1.177  10.681
 4050SOL    HW212831   3.214   1.212  10.825
 4051SOL     OW12832   2.677   0.012   9.857
 4051SOL    HW112833   2.712   0.098   9.833
 4051SOL    HW212834   2.582   0.022   9.850
 4052SOL     OW12835   2.053   0.967  10.577
 4052SOL    HW112836   2.137   0.923  10.561
 4052SOL    HW212837   1.988   0.910  10.537
 4053SOL     OW12838   3.394   0.991   9.507
 4053SOL    HW112839   3.324   0.934   9.537
 4053SOL    HW212840   3.433   1.026   9.587
 4054SOL     OW12841   3.057   1.805  10.926
 4054SOL    HW112842   3.059   1.867  10.853
 4054SOL    HW212843   3.065   1.719  10.885
 4055SOL     OW12844   2.196   0.275  11.088
 4055SOL    HW112845   2.252   0.338   0.032
 4055SOL    HW212846   2.112   0.281   0.035
 4056SOL     OW12847   3.328   1.420  10.262
 4056SOL    HW112848   3.259   1.434  10.327
 4056SOL    HW212849   3.316   1.329  10.235
 4057SOL     OW12850   3.523   1.735   9.888
 4057SOL    HW112851   3.500   1.706   9.799
 4057SOL    HW212852   3.497   1.661   9.944
 4058SOL     OW12853   2.456   0.724   9.575
 4058SOL    HW112854   2.463   0.804   9.523
 4058SOL    HW212855   2.390   0.743   9.641
 4059SOL     OW12856   3.152   0.360  10.245
 4059SOL    HW112857   3.063   0.329  10.228
 4059SOL    HW212858   3.189   0.296  10.306
 4060SOL     OW12859   3.443   1.669   9.619
 4060SOL    HW112860   3.533   1.702   9.613
 4060SOL    HW212861   3.418   1.652   9.528
 4061SOL     OW12862   2.658   0.617  10.766
 4061SOL    HW112863   2.626   0.593  10.853
 4061SOL    HW212864   2.617   0.553  10.707
 4062SOL     OW12865   2.828   0.898  10.900
 4062SOL    HW112866   2.876   0.825  10.861
 4062SOL    HW212867   2.777   0.934  10.827
 4063SOL     OW12868   2.857   0.418  10.547
 4063SOL    HW112869   2.770   0.429  10.586
 4063SOL    HW212870   2.842   0.365  10.469
 4064SOL     OW12871   2.911   0.698   9.737
 4064SOL    HW112872   2.926   0.690   9.832
 4064SOL    HW212873   2.829   0.651   9.723
 4065SOL     OW12874   1.951   0.820  10.086
 4065SOL    HW112875   2.032   0.813  10.136
 4065SOL    HW212876   1.908   0.898  10.121
 4066SOL     OW12877   1.993   1.833  10.895
 4066SOL    HW112878   1.965   1.808  10.983
 4066SOL    HW212879   1.912   1.852  10.849
 4067SOL     OW12880   2.717   0.368   9.491
 4067SOL    HW112881   2.791   0.403   9.441
 4067SOL    HW212882   2.733   0.274   9.495
 4068SOL     OW12883   3.238   1.143   9.852
 4068SOL    HW112884   3.316   1.129   9.799
 4068SOL    HW212885   3.185   1.205   9.801
 4069SOL     OW12886   2.402   0.202  10.211
 4069SOL    HW112887   2.422   0.221  10.303
 4069SOL    HW212888   2.393   0.289  10.171
 4070SOL     OW12889   2.870   1.446   9.784
 4070SOL    HW112890   2.830   1.517   9.734
 4070SOL    HW212891   2.854   1.468   9.875
 4071SOL     OW12892   2.218   1.798  10.177
 4071SOL    HW112893   2.251   1.709  10.181
 4071SOL    HW212894   2.293   1.853  10.200
 4072SOL     OW12895   3.660   1.061  10.177
 4072SOL    HW112896   3.604   1.042  10.102
 4072SOL    HW212897   3.599   1.065  10.251
 4073SOL     OW12898   3.088   1.540  10.825
 4073SOL    HW112899   3.097   1.452  10.863
 4073SOL    HW212900   3.030   1.527  10.750
 4074SOL     OW12901   2.183   0.956   9.559
 4074SOL    HW112902   2.265   0.975   9.513
 4074SOL    HW212903   2.152   0.874   9.519
 4075SOL     OW12904   3.339   0.740  10.035
 4075SOL    HW112905   3.326   0.694  10.118
 4075SOL    HW212906   3.416   0.795  10.051
 4076SOL     OW12907   2.314   1.268  11.053
 4076SOL    HW112908   2.287   1.277  10.962
 4076SOL    HW212909   2.250   1.209  11.092
 4077SOL     OW12910   2.983   1.777   9.542
 4077SOL    HW112911   2.911   1.734   9.588
 4077SOL    HW212912   3.005   1.717   9.470
 4078SOL     OW12913   2.056   0.267  10.813
 4078SOL    HW112914   1.986   0.333  10.805
 4078SOL    HW212915   2.070   0.258  10.907
 4079SOL     OW12916   3.491   1.379   9.397
 4079SOL    HW112917   3.450   1.464   9.382
 4079SOL    HW212918   3.422   1.316   9.379
 4080SOL     OW12919   2.329   1.734   9.632
 4080SOL    HW112920   2.371   1.793   9.695
 4080SOL    HW212921   2.401   1.705   9.575
 4081SOL     OW12922   3.279   0.134   9.728
 4081SOL    HW112923   3.262   0.085   9.648
 4081SOL    HW212924   3.374   0.130   9.739
 4082SOL     OW12925   2.104   1.781  10.550
 4082SOL    HW112926   2.168   1.724  10.592
 4082SOL    HW212927   2.109   1.759  10.457
 4083SOL     OW12928   2.799   1.697  10.212
 4083SOL    HW112929   2.878   1.646  10.229
 4083SOL    HW212930   2.754   1.650  10.142
 4084SOL     OW12931   2.253   0.695   9.787
 4084SOL    HW112932   2.277   0.603   9.798
 4084SOL    HW212933   2.159   0.698   9.806
 4085SOL     OW12934   2.487   0.123   9.431
 4085SOL    HW112935   2.575   0.086   9.439
 4085SOL    HW212936   2.455   0.088   9.348
 4086SOL     OW12937   2.624   0.266  11.045
 4086SOL    HW112938   2.692   0.207  11.077
 4086SOL    HW212939   2.583   0.301   0.024
 4087SOL     OW12940   2.738   1.521  10.503
 4087SOL    HW112941   2.723   1.486  10.416
 4087SOL    HW212942   2.809   1.469  10.539
 4088SOL     OW12943   3.206   0.589  10.752
 4088SOL    HW112944   3.255   0.571  10.833
 4088SOL    HW212945   3.232   0.678  10.728
 4089SOL     OW12946   2.676   1.398  10.247
 4089SOL    HW112947   2.759   1.387  10.202
 4089SOL    HW212948   2.610   1.395  10.177
 4090SOL     OW12949   2.785   0.516  10.211
 4090SOL    HW112950   2.768   0.514  10.117
 4090SOL    HW212951   2.824   0.431  10.231
 4091SOL     OW12952   2.415   0.074   9.830
 4091SOL    HW112953   2.326   0.049   9.854
 4091SOL    HW212954   2.404   0.141   9.763
 4092SOL     OW12955   3.291   1.198   9.351
 4092SOL    HW112956   3.321   1.122   9.401
 4092SOL    HW212957   3.204   1.218   9.388
 4093SOL     OW12958   2.158   0.071   9.503
 4093SOL    HW112959   2.236   0.122   9.485
 4093SOL    HW212960   2.188   4.500   9.560
 4094SOL     OW12961   2.812   0.240   9.781
 4094SOL    HW112962   2.760   0.291   9.718
 4094SOL    HW212963   2.901   0.276   9.773
 4095SOL     OW12964   2.940   0.683  10.773
 4095SOL    HW112965   2.867   0.621  10.772
 4095SOL    HW212966   3.018   0.628  10.765
 4096SOL     OW12967   3.086   1.570  10.104
 4096SOL    HW112968   3.104   1.637  10.038
 4096SOL    HW212969   3.155   1.582  10.170
 4097SOL     OW12970   2.330   1.148  10.046
 4097SOL    HW112971   2.259   1.129  10.108
 4097SOL    HW212972   2.291   1.131   9.960
 4098SOL     OW12973   3.133   1.795   9.916
 4098SOL    HW112974   3.177   1.856   9.858
 4098SOL    HW212975   3.067   1.848   9.962
 4099SOL     OW12976   2.893   0.549   9.325
 4099SOL    HW112977   2.844   0.630   9.310
 4099SOL    HW212978   2.951   0.569   9.399
 4100SOL     OW12979   1.941   0.550  10.706
 4100SOL    HW112980   2.031   0.554  10.676
 4100SOL    HW212981   1.936   0.615  10.776
 4101SOL     OW12982   2.425   0.242  10.476
 4101SOL    HW112983   2.449   0.155  10.509
 4101SOL    HW212984   2.333   0.253  10.502
 4102SOL     OW12985   2.728   0.502   9.936
 4102SOL    HW112986   2.679   0.544   9.865
 4102SOL    HW212987   2.706   0.409   9.929
 4103SOL     OW12988   2.830   0.030  10.087
 4103SOL    HW112989   2.781   0.026  10.005
 4103SOL    HW212990   2.841   4.438  10.112
 4104SOL     OW12991   3.297   1.164  10.167
 4104SOL    HW112992   3.230   1.095  10.166
 4104SOL    HW212993   3.321   1.176  10.076
 4105SOL     OW12994   3.328   0.604  10.288
 4105SOL    HW112995   3.277   0.523  10.290
 4105SOL    HW212996   3.388   0.597  10.363
 4106SOL     OW12997   3.709   0.818   9.692
 4106SOL    HW112998   3.764   0.766   9.750
 4106SOL    HW212999   3.680   0.757   9.625
 4107SOL     OW13000   2.353   1.416   9.470
 4107SOL    HW113001   2.279   1.386   9.522
 4107SOL    HW213002   2.335   1.385   9.381
 4108SOL     OW13003   3.531   1.265   9.957
 4108SOL    HW113004   3.625   1.269   9.971
 4108SOL    HW213005   3.499   1.353   9.979
 4109SOL     OW13006   3.256   0.570   9.380
 4109SOL    HW113007   3.195   0.554   9.452
 4109SOL    HW213008   3.342   0.549   9.416
 4110SOL     OW13009   2.386   0.266   9.634
 4110SOL    HW113010   2.430   0.213   9.567
 4110SOL    HW213011   2.369   0.350   9.592
 4111SOL     OW13012   3.622   1.229  10.872
 4111SOL    HW113013   3.713   1.200  10.876
 4111SOL    HW213014   3.623   1.316  10.913
 4112SOL     OW13015   2.926   1.355  10.651
 4112SOL    HW113016   2.849   1.321  10.695
 4112SOL    HW213017   2.999   1.306  10.690
 4113SOL     OW13018   2.989   1.206  10.417
 4113SOL    HW113019   2.924   1.239  10.479
 4113SOL    HW213020   2.957   1.232  10.331
 4114SOL     OW13021   3.492   1.100  10.389
 4114SOL    HW113022   3.488   1.161  10.462
 4114SOL    HW213023   3.412   1.116  10.339
 4115SOL     OW13024   2.762   0.127  10.699
 4115SOL    HW113025   2.789   0.088  10.616
 4115SOL    HW213026   2.844   0.141  10.747
 4116SOL     OW13027   2.571   1.061   9.682
 4116SOL    HW113028   2.557   1.046   9.775
 4116SOL    HW213029   2.646   1.007   9.659
 4117SOL     OW13030   2.280   0.814  10.561
 4117SOL    HW113031   2.349   0.823  10.627
 4117SOL    HW213032   2.245   0.726  10.575
 4118SOL     OW13033   3.132   0.381  10.581
 4118SOL    HW113034   3.162   0.459  10.628
 4118SOL    HW213035   3.043   0.403  10.552
 4119SOL     OW13036   1.929   1.573  10.657
 4119SOL    HW113037   1.896   1.648  10.607
 4119SOL    HW213038   2.024   1.582  10.656
 4120SOL     OW13039   2.215   1.107   9.802
 4120SOL    HW113040   2.218   1.180   9.740
 4120SOL    HW213041   2.213   1.029   9.746
 4121SOL     OW13042   2.420   0.532  10.169
 4121SOL    HW113043   2.434   0.590  10.095
 4121SOL    HW213044   2.482   0.561  10.236
 4122SOL     OW13045   3.110   1.348   9.699
 4122SOL    HW113046   3.165   1.420   9.730
 4122SOL    HW213047   3.023   1.369   9.733
 4123SOL     OW13048   3.139   1.457  10.454
 4123SOL    HW113049   3.195   1.460  10.531
 4123SOL    HW213050   3.086   1.378  10.465
 4124SOL     OW13051   3.445   0.625   9.786
 4124SOL    HW113052   3.399   0.677   9.852
 4124SOL    HW213053   3.489   0.688   9.730
 4125SOL     OW13054   2.212   1.519  10.629
 4125SOL    HW113055   2.196   1.480  10.543
 4125SOL    HW213056   2.306   1.535  10.631
 4126SOL     OW13057   2.275   0.736  10.906
 4126SOL    HW113058   2.337   0.781  10.849
 4126SOL    HW213059   2.314   0.649  10.919
 4127SOL     OW13060   3.454   0.762  10.971
 4127SOL    HW113061   3.377   0.818  10.965
 4127SOL    HW213062   3.523   0.811  10.927
 4128SOL     OW13063   2.445   0.872  10.341
 4128SOL    HW113064   2.473   0.964  10.338
 4128SOL    HW213065   2.387   0.867  10.417
 4129SOL     OW13066   3.221   0.860  10.346
 4129SOL    HW113067   3.141   0.853  10.295
 4129SOL    HW213068   3.261   0.773  10.340
 4130SOL     OW13069   3.068   0.535   9.576
 4130SOL    HW113070   3.074   0.454   9.627
 4130SOL    HW213071   3.025   0.597   9.634
 4131SOL     OW13072   2.152   0.234  10.549
 4131SOL    HW113073   2.115   0.252  10.635
 4131SOL    HW213074   2.182   0.143  10.554
 4132SOL     OW13075   1.911   1.311  10.586
 4132SOL    HW113076   1.939   1.258  10.660
 4132SOL    HW213077   1.915   1.401  10.618
 4133SOL     OW13078   2.587   0.632  10.370
 4133SOL    HW113079   2.659   0.612  10.310
 4133SOL    HW213080   2.559   0.721  10.345
 4134SOL     OW13081   2.160   0.058   9.964
 4134SOL    HW113082   2.151   0.154   9.968
 4134SOL    HW213083   2.172   0.032  10.055
 4135SOL     OW13084   3.474   0.375   9.675
 4135SOL    HW113085   3.505   0.312   9.740
 4135SOL    HW213086   3.452   0.454   9.726
 4136SOL     OW13087   2.889   0.761  10.272
 4136SOL    HW113088   2.888   0.777  10.366
 4136SOL    HW213089   2.861   0.670  10.263
 4137SOL     OW13090   2.835   1.572  11.004
 4137SOL    HW113091   2.821   1.621  10.924
 4137SOL    HW213092   2.869   1.487  10.975
 4138SOL     OW13093   3.720   1.496  10.912
 4138SOL    HW113094   3.734   1.530  10.824
 4138SOL    HW213095   3.788   1.538  10.965
 4139SOL     OW13096   2.222   0.920  11.094
 4139SOL    HW113097   2.307   0.933   0.037
 4139SOL    HW213098   2.239   0.853  11.028
 4140SOL     OW13099   3.394   0.267   9.438
 4140SOL    HW113100   3.322   0.210   9.466
 4140SOL    HW213101   3.422   0.311   9.518
 4141SOL     OW13102   3.156   0.827   9.342
 4141SOL    HW113103   3.197   0.741   9.345
 4141SOL    HW213104   3.186   0.866   9.260
 4142SOL     OW13105   2.927   1.335  10.163
 4142SOL    HW113106   2.930   1.262  10.101
 4142SOL    HW213107   2.989   1.398  10.128
 4143SOL     OW13108   2.172   0.810  10.258
 4143SOL    HW113109   2.265   0.831  10.251
 4143SOL    HW213110   2.170   0.721  10.293
 4144SOL     OW13111   2.199   0.529  10.322
 4144SOL    HW113112   2.156   0.445  10.303
 4144SOL    HW213113   2.274   0.532  10.264
 4145SOL     OW13114   3.018   0.216  10.771
 4145SOL    HW113115   3.027   0.271  10.849
 4145SOL    HW213116   3.054   0.269  10.700
 4146SOL     OW13117   1.867   1.322   9.505
 4146SOL    HW113118   1.780   1.336   9.467
 4146SOL    HW213119   1.865   1.232   9.538
 4147SOL     OW13120   1.949   1.792  10.244
 4147SOL    HW113121   1.918   1.711  10.203
 4147SOL    HW213122   2.041   1.798  10.219
 4148SOL     OW13123   2.362   1.570  10.215
 4148SOL    HW113124   2.430   1.635  10.232
 4148SOL    HW213125   2.405   1.505  10.160
 4149SOL     OW13126   2.849   0.796  10.539
 4149SOL    HW113127   2.901   0.771  10.615
 4149SOL    HW213128   2.763   0.756  10.554
 4150SOL     OW13129   1.896   0.543  10.428
 4150SOL    HW113130   1.975   0.523  10.378
 4150SOL    HW213131   1.926   0.549  10.519
 4151SOL     OW13132   2.673   0.574   9.664
 4151SOL    HW113133   2.677   0.502   9.601
 4151SOL    HW213134   2.599   0.627   9.635
 4152SOL     OW13135   3.503   0.601  10.498
 4152SOL    HW113136   3.494   0.542  10.572
 4152SOL    HW213137   3.591   0.582  10.463
 4153SOL     OW13138   2.120   1.563  11.056
 4153SOL    HW113139   2.063   1.601   0.023
 4153SOL    HW213140   2.117   1.469  11.072
 4154SOL     OW13141   2.560   0.458  10.575
 4154SOL    HW113142   2.512   0.382  10.543
 4154SOL    HW213143   2.560   0.519  10.501
 4155SOL     OW13144   2.801   1.682  10.760
 4155SOL    HW113145   2.765   1.650  10.677
 4155SOL    HW213146   2.790   1.777  10.756
 4156SOL     OW13147   2.328   0.493   9.495
 4156SOL    HW113148   2.387   0.566   9.516
 4156SOL    HW213149   2.242   0.533   9.485
 4157SOL     OW13150   2.016   1.138  10.780
 4157SOL    HW113151   2.010   1.082  10.858
 4157SOL    HW213152   2.029   1.077  10.708
 4158SOL     OW13153   3.188   1.053  10.538
 4158SOL    HW113154   3.215   0.988  10.474
 4158SOL    HW213155   3.117   1.101  10.496
 4159SOL     OW13156   3.172   0.857   9.617
 4159SOL    HW113157   3.096   0.827   9.667
 4159SOL    HW213158   3.147   0.843   9.525
 4160SOL     OW13159   3.633   1.747  10.461
 4160SOL    HW113160   3.692   1.772  10.389
 4160SOL    HW213161   3.608   1.657  10.440
 4161SOL     OW13162   3.104   1.734  10.426
 4161SOL    HW113163   3.185   1.753  10.380
 4161SOL    HW213164   3.107   1.639  10.443
 4162SOL     OW13165   1.946   1.266  10.323
 4162SOL    HW113166   1.934   1.278  10.417
 4162SOL    HW213167   1.872   1.213  10.295
 4163SOL     OW13168   3.580   0.130   9.806
 4163SOL    HW113169   3.653   0.136   9.745
 4163SOL    HW213170   3.603   0.057   9.864
 4164SOL     OW13171   3.252   1.568   9.793
 4164SOL    HW113172   3.313   1.599   9.726
 4164SOL    HW213173   3.204   1.646   9.821
 4165SOL     OW13174   3.140   0.927   9.983
 4165SOL    HW113175   3.213   0.864   9.986
 4165SOL    HW213176   3.174   0.999   9.930
 4166SOL     OW13177   2.682   1.273  10.739
 4166SOL    HW113178   2.652   1.307  10.823
 4166SOL    HW213179   2.611   1.293  10.678
 4167SOL     OW13180   2.533   1.618   9.466
 4167SOL    HW113181   2.544   1.629   9.371
 4167SOL    HW213182   2.480   1.539   9.475
 4168SOL     OW13183   3.488   1.720  10.699
 4168SOL    HW113184   3.541   1.734  10.621
 4168SOL    HW213185   3.473   1.808  10.734
 4169SOL     OW13186   3.701   0.155  10.277
 4169SOL    HW113187   3.732   0.079  10.228
 4169SOL    HW213188   3.614   0.174  10.241
 4170SOL     OW13189   2.128   0.324  10.029
 4170SOL    HW113190   2.043   0.358  10.001
 4170SOL    HW213191   2.120   0.314  10.124
 4171SOL     OW13192   3.068   1.607   9.341
 4171SOL    HW113193   3.060   1.516   9.369
 4171SOL    HW213194   3.003   1.618   9.272
 4172SOL     OW13195   2.687   1.005  10.685
 4172SOL    HW113196   2.728   0.999  10.599
 4172SOL    HW213197   2.689   1.099  10.706
 4173SOL     OW13198   2.778   0.911   9.600
 4173SOL    HW113199   2.840   0.942   9.534
 4173SOL    HW213200   2.824   0.839   9.644
 4174SOL     OW13201   3.356   1.624   9.352
 4174SOL    HW113202   3.261   1.620   9.340
 4174SOL    HW213203   3.391   1.631   9.263
 4175SOL     OW13204   2.230   1.304  10.806
 4175SOL    HW113205   2.218   1.379  10.747
 4175SOL    HW213206   2.156   1.246  10.786
 4176SOL     OW13207   3.475   1.282  10.593
 4176SOL    HW113208   3.531   1.271  10.670
 4176SOL    HW213209   3.417   1.356  10.616
 4177SOL     OW13210   2.911   1.106  10.016
 4177SOL    HW113211   2.840   1.054  10.055
 4177SOL    HW213212   2.972   1.041   9.982
 4178SOL     OW13213   2.870   0.242  10.309
 4178SOL    HW113214   2.876   0.215  10.218
 4178SOL    HW213215   2.862   0.160  10.358
 4179SOL     OW13216   2.465   1.490   9.792
 4179SOL    HW113217   2.506   1.438   9.723
 4179SOL    HW213218   2.395   1.538   9.747
 4180SOL     OW13219   3.579   0.394  10.688
 4180SOL    HW113220   3.652   0.457  10.689
 4180SOL    HW213221   3.609   0.324  10.630
 4181SOL     OW13222   2.121   1.347   9.598
 4181SOL    HW113223   2.028   1.345   9.575
 4181SOL    HW213224   2.123   1.382   9.687
 4182SOL     OW13225   1.976   1.010  11.020
 4182SOL    HW113226   1.905   0.997  11.083
 4182SOL    HW213227   2.055   0.981  11.065
 4183SOL     OW13228   2.516   0.188  10.808
 4183SOL    HW113229   2.594   0.167  10.757
 4183SOL    HW213230   2.550   0.223  10.891
 4184SOL     OW13231   1.943   0.342   9.356
 4184SOL    HW113232   1.871   0.290   9.320
 4184SOL    HW213233   1.958   0.410   9.291
 4185SOL     OW13234   3.292   0.849  10.710
 4185SOL    HW113235   3.244   0.916  10.661
 4185SOL    HW213236   3.383   0.858  10.680
 4186SOL     OW13237   1.928   0.181   9.632
 4186SOL    HW113238   1.925   0.247   9.563
 4186SOL    HW213239   2.003   0.126   9.609
 4187SOL     OW13240   3.041   1.341   9.427
 4187SOL    HW113241   2.951   1.311   9.430
 4187SOL    HW213242   3.070   1.340   9.518
 4188SOL     OW13243   2.481   0.830  10.743
 4188SOL    HW113244   2.537   0.907  10.728
 4188SOL    HW213245   2.542   0.757  10.751
 4189SOL     OW13246   3.346   1.775  10.286
 4189SOL    HW113247   3.372   1.832  10.214
 4189SOL    HW213248   3.427   1.758  10.334
 4190SOL     OW13249   2.576   0.565  11.018
 4190SOL    HW113250   2.610   0.637  11.070
 4190SOL    HW213251   2.629   0.489  11.044
 4191SOL     OW13252   2.249   1.734  10.874
 4191SOL    HW113253   2.167   1.783  10.862
 4191SOL    HW213254   2.224   1.659  10.928
 4192SOL     OW13255   3.534   0.882  10.567
 4192SOL    HW113256   3.524   0.797  10.524
 4192SOL    HW213257   3.525   0.946  10.496
 4193SOL     OW13258   3.080   0.328   9.758
 4193SOL    HW113259   3.145   0.259   9.748
 4193SOL    HW213260   3.107   0.375   9.837
 4194SOL     OW13261   2.450   0.740   9.979
 4194SOL    HW113262   2.492   0.824   9.962
 4194SOL    HW213263   2.382   0.733   9.913
 4195SOL     OW13264   3.616   0.315  10.949
 4195SOL    HW113265   3.598   0.355  10.864
 4195SOL    HW213266   3.538   0.331  11.001
 4196SOL     OW13267   3.611   0.935  10.825
 4196SOL    HW113268   3.604   1.030  10.839
 4196SOL    HW213269   3.593   0.923  10.732
 4197SOL     OW13270   2.725   1.368   9.341
 4197SOL    HW113271   2.685   1.394   9.424
 4197SOL    HW213272   2.743   1.451   9.296
 4198SOL     OW13273   2.516   1.804  10.246
 4198SOL    HW113274   2.504   1.882  10.299
 4198SOL    HW213275   2.611   1.788  10.247
 4199SOL     OW13276   2.728   0.966  10.166
 4199SOL    HW113277   2.778   0.894  10.205
 4199SOL    HW213278   2.695   1.016  10.241
 4200SOL     OW13279   2.942   0.989   9.399
 4200SOL    HW113280   2.920   1.038   9.320
 4200SOL    HW213281   3.017   0.935   9.373
 4201SOL     OW13282   3.718   1.556  10.155
 4201SOL    HW113283   3.641   1.544  10.100
 4201SOL    HW213284   3.711   1.488  10.221
 4202SOL     OW13285   1.945   1.235   9.974
 4202SOL    HW113286   1.946   1.186  10.056
 4202SOL    HW213287   2.014   1.195   9.921
 4203SOL     OW13288   2.541   1.394  10.937
 4203SOL    HW113289   2.467   1.344  10.972
 4203SOL    HW213290   2.510   1.485  10.937
 4204SOL     OW13291   3.668   0.181  10.550
 4204SOL    HW113292   3.677   0.088  10.569
 4204SOL    HW213293   3.685   0.188  10.456
 4205SOL     OW13294   2.297   0.433   9.838
 4205SOL    HW113295   2.320   0.363   9.777
 4205SOL    HW213296   2.242   0.390   9.904
 4206SOL     OW13297   3.563   1.492  10.410
 4206SOL    HW113298   3.482   1.465  10.365
 4206SOL    HW213299   3.579   1.422  10.474
 4207SOL     OW13300   2.189   0.556  10.601
 4207SOL    HW113301   2.243   0.499  10.656
 4207SOL    HW213302   2.209   0.528  10.511
 4208SOL     OW13303   2.688   1.578   9.989
 4208SOL    HW113304   2.680   1.625   9.906
 4208SOL    HW213305   2.610   1.522   9.993
 4209SOL     OW13306   3.293   0.215  10.429
 4209SOL    HW113307   3.333   0.147  10.483
 4209SOL    HW213308   3.244   0.268  10.490
 4210SOL     OW13309   2.858   0.011  10.458
 4210SOL    HW113310   2.813   4.428  10.448
 4210SOL    HW213311   2.950   4.488  10.472
 4211SOL     OW13312   2.633   1.332   9.622
 4211SOL    HW113313   2.600   1.243   9.628
 4211SOL    HW213314   2.716   1.330   9.670
 4212SOL     OW13315   2.482   1.557  10.595
 4212SOL    HW113316   2.484   1.640  10.643
 4212SOL    HW213317   2.570   1.550  10.557
 4213SOL     OW13318   3.204   0.053   9.462
 4213SOL    HW113319   3.243   4.478   9.418
 4213SOL    HW213320   3.128   0.017   9.508
 4214SOL     OW13321   3.176   0.463   9.990
 4214SOL    HW113322   3.115   0.536   9.990
 4214SOL    HW213323   3.164   0.420  10.074
 4215SOL     OW13324   3.448   0.201  10.177
 4215SOL    HW113325   3.387   0.216  10.250
 4215SOL    HW213326   3.450   0.285  10.131
 4216SOL     OW13327   1.906   1.073   9.615
 4216SOL    HW113328   2.000   1.063   9.597
 4216SOL    HW213329   1.877   0.985   9.638
 4217SOL     OW13330   2.744   1.650   9.654
 4217SOL    HW113331   2.673   1.632   9.593
 4217SOL    HW213332   2.714   1.726   9.704
 4218SOL     OW13333   2.068   2.522   0.105
 4218SOL    HW113334   1.992   2.487   0.151
 4218SOL    HW213335   2.107   2.446   0.062
 4219SOL     OW13336   1.864   2.248   0.629
 4219SOL    HW113337   1.784   2.267   0.679
 4219SOL    HW213338   1.847   2.162   0.590
 4220SOL     OW13339   2.428   3.145   1.173
 4220SOL    HW113340   2.341   3.149   1.134
 4220SOL    HW213341   2.443   3.234   1.207
 4221SOL     OW13342   3.420   3.373   0.706
 4221SOL    HW113343   3.377   3.355   0.789
 4221SOL    HW213344   3.349   3.378   0.642
 4222SOL     OW13345   2.991   2.560   0.703
 4222SOL    HW113346   3.041   2.641   0.689
 4222SOL    HW213347   2.946   2.574   0.786
 4223SOL     OW13348   3.635   2.465   0.220
 4223SOL    HW113349   3.586   2.465   0.138
 4223SOL    HW213350   3.596   2.394   0.272
 4224SOL     OW13351   2.620   3.006   1.038
 4224SOL    HW113352   2.550   3.039   1.094
 4224SOL    HW213353   2.654   3.083   0.993
 4225SOL     OW13354   2.723   2.642   1.821
 4225SOL    HW113355   2.715   2.714   1.884
 4225SOL    HW213356   2.749   2.685   1.739
 4226SOL     OW13357   2.550   2.870   0.648
 4226SOL    HW113358   2.613   2.854   0.718
 4226SOL    HW213359   2.479   2.919   0.690
 4227SOL     OW13360   2.570   3.014   1.809
 4227SOL    HW113361   2.618   3.093   1.834
 4227SOL    HW213362   2.487   3.046   1.776
 4228SOL     OW13363   2.193   3.290   1.068
 4228SOL    HW113364   2.121   3.253   1.017
 4228SOL    HW213365   2.244   3.340   1.004
 4229SOL     OW13366   3.323   3.360   1.351
 4229SOL    HW113367   3.369   3.444   1.361
 4229SOL    HW213368   3.267   3.355   1.428
 4230SOL     OW13369   3.475   2.311   0.739
 4230SOL    HW113370   3.398   2.337   0.688
 4230SOL    HW213371   3.494   2.388   0.793
 4231SOL     OW13372   2.081   3.575   0.475
 4231SOL    HW113373   2.104   3.653   0.526
 4231SOL    HW213374   2.149   3.569   0.408
 4232SOL     OW13375   2.998   3.203   1.692
 4232SOL    HW113376   3.038   3.199   1.778
 4232SOL    HW213377   2.945   3.123   1.686
 4233SOL     OW13378   2.091   3.302   0.534
 4233SOL    HW113379   2.075   3.396   0.537
 4233SOL    HW213380   2.028   3.265   0.596
 4234SOL     OW13381   2.117   2.954   0.890
 4234SOL    HW113382   2.113   2.867   0.931
 4234SOL    HW213383   2.058   3.008   0.943
 4235SOL     OW13384   2.477   3.652   1.432
 4235SOL    HW113385   2.394   3.635   1.476
 4235SOL    HW213386   2.499   3.742   1.455
 4236SOL     OW13387   2.449   2.845   0.138
 4236SOL    HW113388   2.485   2.906   0.074
 4236SOL    HW213389   2.491   2.870   0.220
 4237SOL     OW13390   3.458   1.983   1.469
 4237SOL    HW113391   3.458   2.063   1.417
 4237SOL    HW213392   3.446   2.014   1.559
 4238SOL     OW13393   1.983   2.505   0.562
 4238SOL    HW113394   1.946   2.420   0.582
 4238SOL    HW213395   1.969   2.557   0.641
 4239SOL     OW13396   3.703   3.623   0.336
 4239SOL    HW113397   3.764   3.593   0.403
 4239SOL    HW213398   3.731   3.713   0.317
 4240SOL     OW13399   1.905   3.464   0.120
 4240SOL    HW113400   1.878   3.375   0.143
 4240SOL    HW213401   1.878   3.517   0.195
 4241SOL     OW13402   3.550   2.779   0.638
 4241SOL    HW113403   3.637   2.742   0.621
 4241SOL    HW213404   3.531   2.831   0.561
 4242SOL     OW13405   3.508   2.968   0.432
 4242SOL    HW113406   3.590   2.981   0.384
 4242SOL    HW213407   3.513   3.030   0.505
 4243SOL     OW13408   1.983   2.598   1.583
 4243SOL    HW113409   2.071   2.616   1.615
 4243SOL    HW213410   1.936   2.680   1.596
 4244SOL     OW13411   2.475   3.246   0.735
 4244SOL    HW113412   2.429   3.162   0.744
 4244SOL    HW213413   2.458   3.273   0.645
 4245SOL     OW13414   3.152   3.101   1.424
 4245SOL    HW113415   3.184   3.033   1.364
 4245SOL    HW213416   3.208   3.093   1.501
 4246SOL     OW13417   2.674   1.862   0.504
 4246SOL    HW113418   2.714   1.948   0.490
 4246SOL    HW213419   2.580   1.881   0.515
 4247SOL     OW13420   2.053   2.831   1.269
 4247SOL    HW113421   2.136   2.788   1.251
 4247SOL    HW213422   1.987   2.776   1.228
 4248SOL     OW13423   3.382   2.861   0.201
 4248SOL    HW113424   3.318   2.798   0.235
 4248SOL    HW213425   3.430   2.891   0.278
 4249SOL     OW13426   3.047   3.666   1.621
 4249SOL    HW113427   3.061   3.724   1.546
 4249SOL    HW213428   3.063   3.578   1.586
 4250SOL     OW13429   3.328   3.282   0.953
 4250SOL    HW113430   3.259   3.296   1.018
 4250SOL    HW213431   3.316   3.191   0.925
 4251SOL     OW13432   3.522   3.597   0.579
 4251SOL    HW113433   3.501   3.569   0.490
 4251SOL    HW213434   3.496   3.523   0.634
 4252SOL     OW13435   2.463   2.585   0.269
 4252SOL    HW113436   2.466   2.661   0.211
 4252SOL    HW213437   2.390   2.603   0.329
 4253SOL     OW13438   3.142   2.210   0.932
 4253SOL    HW113439   3.052   2.178   0.940
 4253SOL    HW213440   3.192   2.159   0.994
 4254SOL     OW13441   3.444   3.531   0.311
 4254SOL    HW113442   3.534   3.564   0.305
 4254SOL    HW213443   3.419   3.512   0.221
 4255SOL     OW13444   2.655   2.483   1.453
 4255SOL    HW113445   2.630   2.456   1.541
 4255SOL    HW213446   2.621   2.413   1.396
 4256SOL     OW13447   3.256   2.336   1.678
 4256SOL    HW113448   3.257   2.380   1.763
 4256SOL    HW213449   3.318   2.264   1.688
 4257SOL     OW13450   2.819   2.750   1.581
 4257SOL    HW113451   2.873   2.679   1.546
 4257SOL    HW213452   2.771   2.783   1.505
 4258SOL     OW13453   2.856   2.273   1.239
 4258SOL    HW113454   2.771   2.297   1.275
 4258SOL    HW213455   2.836   2.227   1.158
 4259SOL     OW13456   2.911   2.563   0.427
 4259SOL    HW113457   2.927   2.556   0.521
 4259SOL    HW213458   2.828   2.517   0.413
 4260SOL     OW13459   1.951   2.682   0.773
 4260SOL    HW113460   2.033   2.678   0.822
 4260SOL    HW213461   1.906   2.758   0.808
 4261SOL     OW13462   1.990   3.704   1.576
 4261SOL    HW113463   1.988   3.684   1.670
 4261SOL    HW213464   1.898   3.703   1.550
 4262SOL     OW13465   2.746   2.216   0.206
 4262SOL    HW113466   2.796   2.271   0.146
 4262SOL    HW213467   2.763   2.126   0.175
 4263SOL     OW13468   3.573   2.439   1.828
 4263SOL    HW113469   3.535   2.514   1.782
 4263SOL    HW213470   3.597   2.378   1.758
 4264SOL     OW13471   3.237   3.003   0.542
 4264SOL    HW113472   3.316   2.990   0.489
 4264SOL    HW213473   3.185   3.066   0.492
 4265SOL     OW13474   2.870   3.308   0.474
 4265SOL    HW113475   2.829   3.379   0.425
 4265SOL    HW213476   2.854   3.329   0.566
 4266SOL     OW13477   2.216   3.669   0.860
 4266SOL    HW113478   2.260   3.584   0.868
 4266SOL    HW213479   2.285   3.733   0.876
 4267SOL     OW13480   3.659   2.921   0.868
 4267SOL    HW113481   3.603   2.906   0.792
 4267SOL    HW213482   3.599   2.926   0.942
 4268SOL     OW13483   3.090   3.401   1.513
 4268SOL    HW113484   3.076   3.328   1.573
 4268SOL    HW213485   3.029   3.385   1.441
 4269SOL     OW13486   2.177   2.815   0.271
 4269SOL    HW113487   2.255   2.840   0.221
 4269SOL    HW213488   2.145   2.736   0.228
 4270SOL     OW13489   3.339   2.599   0.727
 4270SOL    HW113490   3.328   2.557   0.812
 4270SOL    HW213491   3.415   2.657   0.738
 4271SOL     OW13492   2.327   3.126   1.737
 4271SOL    HW113493   2.299   3.130   1.646
 4271SOL    HW213494   2.245   3.124   1.787
 4272SOL     OW13495   2.969   3.641   0.226
 4272SOL    HW113496   2.911   3.588   0.282
 4272SOL    HW213497   3.010   3.577   0.167
 4273SOL     OW13498   1.975   2.105   1.502
 4273SOL    HW113499   1.971   2.200   1.490
 4273SOL    HW213500   2.060   2.088   1.541
 4274SOL     OW13501   3.490   3.237   0.089
 4274SOL    HW113502   3.448   3.322   0.076
 4274SOL    HW213503   3.424   3.173   0.061
 4275SOL     OW13504   2.331   3.596   0.326
 4275SOL    HW113505   2.368   3.658   0.390
 4275SOL    HW213506   2.404   3.574   0.269
 4276SOL     OW13507   3.264   1.970   0.430
 4276SOL    HW113508   3.254   1.947   0.338
 4276SOL    HW213509   3.358   1.976   0.444
 4277SOL     OW13510   2.117   3.654   1.233
 4277SOL    HW113511   2.169   3.588   1.279
 4277SOL    HW213512   2.105   3.618   1.145
 4278SOL     OW13513   2.800   3.560   0.900
 4278SOL    HW113514   2.877   3.507   0.920
 4278SOL    HW213515   2.755   3.511   0.831
 4279SOL     OW13516   2.250   2.557   0.472
 4279SOL    HW113517   2.270   2.467   0.448
 4279SOL    HW213518   2.158   2.555   0.499
 4280SOL     OW13519   3.399   2.088   1.725
 4280SOL    HW113520   3.408   2.109   1.818
 4280SOL    HW213521   3.331   2.021   1.722
 4281SOL     OW13522   2.465   1.975   0.120
 4281SOL    HW113523   2.555   1.948   0.140
 4281SOL    HW213524   2.452   1.946   0.029
 4282SOL     OW13525   2.629   2.141   1.755
 4282SOL    HW113526   2.702   2.079   1.758
 4282SOL    HW213527   2.577   2.120   1.832
 4283SOL     OW13528   2.738   3.383   1.194
 4283SOL    HW113529   2.723   3.347   1.106
 4283SOL    HW213530   2.808   3.328   1.230
 4284SOL     OW13531   3.203   2.450   1.432
 4284SOL    HW113532   3.234   2.419   1.517
 4284SOL    HW213533   3.239   2.539   1.425
 4285SOL     OW13534   2.675   3.259   0.937
 4285SOL    HW113535   2.759   3.248   0.892
 4285SOL    HW213536   2.610   3.258   0.867
 4286SOL     OW13537   2.787   2.369   0.903
 4286SOL    HW113538   2.763   2.361   0.811
 4286SOL    HW213539   2.821   2.283   0.927
 4287SOL     OW13540   2.407   1.931   0.502
 4287SOL    HW113541   2.328   1.923   0.555
 4287SOL    HW213542   2.400   2.016   0.460
 4288SOL     OW13543   3.288   3.058   0.031
 4288SOL    HW113544   3.321   2.986   0.085
 4288SOL    HW213545   3.205   3.082   0.072
 4289SOL     OW13546   2.155   1.911   0.190
 4289SOL    HW113547   2.218   1.960   0.137
 4289SOL    HW213548   2.206   1.837   0.224
 4290SOL     OW13549   2.799   2.107   0.462
 4290SOL    HW113550   2.773   2.154   0.383
 4290SOL    HW213551   2.894   2.120   0.467
 4291SOL     OW13552   2.942   2.542   1.459
 4291SOL    HW113553   2.873   2.476   1.465
 4291SOL    HW213554   3.023   2.491   1.452
 4292SOL     OW13555   3.086   3.432   0.794
 4292SOL    HW113556   3.104   3.499   0.728
 4292SOL    HW213557   3.155   3.443   0.860
 4293SOL     OW13558   2.331   3.010   0.738
 4293SOL    HW113559   2.260   2.992   0.799
 4293SOL    HW213560   2.293   2.995   0.651
 4294SOL     OW13561   3.132   3.657   0.605
 4294SOL    HW113562   3.178   3.718   0.547
 4294SOL    HW213563   3.068   3.711   0.652
 4295SOL     OW13564   2.875   2.401   0.035
 4295SOL    HW113565   2.844   2.488   0.013
 4295SOL    HW213566   2.954   2.416   0.087
 4296SOL     OW13567   1.944   2.415   1.389
 4296SOL    HW113568   2.040   2.412   1.385
 4296SOL    HW213569   1.925   2.481   1.456
 4297SOL     OW13570   2.460   2.048   1.147
 4297SOL    HW113571   2.470   1.983   1.216
 4297SOL    HW213572   2.376   2.090   1.165
 4298SOL     OW13573   2.726   2.318   0.640
 4298SOL    HW113574   2.687   2.378   0.576
 4298SOL    HW213575   2.749   2.240   0.589
 4299SOL     OW13576   2.876   1.914   0.753
 4299SOL    HW113577   2.818   1.904   0.678
 4299SOL    HW213578   2.856   1.839   0.809
 4300SOL     OW13579   3.298   3.026   0.858
 4300SOL    HW113580   3.230   2.958   0.856
 4300SOL    HW213581   3.321   3.038   0.766
 4301SOL     OW13582   3.329   2.465   0.980
 4301SOL    HW113583   3.281   2.383   0.985
 4301SOL    HW213584   3.390   2.461   1.054
 4302SOL     OW13585   3.712   2.678   0.378
 4302SOL    HW113586   3.764   2.627   0.440
 4302SOL    HW213587   3.683   2.614   0.313
 4303SOL     OW13588   2.356   3.285   0.173
 4303SOL    HW113589   2.279   3.259   0.223
 4303SOL    HW213590   2.349   3.234   0.092
 4304SOL     OW13591   3.531   3.127   0.649
 4304SOL    HW113592   3.625   3.131   0.661
 4304SOL    HW213593   3.499   3.215   0.669
 4305SOL     OW13594   3.253   2.440   0.080
 4305SOL    HW113595   3.193   2.417   0.151
 4305SOL    HW213596   3.323   2.376   0.086
 4306SOL     OW13597   3.615   3.099   1.576
 4306SOL    HW113598   3.703   3.060   1.573
 4306SOL    HW213599   3.630   3.189   1.605
 4307SOL     OW13600   2.922   3.216   1.335
 4307SOL    HW113601   2.847   3.185   1.386
 4307SOL    HW213602   2.998   3.174   1.376
 4308SOL     OW13603   3.468   3.487   1.652
 4308SOL    HW113604   3.465   3.521   1.562
 4308SOL    HW213605   3.551   3.440   1.657
 4309SOL     OW13606   2.989   3.064   1.107
 4309SOL    HW113607   2.930   3.102   1.172
 4309SOL    HW213608   2.954   3.095   1.023
 4310SOL     OW13609   3.492   2.961   1.079
 4310SOL    HW113610   3.488   3.023   1.151
 4310SOL    HW213611   3.412   2.977   1.029
 4311SOL     OW13612   2.785   1.957   1.399
 4311SOL    HW113613   2.806   1.941   1.307
 4311SOL    HW213614   2.864   1.998   1.434
 4312SOL     OW13615   2.846   2.976   1.722
 4312SOL    HW113616   2.754   2.992   1.741
 4312SOL    HW213617   2.846   2.899   1.666
 4313SOL     OW13618   2.572   2.922   0.372
 4313SOL    HW113619   2.556   2.908   0.465
 4313SOL    HW213620   2.647   2.867   0.351
 4314SOL     OW13621   2.279   2.673   1.251
 4314SOL    HW113622   2.350   2.691   1.313
 4314SOL    HW213623   2.250   2.585   1.274
 4315SOL     OW13624   3.129   2.240   1.273
 4315SOL    HW113625   3.161   2.318   1.319
 4315SOL    HW213626   3.039   2.262   1.249
 4316SOL     OW13627   1.930   3.435   1.351
 4316SOL    HW113628   1.898   3.507   1.297
 4316SOL    HW213629   2.026   3.441   1.346
 4317SOL     OW13630   2.216   2.973   0.495
 4317SOL    HW113631   2.215   3.047   0.434
 4317SOL    HW213632   2.209   2.896   0.440
 4318SOL     OW13633   3.109   3.208   0.394
 4318SOL    HW113634   3.165   3.281   0.421
 4318SOL    HW213635   3.022   3.231   0.425
 4319SOL     OW13636   3.140   3.318   1.146
 4319SOL    HW113637   3.195   3.320   1.224
 4319SOL    HW213638   3.085   3.241   1.157
 4320SOL     OW13639   3.447   2.490   0.475
 4320SOL    HW113640   3.399   2.538   0.543
 4320SOL    HW213641   3.486   2.558   0.420
 4321SOL     OW13642   2.209   3.387   1.317
 4321SOL    HW113643   2.196   3.345   1.232
 4321SOL    HW213644   2.304   3.400   1.323
 4322SOL     OW13645   2.276   2.621   1.598
 4322SOL    HW113646   2.339   2.665   1.541
 4322SOL    HW213647   2.323   2.544   1.630
 4323SOL     OW13648   3.461   2.640   1.680
 4323SOL    HW113649   3.374   2.680   1.673
 4323SOL    HW213650   3.513   2.682   1.612
 4324SOL     OW13651   2.857   1.981   1.754
 4324SOL    HW113652   2.911   2.054   1.724
 4324SOL    HW213653   2.907   1.903   1.730
 4325SOL     OW13654   2.365   1.897   1.748
 4325SOL    HW113655   2.325   1.842   1.680
 4325SOL    HW213656   2.305   1.971   1.757
 4326SOL     OW13657   2.439   2.737   1.027
 4326SOL    HW113658   2.478   2.824   1.025
 4326SOL    HW213659   2.388   2.735   1.107
 4327SOL     OW13660   3.222   2.721   1.032
 4327SOL    HW113661   3.139   2.713   0.985
 4327SOL    HW213662   3.260   2.633   1.029
 4328SOL     OW13663   3.066   2.388   0.271
 4328SOL    HW113664   3.075   2.311   0.327
 4328SOL    HW213665   3.025   2.454   0.327
 4329SOL     OW13666   1.909   3.172   1.277
 4329SOL    HW113667   1.942   3.119   1.350
 4329SOL    HW213668   1.915   3.262   1.308
 4330SOL     OW13669   2.596   2.505   1.067
 4330SOL    HW113670   2.648   2.472   0.994
 4330SOL    HW213671   2.550   2.581   1.031
 4331SOL     OW13672   3.595   2.821   1.851
 4331SOL    HW113673   3.548   2.763   1.791
 4331SOL    HW213674   3.536   2.833   1.925
 4332SOL     OW13675   2.162   1.917   0.633
 4332SOL    HW113676   2.123   2.000   0.660
 4332SOL    HW213677   2.169   1.866   0.713
 4333SOL     OW13678   3.477   2.235   0.368
 4333SOL    HW113679   3.504   2.171   0.433
 4333SOL    HW213680   3.453   2.313   0.419
 4334SOL     OW13681   2.891   2.620   0.962
 4334SOL    HW113682   2.888   2.640   1.055
 4334SOL    HW213683   2.858   2.531   0.955
 4335SOL     OW13684   2.844   3.428   1.715
 4335SOL    HW113685   2.829   3.472   1.632
 4335SOL    HW213686   2.887   3.346   1.691
 4336SOL     OW13687   3.717   3.371   1.606
 4336SOL    HW113688   3.734   3.396   1.515
 4336SOL    HW213689   3.799   3.391   1.652
 4337SOL     OW13690   2.217   2.783   1.810
 4337SOL    HW113691   2.301   2.797   1.854
 4337SOL    HW213692   2.238   2.726   1.736
 4338SOL     OW13693   3.399   2.148   0.118
 4338SOL    HW113694   3.338   2.076   0.134
 4338SOL    HW213695   3.429   2.174   0.205
 4339SOL     OW13696   3.150   2.686   0.032
 4339SOL    HW113697   3.195   2.602   0.044
 4339SOL    HW213698   3.186   2.721  11.051
 4340SOL     OW13699   2.927   3.197   0.852
 4340SOL    HW113700   2.930   3.124   0.790
 4340SOL    HW213701   2.989   3.260   0.818
 4341SOL     OW13702   2.173   2.678   0.944
 4341SOL    HW113703   2.266   2.700   0.936
 4341SOL    HW213704   2.173   2.596   0.995
 4342SOL     OW13705   2.996   2.240   1.679
 4342SOL    HW113706   2.950   2.294   1.743
 4342SOL    HW213707   3.085   2.277   1.676
 4343SOL     OW13708   3.024   2.066   1.470
 4343SOL    HW113709   3.013   2.129   1.542
 4343SOL    HW213710   3.061   2.118   1.398
 4344SOL     OW13711   1.869   3.190   0.196
 4344SOL    HW113712   1.782   3.201   0.157
 4344SOL    HW213713   1.870   3.099   0.225
 4345SOL     OW13714   1.952   3.651   0.937
 4345SOL    HW113715   1.921   3.571   0.894
 4345SOL    HW213716   2.042   3.662   0.906
 4346SOL     OW13717   2.360   3.435   0.906
 4346SOL    HW113718   2.429   3.497   0.930
 4346SOL    HW213719   2.404   3.371   0.851
 4347SOL     OW13720   2.849   2.659   1.228
 4347SOL    HW113721   2.899   2.631   1.305
 4347SOL    HW213722   2.764   2.617   1.238
 4348SOL     OW13723   1.902   2.424   1.117
 4348SOL    HW113724   1.951   2.353   1.074
 4348SOL    HW213725   1.920   2.412   1.210
 4349SOL     OW13726   3.238   2.803   1.659
 4349SOL    HW113727   3.259   2.896   1.658
 4349SOL    HW213728   3.236   2.778   1.567
 4350SOL     OW13729   2.676   2.434   0.364
 4350SOL    HW113730   2.683   2.362   0.301
 4350SOL    HW213731   2.601   2.485   0.332
 4351SOL     OW13732   3.505   2.463   1.188
 4351SOL    HW113733   3.494   2.404   1.262
 4351SOL    HW213734   3.591   2.443   1.154
 4352SOL     OW13735   2.109   3.414   1.730
 4352SOL    HW113736   2.083   3.478   1.797
 4352SOL    HW213737   2.107   3.330   1.775
 4353SOL     OW13738   2.574   2.316   1.256
 4353SOL    HW113739   2.529   2.241   1.216
 4353SOL    HW213740   2.573   2.383   1.188
 4354SOL     OW13741   2.792   3.541   1.467
 4354SOL    HW113742   2.765   3.509   1.380
 4354SOL    HW213743   2.789   3.636   1.459
 4355SOL     OW13744   2.010   3.002   1.473
 4355SOL    HW113745   2.012   2.948   1.552
 4355SOL    HW213746   2.026   2.940   1.401
 4356SOL     OW13747   3.190   2.911   1.224
 4356SOL    HW113748   3.214   2.848   1.157
 4356SOL    HW213749   3.118   2.961   1.186
 4357SOL     OW13750   3.170   2.714   0.310
 4357SOL    HW113751   3.092   2.685   0.357
 4357SOL    HW213752   3.148   2.702   0.217
 4358SOL     OW13753   3.632   3.608   1.149
 4358SOL    HW113754   3.691   3.634   1.079
 4358SOL    HW213755   3.608   3.518   1.128
 4359SOL     OW13756   3.104   3.595   1.116
 4359SOL    HW113757   3.185   3.614   1.070
 4359SOL    HW213758   3.107   3.501   1.133
 4360SOL     OW13759   1.945   3.128   1.013
 4360SOL    HW113760   1.932   3.140   1.107
 4360SOL    HW213761   1.871   3.075   0.985
 4361SOL     OW13762   2.540   3.526   1.726
 4361SOL    HW113763   2.487   3.606   1.722
 4361SOL    HW213764   2.603   3.536   1.654
 4362SOL     OW13765   2.779   1.955   0.112
 4362SOL    HW113766   2.829   1.919   0.038
 4362SOL    HW213767   2.816   1.911   0.189
 4363SOL     OW13768   3.580   2.006   0.511
 4363SOL    HW113769   3.653   1.992   0.452
 4363SOL    HW213770   3.565   1.920   0.551
 4364SOL     OW13771   3.251   3.430   0.483
 4364SOL    HW113772   3.313   3.461   0.417
 4364SOL    HW213773   3.205   3.509   0.512
 4365SOL     OW13774   1.998   3.658   1.843
 4365SOL    HW113775   1.947   3.594   1.892
 4365SOL    HW213776   2.045   3.707   1.910
 4366SOL     OW13777   3.139   2.786   0.671
 4366SOL    HW113778   3.213   2.725   0.675
 4366SOL    HW213779   3.173   2.860   0.619
 4367SOL     OW13780   2.680   3.135   1.431
 4367SOL    HW113781   2.653   3.173   1.514
 4367SOL    HW213782   2.609   3.157   1.370
 4368SOL     OW13783   2.537   3.481   0.166
 4368SOL    HW113784   2.545   3.491   0.071
 4368SOL    HW213785   2.480   3.405   0.177
 4369SOL     OW13786   3.493   3.588   1.392
 4369SOL    HW113787   3.541   3.596   1.309
 4369SOL    HW213788   3.479   3.679   1.420
 4370SOL     OW13789   3.702   2.035   0.968
 4370SOL    HW113790   3.731   1.949   0.939
 4370SOL    HW213791   3.615   2.045   0.928
 4371SOL     OW13792   3.084   3.465   0.051
 4371SOL    HW113793   3.071   3.373   0.072
 4371SOL    HW213794   3.018   3.484  11.084
 4372SOL     OW13795   2.685   2.868   1.372
 4372SOL    HW113796   2.731   2.862   1.288
 4372SOL    HW213797   2.688   2.962   1.394
 4373SOL     OW13798   2.776   2.769   0.282
 4373SOL    HW113799   2.843   2.808   0.226
 4373SOL    HW213800   2.823   2.703   0.333
 4374SOL     OW13801   3.362   3.484   0.046
 4374SOL    HW113802   3.266   3.480   0.042
 4374SOL    HW213803   3.389   3.497  11.055
 4375SOL     OW13804   2.232   3.163   1.491
 4375SOL    HW113805   2.218   3.241   1.437
 4375SOL    HW213806   2.155   3.109   1.476
 4376SOL     OW13807   3.474   3.145   1.281
 4376SOL    HW113808   3.533   3.136   1.356
 4376SOL    HW213809   3.413   3.215   1.306
 4377SOL     OW13810   2.911   2.968   0.705
 4377SOL    HW113811   2.841   2.916   0.745
 4377SOL    HW213812   2.973   2.902   0.672
 4378SOL     OW13813   2.883   2.102   0.966
 4378SOL    HW113814   2.878   2.053   0.883
 4378SOL    HW213815   2.877   2.035   1.033
 4379SOL     OW13816   2.464   3.353   0.483
 4379SOL    HW113817   2.502   3.301   0.412
 4379SOL    HW213818   2.396   3.404   0.439
 4380SOL     OW13819   3.582   2.254   1.380
 4380SOL    HW113820   3.654   2.317   1.378
 4380SOL    HW213821   3.612   2.182   1.324
 4381SOL     OW13822   2.127   3.201   0.290
 4381SOL    HW113823   2.039   3.203   0.253
 4381SOL    HW213824   2.118   3.241   0.377
 4382SOL     OW13825   1.974   2.880   1.719
 4382SOL    HW113826   1.897   2.858   1.772
 4382SOL    HW213827   2.048   2.845   1.768
 4383SOL     OW13828   2.543   2.045   1.497
 4383SOL    HW113829   2.629   2.029   1.459
 4383SOL    HW213830   2.561   2.085   1.582
 4384SOL     OW13831   1.927   2.211   0.068
 4384SOL    HW113832   1.861   2.186   0.003
 4384SOL    HW213833   1.997   2.252   0.018
 4385SOL     OW13834   3.293   2.721   1.402
 4385SOL    HW113835   3.245   2.780   1.345
 4385SOL    HW213836   3.383   2.723   1.368
 4386SOL     OW13837   1.935   2.021   0.312
 4386SOL    HW113838   1.914   2.097   0.256
 4386SOL    HW213839   2.015   1.984   0.273
 4387SOL     OW13840   3.043   3.204   0.122
 4387SOL    HW113841   2.950   3.182   0.117
 4387SOL    HW213842   3.065   3.197   0.215
 4388SOL     OW13843   2.482   2.694   1.429
 4388SOL    HW113844   2.537   2.771   1.416
 4388SOL    HW213845   2.544   2.622   1.438
 4389SOL     OW13846   3.347   3.637   0.976
 4389SOL    HW113847   3.372   3.695   0.904
 4389SOL    HW213848   3.428   3.620   1.023
 4390SOL     OW13849   2.580   2.426   1.704
 4390SOL    HW113850   2.617   2.490   1.765
 4390SOL    HW213851   2.611   2.341   1.737
 4391SOL     OW13852   3.331   3.065   1.633
 4391SOL    HW113853   3.319   3.078   1.727
 4391SOL    HW213854   3.425   3.077   1.618
 4392SOL     OW13855   2.244   3.601   1.564
 4392SOL    HW113856   2.158   3.642   1.551
 4392SOL    HW213857   2.225   3.517   1.606
 4393SOL     OW13858   3.533   2.744   1.256
 4393SOL    HW113859   3.525   2.658   1.213
 4393SOL    HW213860   3.524   2.807   1.184
 4394SOL     OW13861   3.078   2.179   0.459
 4394SOL    HW113862   3.144   2.110   0.449
 4394SOL    HW213863   3.108   2.229   0.536
 4395SOL     OW13864   2.457   2.605   0.656
 4395SOL    HW113865   2.494   2.693   0.645
 4395SOL    HW213866   2.383   2.602   0.595
 4396SOL     OW13867   3.627   2.222   1.649
 4396SOL    HW113868   3.609   2.236   1.556
 4396SOL    HW213869   3.555   2.166   1.679
 4397SOL     OW13870   3.606   2.796   1.513
 4397SOL    HW113871   3.607   2.890   1.525
 4397SOL    HW213872   3.591   2.784   1.419
 4398SOL     OW13873   2.760   3.219   0.062
 4398SOL    HW113874   2.690   3.222   0.128
 4398SOL    HW213875   2.752   3.303   0.016
 4399SOL     OW13876   2.521   3.655   0.948
 4399SOL    HW113877   2.500   3.745   0.923
 4399SOL    HW213878   2.617   3.650   0.939
 4400SOL     OW13879   2.729   2.827   0.856
 4400SOL    HW113880   2.778   2.756   0.896
 4400SOL    HW213881   2.696   2.878   0.930
 4401SOL     OW13882   2.942   2.852   0.086
 4401SOL    HW113883   2.919   2.888   0.000
 4401SOL    HW213884   3.018   2.797   0.068
 4402SOL     OW13885   3.718   3.418   0.846
 4402SOL    HW113886   3.642   3.406   0.789
 4402SOL    HW213887   3.710   3.349   0.911
 4403SOL     OW13888   2.086   3.166   1.856
 4403SOL    HW113889   2.018   3.105   1.826
 4403SOL    HW213890   2.068   3.179   1.949
 4404SOL     OW13891   1.945   3.098   0.665
 4404SOL    HW113892   1.947   3.047   0.746
 4404SOL    HW213893   2.014   3.061   0.611
 4405SOL     OW13894   2.542   3.263   1.626
 4405SOL    HW113895   2.462   3.220   1.656
 4405SOL    HW213896   2.537   3.351   1.663
 4406SOL     OW13897   3.676   2.047   1.238
 4406SOL    HW113898   3.685   1.953   1.253
 4406SOL    HW213899   3.685   2.057   1.143
 4407SOL     OW13900   3.562   3.353   1.100
 4407SOL    HW113901   3.482   3.328   1.055
 4407SOL    HW213902   3.577   3.284   1.164
 4408SOL     OW13903   2.687   3.440   0.679
 4408SOL    HW113904   2.679   3.486   0.596
 4408SOL    HW213905   2.610   3.384   0.684
 4409SOL     OW13906   3.294   2.086   1.118
 4409SOL    HW113907   3.322   2.008   1.166
 4409SOL    HW213908   3.242   2.135   1.181
 4410SOL     OW13909   2.871   1.882   1.144
 4410SOL    HW113910   2.817   1.812   1.106
 4410SOL    HW213911   2.959   1.845   1.146
 4411SOL     OW13912   2.629   3.190   0.313
 4411SOL    HW113913   2.599   3.101   0.326
 4411SOL    HW213914   2.714   3.194   0.358
 4412SOL     OW13915   2.482   3.420   1.284
 4412SOL    HW113916   2.485   3.501   1.335
 4412SOL    HW213917   2.569   3.412   1.246
 4413SOL     OW13918   3.213   1.916   0.164
 4413SOL    HW113919   3.236   1.865   0.086
 4413SOL    HW213920   3.127   1.883   0.189
 4414SOL     OW13921   3.158   2.322   0.682
 4414SOL    HW113922   3.106   2.401   0.691
 4414SOL    HW213923   3.156   2.282   0.769
 4415SOL     OW13924   3.449   2.066   0.877
 4415SOL    HW113925   3.386   2.085   0.946
 4415SOL    HW213926   3.449   2.145   0.822
 4416SOL     OW13927   1.904   2.933   0.301
 4416SOL    HW113928   1.999   2.926   0.294
 4416SOL    HW213929   1.875   2.846   0.327
 4417SOL     OW13930   2.745   3.513   0.347
 4417SOL    HW113931   2.674   3.493   0.287
 4417SOL    HW213932   2.713   3.588   0.398
 4418SOL     OW13933   2.078   2.528   1.984
 4418SOL    HW113934   1.993   2.498   2.017
 4418SOL    HW213935   2.100   2.466   1.914
 4419SOL     OW13936   2.005   2.138   2.935
 4419SOL    HW113937   2.064   2.074   2.976
 4419SOL    HW213938   1.941   2.084   2.888
 4420SOL     OW13939   1.857   2.245   2.493
 4420SOL    HW113940   1.777   2.267   2.540
 4420SOL    HW213941   1.840   2.159   2.455
 4421SOL     OW13942   2.428   3.145   3.035
 4421SOL    HW113943   2.340   3.149   2.996
 4421SOL    HW213944   2.443   3.233   3.069
 4422SOL     OW13945   3.420   3.373   2.568
 4422SOL    HW113946   3.377   3.355   2.651
 4422SOL    HW213947   3.349   3.378   2.504
 4423SOL     OW13948   2.992   2.561   2.563
 4423SOL    HW113949   3.041   2.642   2.552
 4423SOL    HW213950   2.945   2.572   2.646
 4424SOL     OW13951   3.628   2.469   2.092
 4424SOL    HW113952   3.608   2.460   1.999
 4424SOL    HW213953   3.592   2.390   2.132
 4425SOL     OW13954   2.619   3.005   2.900
 4425SOL    HW113955   2.550   3.039   2.956
 4425SOL    HW213956   2.654   3.083   2.856
 4426SOL     OW13957   2.724   2.642   3.683
 4426SOL    HW113958   2.713   2.713   3.746
 4426SOL    HW213959   2.749   2.686   3.602
 4427SOL     OW13960   2.548   2.867   2.511
 4427SOL    HW113961   2.613   2.854   2.580
 4427SOL    HW213962   2.479   2.919   2.552
 4428SOL     OW13963   2.570   3.013   3.671
 4428SOL    HW113964   2.618   3.092   3.697
 4428SOL    HW213965   2.486   3.046   3.638
 4429SOL     OW13966   2.193   3.290   2.930
 4429SOL    HW113967   2.121   3.253   2.879
 4429SOL    HW213968   2.244   3.340   2.866
 4430SOL     OW13969   3.323   3.360   3.213
 4430SOL    HW113970   3.369   3.444   3.223
 4430SOL    HW213971   3.267   3.355   3.290
 4431SOL     OW13972   3.475   2.311   2.601
 4431SOL    HW113973   3.398   2.336   2.549
 4431SOL    HW213974   3.493   2.389   2.655
 4432SOL     OW13975   2.082   3.575   2.336
 4432SOL    HW113976   2.105   3.652   2.388
 4432SOL    HW213977   2.152   3.568   2.271
 4433SOL     OW13978   2.998   3.203   3.554
 4433SOL    HW113979   3.038   3.199   3.640
 4433SOL    HW213980   2.945   3.123   3.548
 4434SOL     OW13981   2.092   3.302   2.397
 4434SOL    HW113982   2.075   3.396   2.401
 4434SOL    HW213983   2.030   3.263   2.459
 4435SOL     OW13984   2.118   2.955   2.752
 4435SOL    HW113985   2.112   2.868   2.791
 4435SOL    HW213986   2.058   3.008   2.805
 4436SOL     OW13987   2.476   3.652   3.293
 4436SOL    HW113988   2.394   3.635   3.338
 4436SOL    HW213989   2.499   3.742   3.317
 4437SOL     OW13990   2.451   2.841   1.991
 4437SOL    HW113991   2.495   2.895   1.925
 4437SOL    HW213992   2.490   2.868   2.074
 4438SOL     OW13993   3.458   1.984   3.331
 4438SOL    HW113994   3.458   2.063   3.278
 4438SOL    HW213995   3.446   2.014   3.421
 4439SOL     OW13996   1.969   2.506   2.421
 4439SOL    HW113997   1.941   2.418   2.445
 4439SOL    HW213998   1.966   2.555   2.503
 4440SOL     OW13999   3.703   3.623   2.198
 4440SOL    HW114000   3.764   3.594   2.266
 4440SOL    HW214001   3.730   3.713   2.180
 4441SOL     OW14002   1.893   3.458   1.986
 4441SOL    HW114003   1.874   3.366   2.006
 4441SOL    HW214004   1.868   3.505   2.066
 4442SOL     OW14005   3.552   2.781   2.501
 4442SOL    HW114006   3.636   2.741   2.483
 4442SOL    HW214007   3.531   2.831   2.422
 4443SOL     OW14008   3.507   2.970   2.291
 4443SOL    HW114009   3.592   2.977   2.249
 4443SOL    HW214010   3.512   3.030   2.366
 4444SOL     OW14011   1.984   2.597   3.446
 4444SOL    HW114012   2.072   2.614   3.478
 4444SOL    HW214013   1.938   2.680   3.459
 4445SOL     OW14014   2.475   3.245   2.597
 4445SOL    HW114015   2.428   3.162   2.606
 4445SOL    HW214016   2.458   3.272   2.507
 4446SOL     OW14017   3.152   3.101   3.286
 4446SOL    HW114018   3.184   3.033   3.226
 4446SOL    HW214019   3.208   3.093   3.363
 4447SOL     OW14020   2.669   1.861   2.365
 4447SOL    HW114021   2.711   1.946   2.350
 4447SOL    HW214022   2.576   1.883   2.376
 4448SOL     OW14023   2.053   2.831   3.132
 4448SOL    HW114024   2.136   2.789   3.111
 4448SOL    HW214025   1.987   2.776   3.089
 4449SOL     OW14026   3.394   2.854   2.059
 4449SOL    HW114027   3.324   2.796   2.089
 4449SOL    HW214028   3.433   2.888   2.139
 4450SOL     OW14029   3.047   3.666   3.483
 4450SOL    HW114030   3.061   3.724   3.408
 4450SOL    HW214031   3.063   3.578   3.448
 4451SOL     OW14032   3.328   3.282   2.815
 4451SOL    HW114033   3.259   3.296   2.880
 4451SOL    HW214034   3.316   3.191   2.787
 4452SOL     OW14035   3.523   3.596   2.440
 4452SOL    HW114036   3.500   3.568   2.351
 4452SOL    HW214037   3.497   3.523   2.496
 4453SOL     OW14038   2.463   2.588   2.132
 4453SOL    HW114039   2.478   2.655   2.065
 4453SOL    HW214040   2.380   2.612   2.172
 4454SOL     OW14041   3.142   2.211   2.794
 4454SOL    HW114042   3.053   2.179   2.802
 4454SOL    HW214043   3.192   2.158   2.857
 4455SOL     OW14044   3.443   3.531   2.171
 4455SOL    HW114045   3.533   3.565   2.165
 4455SOL    HW214046   3.418   3.513   2.080
 4456SOL     OW14047   2.649   2.469   3.310
 4456SOL    HW114048   2.632   2.459   3.404
 4456SOL    HW214049   2.600   2.398   3.269
 4457SOL     OW14050   3.256   2.336   3.540
 4457SOL    HW114051   3.257   2.380   3.625
 4457SOL    HW214052   3.318   2.263   3.549
 4458SOL     OW14053   2.818   2.749   3.443
 4458SOL    HW114054   2.873   2.679   3.407
 4458SOL    HW214055   2.772   2.784   3.366
 4459SOL     OW14056   2.861   2.271   3.100
 4459SOL    HW114057   2.780   2.309   3.136
 4459SOL    HW214058   2.834   2.230   3.018
 4460SOL     OW14059   2.911   2.560   2.289
 4460SOL    HW114060   2.927   2.554   2.383
 4460SOL    HW214061   2.829   2.513   2.275
 4461SOL     OW14062   1.951   2.683   2.636
 4461SOL    HW114063   2.032   2.678   2.686
 4461SOL    HW214064   1.906   2.760   2.671
 4462SOL     OW14065   1.990   3.702   3.438
 4462SOL    HW114066   1.988   3.683   3.532
 4462SOL    HW214067   1.898   3.704   3.412
 4463SOL     OW14068   2.753   2.210   2.059
 4463SOL    HW114069   2.795   2.269   1.996
 4463SOL    HW214070   2.758   2.124   2.018
 4464SOL     OW14071   3.573   2.439   3.690
 4464SOL    HW114072   3.535   2.514   3.644
 4464SOL    HW214073   3.597   2.378   3.621
 4465SOL     OW14074   3.237   3.004   2.404
 4465SOL    HW114075   3.316   2.990   2.351
 4465SOL    HW214076   3.185   3.067   2.353
 4466SOL     OW14077   2.438   2.032   2.734
 4466SOL    HW114078   2.441   2.045   2.829
 4466SOL    HW214079   2.439   2.120   2.698
 4467SOL     OW14080   2.870   3.307   2.335
 4467SOL    HW114081   2.830   3.379   2.286
 4467SOL    HW214082   2.855   3.330   2.427
 4468SOL     OW14083   2.216   3.669   2.721
 4468SOL    HW114084   2.260   3.584   2.730
 4468SOL    HW214085   2.285   3.733   2.738
 4469SOL     OW14086   3.660   2.923   2.729
 4469SOL    HW114087   3.604   2.904   2.654
 4469SOL    HW214088   3.599   2.927   2.803
 4470SOL     OW14089   3.090   3.401   3.375
 4470SOL    HW114090   3.076   3.328   3.435
 4470SOL    HW214091   3.029   3.385   3.303
 4471SOL     OW14092   2.190   2.805   2.116
 4471SOL    HW114093   2.265   2.830   2.062
 4471SOL    HW214094   2.149   2.733   2.068
 4472SOL     OW14095   3.338   2.602   2.589
 4472SOL    HW114096   3.327   2.557   2.673
 4472SOL    HW214097   3.415   2.657   2.602
 4473SOL     OW14098   2.327   3.125   3.599
 4473SOL    HW114099   2.299   3.130   3.508
 4473SOL    HW214100   2.245   3.124   3.649
 4474SOL     OW14101   2.983   3.640   2.093
 4474SOL    HW114102   2.911   3.596   2.140
 4474SOL    HW214103   3.005   3.579   2.022
 4475SOL     OW14104   1.978   2.091   3.358
 4475SOL    HW114105   1.948   2.182   3.363
 4475SOL    HW214106   2.008   2.071   3.446
 4476SOL     OW14107   3.491   3.241   1.949
 4476SOL    HW114108   3.450   3.326   1.934
 4476SOL    HW214109   3.422   3.178   1.930
 4477SOL     OW14110   2.329   3.600   2.183
 4477SOL    HW114111   2.369   3.657   2.249
 4477SOL    HW214112   2.402   3.572   2.128
 4478SOL     OW14113   3.263   1.970   2.293
 4478SOL    HW114114   3.252   1.945   2.201
 4478SOL    HW214115   3.358   1.976   2.304
 4479SOL     OW14116   2.117   3.654   3.095
 4479SOL    HW114117   2.169   3.589   3.142
 4479SOL    HW214118   2.106   3.617   3.007
 4480SOL     OW14119   2.800   3.560   2.762
 4480SOL    HW114120   2.877   3.508   2.782
 4480SOL    HW214121   2.755   3.511   2.693
 4481SOL     OW14122   3.399   2.088   3.588
 4481SOL    HW114123   3.407   2.109   3.680
 4481SOL    HW214124   3.331   2.020   3.584
 4482SOL     OW14125   2.501   1.997   1.963
 4482SOL    HW114126   2.563   1.931   1.994
 4482SOL    HW214127   2.452   1.952   1.894
 4483SOL     OW14128   2.631   2.139   3.616
 4483SOL    HW114129   2.705   2.078   3.618
 4483SOL    HW214130   2.580   2.118   3.695
 4484SOL     OW14131   2.738   3.383   3.056
 4484SOL    HW114132   2.724   3.347   2.968
 4484SOL    HW214133   2.808   3.328   3.092
 4485SOL     OW14134   3.202   2.452   3.295
 4485SOL    HW114135   3.234   2.419   3.379
 4485SOL    HW214136   3.240   2.539   3.287
 4486SOL     OW14137   2.675   3.259   2.799
 4486SOL    HW114138   2.759   3.248   2.754
 4486SOL    HW214139   2.611   3.258   2.728
 4487SOL     OW14140   2.799   2.370   2.772
 4487SOL    HW114141   2.760   2.367   2.685
 4487SOL    HW214142   2.828   2.280   2.789
 4488SOL     OW14143   2.398   1.935   2.364
 4488SOL    HW114144   2.351   1.942   2.447
 4488SOL    HW214145   2.386   2.020   2.323
 4489SOL     OW14146   3.291   3.060   1.903
 4489SOL    HW114147   3.321   2.984   1.953
 4489SOL    HW214148   3.205   3.080   1.941
 4490SOL     OW14149   2.797   2.106   2.322
 4490SOL    HW114150   2.773   2.149   2.240
 4490SOL    HW214151   2.891   2.117   2.329
 4491SOL     OW14152   2.940   2.540   3.320
 4491SOL    HW114153   2.875   2.471   3.328
 4491SOL    HW214154   3.024   2.494   3.314
 4492SOL     OW14155   3.086   3.432   2.656
 4492SOL    HW114156   3.104   3.499   2.590
 4492SOL    HW214157   3.154   3.444   2.722
 4493SOL     OW14158   2.330   3.010   2.597
 4493SOL    HW114159   2.259   2.993   2.659
 4493SOL    HW214160   2.291   2.993   2.511
 4494SOL     OW14161   3.132   3.657   2.468
 4494SOL    HW114162   3.177   3.718   2.409
 4494SOL    HW214163   3.068   3.710   2.514
 4495SOL     OW14164   2.887   2.407   1.882
 4495SOL    HW114165   2.845   2.490   1.862
 4495SOL    HW214166   2.951   2.427   1.950
 4496SOL     OW14167   1.936   2.421   3.249
 4496SOL    HW114168   2.031   2.412   3.238
 4496SOL    HW214169   1.926   2.485   3.319
 4497SOL     OW14170   2.435   2.033   3.005
 4497SOL    HW114171   2.458   1.976   3.079
 4497SOL    HW214172   2.356   2.079   3.035
 4498SOL     OW14173   2.738   2.319   2.500
 4498SOL    HW114174   2.689   2.375   2.440
 4498SOL    HW214175   2.755   2.239   2.450
 4499SOL     OW14176   2.878   1.914   2.614
 4499SOL    HW114177   2.818   1.907   2.540
 4499SOL    HW214178   2.857   1.839   2.670
 4500SOL     OW14179   3.298   3.026   2.720
 4500SOL    HW114180   3.231   2.957   2.718
 4500SOL    HW214181   3.321   3.038   2.628
 4501SOL     OW14182   3.329   2.465   2.842
 4501SOL    HW114183   3.281   2.383   2.845
 4501SOL    HW214184   3.390   2.461   2.916
 4502SOL     OW14185   3.709   2.680   2.243
 4502SOL    HW114186   3.765   2.628   2.302
 4502SOL    HW214187   3.680   2.618   2.177
 4503SOL     OW14188   2.353   3.277   2.022
 4503SOL    HW114189   2.279   3.248   2.074
 4503SOL    HW214190   2.335   3.247   1.933
 4504SOL     OW14191   3.531   3.127   2.509
 4504SOL    HW114192   3.625   3.131   2.523
 4504SOL    HW214193   3.499   3.215   2.531
 4505SOL     OW14194   3.256   2.434   1.933
 4505SOL    HW114195   3.195   2.415   2.005
 4505SOL    HW214196   3.340   2.400   1.964
 4506SOL     OW14197   3.615   3.099   3.438
 4506SOL    HW114198   3.703   3.060   3.435
 4506SOL    HW214199   3.630   3.189   3.467
 4507SOL     OW14200   2.922   3.216   3.197
 4507SOL    HW114201   2.847   3.185   3.248
 4507SOL    HW214202   2.998   3.174   3.237
 4508SOL     OW14203   3.468   3.487   3.514
 4508SOL    HW114204   3.465   3.521   3.424
 4508SOL    HW214205   3.551   3.440   3.519
 4509SOL     OW14206   2.989   3.064   2.969
 4509SOL    HW114207   2.930   3.102   3.034
 4509SOL    HW214208   2.954   3.095   2.885
 4510SOL     OW14209   3.492   2.961   2.940
 4510SOL    HW114210   3.488   3.023   3.013
 4510SOL    HW214211   3.412   2.977   2.891
 4511SOL     OW14212   2.783   1.959   3.261
 4511SOL    HW114213   2.803   1.941   3.169
 4511SOL    HW214214   2.863   1.998   3.296
 4512SOL     OW14215   2.846   2.976   3.584
 4512SOL    HW114216   2.754   2.992   3.604
 4512SOL    HW214217   2.846   2.899   3.528
 4513SOL     OW14218   2.570   2.922   2.233
 4513SOL    HW114219   2.557   2.908   2.327
 4513SOL    HW214220   2.646   2.869   2.211
 4514SOL     OW14221   2.281   2.675   3.112
 4514SOL    HW114222   2.352   2.693   3.174
 4514SOL    HW214223   2.240   2.594   3.145
 4515SOL     OW14224   3.132   2.239   3.136
 4515SOL    HW114225   3.162   2.318   3.182
 4515SOL    HW214226   3.042   2.260   3.110
 4516SOL     OW14227   1.930   3.434   3.212
 4516SOL    HW114228   1.898   3.508   3.160
 4516SOL    HW214229   2.026   3.441   3.208
 4517SOL     OW14230   2.216   2.967   2.351
 4517SOL    HW114231   2.219   3.045   2.296
 4517SOL    HW214232   2.212   2.894   2.289
 4518SOL     OW14233   2.517   2.430   2.706
 4518SOL    HW114234   2.487   2.482   2.632
 4518SOL    HW214235   2.478   2.472   2.782
 4519SOL     OW14236   3.110   3.210   2.251
 4519SOL    HW114237   3.165   3.282   2.282
 4519SOL    HW214238   3.023   3.231   2.285
 4520SOL     OW14239   3.140   3.318   3.008
 4520SOL    HW114240   3.195   3.320   3.086
 4520SOL    HW214241   3.085   3.240   3.020
 4521SOL     OW14242   3.444   2.487   2.339
 4521SOL    HW114243   3.399   2.541   2.403
 4521SOL    HW214244   3.489   2.549   2.282
 4522SOL     OW14245   2.209   3.387   3.179
 4522SOL    HW114246   2.196   3.345   3.094
 4522SOL    HW214247   2.304   3.400   3.185
 4523SOL     OW14248   2.279   2.608   3.462
 4523SOL    HW114249   2.341   2.657   3.407
 4523SOL    HW214250   2.319   2.522   3.473
 4524SOL     OW14251   3.461   2.640   3.542
 4524SOL    HW114252   3.374   2.680   3.534
 4524SOL    HW214253   3.513   2.682   3.474
 4525SOL     OW14254   2.857   1.982   3.616
 4525SOL    HW114255   2.912   2.054   3.585
 4525SOL    HW214256   2.906   1.903   3.592
 4526SOL     OW14257   2.360   1.904   3.609
 4526SOL    HW114258   2.323   1.847   3.542
 4526SOL    HW214259   2.295   1.974   3.619
 4527SOL     OW14260   2.440   2.731   2.888
 4527SOL    HW114261   2.478   2.819   2.883
 4527SOL    HW214262   2.389   2.732   2.969
 4528SOL     OW14263   3.222   2.721   2.894
 4528SOL    HW114264   3.139   2.713   2.846
 4528SOL    HW214265   3.260   2.633   2.891
 4529SOL     OW14266   3.068   2.391   2.131
 4529SOL    HW114267   3.076   2.312   2.185
 4529SOL    HW214268   3.026   2.455   2.188
 4530SOL     OW14269   1.910   3.172   3.139
 4530SOL    HW114270   1.942   3.119   3.212
 4530SOL    HW214271   1.915   3.262   3.170
 4531SOL     OW14272   2.616   2.516   2.957
 4531SOL    HW114273   2.653   2.468   2.883
 4531SOL    HW214274   2.572   2.591   2.918
 4532SOL     OW14275   3.595   2.821   3.713
 4532SOL    HW114276   3.548   2.763   3.653
 4532SOL    HW214277   3.536   2.833   3.787
 4533SOL     OW14278   3.476   2.235   2.231
 4533SOL    HW114279   3.503   2.171   2.297
 4533SOL    HW214280   3.453   2.313   2.281
 4534SOL     OW14281   2.890   2.623   2.823
 4534SOL    HW114282   2.888   2.641   2.917
 4534SOL    HW214283   2.860   2.532   2.815
 4535SOL     OW14284   2.844   3.428   3.577
 4535SOL    HW114285   2.829   3.472   3.494
 4535SOL    HW214286   2.887   3.346   3.553
 4536SOL     OW14287   3.717   3.371   3.468
 4536SOL    HW114288   3.734   3.396   3.377
 4536SOL    HW214289   3.799   3.391   3.514
 4537SOL     OW14290   2.217   2.780   3.668
 4537SOL    HW114291   2.299   2.796   3.715
 4537SOL    HW214292   2.241   2.719   3.599
 4538SOL     OW14293   3.393   2.136   1.989
 4538SOL    HW114294   3.328   2.070   2.015
 4538SOL    HW214295   3.425   2.172   2.072
 4539SOL     OW14296   3.156   2.689   1.894
 4539SOL    HW114297   3.198   2.603   1.898
 4539SOL    HW214298   3.186   2.728   1.812
 4540SOL     OW14299   2.926   3.197   2.715
 4540SOL    HW114300   2.930   3.124   2.653
 4540SOL    HW214301   2.989   3.260   2.680
 4541SOL     OW14302   2.172   2.680   2.807
 4541SOL    HW114303   2.265   2.699   2.804
 4541SOL    HW214304   2.166   2.596   2.853
 4542SOL     OW14305   2.996   2.241   3.541
 4542SOL    HW114306   2.951   2.295   3.606
 4542SOL    HW214307   3.085   2.277   3.538
 4543SOL     OW14308   3.024   2.066   3.332
 4543SOL    HW114309   3.014   2.129   3.403
 4543SOL    HW214310   3.062   2.117   3.260
 4544SOL     OW14311   1.867   3.184   2.057
 4544SOL    HW114312   1.780   3.198   2.019
 4544SOL    HW214313   1.864   3.094   2.090
 4545SOL     OW14314   1.952   3.651   2.799
 4545SOL    HW114315   1.922   3.571   2.756
 4545SOL    HW214316   2.042   3.662   2.768
 4546SOL     OW14317   2.360   3.435   2.768
 4546SOL    HW114318   2.429   3.497   2.792
 4546SOL    HW214319   2.405   3.370   2.713
 4547SOL     OW14320   2.848   2.661   3.090
 4547SOL    HW114321   2.896   2.631   3.167
 4547SOL    HW214322   2.766   2.613   3.093
 4548SOL     OW14323   1.913   2.411   2.974
 4548SOL    HW114324   1.951   2.329   2.942
 4548SOL    HW214325   1.923   2.407   3.069
 4549SOL     OW14326   3.237   2.803   3.521
 4549SOL    HW114327   3.259   2.896   3.521
 4549SOL    HW214328   3.236   2.778   3.429
 4550SOL     OW14329   2.674   2.429   2.221
 4550SOL    HW114330   2.681   2.357   2.158
 4550SOL    HW214331   2.602   2.482   2.188
 4551SOL     OW14332   3.505   2.463   3.051
 4551SOL    HW114333   3.494   2.403   3.124
 4551SOL    HW214334   3.591   2.443   3.016
 4552SOL     OW14335   2.109   3.414   3.592
 4552SOL    HW114336   2.084   3.478   3.658
 4552SOL    HW214337   2.107   3.330   3.637
 4553SOL     OW14338   2.791   3.541   3.329
 4553SOL    HW114339   2.765   3.509   3.242
 4553SOL    HW214340   2.789   3.636   3.321
 4554SOL     OW14341   2.010   3.002   3.335
 4554SOL    HW114342   2.012   2.948   3.414
 4554SOL    HW214343   2.026   2.940   3.264
 4555SOL     OW14344   3.190   2.911   3.086
 4555SOL    HW114345   3.214   2.847   3.019
 4555SOL    HW214346   3.118   2.961   3.048
 4556SOL     OW14347   3.171   2.719   2.169
 4556SOL    HW114348   3.095   2.688   2.218
 4556SOL    HW214349   3.148   2.705   2.077
 4557SOL     OW14350   3.631   3.608   3.011
 4557SOL    HW114351   3.691   3.634   2.941
 4557SOL    HW214352   3.608   3.518   2.990
 4558SOL     OW14353   3.103   3.595   2.978
 4558SOL    HW114354   3.185   3.614   2.932
 4558SOL    HW214355   3.107   3.501   2.995
 4559SOL     OW14356   1.945   3.128   2.875
 4559SOL    HW114357   1.932   3.140   2.969
 4559SOL    HW214358   1.871   3.075   2.847
 4560SOL     OW14359   2.539   3.526   3.587
 4560SOL    HW114360   2.487   3.606   3.585
 4560SOL    HW214361   2.603   3.537   3.517
 4561SOL     OW14362   3.580   2.005   2.374
 4561SOL    HW114363   3.654   1.991   2.314
 4561SOL    HW214364   3.565   1.920   2.414
 4562SOL     OW14365   3.252   3.430   2.345
 4562SOL    HW114366   3.313   3.461   2.278
 4562SOL    HW214367   3.204   3.508   2.373
 4563SOL     OW14368   1.998   3.658   3.705
 4563SOL    HW114369   1.947   3.594   3.754
 4563SOL    HW214370   2.046   3.707   3.772
 4564SOL     OW14371   3.139   2.787   2.534
 4564SOL    HW114372   3.212   2.725   2.539
 4564SOL    HW214373   3.173   2.860   2.481
 4565SOL     OW14374   2.680   3.135   3.293
 4565SOL    HW114375   2.653   3.173   3.376
 4565SOL    HW214376   2.609   3.157   3.232
 4566SOL     OW14377   2.534   3.480   2.017
 4566SOL    HW114378   2.543   3.491   1.923
 4566SOL    HW214379   2.480   3.401   2.027
 4567SOL     OW14380   3.493   3.588   3.254
 4567SOL    HW114381   3.541   3.596   3.171
 4567SOL    HW214382   3.479   3.679   3.282
 4568SOL     OW14383   3.702   2.035   2.830
 4568SOL    HW114384   3.731   1.949   2.801
 4568SOL    HW214385   3.616   2.046   2.790
 4569SOL     OW14386   3.068   3.469   1.893
 4569SOL    HW114387   3.060   3.378   1.920
 4569SOL    HW214388   3.003   3.480   1.823
 4570SOL     OW14389   2.685   2.868   3.235
 4570SOL    HW114390   2.731   2.861   3.151
 4570SOL    HW214391   2.688   2.962   3.256
 4571SOL     OW14392   2.777   2.772   2.151
 4571SOL    HW114393   2.839   2.804   2.086
 4571SOL    HW214394   2.824   2.702   2.196
 4572SOL     OW14395   3.356   3.486   1.904
 4572SOL    HW114396   3.261   3.482   1.892
 4572SOL    HW214397   3.391   3.493   1.815
 4573SOL     OW14398   2.232   3.163   3.353
 4573SOL    HW114399   2.218   3.241   3.300
 4573SOL    HW214400   2.154   3.109   3.338
 4574SOL     OW14401   3.473   3.145   3.143
 4574SOL    HW114402   3.533   3.136   3.218
 4574SOL    HW214403   3.413   3.215   3.168
 4575SOL     OW14404   2.911   2.967   2.567
 4575SOL    HW114405   2.841   2.915   2.607
 4575SOL    HW214406   2.973   2.903   2.534
 4576SOL     OW14407   2.883   2.101   2.828
 4576SOL    HW114408   2.877   2.053   2.746
 4576SOL    HW214409   2.877   2.033   2.896
 4577SOL     OW14410   2.464   3.351   2.344
 4577SOL    HW114411   2.505   3.300   2.274
 4577SOL    HW214412   2.396   3.402   2.300
 4578SOL     OW14413   3.582   2.254   3.242
 4578SOL    HW114414   3.654   2.317   3.240
 4578SOL    HW214415   3.612   2.182   3.186
 4579SOL     OW14416   2.120   3.208   2.150
 4579SOL    HW114417   2.027   3.206   2.127
 4579SOL    HW214418   2.123   3.245   2.238
 4580SOL     OW14419   1.974   2.880   3.581
 4580SOL    HW114420   1.898   2.858   3.634
 4580SOL    HW214421   2.048   2.844   3.629
 4581SOL     OW14422   2.542   2.053   3.353
 4581SOL    HW114423   2.628   2.030   3.320
 4581SOL    HW214424   2.559   2.088   3.441
 4582SOL     OW14425   1.908   2.195   1.905
 4582SOL    HW114426   1.828   2.163   1.863
 4582SOL    HW214427   1.933   2.272   1.853
 4583SOL     OW14428   3.294   2.721   3.264
 4583SOL    HW114429   3.245   2.780   3.207
 4583SOL    HW214430   3.383   2.723   3.230
 4584SOL     OW14431   1.932   2.018   2.171
 4584SOL    HW114432   1.906   2.094   2.119
 4584SOL    HW214433   2.028   2.025   2.177
 4585SOL     OW14434   3.042   3.203   1.979
 4585SOL    HW114435   2.951   3.173   1.982
 4585SOL    HW214436   3.070   3.203   2.070
 4586SOL     OW14437   2.482   2.693   3.292
 4586SOL    HW114438   2.536   2.771   3.279
 4586SOL    HW214439   2.545   2.621   3.298
 4587SOL     OW14440   3.347   3.637   2.838
 4587SOL    HW114441   3.372   3.695   2.766
 4587SOL    HW214442   3.428   3.620   2.885
 4588SOL     OW14443   2.584   2.428   3.567
 4588SOL    HW114444   2.621   2.493   3.627
 4588SOL    HW214445   2.618   2.345   3.599
 4589SOL     OW14446   3.331   3.064   3.495
 4589SOL    HW114447   3.319   3.078   3.589
 4589SOL    HW214448   3.425   3.077   3.480
 4590SOL     OW14449   2.244   3.601   3.426
 4590SOL    HW114450   2.158   3.641   3.413
 4590SOL    HW214451   2.225   3.517   3.468
 4591SOL     OW14452   3.533   2.744   3.118
 4591SOL    HW114453   3.525   2.658   3.075
 4591SOL    HW214454   3.524   2.807   3.046
 4592SOL     OW14455   3.080   2.182   2.320
 4592SOL    HW114456   3.144   2.111   2.311
 4592SOL    HW214457   3.109   2.230   2.397
 4593SOL     OW14458   2.442   2.609   2.517
 4593SOL    HW114459   2.491   2.691   2.508
 4593SOL    HW214460   2.366   2.620   2.461
 4594SOL     OW14461   3.626   2.222   3.511
 4594SOL    HW114462   3.609   2.236   3.418
 4594SOL    HW214463   3.555   2.165   3.541
 4595SOL     OW14464   3.606   2.796   3.375
 4595SOL    HW114465   3.607   2.890   3.387
 4595SOL    HW214466   3.591   2.784   3.281
 4596SOL     OW14467   2.724   3.230   1.893
 4596SOL    HW114468   2.685   3.257   1.976
 4596SOL    HW214469   2.744   3.312   1.848
 4597SOL     OW14470   2.521   3.655   2.809
 4597SOL    HW114471   2.500   3.746   2.785
 4597SOL    HW214472   2.616   3.650   2.801
 4598SOL     OW14473   2.727   2.826   2.718
 4598SOL    HW114474   2.778   2.756   2.757
 4598SOL    HW214475   2.697   2.878   2.793
 4599SOL     OW14476   2.941   2.850   1.950
 4599SOL    HW114477   2.920   2.900   1.872
 4599SOL    HW214478   3.017   2.797   1.925
 4600SOL     OW14479   3.718   3.418   2.707
 4600SOL    HW114480   3.641   3.406   2.652
 4600SOL    HW214481   3.711   3.350   2.774
 4601SOL     OW14482   2.086   3.166   3.718
 4601SOL    HW114483   2.019   3.105   3.689
 4601SOL    HW214484   2.069   3.179   3.811
 4602SOL     OW14485   1.945   3.098   2.527
 4602SOL    HW114486   1.945   3.048   2.608
 4602SOL    HW214487   2.013   3.058   2.473
 4603SOL     OW14488   2.541   3.263   3.488
 4603SOL    HW114489   2.462   3.220   3.519
 4603SOL    HW214490   2.537   3.351   3.525
 4604SOL     OW14491   3.676   2.047   3.100
 4604SOL    HW114492   3.685   1.953   3.115
 4604SOL    HW214493   3.685   2.057   3.006
 4605SOL     OW14494   3.563   3.353   2.962
 4605SOL    HW114495   3.482   3.328   2.917
 4605SOL    HW214496   3.577   3.284   3.026
 4606SOL     OW14497   2.688   3.440   2.541
 4606SOL    HW114498   2.680   3.487   2.458
 4606SOL    HW214499   2.610   3.385   2.544
 4607SOL     OW14500   3.295   2.085   2.980
 4607SOL    HW114501   3.321   2.006   3.028
 4607SOL    HW214502   3.243   2.135   3.043
 4608SOL     OW14503   2.871   1.882   3.007
 4608SOL    HW114504   2.815   1.814   2.968
 4608SOL    HW214505   2.958   1.843   3.009
 4609SOL     OW14506   2.633   3.194   2.174
 4609SOL    HW114507   2.600   3.104   2.180
 4609SOL    HW214508   2.716   3.193   2.222
 4610SOL     OW14509   2.482   3.420   3.146
 4610SOL    HW114510   2.485   3.501   3.197
 4610SOL    HW214511   2.569   3.412   3.108
 4611SOL     OW14512   3.214   1.916   2.026
 4611SOL    HW114513   3.240   1.855   1.957
 4611SOL    HW214514   3.127   1.885   2.053
 4612SOL     OW14515   3.160   2.322   2.545
 4612SOL    HW114516   3.104   2.400   2.552
 4612SOL    HW214517   3.156   2.282   2.631
 4613SOL     OW14518   3.450   2.067   2.739
 4613SOL    HW114519   3.386   2.085   2.808
 4613SOL    HW214520   3.449   2.145   2.684
 4614SOL     OW14521   1.905   2.934   2.168
 4614SOL    HW114522   1.998   2.925   2.151
 4614SOL    HW214523   1.876   2.846   2.191
 4615SOL     OW14524   2.744   3.512   2.206
 4615SOL    HW114525   2.672   3.495   2.145
 4615SOL    HW214526   2.714   3.589   2.256
 4616SOL     OW14527   2.067   2.522   3.844
 4616SOL    HW114528   1.981   2.494   3.876
 4616SOL    HW214529   2.086   2.463   3.770
 4617SOL     OW14530   1.869   2.250   4.350
 4617SOL    HW114531   1.795   2.267   4.409
 4617SOL    HW214532   1.847   2.167   4.308
 4618SOL     OW14533   2.429   3.144   4.887
 4618SOL    HW114534   2.339   3.157   4.855
 4618SOL    HW214535   2.452   3.227   4.929
 4619SOL     OW14536   3.420   3.373   4.430
 4619SOL    HW114537   3.376   3.356   4.513
 4619SOL    HW214538   3.348   3.379   4.366
 4620SOL     OW14539   3.004   2.550   4.429
 4620SOL    HW114540   3.042   2.638   4.423
 4620SOL    HW214541   2.939   2.558   4.499
 4621SOL     OW14542   3.625   2.469   3.955
 4621SOL    HW114543   3.607   2.460   3.861
 4621SOL    HW214544   3.592   2.388   3.993
 4622SOL     OW14545   2.605   3.025   4.705
 4622SOL    HW114546   2.538   3.041   4.772
 4622SOL    HW214547   2.647   3.110   4.691
 4623SOL     OW14548   2.728   2.625   5.486
 4623SOL    HW114549   2.730   2.668   5.571
 4623SOL    HW214550   2.719   2.696   5.423
 4624SOL     OW14551   2.549   2.869   4.375
 4624SOL    HW114552   2.618   2.861   4.440
 4624SOL    HW214553   2.481   2.922   4.417
 4625SOL     OW14554   2.586   3.029   5.556
 4625SOL    HW114555   2.633   3.110   5.575
 4625SOL    HW214556   2.505   3.057   5.514
 4626SOL     OW14557   2.203   3.288   4.788
 4626SOL    HW114558   2.122   3.272   4.739
 4626SOL    HW214559   2.255   3.343   4.730
 4627SOL     OW14560   3.322   3.361   5.074
 4627SOL    HW114561   3.369   3.444   5.086
 4627SOL    HW214562   3.266   3.354   5.151
 4628SOL     OW14563   3.473   2.311   4.466
 4628SOL    HW114564   3.402   2.338   4.408
 4628SOL    HW214565   3.500   2.391   4.511
 4629SOL     OW14566   2.082   3.575   4.198
 4629SOL    HW114567   2.105   3.652   4.251
 4629SOL    HW214568   2.152   3.569   4.134
 4630SOL     OW14569   3.003   3.210   5.416
 4630SOL    HW114570   3.043   3.202   5.503
 4630SOL    HW214571   2.949   3.131   5.407
 4631SOL     OW14572   2.092   3.302   4.258
 4631SOL    HW114573   2.077   3.397   4.262
 4631SOL    HW214574   2.030   3.266   4.321
 4632SOL     OW14575   2.476   3.653   5.156
 4632SOL    HW114576   2.393   3.636   5.200
 4632SOL    HW214577   2.498   3.743   5.180
 4633SOL     OW14578   2.450   2.840   3.855
 4633SOL    HW114579   2.493   2.894   3.788
 4633SOL    HW214580   2.490   2.868   3.937
 4634SOL     OW14581   3.459   1.984   5.192
 4634SOL    HW114582   3.458   2.064   5.141
 4634SOL    HW214583   3.448   2.013   5.283
 4635SOL     OW14584   1.985   2.503   4.282
 4635SOL    HW114585   1.950   2.416   4.300
 4635SOL    HW214586   1.958   2.556   4.357
 4636SOL     OW14587   3.704   3.623   4.060
 4636SOL    HW114588   3.764   3.594   4.129
 4636SOL    HW214589   3.730   3.713   4.042
 4637SOL     OW14590   1.892   3.458   3.848
 4637SOL    HW114591   1.874   3.366   3.868
 4637SOL    HW214592   1.868   3.505   3.928
 4638SOL     OW14593   3.549   2.778   4.362
 4638SOL    HW114594   3.636   2.741   4.346
 4638SOL    HW214595   3.530   2.830   4.283
 4639SOL     OW14596   3.507   2.970   4.154
 4639SOL    HW114597   3.592   2.977   4.111
 4639SOL    HW214598   3.512   3.030   4.228
 4640SOL     OW14599   2.476   3.247   4.459
 4640SOL    HW114600   2.432   3.163   4.469
 4640SOL    HW214601   2.459   3.272   4.368
 4641SOL     OW14602   3.157   3.091   5.151
 4641SOL    HW114603   3.201   3.029   5.093
 4641SOL    HW214604   3.210   3.089   5.231
 4642SOL     OW14605   2.669   1.859   4.222
 4642SOL    HW114606   2.713   1.943   4.204
 4642SOL    HW214607   2.577   1.883   4.236
 4643SOL     OW14608   3.394   2.854   3.921
 4643SOL    HW114609   3.324   2.796   3.951
 4643SOL    HW214610   3.433   2.888   4.001
 4644SOL     OW14611   3.048   3.666   5.345
 4644SOL    HW114612   3.061   3.724   5.269
 4644SOL    HW214613   3.062   3.578   5.311
 4645SOL     OW14614   3.329   3.280   4.678
 4645SOL    HW114615   3.259   3.294   4.742
 4645SOL    HW214616   3.317   3.190   4.649
 4646SOL     OW14617   3.523   3.596   4.302
 4646SOL    HW114618   3.500   3.568   4.213
 4646SOL    HW214619   3.497   3.523   4.358
 4647SOL     OW14620   2.460   2.584   3.991
 4647SOL    HW114621   2.467   2.659   3.931
 4647SOL    HW214622   2.387   2.605   4.048
 4648SOL     OW14623   3.443   3.531   4.033
 4648SOL    HW114624   3.533   3.565   4.027
 4648SOL    HW214625   3.418   3.514   3.942
 4649SOL     OW14626   2.598   2.499   5.201
 4649SOL    HW114627   2.591   2.449   5.283
 4649SOL    HW214628   2.579   2.434   5.133
 4650SOL     OW14629   2.911   2.560   4.151
 4650SOL    HW114630   2.929   2.547   4.244
 4650SOL    HW214631   2.829   2.513   4.136
 4651SOL     OW14632   1.926   2.678   4.483
 4651SOL    HW114633   2.011   2.672   4.528
 4651SOL    HW214634   1.883   2.753   4.523
 4652SOL     OW14635   1.991   3.709   5.303
 4652SOL    HW114636   1.989   3.687   5.396
 4652SOL    HW214637   1.900   3.700   5.274
 4653SOL     OW14638   2.751   2.210   3.917
 4653SOL    HW114639   2.795   2.270   3.856
 4653SOL    HW214640   2.764   2.123   3.879
 4654SOL     OW14641   3.578   2.441   5.552
 4654SOL    HW114642   3.536   2.515   5.508
 4654SOL    HW214643   3.593   2.377   5.482
 4655SOL     OW14644   3.236   3.002   4.265
 4655SOL    HW114645   3.315   2.990   4.213
 4655SOL    HW214646   3.184   3.066   4.216
 4656SOL     OW14647   2.869   3.306   4.197
 4656SOL    HW114648   2.830   3.379   4.150
 4656SOL    HW214649   2.856   3.328   4.289
 4657SOL     OW14650   2.216   3.669   4.583
 4657SOL    HW114651   2.261   3.585   4.591
 4657SOL    HW214652   2.284   3.734   4.601
 4658SOL     OW14653   3.660   2.921   4.591
 4658SOL    HW114654   3.602   2.906   4.516
 4658SOL    HW214655   3.600   2.927   4.666
 4659SOL     OW14656   3.090   3.403   5.237
 4659SOL    HW114657   3.077   3.332   5.300
 4659SOL    HW214658   3.032   3.382   5.164
 4660SOL     OW14659   2.182   2.815   3.972
 4660SOL    HW114660   2.263   2.834   3.925
 4660SOL    HW214661   2.148   2.736   3.931
 4661SOL     OW14662   3.338   2.603   4.455
 4661SOL    HW114663   3.332   2.557   4.538
 4661SOL    HW214664   3.416   2.657   4.463
 4662SOL     OW14665   2.982   3.640   3.955
 4662SOL    HW114666   2.911   3.597   4.002
 4662SOL    HW214667   3.005   3.579   3.884
 4663SOL     OW14668   1.941   2.133   5.231
 4663SOL    HW114669   1.970   2.222   5.209
 4663SOL    HW214670   2.021   2.086   5.253
 4664SOL     OW14671   3.491   3.241   3.811
 4664SOL    HW114672   3.450   3.326   3.796
 4664SOL    HW214673   3.422   3.178   3.792
 4665SOL     OW14674   2.329   3.600   4.045
 4665SOL    HW114675   2.369   3.657   4.111
 4665SOL    HW214676   2.402   3.572   3.990
 4666SOL     OW14677   3.263   1.974   4.153
 4666SOL    HW114678   3.251   1.945   4.063
 4666SOL    HW214679   3.358   1.973   4.167
 4667SOL     OW14680   2.119   3.654   4.956
 4667SOL    HW114681   2.172   3.590   5.003
 4667SOL    HW214682   2.110   3.618   4.868
 4668SOL     OW14683   2.800   3.563   4.623
 4668SOL    HW114684   2.871   3.505   4.651
 4668SOL    HW214685   2.754   3.512   4.555
 4669SOL     OW14686   2.245   2.567   4.187
 4669SOL    HW114687   2.269   2.479   4.157
 4669SOL    HW214688   2.153   2.559   4.214
 4670SOL     OW14689   3.407   2.078   5.448
 4670SOL    HW114690   3.410   2.112   5.537
 4670SOL    HW214691   3.326   2.028   5.444
 4671SOL     OW14692   2.488   1.994   3.829
 4671SOL    HW114693   2.557   1.935   3.858
 4671SOL    HW214694   2.450   1.952   3.752
 4672SOL     OW14695   2.624   2.141   5.479
 4672SOL    HW114696   2.693   2.082   5.508
 4672SOL    HW214697   2.561   2.141   5.551
 4673SOL     OW14698   2.742   3.395   4.909
 4673SOL    HW114699   2.723   3.356   4.824
 4673SOL    HW214700   2.795   3.330   4.954
 4674SOL     OW14701   2.678   3.279   4.658
 4674SOL    HW114702   2.763   3.260   4.618
 4674SOL    HW214703   2.615   3.270   4.586
 4675SOL     OW14704   2.405   1.932   4.225
 4675SOL    HW114705   2.327   1.927   4.280
 4675SOL    HW214706   2.402   2.019   4.186
 4676SOL     OW14707   3.290   3.060   3.765
 4676SOL    HW114708   3.321   2.984   3.815
 4676SOL    HW214709   3.205   3.080   3.803
 4677SOL     OW14710   2.159   1.904   3.904
 4677SOL    HW114711   2.224   1.966   3.871
 4677SOL    HW214712   2.210   1.836   3.947
 4678SOL     OW14713   2.797   2.095   4.170
 4678SOL    HW114714   2.779   2.144   4.089
 4678SOL    HW214715   2.892   2.104   4.182
 4679SOL     OW14716   3.093   3.429   4.514
 4679SOL    HW114717   3.107   3.500   4.451
 4679SOL    HW214718   3.156   3.446   4.584
 4680SOL     OW14719   2.328   3.012   4.461
 4680SOL    HW114720   2.265   2.982   4.528
 4680SOL    HW214721   2.284   2.993   4.378
 4681SOL     OW14722   3.133   3.657   4.330
 4681SOL    HW114723   3.177   3.718   4.272
 4681SOL    HW214724   3.068   3.710   4.376
 4682SOL     OW14725   2.887   2.407   3.744
 4682SOL    HW114726   2.846   2.491   3.725
 4682SOL    HW214727   2.952   2.426   3.812
 4683SOL     OW14728   1.978   2.409   5.163
 4683SOL    HW114729   2.043   2.420   5.093
 4683SOL    HW214730   1.946   2.498   5.179
 4684SOL     OW14731   2.745   2.305   4.336
 4684SOL    HW114732   2.701   2.357   4.269
 4684SOL    HW214733   2.762   2.220   4.294
 4685SOL     OW14734   2.874   1.878   4.422
 4685SOL    HW114735   2.797   1.869   4.365
 4685SOL    HW214736   2.853   1.826   4.499
 4686SOL     OW14737   3.298   3.024   4.581
 4686SOL    HW114738   3.229   2.957   4.572
 4686SOL    HW214739   3.325   3.042   4.491
 4687SOL     OW14740   3.329   2.463   4.711
 4687SOL    HW114741   3.298   2.372   4.716
 4687SOL    HW214742   3.394   2.469   4.781
 4688SOL     OW14743   3.710   2.680   4.105
 4688SOL    HW114744   3.765   2.628   4.164
 4688SOL    HW214745   3.680   2.618   4.039
 4689SOL     OW14746   2.354   3.277   3.884
 4689SOL    HW114747   2.279   3.247   3.936
 4689SOL    HW214748   2.335   3.247   3.795
 4690SOL     OW14749   3.530   3.126   4.373
 4690SOL    HW114750   3.625   3.131   4.385
 4690SOL    HW214751   3.499   3.215   4.393
 4691SOL     OW14752   3.256   2.434   3.795
 4691SOL    HW114753   3.196   2.415   3.867
 4691SOL    HW214754   3.340   2.400   3.825
 4692SOL     OW14755   3.615   3.099   5.299
 4692SOL    HW114756   3.702   3.059   5.298
 4692SOL    HW214757   3.630   3.189   5.329
 4693SOL     OW14758   2.948   3.230   5.051
 4693SOL    HW114759   2.864   3.208   5.090
 4693SOL    HW214760   3.011   3.176   5.098
 4694SOL     OW14761   3.468   3.488   5.376
 4694SOL    HW114762   3.465   3.521   5.287
 4694SOL    HW214763   3.551   3.440   5.381
 4695SOL     OW14764   3.493   2.962   4.801
 4695SOL    HW114765   3.490   3.023   4.876
 4695SOL    HW214766   3.412   2.979   4.753
 4696SOL     OW14767   2.850   2.991   5.434
 4696SOL    HW114768   2.762   2.992   5.471
 4696SOL    HW214769   2.856   2.909   5.385
 4697SOL     OW14770   2.570   2.922   4.096
 4697SOL    HW114771   2.557   2.908   4.190
 4697SOL    HW214772   2.646   2.869   4.073
 4698SOL     OW14773   1.927   3.462   5.085
 4698SOL    HW114774   1.896   3.529   5.023
 4698SOL    HW214775   2.022   3.466   5.077
 4699SOL     OW14776   2.208   2.965   4.220
 4699SOL    HW114777   2.217   3.041   4.162
 4699SOL    HW214778   2.210   2.889   4.161
 4700SOL     OW14779   3.110   3.210   4.113
 4700SOL    HW114780   3.165   3.282   4.144
 4700SOL    HW214781   3.023   3.230   4.147
 4701SOL     OW14782   3.140   3.314   4.870
 4701SOL    HW114783   3.200   3.320   4.944
 4701SOL    HW214784   3.062   3.272   4.906
 4702SOL     OW14785   3.445   2.486   4.204
 4702SOL    HW114786   3.400   2.546   4.264
 4702SOL    HW214787   3.491   2.544   4.143
 4703SOL     OW14788   2.213   3.397   5.039
 4703SOL    HW114789   2.191   3.343   4.963
 4703SOL    HW214790   2.308   3.404   5.037
 4704SOL     OW14791   2.323   2.587   5.354
 4704SOL    HW114792   2.352   2.661   5.301
 4704SOL    HW214793   2.396   2.525   5.351
 4705SOL     OW14794   3.464   2.642   5.407
 4705SOL    HW114795   3.373   2.670   5.397
 4705SOL    HW214796   3.510   2.684   5.335
 4706SOL     OW14797   3.218   2.719   4.757
 4706SOL    HW114798   3.152   2.711   4.688
 4706SOL    HW214799   3.258   2.632   4.762
 4707SOL     OW14800   3.068   2.391   3.991
 4707SOL    HW114801   3.076   2.313   4.045
 4707SOL    HW214802   3.026   2.455   4.049
 4708SOL     OW14803   1.977   3.211   4.998
 4708SOL    HW114804   1.941   3.140   5.051
 4708SOL    HW214805   1.944   3.291   5.041
 4709SOL     OW14806   3.597   2.822   5.573
 4709SOL    HW114807   3.550   2.761   5.516
 4709SOL    HW214808   3.537   2.838   5.646
 4710SOL     OW14809   2.160   1.924   4.361
 4710SOL    HW114810   2.138   2.013   4.389
 4710SOL    HW214811   2.143   1.870   4.437
 4711SOL     OW14812   3.478   2.235   4.092
 4711SOL    HW114813   3.503   2.170   4.157
 4711SOL    HW214814   3.454   2.313   4.143
 4712SOL     OW14815   2.842   3.430   5.437
 4712SOL    HW114816   2.829   3.474   5.353
 4712SOL    HW214817   2.888   3.349   5.415
 4713SOL     OW14818   3.717   3.371   5.330
 4713SOL    HW114819   3.734   3.396   5.239
 4713SOL    HW214820   3.799   3.391   5.376
 4714SOL     OW14821   3.392   2.136   3.851
 4714SOL    HW114822   3.328   2.070   3.877
 4714SOL    HW214823   3.425   2.171   3.934
 4715SOL     OW14824   3.156   2.689   3.757
 4715SOL    HW114825   3.199   2.603   3.760
 4715SOL    HW214826   3.187   2.728   3.675
 4716SOL     OW14827   2.918   3.209   4.562
 4716SOL    HW114828   2.929   3.130   4.509
 4716SOL    HW214829   2.991   3.265   4.537
 4717SOL     OW14830   1.867   3.184   3.919
 4717SOL    HW114831   1.780   3.198   3.881
 4717SOL    HW214832   1.865   3.094   3.952
 4718SOL     OW14833   1.951   3.649   4.659
 4718SOL    HW114834   1.923   3.568   4.616
 4718SOL    HW214835   2.042   3.662   4.629
 4719SOL     OW14836   2.362   3.437   4.628
 4719SOL    HW114837   2.430   3.499   4.654
 4719SOL    HW214838   2.407   3.371   4.575
 4720SOL     OW14839   3.232   2.805   5.384
 4720SOL    HW114840   3.258   2.897   5.382
 4720SOL    HW214841   3.243   2.775   5.293
 4721SOL     OW14842   2.675   2.429   4.081
 4721SOL    HW114843   2.680   2.356   4.019
 4721SOL    HW214844   2.601   2.481   4.050
 4722SOL     OW14845   3.507   2.465   4.912
 4722SOL    HW114846   3.497   2.407   4.987
 4722SOL    HW214847   3.594   2.444   4.877
 4723SOL     OW14848   2.113   3.422   5.453
 4723SOL    HW114849   2.084   3.482   5.522
 4723SOL    HW214850   2.108   3.335   5.493
 4724SOL     OW14851   2.513   2.356   4.982
 4724SOL    HW114852   2.492   2.265   4.960
 4724SOL    HW214853   2.536   2.396   4.898
 4725SOL     OW14854   2.790   3.543   5.192
 4725SOL    HW114855   2.767   3.507   5.106
 4725SOL    HW214856   2.787   3.638   5.180
 4726SOL     OW14857   3.209   2.914   4.944
 4726SOL    HW114858   3.224   2.846   4.877
 4726SOL    HW214859   3.129   2.958   4.916
 4727SOL     OW14860   3.171   2.717   4.031
 4727SOL    HW114861   3.093   2.689   4.079
 4727SOL    HW214862   3.149   2.705   3.939
 4728SOL     OW14863   3.631   3.608   4.873
 4728SOL    HW114864   3.691   3.634   4.803
 4728SOL    HW214865   3.608   3.518   4.852
 4729SOL     OW14866   3.104   3.595   4.840
 4729SOL    HW114867   3.186   3.613   4.794
 4729SOL    HW214868   3.107   3.501   4.857
 4730SOL     OW14869   2.539   3.537   5.453
 4730SOL    HW114870   2.488   3.618   5.447
 4730SOL    HW214871   2.605   3.545   5.384
 4731SOL     OW14872   3.581   2.005   4.236
 4731SOL    HW114873   3.654   1.991   4.176
 4731SOL    HW214874   3.565   1.920   4.276
 4732SOL     OW14875   3.252   3.430   4.206
 4732SOL    HW114876   3.313   3.462   4.140
 4732SOL    HW214877   3.204   3.507   4.235
 4733SOL     OW14878   1.995   3.657   5.570
 4733SOL    HW114879   1.947   3.591   5.620
 4733SOL    HW214880   2.044   3.706   5.635
 4734SOL     OW14881   3.139   2.787   4.400
 4734SOL    HW114882   3.212   2.725   4.401
 4734SOL    HW214883   3.170   2.860   4.346
 4735SOL     OW14884   2.695   3.201   5.134
 4735SOL    HW114885   2.663   3.223   5.222
 4735SOL    HW214886   2.629   3.141   5.099
 4736SOL     OW14887   2.534   3.480   3.879
 4736SOL    HW114888   2.543   3.491   3.785
 4736SOL    HW214889   2.480   3.401   3.889
 4737SOL     OW14890   3.493   3.588   5.116
 4737SOL    HW114891   3.541   3.596   5.033
 4737SOL    HW214892   3.480   3.679   5.144
 4738SOL     OW14893   3.701   2.035   4.691
 4738SOL    HW114894   3.731   1.948   4.663
 4738SOL    HW214895   3.614   2.044   4.651
 4739SOL     OW14896   3.068   3.469   3.755
 4739SOL    HW114897   3.060   3.378   3.782
 4739SOL    HW214898   3.003   3.480   3.685
 4740SOL     OW14899   2.777   2.773   4.014
 4740SOL    HW114900   2.839   2.804   3.948
 4740SOL    HW214901   2.824   2.702   4.058
 4741SOL     OW14902   3.356   3.486   3.766
 4741SOL    HW114903   3.261   3.482   3.754
 4741SOL    HW214904   3.391   3.492   3.677
 4742SOL     OW14905   2.224   3.201   5.235
 4742SOL    HW114906   2.217   3.278   5.178
 4742SOL    HW214907   2.179   3.131   5.187
 4743SOL     OW14908   3.475   3.146   5.005
 4743SOL    HW114909   3.531   3.135   5.082
 4743SOL    HW214910   3.413   3.215   5.030
 4744SOL     OW14911   2.916   2.971   4.424
 4744SOL    HW114912   2.849   2.923   4.472
 4744SOL    HW214913   2.975   2.904   4.390
 4745SOL     OW14914   2.462   3.349   4.205
 4745SOL    HW114915   2.505   3.300   4.135
 4745SOL    HW214916   2.397   3.403   4.160
 4746SOL     OW14917   3.580   2.256   5.102
 4746SOL    HW114918   3.653   2.317   5.102
 4746SOL    HW214919   3.611   2.183   5.047
 4747SOL     OW14920   2.120   3.208   4.011
 4747SOL    HW114921   2.027   3.207   3.989
 4747SOL    HW214922   2.123   3.245   4.099
 4748SOL     OW14923   2.533   2.080   5.201
 4748SOL    HW114924   2.588   2.003   5.184
 4748SOL    HW214925   2.551   2.102   5.292
 4749SOL     OW14926   1.920   2.202   3.777
 4749SOL    HW114927   1.841   2.177   3.729
 4749SOL    HW214928   1.966   2.262   3.718
 4750SOL     OW14929   3.304   2.735   5.134
 4750SOL    HW114930   3.250   2.783   5.071
 4750SOL    HW214931   3.390   2.727   5.093
 4751SOL     OW14932   1.937   2.021   4.035
 4751SOL    HW114933   1.914   2.095   3.979
 4751SOL    HW214934   2.017   1.985   3.997
 4752SOL     OW14935   3.042   3.203   3.841
 4752SOL    HW114936   2.951   3.173   3.845
 4752SOL    HW214937   3.070   3.203   3.932
 4753SOL     OW14938   3.347   3.636   4.700
 4753SOL    HW114939   3.372   3.695   4.628
 4753SOL    HW214940   3.428   3.621   4.747
 4754SOL     OW14941   2.570   2.406   5.444
 4754SOL    HW114942   2.631   2.474   5.473
 4754SOL    HW214943   2.615   2.324   5.462
 4755SOL     OW14944   3.334   3.066   5.358
 4755SOL    HW114945   3.321   3.078   5.452
 4755SOL    HW214946   3.428   3.076   5.345
 4756SOL     OW14947   2.243   3.603   5.287
 4756SOL    HW114948   2.158   3.645   5.274
 4756SOL    HW214949   2.223   3.520   5.331
 4757SOL     OW14950   3.536   2.744   4.979
 4757SOL    HW114951   3.527   2.658   4.937
 4757SOL    HW214952   3.525   2.807   4.907
 4758SOL     OW14953   3.081   2.183   4.179
 4758SOL    HW114954   3.143   2.111   4.170
 4758SOL    HW214955   3.108   2.229   4.258
 4759SOL     OW14956   2.439   2.612   4.376
 4759SOL    HW114957   2.483   2.697   4.363
 4759SOL    HW214958   2.373   2.609   4.307
 4760SOL     OW14959   3.627   2.220   5.371
 4760SOL    HW114960   3.607   2.236   5.279
 4760SOL    HW214961   3.555   2.165   5.402
 4761SOL     OW14962   3.612   2.796   5.235
 4761SOL    HW114963   3.605   2.890   5.249
 4761SOL    HW214964   3.592   2.784   5.142
 4762SOL     OW14965   2.724   3.230   3.755
 4762SOL    HW114966   2.686   3.257   3.838
 4762SOL    HW214967   2.744   3.312   3.710
 4763SOL     OW14968   2.521   3.656   4.671
 4763SOL    HW114969   2.502   3.746   4.646
 4763SOL    HW214970   2.616   3.649   4.664
 4764SOL     OW14971   2.742   2.833   4.579
 4764SOL    HW114972   2.729   2.750   4.625
 4764SOL    HW214973   2.694   2.897   4.632
 4765SOL     OW14974   2.941   2.849   3.812
 4765SOL    HW114975   2.920   2.900   3.734
 4765SOL    HW214976   3.017   2.797   3.787
 4766SOL     OW14977   3.718   3.418   4.569
 4766SOL    HW114978   3.641   3.407   4.514
 4766SOL    HW214979   3.710   3.350   4.636
 4767SOL     OW14980   2.081   3.187   5.580
 4767SOL    HW114981   2.027   3.110   5.562
 4767SOL    HW214982   2.091   3.188   5.675
 4768SOL     OW14983   1.947   3.101   4.394
 4768SOL    HW114984   1.927   3.036   4.462
 4768SOL    HW214985   2.009   3.057   4.336
 4769SOL     OW14986   2.516   3.273   5.373
 4769SOL    HW114987   2.425   3.260   5.346
 4769SOL    HW214988   2.520   3.365   5.400
 4770SOL     OW14989   3.678   2.048   4.962
 4770SOL    HW114990   3.682   1.954   4.978
 4770SOL    HW214991   3.686   2.057   4.867
 4771SOL     OW14992   3.563   3.353   4.823
 4771SOL    HW114993   3.482   3.328   4.779
 4771SOL    HW214994   3.577   3.284   4.888
 4772SOL     OW14995   2.686   3.443   4.400
 4772SOL    HW114996   2.678   3.487   4.316
 4772SOL    HW214997   2.610   3.386   4.406
 4773SOL     OW14998   3.303   2.098   4.844
 4773SOL    HW114999   3.324   2.007   4.865
 4773SOL    HW215000   3.220   2.115   4.887
 4774SOL     OW15001   2.634   3.194   4.035
 4774SOL    HW115002   2.601   3.104   4.042
 4774SOL    HW215003   2.715   3.194   4.085
 4775SOL     OW15004   2.483   3.422   5.006
 4775SOL    HW115005   2.487   3.503   5.057
 4775SOL    HW215006   2.571   3.412   4.970
 4776SOL     OW15007   3.214   1.916   3.887
 4776SOL    HW115008   3.241   1.853   3.820
 4776SOL    HW215009   3.127   1.885   3.915
 4777SOL     OW15010   3.161   2.320   4.410
 4777SOL    HW115011   3.107   2.399   4.411
 4777SOL    HW215012   3.146   2.280   4.496
 4778SOL     OW15013   3.446   2.067   4.603
 4778SOL    HW115014   3.389   2.089   4.676
 4778SOL    HW215015   3.448   2.145   4.548
 4779SOL     OW15016   1.906   2.935   4.031
 4779SOL    HW115017   1.999   2.925   4.011
 4779SOL    HW215018   1.877   2.846   4.053
 4780SOL     OW15019   2.744   3.512   4.068
 4780SOL    HW115020   2.672   3.495   4.007
 4780SOL    HW215021   2.715   3.589   4.118
 4781SOL     OW15022   2.080   2.514   5.720
 4781SOL    HW115023   2.001   2.463   5.739
 4781SOL    HW215024   2.118   2.471   5.643
 4782SOL     OW15025   2.429   3.146   6.758
 4782SOL    HW115026   2.342   3.148   6.719
 4782SOL    HW215027   2.442   3.234   6.793
 4783SOL     OW15028   3.421   3.374   6.292
 4783SOL    HW115029   3.377   3.355   6.375
 4783SOL    HW215030   3.349   3.379   6.228
 4784SOL     OW15031   3.630   2.468   5.816
 4784SOL    HW115032   3.609   2.462   5.723
 4784SOL    HW215033   3.592   2.389   5.854
 4785SOL     OW15034   2.625   3.012   6.623
 4785SOL    HW115035   2.554   3.040   6.680
 4785SOL    HW215036   2.653   3.093   6.579
 4786SOL     OW15037   2.724   2.642   7.406
 4786SOL    HW115038   2.713   2.712   7.470
 4786SOL    HW215039   2.749   2.686   7.325
 4787SOL     OW15040   2.570   3.014   7.395
 4787SOL    HW115041   2.618   3.093   7.420
 4787SOL    HW215042   2.487   3.046   7.362
 4788SOL     OW15043   2.193   3.290   6.654
 4788SOL    HW115044   2.121   3.252   6.604
 4788SOL    HW215045   2.243   3.340   6.590
 4789SOL     OW15046   3.323   3.360   6.937
 4789SOL    HW115047   3.369   3.444   6.948
 4789SOL    HW215048   3.266   3.354   7.014
 4790SOL     OW15049   3.480   2.311   6.325
 4790SOL    HW115050   3.393   2.326   6.288
 4790SOL    HW215051   3.498   2.391   6.375
 4791SOL     OW15052   2.081   3.579   6.059
 4791SOL    HW115053   2.105   3.655   6.112
 4791SOL    HW215054   2.152   3.571   5.995
 4792SOL     OW15055   2.998   3.203   7.278
 4792SOL    HW115056   3.038   3.199   7.364
 4792SOL    HW215057   2.945   3.123   7.272
 4793SOL     OW15058   2.098   3.308   6.116
 4793SOL    HW115059   2.077   3.401   6.122
 4793SOL    HW215060   2.042   3.266   6.182
 4794SOL     OW15061   2.111   2.952   6.479
 4794SOL    HW115062   2.086   2.867   6.514
 4794SOL    HW215063   2.058   3.015   6.529
 4795SOL     OW15064   2.477   3.653   7.018
 4795SOL    HW115065   2.394   3.635   7.062
 4795SOL    HW215066   2.499   3.743   7.042
 4796SOL     OW15067   3.459   1.983   7.056
 4796SOL    HW115068   3.458   2.063   7.002
 4796SOL    HW215069   3.446   2.015   7.145
 4797SOL     OW15070   3.703   3.623   5.922
 4797SOL    HW115071   3.764   3.594   5.990
 4797SOL    HW215072   3.730   3.713   5.904
 4798SOL     OW15073   1.890   3.450   5.711
 4798SOL    HW115074   1.829   3.376   5.711
 4798SOL    HW215075   1.869   3.499   5.791
 4799SOL     OW15076   3.554   2.783   6.226
 4799SOL    HW115077   3.638   2.741   6.206
 4799SOL    HW215078   3.532   2.832   6.147
 4800SOL     OW15079   3.504   2.968   6.019
 4800SOL    HW115080   3.586   2.976   5.970
 4800SOL    HW215081   3.513   3.029   6.092
 4801SOL     OW15082   1.984   2.598   7.166
 4801SOL    HW115083   2.072   2.611   7.201
 4801SOL    HW215084   1.938   2.679   7.184
 4802SOL     OW15085   2.473   3.252   6.322
 4802SOL    HW115086   2.421   3.172   6.333
 4802SOL    HW215087   2.458   3.278   6.231
 4803SOL     OW15088   3.152   3.101   7.010
 4803SOL    HW115089   3.184   3.034   6.950
 4803SOL    HW215090   3.208   3.093   7.087
 4804SOL     OW15091   2.051   2.836   6.850
 4804SOL    HW115092   2.134   2.788   6.840
 4804SOL    HW215093   1.984   2.773   6.826
 4805SOL     OW15094   3.399   2.859   5.772
 4805SOL    HW115095   3.330   2.792   5.771
 4805SOL    HW215096   3.419   2.871   5.865
 4806SOL     OW15097   3.048   3.666   7.207
 4806SOL    HW115098   3.061   3.724   7.132
 4806SOL    HW215099   3.063   3.578   7.172
 4807SOL     OW15100   3.327   3.281   6.538
 4807SOL    HW115101   3.260   3.295   6.605
 4807SOL    HW215102   3.315   3.190   6.511
 4808SOL     OW15103   3.523   3.597   6.164
 4808SOL    HW115104   3.501   3.568   6.075
 4808SOL    HW215105   3.497   3.523   6.219
 4809SOL     OW15106   3.135   2.203   6.521
 4809SOL    HW115107   3.053   2.154   6.514
 4809SOL    HW215108   3.187   2.155   6.585
 4810SOL     OW15109   3.443   3.531   5.895
 4810SOL    HW115110   3.533   3.564   5.889
 4810SOL    HW215111   3.418   3.513   5.804
 4811SOL     OW15112   2.653   2.463   7.034
 4811SOL    HW115113   2.634   2.456   7.127
 4811SOL    HW215114   2.595   2.400   6.992
 4812SOL     OW15115   3.256   2.335   7.264
 4812SOL    HW115116   3.257   2.380   7.349
 4812SOL    HW215117   3.318   2.264   7.273
 4813SOL     OW15118   2.818   2.749   7.167
 4813SOL    HW115119   2.874   2.680   7.130
 4813SOL    HW215120   2.771   2.785   7.091
 4814SOL     OW15121   2.857   2.269   6.821
 4814SOL    HW115122   2.788   2.315   6.868
 4814SOL    HW215123   2.813   2.228   6.746
 4815SOL     OW15124   1.990   3.704   7.162
 4815SOL    HW115125   1.988   3.684   7.256
 4815SOL    HW215126   1.898   3.703   7.136
 4816SOL     OW15127   3.572   2.439   7.414
 4816SOL    HW115128   3.535   2.514   7.368
 4816SOL    HW215129   3.597   2.378   7.344
 4817SOL     OW15130   3.233   3.001   6.120
 4817SOL    HW115131   3.318   2.994   6.076
 4817SOL    HW215132   3.187   3.068   6.069
 4818SOL     OW15133   2.433   2.091   6.491
 4818SOL    HW115134   2.441   2.084   6.586
 4818SOL    HW215135   2.442   2.185   6.473
 4819SOL     OW15136   2.881   3.325   6.059
 4819SOL    HW115137   2.835   3.390   6.006
 4819SOL    HW215138   2.860   3.350   6.150
 4820SOL     OW15139   2.216   3.669   6.444
 4820SOL    HW115140   2.259   3.584   6.454
 4820SOL    HW215141   2.285   3.733   6.462
 4821SOL     OW15142   3.660   2.923   6.454
 4821SOL    HW115143   3.605   2.903   6.378
 4821SOL    HW215144   3.599   2.927   6.527
 4822SOL     OW15145   3.090   3.401   7.099
 4822SOL    HW115146   3.076   3.328   7.159
 4822SOL    HW215147   3.028   3.385   7.027
 4823SOL     OW15148   3.343   2.598   6.307
 4823SOL    HW115149   3.329   2.554   6.391
 4823SOL    HW215150   3.412   2.662   6.325
 4824SOL     OW15151   2.327   3.126   7.323
 4824SOL    HW115152   2.299   3.131   7.232
 4824SOL    HW215153   2.245   3.124   7.373
 4825SOL     OW15154   2.983   3.640   5.818
 4825SOL    HW115155   2.910   3.597   5.863
 4825SOL    HW215156   3.005   3.580   5.746
 4826SOL     OW15157   3.492   3.243   5.674
 4826SOL    HW115158   3.450   3.327   5.658
 4826SOL    HW215159   3.424   3.178   5.655
 4827SOL     OW15160   2.329   3.600   5.907
 4827SOL    HW115161   2.369   3.657   5.973
 4827SOL    HW215162   2.402   3.572   5.852
 4828SOL     OW15163   3.285   1.924   6.019
 4828SOL    HW115164   3.268   1.932   5.925
 4828SOL    HW215165   3.370   1.966   6.031
 4829SOL     OW15166   2.118   3.654   6.819
 4829SOL    HW115167   2.169   3.588   6.865
 4829SOL    HW215168   2.104   3.617   6.731
 4830SOL     OW15169   2.799   3.561   6.485
 4830SOL    HW115170   2.876   3.508   6.508
 4830SOL    HW215171   2.755   3.511   6.417
 4831SOL     OW15172   3.399   2.088   7.311
 4831SOL    HW115173   3.408   2.109   7.404
 4831SOL    HW215174   3.332   2.020   7.308
 4832SOL     OW15175   2.504   2.027   5.700
 4832SOL    HW115176   2.544   1.964   5.760
 4832SOL    HW215177   2.425   1.984   5.668
 4833SOL     OW15178   2.631   2.140   7.341
 4833SOL    HW115179   2.704   2.078   7.344
 4833SOL    HW215180   2.579   2.119   7.419
 4834SOL     OW15181   2.739   3.384   6.780
 4834SOL    HW115182   2.723   3.347   6.693
 4834SOL    HW215183   2.808   3.328   6.817
 4835SOL     OW15184   3.202   2.451   7.019
 4835SOL    HW115185   3.234   2.419   7.103
 4835SOL    HW215186   3.239   2.539   7.011
 4836SOL     OW15187   2.676   3.263   6.522
 4836SOL    HW115188   2.758   3.252   6.473
 4836SOL    HW215189   2.608   3.261   6.454
 4837SOL     OW15190   3.292   3.065   5.626
 4837SOL    HW115191   3.323   2.987   5.672
 4837SOL    HW215192   3.203   3.078   5.659
 4838SOL     OW15193   2.940   2.541   7.042
 4838SOL    HW115194   2.873   2.474   7.053
 4838SOL    HW215195   3.023   2.493   7.037
 4839SOL     OW15196   3.086   3.430   6.381
 4839SOL    HW115197   3.103   3.497   6.315
 4839SOL    HW215198   3.155   3.443   6.446
 4840SOL     OW15199   2.312   3.037   6.325
 4840SOL    HW115200   2.241   3.002   6.379
 4840SOL    HW215201   2.313   2.982   6.247
 4841SOL     OW15202   3.132   3.656   6.192
 4841SOL    HW115203   3.177   3.717   6.134
 4841SOL    HW215204   3.068   3.710   6.238
 4842SOL     OW15205   1.920   2.431   6.962
 4842SOL    HW115206   2.012   2.408   6.945
 4842SOL    HW215207   1.925   2.490   7.037
 4843SOL     OW15208   2.432   2.039   6.756
 4843SOL    HW115209   2.461   1.968   6.813
 4843SOL    HW215210   2.340   2.050   6.777
 4844SOL     OW15211   3.293   3.024   6.441
 4844SOL    HW115212   3.234   2.949   6.434
 4844SOL    HW215213   3.325   3.038   6.352
 4845SOL     OW15214   3.327   2.466   6.569
 4845SOL    HW115215   3.284   2.381   6.572
 4845SOL    HW215216   3.390   2.464   6.641
 4846SOL     OW15217   3.708   2.679   5.968
 4846SOL    HW115218   3.764   2.628   6.026
 4846SOL    HW215219   3.680   2.618   5.900
 4847SOL     OW15220   2.356   3.271   5.743
 4847SOL    HW115221   2.282   3.249   5.799
 4847SOL    HW215222   2.323   3.261   5.654
 4848SOL     OW15223   3.530   3.127   6.235
 4848SOL    HW115224   3.625   3.131   6.247
 4848SOL    HW215225   3.500   3.216   6.255
 4849SOL     OW15226   3.255   2.446   5.667
 4849SOL    HW115227   3.203   2.417   5.742
 4849SOL    HW215228   3.332   2.389   5.669
 4850SOL     OW15229   3.615   3.099   7.162
 4850SOL    HW115230   3.703   3.060   7.159
 4850SOL    HW215231   3.630   3.189   7.191
 4851SOL     OW15232   2.922   3.216   6.922
 4851SOL    HW115233   2.847   3.185   6.972
 4851SOL    HW215234   2.998   3.174   6.962
 4852SOL     OW15235   3.468   3.487   7.238
 4852SOL    HW115236   3.465   3.521   7.148
 4852SOL    HW215237   3.551   3.440   7.243
 4853SOL     OW15238   2.989   3.067   6.693
 4853SOL    HW115239   2.931   3.099   6.762
 4853SOL    HW215240   2.947   3.095   6.612
 4854SOL     OW15241   3.492   2.962   6.664
 4854SOL    HW115242   3.488   3.024   6.737
 4854SOL    HW215243   3.410   2.975   6.617
 4855SOL     OW15244   2.784   1.956   6.984
 4855SOL    HW115245   2.803   1.938   6.892
 4855SOL    HW215246   2.864   1.996   7.018
 4856SOL     OW15247   2.846   2.976   7.308
 4856SOL    HW115248   2.754   2.992   7.327
 4856SOL    HW215249   2.846   2.899   7.252
 4857SOL     OW15250   2.269   2.672   6.842
 4857SOL    HW115251   2.345   2.692   6.897
 4857SOL    HW215252   2.239   2.587   6.872
 4858SOL     OW15253   3.131   2.240   6.860
 4858SOL    HW115254   3.161   2.318   6.906
 4858SOL    HW215255   3.041   2.261   6.834
 4859SOL     OW15256   1.931   3.434   6.937
 4859SOL    HW115257   1.898   3.506   6.882
 4859SOL    HW215258   2.026   3.441   6.931
 4860SOL     OW15259   2.513   2.415   6.419
 4860SOL    HW115260   2.443   2.453   6.366
 4860SOL    HW215261   2.492   2.442   6.509
 4861SOL     OW15262   3.110   3.211   5.976
 4861SOL    HW115263   3.170   3.280   6.003
 4861SOL    HW215264   3.024   3.239   6.007
 4862SOL     OW15265   3.140   3.318   6.732
 4862SOL    HW115266   3.195   3.320   6.810
 4862SOL    HW215267   3.085   3.240   6.743
 4863SOL     OW15268   3.438   2.488   6.055
 4863SOL    HW115269   3.404   2.537   6.130
 4863SOL    HW215270   3.494   2.550   6.009
 4864SOL     OW15271   2.209   3.387   6.903
 4864SOL    HW115272   2.196   3.345   6.818
 4864SOL    HW215273   2.304   3.400   6.909
 4865SOL     OW15274   2.278   2.615   7.186
 4865SOL    HW115275   2.340   2.661   7.129
 4865SOL    HW215276   2.319   2.531   7.203
 4866SOL     OW15277   3.461   2.640   7.266
 4866SOL    HW115278   3.374   2.680   7.258
 4866SOL    HW215279   3.513   2.682   7.198
 4867SOL     OW15280   2.858   1.981   7.341
 4867SOL    HW115281   2.912   2.054   7.310
 4867SOL    HW215282   2.906   1.903   7.315
 4868SOL     OW15283   2.358   1.907   7.333
 4868SOL    HW115284   2.319   1.850   7.267
 4868SOL    HW215285   2.296   1.980   7.340
 4869SOL     OW15286   2.488   2.734   6.678
 4869SOL    HW115287   2.501   2.818   6.634
 4869SOL    HW215288   2.399   2.738   6.713
 4870SOL     OW15289   3.225   2.722   6.621
 4870SOL    HW115290   3.155   2.724   6.557
 4870SOL    HW215291   3.260   2.633   6.616
 4871SOL     OW15292   1.907   3.172   6.864
 4871SOL    HW115293   1.941   3.120   6.936
 4871SOL    HW215294   1.914   3.263   6.894
 4872SOL     OW15295   2.609   2.495   6.671
 4872SOL    HW115296   2.654   2.489   6.586
 4872SOL    HW215297   2.573   2.583   6.673
 4873SOL     OW15298   3.595   2.821   7.437
 4873SOL    HW115299   3.548   2.763   7.377
 4873SOL    HW215300   3.536   2.833   7.511
 4874SOL     OW15301   3.492   2.236   5.954
 4874SOL    HW115302   3.515   2.172   6.021
 4874SOL    HW215303   3.463   2.313   6.003
 4875SOL     OW15304   2.844   3.428   7.301
 4875SOL    HW115305   2.829   3.472   7.217
 4875SOL    HW215306   2.887   3.346   7.277
 4876SOL     OW15307   3.717   3.371   7.192
 4876SOL    HW115308   3.735   3.396   7.101
 4876SOL    HW215309   3.799   3.391   7.238
 4877SOL     OW15310   2.218   2.783   7.395
 4877SOL    HW115311   2.301   2.797   7.439
 4877SOL    HW215312   2.239   2.722   7.323
 4878SOL     OW15313   3.399   2.144   5.710
 4878SOL    HW115314   3.343   2.070   5.734
 4878SOL    HW215315   3.436   2.173   5.793
 4879SOL     OW15316   3.186   2.710   5.642
 4879SOL    HW115317   3.201   2.616   5.640
 4879SOL    HW215318   3.189   2.737   5.550
 4880SOL     OW15319   2.928   3.199   6.431
 4880SOL    HW115320   2.957   3.126   6.376
 4880SOL    HW215321   2.988   3.271   6.410
 4881SOL     OW15322   2.996   2.241   7.265
 4881SOL    HW115323   2.950   2.295   7.330
 4881SOL    HW215324   3.085   2.277   7.262
 4882SOL     OW15325   3.021   2.068   7.054
 4882SOL    HW115326   3.013   2.130   7.127
 4882SOL    HW215327   3.063   2.118   6.985
 4883SOL     OW15328   1.952   3.652   6.524
 4883SOL    HW115329   1.919   3.573   6.481
 4883SOL    HW215330   2.042   3.661   6.491
 4884SOL     OW15331   2.359   3.437   6.493
 4884SOL    HW115332   2.429   3.498   6.516
 4884SOL    HW215333   2.402   3.372   6.436
 4885SOL     OW15334   2.849   2.669   6.813
 4885SOL    HW115335   2.898   2.634   6.887
 4885SOL    HW215336   2.769   2.617   6.810
 4886SOL     OW15337   3.238   2.803   7.245
 4886SOL    HW115338   3.259   2.896   7.244
 4886SOL    HW215339   3.236   2.778   7.153
 4887SOL     OW15340   3.505   2.463   6.775
 4887SOL    HW115341   3.494   2.403   6.848
 4887SOL    HW215342   3.592   2.443   6.740
 4888SOL     OW15343   2.109   3.414   7.316
 4888SOL    HW115344   2.083   3.478   7.383
 4888SOL    HW215345   2.107   3.330   7.361
 4889SOL     OW15346   2.792   3.541   7.053
 4889SOL    HW115347   2.765   3.509   6.966
 4889SOL    HW215348   2.789   3.636   7.045
 4890SOL     OW15349   2.010   3.002   7.058
 4890SOL    HW115350   2.013   2.947   7.137
 4890SOL    HW215351   2.027   2.942   6.986
 4891SOL     OW15352   3.191   2.912   6.811
 4891SOL    HW115353   3.214   2.847   6.744
 4891SOL    HW215354   3.118   2.961   6.772
 4892SOL     OW15355   3.631   3.608   6.735
 4892SOL    HW115356   3.691   3.634   6.665
 4892SOL    HW215357   3.608   3.518   6.714
 4893SOL     OW15358   3.103   3.595   6.701
 4893SOL    HW115359   3.185   3.614   6.656
 4893SOL    HW215360   3.107   3.501   6.720
 4894SOL     OW15361   1.948   3.132   6.600
 4894SOL    HW115362   1.932   3.141   6.694
 4894SOL    HW215363   1.874   3.079   6.569
 4895SOL     OW15364   2.540   3.526   7.312
 4895SOL    HW115365   2.487   3.606   7.309
 4895SOL    HW215366   2.603   3.536   7.240
 4896SOL     OW15367   3.581   2.005   6.098
 4896SOL    HW115368   3.655   1.991   6.039
 4896SOL    HW215369   3.565   1.920   6.138
 4897SOL     OW15370   3.253   3.429   6.069
 4897SOL    HW115371   3.313   3.461   6.002
 4897SOL    HW215372   3.204   3.507   6.096
 4898SOL     OW15373   1.997   3.658   7.429
 4898SOL    HW115374   1.947   3.594   7.478
 4898SOL    HW215375   2.045   3.707   7.496
 4899SOL     OW15376   3.152   2.805   6.297
 4899SOL    HW115377   3.197   2.724   6.274
 4899SOL    HW215378   3.168   2.863   6.222
 4900SOL     OW15379   2.680   3.136   7.016
 4900SOL    HW115380   2.652   3.174   7.100
 4900SOL    HW215381   2.608   3.155   6.956
 4901SOL     OW15382   2.533   3.479   5.742
 4901SOL    HW115383   2.541   3.493   5.647
 4901SOL    HW215384   2.482   3.398   5.750
 4902SOL     OW15385   3.493   3.588   6.978
 4902SOL    HW115386   3.541   3.596   6.895
 4902SOL    HW215387   3.479   3.679   7.006
 4903SOL     OW15388   3.702   2.035   6.554
 4903SOL    HW115389   3.731   1.949   6.525
 4903SOL    HW215390   3.616   2.045   6.513
 4904SOL     OW15391   3.067   3.470   5.617
 4904SOL    HW115392   3.060   3.378   5.643
 4904SOL    HW215393   3.004   3.480   5.547
 4905SOL     OW15394   2.684   2.868   6.961
 4905SOL    HW115395   2.726   2.857   6.876
 4905SOL    HW215396   2.689   2.962   6.978
 4906SOL     OW15397   3.356   3.487   5.628
 4906SOL    HW115398   3.261   3.482   5.616
 4906SOL    HW215399   3.391   3.493   5.540
 4907SOL     OW15400   2.232   3.163   7.077
 4907SOL    HW115401   2.218   3.241   7.023
 4907SOL    HW215402   2.155   3.109   7.062
 4908SOL     OW15403   3.474   3.145   6.867
 4908SOL    HW115404   3.532   3.136   6.942
 4908SOL    HW215405   3.413   3.215   6.892
 4909SOL     OW15406   2.466   3.356   6.069
 4909SOL    HW115407   2.505   3.304   5.998
 4909SOL    HW215408   2.395   3.404   6.026
 4910SOL     OW15409   3.582   2.254   6.966
 4910SOL    HW115410   3.654   2.317   6.964
 4910SOL    HW215411   3.612   2.182   6.910
 4911SOL     OW15412   2.117   3.224   5.863
 4911SOL    HW115413   2.024   3.199   5.866
 4911SOL    HW215414   2.135   3.256   5.951
 4912SOL     OW15415   1.974   2.879   7.304
 4912SOL    HW115416   1.897   2.858   7.358
 4912SOL    HW215417   2.048   2.844   7.354
 4913SOL     OW15418   2.542   2.050   7.081
 4913SOL    HW115419   2.629   2.030   7.046
 4913SOL    HW215420   2.560   2.088   7.167
 4914SOL     OW15421   1.902   2.211   5.614
 4914SOL    HW115422   1.835   2.164   5.565
 4914SOL    HW215423   1.952   2.258   5.547
 4915SOL     OW15424   3.294   2.720   6.988
 4915SOL    HW115425   3.244   2.779   6.931
 4915SOL    HW215426   3.383   2.723   6.954
 4916SOL     OW15427   1.974   2.094   5.918
 4916SOL    HW115428   1.951   2.135   5.835
 4916SOL    HW215429   2.003   2.006   5.893
 4917SOL     OW15430   3.042   3.203   5.702
 4917SOL    HW115431   2.949   3.182   5.703
 4917SOL    HW215432   3.068   3.202   5.794
 4918SOL     OW15433   2.481   2.692   7.015
 4918SOL    HW115434   2.533   2.771   6.999
 4918SOL    HW215435   2.545   2.621   7.020
 4919SOL     OW15436   3.347   3.636   6.562
 4919SOL    HW115437   3.372   3.695   6.490
 4919SOL    HW215438   3.428   3.620   6.609
 4920SOL     OW15439   2.582   2.428   7.291
 4920SOL    HW115440   2.619   2.493   7.351
 4920SOL    HW215441   2.616   2.345   7.323
 4921SOL     OW15442   3.331   3.065   7.219
 4921SOL    HW115443   3.319   3.078   7.313
 4921SOL    HW215444   3.425   3.077   7.205
 4922SOL     OW15445   2.244   3.601   7.150
 4922SOL    HW115446   2.158   3.642   7.137
 4922SOL    HW215447   2.225   3.517   7.192
 4923SOL     OW15448   3.533   2.744   6.842
 4923SOL    HW115449   3.525   2.658   6.799
 4923SOL    HW215450   3.524   2.807   6.770
 4924SOL     OW15451   3.627   2.222   7.235
 4924SOL    HW115452   3.609   2.236   7.142
 4924SOL    HW215453   3.555   2.166   7.265
 4925SOL     OW15454   3.606   2.795   7.099
 4925SOL    HW115455   3.607   2.890   7.111
 4925SOL    HW215456   3.591   2.784   7.005
 4926SOL     OW15457   2.741   3.242   5.626
 4926SOL    HW115458   2.691   3.269   5.703
 4926SOL    HW215459   2.750   3.321   5.573
 4927SOL     OW15460   2.522   3.656   6.532
 4927SOL    HW115461   2.501   3.746   6.509
 4927SOL    HW215462   2.617   3.651   6.525
 4928SOL     OW15463   2.708   2.801   6.467
 4928SOL    HW115464   2.790   2.769   6.504
 4928SOL    HW215465   2.685   2.877   6.522
 4929SOL     OW15466   3.718   3.418   6.431
 4929SOL    HW115467   3.641   3.406   6.376
 4929SOL    HW215468   3.711   3.349   6.497
 4930SOL     OW15469   2.086   3.166   7.442
 4930SOL    HW115470   2.019   3.105   7.412
 4930SOL    HW215471   2.068   3.179   7.535
 4931SOL     OW15472   1.958   3.129   6.266
 4931SOL    HW115473   1.951   3.070   6.342
 4931SOL    HW215474   2.002   3.077   6.199
 4932SOL     OW15475   2.542   3.263   7.212
 4932SOL    HW115476   2.462   3.219   7.242
 4932SOL    HW215477   2.537   3.351   7.249
 4933SOL     OW15478   3.676   2.047   6.824
 4933SOL    HW115479   3.684   1.953   6.840
 4933SOL    HW215480   3.685   2.057   6.730
 4934SOL     OW15481   3.562   3.353   6.686
 4934SOL    HW115482   3.482   3.327   6.641
 4934SOL    HW215483   3.577   3.284   6.750
 4935SOL     OW15484   2.690   3.437   6.263
 4935SOL    HW115485   2.678   3.488   6.183
 4935SOL    HW215486   2.611   3.384   6.270
 4936SOL     OW15487   3.296   2.087   6.704
 4936SOL    HW115488   3.316   2.004   6.748
 4936SOL    HW215489   3.244   2.136   6.769
 4937SOL     OW15490   2.633   3.202   5.896
 4937SOL    HW115491   2.591   3.116   5.900
 4937SOL    HW215492   2.714   3.192   5.946
 4938SOL     OW15493   2.482   3.420   6.870
 4938SOL    HW115494   2.485   3.501   6.921
 4938SOL    HW215495   2.569   3.413   6.832
 4939SOL     OW15496   3.239   1.919   5.739
 4939SOL    HW115497   3.267   1.850   5.679
 4939SOL    HW215498   3.149   1.894   5.763
 4940SOL     OW15499   3.204   2.334   6.297
 4940SOL    HW115500   3.137   2.401   6.288
 4940SOL    HW215501   3.177   2.283   6.374
 4941SOL     OW15502   3.449   2.066   6.462
 4941SOL    HW115503   3.388   2.087   6.533
 4941SOL    HW215504   3.451   2.145   6.408
 4942SOL     OW15505   2.743   3.515   5.927
 4942SOL    HW115506   2.670   3.496   5.868
 4942SOL    HW215507   2.712   3.590   5.979
 4943SOL     OW15508   2.068   2.525   7.563
 4943SOL    HW115509   1.986   2.497   7.605
 4943SOL    HW215510   2.078   2.465   7.490
 4944SOL     OW15511   1.866   2.246   8.079
 4944SOL    HW115512   1.785   2.266   8.127
 4944SOL    HW215513   1.849   2.161   8.040
 4945SOL     OW15514   2.428   3.146   8.621
 4945SOL    HW115515   2.341   3.149   8.583
 4945SOL    HW215516   2.443   3.234   8.655
 4946SOL     OW15517   3.420   3.373   8.154
 4946SOL    HW115518   3.377   3.355   8.237
 4946SOL    HW215519   3.349   3.378   8.090
 4947SOL     OW15520   2.991   2.560   8.151
 4947SOL    HW115521   3.041   2.641   8.136
 4947SOL    HW215522   2.946   2.574   8.234
 4948SOL     OW15523   3.628   2.469   7.678
 4948SOL    HW115524   3.608   2.460   7.585
 4948SOL    HW215525   3.592   2.389   7.718
 4949SOL     OW15526   2.619   3.005   8.486
 4949SOL    HW115527   2.550   3.039   8.542
 4949SOL    HW215528   2.654   3.083   8.441
 4950SOL     OW15529   2.723   2.642   9.269
 4950SOL    HW115530   2.715   2.714   9.332
 4950SOL    HW215531   2.749   2.685   9.188
 4951SOL     OW15532   2.548   2.866   8.098
 4951SOL    HW115533   2.612   2.853   8.167
 4951SOL    HW215534   2.479   2.918   8.139
 4952SOL     OW15535   2.570   3.014   9.257
 4952SOL    HW115536   2.618   3.093   9.282
 4952SOL    HW215537   2.487   3.046   9.224
 4953SOL     OW15538   2.193   3.290   8.516
 4953SOL    HW115539   2.121   3.253   8.465
 4953SOL    HW215540   2.244   3.340   8.452
 4954SOL     OW15541   3.323   3.360   8.799
 4954SOL    HW115542   3.369   3.444   8.809
 4954SOL    HW215543   3.267   3.355   8.876
 4955SOL     OW15544   3.475   2.311   8.187
 4955SOL    HW115545   3.399   2.337   8.135
 4955SOL    HW215546   3.494   2.388   8.241
 4956SOL     OW15547   2.082   3.575   7.922
 4956SOL    HW115548   2.105   3.652   7.974
 4956SOL    HW215549   2.152   3.568   7.857
 4957SOL     OW15550   2.998   3.203   9.140
 4957SOL    HW115551   3.038   3.199   9.226
 4957SOL    HW215552   2.945   3.123   9.134
 4958SOL     OW15553   2.092   3.302   7.983
 4958SOL    HW115554   2.075   3.396   7.988
 4958SOL    HW215555   2.030   3.263   8.044
 4959SOL     OW15556   2.118   2.954   8.338
 4959SOL    HW115557   2.113   2.867   8.379
 4959SOL    HW215558   2.058   3.008   8.390
 4960SOL     OW15559   2.477   3.652   8.879
 4960SOL    HW115560   2.394   3.635   8.924
 4960SOL    HW215561   2.499   3.742   8.903
 4961SOL     OW15562   2.451   2.841   7.577
 4961SOL    HW115563   2.495   2.895   7.511
 4961SOL    HW215564   2.491   2.869   7.660
 4962SOL     OW15565   3.458   1.984   8.917
 4962SOL    HW115566   3.458   2.063   8.865
 4962SOL    HW215567   3.446   2.014   9.007
 4963SOL     OW15568   1.969   2.506   8.007
 4963SOL    HW115569   1.944   2.417   8.032
 4963SOL    HW215570   1.966   2.555   8.089
 4964SOL     OW15571   3.704   3.623   7.784
 4964SOL    HW115572   3.764   3.594   7.852
 4964SOL    HW215573   3.730   3.713   7.766
 4965SOL     OW15574   1.892   3.458   7.572
 4965SOL    HW115575   1.874   3.366   7.592
 4965SOL    HW215576   1.868   3.505   7.652
 4966SOL     OW15577   3.551   2.781   8.087
 4966SOL    HW115578   3.636   2.741   8.069
 4966SOL    HW215579   3.531   2.831   8.007
 4967SOL     OW15580   3.507   2.970   7.877
 4967SOL    HW115581   3.592   2.977   7.835
 4967SOL    HW215582   3.512   3.030   7.952
 4968SOL     OW15583   1.985   2.596   9.029
 4968SOL    HW115584   2.072   2.617   9.063
 4968SOL    HW215585   1.935   2.677   9.042
 4969SOL     OW15586   2.475   3.245   8.183
 4969SOL    HW115587   2.428   3.162   8.192
 4969SOL    HW215588   2.458   3.272   8.093
 4970SOL     OW15589   3.152   3.101   8.872
 4970SOL    HW115590   3.184   3.033   8.812
 4970SOL    HW215591   3.208   3.093   8.949
 4971SOL     OW15592   2.675   1.861   7.954
 4971SOL    HW115593   2.716   1.946   7.937
 4971SOL    HW215594   2.581   1.882   7.963
 4972SOL     OW15595   2.053   2.832   8.717
 4972SOL    HW115596   2.136   2.788   8.698
 4972SOL    HW215597   1.987   2.775   8.676
 4973SOL     OW15598   3.394   2.854   7.645
 4973SOL    HW115599   3.324   2.796   7.675
 4973SOL    HW215600   3.433   2.888   7.725
 4974SOL     OW15601   3.047   3.666   9.069
 4974SOL    HW115602   3.061   3.724   8.994
 4974SOL    HW215603   3.063   3.578   9.034
 4975SOL     OW15604   3.328   3.282   8.401
 4975SOL    HW115605   3.259   3.296   8.466
 4975SOL    HW215606   3.316   3.191   8.373
 4976SOL     OW15607   3.523   3.596   8.026
 4976SOL    HW115608   3.500   3.568   7.937
 4976SOL    HW215609   3.497   3.523   8.082
 4977SOL     OW15610   2.466   2.586   7.711
 4977SOL    HW115611   2.473   2.660   7.651
 4977SOL    HW215612   2.385   2.601   7.759
 4978SOL     OW15613   3.142   2.211   8.380
 4978SOL    HW115614   3.052   2.178   8.388
 4978SOL    HW215615   3.192   2.158   8.442
 4979SOL     OW15616   3.443   3.531   7.757
 4979SOL    HW115617   3.533   3.565   7.751
 4979SOL    HW215618   3.418   3.513   7.666
 4980SOL     OW15619   2.652   2.469   8.894
 4980SOL    HW115620   2.635   2.459   8.987
 4980SOL    HW215621   2.603   2.398   8.852
 4981SOL     OW15622   3.256   2.336   9.126
 4981SOL    HW115623   3.257   2.380   9.211
 4981SOL    HW215624   3.318   2.264   9.135
 4982SOL     OW15625   2.818   2.749   9.029
 4982SOL    HW115626   2.873   2.680   8.993
 4982SOL    HW215627   2.772   2.784   8.953
 4983SOL     OW15628   2.861   2.271   8.686
 4983SOL    HW115629   2.783   2.312   8.722
 4983SOL    HW215630   2.832   2.231   8.604
 4984SOL     OW15631   2.911   2.560   7.874
 4984SOL    HW115632   2.926   2.555   7.969
 4984SOL    HW215633   2.829   2.514   7.860
 4985SOL     OW15634   1.951   2.682   8.223
 4985SOL    HW115635   2.033   2.678   8.273
 4985SOL    HW215636   1.907   2.759   8.258
 4986SOL     OW15637   1.990   3.703   9.024
 4986SOL    HW115638   1.988   3.684   9.118
 4986SOL    HW215639   1.898   3.704   8.998
 4987SOL     OW15640   2.752   2.208   7.643
 4987SOL    HW115641   2.794   2.270   7.583
 4987SOL    HW215642   2.766   2.122   7.603
 4988SOL     OW15643   3.572   2.439   9.276
 4988SOL    HW115644   3.535   2.514   9.230
 4988SOL    HW215645   3.597   2.378   9.206
 4989SOL     OW15646   3.237   3.004   7.990
 4989SOL    HW115647   3.316   2.990   7.937
 4989SOL    HW215648   3.185   3.066   7.939
 4990SOL     OW15649   2.870   3.307   7.921
 4990SOL    HW115650   2.830   3.379   7.872
 4990SOL    HW215651   2.855   3.330   8.013
 4991SOL     OW15652   2.216   3.669   8.307
 4991SOL    HW115653   2.260   3.584   8.316
 4991SOL    HW215654   2.285   3.733   8.324
 4992SOL     OW15655   3.659   2.922   8.315
 4992SOL    HW115656   3.604   2.905   8.240
 4992SOL    HW215657   3.599   2.927   8.390
 4993SOL     OW15658   3.090   3.401   8.961
 4993SOL    HW115659   3.076   3.328   9.021
 4993SOL    HW215660   3.029   3.385   8.889
 4994SOL     OW15661   2.188   2.807   7.701
 4994SOL    HW115662   2.265   2.830   7.648
 4994SOL    HW215663   2.148   2.734   7.654
 4995SOL     OW15664   3.338   2.601   8.176
 4995SOL    HW115665   3.328   2.557   8.260
 4995SOL    HW215666   3.415   2.657   8.187
 4996SOL     OW15667   2.327   3.125   9.185
 4996SOL    HW115668   2.299   3.130   9.094
 4996SOL    HW215669   2.245   3.124   9.235
 4997SOL     OW15670   2.983   3.640   7.679
 4997SOL    HW115671   2.911   3.596   7.726
 4997SOL    HW215672   3.005   3.579   7.608
 4998SOL     OW15673   1.964   2.104   8.953
 4998SOL    HW115674   1.991   2.192   8.925
 4998SOL    HW215675   2.037   2.072   9.006
 4999SOL     OW15676   3.491   3.241   7.535
 4999SOL    HW115677   3.450   3.326   7.520
 4999SOL    HW215678   3.422   3.178   7.516
 5000SOL     OW15679   2.329   3.600   7.769
 5000SOL    HW115680   2.369   3.657   7.835
 5000SOL    HW215681   2.401   3.571   7.714
 5001SOL     OW15682   3.263   1.970   7.879
 5001SOL    HW115683   3.252   1.945   7.787
 5001SOL    HW215684   3.358   1.977   7.890
 5002SOL     OW15685   2.117   3.654   8.681
 5002SOL    HW115686   2.169   3.589   8.728
 5002SOL    HW215687   2.105   3.617   8.593
 5003SOL     OW15688   2.800   3.560   8.348
 5003SOL    HW115689   2.877   3.507   8.368
 5003SOL    HW215690   2.755   3.511   8.279
 5004SOL     OW15691   3.399   2.088   9.173
 5004SOL    HW115692   3.408   2.109   9.266
 5004SOL    HW215693   3.331   2.021   9.170
 5005SOL     OW15694   2.488   1.992   7.553
 5005SOL    HW115695   2.559   1.933   7.577
 5005SOL    HW215696   2.447   1.952   7.477
 5006SOL     OW15697   2.629   2.141   9.200
 5006SOL    HW115698   2.702   2.079   9.207
 5006SOL    HW215699   2.575   2.123   9.277
 5007SOL     OW15700   2.738   3.383   8.642
 5007SOL    HW115701   2.724   3.347   8.554
 5007SOL    HW215702   2.808   3.328   8.678
 5008SOL     OW15703   3.202   2.452   8.881
 5008SOL    HW115704   3.234   2.419   8.965
 5008SOL    HW215705   3.239   2.539   8.873
 5009SOL     OW15706   2.675   3.259   8.385
 5009SOL    HW115707   2.759   3.248   8.340
 5009SOL    HW215708   2.611   3.258   8.314
 5010SOL     OW15709   2.785   2.367   8.353
 5010SOL    HW115710   2.762   2.362   8.260
 5010SOL    HW215711   2.823   2.282   8.373
 5011SOL     OW15712   2.409   1.932   7.947
 5011SOL    HW115713   2.329   1.929   8.000
 5011SOL    HW215714   2.407   2.018   7.906
 5012SOL     OW15715   3.290   3.060   7.489
 5012SOL    HW115716   3.321   2.984   7.539
 5012SOL    HW215717   3.205   3.080   7.526
 5013SOL     OW15718   2.156   1.894   7.628
 5013SOL    HW115719   2.219   1.959   7.596
 5013SOL    HW215720   2.209   1.828   7.672
 5014SOL     OW15721   2.798   2.107   7.909
 5014SOL    HW115722   2.772   2.149   7.827
 5014SOL    HW215723   2.893   2.119   7.913
 5015SOL     OW15724   2.941   2.541   8.906
 5015SOL    HW115725   2.875   2.472   8.915
 5015SOL    HW215726   3.024   2.494   8.900
 5016SOL     OW15727   3.086   3.431   8.242
 5016SOL    HW115728   3.104   3.499   8.176
 5016SOL    HW215729   3.154   3.444   8.308
 5017SOL     OW15730   2.329   3.011   8.183
 5017SOL    HW115731   2.259   2.993   8.246
 5017SOL    HW215732   2.291   2.993   8.097
 5018SOL     OW15733   3.133   3.657   8.054
 5018SOL    HW115734   3.177   3.718   7.995
 5018SOL    HW215735   3.068   3.710   8.100
 5019SOL     OW15736   2.887   2.407   7.468
 5019SOL    HW115737   2.845   2.491   7.449
 5019SOL    HW215738   2.951   2.427   7.536
 5020SOL     OW15739   1.951   2.411   8.834
 5020SOL    HW115740   2.045   2.395   8.840
 5020SOL    HW215741   1.934   2.479   8.900
 5021SOL     OW15742   2.726   2.318   8.088
 5021SOL    HW115743   2.686   2.377   8.025
 5021SOL    HW215744   2.750   2.241   8.037
 5022SOL     OW15745   2.875   1.915   8.202
 5022SOL    HW115746   2.819   1.904   8.125
 5022SOL    HW215747   2.855   1.838   8.256
 5023SOL     OW15748   3.298   3.026   8.306
 5023SOL    HW115749   3.230   2.958   8.305
 5023SOL    HW215750   3.321   3.038   8.214
 5024SOL     OW15751   3.329   2.465   8.428
 5024SOL    HW115752   3.281   2.383   8.432
 5024SOL    HW215753   3.390   2.461   8.502
 5025SOL     OW15754   3.709   2.680   7.829
 5025SOL    HW115755   3.765   2.628   7.888
 5025SOL    HW215756   3.680   2.618   7.763
 5026SOL     OW15757   2.353   3.277   7.608
 5026SOL    HW115758   2.279   3.248   7.660
 5026SOL    HW215759   2.335   3.247   7.519
 5027SOL     OW15760   3.531   3.127   8.095
 5027SOL    HW115761   3.625   3.131   8.109
 5027SOL    HW215762   3.499   3.215   8.117
 5028SOL     OW15763   3.256   2.434   7.519
 5028SOL    HW115764   3.195   2.415   7.591
 5028SOL    HW215765   3.340   2.401   7.550
 5029SOL     OW15766   3.615   3.099   9.024
 5029SOL    HW115767   3.703   3.060   9.021
 5029SOL    HW215768   3.630   3.189   9.053
 5030SOL     OW15769   2.922   3.216   8.783
 5030SOL    HW115770   2.847   3.185   8.834
 5030SOL    HW215771   2.998   3.174   8.824
 5031SOL     OW15772   3.468   3.487   9.100
 5031SOL    HW115773   3.465   3.521   9.010
 5031SOL    HW215774   3.551   3.440   9.105
 5032SOL     OW15775   2.989   3.065   8.555
 5032SOL    HW115776   2.930   3.102   8.620
 5032SOL    HW215777   2.954   3.095   8.471
 5033SOL     OW15778   3.492   2.961   8.527
 5033SOL    HW115779   3.488   3.023   8.599
 5033SOL    HW215780   3.412   2.977   8.477
 5034SOL     OW15781   2.786   1.957   8.847
 5034SOL    HW115782   2.806   1.940   8.755
 5034SOL    HW215783   2.866   1.997   8.882
 5035SOL     OW15784   2.846   2.976   9.170
 5035SOL    HW115785   2.754   2.992   9.189
 5035SOL    HW215786   2.846   2.899   9.114
 5036SOL     OW15787   2.570   2.923   7.820
 5036SOL    HW115788   2.556   2.907   7.913
 5036SOL    HW215789   2.646   2.869   7.797
 5037SOL     OW15790   2.280   2.675   8.699
 5037SOL    HW115791   2.351   2.691   8.761
 5037SOL    HW215792   2.244   2.590   8.725
 5038SOL     OW15793   3.132   2.240   8.722
 5038SOL    HW115794   3.162   2.318   8.768
 5038SOL    HW215795   3.042   2.260   8.697
 5039SOL     OW15796   1.930   3.434   8.799
 5039SOL    HW115797   1.898   3.507   8.746
 5039SOL    HW215798   2.026   3.441   8.794
 5040SOL     OW15799   2.216   2.967   7.937
 5040SOL    HW115800   2.219   3.045   7.881
 5040SOL    HW215801   2.212   2.893   7.876
 5041SOL     OW15802   3.110   3.210   7.837
 5041SOL    HW115803   3.165   3.282   7.868
 5041SOL    HW215804   3.023   3.231   7.871
 5042SOL     OW15805   3.140   3.318   8.594
 5042SOL    HW115806   3.195   3.320   8.672
 5042SOL    HW215807   3.085   3.240   8.605
 5043SOL     OW15808   3.444   2.487   7.925
 5043SOL    HW115809   3.400   2.542   7.989
 5043SOL    HW215810   3.490   2.549   7.867
 5044SOL     OW15811   2.209   3.387   8.765
 5044SOL    HW115812   2.196   3.345   8.680
 5044SOL    HW215813   2.304   3.400   8.771
 5045SOL     OW15814   2.278   2.626   9.053
 5045SOL    HW115815   2.340   2.667   8.993
 5045SOL    HW215816   2.323   2.548   9.085
 5046SOL     OW15817   3.461   2.640   9.128
 5046SOL    HW115818   3.374   2.680   9.121
 5046SOL    HW215819   3.513   2.682   9.060
 5047SOL     OW15820   2.857   1.981   9.203
 5047SOL    HW115821   2.911   2.054   9.172
 5047SOL    HW215822   2.906   1.903   9.179
 5048SOL     OW15823   2.364   1.898   9.194
 5048SOL    HW115824   2.324   1.841   9.127
 5048SOL    HW215825   2.303   1.971   9.202
 5049SOL     OW15826   2.437   2.736   8.474
 5049SOL    HW115827   2.479   2.822   8.474
 5049SOL    HW215828   2.388   2.733   8.556
 5050SOL     OW15829   3.222   2.721   8.480
 5050SOL    HW115830   3.139   2.713   8.433
 5050SOL    HW215831   3.260   2.633   8.477
 5051SOL     OW15832   3.068   2.391   7.716
 5051SOL    HW115833   3.076   2.312   7.771
 5051SOL    HW215834   3.026   2.455   7.773
 5052SOL     OW15835   1.910   3.172   8.725
 5052SOL    HW115836   1.942   3.119   8.798
 5052SOL    HW215837   1.915   3.262   8.756
 5053SOL     OW15838   2.613   2.514   8.533
 5053SOL    HW115839   2.650   2.465   8.459
 5053SOL    HW215840   2.554   2.578   8.493
 5054SOL     OW15841   3.595   2.821   9.299
 5054SOL    HW115842   3.548   2.763   9.239
 5054SOL    HW215843   3.536   2.833   9.373
 5055SOL     OW15844   2.166   1.933   8.075
 5055SOL    HW115845   2.142   2.022   8.103
 5055SOL    HW215846   2.166   1.882   8.156
 5056SOL     OW15847   3.476   2.235   7.817
 5056SOL    HW115848   3.503   2.171   7.883
 5056SOL    HW215849   3.453   2.313   7.867
 5057SOL     OW15850   2.892   2.620   8.409
 5057SOL    HW115851   2.888   2.641   8.502
 5057SOL    HW215852   2.855   2.532   8.403
 5058SOL     OW15853   2.844   3.428   9.163
 5058SOL    HW115854   2.829   3.473   9.080
 5058SOL    HW215855   2.887   3.346   9.139
 5059SOL     OW15856   3.717   3.371   9.054
 5059SOL    HW115857   3.735   3.396   8.963
 5059SOL    HW215858   3.799   3.391   9.100
 5060SOL     OW15859   2.217   2.785   9.262
 5060SOL    HW115860   2.301   2.799   9.305
 5060SOL    HW215861   2.237   2.729   9.188
 5061SOL     OW15862   3.392   2.136   7.575
 5061SOL    HW115863   3.328   2.070   7.602
 5061SOL    HW215864   3.425   2.172   7.658
 5062SOL     OW15865   3.156   2.689   7.480
 5062SOL    HW115866   3.198   2.603   7.484
 5062SOL    HW215867   3.187   2.728   7.398
 5063SOL     OW15868   2.926   3.197   8.300
 5063SOL    HW115869   2.930   3.124   8.239
 5063SOL    HW215870   2.989   3.260   8.266
 5064SOL     OW15871   2.174   2.676   8.392
 5064SOL    HW115872   2.267   2.699   8.389
 5064SOL    HW215873   2.172   2.593   8.440
 5065SOL     OW15874   2.996   2.241   9.127
 5065SOL    HW115875   2.950   2.295   9.192
 5065SOL    HW215876   3.084   2.277   9.124
 5066SOL     OW15877   3.024   2.067   8.918
 5066SOL    HW115878   3.014   2.129   8.989
 5066SOL    HW215879   3.063   2.118   8.846
 5067SOL     OW15880   1.867   3.184   7.643
 5067SOL    HW115881   1.780   3.198   7.605
 5067SOL    HW215882   1.864   3.094   7.676
 5068SOL     OW15883   1.952   3.651   8.385
 5068SOL    HW115884   1.922   3.571   8.342
 5068SOL    HW215885   2.042   3.662   8.354
 5069SOL     OW15886   2.360   3.435   8.354
 5069SOL    HW115887   2.429   3.497   8.378
 5069SOL    HW215888   2.405   3.370   8.299
 5070SOL     OW15889   2.849   2.661   8.675
 5070SOL    HW115890   2.895   2.630   8.753
 5070SOL    HW215891   2.765   2.615   8.677
 5071SOL     OW15892   1.903   2.423   8.564
 5071SOL    HW115893   1.952   2.354   8.521
 5071SOL    HW215894   1.923   2.412   8.657
 5072SOL     OW15895   3.238   2.803   9.107
 5072SOL    HW115896   3.259   2.896   9.107
 5072SOL    HW215897   3.236   2.778   9.014
 5073SOL     OW15898   2.677   2.429   7.806
 5073SOL    HW115899   2.679   2.355   7.745
 5073SOL    HW215900   2.602   2.482   7.777
 5074SOL     OW15901   3.505   2.463   8.637
 5074SOL    HW115902   3.494   2.403   8.710
 5074SOL    HW215903   3.591   2.443   8.602
 5075SOL     OW15904   2.109   3.414   9.178
 5075SOL    HW115905   2.083   3.478   9.244
 5075SOL    HW215906   2.107   3.330   9.223
 5076SOL     OW15907   2.792   3.541   8.915
 5076SOL    HW115908   2.765   3.509   8.828
 5076SOL    HW215909   2.789   3.636   8.907
 5077SOL     OW15910   2.010   3.002   8.921
 5077SOL    HW115911   2.012   2.948   9.000
 5077SOL    HW215912   2.026   2.940   8.849
 5078SOL     OW15913   3.190   2.911   8.672
 5078SOL    HW115914   3.214   2.848   8.605
 5078SOL    HW215915   3.118   2.961   8.634
 5079SOL     OW15916   3.172   2.718   7.755
 5079SOL    HW115917   3.095   2.689   7.804
 5079SOL    HW215918   3.148   2.705   7.663
 5080SOL     OW15919   3.631   3.608   8.597
 5080SOL    HW115920   3.691   3.634   8.527
 5080SOL    HW215921   3.608   3.518   8.576
 5081SOL     OW15922   3.104   3.595   8.564
 5081SOL    HW115923   3.185   3.614   8.518
 5081SOL    HW215924   3.107   3.501   8.581
 5082SOL     OW15925   1.945   3.128   8.461
 5082SOL    HW115926   1.932   3.140   8.555
 5082SOL    HW215927   1.871   3.075   8.433
 5083SOL     OW15928   2.539   3.526   9.173
 5083SOL    HW115929   2.487   3.606   9.171
 5083SOL    HW215930   2.603   3.536   9.102
 5084SOL     OW15931   3.580   2.005   7.959
 5084SOL    HW115932   3.654   1.991   7.900
 5084SOL    HW215933   3.565   1.920   7.999
 5085SOL     OW15934   3.252   3.430   7.931
 5085SOL    HW115935   3.313   3.461   7.864
 5085SOL    HW215936   3.204   3.508   7.959
 5086SOL     OW15937   1.998   3.658   9.291
 5086SOL    HW115938   1.947   3.594   9.340
 5086SOL    HW215939   2.045   3.707   9.358
 5087SOL     OW15940   3.139   2.786   8.118
 5087SOL    HW115941   3.212   2.725   8.124
 5087SOL    HW215942   3.173   2.860   8.067
 5088SOL     OW15943   2.680   3.135   8.879
 5088SOL    HW115944   2.653   3.173   8.962
 5088SOL    HW215945   2.609   3.157   8.818
 5089SOL     OW15946   2.534   3.480   7.603
 5089SOL    HW115947   2.543   3.491   7.509
 5089SOL    HW215948   2.480   3.401   7.613
 5090SOL     OW15949   3.493   3.588   8.840
 5090SOL    HW115950   3.541   3.596   8.757
 5090SOL    HW215951   3.479   3.679   8.868
 5091SOL     OW15952   3.702   2.035   8.416
 5091SOL    HW115953   3.731   1.949   8.387
 5091SOL    HW215954   3.616   2.046   8.376
 5092SOL     OW15955   3.068   3.469   7.479
 5092SOL    HW115956   3.060   3.378   7.506
 5092SOL    HW215957   3.003   3.480   7.409
 5093SOL     OW15958   2.685   2.868   8.821
 5093SOL    HW115959   2.730   2.861   8.737
 5093SOL    HW215960   2.688   2.962   8.842
 5094SOL     OW15961   2.778   2.773   7.737
 5094SOL    HW115962   2.840   2.804   7.671
 5094SOL    HW215963   2.824   2.702   7.782
 5095SOL     OW15964   3.356   3.486   7.490
 5095SOL    HW115965   3.261   3.482   7.478
 5095SOL    HW215966   3.391   3.493   7.401
 5096SOL     OW15967   2.232   3.163   8.939
 5096SOL    HW115968   2.218   3.241   8.885
 5096SOL    HW215969   2.155   3.109   8.924
 5097SOL     OW15970   3.474   3.145   8.729
 5097SOL    HW115971   3.533   3.136   8.804
 5097SOL    HW215972   3.413   3.215   8.754
 5098SOL     OW15973   2.911   2.968   8.153
 5098SOL    HW115974   2.841   2.916   8.194
 5098SOL    HW215975   2.973   2.902   8.120
 5099SOL     OW15976   2.881   2.101   8.413
 5099SOL    HW115977   2.878   2.053   8.331
 5099SOL    HW215978   2.878   2.034   8.481
 5100SOL     OW15979   2.464   3.351   7.930
 5100SOL    HW115980   2.505   3.300   7.860
 5100SOL    HW215981   2.396   3.402   7.886
 5101SOL     OW15982   3.582   2.254   8.828
 5101SOL    HW115983   3.654   2.317   8.826
 5101SOL    HW215984   3.612   2.182   8.772
 5102SOL     OW15985   2.120   3.208   7.736
 5102SOL    HW115986   2.027   3.206   7.713
 5102SOL    HW215987   2.123   3.245   7.824
 5103SOL     OW15988   1.974   2.880   9.167
 5103SOL    HW115989   1.897   2.858   9.219
 5103SOL    HW215990   2.048   2.845   9.217
 5104SOL     OW15991   2.547   2.050   8.941
 5104SOL    HW115992   2.633   2.024   8.907
 5104SOL    HW215993   2.566   2.084   9.029
 5105SOL     OW15994   1.922   2.204   7.498
 5105SOL    HW115995   1.843   2.180   7.450
 5105SOL    HW215996   1.976   2.249   7.434
 5106SOL     OW15997   3.293   2.720   8.849
 5106SOL    HW115998   3.245   2.780   8.793
 5106SOL    HW215999   3.383   2.723   8.816
 5107SOL     OW16000   1.935   2.019   7.760
 5107SOL    HW116001   1.913   2.096   7.706
 5107SOL    HW216002   2.015   1.985   7.721
 5108SOL     OW16003   3.042   3.203   7.565
 5108SOL    HW116004   2.951   3.173   7.568
 5108SOL    HW216005   3.070   3.203   7.656
 5109SOL     OW16006   2.482   2.692   8.879
 5109SOL    HW116007   2.535   2.771   8.865
 5109SOL    HW216008   2.546   2.621   8.883
 5110SOL     OW16009   3.347   3.637   8.424
 5110SOL    HW116010   3.372   3.695   8.352
 5110SOL    HW216011   3.428   3.620   8.471
 5111SOL     OW16012   2.582   2.427   9.148
 5111SOL    HW116013   2.616   2.489   9.212
 5111SOL    HW216014   2.607   2.341   9.182
 5112SOL     OW16015   3.331   3.064   9.081
 5112SOL    HW116016   3.319   3.078   9.175
 5112SOL    HW216017   3.425   3.077   9.066
 5113SOL     OW16018   2.244   3.601   9.012
 5113SOL    HW116019   2.158   3.642   8.999
 5113SOL    HW216020   2.225   3.517   9.054
 5114SOL     OW16021   3.533   2.744   8.704
 5114SOL    HW116022   3.525   2.658   8.661
 5114SOL    HW216023   3.524   2.807   8.632
 5115SOL     OW16024   3.080   2.181   7.906
 5115SOL    HW116025   3.144   2.111   7.896
 5115SOL    HW216026   3.109   2.230   7.983
 5116SOL     OW16027   2.457   2.601   8.092
 5116SOL    HW116028   2.499   2.687   8.091
 5116SOL    HW216029   2.370   2.617   8.056
 5117SOL     OW16030   3.627   2.222   9.097
 5117SOL    HW116031   3.609   2.236   9.004
 5117SOL    HW216032   3.555   2.166   9.127
 5118SOL     OW16033   3.606   2.796   8.961
 5118SOL    HW116034   3.607   2.890   8.973
 5118SOL    HW216035   3.591   2.784   8.867
 5119SOL     OW16036   2.724   3.230   7.479
 5119SOL    HW116037   2.685   3.257   7.562
 5119SOL    HW216038   2.744   3.313   7.434
 5120SOL     OW16039   2.521   3.655   8.395
 5120SOL    HW116040   2.500   3.746   8.371
 5120SOL    HW216041   2.616   3.650   8.387
 5121SOL     OW16042   2.729   2.827   8.304
 5121SOL    HW116043   2.777   2.755   8.344
 5121SOL    HW216044   2.696   2.878   8.378
 5122SOL     OW16045   2.942   2.850   7.536
 5122SOL    HW116046   2.920   2.900   7.458
 5122SOL    HW216047   3.017   2.797   7.511
 5123SOL     OW16048   3.718   3.418   8.293
 5123SOL    HW116049   3.641   3.406   8.238
 5123SOL    HW216050   3.710   3.350   8.360
 5124SOL     OW16051   2.086   3.166   9.304
 5124SOL    HW116052   2.018   3.105   9.274
 5124SOL    HW216053   2.068   3.180   9.397
 5125SOL     OW16054   1.945   3.098   8.113
 5125SOL    HW116055   1.945   3.048   8.194
 5125SOL    HW216056   2.013   3.058   8.059
 5126SOL     OW16057   2.542   3.263   9.074
 5126SOL    HW116058   2.462   3.220   9.104
 5126SOL    HW216059   2.537   3.351   9.111
 5127SOL     OW16060   3.675   2.047   8.686
 5127SOL    HW116061   3.685   1.953   8.701
 5127SOL    HW216062   3.685   2.057   8.592
 5128SOL     OW16063   3.563   3.353   8.548
 5128SOL    HW116064   3.482   3.328   8.503
 5128SOL    HW216065   3.577   3.284   8.612
 5129SOL     OW16066   2.688   3.440   8.127
 5129SOL    HW116067   2.680   3.487   8.044
 5129SOL    HW216068   2.610   3.384   8.131
 5130SOL     OW16069   3.294   2.085   8.566
 5130SOL    HW116070   3.322   2.007   8.613
 5130SOL    HW216071   3.243   2.135   8.629
 5131SOL     OW16072   2.871   1.882   8.592
 5131SOL    HW116073   2.817   1.811   8.556
 5131SOL    HW216074   2.959   1.845   8.595
 5132SOL     OW16075   2.633   3.194   7.759
 5132SOL    HW116076   2.600   3.105   7.766
 5132SOL    HW216077   2.716   3.193   7.808
 5133SOL     OW16078   2.482   3.420   8.732
 5133SOL    HW116079   2.485   3.501   8.783
 5133SOL    HW216080   2.569   3.412   8.694
 5134SOL     OW16081   3.214   1.916   7.612
 5134SOL    HW116082   3.241   1.855   7.543
 5134SOL    HW216083   3.127   1.885   7.639
 5135SOL     OW16084   3.159   2.322   8.130
 5135SOL    HW116085   3.105   2.401   8.138
 5135SOL    HW216086   3.156   2.282   8.217
 5136SOL     OW16087   3.449   2.066   8.325
 5136SOL    HW116088   3.386   2.085   8.394
 5136SOL    HW216089   3.449   2.145   8.270
 5137SOL     OW16090   1.905   2.934   7.754
 5137SOL    HW116091   1.999   2.925   7.737
 5137SOL    HW216092   1.876   2.846   7.777
 5138SOL     OW16093   2.744   3.512   7.792
 5138SOL    HW116094   2.672   3.494   7.731
 5138SOL    HW216095   2.714   3.589   7.842
 5139SOL     OW16096   2.076   2.527   9.429
 5139SOL    HW116097   1.993   2.499   9.468
 5139SOL    HW216098   2.084   2.475   9.349
 5140SOL     OW16099   1.863   2.241   9.945
 5140SOL    HW116100   1.783   2.265   9.992
 5140SOL    HW216101   1.841   2.159   9.901
 5141SOL     OW16102   2.428   3.146  10.483
 5141SOL    HW116103   2.341   3.148  10.445
 5141SOL    HW216104   2.443   3.234  10.517
 5142SOL     OW16105   3.421   3.373  10.016
 5142SOL    HW116106   3.377   3.355  10.099
 5142SOL    HW216107   3.349   3.378   9.952
 5143SOL     OW16108   2.992   2.561  10.011
 5143SOL    HW116109   3.041   2.642  10.000
 5143SOL    HW216110   2.946   2.572  10.094
 5144SOL     OW16111   3.628   2.469   9.540
 5144SOL    HW116112   3.608   2.460   9.447
 5144SOL    HW216113   3.592   2.389   9.580
 5145SOL     OW16114   2.620   3.006  10.349
 5145SOL    HW116115   2.550   3.039  10.404
 5145SOL    HW216116   2.654   3.083  10.303
 5146SOL     OW16117   2.711   2.645   0.020
 5146SOL    HW116118   2.718   2.700   0.097
 5146SOL    HW216119   2.747   2.698  11.049
 5147SOL     OW16120   2.549   2.868   9.958
 5147SOL    HW116121   2.613   2.855  10.028
 5147SOL    HW216122   2.480   2.920  10.000
 5148SOL     OW16123   2.194   3.288  10.377
 5148SOL    HW116124   2.120   3.253  10.328
 5148SOL    HW216125   2.244   3.340  10.313
 5149SOL     OW16126   3.325   3.362  10.657
 5149SOL    HW116127   3.378   3.441  10.667
 5149SOL    HW216128   3.278   3.354  10.740
 5150SOL     OW16129   3.475   2.311  10.049
 5150SOL    HW116130   3.398   2.336   9.997
 5150SOL    HW216131   3.494   2.389  10.102
 5151SOL     OW16132   2.082   3.575   9.784
 5151SOL    HW116133   2.105   3.652   9.837
 5151SOL    HW216134   2.152   3.569   9.719
 5152SOL     OW16135   2.092   3.302   9.845
 5152SOL    HW116136   2.075   3.396   9.850
 5152SOL    HW216137   2.030   3.263   9.907
 5153SOL     OW16138   2.118   2.955  10.201
 5153SOL    HW116139   2.112   2.868  10.240
 5153SOL    HW216140   2.059   3.009  10.252
 5154SOL     OW16141   2.476   3.651  10.740
 5154SOL    HW116142   2.395   3.633  10.788
 5154SOL    HW216143   2.497   3.741  10.764
 5155SOL     OW16144   2.452   2.841   9.439
 5155SOL    HW116145   2.495   2.895   9.373
 5155SOL    HW216146   2.491   2.869   9.522
 5156SOL     OW16147   3.450   1.978  10.779
 5156SOL    HW116148   3.461   2.058  10.727
 5156SOL    HW216149   3.454   2.008  10.870
 5157SOL     OW16150   1.967   2.507   9.869
 5157SOL    HW116151   1.943   2.418   9.894
 5157SOL    HW216152   1.966   2.556   9.951
 5158SOL     OW16153   3.703   3.623   9.646
 5158SOL    HW116154   3.764   3.594   9.714
 5158SOL    HW216155   3.730   3.713   9.628
 5159SOL     OW16156   1.893   3.458   9.434
 5159SOL    HW116157   1.874   3.366   9.454
 5159SOL    HW216158   1.868   3.505   9.514
 5160SOL     OW16159   3.551   2.781   9.949
 5160SOL    HW116160   3.636   2.741   9.931
 5160SOL    HW216161   3.531   2.831   9.869
 5161SOL     OW16162   3.507   2.970   9.739
 5161SOL    HW116163   3.593   2.977   9.697
 5161SOL    HW216164   3.512   3.030   9.814
 5162SOL     OW16165   1.981   2.598  10.888
 5162SOL    HW116166   2.064   2.607  10.934
 5162SOL    HW216167   1.936   2.681  10.905
 5163SOL     OW16168   2.475   3.245  10.045
 5163SOL    HW116169   2.428   3.162  10.054
 5163SOL    HW216170   2.458   3.272   9.955
 5164SOL     OW16171   3.158   3.099  10.751
 5164SOL    HW116172   3.183   3.039  10.681
 5164SOL    HW216173   3.214   3.075  10.825
 5165SOL     OW16174   2.673   1.860   9.815
 5165SOL    HW116175   2.715   1.945   9.799
 5165SOL    HW216176   2.580   1.881   9.826
 5166SOL     OW16177   2.055   2.832  10.575
 5166SOL    HW116178   2.136   2.785  10.557
 5166SOL    HW216179   1.986   2.773  10.542
 5167SOL     OW16180   3.394   2.854   9.507
 5167SOL    HW116181   3.324   2.796   9.537
 5167SOL    HW216182   3.433   2.888   9.587
 5168SOL     OW16183   3.057   3.667  10.926
 5168SOL    HW116184   3.058   3.730  10.854
 5168SOL    HW216185   3.065   3.582  10.885
 5169SOL     OW16186   3.328   3.282  10.262
 5169SOL    HW116187   3.259   3.297  10.327
 5169SOL    HW216188   3.316   3.191  10.235
 5170SOL     OW16189   3.523   3.597   9.888
 5170SOL    HW116190   3.500   3.568   9.799
 5170SOL    HW216191   3.497   3.523   9.944
 5171SOL     OW16192   2.463   2.587   9.578
 5171SOL    HW116193   2.477   2.656   9.513
 5171SOL    HW216194   2.381   2.611   9.621
 5172SOL     OW16195   3.143   2.211  10.243
 5172SOL    HW116196   3.053   2.179  10.250
 5172SOL    HW216197   3.192   2.158  10.304
 5173SOL     OW16198   3.443   3.530   9.619
 5173SOL    HW116199   3.533   3.565   9.613
 5173SOL    HW216200   3.418   3.513   9.528
 5174SOL     OW16201   2.652   2.465  10.759
 5174SOL    HW116202   2.631   2.456  10.852
 5174SOL    HW216203   2.595   2.402  10.716
 5175SOL     OW16204   2.827   2.759  10.899
 5175SOL    HW116205   2.876   2.687  10.859
 5175SOL    HW216206   2.778   2.797  10.826
 5176SOL     OW16207   2.860   2.270  10.550
 5176SOL    HW116208   2.780   2.313  10.582
 5176SOL    HW216209   2.834   2.232  10.466
 5177SOL     OW16210   2.911   2.560   9.737
 5177SOL    HW116211   2.927   2.553   9.831
 5177SOL    HW216212   2.829   2.513   9.724
 5178SOL     OW16213   1.951   2.683  10.084
 5178SOL    HW116214   2.033   2.678  10.134
 5178SOL    HW216215   1.906   2.759  10.120
 5179SOL     OW16216   1.991   3.701  10.895
 5179SOL    HW116217   1.972   3.669  10.983
 5179SOL    HW216218   1.905   3.707  10.852
 5180SOL     OW16219   2.750   2.210   9.505
 5180SOL    HW116220   2.794   2.270   9.444
 5180SOL    HW216221   2.764   2.123   9.466
 5181SOL     OW16222   3.237   3.004   9.852
 5181SOL    HW116223   3.316   2.991   9.799
 5181SOL    HW216224   3.185   3.067   9.801
 5182SOL     OW16225   2.870   3.307   9.783
 5182SOL    HW116226   2.830   3.379   9.734
 5182SOL    HW216227   2.855   3.330   9.875
 5183SOL     OW16228   2.216   3.669  10.169
 5183SOL    HW116229   2.260   3.584  10.178
 5183SOL    HW216230   2.285   3.733  10.186
 5184SOL     OW16231   3.660   2.922  10.177
 5184SOL    HW116232   3.603   2.904  10.102
 5184SOL    HW216233   3.599   2.927  10.251
 5185SOL     OW16234   3.088   3.402  10.825
 5185SOL    HW116235   3.097   3.314  10.863
 5185SOL    HW216236   3.029   3.389  10.750
 5186SOL     OW16237   2.190   2.805   9.565
 5186SOL    HW116238   2.265   2.831   9.510
 5186SOL    HW216239   2.149   2.734   9.516
 5187SOL     OW16240   3.338   2.602  10.037
 5187SOL    HW116241   3.327   2.557  10.121
 5187SOL    HW216242   3.415   2.657  10.050
 5188SOL     OW16243   2.314   3.131  11.053
 5188SOL    HW116244   2.286   3.139  10.961
 5188SOL    HW216245   2.251   3.069  11.091
 5189SOL     OW16246   2.983   3.640   9.542
 5189SOL    HW116247   2.911   3.596   9.588
 5189SOL    HW216248   3.005   3.579   9.470
 5190SOL     OW16249   3.491   3.241   9.397
 5190SOL    HW116250   3.450   3.326   9.382
 5190SOL    HW216251   3.422   3.178   9.378
 5191SOL     OW16252   2.329   3.600   9.631
 5191SOL    HW116253   2.369   3.657   9.697
 5191SOL    HW216254   2.402   3.572   9.576
 5192SOL     OW16255   3.263   1.970   9.741
 5192SOL    HW116256   3.252   1.945   9.649
 5192SOL    HW216257   3.358   1.976   9.752
 5193SOL     OW16258   2.116   3.655  10.543
 5193SOL    HW116259   2.168   3.592  10.593
 5193SOL    HW216260   2.107   3.615  10.457
 5194SOL     OW16261   2.800   3.560  10.210
 5194SOL    HW116262   2.878   3.508  10.229
 5194SOL    HW216263   2.755   3.511  10.142
 5195SOL     OW16264   2.488   1.994   9.414
 5195SOL    HW116265   2.559   1.936   9.442
 5195SOL    HW216266   2.450   1.949   9.338
 5196SOL     OW16267   2.629   2.133  11.046
 5196SOL    HW116268   2.698   2.077  11.082
 5196SOL    HW216269   2.572   2.152   0.020
 5197SOL     OW16270   2.738   3.383  10.503
 5197SOL    HW116271   2.723   3.348  10.416
 5197SOL    HW216272   2.810   3.330  10.539
 5198SOL     OW16273   3.204   2.452  10.753
 5198SOL    HW116274   3.255   2.430  10.831
 5198SOL    HW216275   3.233   2.540  10.729
 5199SOL     OW16276   2.676   3.259  10.247
 5199SOL    HW116277   2.760   3.249  10.202
 5199SOL    HW216278   2.611   3.258  10.177
 5200SOL     OW16279   2.799   2.369  10.221
 5200SOL    HW116280   2.761   2.367  10.133
 5200SOL    HW216281   2.828   2.279  10.236
 5201SOL     OW16282   2.406   1.929   9.809
 5201SOL    HW116283   2.328   1.920   9.863
 5201SOL    HW216284   2.399   2.017   9.771
 5202SOL     OW16285   3.290   3.060   9.351
 5202SOL    HW116286   3.321   2.984   9.401
 5202SOL    HW216287   3.205   3.080   9.389
 5203SOL     OW16288   2.160   1.905   9.496
 5203SOL    HW116289   2.226   1.973   9.480
 5203SOL    HW216290   2.209   1.833   9.536
 5204SOL     OW16291   2.797   2.105   9.770
 5204SOL    HW116292   2.773   2.150   9.689
 5204SOL    HW216293   2.892   2.118   9.776
 5205SOL     OW16294   2.939   2.544  10.770
 5205SOL    HW116295   2.871   2.477  10.776
 5205SOL    HW216296   3.021   2.495  10.766
 5206SOL     OW16297   3.086   3.432  10.104
 5206SOL    HW116298   3.104   3.499  10.038
 5206SOL    HW216299   3.154   3.444  10.170
 5207SOL     OW16300   2.330   3.010  10.045
 5207SOL    HW116301   2.259   2.993  10.108
 5207SOL    HW216302   2.291   2.993   9.960
 5208SOL     OW16303   3.132   3.656   9.916
 5208SOL    HW116304   3.177   3.717   9.857
 5208SOL    HW216305   3.068   3.710   9.962
 5209SOL     OW16306   2.887   2.407   9.330
 5209SOL    HW116307   2.845   2.490   9.311
 5209SOL    HW216308   2.952   2.427   9.398
 5210SOL     OW16309   1.943   2.422  10.691
 5210SOL    HW116310   2.035   2.398  10.704
 5210SOL    HW216311   1.926   2.488  10.759
 5211SOL     OW16312   2.441   2.002  10.434
 5211SOL    HW116313   2.465   1.973  10.522
 5211SOL    HW216314   2.364   2.056  10.447
 5212SOL     OW16315   2.743   2.320   9.948
 5212SOL    HW116316   2.687   2.374   9.893
 5212SOL    HW216317   2.755   2.240   9.898
 5213SOL     OW16318   2.877   1.913  10.063
 5213SOL    HW116319   2.818   1.906   9.988
 5213SOL    HW216320   2.855   1.838  10.118
 5214SOL     OW16321   3.297   3.026  10.168
 5214SOL    HW116322   3.231   2.957  10.166
 5214SOL    HW216323   3.321   3.038  10.076
 5215SOL     OW16324   3.329   2.466  10.290
 5215SOL    HW116325   3.281   2.383  10.293
 5215SOL    HW216326   3.390   2.461  10.363
 5216SOL     OW16327   3.709   2.680   9.691
 5216SOL    HW116328   3.765   2.628   9.750
 5216SOL    HW216329   3.680   2.618   9.625
 5217SOL     OW16330   2.353   3.277   9.470
 5217SOL    HW116331   2.279   3.248   9.522
 5217SOL    HW216332   2.334   3.247   9.381
 5218SOL     OW16333   3.530   3.127   9.958
 5218SOL    HW116334   3.625   3.131   9.971
 5218SOL    HW216335   3.499   3.215   9.979
 5219SOL     OW16336   3.256   2.434   9.381
 5219SOL    HW116337   3.195   2.415   9.454
 5219SOL    HW216338   3.340   2.401   9.412
 5220SOL     OW16339   3.622   3.091  10.872
 5220SOL    HW116340   3.713   3.061  10.876
 5220SOL    HW216341   3.623   3.178  10.913
 5221SOL     OW16342   2.927   3.216  10.650
 5221SOL    HW116343   2.849   3.183  10.695
 5221SOL    HW216344   2.999   3.168  10.689
 5222SOL     OW16345   2.989   3.066  10.417
 5222SOL    HW116346   2.925   3.102  10.479
 5222SOL    HW216347   2.957   3.094  10.331
 5223SOL     OW16348   3.492   2.962  10.389
 5223SOL    HW116349   3.489   3.023  10.462
 5223SOL    HW216350   3.412   2.978  10.339
 5224SOL     OW16351   2.783   1.959  10.708
 5224SOL    HW116352   2.805   1.941  10.617
 5224SOL    HW216353   2.862   2.001  10.743
 5225SOL     OW16354   2.570   2.922   9.681
 5225SOL    HW116355   2.557   2.908   9.775
 5225SOL    HW216356   2.646   2.868   9.659
 5226SOL     OW16357   2.280   2.669  10.562
 5226SOL    HW116358   2.351   2.690  10.622
 5226SOL    HW216359   2.236   2.593  10.601
 5227SOL     OW16360   3.132   2.240  10.587
 5227SOL    HW116361   3.162   2.320  10.631
 5227SOL    HW216362   3.043   2.260  10.558
 5228SOL     OW16363   1.930   3.437  10.659
 5228SOL    HW116364   1.900   3.510  10.605
 5228SOL    HW216365   2.026   3.442  10.654
 5229SOL     OW16366   2.217   2.967   9.799
 5229SOL    HW116367   2.219   3.045   9.744
 5229SOL    HW216368   2.212   2.894   9.737
 5230SOL     OW16369   2.517   2.430  10.147
 5230SOL    HW116370   2.489   2.485  10.074
 5230SOL    HW216371   2.473   2.468  10.223
 5231SOL     OW16372   3.110   3.210   9.699
 5231SOL    HW116373   3.165   3.282   9.730
 5231SOL    HW216374   3.023   3.231   9.733
 5232SOL     OW16375   3.139   3.319  10.454
 5232SOL    HW116376   3.195   3.322  10.531
 5232SOL    HW216377   3.086   3.240  10.466
 5233SOL     OW16378   3.444   2.487   9.787
 5233SOL    HW116379   3.400   2.542   9.851
 5233SOL    HW216380   3.490   2.549   9.730
 5234SOL     OW16381   2.209   3.385  10.626
 5234SOL    HW116382   2.196   3.343  10.541
 5234SOL    HW216383   2.303   3.400  10.632
 5235SOL     OW16384   2.280   2.599  10.905
 5235SOL    HW116385   2.343   2.646  10.850
 5235SOL    HW216386   2.326   2.520  10.932
 5236SOL     OW16387   3.454   2.624  10.971
 5236SOL    HW116388   3.376   2.680  10.963
 5236SOL    HW216389   3.523   2.674  10.927
 5237SOL     OW16390   2.440   2.731  10.337
 5237SOL    HW116391   2.477   2.819  10.332
 5237SOL    HW216392   2.389   2.730  10.418
 5238SOL     OW16393   3.221   2.722  10.345
 5238SOL    HW116394   3.140   2.715  10.295
 5238SOL    HW216395   3.261   2.635  10.341
 5239SOL     OW16396   3.068   2.391   9.579
 5239SOL    HW116397   3.076   2.313   9.633
 5239SOL    HW216398   3.026   2.455   9.636
 5240SOL     OW16399   1.913   3.173  10.586
 5240SOL    HW116400   1.939   3.119  10.660
 5240SOL    HW216401   1.915   3.263  10.619
 5241SOL     OW16402   2.614   2.514  10.403
 5241SOL    HW116403   2.650   2.467  10.328
 5241SOL    HW216404   2.569   2.589  10.364
 5242SOL     OW16405   2.162   1.905   9.939
 5242SOL    HW116406   2.117   1.987   9.959
 5242SOL    HW216407   2.171   1.861  10.024
 5243SOL     OW16408   3.476   2.235   9.679
 5243SOL    HW116409   3.503   2.171   9.745
 5243SOL    HW216410   3.453   2.313   9.728
 5244SOL     OW16411   2.890   2.623  10.271
 5244SOL    HW116412   2.888   2.641  10.365
 5244SOL    HW216413   2.859   2.532  10.263
 5245SOL     OW16414   2.835   3.434  11.004
 5245SOL    HW116415   2.822   3.483  10.924
 5245SOL    HW216416   2.868   3.349  10.975
 5246SOL     OW16417   3.720   3.358  10.912
 5246SOL    HW116418   3.735   3.392  10.824
 5246SOL    HW216419   3.787   3.400  10.965
 5247SOL     OW16420   2.225   2.791  11.089
 5247SOL    HW116421   2.309   2.797   0.035
 5247SOL    HW216422   2.236   2.718  11.028
 5248SOL     OW16423   3.392   2.136   9.437
 5248SOL    HW116424   3.328   2.070   9.464
 5248SOL    HW216425   3.425   2.172   9.520
 5249SOL     OW16426   3.155   2.689   9.342
 5249SOL    HW116427   3.198   2.603   9.346
 5249SOL    HW216428   3.187   2.728   9.260
 5250SOL     OW16429   2.927   3.196  10.163
 5250SOL    HW116430   2.930   3.124  10.101
 5250SOL    HW216431   2.990   3.260  10.128
 5251SOL     OW16432   2.173   2.678  10.254
 5251SOL    HW116433   2.266   2.699  10.250
 5251SOL    HW216434   2.168   2.597  10.305
 5252SOL     OW16435   3.019   2.072  10.782
 5252SOL    HW116436   3.033   2.129  10.857
 5252SOL    HW216437   3.058   2.119  10.709
 5253SOL     OW16438   1.867   3.184   9.504
 5253SOL    HW116439   1.780   3.198   9.467
 5253SOL    HW216440   1.864   3.094   9.538
 5254SOL     OW16441   1.951   3.651  10.246
 5254SOL    HW116442   1.921   3.571  10.204
 5254SOL    HW216443   2.041   3.662  10.216
 5255SOL     OW16444   2.360   3.436  10.215
 5255SOL    HW116445   2.429   3.498  10.239
 5255SOL    HW216446   2.405   3.371  10.161
 5256SOL     OW16447   2.849   2.662  10.538
 5256SOL    HW116448   2.896   2.633  10.616
 5256SOL    HW216449   2.765   2.615  10.541
 5257SOL     OW16450   1.906   2.418  10.422
 5257SOL    HW116451   1.958   2.346  10.386
 5257SOL    HW216452   1.923   2.415  10.516
 5258SOL     OW16453   2.675   2.430   9.667
 5258SOL    HW116454   2.680   2.357   9.605
 5258SOL    HW216455   2.602   2.483   9.635
 5259SOL     OW16456   3.505   2.463  10.497
 5259SOL    HW116457   3.495   2.404  10.572
 5259SOL    HW216458   3.592   2.444  10.462
 5260SOL     OW16459   2.117   3.426  11.054
 5260SOL    HW116460   2.063   3.465   0.023
 5260SOL    HW216461   2.118   3.332  11.073
 5261SOL     OW16462   2.802   3.544  10.760
 5261SOL    HW116463   2.764   3.513  10.678
 5261SOL    HW216464   2.789   3.639  10.758
 5262SOL     OW16465   2.017   3.000  10.781
 5262SOL    HW116466   2.010   2.944  10.858
 5262SOL    HW216467   2.029   2.939  10.708
 5263SOL     OW16468   3.188   2.915  10.538
 5263SOL    HW116469   3.216   2.851  10.474
 5263SOL    HW216470   3.116   2.963  10.496
 5264SOL     OW16471   3.171   2.719   9.617
 5264SOL    HW116472   3.095   2.688   9.666
 5264SOL    HW216473   3.148   2.705   9.525
 5265SOL     OW16474   3.633   3.609  10.461
 5265SOL    HW116475   3.692   3.634  10.389
 5265SOL    HW216476   3.608   3.519  10.440
 5266SOL     OW16477   3.103   3.596  10.426
 5266SOL    HW116478   3.185   3.615  10.380
 5266SOL    HW216479   3.107   3.501  10.443
 5267SOL     OW16480   1.946   3.129  10.323
 5267SOL    HW116481   1.934   3.140  10.417
 5267SOL    HW216482   1.871   3.075  10.296
 5268SOL     OW16483   3.580   2.005   9.821
 5268SOL    HW116484   3.654   1.991   9.762
 5268SOL    HW216485   3.565   1.920   9.861
 5269SOL     OW16486   3.252   3.430   9.793
 5269SOL    HW116487   3.313   3.461   9.726
 5269SOL    HW216488   3.204   3.508   9.821
 5270SOL     OW16489   3.140   2.788   9.982
 5270SOL    HW116490   3.212   2.725   9.986
 5270SOL    HW216491   3.173   2.860   9.929
 5271SOL     OW16492   2.683   3.135  10.739
 5271SOL    HW116493   2.653   3.169  10.823
 5271SOL    HW216494   2.612   3.157  10.678
 5272SOL     OW16495   2.534   3.479   9.465
 5272SOL    HW116496   2.543   3.491   9.371
 5272SOL    HW216497   2.480   3.401   9.475
 5273SOL     OW16498   3.488   3.581  10.699
 5273SOL    HW116499   3.541   3.595  10.620
 5273SOL    HW216500   3.473   3.669  10.734
 5274SOL     OW16501   3.702   2.035  10.278
 5274SOL    HW116502   3.731   1.949  10.249
 5274SOL    HW216503   3.616   2.046  10.238
 5275SOL     OW16504   3.068   3.469   9.341
 5275SOL    HW116505   3.060   3.378   9.368
 5275SOL    HW216506   3.003   3.480   9.271
 5276SOL     OW16507   2.686   2.868  10.685
 5276SOL    HW116508   2.731   2.860  10.601
 5276SOL    HW216509   2.689   2.962  10.705
 5277SOL     OW16510   2.777   2.772   9.599
 5277SOL    HW116511   2.839   2.804   9.534
 5277SOL    HW216512   2.824   2.702   9.645
 5278SOL     OW16513   3.356   3.486   9.352
 5278SOL    HW116514   3.261   3.482   9.340
 5278SOL    HW216515   3.391   3.493   9.263
 5279SOL     OW16516   2.230   3.166  10.804
 5279SOL    HW116517   2.216   3.241  10.747
 5279SOL    HW216518   2.156   3.108  10.786
 5280SOL     OW16519   3.475   3.144  10.593
 5280SOL    HW116520   3.531   3.133  10.669
 5280SOL    HW216521   3.418   3.218  10.616
 5281SOL     OW16522   2.911   2.967  10.016
 5281SOL    HW116523   2.841   2.915  10.055
 5281SOL    HW216524   2.973   2.903   9.982
 5282SOL     OW16525   2.884   2.101  10.276
 5282SOL    HW116526   2.878   2.054  10.194
 5282SOL    HW216527   2.877   2.033  10.343
 5283SOL     OW16528   2.464   3.351   9.792
 5283SOL    HW116529   2.505   3.300   9.722
 5283SOL    HW216530   2.396   3.402   9.748
 5284SOL     OW16531   3.578   2.256  10.688
 5284SOL    HW116532   3.651   2.318  10.689
 5284SOL    HW216533   3.609   2.184  10.632
 5285SOL     OW16534   2.120   3.208   9.598
 5285SOL    HW116535   2.027   3.206   9.575
 5285SOL    HW216536   2.123   3.245   9.686
 5286SOL     OW16537   1.974   2.871  11.020
 5286SOL    HW116538   1.905   2.854  11.084
 5286SOL    HW216539   2.055   2.844  11.064
 5287SOL     OW16540   2.543   2.050  10.799
 5287SOL    HW116541   2.627   2.027  10.761
 5287SOL    HW216542   2.564   2.091  10.883
 5288SOL     OW16543   1.899   2.193   9.351
 5288SOL    HW116544   1.821   2.161   9.306
 5288SOL    HW216545   1.925   2.271   9.303
 5289SOL     OW16546   3.292   2.711  10.710
 5289SOL    HW116547   3.244   2.778  10.661
 5289SOL    HW216548   3.383   2.720  10.681
 5290SOL     OW16549   1.933   2.019   9.624
 5290SOL    HW116550   1.911   2.096   9.571
 5290SOL    HW216551   2.018   1.990   9.591
 5291SOL     OW16552   3.042   3.203   9.427
 5291SOL    HW116553   2.951   3.173   9.430
 5291SOL    HW216554   3.070   3.203   9.518
 5292SOL     OW16555   2.483   2.693  10.740
 5292SOL    HW116556   2.537   2.771  10.727
 5292SOL    HW216557   2.547   2.621  10.746
 5293SOL     OW16558   3.346   3.637  10.286
 5293SOL    HW116559   3.372   3.695  10.214
 5293SOL    HW216560   3.427   3.620  10.334
 5294SOL     OW16561   2.578   2.428  11.016
 5294SOL    HW116562   2.610   2.501  11.070
 5294SOL    HW216563   2.631   2.353  11.044
 5295SOL     OW16564   2.246   3.594  10.870
 5295SOL    HW116565   2.167   3.647  10.864
 5295SOL    HW216566   2.222   3.520  10.926
 5296SOL     OW16567   3.534   2.744  10.567
 5296SOL    HW116568   3.525   2.659  10.524
 5296SOL    HW216569   3.525   2.808  10.496
 5297SOL     OW16570   3.080   2.181   9.767
 5297SOL    HW116571   3.144   2.111   9.759
 5297SOL    HW216572   3.108   2.230   9.845
 5298SOL     OW16573   2.443   2.613   9.963
 5298SOL    HW116574   2.489   2.696   9.953
 5298SOL    HW216575   2.365   2.622   9.908
 5299SOL     OW16576   3.615   2.182  10.951
 5299SOL    HW116577   3.597   2.219  10.865
 5299SOL    HW216578   3.535   2.196  11.001
 5300SOL     OW16579   3.610   2.797  10.825
 5300SOL    HW116580   3.604   2.892  10.839
 5300SOL    HW216581   3.593   2.785  10.732
 5301SOL     OW16582   2.724   3.230   9.341
 5301SOL    HW116583   2.685   3.257   9.424
 5301SOL    HW216584   2.744   3.312   9.296
 5302SOL     OW16585   2.521   3.655  10.257
 5302SOL    HW116586   2.500   3.746  10.233
 5302SOL    HW216587   2.617   3.650  10.249
 5303SOL     OW16588   2.727   2.827  10.166
 5303SOL    HW116589   2.778   2.755  10.205
 5303SOL    HW216590   2.697   2.878  10.241
 5304SOL     OW16591   2.941   2.849   9.398
 5304SOL    HW116592   2.920   2.900   9.320
 5304SOL    HW216593   3.017   2.797   9.373
 5305SOL     OW16594   3.718   3.418  10.155
 5305SOL    HW116595   3.641   3.406  10.100
 5305SOL    HW216596   3.711   3.350  10.222
 5306SOL     OW16597   1.945   3.098   9.974
 5306SOL    HW116598   1.945   3.048  10.056
 5306SOL    HW216599   2.013   3.057   9.921
 5307SOL     OW16600   2.540   3.256  10.936
 5307SOL    HW116601   2.466   3.206  10.972
 5307SOL    HW216602   2.512   3.347  10.939
 5308SOL     OW16603   3.673   2.046  10.549
 5308SOL    HW116604   3.683   1.952  10.563
 5308SOL    HW216605   3.684   2.058  10.455
 5309SOL     OW16606   3.563   3.354  10.410
 5309SOL    HW116607   3.482   3.327  10.366
 5309SOL    HW216608   3.579   3.285  10.474
 5310SOL     OW16609   2.688   3.440   9.989
 5310SOL    HW116610   2.680   3.487   9.906
 5310SOL    HW216611   2.610   3.385   9.993
 5311SOL     OW16612   3.294   2.085  10.428
 5311SOL    HW116613   3.323   2.007  10.475
 5311SOL    HW216614   3.243   2.134  10.493
 5312SOL     OW16615   2.870   1.881  10.456
 5312SOL    HW116616   2.817   1.813  10.414
 5312SOL    HW216617   2.959   1.844  10.457
 5313SOL     OW16618   2.633   3.194   9.621
 5313SOL    HW116619   2.600   3.104   9.628
 5313SOL    HW216620   2.716   3.193   9.670
 5314SOL     OW16621   2.481   3.419  10.595
 5314SOL    HW116622   2.483   3.501  10.644
 5314SOL    HW216623   2.568   3.413  10.556
 5315SOL     OW16624   3.214   1.916   9.474
 5315SOL    HW116625   3.240   1.855   9.405
 5315SOL    HW216626   3.127   1.885   9.501
 5316SOL     OW16627   3.160   2.322   9.993
 5316SOL    HW116628   3.104   2.400   9.999
 5316SOL    HW216629   3.156   2.282  10.079
 5317SOL     OW16630   3.449   2.067  10.187
 5317SOL    HW116631   3.386   2.085  10.256
 5317SOL    HW216632   3.449   2.145  10.132
 5318SOL     OW16633   1.905   2.934   9.616
 5318SOL    HW116634   1.998   2.925   9.599
 5318SOL    HW216635   1.876   2.846   9.638
 5319SOL     OW16636   2.744   3.512   9.654
 5319SOL    HW116637   2.672   3.495   9.593
 5319SOL    HW216638   2.714   3.589   9.704
 5320SOL     OW16639   2.066   4.295   0.089
 5320SOL    HW116640   2.039   4.352   0.161
 5320SOL    HW216641   2.082   4.355   0.015
 5321SOL     OW16642   2.086   4.001   0.990
 5321SOL    HW116643   2.114   3.968   1.076
 5321SOL    HW216644   1.996   3.969   0.981
 5322SOL     OW16645   1.868   4.102   0.643
 5322SOL    HW116646   1.784   4.129   0.681
 5322SOL    HW216647   1.846   4.025   0.590
 5323SOL     OW16648   3.599   4.332   0.229
 5323SOL    HW116649   3.608   4.304   0.138
 5323SOL    HW216650   3.590   4.251   0.278
 5324SOL     OW16651   2.593   0.268   0.684
 5324SOL    HW116652   2.587   0.204   0.755
 5324SOL    HW216653   2.503   0.285   0.658
 5325SOL     OW16654   2.309   4.118   1.487
 5325SOL    HW116655   2.386   4.061   1.494
 5325SOL    HW216656   2.235   4.060   1.502
 5326SOL     OW16657   3.477   4.173   0.740
 5326SOL    HW116658   3.406   4.199   0.681
 5326SOL    HW216659   3.484   4.244   0.803
 5327SOL     OW16660   3.459   3.845   1.470
 5327SOL    HW116661   3.458   3.925   1.416
 5327SOL    HW216662   3.446   3.877   1.559
 5328SOL     OW16663   1.950   4.366   0.561
 5328SOL    HW116664   1.933   4.276   0.588
 5328SOL    HW216665   2.000   4.404   0.634
 5329SOL     OW16666   1.981   4.473   1.584
 5329SOL    HW116667   2.052   4.488   1.648
 5329SOL    HW216668   1.948   0.061   1.563
 5330SOL     OW16669   2.675   3.725   0.505
 5330SOL    HW116670   2.714   3.811   0.491
 5330SOL    HW216671   2.581   3.742   0.516
 5331SOL     OW16672   2.193   3.975   1.807
 5331SOL    HW116673   2.236   4.059   1.824
 5331SOL    HW216674   2.104   3.987   1.838
 5332SOL     OW16675   3.140   4.071   0.932
 5332SOL    HW116676   3.051   4.037   0.942
 5332SOL    HW216677   3.192   4.020   0.994
 5333SOL     OW16678   2.686   4.309   1.450
 5333SOL    HW116679   2.645   4.314   1.536
 5333SOL    HW216680   2.621   4.267   1.394
 5334SOL     OW16681   3.258   4.199   1.676
 5334SOL    HW116682   3.258   4.243   1.762
 5334SOL    HW216683   3.317   4.125   1.687
 5335SOL     OW16684   2.858   4.148   1.234
 5335SOL    HW116685   2.784   4.169   1.292
 5335SOL    HW216686   2.821   4.089   1.168
 5336SOL     OW16687   2.921   4.403   0.423
 5336SOL    HW116688   2.920   4.453   0.505
 5336SOL    HW216689   2.829   4.384   0.406
 5337SOL     OW16690   2.747   4.073   0.208
 5337SOL    HW116691   2.793   4.130   0.147
 5337SOL    HW216692   2.762   3.984   0.175
 5338SOL     OW16693   3.569   4.298   1.828
 5338SOL    HW116694   3.578   4.387   1.795
 5338SOL    HW216695   3.591   4.242   1.754
 5339SOL     OW16696   2.412   3.907   0.892
 5339SOL    HW116697   2.413   3.934   0.984
 5339SOL    HW216698   2.411   3.989   0.842
 5340SOL     OW16699   3.348   4.462   0.737
 5340SOL    HW116700   3.331   4.408   0.814
 5340SOL    HW216701   3.390   0.041   0.772
 5341SOL     OW16702   2.060   4.006   1.502
 5341SOL    HW116703   1.976   4.051   1.494
 5341SOL    HW216704   2.046   3.940   1.570
 5342SOL     OW16705   3.264   3.831   0.430
 5342SOL    HW116706   3.255   3.808   0.337
 5342SOL    HW216707   3.358   3.840   0.443
 5343SOL     OW16708   2.218   4.382   0.408
 5343SOL    HW116709   2.258   4.309   0.455
 5343SOL    HW216710   2.147   4.412   0.465
 5344SOL     OW16711   3.399   3.950   1.725
 5344SOL    HW116712   3.407   3.972   1.818
 5344SOL    HW216713   3.331   3.883   1.722
 5345SOL     OW16714   2.477   3.830   0.125
 5345SOL    HW116715   2.567   3.800   0.120
 5345SOL    HW216716   2.443   3.817   0.037
 5346SOL     OW16717   2.629   4.001   1.753
 5346SOL    HW116718   2.703   3.940   1.758
 5346SOL    HW216719   2.579   3.983   1.832
 5347SOL     OW16720   3.207   4.311   1.429
 5347SOL    HW116721   3.229   4.274   1.514
 5347SOL    HW216722   3.245   4.399   1.429
 5348SOL     OW16723   2.784   4.237   0.899
 5348SOL    HW116724   2.762   4.220   0.808
 5348SOL    HW216725   2.824   4.155   0.930
 5349SOL     OW16726   2.411   3.787   0.506
 5349SOL    HW116727   2.329   3.786   0.555
 5349SOL    HW216728   2.405   3.866   0.451
 5350SOL     OW16729   2.148   3.771   0.199
 5350SOL    HW116730   2.190   3.825   0.132
 5350SOL    HW216731   2.216   3.708   0.224
 5351SOL     OW16732   2.800   3.971   0.465
 5351SOL    HW116733   2.772   4.012   0.383
 5351SOL    HW216734   2.894   3.983   0.467
 5352SOL     OW16735   2.939   4.396   1.515
 5352SOL    HW116736   2.855   4.365   1.481
 5352SOL    HW216737   3.004   4.353   1.460
 5353SOL     OW16738   2.871   4.266   0.040
 5353SOL    HW116739   2.880   4.326  11.067
 5353SOL    HW216740   2.952   4.275   0.090
 5354SOL     OW16741   1.937   4.280   1.392
 5354SOL    HW116742   2.028   4.272   1.364
 5354SOL    HW216743   1.937   4.353   1.454
 5355SOL     OW16744   2.422   3.950   1.163
 5355SOL    HW116745   2.462   3.872   1.201
 5355SOL    HW216746   2.332   3.948   1.194
 5356SOL     OW16747   2.731   4.188   0.639
 5356SOL    HW116748   2.698   4.249   0.573
 5356SOL    HW216749   2.749   4.108   0.590
 5357SOL     OW16750   2.876   3.777   0.753
 5357SOL    HW116751   2.817   3.768   0.678
 5357SOL    HW216752   2.856   3.701   0.808
 5358SOL     OW16753   3.338   4.313   0.969
 5358SOL    HW116754   3.283   4.237   0.988
 5358SOL    HW216755   3.390   4.325   1.048
 5359SOL     OW16756   3.262   4.294   0.073
 5359SOL    HW116757   3.197   4.277   0.141
 5359SOL    HW216758   3.331   4.229   0.088
 5360SOL     OW16759   2.390   3.991   0.327
 5360SOL    HW116760   2.415   3.930   0.258
 5360SOL    HW216761   2.373   4.073   0.281
 5361SOL     OW16762   2.780   3.822   1.398
 5361SOL    HW116763   2.803   3.802   1.307
 5361SOL    HW216764   2.859   3.861   1.435
 5362SOL     OW16765   2.295   0.008   1.269
 5362SOL    HW116766   2.361   0.006   1.339
 5362SOL    HW216767   2.253   4.423   1.273
 5363SOL     OW16768   3.128   4.100   1.273
 5363SOL    HW116769   3.162   4.178   1.318
 5363SOL    HW216770   3.039   4.125   1.248
 5364SOL     OW16771   2.416   4.256   0.865
 5364SOL    HW116772   2.437   4.301   0.783
 5364SOL    HW216773   2.480   4.289   0.928
 5365SOL     OW16774   3.442   4.342   0.478
 5365SOL    HW116775   3.398   4.405   0.535
 5365SOL    HW216776   3.487   4.395   0.413
 5366SOL     OW16777   2.858   3.843   1.757
 5366SOL    HW116778   2.911   3.917   1.726
 5366SOL    HW216779   2.907   3.765   1.730
 5367SOL     OW16780   2.360   3.767   1.747
 5367SOL    HW116781   2.318   3.712   1.680
 5367SOL    HW216782   2.300   3.840   1.759
 5368SOL     OW16783   3.074   4.252   0.266
 5368SOL    HW116784   3.084   4.173   0.319
 5368SOL    HW216785   3.025   4.312   0.322
 5369SOL     OW16786   2.162   3.924   1.246
 5369SOL    HW116787   2.125   3.957   1.328
 5369SOL    HW216788   2.142   3.830   1.246
 5370SOL     OW16789   2.593   4.360   1.047
 5370SOL    HW116790   2.666   4.325   0.997
 5370SOL    HW216791   2.598   4.454   1.034
 5371SOL     OW16792   3.612   0.136   1.856
 5371SOL    HW116793   3.549   0.148   1.785
 5371SOL    HW216794   3.566   0.165   1.934
 5372SOL     OW16795   2.165   3.790   0.623
 5372SOL    HW116796   2.145   3.881   0.648
 5372SOL    HW216797   2.170   3.743   0.706
 5373SOL     OW16798   3.475   4.092   0.369
 5373SOL    HW116799   3.504   4.030   0.435
 5373SOL    HW216800   3.453   4.171   0.418
 5374SOL     OW16801   3.398   4.011   0.117
 5374SOL    HW116802   3.338   3.938   0.134
 5374SOL    HW216803   3.429   4.036   0.204
 5375SOL     OW16804   2.180   0.012   0.920
 5375SOL    HW116805   2.256   0.068   0.933
 5375SOL    HW216806   2.192   4.440   0.983
 5376SOL     OW16807   2.199   4.240   1.020
 5376SOL    HW116808   2.159   4.155   1.000
 5376SOL    HW216809   2.272   4.247   0.959
 5377SOL     OW16810   3.000   4.095   1.684
 5377SOL    HW116811   2.948   4.154   1.739
 5377SOL    HW216812   3.084   4.139   1.675
 5378SOL     OW16813   3.022   3.928   1.469
 5378SOL    HW116814   3.013   3.989   1.542
 5378SOL    HW216815   3.061   3.980   1.399
 5379SOL     OW16816   1.898   4.271   1.115
 5379SOL    HW116817   1.979   4.252   1.068
 5379SOL    HW216818   1.924   4.274   1.207
 5380SOL     OW16819   2.054   4.243   1.717
 5380SOL    HW116820   2.111   4.199   1.654
 5380SOL    HW216821   2.000   4.301   1.664
 5381SOL     OW16822   2.676   4.307   0.328
 5381SOL    HW116823   2.686   4.221   0.287
 5381SOL    HW216824   2.582   4.317   0.341
 5382SOL     OW16825   3.500   4.319   1.189
 5382SOL    HW116826   3.494   4.260   1.264
 5382SOL    HW216827   3.588   4.304   1.153
 5383SOL     OW16828   2.546   4.182   1.257
 5383SOL    HW116829   2.502   4.104   1.225
 5383SOL    HW216830   2.549   4.241   1.182
 5384SOL     OW16831   2.336   4.219   0.185
 5384SOL    HW116832   2.377   4.304   0.201
 5384SOL    HW216833   2.242   4.237   0.185
 5385SOL     OW16834   2.779   3.814   0.109
 5385SOL    HW116835   2.830   3.779   0.036
 5385SOL    HW216836   2.815   3.771   0.187
 5386SOL     OW16837   3.580   3.867   0.512
 5386SOL    HW116838   3.654   3.854   0.452
 5386SOL    HW216839   3.566   3.781   0.551
 5387SOL     OW16840   3.140   0.138   0.681
 5387SOL    HW116841   3.197   0.061   0.688
 5387SOL    HW216842   3.189   0.200   0.627
 5388SOL     OW16843   3.701   3.896   0.968
 5388SOL    HW116844   3.731   3.810   0.938
 5388SOL    HW216845   3.615   3.908   0.927
 5389SOL     OW16846   2.125   4.043   0.719
 5389SOL    HW116847   2.038   4.073   0.693
 5389SOL    HW216848   2.120   4.031   0.813
 5390SOL     OW16849   2.925   0.305   0.721
 5390SOL    HW116850   2.840   0.266   0.699
 5390SOL    HW216851   2.989   0.237   0.698
 5391SOL     OW16852   2.881   3.964   0.965
 5391SOL    HW116853   2.876   3.915   0.883
 5391SOL    HW216854   2.877   3.897   1.033
 5392SOL     OW16855   3.582   4.114   1.380
 5392SOL    HW116856   3.653   4.178   1.377
 5392SOL    HW216857   3.611   4.043   1.324
 5393SOL     OW16858   2.535   3.919   1.499
 5393SOL    HW116859   2.619   3.902   1.457
 5393SOL    HW216860   2.558   3.950   1.587
 5394SOL     OW16861   1.940   4.051   0.054
 5394SOL    HW116862   1.872   4.046  11.087
 5394SOL    HW216863   1.969   4.142   0.051
 5395SOL     OW16864   1.931   3.884   0.315
 5395SOL    HW116865   1.917   3.959   0.258
 5395SOL    HW216866   2.014   3.846   0.285
 5396SOL     OW16867   2.589   4.288   1.703
 5396SOL    HW116868   2.593   4.335   1.787
 5396SOL    HW216869   2.614   4.198   1.725
 5397SOL     OW16870   3.080   4.040   0.456
 5397SOL    HW116871   3.144   3.970   0.446
 5397SOL    HW216872   3.109   4.089   0.533
 5398SOL     OW16873   3.624   4.089   1.648
 5398SOL    HW116874   3.607   4.099   1.554
 5398SOL    HW216875   3.555   4.030   1.679
 5399SOL     OW16876   2.961   0.204   0.051
 5399SOL    HW116877   2.960   0.289   0.007
 5399SOL    HW216878   3.052   0.176   0.048
 5400SOL     OW16879   3.676   3.909   1.238
 5400SOL    HW116880   3.685   3.814   1.253
 5400SOL    HW216881   3.685   3.919   1.143
 5401SOL     OW16882   2.305   4.155   0.538
 5401SOL    HW116883   2.327   4.085   0.476
 5401SOL    HW216884   2.249   4.113   0.603
 5402SOL     OW16885   2.185   4.264   1.294
 5402SOL    HW116886   2.242   4.210   1.348
 5402SOL    HW216887   2.206   4.238   1.204
 5403SOL     OW16888   3.294   3.948   1.118
 5403SOL    HW116889   3.322   3.869   1.165
 5403SOL    HW216890   3.242   3.997   1.181
 5404SOL     OW16891   2.870   3.744   1.145
 5404SOL    HW116892   2.816   3.676   1.106
 5404SOL    HW216893   2.958   3.707   1.146
 5405SOL     OW16894   3.213   3.778   0.164
 5405SOL    HW116895   3.235   3.727   0.086
 5405SOL    HW216896   3.127   3.745   0.189
 5406SOL     OW16897   3.162   4.175   0.682
 5406SOL    HW116898   3.120   4.261   0.695
 5406SOL    HW216899   3.162   4.135   0.768
 5407SOL     OW16900   3.449   3.928   0.877
 5407SOL    HW116901   3.386   3.948   0.946
 5407SOL    HW216902   3.450   4.007   0.822
 5408SOL     OW16903   2.087   4.290   1.986
 5408SOL    HW116904   2.029   4.357   2.022
 5408SOL    HW216905   2.078   4.298   1.891
 5409SOL     OW16906   2.086   4.000   2.852
 5409SOL    HW116907   2.114   3.968   2.938
 5409SOL    HW216908   1.996   3.969   2.843
 5410SOL     OW16909   1.868   4.101   2.505
 5410SOL    HW116910   1.785   4.130   2.543
 5410SOL    HW216911   1.845   4.024   2.453
 5411SOL     OW16912   3.596   4.335   2.098
 5411SOL    HW116913   3.595   4.320   2.004
 5411SOL    HW216914   3.594   4.247   2.136
 5412SOL     OW16915   2.589   0.267   2.546
 5412SOL    HW116916   2.584   0.208   2.621
 5412SOL    HW216917   2.498   0.285   2.523
 5413SOL     OW16918   2.309   4.118   3.349
 5413SOL    HW116919   2.386   4.061   3.356
 5413SOL    HW216920   2.235   4.060   3.364
 5414SOL     OW16921   3.477   4.173   2.601
 5414SOL    HW116922   3.405   4.199   2.543
 5414SOL    HW216923   3.484   4.244   2.665
 5415SOL     OW16924   3.458   3.845   3.332
 5415SOL    HW116925   3.458   3.925   3.278
 5415SOL    HW216926   3.446   3.876   3.421
 5416SOL     OW16927   1.942   4.370   2.429
 5416SOL    HW116928   1.934   4.278   2.452
 5416SOL    HW216929   2.003   4.405   2.495
 5417SOL     OW16930   1.981   4.473   3.446
 5417SOL    HW116931   2.052   4.489   3.510
 5417SOL    HW216932   1.949   0.061   3.425
 5418SOL     OW16933   2.675   3.723   2.368
 5418SOL    HW116934   2.715   3.809   2.352
 5418SOL    HW216935   2.581   3.743   2.379
 5419SOL     OW16936   2.193   3.975   3.668
 5419SOL    HW116937   2.236   4.059   3.686
 5419SOL    HW216938   2.104   3.987   3.700
 5420SOL     OW16939   3.140   4.070   2.794
 5420SOL    HW116940   3.051   4.037   2.804
 5420SOL    HW216941   3.192   4.019   2.856
 5421SOL     OW16942   2.687   4.308   3.312
 5421SOL    HW116943   2.645   4.313   3.398
 5421SOL    HW216944   2.621   4.267   3.256
 5422SOL     OW16945   3.258   4.199   3.538
 5422SOL    HW116946   3.258   4.243   3.624
 5422SOL    HW216947   3.317   4.125   3.549
 5423SOL     OW16948   2.858   4.148   3.096
 5423SOL    HW116949   2.785   4.169   3.154
 5423SOL    HW216950   2.821   4.090   3.030
 5424SOL     OW16951   2.918   4.410   2.282
 5424SOL    HW116952   2.918   4.446   2.370
 5424SOL    HW216953   2.830   4.374   2.271
 5425SOL     OW16954   2.749   4.063   2.052
 5425SOL    HW116955   2.793   4.126   1.994
 5425SOL    HW216956   2.769   3.978   2.015
 5426SOL     OW16957   3.568   4.298   3.690
 5426SOL    HW116958   3.578   4.387   3.657
 5426SOL    HW216959   3.591   4.242   3.616
 5427SOL     OW16960   2.412   3.907   2.753
 5427SOL    HW116961   2.413   3.933   2.845
 5427SOL    HW216962   2.411   3.989   2.705
 5428SOL     OW16963   3.351   4.463   2.599
 5428SOL    HW116964   3.331   4.408   2.675
 5428SOL    HW216965   3.391   0.041   2.635
 5429SOL     OW16966   2.060   4.005   3.364
 5429SOL    HW116967   1.976   4.051   3.356
 5429SOL    HW216968   2.046   3.941   3.433
 5430SOL     OW16969   3.263   3.831   2.293
 5430SOL    HW116970   3.253   3.806   2.201
 5430SOL    HW216971   3.357   3.840   2.304
 5431SOL     OW16972   2.218   4.385   2.272
 5431SOL    HW116973   2.257   4.311   2.317
 5431SOL    HW216974   2.147   4.415   2.330
 5432SOL     OW16975   3.399   3.950   3.587
 5432SOL    HW116976   3.407   3.972   3.680
 5432SOL    HW216977   3.331   3.883   3.584
 5433SOL     OW16978   2.492   3.848   1.969
 5433SOL    HW116979   2.566   3.788   1.979
 5433SOL    HW216980   2.446   3.816   1.892
 5434SOL     OW16981   2.629   4.001   3.615
 5434SOL    HW116982   2.703   3.940   3.620
 5434SOL    HW216983   2.579   3.984   3.695
 5435SOL     OW16984   3.207   4.311   3.290
 5435SOL    HW116985   3.229   4.274   3.376
 5435SOL    HW216986   3.245   4.399   3.291
 5436SOL     OW16987   2.784   4.236   2.761
 5436SOL    HW116988   2.762   4.220   2.669
 5436SOL    HW216989   2.824   4.155   2.791
 5437SOL     OW16990   2.410   3.787   2.366
 5437SOL    HW116991   2.330   3.787   2.418
 5437SOL    HW216992   2.404   3.866   2.312
 5438SOL     OW16993   2.154   3.771   2.046
 5438SOL    HW116994   2.213   3.836   2.008
 5438SOL    HW216995   2.213   3.707   2.087
 5439SOL     OW16996   2.798   3.970   2.326
 5439SOL    HW116997   2.771   4.010   2.243
 5439SOL    HW216998   2.893   3.982   2.327
 5440SOL     OW16999   2.939   4.395   3.378
 5440SOL    HW117000   2.855   4.365   3.343
 5440SOL    HW217001   3.004   4.353   3.322
 5441SOL     OW17002   2.887   4.268   1.886
 5441SOL    HW117003   2.868   4.356   1.852
 5441SOL    HW217004   2.950   4.283   1.957
 5442SOL     OW17005   1.937   4.280   3.254
 5442SOL    HW117006   2.028   4.272   3.226
 5442SOL    HW217007   1.937   4.353   3.316
 5443SOL     OW17008   2.422   3.950   3.025
 5443SOL    HW117009   2.462   3.872   3.064
 5443SOL    HW217010   2.332   3.948   3.056
 5444SOL     OW17011   2.732   4.189   2.499
 5444SOL    HW117012   2.695   4.247   2.433
 5444SOL    HW217013   2.750   4.107   2.453
 5445SOL     OW17014   2.876   3.777   2.615
 5445SOL    HW117015   2.818   3.768   2.539
 5445SOL    HW217016   2.856   3.701   2.670
 5446SOL     OW17017   3.339   4.312   2.830
 5446SOL    HW117018   3.283   4.237   2.850
 5446SOL    HW217019   3.391   4.325   2.910
 5447SOL     OW17020   3.263   4.296   1.935
 5447SOL    HW117021   3.201   4.269   2.003
 5447SOL    HW217022   3.346   4.255   1.960
 5448SOL     OW17023   2.387   3.987   2.182
 5448SOL    HW117024   2.427   3.937   2.112
 5448SOL    HW217025   2.371   4.074   2.144
 5449SOL     OW17026   2.780   3.822   3.260
 5449SOL    HW117027   2.804   3.802   3.169
 5449SOL    HW217028   2.859   3.861   3.297
 5450SOL     OW17029   2.295   0.008   3.131
 5450SOL    HW117030   2.361   0.006   3.200
 5450SOL    HW217031   2.253   4.423   3.136
 5451SOL     OW17032   3.128   4.100   3.135
 5451SOL    HW117033   3.162   4.178   3.180
 5451SOL    HW217034   3.039   4.125   3.110
 5452SOL     OW17035   2.416   4.255   2.727
 5452SOL    HW117036   2.436   4.301   2.646
 5452SOL    HW217037   2.480   4.289   2.790
 5453SOL     OW17038   3.433   4.341   2.337
 5453SOL    HW117039   3.403   4.406   2.400
 5453SOL    HW217040   3.493   4.389   2.280
 5454SOL     OW17041   2.858   3.843   3.619
 5454SOL    HW117042   2.911   3.917   3.588
 5454SOL    HW217043   2.908   3.766   3.592
 5455SOL     OW17044   2.360   3.767   3.609
 5455SOL    HW117045   2.318   3.712   3.542
 5455SOL    HW217046   2.300   3.840   3.621
 5456SOL     OW17047   3.073   4.255   2.128
 5456SOL    HW117048   3.083   4.175   2.180
 5456SOL    HW217049   3.024   4.315   2.184
 5457SOL     OW17050   2.162   3.924   3.108
 5457SOL    HW117051   2.125   3.957   3.189
 5457SOL    HW217052   2.142   3.830   3.108
 5458SOL     OW17053   2.593   4.360   2.909
 5458SOL    HW117054   2.666   4.325   2.859
 5458SOL    HW217055   2.598   4.455   2.897
 5459SOL     OW17056   3.612   0.135   3.718
 5459SOL    HW117057   3.549   0.148   3.647
 5459SOL    HW217058   3.566   0.165   3.796
 5460SOL     OW17059   2.164   3.790   2.485
 5460SOL    HW117060   2.145   3.880   2.509
 5460SOL    HW217061   2.170   3.743   2.568
 5461SOL     OW17062   3.474   4.091   2.231
 5461SOL    HW117063   3.503   4.030   2.299
 5461SOL    HW217064   3.452   4.171   2.279
 5462SOL     OW17065   3.390   3.999   1.989
 5462SOL    HW117066   3.328   3.932   2.015
 5462SOL    HW217067   3.425   4.033   2.071
 5463SOL     OW17068   2.180   0.012   2.783
 5463SOL    HW117069   2.256   0.069   2.795
 5463SOL    HW217070   2.193   4.441   2.846
 5464SOL     OW17071   2.199   4.239   2.882
 5464SOL    HW117072   2.160   4.154   2.862
 5464SOL    HW217073   2.272   4.247   2.821
 5465SOL     OW17074   3.000   4.095   3.546
 5465SOL    HW117075   2.948   4.154   3.601
 5465SOL    HW217076   3.084   4.139   3.537
 5466SOL     OW17077   3.022   3.928   3.331
 5466SOL    HW117078   3.013   3.989   3.404
 5466SOL    HW217079   3.061   3.980   3.261
 5467SOL     OW17080   1.898   4.270   2.977
 5467SOL    HW117081   1.980   4.252   2.930
 5467SOL    HW217082   1.924   4.274   3.069
 5468SOL     OW17083   2.054   4.243   3.579
 5468SOL    HW117084   2.111   4.200   3.516
 5468SOL    HW217085   2.000   4.302   3.526
 5469SOL     OW17086   2.681   4.284   2.207
 5469SOL    HW117087   2.680   4.208   2.149
 5469SOL    HW217088   2.593   4.322   2.199
 5470SOL     OW17089   3.500   4.319   3.050
 5470SOL    HW117090   3.494   4.260   3.126
 5470SOL    HW217091   3.588   4.304   3.015
 5471SOL     OW17092   2.546   4.182   3.119
 5471SOL    HW117093   2.501   4.104   3.087
 5471SOL    HW217094   2.549   4.241   3.044
 5472SOL     OW17095   2.343   4.222   2.053
 5472SOL    HW117096   2.377   4.310   2.071
 5472SOL    HW217097   2.249   4.235   2.043
 5473SOL     OW17098   3.581   3.867   2.374
 5473SOL    HW117099   3.654   3.853   2.314
 5473SOL    HW217100   3.565   3.781   2.413
 5474SOL     OW17101   3.141   0.137   2.541
 5474SOL    HW117102   3.200   0.062   2.548
 5474SOL    HW217103   3.192   0.202   2.491
 5475SOL     OW17104   3.701   3.896   2.830
 5475SOL    HW117105   3.730   3.810   2.800
 5475SOL    HW217106   3.615   3.908   2.789
 5476SOL     OW17107   2.125   4.042   2.580
 5476SOL    HW117108   2.038   4.073   2.555
 5476SOL    HW217109   2.120   4.031   2.675
 5477SOL     OW17110   2.772   0.092   2.085
 5477SOL    HW117111   2.853   0.134   2.057
 5477SOL    HW217112   2.794   0.052   2.169
 5478SOL     OW17113   2.929   0.304   2.599
 5478SOL    HW117114   2.846   0.285   2.554
 5478SOL    HW217115   2.990   0.238   2.566
 5479SOL     OW17116   2.881   3.964   2.827
 5479SOL    HW117117   2.876   3.915   2.745
 5479SOL    HW217118   2.877   3.897   2.895
 5480SOL     OW17119   3.582   4.114   3.242
 5480SOL    HW117120   3.653   4.178   3.239
 5480SOL    HW217121   3.611   4.043   3.186
 5481SOL     OW17122   2.535   3.919   3.361
 5481SOL    HW117123   2.619   3.902   3.319
 5481SOL    HW217124   2.558   3.950   3.449
 5482SOL     OW17125   1.937   4.046   1.892
 5482SOL    HW117126   1.849   4.038   1.855
 5482SOL    HW217127   1.968   4.131   1.861
 5483SOL     OW17128   1.932   3.881   2.175
 5483SOL    HW117129   1.917   3.961   2.124
 5483SOL    HW217130   2.017   3.849   2.144
 5484SOL     OW17131   2.588   4.288   3.565
 5484SOL    HW117132   2.594   4.335   3.648
 5484SOL    HW217133   2.614   4.198   3.587
 5485SOL     OW17134   3.081   4.043   2.317
 5485SOL    HW117135   3.144   3.971   2.308
 5485SOL    HW217136   3.110   4.090   2.395
 5486SOL     OW17137   3.624   4.088   3.510
 5486SOL    HW117138   3.607   4.099   3.416
 5486SOL    HW217139   3.555   4.030   3.541
 5487SOL     OW17140   2.972   0.229   1.966
 5487SOL    HW117141   2.952   0.269   1.881
 5487SOL    HW217142   3.052   0.179   1.951
 5488SOL     OW17143   3.676   3.908   3.100
 5488SOL    HW117144   3.685   3.814   3.115
 5488SOL    HW217145   3.685   3.919   3.006
 5489SOL     OW17146   2.305   4.154   2.400
 5489SOL    HW117147   2.324   4.085   2.336
 5489SOL    HW217148   2.249   4.112   2.465
 5490SOL     OW17149   2.185   4.264   3.156
 5490SOL    HW117150   2.242   4.210   3.210
 5490SOL    HW217151   2.206   4.238   3.066
 5491SOL     OW17152   3.294   3.948   2.980
 5491SOL    HW117153   3.322   3.870   3.027
 5491SOL    HW217154   3.242   3.997   3.043
 5492SOL     OW17155   2.870   3.744   3.007
 5492SOL    HW117156   2.816   3.676   2.968
 5492SOL    HW217157   2.959   3.707   3.008
 5493SOL     OW17158   3.214   3.778   2.026
 5493SOL    HW117159   3.240   3.717   1.957
 5493SOL    HW217160   3.127   3.747   2.053
 5494SOL     OW17161   3.161   4.176   2.544
 5494SOL    HW117162   3.121   4.262   2.559
 5494SOL    HW217163   3.161   4.135   2.631
 5495SOL     OW17164   3.449   3.928   2.739
 5495SOL    HW117165   3.386   3.948   2.808
 5495SOL    HW217166   3.450   4.007   2.684
 5496SOL     OW17167   2.087   4.290   3.848
 5496SOL    HW117168   2.029   4.357   3.884
 5496SOL    HW217169   2.078   4.299   3.753
 5497SOL     OW17170   2.086   4.000   4.714
 5497SOL    HW117171   2.114   3.969   4.800
 5497SOL    HW217172   1.996   3.969   4.706
 5498SOL     OW17173   1.868   4.101   4.367
 5498SOL    HW117174   1.785   4.130   4.405
 5498SOL    HW217175   1.845   4.024   4.315
 5499SOL     OW17176   3.596   4.335   3.960
 5499SOL    HW117177   3.595   4.320   3.866
 5499SOL    HW217178   3.594   4.247   3.998
 5500SOL     OW17179   2.589   0.267   4.408
 5500SOL    HW117180   2.584   0.208   4.483
 5500SOL    HW217181   2.498   0.285   4.386
 5501SOL     OW17182   2.309   4.118   5.211
 5501SOL    HW117183   2.386   4.061   5.218
 5501SOL    HW217184   2.235   4.060   5.227
 5502SOL     OW17185   3.477   4.173   4.463
 5502SOL    HW117186   3.405   4.199   4.405
 5502SOL    HW217187   3.483   4.244   4.527
 5503SOL     OW17188   3.459   3.845   5.194
 5503SOL    HW117189   3.458   3.925   5.140
 5503SOL    HW217190   3.446   3.876   5.283
 5504SOL     OW17191   1.941   4.371   4.292
 5504SOL    HW117192   1.934   4.278   4.314
 5504SOL    HW217193   2.003   4.406   4.356
 5505SOL     OW17194   1.981   4.473   5.308
 5505SOL    HW117195   2.052   4.488   5.371
 5505SOL    HW217196   1.949   0.061   5.287
 5506SOL     OW17197   2.674   3.724   4.227
 5506SOL    HW117198   2.715   3.809   4.213
 5506SOL    HW217199   2.581   3.743   4.240
 5507SOL     OW17200   2.193   3.975   5.531
 5507SOL    HW117201   2.236   4.059   5.548
 5507SOL    HW217202   2.104   3.987   5.563
 5508SOL     OW17203   3.140   4.070   4.656
 5508SOL    HW117204   3.051   4.037   4.666
 5508SOL    HW217205   3.192   4.019   4.718
 5509SOL     OW17206   2.686   4.308   5.174
 5509SOL    HW117207   2.645   4.313   5.260
 5509SOL    HW217208   2.621   4.267   5.118
 5510SOL     OW17209   3.258   4.200   5.400
 5510SOL    HW117210   3.258   4.243   5.486
 5510SOL    HW217211   3.317   4.125   5.411
 5511SOL     OW17212   2.858   4.148   4.958
 5511SOL    HW117213   2.784   4.169   5.016
 5511SOL    HW217214   2.821   4.089   4.892
 5512SOL     OW17215   2.918   4.409   4.144
 5512SOL    HW117216   2.919   4.446   4.232
 5512SOL    HW217217   2.830   4.374   4.133
 5513SOL     OW17218   2.749   4.063   3.914
 5513SOL    HW117219   2.793   4.126   3.856
 5513SOL    HW217220   2.770   3.978   3.877
 5514SOL     OW17221   3.569   4.298   5.552
 5514SOL    HW117222   3.578   4.387   5.518
 5514SOL    HW217223   3.591   4.241   5.479
 5515SOL     OW17224   2.411   3.907   4.615
 5515SOL    HW117225   2.413   3.934   4.707
 5515SOL    HW217226   2.411   3.990   4.567
 5516SOL     OW17227   3.351   4.463   4.461
 5516SOL    HW117228   3.331   4.408   4.537
 5516SOL    HW217229   3.391   0.041   4.497
 5517SOL     OW17230   2.060   4.006   5.226
 5517SOL    HW117231   1.976   4.050   5.218
 5517SOL    HW217232   2.045   3.938   5.293
 5518SOL     OW17233   3.263   3.831   4.154
 5518SOL    HW117234   3.253   3.806   4.063
 5518SOL    HW217235   3.357   3.840   4.167
 5519SOL     OW17236   2.217   4.385   4.134
 5519SOL    HW117237   2.257   4.311   4.179
 5519SOL    HW217238   2.148   4.415   4.192
 5520SOL     OW17239   3.399   3.950   5.449
 5520SOL    HW117240   3.407   3.972   5.542
 5520SOL    HW217241   3.331   3.882   5.446
 5521SOL     OW17242   2.492   3.848   3.831
 5521SOL    HW117243   2.566   3.789   3.842
 5521SOL    HW217244   2.446   3.816   3.754
 5522SOL     OW17245   2.629   4.001   5.477
 5522SOL    HW117246   2.703   3.940   5.481
 5522SOL    HW217247   2.579   3.983   5.556
 5523SOL     OW17248   3.207   4.311   5.152
 5523SOL    HW117249   3.229   4.274   5.238
 5523SOL    HW217250   3.245   4.399   5.153
 5524SOL     OW17251   2.784   4.236   4.623
 5524SOL    HW117252   2.762   4.220   4.531
 5524SOL    HW217253   2.824   4.155   4.653
 5525SOL     OW17254   2.410   3.787   4.228
 5525SOL    HW117255   2.329   3.788   4.280
 5525SOL    HW217256   2.404   3.866   4.174
 5526SOL     OW17257   2.154   3.771   3.908
 5526SOL    HW117258   2.213   3.836   3.870
 5526SOL    HW217259   2.213   3.707   3.949
 5527SOL     OW17260   2.798   3.970   4.188
 5527SOL    HW117261   2.771   4.010   4.105
 5527SOL    HW217262   2.893   3.982   4.189
 5528SOL     OW17263   2.939   4.395   5.240
 5528SOL    HW117264   2.855   4.365   5.205
 5528SOL    HW217265   3.004   4.353   5.184
 5529SOL     OW17266   2.887   4.268   3.748
 5529SOL    HW117267   2.869   4.356   3.714
 5529SOL    HW217268   2.950   4.283   3.819
 5530SOL     OW17269   1.937   4.280   5.116
 5530SOL    HW117270   2.028   4.272   5.088
 5530SOL    HW217271   1.937   4.353   5.178
 5531SOL     OW17272   2.422   3.950   4.886
 5531SOL    HW117273   2.463   3.872   4.925
 5531SOL    HW217274   2.332   3.948   4.918
 5532SOL     OW17275   2.732   4.189   4.361
 5532SOL    HW117276   2.696   4.247   4.295
 5532SOL    HW217277   2.750   4.107   4.315
 5533SOL     OW17278   2.877   3.777   4.476
 5533SOL    HW117279   2.818   3.768   4.401
 5533SOL    HW217280   2.857   3.702   4.531
 5534SOL     OW17281   3.339   4.312   4.692
 5534SOL    HW117282   3.283   4.237   4.712
 5534SOL    HW217283   3.391   4.325   4.772
 5535SOL     OW17284   3.263   4.295   3.797
 5535SOL    HW117285   3.201   4.269   3.865
 5535SOL    HW217286   3.346   4.255   3.822
 5536SOL     OW17287   2.386   3.987   4.044
 5536SOL    HW117288   2.427   3.937   3.974
 5536SOL    HW217289   2.371   4.074   4.006
 5537SOL     OW17290   2.780   3.823   5.121
 5537SOL    HW117291   2.803   3.802   5.031
 5537SOL    HW217292   2.859   3.861   5.158
 5538SOL     OW17293   2.295   0.008   4.993
 5538SOL    HW117294   2.361   0.006   5.062
 5538SOL    HW217295   2.253   4.423   4.998
 5539SOL     OW17296   3.128   4.100   4.997
 5539SOL    HW117297   3.162   4.178   5.042
 5539SOL    HW217298   3.039   4.125   4.972
 5540SOL     OW17299   2.416   4.256   4.589
 5540SOL    HW117300   2.437   4.301   4.507
 5540SOL    HW217301   2.480   4.289   4.652
 5541SOL     OW17302   3.433   4.341   4.199
 5541SOL    HW117303   3.403   4.406   4.262
 5541SOL    HW217304   3.493   4.389   4.142
 5542SOL     OW17305   2.858   3.843   5.481
 5542SOL    HW117306   2.911   3.916   5.450
 5542SOL    HW217307   2.907   3.765   5.455
 5543SOL     OW17308   2.360   3.768   5.470
 5543SOL    HW117309   2.318   3.713   5.404
 5543SOL    HW217310   2.300   3.841   5.482
 5544SOL     OW17311   3.073   4.255   3.990
 5544SOL    HW117312   3.083   4.175   4.042
 5544SOL    HW217313   3.024   4.315   4.046
 5545SOL     OW17314   2.162   3.924   4.970
 5545SOL    HW117315   2.126   3.957   5.052
 5545SOL    HW217316   2.143   3.831   4.970
 5546SOL     OW17317   2.593   4.360   4.771
 5546SOL    HW117318   2.666   4.325   4.721
 5546SOL    HW217319   2.598   4.455   4.759
 5547SOL     OW17320   3.612   0.136   5.580
 5547SOL    HW117321   3.550   0.148   5.509
 5547SOL    HW217322   3.566   0.165   5.658
 5548SOL     OW17323   2.164   3.790   4.347
 5548SOL    HW117324   2.145   3.880   4.371
 5548SOL    HW217325   2.170   3.743   4.430
 5549SOL     OW17326   3.474   4.091   4.093
 5549SOL    HW117327   3.503   4.030   4.161
 5549SOL    HW217328   3.452   4.171   4.141
 5550SOL     OW17329   3.390   3.999   3.851
 5550SOL    HW117330   3.328   3.932   3.877
 5550SOL    HW217331   3.425   4.033   3.933
 5551SOL     OW17332   2.180   0.012   4.645
 5551SOL    HW117333   2.256   0.068   4.657
 5551SOL    HW217334   2.193   4.441   4.707
 5552SOL     OW17335   2.199   4.239   4.744
 5552SOL    HW117336   2.160   4.154   4.724
 5552SOL    HW217337   2.272   4.247   4.683
 5553SOL     OW17338   3.000   4.095   5.408
 5553SOL    HW117339   2.948   4.154   5.463
 5553SOL    HW217340   3.084   4.139   5.399
 5554SOL     OW17341   3.022   3.928   5.193
 5554SOL    HW117342   3.013   3.989   5.266
 5554SOL    HW217343   3.061   3.980   5.123
 5555SOL     OW17344   1.898   4.270   4.839
 5555SOL    HW117345   1.980   4.253   4.792
 5555SOL    HW217346   1.924   4.274   4.931
 5556SOL     OW17347   2.054   4.243   5.441
 5556SOL    HW117348   2.111   4.199   5.378
 5556SOL    HW217349   1.999   4.301   5.388
 5557SOL     OW17350   2.681   4.284   4.069
 5557SOL    HW117351   2.679   4.208   4.011
 5557SOL    HW217352   2.594   4.322   4.061
 5558SOL     OW17353   3.500   4.319   4.913
 5558SOL    HW117354   3.494   4.260   4.988
 5558SOL    HW217355   3.588   4.304   4.877
 5559SOL     OW17356   2.546   4.182   4.981
 5559SOL    HW117357   2.502   4.104   4.949
 5559SOL    HW217358   2.549   4.241   4.906
 5560SOL     OW17359   2.343   4.222   3.915
 5560SOL    HW117360   2.377   4.310   3.933
 5560SOL    HW217361   2.248   4.235   3.905
 5561SOL     OW17362   3.581   3.867   4.236
 5561SOL    HW117363   3.654   3.853   4.176
 5561SOL    HW217364   3.565   3.781   4.276
 5562SOL     OW17365   3.141   0.137   4.403
 5562SOL    HW117366   3.200   0.062   4.410
 5562SOL    HW217367   3.191   0.202   4.354
 5563SOL     OW17368   3.701   3.896   4.692
 5563SOL    HW117369   3.730   3.810   4.662
 5563SOL    HW217370   3.615   3.908   4.651
 5564SOL     OW17371   2.125   4.042   4.442
 5564SOL    HW117372   2.038   4.073   4.417
 5564SOL    HW217373   2.121   4.031   4.537
 5565SOL     OW17374   2.772   0.092   3.947
 5565SOL    HW117375   2.853   0.133   3.918
 5565SOL    HW217376   2.794   0.052   4.031
 5566SOL     OW17377   2.928   0.303   4.462
 5566SOL    HW117378   2.846   0.286   4.416
 5566SOL    HW217379   2.990   0.238   4.428
 5567SOL     OW17380   2.881   3.963   4.689
 5567SOL    HW117381   2.876   3.915   4.607
 5567SOL    HW217382   2.876   3.896   4.757
 5568SOL     OW17383   3.582   4.114   5.104
 5568SOL    HW117384   3.653   4.178   5.101
 5568SOL    HW217385   3.611   4.043   5.048
 5569SOL     OW17386   2.535   3.920   5.223
 5569SOL    HW117387   2.619   3.901   5.181
 5569SOL    HW217388   2.559   3.951   5.310
 5570SOL     OW17389   1.937   4.046   3.754
 5570SOL    HW117390   1.849   4.039   3.716
 5570SOL    HW217391   1.969   4.131   3.723
 5571SOL     OW17392   1.932   3.881   4.037
 5571SOL    HW117393   1.917   3.961   3.986
 5571SOL    HW217394   2.017   3.849   4.006
 5572SOL     OW17395   2.588   4.288   5.427
 5572SOL    HW117396   2.594   4.334   5.511
 5572SOL    HW217397   2.614   4.198   5.448
 5573SOL     OW17398   3.081   4.043   4.179
 5573SOL    HW117399   3.144   3.971   4.170
 5573SOL    HW217400   3.109   4.090   4.257
 5574SOL     OW17401   3.624   4.089   5.372
 5574SOL    HW117402   3.607   4.099   5.278
 5574SOL    HW217403   3.555   4.030   5.403
 5575SOL     OW17404   2.972   0.229   3.828
 5575SOL    HW117405   2.952   0.270   3.744
 5575SOL    HW217406   3.052   0.179   3.813
 5576SOL     OW17407   3.677   3.909   4.962
 5576SOL    HW117408   3.685   3.814   4.977
 5576SOL    HW217409   3.685   3.919   4.868
 5577SOL     OW17410   2.305   4.154   4.262
 5577SOL    HW117411   2.324   4.085   4.198
 5577SOL    HW217412   2.249   4.112   4.327
 5578SOL     OW17413   2.185   4.264   5.018
 5578SOL    HW117414   2.242   4.210   5.072
 5578SOL    HW217415   2.206   4.238   4.928
 5579SOL     OW17416   3.294   3.948   4.842
 5579SOL    HW117417   3.321   3.869   4.889
 5579SOL    HW217418   3.242   3.997   4.905
 5580SOL     OW17419   2.870   3.744   4.869
 5580SOL    HW117420   2.815   3.675   4.833
 5580SOL    HW217421   2.958   3.706   4.871
 5581SOL     OW17422   3.214   3.778   3.888
 5581SOL    HW117423   3.240   3.717   3.819
 5581SOL    HW217424   3.127   3.747   3.915
 5582SOL     OW17425   3.161   4.176   4.406
 5582SOL    HW117426   3.121   4.262   4.421
 5582SOL    HW217427   3.161   4.135   4.493
 5583SOL     OW17428   3.449   3.928   4.601
 5583SOL    HW117429   3.387   3.948   4.671
 5583SOL    HW217430   3.449   4.007   4.546
 5584SOL     OW17431   2.088   4.291   5.710
 5584SOL    HW117432   2.028   4.356   5.746
 5584SOL    HW217433   2.078   4.298   5.615
 5585SOL     OW17434   2.086   4.001   6.576
 5585SOL    HW117435   2.114   3.968   6.662
 5585SOL    HW217436   1.996   3.969   6.567
 5586SOL     OW17437   1.868   4.101   6.229
 5586SOL    HW117438   1.785   4.129   6.267
 5586SOL    HW217439   1.845   4.024   6.177
 5587SOL     OW17440   3.596   4.335   5.823
 5587SOL    HW117441   3.595   4.321   5.728
 5587SOL    HW217442   3.595   4.247   5.860
 5588SOL     OW17443   2.589   0.268   6.271
 5588SOL    HW117444   2.584   0.207   6.344
 5588SOL    HW217445   2.498   0.284   6.247
 5589SOL     OW17446   2.309   4.118   7.073
 5589SOL    HW117447   2.386   4.061   7.080
 5589SOL    HW217448   2.235   4.060   7.088
 5590SOL     OW17449   3.477   4.173   6.325
 5590SOL    HW117450   3.405   4.199   6.267
 5590SOL    HW217451   3.484   4.244   6.389
 5591SOL     OW17452   3.458   3.845   7.056
 5591SOL    HW117453   3.458   3.925   7.002
 5591SOL    HW217454   3.446   3.876   7.145
 5592SOL     OW17455   1.943   4.370   6.153
 5592SOL    HW117456   1.933   4.277   6.175
 5592SOL    HW217457   2.002   4.405   6.219
 5593SOL     OW17458   1.981   4.473   7.170
 5593SOL    HW117459   2.052   4.488   7.234
 5593SOL    HW217460   1.948   0.061   7.149
 5594SOL     OW17461   2.674   3.723   6.093
 5594SOL    HW117462   2.715   3.808   6.077
 5594SOL    HW217463   2.581   3.742   6.103
 5595SOL     OW17464   2.193   3.975   7.393
 5595SOL    HW117465   2.236   4.059   7.410
 5595SOL    HW217466   2.104   3.987   7.424
 5596SOL     OW17467   3.140   4.070   6.518
 5596SOL    HW117468   3.051   4.037   6.528
 5596SOL    HW217469   3.192   4.019   6.580
 5597SOL     OW17470   2.687   4.308   7.036
 5597SOL    HW117471   2.645   4.314   7.122
 5597SOL    HW217472   2.621   4.267   6.980
 5598SOL     OW17473   3.258   4.199   7.262
 5598SOL    HW117474   3.258   4.243   7.348
 5598SOL    HW217475   3.317   4.125   7.273
 5599SOL     OW17476   2.858   4.148   6.820
 5599SOL    HW117477   2.784   4.169   6.878
 5599SOL    HW217478   2.821   4.089   6.754
 5600SOL     OW17479   2.918   4.410   6.005
 5600SOL    HW117480   2.918   4.446   6.094
 5600SOL    HW217481   2.830   4.374   5.994
 5601SOL     OW17482   2.749   4.064   5.776
 5601SOL    HW117483   2.793   4.126   5.718
 5601SOL    HW217484   2.769   3.978   5.739
 5602SOL     OW17485   3.569   4.298   7.414
 5602SOL    HW117486   3.578   4.387   7.380
 5602SOL    HW217487   3.591   4.242   7.340
 5603SOL     OW17488   2.413   3.907   6.478
 5603SOL    HW117489   2.413   3.934   6.570
 5603SOL    HW217490   2.411   3.989   6.429
 5604SOL     OW17491   3.350   4.463   6.323
 5604SOL    HW117492   3.331   4.408   6.399
 5604SOL    HW217493   3.391   0.041   6.359
 5605SOL     OW17494   2.060   4.006   7.088
 5605SOL    HW117495   1.976   4.051   7.080
 5605SOL    HW217496   2.046   3.940   7.156
 5606SOL     OW17497   3.263   3.831   6.017
 5606SOL    HW117498   3.252   3.806   5.925
 5606SOL    HW217499   3.357   3.840   6.028
 5607SOL     OW17500   2.218   4.386   5.996
 5607SOL    HW117501   2.257   4.311   6.041
 5607SOL    HW217502   2.147   4.414   6.054
 5608SOL     OW17503   3.399   3.950   7.311
 5608SOL    HW117504   3.407   3.972   7.404
 5608SOL    HW217505   3.331   3.883   7.308
 5609SOL     OW17506   2.492   3.848   5.692
 5609SOL    HW117507   2.566   3.788   5.703
 5609SOL    HW217508   2.446   3.816   5.615
 5610SOL     OW17509   2.629   4.001   7.339
 5610SOL    HW117510   2.703   3.940   7.344
 5610SOL    HW217511   2.579   3.983   7.418
 5611SOL     OW17512   3.207   4.311   7.014
 5611SOL    HW117513   3.229   4.274   7.100
 5611SOL    HW217514   3.245   4.399   7.015
 5612SOL     OW17515   2.784   4.237   6.485
 5612SOL    HW117516   2.762   4.220   6.393
 5612SOL    HW217517   2.824   4.155   6.515
 5613SOL     OW17518   2.410   3.787   6.090
 5613SOL    HW117519   2.330   3.787   6.142
 5613SOL    HW217520   2.404   3.866   6.036
 5614SOL     OW17521   2.154   3.771   5.769
 5614SOL    HW117522   2.213   3.836   5.732
 5614SOL    HW217523   2.213   3.707   5.811
 5615SOL     OW17524   2.798   3.970   6.049
 5615SOL    HW117525   2.771   4.009   5.967
 5615SOL    HW217526   2.893   3.981   6.051
 5616SOL     OW17527   2.939   4.396   7.101
 5616SOL    HW117528   2.855   4.365   7.067
 5616SOL    HW217529   3.004   4.353   7.046
 5617SOL     OW17530   2.887   4.268   5.611
 5617SOL    HW117531   2.869   4.356   5.576
 5617SOL    HW217532   2.950   4.283   5.681
 5618SOL     OW17533   1.937   4.280   6.978
 5618SOL    HW117534   2.028   4.272   6.950
 5618SOL    HW217535   1.937   4.353   7.040
 5619SOL     OW17536   2.422   3.950   6.749
 5619SOL    HW117537   2.462   3.872   6.788
 5619SOL    HW217538   2.332   3.948   6.779
 5620SOL     OW17539   2.732   4.189   6.223
 5620SOL    HW117540   2.695   4.247   6.157
 5620SOL    HW217541   2.750   4.107   6.177
 5621SOL     OW17542   2.876   3.777   6.339
 5621SOL    HW117543   2.818   3.769   6.263
 5621SOL    HW217544   2.855   3.701   6.394
 5622SOL     OW17545   3.339   4.312   6.554
 5622SOL    HW117546   3.283   4.237   6.574
 5622SOL    HW217547   3.391   4.325   6.634
 5623SOL     OW17548   3.263   4.296   5.659
 5623SOL    HW117549   3.201   4.269   5.727
 5623SOL    HW217550   3.346   4.255   5.684
 5624SOL     OW17551   2.387   3.987   5.906
 5624SOL    HW117552   2.428   3.937   5.835
 5624SOL    HW217553   2.371   4.074   5.868
 5625SOL     OW17554   2.780   3.822   6.984
 5625SOL    HW117555   2.804   3.802   6.893
 5625SOL    HW217556   2.859   3.861   7.021
 5626SOL     OW17557   2.295   0.008   6.855
 5626SOL    HW117558   2.361   0.006   6.924
 5626SOL    HW217559   2.253   4.423   6.860
 5627SOL     OW17560   3.128   4.100   6.859
 5627SOL    HW117561   3.162   4.178   6.904
 5627SOL    HW217562   3.039   4.125   6.834
 5628SOL     OW17563   2.416   4.255   6.451
 5628SOL    HW117564   2.437   4.301   6.370
 5628SOL    HW217565   2.480   4.289   6.514
 5629SOL     OW17566   3.433   4.341   6.061
 5629SOL    HW117567   3.403   4.406   6.124
 5629SOL    HW217568   3.493   4.389   6.004
 5630SOL     OW17569   2.858   3.843   7.343
 5630SOL    HW117570   2.911   3.917   7.312
 5630SOL    HW217571   2.907   3.765   7.316
 5631SOL     OW17572   2.360   3.767   7.333
 5631SOL    HW117573   2.318   3.712   7.266
 5631SOL    HW217574   2.300   3.840   7.345
 5632SOL     OW17575   3.073   4.255   5.852
 5632SOL    HW117576   3.083   4.175   5.904
 5632SOL    HW217577   3.024   4.315   5.908
 5633SOL     OW17578   2.162   3.924   6.832
 5633SOL    HW117579   2.125   3.957   6.914
 5633SOL    HW217580   2.143   3.830   6.832
 5634SOL     OW17581   2.593   4.360   6.633
 5634SOL    HW117582   2.666   4.325   6.583
 5634SOL    HW217583   2.598   4.455   6.621
 5635SOL     OW17584   3.612   0.136   7.442
 5635SOL    HW117585   3.549   0.148   7.371
 5635SOL    HW217586   3.566   0.165   7.520
 5636SOL     OW17587   2.165   3.791   6.209
 5636SOL    HW117588   2.146   3.881   6.234
 5636SOL    HW217589   2.170   3.743   6.292
 5637SOL     OW17590   3.474   4.091   5.955
 5637SOL    HW117591   3.503   4.030   6.023
 5637SOL    HW217592   3.452   4.171   6.003
 5638SOL     OW17593   3.390   3.999   5.713
 5638SOL    HW117594   3.328   3.932   5.739
 5638SOL    HW217595   3.425   4.033   5.795
 5639SOL     OW17596   2.180   0.012   6.507
 5639SOL    HW117597   2.256   0.068   6.519
 5639SOL    HW217598   2.192   4.440   6.569
 5640SOL     OW17599   2.199   4.239   6.606
 5640SOL    HW117600   2.160   4.154   6.586
 5640SOL    HW217601   2.272   4.247   6.545
 5641SOL     OW17602   3.000   4.095   7.270
 5641SOL    HW117603   2.948   4.154   7.325
 5641SOL    HW217604   3.084   4.139   7.261
 5642SOL     OW17605   3.022   3.928   7.055
 5642SOL    HW117606   3.013   3.989   7.128
 5642SOL    HW217607   3.061   3.980   6.985
 5643SOL     OW17608   1.898   4.271   6.701
 5643SOL    HW117609   1.979   4.252   6.654
 5643SOL    HW217610   1.924   4.274   6.793
 5644SOL     OW17611   2.054   4.243   7.303
 5644SOL    HW117612   2.111   4.199   7.240
 5644SOL    HW217613   1.999   4.301   7.250
 5645SOL     OW17614   2.681   4.284   5.931
 5645SOL    HW117615   2.680   4.208   5.873
 5645SOL    HW217616   2.593   4.322   5.923
 5646SOL     OW17617   3.500   4.319   6.774
 5646SOL    HW117618   3.494   4.260   6.850
 5646SOL    HW217619   3.588   4.304   6.739
 5647SOL     OW17620   2.547   4.182   6.843
 5647SOL    HW117621   2.501   4.104   6.811
 5647SOL    HW217622   2.549   4.241   6.768
 5648SOL     OW17623   2.343   4.222   5.777
 5648SOL    HW117624   2.377   4.310   5.795
 5648SOL    HW217625   2.249   4.235   5.767
 5649SOL     OW17626   3.581   3.867   6.098
 5649SOL    HW117627   3.654   3.853   6.038
 5649SOL    HW217628   3.565   3.781   6.137
 5650SOL     OW17629   3.142   0.138   6.265
 5650SOL    HW117630   3.199   0.062   6.273
 5650SOL    HW217631   3.192   0.201   6.214
 5651SOL     OW17632   3.701   3.896   6.554
 5651SOL    HW117633   3.730   3.810   6.525
 5651SOL    HW217634   3.615   3.908   6.513
 5652SOL     OW17635   2.125   4.042   6.304
 5652SOL    HW117636   2.038   4.073   6.279
 5652SOL    HW217637   2.120   4.031   6.399
 5653SOL     OW17638   2.772   0.092   5.809
 5653SOL    HW117639   2.853   0.134   5.781
 5653SOL    HW217640   2.795   0.051   5.893
 5654SOL     OW17641   2.929   0.304   6.323
 5654SOL    HW117642   2.846   0.285   6.279
 5654SOL    HW217643   2.990   0.238   6.290
 5655SOL     OW17644   2.881   3.964   6.551
 5655SOL    HW117645   2.877   3.915   6.469
 5655SOL    HW217646   2.877   3.897   6.619
 5656SOL     OW17647   3.582   4.114   6.966
 5656SOL    HW117648   3.653   4.178   6.963
 5656SOL    HW217649   3.611   4.043   6.910
 5657SOL     OW17650   2.535   3.919   7.085
 5657SOL    HW117651   2.619   3.902   7.043
 5657SOL    HW217652   2.558   3.950   7.173
 5658SOL     OW17653   1.937   4.046   5.616
 5658SOL    HW117654   1.849   4.038   5.579
 5658SOL    HW217655   1.968   4.131   5.584
 5659SOL     OW17656   1.932   3.881   5.899
 5659SOL    HW117657   1.917   3.961   5.848
 5659SOL    HW217658   2.017   3.849   5.868
 5660SOL     OW17659   2.589   4.288   7.289
 5660SOL    HW117660   2.593   4.335   7.373
 5660SOL    HW217661   2.614   4.198   7.311
 5661SOL     OW17662   3.081   4.043   6.041
 5661SOL    HW117663   3.144   3.971   6.032
 5661SOL    HW217664   3.110   4.090   6.119
 5662SOL     OW17665   3.624   4.088   7.234
 5662SOL    HW117666   3.607   4.099   7.140
 5662SOL    HW217667   3.555   4.030   7.265
 5663SOL     OW17668   2.972   0.229   5.690
 5663SOL    HW117669   2.952   0.269   5.605
 5663SOL    HW217670   3.052   0.179   5.675
 5664SOL     OW17671   3.676   3.908   6.824
 5664SOL    HW117672   3.686   3.814   6.839
 5664SOL    HW217673   3.685   3.919   6.730
 5665SOL     OW17674   2.305   4.154   6.124
 5665SOL    HW117675   2.324   4.085   6.060
 5665SOL    HW217676   2.249   4.112   6.189
 5666SOL     OW17677   2.185   4.264   6.880
 5666SOL    HW117678   2.242   4.210   6.934
 5666SOL    HW217679   2.206   4.238   6.790
 5667SOL     OW17680   3.294   3.948   6.704
 5667SOL    HW117681   3.322   3.870   6.751
 5667SOL    HW217682   3.242   3.997   6.767
 5668SOL     OW17683   2.870   3.745   6.731
 5668SOL    HW117684   2.816   3.676   6.693
 5668SOL    HW217685   2.958   3.707   6.732
 5669SOL     OW17686   3.214   3.778   5.750
 5669SOL    HW117687   3.241   3.716   5.681
 5669SOL    HW217688   3.128   3.747   5.777
 5670SOL     OW17689   3.161   4.176   6.268
 5670SOL    HW117690   3.120   4.262   6.283
 5670SOL    HW217691   3.161   4.135   6.355
 5671SOL     OW17692   3.449   3.928   6.463
 5671SOL    HW117693   3.386   3.948   6.532
 5671SOL    HW217694   3.450   4.007   6.408
 5672SOL     OW17695   2.088   4.290   7.572
 5672SOL    HW117696   2.029   4.356   7.608
 5672SOL    HW217697   2.078   4.298   7.477
 5673SOL     OW17698   2.086   4.000   8.438
 5673SOL    HW117699   2.114   3.968   8.524
 5673SOL    HW217700   1.996   3.969   8.429
 5674SOL     OW17701   1.868   4.101   8.091
 5674SOL    HW117702   1.785   4.129   8.129
 5674SOL    HW217703   1.845   4.024   8.039
 5675SOL     OW17704   3.596   4.335   7.684
 5675SOL    HW117705   3.595   4.320   7.590
 5675SOL    HW217706   3.594   4.247   7.722
 5676SOL     OW17707   2.589   0.268   8.132
 5676SOL    HW117708   2.584   0.207   8.206
 5676SOL    HW217709   2.498   0.285   8.109
 5677SOL     OW17710   2.309   4.118   8.935
 5677SOL    HW117711   2.386   4.061   8.942
 5677SOL    HW217712   2.235   4.060   8.950
 5678SOL     OW17713   3.477   4.173   8.187
 5678SOL    HW117714   3.405   4.199   8.129
 5678SOL    HW217715   3.484   4.244   8.251
 5679SOL     OW17716   3.458   3.845   8.918
 5679SOL    HW117717   3.458   3.925   8.864
 5679SOL    HW217718   3.446   3.877   9.007
 5680SOL     OW17719   1.942   4.370   8.015
 5680SOL    HW117720   1.934   4.278   8.037
 5680SOL    HW217721   2.002   4.405   8.081
 5681SOL     OW17722   1.981   4.473   9.032
 5681SOL    HW117723   2.052   4.489   9.096
 5681SOL    HW217724   1.948   0.061   9.011
 5682SOL     OW17725   2.675   3.723   7.954
 5682SOL    HW117726   2.715   3.809   7.938
 5682SOL    HW217727   2.581   3.742   7.965
 5683SOL     OW17728   2.193   3.975   9.255
 5683SOL    HW117729   2.236   4.059   9.272
 5683SOL    HW217730   2.104   3.987   9.286
 5684SOL     OW17731   3.140   4.070   8.380
 5684SOL    HW117732   3.051   4.037   8.390
 5684SOL    HW217733   3.192   4.019   8.442
 5685SOL     OW17734   2.687   4.308   8.898
 5685SOL    HW117735   2.645   4.313   8.984
 5685SOL    HW217736   2.621   4.267   8.842
 5686SOL     OW17737   3.258   4.199   9.124
 5686SOL    HW117738   3.258   4.243   9.210
 5686SOL    HW217739   3.317   4.125   9.135
 5687SOL     OW17740   2.858   4.147   8.682
 5687SOL    HW117741   2.784   4.169   8.740
 5687SOL    HW217742   2.821   4.089   8.616
 5688SOL     OW17743   2.918   4.410   7.868
 5688SOL    HW117744   2.918   4.446   7.956
 5688SOL    HW217745   2.830   4.374   7.857
 5689SOL     OW17746   2.749   4.063   7.638
 5689SOL    HW117747   2.793   4.126   7.580
 5689SOL    HW217748   2.769   3.978   7.601
 5690SOL     OW17749   3.569   4.298   9.276
 5690SOL    HW117750   3.578   4.387   9.243
 5690SOL    HW217751   3.591   4.242   9.202
 5691SOL     OW17752   2.412   3.907   8.340
 5691SOL    HW117753   2.413   3.934   8.431
 5691SOL    HW217754   2.411   3.989   8.291
 5692SOL     OW17755   3.351   4.463   8.185
 5692SOL    HW117756   3.331   4.408   8.261
 5692SOL    HW217757   3.391   0.041   8.221
 5693SOL     OW17758   2.060   4.006   8.950
 5693SOL    HW117759   1.976   4.051   8.942
 5693SOL    HW217760   2.046   3.941   9.019
 5694SOL     OW17761   3.263   3.831   7.879
 5694SOL    HW117762   3.252   3.806   7.787
 5694SOL    HW217763   3.357   3.840   7.890
 5695SOL     OW17764   2.218   4.385   7.858
 5695SOL    HW117765   2.257   4.311   7.903
 5695SOL    HW217766   2.147   4.414   7.916
 5696SOL     OW17767   3.399   3.950   9.173
 5696SOL    HW117768   3.407   3.972   9.266
 5696SOL    HW217769   3.331   3.883   9.170
 5697SOL     OW17770   2.493   3.848   7.554
 5697SOL    HW117771   2.566   3.788   7.565
 5697SOL    HW217772   2.446   3.816   7.478
 5698SOL     OW17773   2.629   4.001   9.201
 5698SOL    HW117774   2.703   3.940   9.206
 5698SOL    HW217775   2.579   3.983   9.280
 5699SOL     OW17776   3.207   4.311   8.876
 5699SOL    HW117777   3.229   4.274   8.962
 5699SOL    HW217778   3.245   4.399   8.877
 5700SOL     OW17779   2.784   4.236   8.347
 5700SOL    HW117780   2.762   4.220   8.255
 5700SOL    HW217781   2.824   4.155   8.377
 5701SOL     OW17782   2.410   3.787   7.952
 5701SOL    HW117783   2.330   3.787   8.004
 5701SOL    HW217784   2.404   3.866   7.898
 5702SOL     OW17785   2.154   3.771   7.632
 5702SOL    HW117786   2.213   3.836   7.594
 5702SOL    HW217787   2.213   3.707   7.673
 5703SOL     OW17788   2.798   3.970   7.912
 5703SOL    HW117789   2.771   4.010   7.829
 5703SOL    HW217790   2.893   3.982   7.913
 5704SOL     OW17791   2.939   4.395   8.964
 5704SOL    HW117792   2.855   4.365   8.929
 5704SOL    HW217793   3.004   4.353   8.908
 5705SOL     OW17794   2.887   4.268   7.473
 5705SOL    HW117795   2.869   4.356   7.438
 5705SOL    HW217796   2.950   4.283   7.543
 5706SOL     OW17797   1.937   4.280   8.840
 5706SOL    HW117798   2.028   4.272   8.812
 5706SOL    HW217799   1.937   4.353   8.902
 5707SOL     OW17800   2.422   3.950   8.611
 5707SOL    HW117801   2.462   3.872   8.650
 5707SOL    HW217802   2.332   3.948   8.642
 5708SOL     OW17803   2.732   4.189   8.085
 5708SOL    HW117804   2.695   4.247   8.019
 5708SOL    HW217805   2.750   4.107   8.039
 5709SOL     OW17806   2.876   3.777   8.201
 5709SOL    HW117807   2.818   3.768   8.125
 5709SOL    HW217808   2.856   3.701   8.256
 5710SOL     OW17809   3.339   4.312   8.416
 5710SOL    HW117810   3.283   4.237   8.436
 5710SOL    HW217811   3.391   4.325   8.496
 5711SOL     OW17812   3.263   4.296   7.521
 5711SOL    HW117813   3.201   4.269   7.589
 5711SOL    HW217814   3.346   4.255   7.546
 5712SOL     OW17815   2.387   3.987   7.768
 5712SOL    HW117816   2.428   3.937   7.698
 5712SOL    HW217817   2.371   4.074   7.730
 5713SOL     OW17818   2.780   3.822   8.846
 5713SOL    HW117819   2.803   3.802   8.755
 5713SOL    HW217820   2.859   3.861   8.883
 5714SOL     OW17821   2.295   0.008   8.717
 5714SOL    HW117822   2.361   0.006   8.786
 5714SOL    HW217823   2.253   4.423   8.722
 5715SOL     OW17824   3.128   4.100   8.721
 5715SOL    HW117825   3.162   4.178   8.766
 5715SOL    HW217826   3.039   4.124   8.696
 5716SOL     OW17827   2.416   4.255   8.313
 5716SOL    HW117828   2.436   4.301   8.231
 5716SOL    HW217829   2.480   4.289   8.376
 5717SOL     OW17830   3.433   4.341   7.923
 5717SOL    HW117831   3.403   4.406   7.986
 5717SOL    HW217832   3.493   4.389   7.866
 5718SOL     OW17833   2.858   3.843   9.205
 5718SOL    HW117834   2.911   3.917   9.174
 5718SOL    HW217835   2.908   3.765   9.178
 5719SOL     OW17836   2.360   3.767   9.195
 5719SOL    HW117837   2.318   3.712   9.128
 5719SOL    HW217838   2.300   3.840   9.207
 5720SOL     OW17839   3.073   4.255   7.714
 5720SOL    HW117840   3.083   4.175   7.766
 5720SOL    HW217841   3.024   4.315   7.770
 5721SOL     OW17842   2.162   3.924   8.694
 5721SOL    HW117843   2.125   3.957   8.776
 5721SOL    HW217844   2.142   3.830   8.694
 5722SOL     OW17845   2.593   4.360   8.495
 5722SOL    HW117846   2.666   4.325   8.445
 5722SOL    HW217847   2.598   4.455   8.483
 5723SOL     OW17848   3.612   0.136   9.304
 5723SOL    HW117849   3.549   0.148   9.233
 5723SOL    HW217850   3.566   0.165   9.382
 5724SOL     OW17851   2.164   3.790   8.071
 5724SOL    HW117852   2.145   3.880   8.095
 5724SOL    HW217853   2.170   3.743   8.154
 5725SOL     OW17854   3.474   4.091   7.817
 5725SOL    HW117855   3.503   4.030   7.885
 5725SOL    HW217856   3.452   4.171   7.865
 5726SOL     OW17857   3.390   3.999   7.575
 5726SOL    HW117858   3.328   3.932   7.601
 5726SOL    HW217859   3.425   4.033   7.657
 5727SOL     OW17860   2.180   0.012   8.369
 5727SOL    HW117861   2.256   0.068   8.381
 5727SOL    HW217862   2.193   4.441   8.431
 5728SOL     OW17863   2.199   4.239   8.468
 5728SOL    HW117864   2.160   4.154   8.448
 5728SOL    HW217865   2.272   4.247   8.407
 5729SOL     OW17866   3.000   4.095   9.132
 5729SOL    HW117867   2.948   4.154   9.187
 5729SOL    HW217868   3.084   4.139   9.123
 5730SOL     OW17869   3.022   3.928   8.917
 5730SOL    HW117870   3.013   3.989   8.990
 5730SOL    HW217871   3.061   3.980   8.847
 5731SOL     OW17872   1.898   4.270   8.563
 5731SOL    HW117873   1.980   4.252   8.516
 5731SOL    HW217874   1.924   4.274   8.655
 5732SOL     OW17875   2.054   4.243   9.165
 5732SOL    HW117876   2.111   4.200   9.102
 5732SOL    HW217877   2.000   4.301   9.112
 5733SOL     OW17878   2.681   4.284   7.793
 5733SOL    HW117879   2.680   4.208   7.735
 5733SOL    HW217880   2.593   4.322   7.785
 5734SOL     OW17881   3.500   4.319   8.637
 5734SOL    HW117882   3.494   4.260   8.712
 5734SOL    HW217883   3.588   4.304   8.601
 5735SOL     OW17884   2.546   4.182   8.705
 5735SOL    HW117885   2.501   4.104   8.673
 5735SOL    HW217886   2.549   4.241   8.630
 5736SOL     OW17887   2.343   4.222   7.639
 5736SOL    HW117888   2.377   4.310   7.657
 5736SOL    HW217889   2.249   4.235   7.629
 5737SOL     OW17890   3.581   3.867   7.960
 5737SOL    HW117891   3.654   3.853   7.900
 5737SOL    HW217892   3.565   3.781   7.999
 5738SOL     OW17893   3.142   0.137   8.127
 5738SOL    HW117894   3.200   0.062   8.134
 5738SOL    HW217895   3.192   0.201   8.077
 5739SOL     OW17896   3.701   3.896   8.416
 5739SOL    HW117897   3.730   3.810   8.386
 5739SOL    HW217898   3.615   3.908   8.375
 5740SOL     OW17899   2.125   4.042   8.166
 5740SOL    HW117900   2.038   4.073   8.141
 5740SOL    HW217901   2.120   4.031   8.261
 5741SOL     OW17902   2.772   0.092   7.671
 5741SOL    HW117903   2.853   0.134   7.643
 5741SOL    HW217904   2.794   0.052   7.755
 5742SOL     OW17905   2.929   0.304   8.185
 5742SOL    HW117906   2.846   0.286   8.140
 5742SOL    HW217907   2.990   0.238   8.152
 5743SOL     OW17908   2.881   3.964   8.413
 5743SOL    HW117909   2.876   3.915   8.331
 5743SOL    HW217910   2.877   3.897   8.481
 5744SOL     OW17911   3.582   4.114   8.828
 5744SOL    HW117912   3.653   4.178   8.825
 5744SOL    HW217913   3.611   4.043   8.772
 5745SOL     OW17914   2.535   3.919   8.947
 5745SOL    HW117915   2.619   3.902   8.905
 5745SOL    HW217916   2.558   3.950   9.035
 5746SOL     OW17917   1.937   4.046   7.478
 5746SOL    HW117918   1.849   4.038   7.441
 5746SOL    HW217919   1.968   4.131   7.446
 5747SOL     OW17920   1.932   3.882   7.761
 5747SOL    HW117921   1.917   3.961   7.710
 5747SOL    HW217922   2.017   3.849   7.730
 5748SOL     OW17923   2.588   4.288   9.151
 5748SOL    HW117924   2.593   4.335   9.235
 5748SOL    HW217925   2.614   4.198   9.173
 5749SOL     OW17926   3.081   4.043   7.903
 5749SOL    HW117927   3.144   3.971   7.894
 5749SOL    HW217928   3.110   4.090   7.981
 5750SOL     OW17929   3.624   4.088   9.096
 5750SOL    HW117930   3.607   4.099   9.002
 5750SOL    HW217931   3.555   4.030   9.127
 5751SOL     OW17932   2.972   0.229   7.552
 5751SOL    HW117933   2.952   0.269   7.467
 5751SOL    HW217934   3.052   0.179   7.537
 5752SOL     OW17935   3.676   3.908   8.686
 5752SOL    HW117936   3.686   3.814   8.701
 5752SOL    HW217937   3.685   3.919   8.592
 5753SOL     OW17938   2.305   4.154   7.986
 5753SOL    HW117939   2.324   4.085   7.922
 5753SOL    HW217940   2.249   4.112   8.051
 5754SOL     OW17941   2.185   4.264   8.742
 5754SOL    HW117942   2.242   4.210   8.796
 5754SOL    HW217943   2.206   4.238   8.652
 5755SOL     OW17944   3.294   3.948   8.566
 5755SOL    HW117945   3.322   3.869   8.613
 5755SOL    HW217946   3.242   3.997   8.629
 5756SOL     OW17947   2.870   3.744   8.593
 5756SOL    HW117948   2.816   3.676   8.554
 5756SOL    HW217949   2.958   3.707   8.594
 5757SOL     OW17950   3.214   3.778   7.612
 5757SOL    HW117951   3.240   3.717   7.543
 5757SOL    HW217952   3.127   3.747   7.639
 5758SOL     OW17953   3.161   4.176   8.130
 5758SOL    HW117954   3.120   4.262   8.145
 5758SOL    HW217955   3.161   4.135   8.217
 5759SOL     OW17956   3.449   3.928   8.325
 5759SOL    HW117957   3.386   3.948   8.394
 5759SOL    HW217958   3.450   4.007   8.270
 5760SOL     OW17959   2.087   4.290   9.434
 5760SOL    HW117960   2.029   4.357   9.470
 5760SOL    HW217961   2.078   4.299   9.339
 5761SOL     OW17962   2.086   4.000  10.300
 5761SOL    HW117963   2.114   3.969  10.386
 5761SOL    HW217964   1.996   3.969  10.291
 5762SOL     OW17965   1.868   4.101   9.953
 5762SOL    HW117966   1.785   4.130   9.991
 5762SOL    HW217967   1.845   4.024   9.901
 5763SOL     OW17968   3.596   4.335   9.546
 5763SOL    HW117969   3.595   4.320   9.452
 5763SOL    HW217970   3.595   4.247   9.584
 5764SOL     OW17971   2.589   0.268   9.994
 5764SOL    HW117972   2.584   0.207  10.068
 5764SOL    HW217973   2.498   0.284   9.970
 5765SOL     OW17974   2.314   4.119  10.793
 5765SOL    HW117975   2.384   4.054  10.801
 5765SOL    HW217976   2.235   4.071  10.816
 5766SOL     OW17977   3.477   4.173  10.049
 5766SOL    HW117978   3.406   4.199   9.991
 5766SOL    HW217979   3.484   4.244  10.112
 5767SOL     OW17980   3.451   3.840  10.779
 5767SOL    HW117981   3.460   3.920  10.728
 5767SOL    HW217982   3.450   3.869  10.870
 5768SOL     OW17983   1.942   4.370   9.877
 5768SOL    HW117984   1.933   4.278   9.900
 5768SOL    HW217985   2.002   4.405   9.943
 5769SOL     OW17986   1.989   4.458  10.906
 5769SOL    HW117987   2.085   4.464  10.910
 5769SOL    HW217988   1.960   0.048  10.893
 5770SOL     OW17989   2.675   3.723   9.816
 5770SOL    HW117990   2.715   3.809   9.800
 5770SOL    HW217991   2.581   3.742   9.827
 5771SOL     OW17992   2.203   3.979   0.016
 5771SOL    HW117993   2.246   4.062   0.033
 5771SOL    HW217994   2.110   3.996   0.033
 5772SOL     OW17995   3.140   4.071  10.243
 5772SOL    HW117996   3.051   4.037  10.252
 5772SOL    HW217997   3.192   4.019  10.304
 5773SOL     OW17998   2.685   4.304  10.766
 5773SOL    HW117999   2.637   4.317  10.848
 5773SOL    HW218000   2.621   4.264  10.707
 5774SOL     OW18001   2.858   4.146  10.546
 5774SOL    HW118002   2.781   4.168  10.599
 5774SOL    HW218003   2.823   4.090  10.477
 5775SOL     OW18004   2.918   4.410   9.730
 5775SOL    HW118005   2.918   4.446   9.818
 5775SOL    HW218006   2.830   4.373   9.718
 5776SOL     OW18007   2.749   4.063   9.500
 5776SOL    HW118008   2.793   4.126   9.442
 5776SOL    HW218009   2.769   3.978   9.462
 5777SOL     OW18010   2.412   3.907  10.202
 5777SOL    HW118011   2.413   3.934  10.294
 5777SOL    HW218012   2.411   3.989  10.153
 5778SOL     OW18013   3.351   4.462  10.047
 5778SOL    HW118014   3.331   4.408  10.123
 5778SOL    HW218015   3.391   0.041  10.083
 5779SOL     OW18016   2.063   4.004  10.806
 5779SOL    HW118017   1.983   4.057  10.806
 5779SOL    HW218018   2.053   3.944  10.880
 5780SOL     OW18019   3.263   3.831   9.741
 5780SOL    HW118020   3.253   3.806   9.649
 5780SOL    HW218021   3.357   3.840   9.753
 5781SOL     OW18022   2.218   4.385   9.720
 5781SOL    HW118023   2.257   4.311   9.766
 5781SOL    HW218024   2.147   4.415   9.778
 5782SOL     OW18025   2.492   3.848   9.417
 5782SOL    HW118026   2.566   3.788   9.427
 5782SOL    HW218027   2.446   3.816   9.340
 5783SOL     OW18028   2.630   4.000  11.046
 5783SOL    HW118029   2.696   3.941  11.083
 5783SOL    HW218030   2.570   4.018   0.018
 5784SOL     OW18031   3.214   4.308  10.744
 5784SOL    HW118032   3.236   4.287  10.834
 5784SOL    HW218033   3.238   4.400  10.734
 5785SOL     OW18034   2.784   4.236  10.209
 5785SOL    HW118035   2.762   4.220  10.117
 5785SOL    HW218036   2.823   4.154  10.239
 5786SOL     OW18037   2.410   3.787   9.814
 5786SOL    HW118038   2.330   3.787   9.866
 5786SOL    HW218039   2.404   3.866   9.760
 5787SOL     OW18040   2.154   3.771   9.494
 5787SOL    HW118041   2.213   3.836   9.456
 5787SOL    HW218042   2.213   3.707   9.535
 5788SOL     OW18043   2.798   3.970   9.774
 5788SOL    HW118044   2.770   4.010   9.691
 5788SOL    HW218045   2.893   3.982   9.775
 5789SOL     OW18046   2.941   4.386  10.816
 5789SOL    HW118047   2.855   4.363  10.783
 5789SOL    HW218048   3.002   4.344  10.756
 5790SOL     OW18049   2.887   4.268   9.335
 5790SOL    HW118050   2.869   4.356   9.300
 5790SOL    HW218051   2.950   4.283   9.405
 5791SOL     OW18052   1.935   4.281  10.704
 5791SOL    HW118053   2.026   4.273  10.676
 5791SOL    HW218054   1.937   4.341  10.779
 5792SOL     OW18055   2.422   3.950  10.473
 5792SOL    HW118056   2.461   3.871  10.512
 5792SOL    HW218057   2.331   3.949  10.504
 5793SOL     OW18058   2.732   4.189   9.947
 5793SOL    HW118059   2.695   4.247   9.881
 5793SOL    HW218060   2.750   4.107   9.901
 5794SOL     OW18061   2.876   3.777  10.063
 5794SOL    HW118062   2.818   3.768   9.988
 5794SOL    HW218063   2.856   3.701  10.118
 5795SOL     OW18064   3.338   4.313  10.278
 5795SOL    HW118065   3.283   4.237  10.298
 5795SOL    HW218066   3.390   4.325  10.357
 5796SOL     OW18067   3.263   4.296   9.383
 5796SOL    HW118068   3.201   4.269   9.451
 5796SOL    HW218069   3.346   4.255   9.408
 5797SOL     OW18070   2.387   3.987   9.630
 5797SOL    HW118071   2.428   3.937   9.559
 5797SOL    HW218072   2.371   4.074   9.592
 5798SOL     OW18073   2.780   3.822  10.708
 5798SOL    HW118074   2.804   3.803  10.617
 5798SOL    HW218075   2.859   3.863  10.744
 5799SOL     OW18076   2.296   0.006  10.573
 5799SOL    HW118077   2.356   0.009  10.648
 5799SOL    HW218078   2.250   4.423  10.581
 5800SOL     OW18079   3.128   4.100  10.585
 5800SOL    HW118080   3.163   4.177  10.629
 5800SOL    HW218081   3.040   4.125  10.558
 5801SOL     OW18082   2.417   4.254  10.175
 5801SOL    HW118083   2.436   4.302  10.094
 5801SOL    HW218084   2.480   4.289  10.238
 5802SOL     OW18085   3.433   4.341   9.785
 5802SOL    HW118086   3.403   4.406   9.848
 5802SOL    HW218087   3.493   4.389   9.728
 5803SOL     OW18088   2.266   4.463  10.906
 5803SOL    HW118089   2.332   0.030  10.887
 5803SOL    HW218090   2.316   4.383  10.920
 5804SOL     OW18091   3.073   4.255   9.576
 5804SOL    HW118092   3.083   4.175   9.628
 5804SOL    HW218093   3.024   4.315   9.632
 5805SOL     OW18094   2.162   3.924  10.555
 5805SOL    HW118095   2.128   3.958  10.637
 5805SOL    HW218096   2.142   3.831  10.556
 5806SOL     OW18097   2.593   4.360  10.357
 5806SOL    HW118098   2.666   4.325  10.306
 5806SOL    HW218099   2.597   4.455  10.344
 5807SOL     OW18100   2.164   3.790   9.933
 5807SOL    HW118101   2.145   3.880   9.957
 5807SOL    HW218102   2.170   3.743  10.016
 5808SOL     OW18103   3.474   4.091   9.679
 5808SOL    HW118104   3.503   4.030   9.747
 5808SOL    HW218105   3.452   4.171   9.727
 5809SOL     OW18106   3.390   3.999   9.437
 5809SOL    HW118107   3.328   3.932   9.463
 5809SOL    HW218108   3.425   4.033   9.519
 5810SOL     OW18109   2.180   0.012  10.230
 5810SOL    HW118110   2.256   0.068  10.244
 5810SOL    HW218111   2.192   4.441  10.294
 5811SOL     OW18112   2.199   4.239  10.329
 5811SOL    HW118113   2.160   4.154  10.310
 5811SOL    HW218114   2.272   4.246  10.268
 5812SOL     OW18115   3.019   3.933  10.781
 5812SOL    HW118116   3.027   3.992  10.856
 5812SOL    HW218117   3.059   3.981  10.709
 5813SOL     OW18118   1.899   4.272  10.426
 5813SOL    HW118119   1.981   4.253  10.380
 5813SOL    HW218120   1.924   4.275  10.518
 5814SOL     OW18121   3.216   0.184  10.990
 5814SOL    HW118122   3.276   0.258  11.000
 5814SOL    HW218123   3.229   0.154  10.900
 5815SOL     OW18124   2.681   4.284   9.655
 5815SOL    HW118125   2.680   4.208   9.597
 5815SOL    HW218126   2.593   4.322   9.647
 5816SOL     OW18127   3.500   4.319  10.498
 5816SOL    HW118128   3.495   4.259  10.573
 5816SOL    HW218129   3.588   4.306  10.462
 5817SOL     OW18130   2.551   4.181  10.567
 5817SOL    HW118131   2.502   4.104  10.537
 5817SOL    HW218132   2.549   4.241  10.492
 5818SOL     OW18133   2.343   4.222   9.501
 5818SOL    HW118134   2.377   4.310   9.519
 5818SOL    HW218135   2.249   4.235   9.491
 5819SOL     OW18136   3.581   3.867   9.822
 5819SOL    HW118137   3.654   3.853   9.762
 5819SOL    HW218138   3.565   3.781   9.861
 5820SOL     OW18139   3.142   0.138   9.989
 5820SOL    HW118140   3.200   0.062   9.996
 5820SOL    HW218141   3.192   0.201   9.938
 5821SOL     OW18142   3.701   3.897  10.278
 5821SOL    HW118143   3.731   3.810  10.249
 5821SOL    HW218144   3.615   3.908  10.237
 5822SOL     OW18145   2.125   4.042  10.028
 5822SOL    HW118146   2.038   4.073  10.003
 5822SOL    HW218147   2.120   4.030  10.123
 5823SOL     OW18148   2.772   0.092   9.533
 5823SOL    HW118149   2.853   0.134   9.505
 5823SOL    HW218150   2.794   0.051   9.617
 5824SOL     OW18151   2.929   0.304  10.048
 5824SOL    HW118152   2.846   0.286  10.002
 5824SOL    HW218153   2.990   0.238  10.014
 5825SOL     OW18154   2.881   3.964  10.275
 5825SOL    HW118155   2.876   3.916  10.193
 5825SOL    HW218156   2.877   3.897  10.343
 5826SOL     OW18157   3.579   4.116  10.689
 5826SOL    HW118158   3.650   4.180  10.689
 5826SOL    HW218159   3.609   4.045  10.633
 5827SOL     OW18160   2.535   3.917  10.804
 5827SOL    HW118161   2.617   3.899  10.759
 5827SOL    HW218162   2.562   3.953  10.889
 5828SOL     OW18163   1.937   4.046   9.340
 5828SOL    HW118164   1.849   4.038   9.303
 5828SOL    HW218165   1.968   4.131   9.309
 5829SOL     OW18166   1.932   3.881   9.623
 5829SOL    HW118167   1.917   3.961   9.572
 5829SOL    HW218168   2.017   3.849   9.592
 5830SOL     OW18169   2.580   4.298  11.025
 5830SOL    HW118170   2.618   4.344  11.100
 5830SOL    HW218171   2.621   4.212  11.026
 5831SOL     OW18172   3.081   4.043   9.765
 5831SOL    HW118173   3.144   3.971   9.756
 5831SOL    HW218174   3.109   4.090   9.843
 5832SOL     OW18175   3.617   4.051  10.953
 5832SOL    HW118176   3.596   4.081  10.865
 5832SOL    HW218177   3.533   4.055  11.000
 5833SOL     OW18178   2.972   0.229   9.414
 5833SOL    HW118179   2.952   0.270   9.329
 5833SOL    HW218180   3.052   0.179   9.398
 5834SOL     OW18181   3.673   3.908  10.549
 5834SOL    HW118182   3.684   3.814  10.563
 5834SOL    HW218183   3.683   3.920  10.454
 5835SOL     OW18184   2.305   4.154   9.848
 5835SOL    HW118185   2.324   4.085   9.784
 5835SOL    HW218186   2.249   4.112   9.913
 5836SOL     OW18187   2.183   4.264  10.603
 5836SOL    HW118188   2.239   4.210  10.659
 5836SOL    HW218189   2.205   4.237  10.514
 5837SOL     OW18190   3.293   3.947  10.428
 5837SOL    HW118191   3.324   3.869  10.475
 5837SOL    HW218192   3.242   3.996  10.492
 5838SOL     OW18193   2.870   3.744  10.455
 5838SOL    HW118194   2.816   3.676  10.416
 5838SOL    HW218195   2.958   3.707  10.457
 5839SOL     OW18196   3.214   3.778   9.474
 5839SOL    HW118197   3.240   3.717   9.405
 5839SOL    HW218198   3.127   3.747   9.501
 5840SOL     OW18199   3.161   4.176   9.992
 5840SOL    HW118200   3.121   4.262  10.007
 5840SOL    HW218201   3.161   4.135  10.079
 5841SOL     OW18202   3.449   3.928  10.186
 5841SOL    HW118203   3.386   3.948  10.256
 5841SOL    HW218204   3.450   4.007  10.132
 5842SOL     OW18205   3.950   0.614   0.118
 5842SOL    HW118206   3.865   0.620   0.160
 5842SOL    HW218207   3.933   0.633   0.026
 5843SOL     OW18208   3.932   0.300   0.988
 5843SOL    HW118209   3.966   0.271   1.073
 5843SOL    HW218210   3.851   0.250   0.976
 5844SOL     OW18211   3.731   0.384   0.638
 5844SOL    HW118212   3.646   0.405   0.676
 5844SOL    HW218213   3.716   0.308   0.583
 5845SOL     OW18214   4.268   1.249   1.147
 5845SOL    HW118215   4.194   1.305   1.123
 5845SOL    HW218216   4.330   1.308   1.190
 5846SOL     OW18217   0.024   0.780   1.857
 5846SOL    HW118218   0.071   0.830   1.924
 5846SOL    HW218219   0.065   0.806   1.775
 5847SOL     OW18220   4.397   0.993   0.641
 5847SOL    HW118221   4.472   0.992   0.701
 5847SOL    HW218222   4.334   1.052   0.682
 5848SOL     OW18223   4.419   1.161   1.814
 5848SOL    HW118224   4.461   1.242   1.787
 5848SOL    HW218225   4.327   1.171   1.787
 5849SOL     OW18226   4.059   1.433   1.069
 5849SOL    HW118227   3.987   1.392   1.022
 5849SOL    HW218228   4.107   1.482   1.002
 5850SOL     OW18229   4.163   0.396   1.489
 5850SOL    HW118230   4.242   0.342   1.490
 5850SOL    HW218231   4.092   0.334   1.502
 5851SOL     OW18232   3.942   1.713   0.476
 5851SOL    HW118233   3.965   1.790   0.527
 5851SOL    HW218234   4.011   1.707   0.410
 5852SOL     OW18235   3.951   1.439   0.532
 5852SOL    HW118236   3.936   1.534   0.538
 5852SOL    HW218237   3.890   1.402   0.596
 5853SOL     OW18238   3.973   1.089   0.886
 5853SOL    HW118239   3.978   1.004   0.932
 5853SOL    HW218240   3.921   1.144   0.944
 5854SOL     OW18241   4.360   1.798   1.452
 5854SOL    HW118242   4.274   1.764   1.477
 5854SOL    HW218243   4.349   1.893   1.453
 5855SOL     OW18244   4.301   1.001   0.138
 5855SOL    HW118245   4.317   1.066   0.069
 5855SOL    HW218246   4.380   1.002   0.191
 5856SOL     OW18247   3.838   0.651   0.559
 5856SOL    HW118248   3.809   0.562   0.582
 5856SOL    HW218249   3.830   0.700   0.641
 5857SOL     OW18250   3.767   1.602   0.120
 5857SOL    HW118251   3.739   1.513   0.143
 5857SOL    HW218252   3.740   1.655   0.195
 5858SOL     OW18253   3.845   0.743   1.585
 5858SOL    HW118254   3.937   0.767   1.599
 5858SOL    HW218255   3.797   0.826   1.592
 5859SOL     OW18256   4.312   1.386   0.737
 5859SOL    HW118257   4.277   1.297   0.741
 5859SOL    HW218258   4.312   1.408   0.644
 5860SOL     OW18259   0.017   0.010   0.505
 5860SOL    HW118260   0.048   0.078   0.445
 5860SOL    HW218261   4.428   0.037   0.528
 5861SOL     OW18262   3.913   0.967   1.270
 5861SOL    HW118263   3.998   0.927   1.252
 5861SOL    HW218264   3.850   0.912   1.224
 5862SOL     OW18265   4.039   0.253   1.784
 5862SOL    HW118266   4.101   0.319   1.814
 5862SOL    HW218267   3.964   0.262   1.844
 5863SOL     OW18268   4.308   0.719   0.269
 5863SOL    HW118269   4.330   0.794   0.214
 5863SOL    HW218270   4.244   0.753   0.332
 5864SOL     OW18271   3.813   0.821   0.775
 5864SOL    HW118272   3.894   0.813   0.825
 5864SOL    HW218273   3.771   0.899   0.810
 5865SOL     OW18274   3.853   1.840   1.576
 5865SOL    HW118275   3.851   1.822   1.670
 5865SOL    HW218276   3.761   1.843   1.550
 5866SOL     OW18277   4.250   0.202   0.894
 5866SOL    HW118278   4.285   0.219   0.982
 5866SOL    HW218279   4.264   0.284   0.847
 5867SOL     OW18280   4.081   1.810   0.861
 5867SOL    HW118281   4.130   1.728   0.868
 5867SOL    HW218282   4.148   1.878   0.871
 5868SOL     OW18283   4.041   0.958   0.274
 5868SOL    HW118284   4.120   0.983   0.225
 5868SOL    HW218285   4.014   0.875   0.234
 5869SOL     OW18286   4.178   1.253   1.735
 5869SOL    HW118287   4.151   1.264   1.644
 5869SOL    HW218288   4.098   1.263   1.786
 5870SOL     OW18289   3.913   0.270   1.510
 5870SOL    HW118290   3.846   0.335   1.492
 5870SOL    HW218291   3.921   0.269   1.605
 5871SOL     OW18292   4.192   1.734   0.326
 5871SOL    HW118293   4.223   1.795   0.393
 5871SOL    HW218294   4.266   1.724   0.266
 5872SOL     OW18295   3.979   1.793   1.233
 5872SOL    HW118296   4.027   1.725   1.279
 5872SOL    HW218297   3.966   1.758   1.145
 5873SOL     OW18298   4.108   0.694   0.476
 5873SOL    HW118299   4.135   0.603   0.488
 5873SOL    HW218300   4.015   0.695   0.498
 5874SOL     OW18301   4.343   0.132   0.103
 5874SOL    HW118302   4.427   0.096   0.134
 5874SOL    HW218303   4.321   0.078   0.027
 5875SOL     OW18304   0.019   1.423   0.914
 5875SOL    HW118305   0.087   1.460   0.857
 5875SOL    HW218306   4.445   1.407   0.855
 5876SOL     OW18307   4.272   0.107   0.537
 5876SOL    HW118308   4.187   0.071   0.563
 5876SOL    HW218309   4.253   0.157   0.457
 5877SOL     OW18310   4.012   0.056   0.198
 5877SOL    HW118311   4.077   0.110   0.153
 5877SOL    HW218312   4.062   0.007   0.263
 5878SOL     OW18313   0.322   0.680   1.456
 5878SOL    HW118314   0.248   0.620   1.445
 5878SOL    HW218315   0.399   0.626   1.438
 5879SOL     OW18316   4.190   1.145   0.737
 5879SOL    HW118317   4.120   1.127   0.800
 5879SOL    HW218318   4.151   1.129   0.652
 5880SOL     OW18319   3.805   0.551   1.394
 5880SOL    HW118320   3.895   0.554   1.363
 5880SOL    HW218321   3.798   0.623   1.457
 5881SOL     OW18322   4.295   0.235   1.158
 5881SOL    HW118323   4.306   0.142   1.179
 5881SOL    HW218324   4.207   0.257   1.188
 5882SOL     OW18325   4.235   1.401   0.190
 5882SOL    HW118326   4.150   1.386   0.230
 5882SOL    HW218327   4.220   1.386   0.096
 5883SOL     OW18328   4.245   0.266   0.318
 5883SOL    HW118329   4.286   0.213   0.250
 5883SOL    HW218330   4.226   0.350   0.277
 5884SOL     OW18331   4.139   0.813   1.249
 5884SOL    HW118332   4.207   0.824   1.317
 5884SOL    HW218333   4.105   0.725   1.264
 5885SOL     OW18334   3.792   1.572   1.351
 5885SOL    HW118335   3.759   1.645   1.297
 5885SOL    HW218336   3.888   1.580   1.345
 5886SOL     OW18337   4.074   1.113   0.496
 5886SOL    HW118338   4.074   1.187   0.435
 5886SOL    HW218339   4.069   1.035   0.441
 5887SOL     OW18340   4.301   0.538   0.862
 5887SOL    HW118341   4.302   0.605   0.793
 5887SOL    HW218342   4.362   0.571   0.928
 5888SOL     OW18343   4.073   1.531   1.318
 5888SOL    HW118344   4.066   1.488   1.233
 5888SOL    HW218345   4.167   1.534   1.336
 5889SOL     OW18346   4.136   0.742   1.604
 5889SOL    HW118347   4.194   0.788   1.543
 5889SOL    HW218348   4.182   0.660   1.623
 5890SOL     OW18349   4.237   0.069   1.728
 5890SOL    HW118350   4.203   4.487   1.692
 5890SOL    HW218351   4.158   0.122   1.745
 5891SOL     OW18352   4.291   0.887   1.026
 5891SOL    HW118353   4.323   0.976   1.039
 5891SOL    HW218354   4.243   0.866   1.106
 5892SOL     OW18355   4.014   0.238   1.240
 5892SOL    HW118356   3.972   0.250   1.325
 5892SOL    HW218357   4.048   0.148   1.242
 5893SOL     OW18358   3.770   1.310   1.277
 5893SOL    HW118359   3.803   1.257   1.349
 5893SOL    HW218360   3.777   1.400   1.309
 5894SOL     OW18361   4.018   0.060   0.655
 5894SOL    HW118362   4.010   0.155   0.660
 5894SOL    HW218363   4.032   0.032   0.746
 5895SOL     OW18364   4.077   0.916   1.807
 5895SOL    HW118365   4.158   0.931   1.855
 5895SOL    HW218366   4.099   0.852   1.740
 5896SOL     OW18367   4.032   0.809   0.946
 5896SOL    HW118368   4.123   0.837   0.946
 5896SOL    HW218369   4.034   0.719   0.980
 5897SOL     OW18370   4.067   0.530   1.010
 5897SOL    HW118371   4.024   0.447   0.991
 5897SOL    HW218372   4.144   0.530   0.954
 5898SOL     OW18373   3.731   1.328   0.195
 5898SOL    HW118374   3.644   1.339   0.157
 5898SOL    HW218375   3.732   1.237   0.225
 5899SOL     OW18376   3.815   1.789   0.937
 5899SOL    HW118377   3.785   1.709   0.894
 5899SOL    HW218378   3.905   1.801   0.906
 5900SOL     OW18379   4.232   1.582   0.906
 5900SOL    HW118380   4.317   1.617   0.932
 5900SOL    HW218381   4.253   1.510   0.846
 5901SOL     OW18382   3.758   0.543   1.117
 5901SOL    HW118383   3.835   0.519   1.066
 5901SOL    HW218384   3.790   0.548   1.207
 5902SOL     OW18385   3.909   0.518   1.720
 5902SOL    HW118386   3.982   0.497   1.662
 5902SOL    HW218387   3.866   0.593   1.679
 5903SOL     OW18388   0.029   0.549   0.268
 5903SOL    HW118389   0.017   0.483   0.336
 5903SOL    HW218390   4.465   0.617   0.289
 5904SOL     OW18391   3.972   1.553   1.730
 5904SOL    HW118392   3.944   1.616   1.796
 5904SOL    HW218393   3.968   1.469   1.774
 5905SOL     OW18394   4.191   0.490   0.177
 5905SOL    HW118395   4.247   0.562   0.205
 5905SOL    HW218396   4.103   0.529   0.172
 5906SOL     OW18397   3.872   1.140   1.472
 5906SOL    HW118398   3.875   1.086   1.551
 5906SOL    HW218399   3.888   1.078   1.401
 5907SOL     OW18400   3.808   1.268   1.013
 5907SOL    HW118401   3.793   1.278   1.108
 5907SOL    HW218402   3.736   1.212   0.984
 5908SOL     OW18403   4.390   1.652   1.702
 5908SOL    HW118404   4.356   1.738   1.725
 5908SOL    HW218405   4.438   1.666   1.621
 5909SOL     OW18406   3.860   1.797   1.843
 5909SOL    HW118407   3.809   1.732   1.892
 5909SOL    HW218408   3.908   1.845   1.911
 5910SOL     OW18409   3.990   0.327   0.717
 5910SOL    HW118410   3.903   0.358   0.692
 5910SOL    HW218411   3.984   0.315   0.812
 5911SOL     OW18412   4.089   1.305   1.491
 5911SOL    HW118413   4.071   1.382   1.436
 5911SOL    HW218414   4.016   1.246   1.474
 5912SOL     OW18415   4.324   1.490   0.482
 5912SOL    HW118416   4.345   1.434   0.407
 5912SOL    HW218417   4.258   1.550   0.449
 5913SOL     OW18418   3.989   1.343   0.287
 5913SOL    HW118419   3.900   1.343   0.251
 5913SOL    HW218420   3.980   1.381   0.374
 5914SOL     OW18421   3.835   1.020   1.719
 5914SOL    HW118422   3.759   0.997   1.772
 5914SOL    HW218423   3.910   0.983   1.767
 5915SOL     OW18424   4.372   0.205   1.489
 5915SOL    HW118425   4.462   0.219   1.459
 5915SOL    HW218426   4.381   0.180   1.581
 5916SOL     OW18427   3.801   0.346   0.053
 5916SOL    HW118428   3.724   0.310   0.008
 5916SOL    HW218429   3.819   0.428   0.007
 5917SOL     OW18430   3.790   0.179   0.326
 5917SOL    HW118431   3.784   0.246   0.258
 5917SOL    HW218432   3.863   0.123   0.298
 5918SOL     OW18433   4.337   0.840   1.434
 5918SOL    HW118434   4.380   0.924   1.419
 5918SOL    HW218435   4.409   0.778   1.447
 5919SOL     OW18436   4.400   0.559   1.732
 5919SOL    HW118437   4.425   0.634   1.786
 5919SOL    HW218438   4.484   0.517   1.709
 5920SOL     OW18439   4.108   1.739   1.560
 5920SOL    HW118440   4.022   1.779   1.548
 5920SOL    HW218441   4.090   1.657   1.606
 5921SOL     OW18442   4.311   0.731   0.664
 5921SOL    HW118443   4.352   0.817   0.655
 5921SOL    HW218444   4.239   0.732   0.600
 5922SOL     OW18445   3.944   1.307   1.855
 5922SOL    HW118446   3.878   1.244   1.827
 5922SOL    HW218447   3.929   1.318   1.949
 5923SOL     OW18448   3.807   1.234   0.665
 5923SOL    HW118449   3.811   1.185   0.747
 5923SOL    HW218450   3.878   1.198   0.612
 5924SOL     OW18451   4.413   1.387   1.654
 5924SOL    HW118452   4.324   1.353   1.654
 5924SOL    HW218453   4.404   1.480   1.671
 5925SOL     OW18454   4.162   0.433   0.528
 5925SOL    HW118455   4.181   0.360   0.469
 5925SOL    HW218456   4.108   0.394   0.597
 5926SOL     OW18457   4.052   0.555   1.289
 5926SOL    HW118458   4.105   0.496   1.343
 5926SOL    HW218459   4.072   0.528   1.199
 5927SOL     OW18460   0.036   1.595   0.686
 5927SOL    HW118461   0.061   1.653   0.614
 5927SOL    HW218462   4.464   1.543   0.651
 5928SOL     OW18463   3.766   1.072   0.300
 5928SOL    HW118464   3.862   1.065   0.296
 5928SOL    HW218465   3.738   0.984   0.327
 5929SOL     OW18466   3.955   0.627   1.981
 5929SOL    HW118467   3.867   0.620   2.020
 5929SOL    HW218468   3.944   0.595   1.892
 5930SOL     OW18469   3.931   0.300   2.851
 5930SOL    HW118470   3.965   0.271   2.935
 5930SOL    HW218471   3.851   0.250   2.838
 5931SOL     OW18472   3.732   0.385   2.501
 5931SOL    HW118473   3.645   0.404   2.537
 5931SOL    HW218474   3.718   0.310   2.444
 5932SOL     OW18475   4.269   1.249   3.007
 5932SOL    HW118476   4.194   1.305   2.986
 5932SOL    HW218477   4.330   1.308   3.053
 5933SOL     OW18478   0.024   0.780   3.719
 5933SOL    HW118479   0.071   0.831   3.786
 5933SOL    HW218480   0.065   0.805   3.636
 5934SOL     OW18481   4.398   0.995   2.503
 5934SOL    HW118482   4.471   0.989   2.565
 5934SOL    HW218483   4.335   1.053   2.545
 5935SOL     OW18484   4.419   1.161   3.676
 5935SOL    HW118485   4.461   1.242   3.649
 5935SOL    HW218486   4.327   1.171   3.649
 5936SOL     OW18487   4.059   1.433   2.931
 5936SOL    HW118488   3.987   1.391   2.884
 5936SOL    HW218489   4.107   1.481   2.863
 5937SOL     OW18490   4.163   0.396   3.351
 5937SOL    HW118491   4.242   0.342   3.351
 5937SOL    HW218492   4.092   0.334   3.363
 5938SOL     OW18493   3.943   1.714   2.337
 5938SOL    HW118494   3.965   1.790   2.390
 5938SOL    HW218495   4.015   1.706   2.274
 5939SOL     OW18496   3.953   1.440   2.396
 5939SOL    HW118497   3.936   1.534   2.402
 5939SOL    HW218498   3.893   1.400   2.458
 5940SOL     OW18499   3.974   1.089   2.749
 5940SOL    HW118500   3.978   1.004   2.794
 5940SOL    HW218501   3.921   1.144   2.806
 5941SOL     OW18502   4.360   1.798   3.315
 5941SOL    HW118503   4.274   1.764   3.339
 5941SOL    HW218504   4.349   1.893   3.315
 5942SOL     OW18505   4.310   0.984   1.999
 5942SOL    HW118506   4.339   1.038   1.925
 5942SOL    HW218507   4.378   0.997   2.065
 5943SOL     OW18508   3.839   0.651   2.421
 5943SOL    HW118509   3.810   0.563   2.443
 5943SOL    HW218510   3.831   0.700   2.503
 5944SOL     OW18511   3.755   1.596   1.986
 5944SOL    HW118512   3.737   1.504   2.005
 5944SOL    HW218513   3.730   1.643   2.066
 5945SOL     OW18514   3.845   0.743   3.447
 5945SOL    HW118515   3.937   0.767   3.461
 5945SOL    HW218516   3.797   0.826   3.454
 5946SOL     OW18517   4.313   1.386   2.599
 5946SOL    HW118518   4.277   1.298   2.603
 5946SOL    HW218519   4.312   1.408   2.506
 5947SOL     OW18520   0.019   0.019   2.376
 5947SOL    HW118521   0.048   0.081   2.309
 5947SOL    HW218522   4.428   0.042   2.393
 5948SOL     OW18523   3.913   0.967   3.132
 5948SOL    HW118524   3.998   0.927   3.114
 5948SOL    HW218525   3.850   0.912   3.086
 5949SOL     OW18526   4.039   0.253   3.646
 5949SOL    HW118527   4.101   0.320   3.676
 5949SOL    HW218528   3.964   0.262   3.706
 5950SOL     OW18529   4.312   0.729   2.132
 5950SOL    HW118530   4.311   0.805   2.074
 5950SOL    HW218531   4.244   0.747   2.196
 5951SOL     OW18532   3.813   0.820   2.638
 5951SOL    HW118533   3.894   0.812   2.687
 5951SOL    HW218534   3.771   0.899   2.672
 5952SOL     OW18535   3.853   1.841   3.438
 5952SOL    HW118536   3.851   1.822   3.532
 5952SOL    HW218537   3.761   1.842   3.412
 5953SOL     OW18538   4.248   0.202   2.758
 5953SOL    HW118539   4.285   0.219   2.844
 5953SOL    HW218540   4.264   0.282   2.708
 5954SOL     OW18541   4.081   1.810   2.722
 5954SOL    HW118542   4.130   1.728   2.730
 5954SOL    HW218543   4.148   1.878   2.734
 5955SOL     OW18544   4.044   0.957   2.111
 5955SOL    HW118545   4.126   0.975   2.065
 5955SOL    HW218546   4.013   0.874   2.073
 5956SOL     OW18547   4.179   1.253   3.597
 5956SOL    HW118548   4.151   1.264   3.506
 5956SOL    HW218549   4.098   1.263   3.648
 5957SOL     OW18550   3.913   0.269   3.372
 5957SOL    HW118551   3.846   0.335   3.353
 5957SOL    HW218552   3.921   0.269   3.467
 5958SOL     OW18553   4.192   1.735   2.187
 5958SOL    HW118554   4.224   1.794   2.255
 5958SOL    HW218555   4.262   1.734   2.122
 5959SOL     OW18556   3.979   1.793   3.095
 5959SOL    HW118557   4.027   1.724   3.141
 5959SOL    HW218558   3.965   1.757   3.007
 5960SOL     OW18559   4.111   0.694   2.336
 5960SOL    HW118560   4.137   0.603   2.349
 5960SOL    HW218561   4.017   0.696   2.357
 5961SOL     OW18562   4.327   0.122   1.979
 5961SOL    HW118563   4.414   0.083   1.992
 5961SOL    HW218564   4.304   0.099   1.889
 5962SOL     OW18565   0.018   1.424   2.776
 5962SOL    HW118566   0.087   1.458   2.720
 5962SOL    HW218567   4.445   1.408   2.717
 5963SOL     OW18568   4.271   0.107   2.400
 5963SOL    HW118569   4.186   0.067   2.420
 5963SOL    HW218570   4.255   0.158   2.321
 5964SOL     OW18571   4.023   0.073   2.055
 5964SOL    HW118572   4.103   0.123   2.037
 5964SOL    HW218573   4.052   4.500   2.109
 5965SOL     OW18574   0.322   0.680   3.319
 5965SOL    HW118575   0.248   0.621   3.307
 5965SOL    HW218576   0.399   0.626   3.300
 5966SOL     OW18577   4.189   1.145   2.597
 5966SOL    HW118578   4.120   1.127   2.660
 5966SOL    HW218579   4.150   1.127   2.512
 5967SOL     OW18580   3.805   0.551   3.256
 5967SOL    HW118581   3.895   0.554   3.225
 5967SOL    HW218582   3.798   0.623   3.319
 5968SOL     OW18583   4.296   0.236   3.021
 5968SOL    HW118584   4.306   0.142   3.040
 5968SOL    HW218585   4.207   0.257   3.050
 5969SOL     OW18586   4.230   1.386   2.034
 5969SOL    HW118587   4.146   1.372   2.077
 5969SOL    HW218588   4.208   1.403   1.943
 5970SOL     OW18589   4.246   0.270   2.185
 5970SOL    HW118590   4.285   0.214   2.118
 5970SOL    HW218591   4.226   0.352   2.140
 5971SOL     OW18592   4.139   0.813   3.111
 5971SOL    HW118593   4.207   0.824   3.179
 5971SOL    HW218594   4.105   0.725   3.125
 5972SOL     OW18595   3.792   1.572   3.213
 5972SOL    HW118596   3.759   1.644   3.159
 5972SOL    HW218597   3.887   1.580   3.207
 5973SOL     OW18598   4.074   1.107   2.353
 5973SOL    HW118599   4.076   1.180   2.290
 5973SOL    HW218600   4.073   1.029   2.298
 5974SOL     OW18601   4.300   0.539   2.725
 5974SOL    HW118602   4.301   0.605   2.655
 5974SOL    HW218603   4.362   0.572   2.790
 5975SOL     OW18604   4.073   1.532   3.180
 5975SOL    HW118605   4.066   1.488   3.095
 5975SOL    HW218606   4.167   1.534   3.198
 5976SOL     OW18607   4.136   0.742   3.466
 5976SOL    HW118608   4.194   0.788   3.405
 5976SOL    HW218609   4.182   0.660   3.485
 5977SOL     OW18610   4.237   0.069   3.590
 5977SOL    HW118611   4.203   4.487   3.554
 5977SOL    HW218612   4.159   0.122   3.608
 5978SOL     OW18613   4.292   0.887   2.888
 5978SOL    HW118614   4.323   0.976   2.902
 5978SOL    HW218615   4.243   0.866   2.968
 5979SOL     OW18616   4.014   0.238   3.102
 5979SOL    HW118617   3.972   0.249   3.187
 5979SOL    HW218618   4.048   0.148   3.104
 5980SOL     OW18619   3.771   1.310   3.139
 5980SOL    HW118620   3.803   1.257   3.211
 5980SOL    HW218621   3.777   1.400   3.171
 5981SOL     OW18622   4.013   0.058   2.519
 5981SOL    HW118623   4.009   0.153   2.521
 5981SOL    HW218624   4.030   0.032   2.610
 5982SOL     OW18625   4.077   0.916   3.669
 5982SOL    HW118626   4.159   0.931   3.717
 5982SOL    HW218627   4.099   0.852   3.602
 5983SOL     OW18628   4.032   0.809   2.809
 5983SOL    HW118629   4.124   0.836   2.808
 5983SOL    HW218630   4.034   0.719   2.841
 5984SOL     OW18631   4.067   0.530   2.872
 5984SOL    HW118632   4.023   0.447   2.853
 5984SOL    HW218633   4.144   0.530   2.816
 5985SOL     OW18634   3.729   1.322   2.057
 5985SOL    HW118635   3.642   1.336   2.019
 5985SOL    HW218636   3.727   1.232   2.091
 5986SOL     OW18637   3.815   1.789   2.799
 5986SOL    HW118638   3.785   1.709   2.756
 5986SOL    HW218639   3.905   1.801   2.768
 5987SOL     OW18640   4.232   1.582   2.767
 5987SOL    HW118641   4.317   1.617   2.794
 5987SOL    HW218642   4.253   1.510   2.708
 5988SOL     OW18643   3.757   0.543   2.979
 5988SOL    HW118644   3.834   0.519   2.928
 5988SOL    HW218645   3.790   0.548   3.069
 5989SOL     OW18646   3.909   0.518   3.582
 5989SOL    HW118647   3.982   0.497   3.524
 5989SOL    HW218648   3.866   0.593   3.541
 5990SOL     OW18649   0.031   0.553   2.126
 5990SOL    HW118650   0.020   0.483   2.191
 5990SOL    HW218651   4.464   0.617   2.149
 5991SOL     OW18652   3.972   1.553   3.592
 5991SOL    HW118653   3.944   1.616   3.658
 5991SOL    HW218654   3.968   1.469   3.636
 5992SOL     OW18655   4.192   0.494   2.047
 5992SOL    HW118656   4.249   0.568   2.068
 5992SOL    HW218657   4.105   0.533   2.037
 5993SOL     OW18658   3.872   1.140   3.334
 5993SOL    HW118659   3.874   1.086   3.413
 5993SOL    HW218660   3.888   1.078   3.263
 5994SOL     OW18661   3.808   1.268   2.875
 5994SOL    HW118662   3.794   1.278   2.969
 5994SOL    HW218663   3.736   1.213   2.846
 5995SOL     OW18664   4.390   1.652   3.564
 5995SOL    HW118665   4.356   1.738   3.587
 5995SOL    HW218666   4.438   1.666   3.483
 5996SOL     OW18667   3.860   1.797   3.706
 5996SOL    HW118668   3.809   1.732   3.754
 5996SOL    HW218669   3.908   1.845   3.773
 5997SOL     OW18670   3.990   0.327   2.580
 5997SOL    HW118671   3.903   0.359   2.555
 5997SOL    HW218672   3.984   0.315   2.675
 5998SOL     OW18673   4.089   1.305   3.352
 5998SOL    HW118674   4.071   1.382   3.298
 5998SOL    HW218675   4.016   1.246   3.336
 5999SOL     OW18676   4.325   1.490   2.343
 5999SOL    HW118677   4.343   1.431   2.270
 5999SOL    HW218678   4.260   1.551   2.309
 6000SOL     OW18679   3.983   1.350   2.147
 6000SOL    HW118680   3.890   1.346   2.125
 6000SOL    HW218681   3.985   1.385   2.236
 6001SOL     OW18682   3.835   1.020   3.581
 6001SOL    HW118683   3.759   0.997   3.634
 6001SOL    HW218684   3.910   0.983   3.629
 6002SOL     OW18685   4.372   0.205   3.351
 6002SOL    HW118686   4.462   0.219   3.321
 6002SOL    HW218687   4.382   0.180   3.443
 6003SOL     OW18688   3.805   0.342   1.909
 6003SOL    HW118689   3.733   0.290   1.873
 6003SOL    HW218690   3.819   0.410   1.843
 6004SOL     OW18691   3.789   0.180   2.183
 6004SOL    HW118692   3.787   0.247   2.115
 6004SOL    HW218693   3.865   0.126   2.161
 6005SOL     OW18694   4.337   0.840   3.296
 6005SOL    HW118695   4.380   0.924   3.281
 6005SOL    HW218696   4.409   0.778   3.309
 6006SOL     OW18697   4.400   0.558   3.594
 6006SOL    HW118698   4.425   0.634   3.648
 6006SOL    HW218699   4.484   0.517   3.571
 6007SOL     OW18700   4.108   1.739   3.422
 6007SOL    HW118701   4.022   1.779   3.410
 6007SOL    HW218702   4.090   1.657   3.468
 6008SOL     OW18703   4.310   0.732   2.527
 6008SOL    HW118704   4.352   0.817   2.515
 6008SOL    HW218705   4.240   0.731   2.462
 6009SOL     OW18706   3.944   1.307   3.717
 6009SOL    HW118707   3.878   1.244   3.689
 6009SOL    HW218708   3.929   1.318   3.811
 6010SOL     OW18709   3.808   1.235   2.526
 6010SOL    HW118710   3.810   1.186   2.608
 6010SOL    HW218711   3.877   1.196   2.473
 6011SOL     OW18712   4.413   1.387   3.516
 6011SOL    HW118713   4.324   1.353   3.516
 6011SOL    HW218714   4.403   1.481   3.533
 6012SOL     OW18715   4.163   0.434   2.393
 6012SOL    HW118716   4.183   0.364   2.331
 6012SOL    HW218717   4.109   0.393   2.460
 6013SOL     OW18718   4.052   0.555   3.151
 6013SOL    HW118719   4.105   0.496   3.205
 6013SOL    HW218720   4.071   0.528   3.061
 6014SOL     OW18721   0.037   1.596   2.547
 6014SOL    HW118722   0.058   1.654   2.474
 6014SOL    HW218723   4.465   1.542   2.515
 6015SOL     OW18724   3.768   1.072   2.167
 6015SOL    HW118725   3.862   1.062   2.150
 6015SOL    HW218726   3.738   0.985   2.190
 6016SOL     OW18727   3.955   0.627   3.843
 6016SOL    HW118728   3.867   0.620   3.882
 6016SOL    HW218729   3.944   0.595   3.754
 6017SOL     OW18730   3.931   0.300   4.712
 6017SOL    HW118731   3.965   0.271   4.797
 6017SOL    HW218732   3.851   0.250   4.700
 6018SOL     OW18733   3.732   0.385   4.363
 6018SOL    HW118734   3.645   0.404   4.399
 6018SOL    HW218735   3.717   0.310   4.306
 6019SOL     OW18736   4.270   1.249   4.869
 6019SOL    HW118737   4.194   1.304   4.847
 6019SOL    HW218738   4.330   1.308   4.915
 6020SOL     OW18739   0.024   0.780   5.581
 6020SOL    HW118740   0.071   0.831   5.647
 6020SOL    HW218741   0.064   0.805   5.498
 6021SOL     OW18742   4.399   0.995   4.364
 6021SOL    HW118743   4.470   0.988   4.428
 6021SOL    HW218744   4.335   1.053   4.407
 6022SOL     OW18745   4.418   1.161   5.538
 6022SOL    HW118746   4.461   1.242   5.510
 6022SOL    HW218747   4.327   1.171   5.511
 6023SOL     OW18748   4.059   1.433   4.793
 6023SOL    HW118749   3.987   1.391   4.747
 6023SOL    HW218750   4.106   1.481   4.725
 6024SOL     OW18751   4.163   0.396   5.213
 6024SOL    HW118752   4.242   0.342   5.214
 6024SOL    HW218753   4.092   0.334   5.225
 6025SOL     OW18754   3.943   1.714   4.199
 6025SOL    HW118755   3.965   1.790   4.252
 6025SOL    HW218756   4.015   1.706   4.136
 6026SOL     OW18757   3.954   1.440   4.258
 6026SOL    HW118758   3.935   1.534   4.265
 6026SOL    HW218759   3.893   1.399   4.320
 6027SOL     OW18760   3.975   1.089   4.611
 6027SOL    HW118761   3.977   1.004   4.656
 6027SOL    HW218762   3.921   1.144   4.667
 6028SOL     OW18763   4.360   1.798   5.177
 6028SOL    HW118764   4.274   1.763   5.201
 6028SOL    HW218765   4.349   1.893   5.177
 6029SOL     OW18766   4.310   0.984   3.861
 6029SOL    HW118767   4.339   1.038   3.787
 6029SOL    HW218768   4.378   0.997   3.927
 6030SOL     OW18769   3.839   0.651   4.284
 6030SOL    HW118770   3.810   0.563   4.305
 6030SOL    HW218771   3.830   0.700   4.365
 6031SOL     OW18772   3.755   1.596   3.848
 6031SOL    HW118773   3.737   1.504   3.867
 6031SOL    HW218774   3.730   1.643   3.928
 6032SOL     OW18775   3.845   0.743   5.310
 6032SOL    HW118776   3.937   0.767   5.323
 6032SOL    HW218777   3.797   0.826   5.315
 6033SOL     OW18778   4.313   1.386   4.461
 6033SOL    HW118779   4.277   1.298   4.465
 6033SOL    HW218780   4.313   1.408   4.368
 6034SOL     OW18781   0.020   0.019   4.238
 6034SOL    HW118782   0.048   0.081   4.171
 6034SOL    HW218783   4.428   0.043   4.255
 6035SOL     OW18784   3.913   0.967   4.996
 6035SOL    HW118785   3.998   0.926   4.976
 6035SOL    HW218786   3.850   0.914   4.947
 6036SOL     OW18787   4.039   0.253   5.509
 6036SOL    HW118788   4.101   0.319   5.538
 6036SOL    HW218789   3.964   0.262   5.568
 6037SOL     OW18790   4.312   0.729   3.994
 6037SOL    HW118791   4.311   0.805   3.936
 6037SOL    HW218792   4.244   0.747   4.058
 6038SOL     OW18793   3.813   0.820   4.499
 6038SOL    HW118794   3.894   0.813   4.550
 6038SOL    HW218795   3.770   0.898   4.534
 6039SOL     OW18796   3.853   1.840   5.300
 6039SOL    HW118797   3.850   1.822   5.394
 6039SOL    HW218798   3.761   1.843   5.273
 6040SOL     OW18799   4.248   0.201   4.620
 6040SOL    HW118800   4.286   0.219   4.706
 6040SOL    HW218801   4.264   0.282   4.570
 6041SOL     OW18802   4.081   1.810   4.584
 6041SOL    HW118803   4.129   1.727   4.592
 6041SOL    HW218804   4.148   1.878   4.596
 6042SOL     OW18805   4.044   0.957   3.973
 6042SOL    HW118806   4.126   0.975   3.927
 6042SOL    HW218807   4.013   0.874   3.935
 6043SOL     OW18808   4.178   1.253   5.459
 6043SOL    HW118809   4.151   1.264   5.368
 6043SOL    HW218810   4.098   1.263   5.509
 6044SOL     OW18811   3.913   0.269   5.234
 6044SOL    HW118812   3.846   0.335   5.215
 6044SOL    HW218813   3.921   0.269   5.329
 6045SOL     OW18814   4.192   1.735   4.049
 6045SOL    HW118815   4.223   1.795   4.117
 6045SOL    HW218816   4.263   1.734   3.984
 6046SOL     OW18817   3.981   1.793   4.957
 6046SOL    HW118818   4.027   1.724   5.003
 6046SOL    HW218819   3.964   1.757   4.870
 6047SOL     OW18820   4.111   0.694   4.198
 6047SOL    HW118821   4.137   0.603   4.211
 6047SOL    HW218822   4.017   0.696   4.219
 6048SOL     OW18823   4.328   0.122   3.841
 6048SOL    HW118824   4.414   0.082   3.854
 6048SOL    HW218825   4.304   0.099   3.751
 6049SOL     OW18826   0.018   1.425   4.638
 6049SOL    HW118827   0.088   1.458   4.581
 6049SOL    HW218828   4.445   1.408   4.580
 6050SOL     OW18829   4.271   0.107   4.262
 6050SOL    HW118830   4.186   0.067   4.282
 6050SOL    HW218831   4.255   0.158   4.183
 6051SOL     OW18832   4.023   0.072   3.917
 6051SOL    HW118833   4.102   0.123   3.899
 6051SOL    HW218834   4.053   4.500   3.972
 6052SOL     OW18835   0.322   0.680   5.181
 6052SOL    HW118836   0.248   0.621   5.169
 6052SOL    HW218837   0.399   0.626   5.161
 6053SOL     OW18838   4.190   1.145   4.459
 6053SOL    HW118839   4.120   1.127   4.522
 6053SOL    HW218840   4.150   1.127   4.374
 6054SOL     OW18841   3.805   0.551   5.118
 6054SOL    HW118842   3.895   0.554   5.087
 6054SOL    HW218843   3.798   0.623   5.181
 6055SOL     OW18844   4.296   0.236   4.883
 6055SOL    HW118845   4.306   0.142   4.902
 6055SOL    HW218846   4.207   0.257   4.912
 6056SOL     OW18847   4.230   1.387   3.896
 6056SOL    HW118848   4.146   1.372   3.939
 6056SOL    HW218849   4.208   1.403   3.805
 6057SOL     OW18850   4.246   0.270   4.047
 6057SOL    HW118851   4.285   0.214   3.980
 6057SOL    HW218852   4.226   0.352   4.002
 6058SOL     OW18853   4.140   0.813   4.973
 6058SOL    HW118854   4.207   0.824   5.041
 6058SOL    HW218855   4.105   0.725   4.987
 6059SOL     OW18856   3.792   1.572   5.075
 6059SOL    HW118857   3.756   1.644   5.023
 6059SOL    HW218858   3.887   1.582   5.069
 6060SOL     OW18859   4.075   1.107   4.215
 6060SOL    HW118860   4.075   1.180   4.152
 6060SOL    HW218861   4.073   1.029   4.160
 6061SOL     OW18862   4.300   0.539   4.586
 6061SOL    HW118863   4.301   0.605   4.517
 6061SOL    HW218864   4.362   0.572   4.652
 6062SOL     OW18865   4.073   1.532   5.041
 6062SOL    HW118866   4.065   1.488   4.957
 6062SOL    HW218867   4.167   1.534   5.059
 6063SOL     OW18868   4.136   0.742   5.328
 6063SOL    HW118869   4.193   0.788   5.268
 6063SOL    HW218870   4.182   0.660   5.346
 6064SOL     OW18871   4.237   0.069   5.452
 6064SOL    HW118872   4.203   4.487   5.416
 6064SOL    HW218873   4.158   0.122   5.469
 6065SOL     OW18874   4.292   0.887   4.750
 6065SOL    HW118875   4.322   0.977   4.764
 6065SOL    HW218876   4.243   0.866   4.830
 6066SOL     OW18877   4.014   0.238   4.964
 6066SOL    HW118878   3.972   0.249   5.049
 6066SOL    HW218879   4.048   0.148   4.966
 6067SOL     OW18880   3.772   1.310   5.001
 6067SOL    HW118881   3.804   1.257   5.074
 6067SOL    HW218882   3.776   1.400   5.033
 6068SOL     OW18883   4.013   0.058   4.381
 6068SOL    HW118884   4.009   0.153   4.383
 6068SOL    HW218885   4.030   0.033   4.472
 6069SOL     OW18886   4.077   0.916   5.532
 6069SOL    HW118887   4.159   0.931   5.578
 6069SOL    HW218888   4.099   0.852   5.464
 6070SOL     OW18889   4.032   0.809   4.671
 6070SOL    HW118890   4.124   0.836   4.670
 6070SOL    HW218891   4.034   0.719   4.703
 6071SOL     OW18892   4.067   0.530   4.734
 6071SOL    HW118893   4.023   0.447   4.715
 6071SOL    HW218894   4.144   0.530   4.678
 6072SOL     OW18895   3.729   1.322   3.919
 6072SOL    HW118896   3.642   1.335   3.881
 6072SOL    HW218897   3.727   1.232   3.953
 6073SOL     OW18898   3.815   1.789   4.661
 6073SOL    HW118899   3.785   1.709   4.618
 6073SOL    HW218900   3.905   1.800   4.629
 6074SOL     OW18901   4.232   1.582   4.629
 6074SOL    HW118902   4.317   1.617   4.656
 6074SOL    HW218903   4.253   1.510   4.570
 6075SOL     OW18904   3.757   0.543   4.842
 6075SOL    HW118905   3.834   0.519   4.789
 6075SOL    HW218906   3.790   0.548   4.931
 6076SOL     OW18907   3.909   0.518   5.444
 6076SOL    HW118908   3.982   0.497   5.386
 6076SOL    HW218909   3.866   0.593   5.403
 6077SOL     OW18910   0.031   0.553   3.989
 6077SOL    HW118911   0.020   0.483   4.053
 6077SOL    HW218912   4.464   0.618   4.011
 6078SOL     OW18913   3.973   1.553   5.454
 6078SOL    HW118914   3.944   1.617   5.519
 6078SOL    HW218915   3.968   1.469   5.499
 6079SOL     OW18916   4.192   0.494   3.909
 6079SOL    HW118917   4.249   0.568   3.930
 6079SOL    HW218918   4.105   0.533   3.899
 6080SOL     OW18919   3.872   1.140   5.196
 6080SOL    HW118920   3.874   1.086   5.276
 6080SOL    HW218921   3.887   1.078   5.125
 6081SOL     OW18922   3.809   1.267   4.738
 6081SOL    HW118923   3.794   1.278   4.832
 6081SOL    HW218924   3.735   1.214   4.708
 6082SOL     OW18925   4.391   1.652   5.426
 6082SOL    HW118926   4.355   1.738   5.449
 6082SOL    HW218927   4.437   1.666   5.344
 6083SOL     OW18928   3.861   1.796   5.567
 6083SOL    HW118929   3.809   1.732   5.616
 6083SOL    HW218930   3.908   1.845   5.635
 6084SOL     OW18931   3.990   0.327   4.442
 6084SOL    HW118932   3.903   0.359   4.416
 6084SOL    HW218933   3.984   0.315   4.537
 6085SOL     OW18934   4.090   1.305   5.214
 6085SOL    HW118935   4.070   1.382   5.161
 6085SOL    HW218936   4.016   1.246   5.198
 6086SOL     OW18937   4.325   1.490   4.205
 6086SOL    HW118938   4.343   1.431   4.132
 6086SOL    HW218939   4.259   1.551   4.171
 6087SOL     OW18940   3.983   1.351   4.010
 6087SOL    HW118941   3.890   1.346   3.988
 6087SOL    HW218942   3.985   1.385   4.099
 6088SOL     OW18943   3.836   1.020   5.444
 6088SOL    HW118944   3.760   0.997   5.497
 6088SOL    HW218945   3.910   0.983   5.491
 6089SOL     OW18946   4.372   0.205   5.213
 6089SOL    HW118947   4.462   0.219   5.183
 6089SOL    HW218948   4.382   0.180   5.305
 6090SOL     OW18949   3.805   0.342   3.771
 6090SOL    HW118950   3.733   0.290   3.735
 6090SOL    HW218951   3.819   0.410   3.705
 6091SOL     OW18952   3.789   0.180   4.045
 6091SOL    HW118953   3.787   0.247   3.977
 6091SOL    HW218954   3.865   0.126   4.023
 6092SOL     OW18955   4.337   0.840   5.158
 6092SOL    HW118956   4.380   0.924   5.143
 6092SOL    HW218957   4.409   0.778   5.171
 6093SOL     OW18958   4.400   0.558   5.456
 6093SOL    HW118959   4.425   0.634   5.510
 6093SOL    HW218960   4.484   0.517   5.433
 6094SOL     OW18961   4.108   1.739   5.284
 6094SOL    HW118962   4.022   1.779   5.272
 6094SOL    HW218963   4.090   1.657   5.330
 6095SOL     OW18964   4.310   0.732   4.389
 6095SOL    HW118965   4.352   0.818   4.377
 6095SOL    HW218966   4.240   0.731   4.324
 6096SOL     OW18967   3.944   1.307   5.579
 6096SOL    HW118968   3.878   1.244   5.551
 6096SOL    HW218969   3.929   1.318   5.673
 6097SOL     OW18970   3.809   1.235   4.388
 6097SOL    HW118971   3.809   1.186   4.470
 6097SOL    HW218972   3.878   1.195   4.336
 6098SOL     OW18973   4.414   1.387   5.378
 6098SOL    HW118974   4.324   1.353   5.377
 6098SOL    HW218975   4.404   1.481   5.395
 6099SOL     OW18976   4.163   0.434   4.255
 6099SOL    HW118977   4.183   0.364   4.193
 6099SOL    HW218978   4.109   0.393   4.322
 6100SOL     OW18979   4.052   0.555   5.013
 6100SOL    HW118980   4.105   0.496   5.067
 6100SOL    HW218981   4.071   0.528   4.923
 6101SOL     OW18982   0.037   1.596   4.409
 6101SOL    HW118983   0.058   1.654   4.336
 6101SOL    HW218984   4.465   1.542   4.377
 6102SOL     OW18985   3.768   1.073   4.028
 6102SOL    HW118986   3.862   1.062   4.012
 6102SOL    HW218987   3.738   0.985   4.052
 6103SOL     OW18988   3.955   0.627   5.705
 6103SOL    HW118989   3.867   0.620   5.743
 6103SOL    HW218990   3.945   0.595   5.616
 6104SOL     OW18991   3.931   0.301   6.575
 6104SOL    HW118992   3.965   0.271   6.659
 6104SOL    HW218993   3.851   0.249   6.562
 6105SOL     OW18994   3.732   0.385   6.225
 6105SOL    HW118995   3.645   0.404   6.261
 6105SOL    HW218996   3.718   0.309   6.168
 6106SOL     OW18997   4.269   1.249   6.731
 6106SOL    HW118998   4.194   1.305   6.710
 6106SOL    HW218999   4.330   1.308   6.777
 6107SOL     OW19000   0.024   0.780   7.443
 6107SOL    HW119001   0.071   0.830   7.510
 6107SOL    HW219002   0.065   0.805   7.360
 6108SOL     OW19003   4.399   0.995   6.227
 6108SOL    HW119004   4.470   0.988   6.290
 6108SOL    HW219005   4.335   1.053   6.269
 6109SOL     OW19006   4.419   1.161   7.400
 6109SOL    HW119007   4.461   1.242   7.373
 6109SOL    HW219008   4.327   1.172   7.373
 6110SOL     OW19009   4.059   1.433   6.655
 6110SOL    HW119010   3.987   1.391   6.608
 6110SOL    HW219011   4.107   1.481   6.587
 6111SOL     OW19012   4.163   0.396   7.075
 6111SOL    HW119013   4.242   0.342   7.075
 6111SOL    HW219014   4.092   0.334   7.087
 6112SOL     OW19015   3.943   1.713   6.061
 6112SOL    HW119016   3.965   1.790   6.114
 6112SOL    HW219017   4.015   1.706   5.998
 6113SOL     OW19018   3.953   1.440   6.120
 6113SOL    HW119019   3.936   1.534   6.126
 6113SOL    HW219020   3.893   1.400   6.183
 6114SOL     OW19021   3.974   1.088   6.472
 6114SOL    HW119022   3.978   1.004   6.517
 6114SOL    HW219023   3.921   1.144   6.530
 6115SOL     OW19024   4.360   1.798   7.038
 6115SOL    HW119025   4.274   1.764   7.063
 6115SOL    HW219026   4.349   1.893   7.039
 6116SOL     OW19027   4.310   0.985   5.723
 6116SOL    HW119028   4.339   1.038   5.649
 6116SOL    HW219029   4.378   0.997   5.789
 6117SOL     OW19030   3.839   0.652   6.145
 6117SOL    HW119031   3.810   0.563   6.167
 6117SOL    HW219032   3.831   0.700   6.227
 6118SOL     OW19033   3.754   1.596   5.711
 6118SOL    HW119034   3.737   1.504   5.730
 6118SOL    HW219035   3.730   1.643   5.790
 6119SOL     OW19036   3.845   0.743   7.171
 6119SOL    HW119037   3.937   0.767   7.185
 6119SOL    HW219038   3.798   0.826   7.178
 6120SOL     OW19039   4.313   1.386   6.323
 6120SOL    HW119040   4.277   1.298   6.327
 6120SOL    HW219041   4.312   1.408   6.230
 6121SOL     OW19042   0.019   0.019   6.101
 6121SOL    HW119043   0.048   0.081   6.033
 6121SOL    HW219044   4.428   0.043   6.117
 6122SOL     OW19045   3.913   0.967   6.856
 6122SOL    HW119046   3.998   0.927   6.838
 6122SOL    HW219047   3.850   0.912   6.810
 6123SOL     OW19048   4.039   0.253   7.370
 6123SOL    HW119049   4.101   0.319   7.400
 6123SOL    HW219050   3.964   0.262   7.430
 6124SOL     OW19051   4.312   0.729   5.856
 6124SOL    HW119052   4.311   0.805   5.798
 6124SOL    HW219053   4.244   0.747   5.920
 6125SOL     OW19054   3.812   0.821   6.362
 6125SOL    HW119055   3.894   0.812   6.411
 6125SOL    HW219056   3.771   0.900   6.397
 6126SOL     OW19057   3.853   1.840   7.162
 6126SOL    HW119058   3.851   1.822   7.256
 6126SOL    HW219059   3.761   1.842   7.135
 6127SOL     OW19060   4.248   0.202   6.482
 6127SOL    HW119061   4.285   0.219   6.568
 6127SOL    HW219062   4.264   0.281   6.432
 6128SOL     OW19063   4.081   1.810   6.446
 6128SOL    HW119064   4.130   1.728   6.454
 6128SOL    HW219065   4.148   1.878   6.458
 6129SOL     OW19066   4.044   0.956   5.835
 6129SOL    HW119067   4.126   0.975   5.789
 6129SOL    HW219068   4.013   0.874   5.796
 6130SOL     OW19069   4.179   1.253   7.321
 6130SOL    HW119070   4.151   1.264   7.230
 6130SOL    HW219071   4.098   1.263   7.371
 6131SOL     OW19072   3.913   0.269   7.096
 6131SOL    HW119073   3.846   0.335   7.078
 6131SOL    HW219074   3.921   0.269   7.191
 6132SOL     OW19075   4.193   1.735   5.911
 6132SOL    HW119076   4.224   1.794   5.979
 6132SOL    HW219077   4.262   1.735   5.846
 6133SOL     OW19078   3.979   1.793   6.819
 6133SOL    HW119079   4.027   1.724   6.865
 6133SOL    HW219080   3.965   1.757   6.731
 6134SOL     OW19081   4.111   0.694   6.060
 6134SOL    HW119082   4.137   0.603   6.073
 6134SOL    HW219083   4.017   0.696   6.081
 6135SOL     OW19084   4.327   0.122   5.703
 6135SOL    HW119085   4.414   0.082   5.716
 6135SOL    HW219086   4.304   0.099   5.613
 6136SOL     OW19087   0.018   1.424   6.500
 6136SOL    HW119088   0.087   1.458   6.443
 6136SOL    HW219089   4.445   1.407   6.441
 6137SOL     OW19090   4.270   0.107   6.124
 6137SOL    HW119091   4.186   0.066   6.143
 6137SOL    HW219092   4.255   0.158   6.045
 6138SOL     OW19093   4.023   0.073   5.779
 6138SOL    HW119094   4.103   0.123   5.761
 6138SOL    HW219095   4.052   4.500   5.833
 6139SOL     OW19096   0.322   0.680   7.043
 6139SOL    HW119097   0.248   0.621   7.031
 6139SOL    HW219098   0.399   0.627   7.024
 6140SOL     OW19099   4.189   1.145   6.321
 6140SOL    HW119100   4.120   1.127   6.384
 6140SOL    HW219101   4.150   1.127   6.236
 6141SOL     OW19102   3.805   0.551   6.980
 6141SOL    HW119103   3.895   0.554   6.949
 6141SOL    HW219104   3.798   0.623   7.043
 6142SOL     OW19105   4.296   0.236   6.745
 6142SOL    HW119106   4.306   0.142   6.764
 6142SOL    HW219107   4.207   0.256   6.774
 6143SOL     OW19108   4.230   1.386   5.758
 6143SOL    HW119109   4.146   1.372   5.801
 6143SOL    HW219110   4.208   1.404   5.667
 6144SOL     OW19111   4.246   0.270   5.909
 6144SOL    HW119112   4.285   0.214   5.842
 6144SOL    HW219113   4.226   0.352   5.864
 6145SOL     OW19114   4.139   0.813   6.836
 6145SOL    HW119115   4.207   0.824   6.903
 6145SOL    HW219116   4.105   0.725   6.849
 6146SOL     OW19117   3.792   1.572   6.937
 6146SOL    HW119118   3.759   1.644   6.884
 6146SOL    HW219119   3.887   1.581   6.931
 6147SOL     OW19120   4.074   1.107   6.077
 6147SOL    HW119121   4.076   1.180   6.014
 6147SOL    HW219122   4.073   1.029   6.022
 6148SOL     OW19123   4.300   0.539   6.449
 6148SOL    HW119124   4.301   0.605   6.379
 6148SOL    HW219125   4.363   0.572   6.514
 6149SOL     OW19126   4.073   1.531   6.904
 6149SOL    HW119127   4.066   1.488   6.819
 6149SOL    HW219128   4.167   1.534   6.922
 6150SOL     OW19129   4.136   0.742   7.190
 6150SOL    HW119130   4.194   0.788   7.129
 6150SOL    HW219131   4.182   0.660   7.209
 6151SOL     OW19132   4.237   0.069   7.314
 6151SOL    HW119133   4.203   4.487   7.278
 6151SOL    HW219134   4.158   0.122   7.331
 6152SOL     OW19135   4.291   0.887   6.612
 6152SOL    HW119136   4.323   0.976   6.626
 6152SOL    HW219137   4.243   0.866   6.692
 6153SOL     OW19138   4.014   0.238   6.826
 6153SOL    HW119139   3.972   0.249   6.912
 6153SOL    HW219140   4.048   0.148   6.828
 6154SOL     OW19141   3.770   1.310   6.863
 6154SOL    HW119142   3.803   1.257   6.935
 6154SOL    HW219143   3.777   1.400   6.895
 6155SOL     OW19144   4.013   0.057   6.243
 6155SOL    HW119145   4.009   0.153   6.245
 6155SOL    HW219146   4.030   0.032   6.334
 6156SOL     OW19147   4.077   0.916   7.393
 6156SOL    HW119148   4.158   0.931   7.441
 6156SOL    HW219149   4.099   0.852   7.326
 6157SOL     OW19150   4.032   0.809   6.533
 6157SOL    HW119151   4.123   0.836   6.532
 6157SOL    HW219152   4.034   0.719   6.565
 6158SOL     OW19153   4.067   0.530   6.596
 6158SOL    HW119154   4.023   0.447   6.577
 6158SOL    HW219155   4.144   0.530   6.540
 6159SOL     OW19156   3.730   1.322   5.782
 6159SOL    HW119157   3.643   1.336   5.744
 6159SOL    HW219158   3.728   1.232   5.815
 6160SOL     OW19159   3.815   1.789   6.523
 6160SOL    HW119160   3.785   1.709   6.480
 6160SOL    HW219161   3.905   1.801   6.492
 6161SOL     OW19162   4.232   1.582   6.491
 6161SOL    HW119163   4.317   1.617   6.518
 6161SOL    HW219164   4.254   1.510   6.432
 6162SOL     OW19165   3.757   0.543   6.703
 6162SOL    HW119166   3.834   0.519   6.651
 6162SOL    HW219167   3.790   0.548   6.793
 6163SOL     OW19168   3.909   0.518   7.306
 6163SOL    HW119169   3.982   0.497   7.248
 6163SOL    HW219170   3.866   0.593   7.265
 6164SOL     OW19171   0.031   0.553   5.850
 6164SOL    HW119172   0.020   0.483   5.915
 6164SOL    HW219173   4.464   0.618   5.873
 6165SOL     OW19174   3.972   1.553   7.316
 6165SOL    HW119175   3.944   1.616   7.382
 6165SOL    HW219176   3.968   1.469   7.360
 6166SOL     OW19177   4.192   0.494   5.771
 6166SOL    HW119178   4.249   0.568   5.792
 6166SOL    HW219179   4.105   0.533   5.761
 6167SOL     OW19180   3.872   1.140   7.058
 6167SOL    HW119181   3.875   1.086   7.137
 6167SOL    HW219182   3.888   1.078   6.987
 6168SOL     OW19183   3.808   1.268   6.599
 6168SOL    HW119184   3.794   1.278   6.694
 6168SOL    HW219185   3.736   1.213   6.570
 6169SOL     OW19186   4.390   1.652   7.288
 6169SOL    HW119187   4.356   1.738   7.311
 6169SOL    HW219188   4.439   1.666   7.207
 6170SOL     OW19189   3.860   1.797   7.430
 6170SOL    HW119190   3.809   1.732   7.478
 6170SOL    HW219191   3.908   1.845   7.497
 6171SOL     OW19192   3.990   0.327   6.304
 6171SOL    HW119193   3.903   0.359   6.279
 6171SOL    HW219194   3.984   0.315   6.399
 6172SOL     OW19195   4.089   1.305   7.077
 6172SOL    HW119196   4.071   1.382   7.023
 6172SOL    HW219197   4.016   1.246   7.060
 6173SOL     OW19198   4.325   1.490   6.067
 6173SOL    HW119199   4.343   1.431   5.994
 6173SOL    HW219200   4.260   1.552   6.033
 6174SOL     OW19201   3.984   1.350   5.872
 6174SOL    HW119202   3.891   1.346   5.850
 6174SOL    HW219203   3.986   1.385   5.961
 6175SOL     OW19204   3.836   1.020   7.305
 6175SOL    HW119205   3.759   0.997   7.358
 6175SOL    HW219206   3.910   0.983   7.353
 6176SOL     OW19207   4.372   0.205   7.075
 6176SOL    HW119208   4.462   0.219   7.045
 6176SOL    HW219209   4.382   0.180   7.167
 6177SOL     OW19210   3.804   0.343   5.633
 6177SOL    HW119211   3.733   0.290   5.597
 6177SOL    HW219212   3.820   0.410   5.567
 6178SOL     OW19213   3.789   0.181   5.907
 6178SOL    HW119214   3.787   0.247   5.838
 6178SOL    HW219215   3.865   0.126   5.886
 6179SOL     OW19216   4.337   0.840   7.020
 6179SOL    HW119217   4.380   0.924   7.006
 6179SOL    HW219218   4.409   0.778   7.033
 6180SOL     OW19219   4.400   0.558   7.318
 6180SOL    HW119220   4.425   0.634   7.372
 6180SOL    HW219221   4.484   0.517   7.295
 6181SOL     OW19222   4.108   1.739   7.146
 6181SOL    HW119223   4.022   1.779   7.134
 6181SOL    HW219224   4.090   1.657   7.192
 6182SOL     OW19225   4.310   0.732   6.251
 6182SOL    HW119226   4.352   0.817   6.239
 6182SOL    HW219227   4.240   0.731   6.186
 6183SOL     OW19228   3.944   1.307   7.441
 6183SOL    HW119229   3.878   1.243   7.413
 6183SOL    HW219230   3.929   1.318   7.535
 6184SOL     OW19231   3.807   1.234   6.250
 6184SOL    HW119232   3.810   1.186   6.332
 6184SOL    HW219233   3.877   1.196   6.197
 6185SOL     OW19234   4.413   1.387   7.240
 6185SOL    HW119235   4.324   1.353   7.240
 6185SOL    HW219236   4.403   1.481   7.257
 6186SOL     OW19237   4.163   0.435   6.117
 6186SOL    HW119238   4.183   0.365   6.055
 6186SOL    HW219239   4.109   0.393   6.184
 6187SOL     OW19240   4.052   0.555   6.875
 6187SOL    HW119241   4.105   0.496   6.929
 6187SOL    HW219242   4.071   0.528   6.785
 6188SOL     OW19243   0.037   1.596   6.271
 6188SOL    HW119244   0.058   1.654   6.198
 6188SOL    HW219245   4.465   1.542   6.239
 6189SOL     OW19246   3.767   1.072   5.891
 6189SOL    HW119247   3.861   1.063   5.874
 6189SOL    HW219248   3.738   0.984   5.914
 6190SOL     OW19249   3.955   0.627   7.567
 6190SOL    HW119250   3.867   0.620   7.606
 6190SOL    HW219251   3.944   0.595   7.478
 6191SOL     OW19252   3.931   0.300   8.437
 6191SOL    HW119253   3.965   0.271   8.521
 6191SOL    HW219254   3.851   0.250   8.424
 6192SOL     OW19255   3.732   0.385   8.087
 6192SOL    HW119256   3.645   0.404   8.123
 6192SOL    HW219257   3.718   0.310   8.030
 6193SOL     OW19258   4.269   1.249   8.593
 6193SOL    HW119259   4.194   1.305   8.572
 6193SOL    HW219260   4.330   1.307   8.639
 6194SOL     OW19261   0.023   0.780   9.305
 6194SOL    HW119262   0.071   0.830   9.372
 6194SOL    HW219263   0.065   0.805   9.222
 6195SOL     OW19264   4.398   0.995   8.089
 6195SOL    HW119265   4.471   0.989   8.151
 6195SOL    HW219266   4.335   1.053   8.131
 6196SOL     OW19267   4.419   1.161   9.262
 6196SOL    HW119268   4.461   1.242   9.234
 6196SOL    HW219269   4.327   1.172   9.235
 6197SOL     OW19270   4.059   1.433   8.517
 6197SOL    HW119271   3.987   1.391   8.470
 6197SOL    HW219272   4.107   1.481   8.449
 6198SOL     OW19273   4.163   0.396   8.937
 6198SOL    HW119274   4.242   0.342   8.937
 6198SOL    HW219275   4.092   0.334   8.949
 6199SOL     OW19276   3.943   1.714   7.923
 6199SOL    HW119277   3.965   1.790   7.976
 6199SOL    HW219278   4.015   1.706   7.860
 6200SOL     OW19279   3.953   1.440   7.982
 6200SOL    HW119280   3.936   1.534   7.988
 6200SOL    HW219281   3.893   1.400   8.044
 6201SOL     OW19282   3.974   1.089   8.335
 6201SOL    HW119283   3.978   1.004   8.379
 6201SOL    HW219284   3.921   1.144   8.392
 6202SOL     OW19285   4.360   1.798   8.900
 6202SOL    HW119286   4.274   1.764   8.925
 6202SOL    HW219287   4.349   1.893   8.901
 6203SOL     OW19288   4.310   0.985   7.585
 6203SOL    HW119289   4.339   1.038   7.511
 6203SOL    HW219290   4.378   0.997   7.651
 6204SOL     OW19291   3.839   0.651   8.007
 6204SOL    HW119292   3.810   0.563   8.029
 6204SOL    HW219293   3.831   0.700   8.089
 6205SOL     OW19294   3.755   1.596   7.572
 6205SOL    HW119295   3.737   1.504   7.591
 6205SOL    HW219296   3.730   1.643   7.652
 6206SOL     OW19297   3.845   0.743   9.034
 6206SOL    HW119298   3.937   0.767   9.047
 6206SOL    HW219299   3.798   0.826   9.040
 6207SOL     OW19300   4.313   1.386   8.185
 6207SOL    HW119301   4.277   1.298   8.189
 6207SOL    HW219302   4.312   1.408   8.092
 6208SOL     OW19303   0.019   0.019   7.962
 6208SOL    HW119304   0.048   0.081   7.895
 6208SOL    HW219305   4.428   0.043   7.979
 6209SOL     OW19306   3.913   0.967   8.718
 6209SOL    HW119307   3.998   0.927   8.700
 6209SOL    HW219308   3.850   0.912   8.672
 6210SOL     OW19309   4.039   0.253   9.232
 6210SOL    HW119310   4.101   0.319   9.262
 6210SOL    HW219311   3.964   0.262   9.292
 6211SOL     OW19312   4.312   0.729   7.718
 6211SOL    HW119313   4.311   0.805   7.660
 6211SOL    HW219314   4.244   0.747   7.782
 6212SOL     OW19315   3.813   0.820   8.224
 6212SOL    HW119316   3.894   0.812   8.273
 6212SOL    HW219317   3.771   0.899   8.258
 6213SOL     OW19318   3.853   1.840   9.024
 6213SOL    HW119319   3.851   1.822   9.118
 6213SOL    HW219320   3.761   1.842   8.998
 6214SOL     OW19321   4.248   0.202   8.344
 6214SOL    HW119322   4.285   0.219   8.430
 6214SOL    HW219323   4.264   0.282   8.294
 6215SOL     OW19324   4.081   1.810   8.308
 6215SOL    HW119325   4.130   1.728   8.316
 6215SOL    HW219326   4.148   1.878   8.320
 6216SOL     OW19327   4.044   0.957   7.697
 6216SOL    HW119328   4.126   0.975   7.651
 6216SOL    HW219329   4.013   0.874   7.659
 6217SOL     OW19330   4.178   1.253   9.183
 6217SOL    HW119331   4.151   1.264   9.092
 6217SOL    HW219332   4.098   1.263   9.234
 6218SOL     OW19333   3.913   0.269   8.958
 6218SOL    HW119334   3.846   0.335   8.940
 6218SOL    HW219335   3.921   0.269   9.053
 6219SOL     OW19336   4.192   1.735   7.773
 6219SOL    HW119337   4.224   1.794   7.841
 6219SOL    HW219338   4.262   1.734   7.708
 6220SOL     OW19339   3.979   1.793   8.681
 6220SOL    HW119340   4.027   1.725   8.728
 6220SOL    HW219341   3.965   1.757   8.593
 6221SOL     OW19342   4.111   0.694   7.922
 6221SOL    HW119343   4.137   0.603   7.935
 6221SOL    HW219344   4.017   0.696   7.943
 6222SOL     OW19345   4.327   0.122   7.565
 6222SOL    HW119346   4.414   0.083   7.578
 6222SOL    HW219347   4.304   0.099   7.475
 6223SOL     OW19348   0.018   1.424   8.362
 6223SOL    HW119349   0.087   1.458   8.306
 6223SOL    HW219350   4.445   1.407   8.303
 6224SOL     OW19351   4.270   0.107   7.986
 6224SOL    HW119352   4.186   0.066   8.005
 6224SOL    HW219353   4.255   0.158   7.907
 6225SOL     OW19354   4.023   0.073   7.641
 6225SOL    HW119355   4.103   0.123   7.623
 6225SOL    HW219356   4.052   4.500   7.696
 6226SOL     OW19357   0.322   0.680   8.904
 6226SOL    HW119358   0.248   0.620   8.893
 6226SOL    HW219359   0.399   0.627   8.886
 6227SOL     OW19360   4.189   1.145   8.183
 6227SOL    HW119361   4.120   1.127   8.246
 6227SOL    HW219362   4.150   1.127   8.098
 6228SOL     OW19363   3.805   0.551   8.842
 6228SOL    HW119364   3.895   0.554   8.811
 6228SOL    HW219365   3.798   0.623   8.905
 6229SOL     OW19366   4.296   0.236   8.607
 6229SOL    HW119367   4.306   0.142   8.626
 6229SOL    HW219368   4.207   0.256   8.636
 6230SOL     OW19369   4.230   1.387   7.620
 6230SOL    HW119370   4.146   1.372   7.663
 6230SOL    HW219371   4.208   1.403   7.529
 6231SOL     OW19372   4.246   0.270   7.771
 6231SOL    HW119373   4.285   0.214   7.704
 6231SOL    HW219374   4.226   0.352   7.726
 6232SOL     OW19375   4.139   0.813   8.698
 6232SOL    HW119376   4.207   0.824   8.765
 6232SOL    HW219377   4.105   0.725   8.711
 6233SOL     OW19378   3.792   1.572   8.799
 6233SOL    HW119379   3.759   1.645   8.745
 6233SOL    HW219380   3.888   1.580   8.793
 6234SOL     OW19381   4.074   1.107   7.939
 6234SOL    HW119382   4.076   1.180   7.876
 6234SOL    HW219383   4.073   1.029   7.884
 6235SOL     OW19384   4.300   0.539   8.311
 6235SOL    HW119385   4.301   0.605   8.241
 6235SOL    HW219386   4.363   0.572   8.376
 6236SOL     OW19387   4.073   1.531   8.766
 6236SOL    HW119388   4.066   1.488   8.681
 6236SOL    HW219389   4.167   1.534   8.784
 6237SOL     OW19390   4.136   0.742   9.052
 6237SOL    HW119391   4.194   0.788   8.991
 6237SOL    HW219392   4.182   0.660   9.071
 6238SOL     OW19393   4.237   0.069   9.176
 6238SOL    HW119394   4.203   4.487   9.140
 6238SOL    HW219395   4.158   0.122   9.193
 6239SOL     OW19396   4.292   0.887   8.474
 6239SOL    HW119397   4.323   0.976   8.488
 6239SOL    HW219398   4.243   0.866   8.554
 6240SOL     OW19399   4.014   0.238   8.688
 6240SOL    HW119400   3.972   0.249   8.774
 6240SOL    HW219401   4.048   0.148   8.690
 6241SOL     OW19402   3.770   1.310   8.725
 6241SOL    HW119403   3.803   1.257   8.797
 6241SOL    HW219404   3.777   1.400   8.757
 6242SOL     OW19405   4.013   0.057   8.105
 6242SOL    HW119406   4.009   0.153   8.107
 6242SOL    HW219407   4.030   0.032   8.196
 6243SOL     OW19408   4.077   0.916   9.255
 6243SOL    HW119409   4.158   0.931   9.303
 6243SOL    HW219410   4.099   0.852   9.188
 6244SOL     OW19411   4.032   0.809   8.395
 6244SOL    HW119412   4.123   0.836   8.394
 6244SOL    HW219413   4.034   0.719   8.427
 6245SOL     OW19414   4.067   0.530   8.458
 6245SOL    HW119415   4.023   0.447   8.439
 6245SOL    HW219416   4.144   0.530   8.402
 6246SOL     OW19417   3.729   1.322   7.643
 6246SOL    HW119418   3.642   1.336   7.606
 6246SOL    HW219419   3.727   1.232   7.677
 6247SOL     OW19420   3.815   1.789   8.385
 6247SOL    HW119421   3.785   1.709   8.342
 6247SOL    HW219422   3.905   1.801   8.354
 6248SOL     OW19423   4.232   1.582   8.353
 6248SOL    HW119424   4.317   1.617   8.380
 6248SOL    HW219425   4.254   1.510   8.294
 6249SOL     OW19426   3.757   0.543   8.565
 6249SOL    HW119427   3.834   0.519   8.513
 6249SOL    HW219428   3.790   0.548   8.655
 6250SOL     OW19429   3.909   0.518   9.168
 6250SOL    HW119430   3.982   0.497   9.110
 6250SOL    HW219431   3.866   0.593   9.127
 6251SOL     OW19432   0.031   0.553   7.712
 6251SOL    HW119433   0.020   0.483   7.777
 6251SOL    HW219434   4.464   0.617   7.735
 6252SOL     OW19435   3.971   1.553   9.178
 6252SOL    HW119436   3.944   1.616   9.244
 6252SOL    HW219437   3.968   1.469   9.222
 6253SOL     OW19438   4.192   0.494   7.633
 6253SOL    HW119439   4.249   0.568   7.654
 6253SOL    HW219440   4.105   0.533   7.623
 6254SOL     OW19441   3.872   1.140   8.920
 6254SOL    HW119442   3.875   1.086   8.999
 6254SOL    HW219443   3.888   1.078   8.849
 6255SOL     OW19444   3.808   1.268   8.461
 6255SOL    HW119445   3.793   1.278   8.555
 6255SOL    HW219446   3.736   1.212   8.431
 6256SOL     OW19447   4.389   1.652   9.150
 6256SOL    HW119448   4.356   1.738   9.173
 6256SOL    HW219449   4.439   1.666   9.069
 6257SOL     OW19450   3.860   1.797   9.292
 6257SOL    HW119451   3.809   1.732   9.340
 6257SOL    HW219452   3.908   1.845   9.359
 6258SOL     OW19453   3.990   0.327   8.166
 6258SOL    HW119454   3.903   0.359   8.141
 6258SOL    HW219455   3.984   0.315   8.261
 6259SOL     OW19456   4.089   1.305   8.939
 6259SOL    HW119457   4.071   1.382   8.884
 6259SOL    HW219458   4.016   1.246   8.922
 6260SOL     OW19459   4.325   1.490   7.929
 6260SOL    HW119460   4.343   1.431   7.856
 6260SOL    HW219461   4.260   1.551   7.895
 6261SOL     OW19462   3.983   1.350   7.733
 6261SOL    HW119463   3.890   1.346   7.711
 6261SOL    HW219464   3.985   1.385   7.822
 6262SOL     OW19465   3.836   1.020   9.167
 6262SOL    HW119466   3.759   0.997   9.220
 6262SOL    HW219467   3.910   0.983   9.215
 6263SOL     OW19468   4.372   0.205   8.937
 6263SOL    HW119469   4.462   0.219   8.907
 6263SOL    HW219470   4.382   0.180   9.029
 6264SOL     OW19471   3.805   0.342   7.495
 6264SOL    HW119472   3.733   0.290   7.459
 6264SOL    HW219473   3.819   0.410   7.429
 6265SOL     OW19474   3.789   0.180   7.769
 6265SOL    HW119475   3.787   0.247   7.701
 6265SOL    HW219476   3.865   0.126   7.747
 6266SOL     OW19477   4.337   0.840   8.882
 6266SOL    HW119478   4.380   0.924   8.867
 6266SOL    HW219479   4.409   0.778   8.895
 6267SOL     OW19480   4.400   0.558   9.180
 6267SOL    HW119481   4.425   0.634   9.234
 6267SOL    HW219482   4.484   0.517   9.157
 6268SOL     OW19483   4.108   1.739   9.008
 6268SOL    HW119484   4.022   1.779   8.996
 6268SOL    HW219485   4.091   1.657   9.054
 6269SOL     OW19486   4.310   0.732   8.113
 6269SOL    HW119487   4.352   0.817   8.101
 6269SOL    HW219488   4.240   0.731   8.048
 6270SOL     OW19489   3.944   1.307   9.303
 6270SOL    HW119490   3.878   1.243   9.275
 6270SOL    HW219491   3.929   1.318   9.397
 6271SOL     OW19492   3.808   1.235   8.112
 6271SOL    HW119493   3.810   1.186   8.194
 6271SOL    HW219494   3.877   1.196   8.059
 6272SOL     OW19495   4.413   1.387   9.102
 6272SOL    HW119496   4.324   1.353   9.102
 6272SOL    HW219497   4.403   1.481   9.119
 6273SOL     OW19498   4.163   0.434   7.979
 6273SOL    HW119499   4.183   0.365   7.917
 6273SOL    HW219500   4.109   0.393   8.046
 6274SOL     OW19501   4.052   0.555   8.737
 6274SOL    HW119502   4.105   0.496   8.791
 6274SOL    HW219503   4.071   0.528   8.647
 6275SOL     OW19504   0.037   1.596   8.133
 6275SOL    HW119505   0.058   1.654   8.061
 6275SOL    HW219506   4.465   1.542   8.101
 6276SOL     OW19507   3.768   1.072   7.753
 6276SOL    HW119508   3.862   1.062   7.736
 6276SOL    HW219509   3.738   0.985   7.776
 6277SOL     OW19510   3.955   0.627   9.429
 6277SOL    HW119511   3.867   0.620   9.468
 6277SOL    HW219512   3.944   0.595   9.340
 6278SOL     OW19513   3.931   0.300  10.298
 6278SOL    HW119514   3.966   0.271  10.383
 6278SOL    HW219515   3.851   0.249  10.286
 6279SOL     OW19516   3.732   0.385   9.949
 6279SOL    HW119517   3.645   0.404   9.985
 6279SOL    HW219518   3.718   0.310   9.892
 6280SOL     OW19519   4.269   1.249  10.456
 6280SOL    HW119520   4.195   1.305  10.434
 6280SOL    HW219521   4.330   1.308  10.501
 6281SOL     OW19522   0.025   0.809   0.078
 6281SOL    HW119523   0.099   0.851   0.122
 6281SOL    HW219524   0.056   0.794  11.089
 6282SOL     OW19525   4.399   0.995   9.951
 6282SOL    HW119526   4.470   0.988  10.013
 6282SOL    HW219527   4.335   1.053   9.993
 6283SOL     OW19528   4.060   1.433  10.379
 6283SOL    HW119529   3.987   1.391  10.332
 6283SOL    HW219530   4.107   1.481  10.311
 6284SOL     OW19531   4.174   0.397  10.797
 6284SOL    HW119532   4.243   0.331  10.797
 6284SOL    HW219533   4.094   0.349  10.819
 6285SOL     OW19534   3.943   1.714   9.785
 6285SOL    HW119535   3.965   1.790   9.838
 6285SOL    HW219536   4.015   1.706   9.722
 6286SOL     OW19537   3.953   1.440   9.844
 6286SOL    HW119538   3.936   1.534   9.850
 6286SOL    HW219539   3.893   1.400   9.906
 6287SOL     OW19540   3.974   1.088  10.197
 6287SOL    HW119541   3.978   1.004  10.242
 6287SOL    HW219542   3.921   1.144  10.254
 6288SOL     OW19543   4.356   1.799  10.757
 6288SOL    HW119544   4.269   1.769  10.782
 6288SOL    HW219545   4.352   1.894  10.765
 6289SOL     OW19546   4.310   0.985   9.447
 6289SOL    HW119547   4.339   1.038   9.373
 6289SOL    HW219548   4.378   0.997   9.513
 6290SOL     OW19549   3.839   0.651   9.869
 6290SOL    HW119550   3.810   0.563   9.891
 6290SOL    HW219551   3.831   0.700   9.951
 6291SOL     OW19552   3.755   1.596   9.434
 6291SOL    HW119553   3.737   1.504   9.453
 6291SOL    HW219554   3.730   1.643   9.514
 6292SOL     OW19555   3.848   0.727  10.913
 6292SOL    HW119556   3.941   0.750  10.910
 6292SOL    HW219557   3.802   0.811  10.906
 6293SOL     OW19558   4.313   1.386  10.047
 6293SOL    HW119559   4.277   1.297  10.051
 6293SOL    HW219560   4.313   1.408   9.954
 6294SOL     OW19561   0.019   0.018   9.824
 6294SOL    HW119562   0.048   0.080   9.757
 6294SOL    HW219563   4.428   0.042   9.841
 6295SOL     OW19564   3.913   0.966  10.578
 6295SOL    HW119565   3.998   0.925  10.560
 6295SOL    HW219566   3.850   0.910  10.534
 6296SOL     OW19567   4.057   0.275  11.088
 6296SOL    HW119568   4.115   0.335   0.036
 6296SOL    HW219569   3.973   0.282   0.034
 6297SOL     OW19570   4.312   0.729   9.580
 6297SOL    HW119571   4.311   0.805   9.522
 6297SOL    HW219572   4.244   0.747   9.644
 6298SOL     OW19573   3.813   0.820  10.086
 6298SOL    HW119574   3.894   0.812  10.135
 6298SOL    HW219575   3.771   0.899  10.120
 6299SOL     OW19576   3.854   1.841  10.895
 6299SOL    HW119577   3.835   1.804  10.981
 6299SOL    HW219578   3.770   1.842  10.850
 6300SOL     OW19579   4.247   0.202  10.209
 6300SOL    HW119580   4.288   0.222  10.293
 6300SOL    HW219581   4.264   0.280  10.156
 6301SOL     OW19582   4.081   1.810  10.170
 6301SOL    HW119583   4.130   1.728  10.178
 6301SOL    HW219584   4.148   1.878  10.182
 6302SOL     OW19585   4.044   0.957   9.559
 6302SOL    HW119586   4.126   0.975   9.513
 6302SOL    HW219587   4.013   0.874   9.521
 6303SOL     OW19588   4.179   1.262  11.053
 6303SOL    HW119589   4.153   1.273  10.962
 6303SOL    HW219590   4.106   1.215  11.093
 6304SOL     OW19591   3.921   0.272  10.813
 6304SOL    HW119592   3.848   0.333  10.804
 6304SOL    HW219593   3.931   0.259  10.907
 6305SOL     OW19594   4.192   1.735   9.635
 6305SOL    HW119595   4.224   1.794   9.703
 6305SOL    HW219596   4.262   1.734   9.570
 6306SOL     OW19597   3.979   1.793  10.544
 6306SOL    HW119598   4.027   1.725  10.591
 6306SOL    HW219599   3.966   1.757  10.456
 6307SOL     OW19600   4.111   0.694   9.784
 6307SOL    HW119601   4.137   0.603   9.797
 6307SOL    HW219602   4.017   0.696   9.805
 6308SOL     OW19603   4.327   0.122   9.427
 6308SOL    HW119604   4.414   0.083   9.440
 6308SOL    HW219605   4.304   0.099   9.337
 6309SOL     OW19606   0.018   1.425  10.225
 6309SOL    HW119607   0.088   1.458  10.168
 6309SOL    HW219608   4.445   1.408  10.165
 6310SOL     OW19609   4.270   0.107   9.848
 6310SOL    HW119610   4.186   0.066   9.867
 6310SOL    HW219611   4.255   0.158   9.769
 6311SOL     OW19612   4.023   0.073   9.503
 6311SOL    HW119613   4.102   0.123   9.485
 6311SOL    HW219614   4.052   4.500   9.558
 6312SOL     OW19615   0.310   0.683  10.768
 6312SOL    HW119616   0.244   0.613  10.771
 6312SOL    HW219617   0.392   0.637  10.750
 6313SOL     OW19618   4.189   1.145  10.045
 6313SOL    HW119619   4.120   1.127  10.108
 6313SOL    HW219620   4.150   1.127   9.960
 6314SOL     OW19621   3.803   0.550  10.706
 6314SOL    HW119622   3.894   0.554  10.675
 6314SOL    HW219623   3.799   0.616  10.775
 6315SOL     OW19624   4.297   0.235  10.475
 6315SOL    HW119625   4.303   0.140  10.482
 6315SOL    HW219626   4.206   0.255  10.497
 6316SOL     OW19627   4.230   1.387   9.482
 6316SOL    HW119628   4.146   1.372   9.525
 6316SOL    HW219629   4.208   1.403   9.391
 6317SOL     OW19630   4.246   0.270   9.633
 6317SOL    HW119631   4.285   0.214   9.566
 6317SOL    HW219632   4.226   0.352   9.588
 6318SOL     OW19633   4.140   0.813  10.559
 6318SOL    HW119634   4.207   0.823  10.627
 6318SOL    HW219635   4.105   0.725  10.573
 6319SOL     OW19636   3.793   1.575  10.660
 6319SOL    HW119637   3.760   1.646  10.604
 6319SOL    HW219638   3.888   1.580  10.652
 6320SOL     OW19639   4.074   1.107   9.801
 6320SOL    HW119640   4.076   1.180   9.738
 6320SOL    HW219641   4.073   1.029   9.746
 6321SOL     OW19642   4.300   0.539  10.173
 6321SOL    HW119643   4.301   0.605  10.104
 6321SOL    HW219644   4.363   0.571  10.238
 6322SOL     OW19645   4.072   1.530  10.628
 6322SOL    HW119646   4.066   1.487  10.543
 6322SOL    HW219647   4.166   1.533  10.646
 6323SOL     OW19648   4.134   0.737  10.905
 6323SOL    HW119649   4.196   0.783  10.848
 6323SOL    HW219650   4.166   0.647  10.908
 6324SOL     OW19651   4.292   0.887  10.336
 6324SOL    HW119652   4.323   0.977  10.350
 6324SOL    HW219653   4.243   0.867  10.416
 6325SOL     OW19654   4.015   0.238  10.549
 6325SOL    HW119655   3.975   0.251  10.635
 6325SOL    HW219656   4.046   0.147  10.551
 6326SOL     OW19657   3.773   1.312  10.586
 6326SOL    HW119658   3.801   1.257  10.659
 6326SOL    HW219659   3.776   1.401  10.621
 6327SOL     OW19660   4.013   0.057   9.967
 6327SOL    HW119661   4.009   0.153   9.969
 6327SOL    HW219662   4.030   0.032  10.058
 6328SOL     OW19663   4.080   0.918  11.095
 6328SOL    HW119664   4.164   0.934   0.038
 6328SOL    HW219665   4.099   0.851  11.029
 6329SOL     OW19666   4.032   0.809  10.257
 6329SOL    HW119667   4.124   0.836  10.255
 6329SOL    HW219668   4.034   0.719  10.289
 6330SOL     OW19669   4.067   0.530  10.321
 6330SOL    HW119670   4.023   0.447  10.301
 6330SOL    HW219671   4.144   0.531  10.265
 6331SOL     OW19672   3.729   1.322   9.505
 6331SOL    HW119673   3.642   1.336   9.468
 6331SOL    HW219674   3.727   1.232   9.539
 6332SOL     OW19675   3.815   1.789  10.247
 6332SOL    HW119676   3.785   1.709  10.204
 6332SOL    HW219677   3.905   1.801  10.216
 6333SOL     OW19678   4.232   1.582  10.215
 6333SOL    HW119679   4.317   1.617  10.242
 6333SOL    HW219680   4.254   1.510  10.156
 6334SOL     OW19681   3.758   0.543  10.428
 6334SOL    HW119682   3.835   0.519  10.376
 6334SOL    HW219683   3.789   0.548  10.518
 6335SOL     OW19684   0.031   0.553   9.574
 6335SOL    HW119685   0.020   0.483   9.639
 6335SOL    HW219686   4.464   0.617   9.597
 6336SOL     OW19687   3.978   1.566  11.054
 6336SOL    HW119688   3.922   1.602   0.023
 6336SOL    HW219689   3.979   1.472  11.070
 6337SOL     OW19690   4.192   0.494   9.495
 6337SOL    HW119691   4.249   0.568   9.516
 6337SOL    HW219692   4.105   0.534   9.485
 6338SOL     OW19693   3.877   1.138  10.780
 6338SOL    HW119694   3.871   1.082  10.858
 6338SOL    HW219695   3.890   1.077  10.707
 6339SOL     OW19696   3.808   1.269  10.323
 6339SOL    HW119697   3.795   1.278  10.417
 6339SOL    HW219698   3.736   1.212  10.294
 6340SOL     OW19699   4.395   1.667  11.006
 6340SOL    HW119700   4.318   1.722  10.989
 6340SOL    HW219701   4.432   1.651  10.919
 6341SOL     OW19702   3.990   0.327  10.028
 6341SOL    HW119703   3.903   0.359  10.003
 6341SOL    HW219704   3.984   0.315  10.123
 6342SOL     OW19705   4.085   1.308  10.809
 6342SOL    HW119706   4.073   1.381  10.749
 6342SOL    HW219707   4.015   1.246  10.787
 6343SOL     OW19708   4.325   1.490   9.791
 6343SOL    HW119709   4.343   1.431   9.718
 6343SOL    HW219710   4.260   1.551   9.757
 6344SOL     OW19711   3.983   1.350   9.595
 6344SOL    HW119712   3.890   1.346   9.573
 6344SOL    HW219713   3.985   1.385   9.684
 6345SOL     OW19714   3.837   1.012  11.020
 6345SOL    HW119715   3.766   0.997  11.083
 6345SOL    HW219716   3.916   0.982  11.065
 6346SOL     OW19717   4.379   0.185  10.814
 6346SOL    HW119718   4.448   0.207  10.751
 6346SOL    HW219719   4.416   0.210  10.899
 6347SOL     OW19720   3.804   0.342   9.357
 6347SOL    HW119721   3.733   0.290   9.321
 6347SOL    HW219722   3.819   0.410   9.291
 6348SOL     OW19723   3.789   0.180   9.631
 6348SOL    HW119724   3.787   0.247   9.563
 6348SOL    HW219725   3.865   0.126   9.609
 6349SOL     OW19726   4.338   0.839  10.745
 6349SOL    HW119727   4.378   0.924  10.729
 6349SOL    HW219728   4.411   0.778  10.750
 6350SOL     OW19729   4.114   1.735  10.871
 6350SOL    HW119730   4.034   1.786  10.863
 6350SOL    HW219731   4.089   1.659  10.923
 6351SOL     OW19732   4.310   0.732   9.975
 6351SOL    HW119733   4.352   0.817   9.963
 6351SOL    HW219734   4.240   0.731   9.910
 6352SOL     OW19735   3.808   1.235   9.974
 6352SOL    HW119736   3.810   1.186  10.056
 6352SOL    HW219737   3.877   1.196   9.921
 6353SOL     OW19738   4.405   1.392  10.941
 6353SOL    HW119739   4.330   1.343  10.974
 6353SOL    HW219740   4.397   1.478  10.982
 6354SOL     OW19741   4.163   0.434   9.841
 6354SOL    HW119742   4.183   0.365   9.779
 6354SOL    HW219743   4.109   0.393   9.908
 6355SOL     OW19744   4.053   0.555  10.600
 6355SOL    HW119745   4.105   0.495  10.652
 6355SOL    HW219746   4.070   0.529  10.509
 6356SOL     OW19747   0.037   1.596   9.995
 6356SOL    HW119748   0.058   1.654   9.923
 6356SOL    HW219749   4.465   1.542   9.963
 6357SOL     OW19750   3.768   1.072   9.615
 6357SOL    HW119751   3.862   1.062   9.598
 6357SOL    HW219752   3.738   0.985   9.638
 6358SOL     OW19753   3.951   2.477   0.118
 6358SOL    HW119754   3.865   2.481   0.159
 6358SOL    HW219755   3.933   2.495   0.025
 6359SOL     OW19756   3.947   2.145   0.991
 6359SOL    HW119757   3.979   2.110   1.074
 6359SOL    HW219758   3.858   2.111   0.983
 6360SOL     OW19759   3.729   2.244   0.638
 6360SOL    HW119760   3.646   2.268   0.679
 6360SOL    HW219761   3.710   2.164   0.590
 6361SOL     OW19762   4.268   3.111   1.147
 6361SOL    HW119763   4.194   3.167   1.123
 6361SOL    HW219764   4.330   3.170   1.190
 6362SOL     OW19765   0.022   2.644   1.857
 6362SOL    HW119766   0.072   2.691   1.923
 6362SOL    HW219767   0.065   2.666   1.774
 6363SOL     OW19768   4.398   2.856   0.640
 6363SOL    HW119769   4.471   2.852   0.701
 6363SOL    HW219770   4.335   2.914   0.683
 6364SOL     OW19771   4.419   3.023   1.814
 6364SOL    HW119772   4.461   3.104   1.786
 6364SOL    HW219773   4.327   3.034   1.787
 6365SOL     OW19774   4.059   3.295   1.069
 6365SOL    HW119775   3.987   3.254   1.022
 6365SOL    HW219776   4.107   3.344   1.002
 6366SOL     OW19777   4.170   2.261   1.487
 6366SOL    HW119778   4.244   2.201   1.491
 6366SOL    HW219779   4.093   2.205   1.500
 6367SOL     OW19780   3.943   3.575   0.476
 6367SOL    HW119781   3.965   3.652   0.527
 6367SOL    HW219782   4.011   3.569   0.409
 6368SOL     OW19783   3.951   3.301   0.532
 6368SOL    HW119784   3.936   3.396   0.538
 6368SOL    HW219785   3.890   3.264   0.596
 6369SOL     OW19786   3.973   2.951   0.886
 6369SOL    HW119787   3.978   2.866   0.931
 6369SOL    HW219788   3.921   3.006   0.944
 6370SOL     OW19789   4.360   3.660   1.452
 6370SOL    HW119790   4.274   3.626   1.477
 6370SOL    HW219791   4.350   3.755   1.454
 6371SOL     OW19792   4.301   2.863   0.138
 6371SOL    HW119793   4.317   2.928   0.069
 6371SOL    HW219794   4.380   2.864   0.191
 6372SOL     OW19795   3.838   2.512   0.559
 6372SOL    HW119796   3.808   2.424   0.582
 6372SOL    HW219797   3.830   2.562   0.641
 6373SOL     OW19798   3.767   3.464   0.120
 6373SOL    HW119799   3.739   3.375   0.143
 6373SOL    HW219800   3.740   3.518   0.195
 6374SOL     OW19801   3.845   2.603   1.587
 6374SOL    HW119802   3.937   2.626   1.600
 6374SOL    HW219803   3.799   2.687   1.593
 6375SOL     OW19804   4.312   3.248   0.737
 6375SOL    HW119805   4.277   3.159   0.741
 6375SOL    HW219806   4.312   3.270   0.644
 6376SOL     OW19807   0.022   1.872   0.531
 6376SOL    HW119808   0.054   1.930   0.462
 6376SOL    HW219809   4.427   1.884   0.530
 6377SOL     OW19810   3.914   2.829   1.270
 6377SOL    HW119811   3.999   2.789   1.252
 6377SOL    HW219812   3.850   2.773   1.225
 6378SOL     OW19813   4.055   2.113   1.807
 6378SOL    HW119814   4.101   2.195   1.823
 6378SOL    HW219815   3.967   2.127   1.841
 6379SOL     OW19816   4.308   2.582   0.269
 6379SOL    HW119817   4.330   2.657   0.214
 6379SOL    HW219818   4.244   2.616   0.332
 6380SOL     OW19819   3.813   2.683   0.775
 6380SOL    HW119820   3.894   2.674   0.824
 6380SOL    HW219821   3.771   2.761   0.810
 6381SOL     OW19822   3.853   3.703   1.576
 6381SOL    HW119823   3.851   3.684   1.670
 6381SOL    HW219824   3.761   3.703   1.550
 6382SOL     OW19825   4.253   2.054   0.881
 6382SOL    HW119826   4.273   2.059   0.974
 6382SOL    HW219827   4.264   2.144   0.849
 6383SOL     OW19828   4.081   3.672   0.861
 6383SOL    HW119829   4.130   3.590   0.868
 6383SOL    HW219830   4.148   3.740   0.871
 6384SOL     OW19831   4.041   2.820   0.274
 6384SOL    HW119832   4.120   2.845   0.225
 6384SOL    HW219833   4.014   2.737   0.234
 6385SOL     OW19834   4.178   3.115   1.735
 6385SOL    HW119835   4.151   3.126   1.644
 6385SOL    HW219836   4.098   3.125   1.786
 6386SOL     OW19837   3.924   2.145   1.501
 6386SOL    HW119838   3.842   2.194   1.493
 6386SOL    HW219839   3.907   2.081   1.570
 6387SOL     OW19840   4.193   3.595   0.327
 6387SOL    HW119841   4.224   3.657   0.393
 6387SOL    HW219842   4.266   3.588   0.265
 6388SOL     OW19843   3.979   3.655   1.233
 6388SOL    HW119844   4.027   3.587   1.279
 6388SOL    HW219845   3.966   3.620   1.145
 6389SOL     OW19846   4.108   2.557   0.476
 6389SOL    HW119847   4.136   2.466   0.488
 6389SOL    HW219848   4.015   2.557   0.498
 6390SOL     OW19849   4.345   1.990   0.111
 6390SOL    HW119850   4.433   1.955   0.125
 6390SOL    HW219851   4.316   1.950   0.029
 6391SOL     OW19852   0.019   3.286   0.914
 6391SOL    HW119853   0.087   3.322   0.857
 6391SOL    HW219854   4.445   3.269   0.855
 6392SOL     OW19855   4.261   1.926   0.501
 6392SOL    HW119856   4.182   1.930   0.555
 6392SOL    HW219857   4.257   2.005   0.447
 6393SOL     OW19858   4.010   1.910   0.198
 6393SOL    HW119859   4.054   1.964   0.133
 6393SOL    HW219860   4.075   1.846   0.225
 6394SOL     OW19861   0.322   2.538   1.448
 6394SOL    HW119862   0.249   2.477   1.445
 6394SOL    HW219863   0.400   2.483   1.441
 6395SOL     OW19864   4.190   3.007   0.737
 6395SOL    HW119865   4.120   2.988   0.800
 6395SOL    HW219866   4.151   2.991   0.652
 6396SOL     OW19867   3.802   2.417   1.391
 6396SOL    HW119868   3.893   2.415   1.363
 6396SOL    HW219869   3.797   2.487   1.456
 6397SOL     OW19870   4.284   2.075   1.149
 6397SOL    HW119871   4.325   2.005   1.201
 6397SOL    HW219872   4.198   2.085   1.188
 6398SOL     OW19873   4.235   3.263   0.190
 6398SOL    HW119874   4.150   3.248   0.230
 6398SOL    HW219875   4.220   3.248   0.096
 6399SOL     OW19876   4.250   2.131   0.324
 6399SOL    HW119877   4.284   2.075   0.255
 6399SOL    HW219878   4.228   2.213   0.280
 6400SOL     OW19879   4.139   2.674   1.250
 6400SOL    HW119880   4.206   2.685   1.317
 6400SOL    HW219881   4.104   2.586   1.264
 6401SOL     OW19882   3.792   3.435   1.351
 6401SOL    HW119883   3.759   3.506   1.297
 6401SOL    HW219884   3.888   3.442   1.345
 6402SOL     OW19885   4.074   2.975   0.496
 6402SOL    HW119886   4.075   3.049   0.435
 6402SOL    HW219887   4.069   2.897   0.441
 6403SOL     OW19888   4.298   2.401   0.863
 6403SOL    HW119889   4.301   2.467   0.794
 6403SOL    HW219890   4.362   2.431   0.928
 6404SOL     OW19891   4.073   3.393   1.318
 6404SOL    HW119892   4.066   3.350   1.233
 6404SOL    HW219893   4.167   3.396   1.336
 6405SOL     OW19894   4.136   2.605   1.604
 6405SOL    HW119895   4.195   2.650   1.544
 6405SOL    HW219896   4.178   2.521   1.621
 6406SOL     OW19897   4.231   1.914   1.734
 6406SOL    HW119898   4.186   1.854   1.675
 6406SOL    HW219899   4.165   1.981   1.755
 6407SOL     OW19900   4.291   2.749   1.026
 6407SOL    HW119901   4.323   2.838   1.040
 6407SOL    HW219902   4.243   2.728   1.106
 6408SOL     OW19903   4.025   2.063   1.247
 6408SOL    HW119904   3.986   2.095   1.328
 6408SOL    HW219905   4.005   1.969   1.246
 6409SOL     OW19906   3.770   3.172   1.277
 6409SOL    HW119907   3.803   3.119   1.349
 6409SOL    HW219908   3.777   3.262   1.309
 6410SOL     OW19909   4.021   1.929   0.625
 6410SOL    HW119910   4.006   2.020   0.650
 6410SOL    HW219911   4.031   1.883   0.708
 6411SOL     OW19912   4.076   2.777   1.808
 6411SOL    HW119913   4.158   2.793   1.854
 6411SOL    HW219914   4.099   2.714   1.740
 6412SOL     OW19915   4.032   2.671   0.946
 6412SOL    HW119916   4.123   2.698   0.946
 6412SOL    HW219917   4.033   2.581   0.979
 6413SOL     OW19918   4.062   2.387   1.009
 6413SOL    HW119919   4.026   2.300   0.993
 6413SOL    HW219920   4.141   2.390   0.954
 6414SOL     OW19921   3.731   3.190   0.195
 6414SOL    HW119922   3.644   3.201   0.157
 6414SOL    HW219923   3.732   3.099   0.225
 6415SOL     OW19924   3.816   3.651   0.938
 6415SOL    HW119925   3.785   3.571   0.894
 6415SOL    HW219926   3.905   3.663   0.906
 6416SOL     OW19927   4.232   3.444   0.906
 6416SOL    HW119928   4.317   3.479   0.932
 6416SOL    HW219929   4.253   3.372   0.846
 6417SOL     OW19930   3.759   2.405   1.116
 6417SOL    HW119931   3.840   2.388   1.067
 6417SOL    HW219932   3.788   2.411   1.207
 6418SOL     OW19933   3.915   2.380   1.726
 6418SOL    HW119934   3.972   2.344   1.659
 6418SOL    HW219935   3.869   2.452   1.683
 6419SOL     OW19936   0.030   2.413   0.268
 6419SOL    HW119937   0.018   2.345   0.334
 6419SOL    HW219938   4.465   2.480   0.290
 6420SOL     OW19939   3.971   3.415   1.729
 6420SOL    HW119940   3.944   3.479   1.796
 6420SOL    HW219941   3.968   3.331   1.774
 6421SOL     OW19942   4.190   2.352   0.179
 6421SOL    HW119943   4.247   2.424   0.206
 6421SOL    HW219944   4.103   2.391   0.173
 6422SOL     OW19945   3.872   3.002   1.472
 6422SOL    HW119946   3.875   2.948   1.551
 6422SOL    HW219947   3.888   2.940   1.400
 6423SOL     OW19948   3.808   3.130   1.013
 6423SOL    HW119949   3.793   3.140   1.108
 6423SOL    HW219950   3.736   3.074   0.984
 6424SOL     OW19951   4.389   3.514   1.702
 6424SOL    HW119952   4.356   3.600   1.726
 6424SOL    HW219953   4.439   3.528   1.622
 6425SOL     OW19954   3.860   3.658   1.843
 6425SOL    HW119955   3.809   3.594   1.892
 6425SOL    HW219956   3.907   3.708   1.910
 6426SOL     OW19957   3.987   2.182   0.717
 6426SOL    HW119958   3.901   2.216   0.694
 6426SOL    HW219959   3.985   2.171   0.812
 6427SOL     OW19960   4.089   3.167   1.491
 6427SOL    HW119961   4.071   3.244   1.436
 6427SOL    HW219962   4.016   3.108   1.474
 6428SOL     OW19963   4.324   3.352   0.482
 6428SOL    HW119964   4.344   3.296   0.407
 6428SOL    HW219965   4.258   3.413   0.449
 6429SOL     OW19966   3.989   3.205   0.287
 6429SOL    HW119967   3.901   3.205   0.251
 6429SOL    HW219968   3.980   3.243   0.374
 6430SOL     OW19969   3.836   2.882   1.719
 6430SOL    HW119970   3.759   2.859   1.772
 6430SOL    HW219971   3.910   2.845   1.767
 6431SOL     OW19972   4.391   2.068   1.493
 6431SOL    HW119973   4.479   2.063   1.456
 6431SOL    HW219974   4.405   2.057   1.588
 6432SOL     OW19975   3.807   2.209   0.048
 6432SOL    HW119976   3.729   2.172   0.006
 6432SOL    HW219977   3.824   2.290   0.000
 6433SOL     OW19978   3.792   2.021   0.315
 6433SOL    HW119979   3.782   2.102   0.266
 6433SOL    HW219980   3.874   1.984   0.284
 6434SOL     OW19981   4.337   2.701   1.434
 6434SOL    HW119982   4.382   2.784   1.420
 6434SOL    HW219983   4.407   2.637   1.445
 6435SOL     OW19984   4.401   2.418   1.736
 6435SOL    HW119985   4.424   2.496   1.787
 6435SOL    HW219986   4.485   2.381   1.709
 6436SOL     OW19987   4.108   3.601   1.560
 6436SOL    HW119988   4.022   3.641   1.548
 6436SOL    HW219989   4.091   3.519   1.606
 6437SOL     OW19990   4.310   2.594   0.665
 6437SOL    HW119991   4.352   2.679   0.655
 6437SOL    HW219992   4.239   2.594   0.600
 6438SOL     OW19993   3.944   3.169   1.855
 6438SOL    HW119994   3.878   3.105   1.827
 6438SOL    HW219995   3.929   3.180   1.949
 6439SOL     OW19996   3.807   3.096   0.665
 6439SOL    HW119997   3.811   3.047   0.747
 6439SOL    HW219998   3.878   3.060   0.612
 6440SOL     OW19999   4.414   3.249   1.654
 6440SOL    HW120000   4.324   3.215   1.654
 6440SOL    HW220001   4.403   3.343   1.670
 6441SOL     OW20002   4.160   2.295   0.530
 6441SOL    HW120003   4.180   2.225   0.469
 6441SOL    HW220004   4.105   2.253   0.597
 6442SOL     OW20005   4.052   2.414   1.289
 6442SOL    HW120006   4.106   2.358   1.344
 6442SOL    HW220007   4.073   2.387   1.199
 6443SOL     OW20008   0.036   3.457   0.686
 6443SOL    HW120009   0.060   3.515   0.613
 6443SOL    HW220010   4.464   3.405   0.651
 6444SOL     OW20011   3.766   2.934   0.300
 6444SOL    HW120012   3.862   2.928   0.296
 6444SOL    HW220013   3.738   2.846   0.327
 6445SOL     OW20014   3.955   2.485   1.984
 6445SOL    HW120015   3.865   2.485   2.017
 6445SOL    HW220016   3.946   2.459   1.892
 6446SOL     OW20017   3.947   2.145   2.853
 6446SOL    HW120018   3.979   2.110   2.936
 6446SOL    HW220019   3.858   2.111   2.845
 6447SOL     OW20020   3.729   2.244   2.500
 6447SOL    HW120021   3.646   2.269   2.541
 6447SOL    HW220022   3.709   2.164   2.452
 6448SOL     OW20023   4.269   3.111   3.007
 6448SOL    HW120024   4.194   3.167   2.986
 6448SOL    HW220025   4.330   3.169   3.053
 6449SOL     OW20026   0.022   2.644   3.719
 6449SOL    HW120027   0.072   2.692   3.785
 6449SOL    HW220028   0.065   2.666   3.636
 6450SOL     OW20029   4.399   2.857   2.502
 6450SOL    HW120030   4.470   2.850   2.565
 6450SOL    HW220031   4.335   2.915   2.545
 6451SOL     OW20032   4.419   3.023   3.676
 6451SOL    HW120033   4.461   3.104   3.648
 6451SOL    HW220034   4.327   3.033   3.649
 6452SOL     OW20035   4.059   3.295   2.931
 6452SOL    HW120036   3.987   3.253   2.884
 6452SOL    HW220037   4.107   3.344   2.863
 6453SOL     OW20038   4.170   2.261   3.349
 6453SOL    HW120039   4.244   2.200   3.353
 6453SOL    HW220040   4.093   2.206   3.362
 6454SOL     OW20041   3.943   3.575   2.337
 6454SOL    HW120042   3.965   3.652   2.390
 6454SOL    HW220043   4.015   3.568   2.274
 6455SOL     OW20044   3.953   3.302   2.396
 6455SOL    HW120045   3.936   3.396   2.402
 6455SOL    HW220046   3.893   3.262   2.458
 6456SOL     OW20047   3.974   2.951   2.748
 6456SOL    HW120048   3.978   2.866   2.793
 6456SOL    HW220049   3.921   3.006   2.806
 6457SOL     OW20050   4.360   3.659   3.314
 6457SOL    HW120051   4.274   3.626   3.339
 6457SOL    HW220052   4.350   3.755   3.316
 6458SOL     OW20053   4.310   2.847   1.999
 6458SOL    HW120054   4.339   2.900   1.925
 6458SOL    HW220055   4.378   2.859   2.066
 6459SOL     OW20056   3.839   2.513   2.422
 6459SOL    HW120057   3.808   2.425   2.443
 6459SOL    HW220058   3.830   2.561   2.503
 6460SOL     OW20059   3.754   3.458   1.986
 6460SOL    HW120060   3.737   3.366   2.006
 6460SOL    HW220061   3.730   3.505   2.066
 6461SOL     OW20062   3.845   2.603   3.449
 6461SOL    HW120063   3.937   2.626   3.462
 6461SOL    HW220064   3.799   2.687   3.455
 6462SOL     OW20065   4.313   3.248   2.599
 6462SOL    HW120066   4.277   3.160   2.603
 6462SOL    HW220067   4.312   3.270   2.506
 6463SOL     OW20068   0.022   1.869   2.388
 6463SOL    HW120069   0.054   1.933   2.324
 6463SOL    HW220070   4.427   1.883   2.390
 6464SOL     OW20071   3.914   2.829   3.132
 6464SOL    HW120072   3.999   2.789   3.114
 6464SOL    HW220073   3.850   2.773   3.087
 6465SOL     OW20074   4.055   2.113   3.669
 6465SOL    HW120075   4.101   2.195   3.685
 6465SOL    HW220076   3.967   2.127   3.703
 6466SOL     OW20077   4.312   2.590   2.131
 6466SOL    HW120078   4.312   2.666   2.073
 6466SOL    HW220079   4.243   2.610   2.195
 6467SOL     OW20080   3.812   2.682   2.637
 6467SOL    HW120081   3.894   2.674   2.687
 6467SOL    HW220082   3.771   2.761   2.672
 6468SOL     OW20083   3.853   3.702   3.438
 6468SOL    HW120084   3.851   3.684   3.532
 6468SOL    HW220085   3.761   3.704   3.412
 6469SOL     OW20086   4.254   2.054   2.743
 6469SOL    HW120087   4.273   2.059   2.836
 6469SOL    HW220088   4.264   2.144   2.711
 6470SOL     OW20089   4.081   3.672   2.722
 6470SOL    HW120090   4.130   3.590   2.730
 6470SOL    HW220091   4.148   3.740   2.734
 6471SOL     OW20092   4.044   2.819   2.111
 6471SOL    HW120093   4.127   2.838   2.066
 6471SOL    HW220094   4.014   2.737   2.072
 6472SOL     OW20095   4.178   3.115   3.597
 6472SOL    HW120096   4.151   3.126   3.506
 6472SOL    HW220097   4.098   3.125   3.647
 6473SOL     OW20098   3.924   2.145   3.363
 6473SOL    HW120099   3.842   2.194   3.355
 6473SOL    HW220100   3.906   2.080   3.431
 6474SOL     OW20101   4.193   3.597   2.187
 6474SOL    HW120102   4.224   3.657   2.256
 6474SOL    HW220103   4.262   3.598   2.121
 6475SOL     OW20104   3.979   3.655   3.095
 6475SOL    HW120105   4.027   3.587   3.142
 6475SOL    HW220106   3.966   3.619   3.007
 6476SOL     OW20107   4.110   2.556   2.336
 6476SOL    HW120108   4.137   2.465   2.349
 6476SOL    HW220109   4.017   2.557   2.357
 6477SOL     OW20110   4.340   1.974   1.979
 6477SOL    HW120111   4.435   1.957   1.979
 6477SOL    HW220112   4.312   1.950   1.891
 6478SOL     OW20113   0.018   3.286   2.776
 6478SOL    HW120114   0.087   3.320   2.719
 6478SOL    HW220115   4.445   3.269   2.717
 6479SOL     OW20116   4.261   1.926   2.364
 6479SOL    HW120117   4.182   1.931   2.418
 6479SOL    HW220118   4.257   2.004   2.309
 6480SOL     OW20119   4.018   1.909   2.046
 6480SOL    HW120120   4.078   1.974   2.009
 6480SOL    HW220121   4.074   1.845   2.088
 6481SOL     OW20122   0.323   2.538   3.310
 6481SOL    HW120123   0.249   2.477   3.307
 6481SOL    HW220124   0.400   2.483   3.303
 6482SOL     OW20125   4.189   3.007   2.597
 6482SOL    HW120126   4.120   2.989   2.660
 6482SOL    HW220127   4.150   2.989   2.512
 6483SOL     OW20128   3.802   2.417   3.253
 6483SOL    HW120129   3.893   2.415   3.225
 6483SOL    HW220130   3.797   2.487   3.318
 6484SOL     OW20131   4.284   2.075   3.011
 6484SOL    HW120132   4.325   2.005   3.063
 6484SOL    HW220133   4.198   2.086   3.050
 6485SOL     OW20134   4.230   3.249   2.034
 6485SOL    HW120135   4.146   3.234   2.077
 6485SOL    HW220136   4.208   3.265   1.943
 6486SOL     OW20137   4.246   2.127   2.184
 6486SOL    HW120138   4.287   2.073   2.117
 6486SOL    HW220139   4.228   2.210   2.140
 6487SOL     OW20140   4.139   2.674   3.112
 6487SOL    HW120141   4.206   2.685   3.179
 6487SOL    HW220142   4.104   2.586   3.126
 6488SOL     OW20143   3.792   3.434   3.213
 6488SOL    HW120144   3.759   3.507   3.159
 6488SOL    HW220145   3.888   3.442   3.207
 6489SOL     OW20146   4.074   2.969   2.353
 6489SOL    HW120147   4.076   3.042   2.291
 6489SOL    HW220148   4.073   2.891   2.298
 6490SOL     OW20149   4.298   2.401   2.725
 6490SOL    HW120150   4.300   2.467   2.656
 6490SOL    HW220151   4.362   2.431   2.790
 6491SOL     OW20152   4.073   3.393   3.180
 6491SOL    HW120153   4.066   3.350   3.095
 6491SOL    HW220154   4.167   3.396   3.198
 6492SOL     OW20155   4.136   2.605   3.466
 6492SOL    HW120156   4.195   2.650   3.406
 6492SOL    HW220157   4.178   2.521   3.483
 6493SOL     OW20158   4.231   1.914   3.596
 6493SOL    HW120159   4.186   1.853   3.537
 6493SOL    HW220160   4.165   1.981   3.617
 6494SOL     OW20161   4.291   2.749   2.888
 6494SOL    HW120162   4.323   2.838   2.902
 6494SOL    HW220163   4.243   2.728   2.968
 6495SOL     OW20164   4.025   2.063   3.109
 6495SOL    HW120165   3.986   2.095   3.190
 6495SOL    HW220166   4.005   1.970   3.108
 6496SOL     OW20167   3.770   3.172   3.139
 6496SOL    HW120168   3.803   3.119   3.211
 6496SOL    HW220169   3.777   3.262   3.171
 6497SOL     OW20170   4.020   1.929   2.487
 6497SOL    HW120171   4.005   2.020   2.512
 6497SOL    HW220172   4.031   1.883   2.570
 6498SOL     OW20173   4.076   2.777   3.670
 6498SOL    HW120174   4.158   2.793   3.716
 6498SOL    HW220175   4.099   2.714   3.602
 6499SOL     OW20176   4.032   2.671   2.808
 6499SOL    HW120177   4.123   2.698   2.808
 6499SOL    HW220178   4.033   2.581   2.841
 6500SOL     OW20179   4.062   2.387   2.871
 6500SOL    HW120180   4.026   2.300   2.855
 6500SOL    HW220181   4.141   2.390   2.816
 6501SOL     OW20182   3.729   3.184   2.057
 6501SOL    HW120183   3.642   3.198   2.020
 6501SOL    HW220184   3.727   3.094   2.091
 6502SOL     OW20185   3.815   3.651   2.799
 6502SOL    HW120186   3.785   3.571   2.756
 6502SOL    HW220187   3.905   3.663   2.768
 6503SOL     OW20188   4.232   3.444   2.767
 6503SOL    HW120189   4.317   3.479   2.794
 6503SOL    HW220190   4.253   3.372   2.708
 6504SOL     OW20191   3.759   2.406   2.978
 6504SOL    HW120192   3.839   2.388   2.929
 6504SOL    HW220193   3.788   2.410   3.069
 6505SOL     OW20194   3.915   2.380   3.588
 6505SOL    HW120195   3.972   2.344   3.521
 6505SOL    HW220196   3.869   2.452   3.545
 6506SOL     OW20197   0.034   2.420   2.127
 6506SOL    HW120198   0.020   2.344   2.184
 6506SOL    HW220199   4.465   2.482   2.152
 6507SOL     OW20200   3.971   3.415   3.591
 6507SOL    HW120201   3.944   3.479   3.658
 6507SOL    HW220202   3.968   3.331   3.636
 6508SOL     OW20203   4.191   2.355   2.051
 6508SOL    HW120204   4.249   2.429   2.070
 6508SOL    HW220205   4.105   2.394   2.038
 6509SOL     OW20206   3.872   3.002   3.334
 6509SOL    HW120207   3.875   2.948   3.413
 6509SOL    HW220208   3.888   2.939   3.262
 6510SOL     OW20209   3.808   3.130   2.875
 6510SOL    HW120210   3.793   3.140   2.970
 6510SOL    HW220211   3.736   3.074   2.846
 6511SOL     OW20212   4.389   3.514   3.564
 6511SOL    HW120213   4.356   3.600   3.588
 6511SOL    HW220214   4.439   3.528   3.484
 6512SOL     OW20215   3.860   3.658   3.705
 6512SOL    HW120216   3.809   3.594   3.754
 6512SOL    HW220217   3.907   3.708   3.772
 6513SOL     OW20218   3.987   2.182   2.578
 6513SOL    HW120219   3.900   2.216   2.556
 6513SOL    HW220220   3.985   2.171   2.673
 6514SOL     OW20221   4.089   3.167   3.353
 6514SOL    HW120222   4.071   3.244   3.298
 6514SOL    HW220223   4.016   3.108   3.336
 6515SOL     OW20224   4.325   3.352   2.343
 6515SOL    HW120225   4.343   3.293   2.270
 6515SOL    HW220226   4.260   3.414   2.309
 6516SOL     OW20227   3.983   3.212   2.147
 6516SOL    HW120228   3.890   3.208   2.125
 6516SOL    HW220229   3.986   3.247   2.236
 6517SOL     OW20230   3.836   2.882   3.581
 6517SOL    HW120231   3.759   2.859   3.634
 6517SOL    HW220232   3.910   2.845   3.629
 6518SOL     OW20233   4.391   2.068   3.355
 6518SOL    HW120234   4.479   2.062   3.318
 6518SOL    HW220235   4.404   2.057   3.450
 6519SOL     OW20236   3.802   2.197   1.898
 6519SOL    HW120237   3.714   2.177   1.865
 6519SOL    HW220238   3.831   2.272   1.845
 6520SOL     OW20239   3.794   2.019   2.174
 6520SOL    HW120240   3.779   2.099   2.124
 6520SOL    HW220241   3.879   1.988   2.144
 6521SOL     OW20242   4.337   2.701   3.296
 6521SOL    HW120243   4.382   2.784   3.282
 6521SOL    HW220244   4.406   2.637   3.307
 6522SOL     OW20245   4.401   2.418   3.598
 6522SOL    HW120246   4.425   2.496   3.649
 6522SOL    HW220247   4.485   2.380   3.571
 6523SOL     OW20248   4.108   3.601   3.422
 6523SOL    HW120249   4.022   3.641   3.410
 6523SOL    HW220250   4.091   3.519   3.468
 6524SOL     OW20251   4.309   2.594   2.528
 6524SOL    HW120252   4.353   2.679   2.516
 6524SOL    HW220253   4.240   2.594   2.462
 6525SOL     OW20254   3.944   3.169   3.717
 6525SOL    HW120255   3.878   3.105   3.689
 6525SOL    HW220256   3.930   3.180   3.811
 6526SOL     OW20257   3.808   3.097   2.526
 6526SOL    HW120258   3.810   3.048   2.608
 6526SOL    HW220259   3.877   3.058   2.473
 6527SOL     OW20260   4.414   3.249   3.516
 6527SOL    HW120261   4.324   3.215   3.516
 6527SOL    HW220262   4.403   3.343   3.532
 6528SOL     OW20263   4.162   2.295   2.393
 6528SOL    HW120264   4.180   2.226   2.329
 6528SOL    HW220265   4.106   2.253   2.459
 6529SOL     OW20266   4.052   2.414   3.151
 6529SOL    HW120267   4.106   2.358   3.206
 6529SOL    HW220268   4.073   2.388   3.061
 6530SOL     OW20269   0.037   3.458   2.547
 6530SOL    HW120270   0.058   3.516   2.475
 6530SOL    HW220271   4.465   3.404   2.515
 6531SOL     OW20272   3.768   2.934   2.167
 6531SOL    HW120273   3.861   2.925   2.150
 6531SOL    HW220274   3.738   2.846   2.190
 6532SOL     OW20275   3.955   2.485   3.845
 6532SOL    HW120276   3.866   2.485   3.879
 6532SOL    HW220277   3.947   2.459   3.754
 6533SOL     OW20278   3.947   2.145   4.715
 6533SOL    HW120279   3.978   2.110   4.798
 6533SOL    HW220280   3.858   2.110   4.707
 6534SOL     OW20281   3.729   2.244   4.362
 6534SOL    HW120282   3.646   2.265   4.405
 6534SOL    HW220283   3.710   2.164   4.313
 6535SOL     OW20284   4.270   3.112   4.868
 6535SOL    HW120285   4.194   3.167   4.848
 6535SOL    HW220286   4.330   3.169   4.915
 6536SOL     OW20287   0.023   2.643   5.581
 6536SOL    HW120288   0.071   2.692   5.647
 6536SOL    HW220289   0.065   2.667   5.498
 6537SOL     OW20290   4.398   2.857   4.364
 6537SOL    HW120291   4.471   2.850   4.427
 6537SOL    HW220292   4.335   2.915   4.407
 6538SOL     OW20293   4.419   3.023   5.538
 6538SOL    HW120294   4.461   3.104   5.510
 6538SOL    HW220295   4.327   3.033   5.511
 6539SOL     OW20296   4.059   3.295   4.793
 6539SOL    HW120297   3.987   3.254   4.746
 6539SOL    HW220298   4.107   3.343   4.725
 6540SOL     OW20299   4.170   2.261   5.210
 6540SOL    HW120300   4.244   2.200   5.214
 6540SOL    HW220301   4.093   2.206   5.224
 6541SOL     OW20302   3.943   3.575   4.199
 6541SOL    HW120303   3.965   3.652   4.252
 6541SOL    HW220304   4.015   3.568   4.136
 6542SOL     OW20305   3.953   3.302   4.258
 6542SOL    HW120306   3.936   3.396   4.264
 6542SOL    HW220307   3.893   3.262   4.321
 6543SOL     OW20308   3.973   2.950   4.610
 6543SOL    HW120309   3.978   2.866   4.655
 6543SOL    HW220310   3.921   3.006   4.668
 6544SOL     OW20311   4.360   3.659   5.176
 6544SOL    HW120312   4.274   3.626   5.201
 6544SOL    HW220313   4.350   3.755   5.178
 6545SOL     OW20314   4.310   2.847   3.861
 6545SOL    HW120315   4.339   2.900   3.787
 6545SOL    HW220316   4.378   2.859   3.928
 6546SOL     OW20317   3.839   2.513   4.283
 6546SOL    HW120318   3.809   2.424   4.305
 6546SOL    HW220319   3.831   2.561   4.365
 6547SOL     OW20320   3.754   3.458   3.848
 6547SOL    HW120321   3.737   3.366   3.868
 6547SOL    HW220322   3.730   3.505   3.928
 6548SOL     OW20323   3.845   2.603   5.309
 6548SOL    HW120324   3.936   2.628   5.325
 6548SOL    HW220325   3.796   2.685   5.315
 6549SOL     OW20326   4.313   3.248   4.461
 6549SOL    HW120327   4.277   3.160   4.465
 6549SOL    HW220328   4.312   3.270   4.368
 6550SOL     OW20329   0.022   1.870   4.250
 6550SOL    HW120330   0.054   1.933   4.186
 6550SOL    HW220331   4.428   1.883   4.253
 6551SOL     OW20332   3.914   2.830   4.993
 6551SOL    HW120333   3.999   2.789   4.975
 6551SOL    HW220334   3.850   2.772   4.952
 6552SOL     OW20335   4.056   2.112   5.533
 6552SOL    HW120336   4.100   2.196   5.547
 6552SOL    HW220337   3.966   2.127   5.564
 6553SOL     OW20338   4.312   2.590   3.993
 6553SOL    HW120339   4.312   2.666   3.935
 6553SOL    HW220340   4.244   2.610   4.058
 6554SOL     OW20341   3.812   2.683   4.500
 6554SOL    HW120342   3.893   2.674   4.549
 6554SOL    HW220343   3.771   2.762   4.535
 6555SOL     OW20344   3.853   3.703   5.300
 6555SOL    HW120345   3.851   3.684   5.394
 6555SOL    HW220346   3.761   3.703   5.274
 6556SOL     OW20347   4.254   2.054   4.604
 6556SOL    HW120348   4.273   2.059   4.698
 6556SOL    HW220349   4.264   2.144   4.573
 6557SOL     OW20350   4.081   3.672   4.584
 6557SOL    HW120351   4.130   3.590   4.592
 6557SOL    HW220352   4.147   3.740   4.596
 6558SOL     OW20353   4.044   2.819   3.973
 6558SOL    HW120354   4.127   2.838   3.928
 6558SOL    HW220355   4.014   2.737   3.934
 6559SOL     OW20356   4.179   3.115   5.459
 6559SOL    HW120357   4.151   3.126   5.368
 6559SOL    HW220358   4.098   3.125   5.509
 6560SOL     OW20359   3.923   2.146   5.226
 6560SOL    HW120360   3.841   2.194   5.217
 6560SOL    HW220361   3.906   2.080   5.293
 6561SOL     OW20362   4.193   3.597   4.049
 6561SOL    HW120363   4.224   3.657   4.118
 6561SOL    HW220364   4.262   3.598   3.983
 6562SOL     OW20365   3.979   3.655   4.957
 6562SOL    HW120366   4.027   3.587   5.004
 6562SOL    HW220367   3.965   3.619   4.869
 6563SOL     OW20368   4.111   2.556   4.198
 6563SOL    HW120369   4.137   2.465   4.211
 6563SOL    HW220370   4.017   2.558   4.219
 6564SOL     OW20371   4.341   1.974   3.841
 6564SOL    HW120372   4.435   1.957   3.841
 6564SOL    HW220373   4.312   1.950   3.753
 6565SOL     OW20374   0.018   3.287   4.638
 6565SOL    HW120375   0.087   3.321   4.581
 6565SOL    HW220376   4.445   3.269   4.579
 6566SOL     OW20377   4.261   1.926   4.226
 6566SOL    HW120378   4.183   1.931   4.280
 6566SOL    HW220379   4.258   2.004   4.171
 6567SOL     OW20380   4.018   1.910   3.908
 6567SOL    HW120381   4.078   1.974   3.871
 6567SOL    HW220382   4.074   1.845   3.950
 6568SOL     OW20383   0.323   2.538   5.172
 6568SOL    HW120384   0.248   2.479   5.170
 6568SOL    HW220385   0.399   2.481   5.165
 6569SOL     OW20386   4.189   3.007   4.459
 6569SOL    HW120387   4.120   2.989   4.522
 6569SOL    HW220388   4.149   2.989   4.374
 6570SOL     OW20389   3.801   2.416   5.114
 6570SOL    HW120390   3.893   2.415   5.087
 6570SOL    HW220391   3.796   2.486   5.180
 6571SOL     OW20392   4.284   2.075   4.873
 6571SOL    HW120393   4.325   2.005   4.925
 6571SOL    HW220394   4.198   2.086   4.912
 6572SOL     OW20395   4.230   3.248   3.896
 6572SOL    HW120396   4.146   3.234   3.939
 6572SOL    HW220397   4.208   3.266   3.805
 6573SOL     OW20398   4.247   2.127   4.047
 6573SOL    HW120399   4.287   2.073   3.979
 6573SOL    HW220400   4.228   2.210   4.002
 6574SOL     OW20401   4.139   2.674   4.973
 6574SOL    HW120402   4.206   2.685   5.041
 6574SOL    HW220403   4.104   2.586   4.988
 6575SOL     OW20404   3.792   3.435   5.075
 6575SOL    HW120405   3.759   3.507   5.021
 6575SOL    HW220406   3.888   3.442   5.069
 6576SOL     OW20407   4.074   2.969   4.215
 6576SOL    HW120408   4.076   3.042   4.153
 6576SOL    HW220409   4.073   2.891   4.160
 6577SOL     OW20410   4.298   2.401   4.587
 6577SOL    HW120411   4.300   2.467   4.518
 6577SOL    HW220412   4.362   2.431   4.652
 6578SOL     OW20413   4.072   3.394   5.042
 6578SOL    HW120414   4.066   3.350   4.957
 6578SOL    HW220415   4.166   3.396   5.060
 6579SOL     OW20416   4.136   2.606   5.328
 6579SOL    HW120417   4.196   2.650   5.268
 6579SOL    HW220418   4.177   2.521   5.345
 6580SOL     OW20419   4.231   1.914   5.458
 6580SOL    HW120420   4.186   1.854   5.399
 6580SOL    HW220421   4.165   1.981   5.479
 6581SOL     OW20422   4.291   2.749   4.750
 6581SOL    HW120423   4.323   2.838   4.765
 6581SOL    HW220424   4.243   2.728   4.830
 6582SOL     OW20425   4.025   2.063   4.971
 6582SOL    HW120426   3.986   2.096   5.052
 6582SOL    HW220427   4.005   1.970   4.970
 6583SOL     OW20428   3.772   3.172   5.001
 6583SOL    HW120429   3.803   3.118   5.073
 6583SOL    HW220430   3.777   3.262   5.034
 6584SOL     OW20431   4.021   1.929   4.349
 6584SOL    HW120432   4.006   2.020   4.374
 6584SOL    HW220433   4.031   1.882   4.432
 6585SOL     OW20434   4.076   2.777   5.533
 6585SOL    HW120435   4.159   2.793   5.578
 6585SOL    HW220436   4.098   2.714   5.464
 6586SOL     OW20437   4.032   2.671   4.670
 6586SOL    HW120438   4.124   2.698   4.670
 6586SOL    HW220439   4.033   2.581   4.704
 6587SOL     OW20440   4.062   2.387   4.732
 6587SOL    HW120441   4.026   2.300   4.717
 6587SOL    HW220442   4.141   2.390   4.678
 6588SOL     OW20443   3.729   3.184   3.919
 6588SOL    HW120444   3.642   3.198   3.882
 6588SOL    HW220445   3.727   3.094   3.953
 6589SOL     OW20446   3.815   3.651   4.661
 6589SOL    HW120447   3.785   3.571   4.618
 6589SOL    HW220448   3.905   3.663   4.630
 6590SOL     OW20449   4.232   3.444   4.629
 6590SOL    HW120450   4.317   3.479   4.657
 6590SOL    HW220451   4.254   3.372   4.570
 6591SOL     OW20452   3.760   2.407   4.839
 6591SOL    HW120453   3.841   2.388   4.791
 6591SOL    HW220454   3.787   2.410   4.931
 6592SOL     OW20455   3.916   2.380   5.451
 6592SOL    HW120456   3.971   2.344   5.381
 6592SOL    HW220457   3.867   2.451   5.409
 6593SOL     OW20458   0.034   2.420   3.989
 6593SOL    HW120459   0.020   2.344   4.046
 6593SOL    HW220460   4.465   2.482   4.014
 6594SOL     OW20461   3.972   3.415   5.454
 6594SOL    HW120462   3.944   3.478   5.520
 6594SOL    HW220463   3.968   3.331   5.498
 6595SOL     OW20464   4.191   2.355   3.913
 6595SOL    HW120465   4.249   2.429   3.932
 6595SOL    HW220466   4.105   2.394   3.900
 6596SOL     OW20467   3.873   3.002   5.196
 6596SOL    HW120468   3.874   2.948   5.275
 6596SOL    HW220469   3.888   2.940   5.124
 6597SOL     OW20470   3.808   3.130   4.737
 6597SOL    HW120471   3.795   3.140   4.831
 6597SOL    HW220472   3.736   3.075   4.708
 6598SOL     OW20473   4.389   3.514   5.426
 6598SOL    HW120474   4.356   3.600   5.450
 6598SOL    HW220475   4.439   3.528   5.346
 6599SOL     OW20476   3.860   3.658   5.567
 6599SOL    HW120477   3.809   3.594   5.616
 6599SOL    HW220478   3.907   3.708   5.634
 6600SOL     OW20479   3.987   2.182   4.440
 6600SOL    HW120480   3.900   2.216   4.418
 6600SOL    HW220481   3.985   2.170   4.535
 6601SOL     OW20482   4.090   3.167   5.214
 6601SOL    HW120483   4.070   3.244   5.161
 6601SOL    HW220484   4.016   3.107   5.199
 6602SOL     OW20485   4.325   3.352   4.205
 6602SOL    HW120486   4.343   3.293   4.132
 6602SOL    HW220487   4.260   3.414   4.171
 6603SOL     OW20488   3.983   3.212   4.009
 6603SOL    HW120489   3.890   3.208   3.987
 6603SOL    HW220490   3.986   3.247   4.098
 6604SOL     OW20491   3.836   2.885   5.444
 6604SOL    HW120492   3.759   2.860   5.495
 6604SOL    HW220493   3.910   2.845   5.492
 6605SOL     OW20494   4.391   2.068   5.217
 6605SOL    HW120495   4.479   2.062   5.180
 6605SOL    HW220496   4.404   2.057   5.312
 6606SOL     OW20497   3.802   2.198   3.760
 6606SOL    HW120498   3.714   2.177   3.727
 6606SOL    HW220499   3.831   2.272   3.707
 6607SOL     OW20500   3.794   2.020   4.037
 6607SOL    HW120501   3.779   2.099   3.985
 6607SOL    HW220502   3.879   1.988   4.006
 6608SOL     OW20503   4.337   2.701   5.158
 6608SOL    HW120504   4.382   2.784   5.144
 6608SOL    HW220505   4.407   2.637   5.169
 6609SOL     OW20506   4.401   2.418   5.460
 6609SOL    HW120507   4.425   2.495   5.511
 6609SOL    HW220508   4.485   2.380   5.434
 6610SOL     OW20509   4.108   3.601   5.284
 6610SOL    HW120510   4.022   3.641   5.272
 6610SOL    HW220511   4.091   3.519   5.330
 6611SOL     OW20512   4.310   2.594   4.390
 6611SOL    HW120513   4.353   2.679   4.378
 6611SOL    HW220514   4.240   2.594   4.324
 6612SOL     OW20515   3.944   3.169   5.578
 6612SOL    HW120516   3.879   3.104   5.551
 6612SOL    HW220517   3.928   3.179   5.672
 6613SOL     OW20518   3.807   3.096   4.388
 6613SOL    HW120519   3.811   3.048   4.471
 6613SOL    HW220520   3.877   3.058   4.335
 6614SOL     OW20521   4.413   3.249   5.378
 6614SOL    HW120522   4.324   3.215   5.378
 6614SOL    HW220523   4.403   3.343   5.394
 6615SOL     OW20524   4.162   2.295   4.255
 6615SOL    HW120525   4.180   2.226   4.191
 6615SOL    HW220526   4.106   2.253   4.321
 6616SOL     OW20527   4.052   2.415   5.013
 6616SOL    HW120528   4.106   2.358   5.069
 6616SOL    HW220529   4.073   2.387   4.924
 6617SOL     OW20530   0.037   3.458   4.409
 6617SOL    HW120531   0.058   3.517   4.336
 6617SOL    HW220532   4.465   3.404   4.377
 6618SOL     OW20533   3.768   2.934   4.029
 6618SOL    HW120534   3.861   2.925   4.012
 6618SOL    HW220535   3.738   2.846   4.052
 6619SOL     OW20536   3.955   2.485   5.708
 6619SOL    HW120537   3.865   2.485   5.741
 6619SOL    HW220538   3.947   2.459   5.616
 6620SOL     OW20539   3.947   2.145   6.577
 6620SOL    HW120540   3.979   2.110   6.660
 6620SOL    HW220541   3.858   2.111   6.569
 6621SOL     OW20542   3.730   2.244   6.224
 6621SOL    HW120543   3.647   2.269   6.264
 6621SOL    HW220544   3.710   2.164   6.176
 6622SOL     OW20545   4.269   3.111   6.732
 6622SOL    HW120546   4.194   3.167   6.710
 6622SOL    HW220547   4.330   3.169   6.777
 6623SOL     OW20548   0.022   2.644   7.443
 6623SOL    HW120549   0.072   2.691   7.509
 6623SOL    HW220550   0.065   2.666   7.360
 6624SOL     OW20551   4.399   2.857   6.226
 6624SOL    HW120552   4.471   2.850   6.289
 6624SOL    HW220553   4.335   2.915   6.269
 6625SOL     OW20554   4.419   3.023   7.400
 6625SOL    HW120555   4.461   3.104   7.372
 6625SOL    HW220556   4.327   3.034   7.373
 6626SOL     OW20557   4.059   3.295   6.655
 6626SOL    HW120558   3.987   3.253   6.608
 6626SOL    HW220559   4.107   3.344   6.587
 6627SOL     OW20560   4.170   2.261   7.073
 6627SOL    HW120561   4.244   2.200   7.077
 6627SOL    HW220562   4.093   2.206   7.086
 6628SOL     OW20563   3.943   3.575   6.061
 6628SOL    HW120564   3.965   3.652   6.113
 6628SOL    HW220565   4.015   3.567   5.998
 6629SOL     OW20566   3.953   3.302   6.120
 6629SOL    HW120567   3.936   3.396   6.126
 6629SOL    HW220568   3.893   3.262   6.182
 6630SOL     OW20569   3.974   2.951   6.472
 6630SOL    HW120570   3.978   2.866   6.517
 6630SOL    HW220571   3.921   3.006   6.530
 6631SOL     OW20572   4.360   3.659   7.038
 6631SOL    HW120573   4.274   3.626   7.063
 6631SOL    HW220574   4.350   3.755   7.040
 6632SOL     OW20575   4.311   2.847   5.723
 6632SOL    HW120576   4.340   2.900   5.649
 6632SOL    HW220577   4.378   2.859   5.789
 6633SOL     OW20578   3.839   2.513   6.146
 6633SOL    HW120579   3.808   2.424   6.167
 6633SOL    HW220580   3.830   2.561   6.228
 6634SOL     OW20581   3.755   3.458   5.710
 6634SOL    HW120582   3.737   3.366   5.729
 6634SOL    HW220583   3.730   3.505   5.790
 6635SOL     OW20584   3.845   2.603   7.173
 6635SOL    HW120585   3.937   2.626   7.186
 6635SOL    HW220586   3.799   2.687   7.179
 6636SOL     OW20587   4.313   3.248   6.323
 6636SOL    HW120588   4.277   3.160   6.327
 6636SOL    HW220589   4.312   3.270   6.230
 6637SOL     OW20590   0.022   1.869   6.112
 6637SOL    HW120591   0.054   1.933   6.048
 6637SOL    HW220592   4.427   1.883   6.115
 6638SOL     OW20593   3.914   2.829   6.856
 6638SOL    HW120594   3.998   2.789   6.838
 6638SOL    HW220595   3.850   2.773   6.811
 6639SOL     OW20596   4.055   2.112   7.394
 6639SOL    HW120597   4.101   2.195   7.409
 6639SOL    HW220598   3.967   2.127   7.427
 6640SOL     OW20599   4.312   2.591   5.855
 6640SOL    HW120600   4.312   2.666   5.797
 6640SOL    HW220601   4.243   2.609   5.919
 6641SOL     OW20602   3.813   2.682   6.361
 6641SOL    HW120603   3.894   2.674   6.411
 6641SOL    HW220604   3.771   2.761   6.396
 6642SOL     OW20605   3.853   3.703   7.162
 6642SOL    HW120606   3.851   3.684   7.256
 6642SOL    HW220607   3.761   3.703   7.136
 6643SOL     OW20608   4.254   2.054   6.467
 6643SOL    HW120609   4.273   2.059   6.560
 6643SOL    HW220610   4.264   2.143   6.434
 6644SOL     OW20611   4.081   3.672   6.446
 6644SOL    HW120612   4.130   3.590   6.454
 6644SOL    HW220613   4.148   3.740   6.458
 6645SOL     OW20614   4.044   2.818   5.835
 6645SOL    HW120615   4.126   2.837   5.789
 6645SOL    HW220616   4.013   2.737   5.796
 6646SOL     OW20617   4.178   3.115   7.321
 6646SOL    HW120618   4.151   3.126   7.230
 6646SOL    HW220619   4.098   3.125   7.372
 6647SOL     OW20620   3.924   2.145   7.087
 6647SOL    HW120621   3.842   2.194   7.079
 6647SOL    HW220622   3.906   2.081   7.156
 6648SOL     OW20623   4.193   3.597   5.911
 6648SOL    HW120624   4.224   3.657   5.980
 6648SOL    HW220625   4.262   3.598   5.845
 6649SOL     OW20626   3.978   3.655   6.819
 6649SOL    HW120627   4.027   3.587   6.866
 6649SOL    HW220628   3.966   3.619   6.731
 6650SOL     OW20629   4.111   2.556   6.060
 6650SOL    HW120630   4.137   2.465   6.073
 6650SOL    HW220631   4.017   2.557   6.081
 6651SOL     OW20632   4.340   1.973   5.703
 6651SOL    HW120633   4.435   1.957   5.702
 6651SOL    HW220634   4.311   1.950   5.615
 6652SOL     OW20635   0.018   3.286   6.500
 6652SOL    HW120636   0.087   3.320   6.443
 6652SOL    HW220637   4.445   3.269   6.441
 6653SOL     OW20638   4.261   1.926   6.088
 6653SOL    HW120639   4.182   1.931   6.142
 6653SOL    HW220640   4.258   2.004   6.033
 6654SOL     OW20641   4.017   1.909   5.771
 6654SOL    HW120642   4.077   1.974   5.732
 6654SOL    HW220643   4.075   1.845   5.812
 6655SOL     OW20644   0.322   2.539   7.033
 6655SOL    HW120645   0.249   2.477   7.032
 6655SOL    HW220646   0.400   2.483   7.027
 6656SOL     OW20647   4.189   3.007   6.321
 6656SOL    HW120648   4.119   2.989   6.384
 6656SOL    HW220649   4.150   2.989   6.236
 6657SOL     OW20650   3.802   2.417   6.977
 6657SOL    HW120651   3.893   2.415   6.949
 6657SOL    HW220652   3.797   2.487   7.042
 6658SOL     OW20653   4.284   2.075   6.735
 6658SOL    HW120654   4.325   2.005   6.787
 6658SOL    HW220655   4.198   2.086   6.774
 6659SOL     OW20656   4.230   3.249   5.758
 6659SOL    HW120657   4.146   3.234   5.801
 6659SOL    HW220658   4.208   3.265   5.666
 6660SOL     OW20659   4.247   2.127   5.909
 6660SOL    HW120660   4.286   2.073   5.841
 6660SOL    HW220661   4.228   2.210   5.865
 6661SOL     OW20662   4.139   2.674   6.836
 6661SOL    HW120663   4.206   2.685   6.903
 6661SOL    HW220664   4.104   2.586   6.850
 6662SOL     OW20665   3.792   3.435   6.937
 6662SOL    HW120666   3.759   3.507   6.883
 6662SOL    HW220667   3.888   3.442   6.931
 6663SOL     OW20668   4.074   2.969   6.077
 6663SOL    HW120669   4.076   3.042   6.014
 6663SOL    HW220670   4.073   2.891   6.022
 6664SOL     OW20671   4.298   2.401   6.449
 6664SOL    HW120672   4.300   2.467   6.380
 6664SOL    HW220673   4.362   2.431   6.514
 6665SOL     OW20674   4.073   3.393   6.904
 6665SOL    HW120675   4.066   3.350   6.819
 6665SOL    HW220676   4.167   3.396   6.922
 6666SOL     OW20677   4.136   2.605   7.190
 6666SOL    HW120678   4.195   2.650   7.130
 6666SOL    HW220679   4.178   2.521   7.207
 6667SOL     OW20680   4.231   1.914   7.320
 6667SOL    HW120681   4.186   1.854   7.261
 6667SOL    HW220682   4.165   1.981   7.341
 6668SOL     OW20683   4.291   2.749   6.612
 6668SOL    HW120684   4.323   2.838   6.626
 6668SOL    HW220685   4.243   2.728   6.692
 6669SOL     OW20686   4.025   2.063   6.833
 6669SOL    HW120687   3.986   2.095   6.914
 6669SOL    HW220688   4.005   1.970   6.832
 6670SOL     OW20689   3.770   3.172   6.863
 6670SOL    HW120690   3.803   3.119   6.935
 6670SOL    HW220691   3.777   3.262   6.895
 6671SOL     OW20692   4.020   1.928   6.211
 6671SOL    HW120693   4.005   2.020   6.236
 6671SOL    HW220694   4.031   1.883   6.294
 6672SOL     OW20695   4.076   2.777   7.394
 6672SOL    HW120696   4.158   2.793   7.440
 6672SOL    HW220697   4.099   2.714   7.326
 6673SOL     OW20698   4.032   2.671   6.533
 6673SOL    HW120699   4.123   2.698   6.532
 6673SOL    HW220700   4.033   2.581   6.565
 6674SOL     OW20701   4.062   2.387   6.595
 6674SOL    HW120702   4.026   2.300   6.579
 6674SOL    HW220703   4.141   2.390   6.540
 6675SOL     OW20704   3.729   3.184   5.782
 6675SOL    HW120705   3.643   3.198   5.744
 6675SOL    HW220706   3.727   3.094   5.815
 6676SOL     OW20707   3.815   3.651   6.523
 6676SOL    HW120708   3.785   3.571   6.480
 6676SOL    HW220709   3.905   3.663   6.492
 6677SOL     OW20710   4.232   3.444   6.491
 6677SOL    HW120711   4.317   3.479   6.518
 6677SOL    HW220712   4.253   3.372   6.432
 6678SOL     OW20713   3.759   2.405   6.702
 6678SOL    HW120714   3.839   2.388   6.653
 6678SOL    HW220715   3.788   2.410   6.793
 6679SOL     OW20716   3.915   2.380   7.312
 6679SOL    HW120717   3.972   2.344   7.245
 6679SOL    HW220718   3.869   2.452   7.269
 6680SOL     OW20719   0.034   2.420   5.851
 6680SOL    HW120720   0.019   2.345   5.909
 6680SOL    HW220721   4.465   2.482   5.876
 6681SOL     OW20722   3.971   3.415   7.315
 6681SOL    HW120723   3.944   3.479   7.382
 6681SOL    HW220724   3.968   3.331   7.360
 6682SOL     OW20725   4.191   2.355   5.776
 6682SOL    HW120726   4.249   2.429   5.794
 6682SOL    HW220727   4.105   2.394   5.762
 6683SOL     OW20728   3.872   3.002   7.058
 6683SOL    HW120729   3.875   2.948   7.137
 6683SOL    HW220730   3.888   2.939   6.986
 6684SOL     OW20731   3.808   3.130   6.599
 6684SOL    HW120732   3.793   3.140   6.694
 6684SOL    HW220733   3.736   3.074   6.570
 6685SOL     OW20734   4.389   3.514   7.288
 6685SOL    HW120735   4.356   3.600   7.312
 6685SOL    HW220736   4.440   3.528   7.208
 6686SOL     OW20737   3.860   3.658   7.429
 6686SOL    HW120738   3.809   3.594   7.478
 6686SOL    HW220739   3.907   3.708   7.496
 6687SOL     OW20740   3.987   2.182   6.302
 6687SOL    HW120741   3.901   2.216   6.280
 6687SOL    HW220742   3.985   2.171   6.397
 6688SOL     OW20743   4.089   3.167   7.077
 6688SOL    HW120744   4.071   3.244   7.022
 6688SOL    HW220745   4.016   3.108   7.060
 6689SOL     OW20746   4.325   3.352   6.067
 6689SOL    HW120747   4.343   3.293   5.994
 6689SOL    HW220748   4.260   3.414   6.033
 6690SOL     OW20749   3.983   3.212   5.871
 6690SOL    HW120750   3.890   3.208   5.849
 6690SOL    HW220751   3.985   3.247   5.961
 6691SOL     OW20752   3.836   2.882   7.306
 6691SOL    HW120753   3.759   2.859   7.358
 6691SOL    HW220754   3.910   2.845   7.353
 6692SOL     OW20755   4.391   2.068   7.079
 6692SOL    HW120756   4.479   2.063   7.042
 6692SOL    HW220757   4.405   2.057   7.174
 6693SOL     OW20758   3.801   2.196   5.621
 6693SOL    HW120759   3.713   2.177   5.588
 6693SOL    HW220760   3.830   2.272   5.570
 6694SOL     OW20761   3.794   2.019   5.899
 6694SOL    HW120762   3.778   2.099   5.848
 6694SOL    HW220763   3.879   1.988   5.868
 6695SOL     OW20764   4.337   2.701   7.020
 6695SOL    HW120765   4.382   2.784   7.006
 6695SOL    HW220766   4.407   2.637   7.031
 6696SOL     OW20767   4.401   2.418   7.322
 6696SOL    HW120768   4.424   2.496   7.373
 6696SOL    HW220769   4.485   2.381   7.296
 6697SOL     OW20770   4.108   3.601   7.146
 6697SOL    HW120771   4.022   3.641   7.134
 6697SOL    HW220772   4.091   3.519   7.192
 6698SOL     OW20773   4.309   2.594   6.252
 6698SOL    HW120774   4.353   2.679   6.240
 6698SOL    HW220775   4.240   2.593   6.186
 6699SOL     OW20776   3.944   3.169   7.441
 6699SOL    HW120777   3.878   3.105   7.413
 6699SOL    HW220778   3.930   3.180   7.535
 6700SOL     OW20779   3.807   3.097   6.250
 6700SOL    HW120780   3.810   3.048   6.332
 6700SOL    HW220781   3.876   3.058   6.196
 6701SOL     OW20782   4.413   3.249   7.240
 6701SOL    HW120783   4.324   3.215   7.240
 6701SOL    HW220784   4.403   3.343   7.256
 6702SOL     OW20785   4.163   2.295   6.118
 6702SOL    HW120786   4.180   2.226   6.053
 6702SOL    HW220787   4.106   2.253   6.183
 6703SOL     OW20788   4.052   2.414   6.875
 6703SOL    HW120789   4.106   2.358   6.930
 6703SOL    HW220790   4.073   2.388   6.785
 6704SOL     OW20791   0.037   3.458   6.271
 6704SOL    HW120792   0.058   3.516   6.199
 6704SOL    HW220793   4.465   3.404   6.239
 6705SOL     OW20794   3.768   2.934   5.891
 6705SOL    HW120795   3.861   2.924   5.874
 6705SOL    HW220796   3.737   2.847   5.914
 6706SOL     OW20797   3.955   2.485   7.570
 6706SOL    HW120798   3.865   2.485   7.603
 6706SOL    HW220799   3.946   2.459   7.478
 6707SOL     OW20800   3.947   2.145   8.439
 6707SOL    HW120801   3.979   2.110   8.522
 6707SOL    HW220802   3.858   2.111   8.431
 6708SOL     OW20803   3.729   2.244   8.086
 6708SOL    HW120804   3.646   2.268   8.127
 6708SOL    HW220805   3.709   2.164   8.038
 6709SOL     OW20806   4.269   3.111   8.593
 6709SOL    HW120807   4.194   3.167   8.572
 6709SOL    HW220808   4.330   3.169   8.639
 6710SOL     OW20809   0.022   2.644   9.305
 6710SOL    HW120810   0.072   2.691   9.371
 6710SOL    HW220811   0.065   2.666   9.222
 6711SOL     OW20812   4.398   2.857   8.088
 6711SOL    HW120813   4.471   2.850   8.151
 6711SOL    HW220814   4.335   2.915   8.131
 6712SOL     OW20815   4.418   3.023   9.262
 6712SOL    HW120816   4.461   3.104   9.234
 6712SOL    HW220817   4.327   3.034   9.235
 6713SOL     OW20818   4.059   3.295   8.517
 6713SOL    HW120819   3.987   3.253   8.470
 6713SOL    HW220820   4.107   3.344   8.449
 6714SOL     OW20821   4.170   2.261   8.935
 6714SOL    HW120822   4.244   2.201   8.939
 6714SOL    HW220823   4.093   2.205   8.948
 6715SOL     OW20824   3.943   3.575   7.923
 6715SOL    HW120825   3.965   3.652   7.976
 6715SOL    HW220826   4.015   3.568   7.860
 6716SOL     OW20827   3.953   3.302   7.982
 6716SOL    HW120828   3.936   3.396   7.988
 6716SOL    HW220829   3.893   3.262   8.044
 6717SOL     OW20830   3.973   2.950   8.334
 6717SOL    HW120831   3.978   2.866   8.379
 6717SOL    HW220832   3.921   3.006   8.392
 6718SOL     OW20833   4.360   3.659   8.899
 6718SOL    HW120834   4.274   3.626   8.925
 6718SOL    HW220835   4.350   3.755   8.902
 6719SOL     OW20836   4.310   2.847   7.585
 6719SOL    HW120837   4.339   2.900   7.511
 6719SOL    HW220838   4.378   2.859   7.652
 6720SOL     OW20839   3.839   2.513   8.008
 6720SOL    HW120840   3.808   2.425   8.029
 6720SOL    HW220841   3.830   2.562   8.089
 6721SOL     OW20842   3.754   3.458   7.572
 6721SOL    HW120843   3.737   3.366   7.592
 6721SOL    HW220844   3.730   3.505   7.652
 6722SOL     OW20845   3.845   2.603   9.035
 6722SOL    HW120846   3.937   2.626   9.048
 6722SOL    HW220847   3.799   2.687   9.041
 6723SOL     OW20848   4.313   3.248   8.185
 6723SOL    HW120849   4.277   3.160   8.189
 6723SOL    HW220850   4.312   3.270   8.092
 6724SOL     OW20851   0.022   1.869   7.974
 6724SOL    HW120852   0.054   1.933   7.910
 6724SOL    HW220853   4.427   1.883   7.976
 6725SOL     OW20854   3.914   2.829   8.718
 6725SOL    HW120855   3.999   2.789   8.700
 6725SOL    HW220856   3.851   2.773   8.673
 6726SOL     OW20857   4.055   2.113   9.255
 6726SOL    HW120858   4.101   2.195   9.271
 6726SOL    HW220859   3.967   2.127   9.289
 6727SOL     OW20860   4.312   2.590   7.717
 6727SOL    HW120861   4.312   2.666   7.659
 6727SOL    HW220862   4.243   2.610   7.781
 6728SOL     OW20863   3.812   2.682   8.223
 6728SOL    HW120864   3.894   2.674   8.273
 6728SOL    HW220865   3.771   2.761   8.258
 6729SOL     OW20866   3.853   3.703   9.024
 6729SOL    HW120867   3.851   3.684   9.118
 6729SOL    HW220868   3.761   3.704   8.998
 6730SOL     OW20869   4.253   2.054   8.329
 6730SOL    HW120870   4.273   2.059   8.422
 6730SOL    HW220871   4.264   2.144   8.297
 6731SOL     OW20872   4.081   3.672   8.308
 6731SOL    HW120873   4.130   3.590   8.316
 6731SOL    HW220874   4.148   3.740   8.320
 6732SOL     OW20875   4.044   2.819   7.697
 6732SOL    HW120876   4.127   2.838   7.652
 6732SOL    HW220877   4.014   2.737   7.658
 6733SOL     OW20878   4.178   3.115   9.183
 6733SOL    HW120879   4.151   3.126   9.092
 6733SOL    HW220880   4.098   3.125   9.234
 6734SOL     OW20881   3.924   2.145   8.949
 6734SOL    HW120882   3.842   2.194   8.941
 6734SOL    HW220883   3.907   2.081   9.018
 6735SOL     OW20884   4.193   3.597   7.773
 6735SOL    HW120885   4.224   3.657   7.842
 6735SOL    HW220886   4.262   3.598   7.707
 6736SOL     OW20887   3.978   3.655   8.681
 6736SOL    HW120888   4.027   3.587   8.728
 6736SOL    HW220889   3.966   3.619   8.593
 6737SOL     OW20890   4.110   2.556   7.922
 6737SOL    HW120891   4.137   2.465   7.935
 6737SOL    HW220892   4.017   2.557   7.943
 6738SOL     OW20893   4.340   1.973   7.565
 6738SOL    HW120894   4.435   1.957   7.565
 6738SOL    HW220895   4.312   1.950   7.477
 6739SOL     OW20896   0.018   3.286   8.362
 6739SOL    HW120897   0.087   3.320   8.306
 6739SOL    HW220898   4.445   3.269   8.303
 6740SOL     OW20899   4.261   1.926   7.950
 6740SOL    HW120900   4.182   1.931   8.004
 6740SOL    HW220901   4.257   2.005   7.895
 6741SOL     OW20902   4.018   1.909   7.632
 6741SOL    HW120903   4.078   1.974   7.595
 6741SOL    HW220904   4.074   1.845   7.674
 6742SOL     OW20905   0.322   2.539   8.895
 6742SOL    HW120906   0.249   2.477   8.893
 6742SOL    HW220907   0.400   2.483   8.889
 6743SOL     OW20908   4.189   3.008   8.183
 6743SOL    HW120909   4.120   2.989   8.246
 6743SOL    HW220910   4.150   2.989   8.098
 6744SOL     OW20911   3.802   2.417   8.839
 6744SOL    HW120912   3.893   2.415   8.811
 6744SOL    HW220913   3.797   2.487   8.904
 6745SOL     OW20914   4.284   2.075   8.597
 6745SOL    HW120915   4.325   2.005   8.649
 6745SOL    HW220916   4.198   2.085   8.636
 6746SOL     OW20917   4.230   3.248   7.620
 6746SOL    HW120918   4.146   3.234   7.663
 6746SOL    HW220919   4.208   3.266   7.529
 6747SOL     OW20920   4.246   2.127   7.771
 6747SOL    HW120921   4.287   2.073   7.703
 6747SOL    HW220922   4.228   2.210   7.726
 6748SOL     OW20923   4.139   2.674   8.698
 6748SOL    HW120924   4.206   2.685   8.765
 6748SOL    HW220925   4.105   2.586   8.712
 6749SOL     OW20926   3.792   3.434   8.799
 6749SOL    HW120927   3.759   3.507   8.745
 6749SOL    HW220928   3.888   3.442   8.793
 6750SOL     OW20929   4.074   2.969   7.939
 6750SOL    HW120930   4.076   3.042   7.877
 6750SOL    HW220931   4.073   2.891   7.884
 6751SOL     OW20932   4.298   2.401   8.311
 6751SOL    HW120933   4.300   2.467   8.242
 6751SOL    HW220934   4.362   2.431   8.376
 6752SOL     OW20935   4.073   3.393   8.766
 6752SOL    HW120936   4.066   3.350   8.681
 6752SOL    HW220937   4.167   3.396   8.784
 6753SOL     OW20938   4.136   2.605   9.052
 6753SOL    HW120939   4.195   2.650   8.992
 6753SOL    HW220940   4.178   2.521   9.069
 6754SOL     OW20941   4.231   1.914   9.182
 6754SOL    HW120942   4.187   1.854   9.123
 6754SOL    HW220943   4.165   1.981   9.203
 6755SOL     OW20944   4.291   2.749   8.474
 6755SOL    HW120945   4.323   2.838   8.488
 6755SOL    HW220946   4.243   2.728   8.554
 6756SOL     OW20947   4.025   2.063   8.695
 6756SOL    HW120948   3.986   2.095   8.776
 6756SOL    HW220949   4.005   1.969   8.694
 6757SOL     OW20950   3.770   3.172   8.725
 6757SOL    HW120951   3.803   3.119   8.797
 6757SOL    HW220952   3.777   3.262   8.757
 6758SOL     OW20953   4.020   1.929   8.073
 6758SOL    HW120954   4.005   2.020   8.098
 6758SOL    HW220955   4.031   1.882   8.156
 6759SOL     OW20956   4.076   2.777   9.256
 6759SOL    HW120957   4.158   2.793   9.302
 6759SOL    HW220958   4.099   2.714   9.188
 6760SOL     OW20959   4.032   2.671   8.394
 6760SOL    HW120960   4.123   2.698   8.394
 6760SOL    HW220961   4.033   2.581   8.427
 6761SOL     OW20962   4.062   2.387   8.457
 6761SOL    HW120963   4.026   2.300   8.441
 6761SOL    HW220964   4.141   2.391   8.402
 6762SOL     OW20965   3.729   3.184   7.643
 6762SOL    HW120966   3.642   3.198   7.606
 6762SOL    HW220967   3.727   3.094   7.677
 6763SOL     OW20968   3.815   3.651   8.385
 6763SOL    HW120969   3.785   3.571   8.342
 6763SOL    HW220970   3.905   3.663   8.354
 6764SOL     OW20971   4.232   3.444   8.353
 6764SOL    HW120972   4.317   3.479   8.381
 6764SOL    HW220973   4.254   3.372   8.294
 6765SOL     OW20974   3.759   2.405   8.564
 6765SOL    HW120975   3.839   2.388   8.515
 6765SOL    HW220976   3.788   2.411   8.655
 6766SOL     OW20977   3.914   2.380   9.174
 6766SOL    HW120978   3.972   2.344   9.107
 6766SOL    HW220979   3.869   2.452   9.131
 6767SOL     OW20980   0.034   2.420   7.713
 6767SOL    HW120981   0.020   2.345   7.771
 6767SOL    HW220982   4.465   2.482   7.738
 6768SOL     OW20983   3.971   3.415   9.177
 6768SOL    HW120984   3.944   3.479   9.244
 6768SOL    HW220985   3.968   3.331   9.222
 6769SOL     OW20986   4.191   2.355   7.637
 6769SOL    HW120987   4.249   2.429   7.656
 6769SOL    HW220988   4.105   2.394   7.624
 6770SOL     OW20989   3.872   3.002   8.920
 6770SOL    HW120990   3.875   2.948   8.999
 6770SOL    HW220991   3.888   2.939   8.848
 6771SOL     OW20992   3.808   3.130   8.461
 6771SOL    HW120993   3.793   3.140   8.556
 6771SOL    HW220994   3.736   3.074   8.432
 6772SOL     OW20995   4.389   3.514   9.150
 6772SOL    HW120996   4.356   3.600   9.174
 6772SOL    HW220997   4.440   3.528   9.070
 6773SOL     OW20998   3.860   3.658   9.291
 6773SOL    HW120999   3.809   3.594   9.340
 6773SOL    HW221000   3.907   3.708   9.358
 6774SOL     OW21001   3.987   2.182   8.164
 6774SOL    HW121002   3.901   2.216   8.142
 6774SOL    HW221003   3.985   2.171   8.259
 6775SOL     OW21004   4.089   3.167   8.939
 6775SOL    HW121005   4.071   3.244   8.884
 6775SOL    HW221006   4.016   3.108   8.922
 6776SOL     OW21007   4.325   3.352   7.929
 6776SOL    HW121008   4.343   3.293   7.856
 6776SOL    HW221009   4.260   3.414   7.894
 6777SOL     OW21010   3.983   3.212   7.733
 6777SOL    HW121011   3.890   3.208   7.711
 6777SOL    HW221012   3.986   3.247   7.822
 6778SOL     OW21013   3.836   2.882   9.167
 6778SOL    HW121014   3.759   2.859   9.220
 6778SOL    HW221015   3.910   2.845   9.215
 6779SOL     OW21016   4.391   2.068   8.941
 6779SOL    HW121017   4.479   2.063   8.904
 6779SOL    HW221018   4.405   2.057   9.036
 6780SOL     OW21019   3.802   2.197   7.484
 6780SOL    HW121020   3.714   2.177   7.450
 6780SOL    HW221021   3.831   2.272   7.431
 6781SOL     OW21022   3.794   2.019   7.760
 6781SOL    HW121023   3.779   2.099   7.710
 6781SOL    HW221024   3.879   1.988   7.730
 6782SOL     OW21025   4.337   2.701   8.882
 6782SOL    HW121026   4.382   2.784   8.868
 6782SOL    HW221027   4.407   2.637   8.893
 6783SOL     OW21028   4.401   2.418   9.184
 6783SOL    HW121029   4.424   2.496   9.235
 6783SOL    HW221030   4.485   2.381   9.157
 6784SOL     OW21031   4.108   3.601   9.008
 6784SOL    HW121032   4.022   3.641   8.996
 6784SOL    HW221033   4.091   3.519   9.054
 6785SOL     OW21034   4.309   2.594   8.114
 6785SOL    HW121035   4.353   2.679   8.102
 6785SOL    HW221036   4.240   2.594   8.048
 6786SOL     OW21037   3.944   3.169   9.303
 6786SOL    HW121038   3.878   3.105   9.276
 6786SOL    HW221039   3.930   3.180   9.397
 6787SOL     OW21040   3.808   3.097   8.112
 6787SOL    HW121041   3.811   3.048   8.194
 6787SOL    HW221042   3.877   3.058   8.059
 6788SOL     OW21043   4.413   3.249   9.102
 6788SOL    HW121044   4.324   3.215   9.102
 6788SOL    HW221045   4.403   3.343   9.118
 6789SOL     OW21046   4.162   2.295   7.979
 6789SOL    HW121047   4.180   2.226   7.915
 6789SOL    HW221048   4.106   2.253   8.045
 6790SOL     OW21049   4.052   2.414   8.737
 6790SOL    HW121050   4.106   2.358   8.792
 6790SOL    HW221051   4.073   2.388   8.647
 6791SOL     OW21052   0.037   3.458   8.133
 6791SOL    HW121053   0.058   3.517   8.061
 6791SOL    HW221054   4.465   3.404   8.101
 6792SOL     OW21055   3.768   2.934   7.753
 6792SOL    HW121056   3.861   2.925   7.736
 6792SOL    HW221057   3.738   2.846   7.776
 6793SOL     OW21058   3.955   2.485   9.432
 6793SOL    HW121059   3.865   2.485   9.465
 6793SOL    HW221060   3.946   2.459   9.340
 6794SOL     OW21061   3.947   2.145  10.301
 6794SOL    HW121062   3.979   2.110  10.384
 6794SOL    HW221063   3.858   2.111  10.293
 6795SOL     OW21064   3.729   2.244   9.948
 6795SOL    HW121065   3.646   2.269   9.989
 6795SOL    HW221066   3.709   2.164   9.900
 6796SOL     OW21067   4.269   3.111  10.456
 6796SOL    HW121068   4.195   3.167  10.434
 6796SOL    HW221069   4.330   3.170  10.501
 6797SOL     OW21070   0.025   2.672   0.077
 6797SOL    HW121071   0.099   2.712   0.122
 6797SOL    HW221072   0.056   2.656  11.088
 6798SOL     OW21073   4.399   2.857   9.950
 6798SOL    HW121074   4.470   2.850  10.013
 6798SOL    HW221075   4.335   2.915   9.993
 6799SOL     OW21076   4.060   3.295  10.379
 6799SOL    HW121077   3.987   3.254  10.332
 6799SOL    HW221078   4.107   3.343  10.311
 6800SOL     OW21079   4.176   2.262  10.799
 6800SOL    HW121080   4.244   2.195  10.799
 6800SOL    HW221081   4.095   2.215  10.817
 6801SOL     OW21082   3.943   3.575   9.785
 6801SOL    HW121083   3.965   3.652   9.837
 6801SOL    HW221084   4.015   3.568   9.722
 6802SOL     OW21085   3.953   3.302   9.844
 6802SOL    HW121086   3.936   3.396   9.850
 6802SOL    HW221087   3.893   3.262   9.906
 6803SOL     OW21088   3.974   2.951  10.196
 6803SOL    HW121089   3.978   2.866  10.242
 6803SOL    HW221090   3.921   3.006  10.254
 6804SOL     OW21091   4.357   3.661  10.757
 6804SOL    HW121092   4.269   3.631  10.783
 6804SOL    HW221093   4.352   3.756  10.766
 6805SOL     OW21094   4.310   2.847   9.447
 6805SOL    HW121095   4.339   2.900   9.373
 6805SOL    HW221096   4.378   2.859   9.514
 6806SOL     OW21097   3.839   2.513   9.870
 6806SOL    HW121098   3.808   2.425   9.891
 6806SOL    HW221099   3.830   2.562   9.951
 6807SOL     OW21100   3.754   3.458   9.434
 6807SOL    HW121101   3.737   3.366   9.454
 6807SOL    HW221102   3.730   3.505   9.514
 6808SOL     OW21103   3.848   2.589  10.913
 6808SOL    HW121104   3.941   2.611  10.909
 6808SOL    HW221105   3.803   2.673  10.906
 6809SOL     OW21106   4.313   3.248  10.047
 6809SOL    HW121107   4.277   3.160  10.051
 6809SOL    HW221108   4.312   3.270   9.954
 6810SOL     OW21109   0.022   1.869   9.836
 6810SOL    HW121110   0.054   1.933   9.772
 6810SOL    HW221111   4.427   1.883   9.838
 6811SOL     OW21112   3.914   2.828  10.578
 6811SOL    HW121113   3.998   2.787  10.560
 6811SOL    HW221114   3.850   2.771  10.535
 6812SOL     OW21115   4.064   2.119   0.013
 6812SOL    HW121116   4.115   2.194   0.044
 6812SOL    HW221117   3.973   2.142   0.034
 6813SOL     OW21118   4.312   2.590   9.579
 6813SOL    HW121119   4.312   2.666   9.521
 6813SOL    HW221120   4.243   2.610   9.643
 6814SOL     OW21121   3.812   2.683  10.085
 6814SOL    HW121122   3.894   2.674  10.135
 6814SOL    HW221123   3.771   2.762  10.120
 6815SOL     OW21124   3.855   3.701  10.894
 6815SOL    HW121125   3.836   3.668  10.982
 6815SOL    HW221126   3.769   3.706  10.851
 6816SOL     OW21127   4.253   2.054  10.191
 6816SOL    HW121128   4.273   2.060  10.285
 6816SOL    HW221129   4.264   2.144  10.159
 6817SOL     OW21130   4.081   3.672  10.170
 6817SOL    HW121131   4.130   3.590  10.178
 6817SOL    HW221132   4.147   3.740  10.182
 6818SOL     OW21133   4.044   2.819   9.559
 6818SOL    HW121134   4.127   2.838   9.514
 6818SOL    HW221135   4.014   2.737   9.520
 6819SOL     OW21136   4.179   3.124  11.053
 6819SOL    HW121137   4.153   3.135  10.962
 6819SOL    HW221138   4.106   3.077  11.093
 6820SOL     OW21139   3.927   2.145  10.807
 6820SOL    HW121140   3.845   2.194  10.801
 6820SOL    HW221141   3.912   2.081  10.876
 6821SOL     OW21142   4.193   3.597   9.635
 6821SOL    HW121143   4.224   3.657   9.704
 6821SOL    HW221144   4.262   3.598   9.569
 6822SOL     OW21145   3.979   3.655  10.544
 6822SOL    HW121146   4.027   3.587  10.591
 6822SOL    HW221147   3.966   3.619  10.456
 6823SOL     OW21148   4.110   2.556   9.784
 6823SOL    HW121149   4.137   2.465   9.797
 6823SOL    HW221150   4.017   2.558   9.805
 6824SOL     OW21151   4.340   1.974   9.427
 6824SOL    HW121152   4.435   1.957   9.427
 6824SOL    HW221153   4.312   1.950   9.339
 6825SOL     OW21154   0.018   3.287  10.224
 6825SOL    HW121155   0.087   3.320  10.167
 6825SOL    HW221156   4.445   3.270  10.165
 6826SOL     OW21157   4.261   1.926   9.812
 6826SOL    HW121158   4.182   1.931   9.866
 6826SOL    HW221159   4.257   2.005   9.757
 6827SOL     OW21160   4.018   1.909   9.494
 6827SOL    HW121161   4.078   1.974   9.457
 6827SOL    HW221162   4.074   1.845   9.536
 6828SOL     OW21163   0.311   2.541  10.760
 6828SOL    HW121164   0.246   2.471  10.772
 6828SOL    HW221165   0.394   2.494  10.752
 6829SOL     OW21166   4.189   3.007  10.045
 6829SOL    HW121167   4.120   2.989  10.108
 6829SOL    HW221168   4.150   2.989   9.960
 6830SOL     OW21169   3.801   2.416  10.703
 6830SOL    HW121170   3.892   2.415  10.676
 6830SOL    HW221171   3.797   2.479  10.775
 6831SOL     OW21172   4.285   2.075  10.460
 6831SOL    HW121173   4.324   2.003  10.508
 6831SOL    HW221174   4.197   2.085  10.498
 6832SOL     OW21175   4.230   3.248   9.482
 6832SOL    HW121176   4.146   3.234   9.525
 6832SOL    HW221177   4.208   3.266   9.391
 6833SOL     OW21178   4.246   2.127   9.632
 6833SOL    HW121179   4.287   2.073   9.565
 6833SOL    HW221180   4.228   2.210   9.588
 6834SOL     OW21181   4.139   2.674  10.559
 6834SOL    HW121182   4.207   2.684  10.627
 6834SOL    HW221183   4.105   2.586  10.574
 6835SOL     OW21184   3.792   3.437  10.659
 6835SOL    HW121185   3.761   3.508  10.604
 6835SOL    HW221186   3.888   3.442  10.653
 6836SOL     OW21187   4.074   2.969   9.801
 6836SOL    HW121188   4.076   3.042   9.739
 6836SOL    HW221189   4.073   2.891   9.746
 6837SOL     OW21190   4.298   2.401  10.174
 6837SOL    HW121191   4.301   2.467  10.105
 6837SOL    HW221192   4.362   2.430  10.238
 6838SOL     OW21193   4.072   3.392  10.628
 6838SOL    HW121194   4.066   3.349  10.543
 6838SOL    HW221195   4.166   3.395  10.646
 6839SOL     OW21196   4.134   2.598  10.905
 6839SOL    HW121197   4.197   2.644  10.848
 6839SOL    HW221198   4.165   2.508  10.907
 6840SOL     OW21199   4.291   2.749  10.336
 6840SOL    HW121200   4.323   2.839  10.350
 6840SOL    HW221201   4.243   2.728  10.416
 6841SOL     OW21202   4.025   2.063  10.556
 6841SOL    HW121203   3.989   2.096  10.638
 6841SOL    HW221204   4.005   1.970  10.556
 6842SOL     OW21205   3.773   3.173  10.586
 6842SOL    HW121206   3.801   3.119  10.659
 6842SOL    HW221207   3.776   3.263  10.620
 6843SOL     OW21208   4.020   1.929   9.935
 6843SOL    HW121209   4.005   2.020   9.960
 6843SOL    HW221210   4.031   1.882  10.018
 6844SOL     OW21211   4.080   2.780  11.095
 6844SOL    HW121212   4.164   2.796   0.038
 6844SOL    HW221213   4.099   2.713  11.029
 6845SOL     OW21214   4.032   2.671  10.256
 6845SOL    HW121215   4.123   2.698  10.255
 6845SOL    HW221216   4.033   2.581  10.289
 6846SOL     OW21217   4.062   2.387  10.319
 6846SOL    HW121218   4.026   2.300  10.303
 6846SOL    HW221219   4.141   2.391  10.265
 6847SOL     OW21220   3.729   3.184   9.505
 6847SOL    HW121221   3.642   3.198   9.468
 6847SOL    HW221222   3.727   3.094   9.539
 6848SOL     OW21223   3.815   3.651  10.247
 6848SOL    HW121224   3.785   3.571  10.204
 6848SOL    HW221225   3.905   3.663  10.216
 6849SOL     OW21226   4.232   3.444  10.215
 6849SOL    HW121227   4.317   3.479  10.242
 6849SOL    HW221228   4.254   3.372  10.156
 6850SOL     OW21229   3.760   2.406  10.426
 6850SOL    HW121230   3.840   2.388  10.378
 6850SOL    HW221231   3.788   2.411  10.518
 6851SOL     OW21232   0.034   2.420   9.575
 6851SOL    HW121233   0.020   2.345   9.633
 6851SOL    HW221234   4.465   2.482   9.600
 6852SOL     OW21235   3.979   3.428  11.055
 6852SOL    HW121236   3.923   3.464   0.023
 6852SOL    HW221237   3.978   3.334  11.070
 6853SOL     OW21238   4.191   2.355   9.499
 6853SOL    HW121239   4.249   2.429   9.518
 6853SOL    HW221240   4.105   2.394   9.486
 6854SOL     OW21241   3.877   3.000  10.780
 6854SOL    HW121242   3.871   2.944  10.857
 6854SOL    HW221243   3.890   2.938  10.707
 6855SOL     OW21244   3.808   3.131  10.323
 6855SOL    HW121245   3.795   3.141  10.417
 6855SOL    HW221246   3.736   3.074  10.294
 6856SOL     OW21247   4.396   3.529  11.006
 6856SOL    HW121248   4.319   3.584  10.991
 6856SOL    HW221249   4.432   3.514  10.918
 6857SOL     OW21250   3.987   2.182  10.026
 6857SOL    HW121251   3.901   2.216  10.004
 6857SOL    HW221252   3.985   2.171  10.121
 6858SOL     OW21253   4.085   3.169  10.809
 6858SOL    HW121254   4.072   3.243  10.749
 6858SOL    HW221255   4.015   3.108  10.787
 6859SOL     OW21256   4.325   3.352   9.791
 6859SOL    HW121257   4.343   3.293   9.718
 6859SOL    HW221258   4.260   3.414   9.757
 6860SOL     OW21259   3.983   3.212   9.595
 6860SOL    HW121260   3.890   3.208   9.573
 6860SOL    HW221261   3.986   3.247   9.684
 6861SOL     OW21262   3.837   2.874  11.020
 6861SOL    HW121263   3.766   2.858  11.083
 6861SOL    HW221264   3.916   2.844  11.064
 6862SOL     OW21265   4.396   2.065  10.808
 6862SOL    HW121266   4.476   2.069  10.755
 6862SOL    HW221267   4.426   2.074  10.898
 6863SOL     OW21268   3.802   2.197   9.346
 6863SOL    HW121269   3.714   2.177   9.313
 6863SOL    HW221270   3.831   2.272   9.293
 6864SOL     OW21271   3.794   2.019   9.622
 6864SOL    HW121272   3.779   2.099   9.572
 6864SOL    HW221273   3.879   1.988   9.592
 6865SOL     OW21274   4.337   2.700  10.744
 6865SOL    HW121275   4.380   2.785  10.729
 6865SOL    HW221276   4.409   2.638  10.748
 6866SOL     OW21277   4.114   3.596  10.870
 6866SOL    HW121278   4.034   3.647  10.863
 6866SOL    HW221279   4.090   3.520  10.923
 6867SOL     OW21280   4.309   2.595   9.976
 6867SOL    HW121281   4.353   2.679   9.964
 6867SOL    HW221282   4.240   2.594   9.910
 6868SOL     OW21283   3.808   3.097   9.974
 6868SOL    HW121284   3.810   3.048  10.057
 6868SOL    HW221285   3.877   3.058   9.921
 6869SOL     OW21286   4.405   3.254  10.941
 6869SOL    HW121287   4.330   3.205  10.974
 6869SOL    HW221288   4.398   3.340  10.982
 6870SOL     OW21289   4.162   2.295   9.841
 6870SOL    HW121290   4.180   2.226   9.777
 6870SOL    HW221291   4.106   2.253   9.907
 6871SOL     OW21292   4.052   2.414  10.599
 6871SOL    HW121293   4.106   2.357  10.654
 6871SOL    HW221294   4.073   2.388  10.510
 6872SOL     OW21295   0.037   3.458   9.995
 6872SOL    HW121296   0.058   3.517   9.923
 6872SOL    HW221297   4.465   3.404   9.963
 6873SOL     OW21298   3.768   2.934   9.615
 6873SOL    HW121299   3.861   2.925   9.598
 6873SOL    HW221300   3.738   2.846   9.638
 6874SOL     OW21301   3.928   4.296   0.089
 6874SOL    HW121302   3.897   4.352   0.161
 6874SOL    HW221303   3.941   4.356   0.016
 6875SOL     OW21304   3.947   4.005   0.990
 6875SOL    HW121305   3.978   3.970   1.074
 6875SOL    HW221306   3.857   3.971   0.982
 6876SOL     OW21307   3.729   4.102   0.643
 6876SOL    HW121308   3.645   4.129   0.681
 6876SOL    HW221309   3.708   4.025   0.591
 6877SOL     OW21310   0.060   0.014   1.858
 6877SOL    HW121311   0.112   0.081   1.902
 6877SOL    HW221312   0.075   0.029   1.765
 6878SOL     OW21313   4.171   4.118   1.483
 6878SOL    HW121314   4.246   4.059   1.491
 6878SOL    HW221315   4.095   4.063   1.501
 6879SOL     OW21316   3.814   4.365   0.558
 6879SOL    HW121317   3.797   4.276   0.589
 6879SOL    HW221318   3.864   4.406   0.628
 6880SOL     OW21319   3.842   4.473   1.584
 6880SOL    HW121320   3.912   4.489   1.647
 6880SOL    HW221321   3.809   0.061   1.563
 6881SOL     OW21322   0.022   3.734   0.531
 6881SOL    HW121323   0.055   3.793   0.463
 6881SOL    HW221324   4.427   3.745   0.529
 6882SOL     OW21325   4.055   3.976   1.805
 6882SOL    HW121326   4.100   4.058   1.827
 6882SOL    HW221327   3.966   3.987   1.839
 6883SOL     OW21328   4.253   3.915   0.881
 6883SOL    HW121329   4.272   3.920   0.975
 6883SOL    HW221330   4.264   4.004   0.849
 6884SOL     OW21331   3.923   4.007   1.503
 6884SOL    HW121332   3.838   4.051   1.493
 6884SOL    HW221333   3.908   3.941   1.571
 6885SOL     OW21334   4.093   4.387   0.413
 6885SOL    HW121335   4.130   4.313   0.460
 6885SOL    HW221336   4.021   4.418   0.468
 6886SOL     OW21337   4.342   3.844   0.116
 6886SOL    HW121338   4.433   3.816   0.122
 6886SOL    HW221339   4.314   3.817   0.028
 6887SOL     OW21340   4.262   3.789   0.501
 6887SOL    HW121341   4.182   3.792   0.554
 6887SOL    HW221342   4.257   3.867   0.446
 6888SOL     OW21343   4.010   3.771   0.198
 6888SOL    HW121344   4.054   3.826   0.133
 6888SOL    HW221345   4.076   3.707   0.224
 6889SOL     OW21346   0.357   4.396   1.521
 6889SOL    HW121347   0.288   4.370   1.459
 6889SOL    HW221348   0.427   4.333   1.507
 6890SOL     OW21349   3.799   4.279   1.392
 6890SOL    HW121350   3.890   4.272   1.363
 6890SOL    HW221351   3.799   4.353   1.453
 6891SOL     OW21352   4.284   3.937   1.149
 6891SOL    HW121353   4.326   3.868   1.201
 6891SOL    HW221354   4.198   3.948   1.188
 6892SOL     OW21355   4.248   3.993   0.324
 6892SOL    HW121356   4.281   3.934   0.256
 6892SOL    HW221357   4.231   4.075   0.279
 6893SOL     OW21358   4.153   0.010   1.268
 6893SOL    HW121359   4.218   0.009   1.338
 6893SOL    HW221360   4.112   4.424   1.272
 6894SOL     OW21361   4.302   4.263   0.870
 6894SOL    HW121362   4.312   4.331   0.803
 6894SOL    HW221363   4.368   4.284   0.936
 6895SOL     OW21364   4.231   3.776   1.734
 6895SOL    HW121365   4.186   3.716   1.675
 6895SOL    HW221366   4.165   3.843   1.754
 6896SOL     OW21367   4.025   3.925   1.247
 6896SOL    HW121368   3.987   3.957   1.328
 6896SOL    HW221369   4.004   3.831   1.246
 6897SOL     OW21370   4.021   3.791   0.625
 6897SOL    HW121371   4.005   3.882   0.650
 6897SOL    HW221372   4.031   3.745   0.708
 6898SOL     OW21373   4.040   0.013   0.923
 6898SOL    HW121374   4.118   0.069   0.929
 6898SOL    HW221375   4.058   4.441   0.982
 6899SOL     OW21376   4.067   4.242   1.016
 6899SOL    HW121377   4.028   4.157   0.996
 6899SOL    HW221378   4.144   4.247   0.959
 6900SOL     OW21379   3.760   4.270   1.115
 6900SOL    HW121380   3.840   4.251   1.066
 6900SOL    HW221381   3.787   4.273   1.206
 6901SOL     OW21382   3.916   4.244   1.719
 6901SOL    HW121383   3.971   4.198   1.656
 6901SOL    HW221384   3.861   4.301   1.664
 6902SOL     OW21385   4.500   4.293   0.279
 6902SOL    HW121386   0.032   4.212   0.319
 6902SOL    HW221387   4.481   4.350   0.353
 6903SOL     OW21388   4.197   4.217   0.177
 6903SOL    HW121389   4.248   4.288   0.215
 6903SOL    HW221390   4.107   4.248   0.179
 6904SOL     OW21391   3.987   4.045   0.717
 6904SOL    HW121392   3.899   4.075   0.695
 6904SOL    HW221393   3.984   4.031   0.812
 6905SOL     OW21394   4.392   3.928   1.494
 6905SOL    HW121395   4.480   3.928   1.457
 6905SOL    HW221396   4.405   3.922   1.588
 6906SOL     OW21397   3.802   4.051   0.054
 6906SOL    HW121398   3.733   4.045  11.087
 6906SOL    HW221399   3.831   4.142   0.050
 6907SOL     OW21400   3.793   3.883   0.315
 6907SOL    HW121401   3.778   3.959   0.258
 6907SOL    HW221402   3.875   3.846   0.284
 6908SOL     OW21403   4.407   4.272   1.742
 6908SOL    HW121404   4.427   4.355   1.785
 6908SOL    HW221405   4.492   4.237   1.716
 6909SOL     OW21406   4.172   4.153   0.541
 6909SOL    HW121407   4.186   4.085   0.475
 6909SOL    HW221408   4.110   4.113   0.603
 6910SOL     OW21409   4.047   4.264   1.291
 6910SOL    HW121410   4.102   4.208   1.345
 6910SOL    HW221411   4.069   4.239   1.201
 6911SOL     OW21412   3.951   4.295   1.987
 6911SOL    HW121413   3.887   4.356   2.021
 6911SOL    HW221414   3.939   4.298   1.892
 6912SOL     OW21415   3.947   4.004   2.852
 6912SOL    HW121416   3.978   3.970   2.936
 6912SOL    HW221417   3.857   3.971   2.844
 6913SOL     OW21418   3.729   4.101   2.506
 6913SOL    HW121419   3.646   4.129   2.544
 6913SOL    HW221420   3.707   4.024   2.453
 6914SOL     OW21421   0.060   0.014   3.720
 6914SOL    HW121422   0.112   0.081   3.764
 6914SOL    HW221423   0.074   0.029   3.627
 6915SOL     OW21424   4.171   4.118   3.345
 6915SOL    HW121425   4.246   4.059   3.353
 6915SOL    HW221426   4.095   4.063   3.363
 6916SOL     OW21427   3.806   4.369   2.425
 6916SOL    HW121428   3.798   4.278   2.453
 6916SOL    HW221429   3.866   4.408   2.489
 6917SOL     OW21430   3.842   4.473   3.446
 6917SOL    HW121431   3.912   4.489   3.509
 6917SOL    HW221432   3.809   0.060   3.425
 6918SOL     OW21433   0.022   3.730   2.388
 6918SOL    HW121434   0.054   3.794   2.325
 6918SOL    HW221435   4.427   3.744   2.390
 6919SOL     OW21436   4.055   3.976   3.667
 6919SOL    HW121437   4.100   4.058   3.689
 6919SOL    HW221438   3.967   3.987   3.701
 6920SOL     OW21439   4.253   3.914   2.743
 6920SOL    HW121440   4.272   3.920   2.837
 6920SOL    HW221441   4.265   4.003   2.710
 6921SOL     OW21442   3.923   4.007   3.365
 6921SOL    HW121443   3.838   4.051   3.355
 6921SOL    HW221444   3.907   3.942   3.434
 6922SOL     OW21445   4.093   4.392   2.280
 6922SOL    HW121446   4.129   4.315   2.323
 6922SOL    HW221447   4.020   4.419   2.335
 6923SOL     OW21448   4.339   3.832   1.980
 6923SOL    HW121449   4.434   3.823   1.978
 6923SOL    HW221450   4.311   3.811   1.891
 6924SOL     OW21451   4.261   3.789   2.364
 6924SOL    HW121452   4.182   3.793   2.418
 6924SOL    HW221453   4.257   3.866   2.309
 6925SOL     OW21454   4.018   3.771   2.046
 6925SOL    HW121455   4.078   3.836   2.011
 6925SOL    HW221456   4.075   3.706   2.088
 6926SOL     OW21457   0.357   4.396   3.383
 6926SOL    HW121458   0.288   4.370   3.321
 6926SOL    HW221459   0.427   4.333   3.369
 6927SOL     OW21460   3.799   4.279   3.254
 6927SOL    HW121461   3.890   4.272   3.225
 6927SOL    HW221462   3.799   4.353   3.315
 6928SOL     OW21463   4.284   3.936   3.011
 6928SOL    HW121464   4.326   3.868   3.064
 6928SOL    HW221465   4.198   3.948   3.050
 6929SOL     OW21466   4.245   3.988   2.185
 6929SOL    HW121467   4.285   3.933   2.117
 6929SOL    HW221468   4.231   4.072   2.142
 6930SOL     OW21469   4.153   0.010   3.130
 6930SOL    HW121470   4.218   0.009   3.200
 6930SOL    HW221471   4.112   4.423   3.134
 6931SOL     OW21472   4.301   4.264   2.732
 6931SOL    HW121473   4.311   4.331   2.665
 6931SOL    HW221474   4.368   4.285   2.798
 6932SOL     OW21475   4.231   3.776   3.596
 6932SOL    HW121476   4.186   3.716   3.537
 6932SOL    HW221477   4.165   3.843   3.616
 6933SOL     OW21478   4.025   3.925   3.109
 6933SOL    HW121479   3.986   3.957   3.190
 6933SOL    HW221480   4.004   3.831   3.108
 6934SOL     OW21481   4.020   3.791   2.487
 6934SOL    HW121482   4.005   3.882   2.512
 6934SOL    HW221483   4.031   3.744   2.570
 6935SOL     OW21484   4.040   0.014   2.786
 6935SOL    HW121485   4.118   0.070   2.791
 6935SOL    HW221486   4.060   4.441   2.845
 6936SOL     OW21487   4.068   4.241   2.879
 6936SOL    HW121488   4.028   4.157   2.858
 6936SOL    HW221489   4.144   4.247   2.821
 6937SOL     OW21490   3.760   4.269   2.977
 6937SOL    HW121491   3.840   4.252   2.928
 6937SOL    HW221492   3.787   4.273   3.068
 6938SOL     OW21493   3.916   4.244   3.581
 6938SOL    HW121494   3.972   4.198   3.518
 6938SOL    HW221495   3.861   4.301   3.526
 6939SOL     OW21496   0.004   4.295   2.137
 6939SOL    HW121497   0.030   4.210   2.171
 6939SOL    HW221498   4.471   4.343   2.213
 6940SOL     OW21499   4.202   4.215   2.052
 6940SOL    HW121500   4.252   4.296   2.065
 6940SOL    HW221501   4.112   4.244   2.044
 6941SOL     OW21502   3.987   4.044   2.579
 6941SOL    HW121503   3.899   4.074   2.557
 6941SOL    HW221504   3.985   4.031   2.674
 6942SOL     OW21505   4.392   3.928   3.356
 6942SOL    HW121506   4.480   3.928   3.319
 6942SOL    HW221507   4.405   3.923   3.450
 6943SOL     OW21508   3.799   4.047   1.892
 6943SOL    HW121509   3.711   4.038   1.856
 6943SOL    HW221510   3.830   4.131   1.858
 6944SOL     OW21511   3.794   3.881   2.175
 6944SOL    HW121512   3.779   3.961   2.124
 6944SOL    HW221513   3.879   3.849   2.144
 6945SOL     OW21514   4.407   4.271   3.604
 6945SOL    HW121515   4.427   4.355   3.647
 6945SOL    HW221516   4.493   4.237   3.579
 6946SOL     OW21517   4.174   4.152   2.405
 6946SOL    HW121518   4.184   4.088   2.334
 6946SOL    HW221519   4.111   4.112   2.465
 6947SOL     OW21520   4.047   4.264   3.153
 6947SOL    HW121521   4.102   4.208   3.207
 6947SOL    HW221522   4.068   4.239   3.063
 6948SOL     OW21523   3.951   4.294   3.849
 6948SOL    HW121524   3.887   4.356   3.883
 6948SOL    HW221525   3.939   4.298   3.754
 6949SOL     OW21526   3.947   4.004   4.714
 6949SOL    HW121527   3.978   3.970   4.798
 6949SOL    HW221528   3.857   3.971   4.706
 6950SOL     OW21529   3.729   4.101   4.368
 6950SOL    HW121530   3.646   4.129   4.406
 6950SOL    HW221531   3.707   4.024   4.316
 6951SOL     OW21532   0.060   0.014   5.582
 6951SOL    HW121533   0.112   0.081   5.626
 6951SOL    HW221534   0.075   0.029   5.489
 6952SOL     OW21535   4.171   4.118   5.207
 6952SOL    HW121536   4.246   4.059   5.215
 6952SOL    HW221537   4.095   4.063   5.225
 6953SOL     OW21538   3.807   4.368   4.287
 6953SOL    HW121539   3.798   4.277   4.315
 6953SOL    HW221540   3.866   4.408   4.351
 6954SOL     OW21541   3.842   4.473   5.308
 6954SOL    HW121542   3.912   4.489   5.371
 6954SOL    HW221543   3.809   0.061   5.286
 6955SOL     OW21544   0.022   3.730   4.250
 6955SOL    HW121545   0.054   3.794   4.187
 6955SOL    HW221546   4.427   3.744   4.252
 6956SOL     OW21547   4.055   3.976   5.529
 6956SOL    HW121548   4.100   4.058   5.551
 6956SOL    HW221549   3.967   3.987   5.563
 6957SOL     OW21550   4.253   3.914   4.605
 6957SOL    HW121551   4.272   3.920   4.699
 6957SOL    HW221552   4.264   4.003   4.572
 6958SOL     OW21553   3.923   4.007   5.227
 6958SOL    HW121554   3.838   4.051   5.217
 6958SOL    HW221555   3.907   3.941   5.295
 6959SOL     OW21556   4.093   4.392   4.142
 6959SOL    HW121557   4.129   4.315   4.185
 6959SOL    HW221558   4.020   4.419   4.197
 6960SOL     OW21559   4.339   3.832   3.843
 6960SOL    HW121560   4.434   3.823   3.840
 6960SOL    HW221561   4.311   3.811   3.753
 6961SOL     OW21562   4.261   3.788   4.226
 6961SOL    HW121563   4.182   3.793   4.280
 6961SOL    HW221564   4.257   3.866   4.171
 6962SOL     OW21565   4.018   3.771   3.908
 6962SOL    HW121566   4.078   3.836   3.873
 6962SOL    HW221567   4.075   3.706   3.950
 6963SOL     OW21568   0.356   4.396   5.245
 6963SOL    HW121569   0.288   4.369   5.183
 6963SOL    HW221570   0.427   4.333   5.231
 6964SOL     OW21571   3.799   4.279   5.116
 6964SOL    HW121572   3.890   4.272   5.087
 6964SOL    HW221573   3.799   4.353   5.177
 6965SOL     OW21574   4.284   3.936   4.873
 6965SOL    HW121575   4.326   3.868   4.926
 6965SOL    HW221576   4.198   3.948   4.912
 6966SOL     OW21577   4.245   3.988   4.047
 6966SOL    HW121578   4.285   3.933   3.979
 6966SOL    HW221579   4.231   4.072   4.004
 6967SOL     OW21580   4.153   0.010   4.991
 6967SOL    HW121581   4.218   0.009   5.062
 6967SOL    HW221582   4.112   4.423   4.996
 6968SOL     OW21583   4.301   4.264   4.594
 6968SOL    HW121584   4.311   4.331   4.527
 6968SOL    HW221585   4.368   4.285   4.659
 6969SOL     OW21586   4.231   3.776   5.458
 6969SOL    HW121587   4.186   3.716   5.399
 6969SOL    HW221588   4.165   3.843   5.478
 6970SOL     OW21589   4.025   3.925   4.971
 6970SOL    HW121590   3.986   3.957   5.052
 6970SOL    HW221591   4.005   3.831   4.970
 6971SOL     OW21592   4.020   3.790   4.349
 6971SOL    HW121593   4.005   3.882   4.374
 6971SOL    HW221594   4.031   3.744   4.432
 6972SOL     OW21595   4.040   0.014   4.648
 6972SOL    HW121596   4.118   0.070   4.653
 6972SOL    HW221597   4.060   4.441   4.707
 6973SOL     OW21598   4.068   4.241   4.741
 6973SOL    HW121599   4.028   4.157   4.720
 6973SOL    HW221600   4.144   4.247   4.683
 6974SOL     OW21601   3.760   4.269   4.839
 6974SOL    HW121602   3.840   4.252   4.790
 6974SOL    HW221603   3.787   4.273   4.930
 6975SOL     OW21604   3.916   4.244   5.443
 6975SOL    HW121605   3.971   4.198   5.380
 6975SOL    HW221606   3.861   4.301   5.389
 6976SOL     OW21607   0.004   4.295   3.999
 6976SOL    HW121608   0.030   4.210   4.033
 6976SOL    HW221609   4.470   4.343   4.075
 6977SOL     OW21610   4.202   4.215   3.914
 6977SOL    HW121611   4.252   4.296   3.927
 6977SOL    HW221612   4.112   4.244   3.906
 6978SOL     OW21613   3.987   4.044   4.441
 6978SOL    HW121614   3.899   4.074   4.419
 6978SOL    HW221615   3.985   4.031   4.536
 6979SOL     OW21616   4.392   3.928   5.218
 6979SOL    HW121617   4.480   3.928   5.181
 6979SOL    HW221618   4.405   3.922   5.312
 6980SOL     OW21619   3.799   4.047   3.754
 6980SOL    HW121620   3.711   4.038   3.718
 6980SOL    HW221621   3.830   4.131   3.721
 6981SOL     OW21622   3.794   3.881   4.037
 6981SOL    HW121623   3.779   3.961   3.987
 6981SOL    HW221624   3.879   3.850   4.006
 6982SOL     OW21625   4.407   4.272   5.467
 6982SOL    HW121626   4.427   4.355   5.509
 6982SOL    HW221627   4.493   4.237   5.440
 6983SOL     OW21628   4.174   4.152   4.267
 6983SOL    HW121629   4.184   4.088   4.196
 6983SOL    HW221630   4.111   4.112   4.327
 6984SOL     OW21631   4.047   4.264   5.015
 6984SOL    HW121632   4.102   4.208   5.069
 6984SOL    HW221633   4.068   4.239   4.925
 6985SOL     OW21634   3.951   4.295   5.711
 6985SOL    HW121635   3.886   4.356   5.745
 6985SOL    HW221636   3.939   4.297   5.616
 6986SOL     OW21637   3.947   4.004   6.576
 6986SOL    HW121638   3.978   3.970   6.660
 6986SOL    HW221639   3.857   3.971   6.568
 6987SOL     OW21640   3.729   4.101   6.230
 6987SOL    HW121641   3.646   4.129   6.268
 6987SOL    HW221642   3.707   4.024   6.177
 6988SOL     OW21643   0.060   0.014   7.444
 6988SOL    HW121644   0.112   0.081   7.488
 6988SOL    HW221645   0.075   0.029   7.351
 6989SOL     OW21646   4.171   4.118   7.069
 6989SOL    HW121647   4.246   4.059   7.077
 6989SOL    HW221648   4.095   4.063   7.087
 6990SOL     OW21649   3.805   4.369   6.150
 6990SOL    HW121650   3.798   4.278   6.177
 6990SOL    HW221651   3.866   4.408   6.213
 6991SOL     OW21652   3.842   4.473   7.170
 6991SOL    HW121653   3.912   4.489   7.233
 6991SOL    HW221654   3.809   0.061   7.149
 6992SOL     OW21655   0.022   3.730   6.112
 6992SOL    HW121656   0.054   3.794   6.049
 6992SOL    HW221657   4.427   3.744   6.114
 6993SOL     OW21658   4.055   3.976   7.391
 6993SOL    HW121659   4.100   4.058   7.413
 6993SOL    HW221660   3.966   3.987   7.425
 6994SOL     OW21661   4.253   3.914   6.467
 6994SOL    HW121662   4.272   3.920   6.561
 6994SOL    HW221663   4.265   4.003   6.434
 6995SOL     OW21664   3.923   4.007   7.089
 6995SOL    HW121665   3.838   4.051   7.079
 6995SOL    HW221666   3.908   3.942   7.157
 6996SOL     OW21667   4.093   4.392   6.004
 6996SOL    HW121668   4.129   4.315   6.047
 6996SOL    HW221669   4.020   4.419   6.059
 6997SOL     OW21670   4.339   3.832   5.704
 6997SOL    HW121671   4.434   3.823   5.702
 6997SOL    HW221672   4.311   3.811   5.615
 6998SOL     OW21673   4.261   3.789   6.088
 6998SOL    HW121674   4.182   3.793   6.142
 6998SOL    HW221675   4.257   3.866   6.033
 6999SOL     OW21676   4.018   3.771   5.770
 6999SOL    HW121677   4.078   3.836   5.735
 6999SOL    HW221678   4.074   3.706   5.812
 7000SOL     OW21679   0.356   4.396   7.107
 7000SOL    HW121680   0.288   4.370   7.045
 7000SOL    HW221681   0.427   4.333   7.093
 7001SOL     OW21682   3.799   4.279   6.978
 7001SOL    HW121683   3.890   4.272   6.949
 7001SOL    HW221684   3.799   4.353   7.039
 7002SOL     OW21685   4.284   3.936   6.735
 7002SOL    HW121686   4.326   3.868   6.788
 7002SOL    HW221687   4.198   3.948   6.774
 7003SOL     OW21688   4.245   3.988   5.909
 7003SOL    HW121689   4.285   3.933   5.841
 7003SOL    HW221690   4.231   4.072   5.866
 7004SOL     OW21691   4.153   0.010   6.854
 7004SOL    HW121692   4.218   0.009   6.924
 7004SOL    HW221693   4.112   4.423   6.858
 7005SOL     OW21694   4.301   4.264   6.456
 7005SOL    HW121695   4.311   4.331   6.389
 7005SOL    HW221696   4.368   4.285   6.522
 7006SOL     OW21697   4.231   3.776   7.320
 7006SOL    HW121698   4.186   3.716   7.261
 7006SOL    HW221699   4.165   3.843   7.340
 7007SOL     OW21700   4.025   3.925   6.833
 7007SOL    HW121701   3.987   3.957   6.914
 7007SOL    HW221702   4.004   3.831   6.832
 7008SOL     OW21703   4.020   3.791   6.211
 7008SOL    HW121704   4.005   3.882   6.236
 7008SOL    HW221705   4.031   3.744   6.294
 7009SOL     OW21706   4.040   0.014   6.511
 7009SOL    HW121707   4.118   0.070   6.516
 7009SOL    HW221708   4.060   4.441   6.569
 7010SOL     OW21709   4.067   4.241   6.603
 7010SOL    HW121710   4.028   4.157   6.582
 7010SOL    HW221711   4.144   4.247   6.545
 7011SOL     OW21712   3.760   4.269   6.701
 7011SOL    HW121713   3.840   4.252   6.652
 7011SOL    HW221714   3.787   4.273   6.792
 7012SOL     OW21715   3.916   4.244   7.305
 7012SOL    HW121716   3.972   4.198   7.242
 7012SOL    HW221717   3.861   4.301   7.250
 7013SOL     OW21718   0.004   4.295   5.860
 7013SOL    HW121719   0.030   4.210   5.895
 7013SOL    HW221720   4.470   4.342   5.937
 7014SOL     OW21721   4.202   4.215   5.776
 7014SOL    HW121722   4.252   4.296   5.789
 7014SOL    HW221723   4.112   4.244   5.767
 7015SOL     OW21724   3.987   4.044   6.303
 7015SOL    HW121725   3.899   4.074   6.281
 7015SOL    HW221726   3.985   4.031   6.398
 7016SOL     OW21727   4.392   3.928   7.080
 7016SOL    HW121728   4.480   3.928   7.043
 7016SOL    HW221729   4.405   3.923   7.174
 7017SOL     OW21730   3.799   4.047   5.616
 7017SOL    HW121731   3.711   4.038   5.580
 7017SOL    HW221732   3.830   4.131   5.582
 7018SOL     OW21733   3.794   3.881   5.899
 7018SOL    HW121734   3.779   3.961   5.848
 7018SOL    HW221735   3.879   3.849   5.868
 7019SOL     OW21736   4.407   4.272   7.329
 7019SOL    HW121737   4.427   4.355   7.371
 7019SOL    HW221738   4.493   4.237   7.302
 7020SOL     OW21739   4.174   4.152   6.129
 7020SOL    HW121740   4.184   4.088   6.058
 7020SOL    HW221741   4.111   4.112   6.189
 7021SOL     OW21742   4.047   4.264   6.877
 7021SOL    HW121743   4.102   4.208   6.931
 7021SOL    HW221744   4.068   4.239   6.787
 7022SOL     OW21745   3.951   4.295   7.573
 7022SOL    HW121746   3.887   4.356   7.607
 7022SOL    HW221747   3.939   4.298   7.478
 7023SOL     OW21748   3.947   4.004   8.438
 7023SOL    HW121749   3.978   3.970   8.522
 7023SOL    HW221750   3.857   3.971   8.430
 7024SOL     OW21751   3.729   4.101   8.092
 7024SOL    HW121752   3.646   4.129   8.130
 7024SOL    HW221753   3.707   4.024   8.039
 7025SOL     OW21754   0.060   0.014   9.306
 7025SOL    HW121755   0.112   0.081   9.350
 7025SOL    HW221756   0.075   0.029   9.213
 7026SOL     OW21757   4.171   4.118   8.931
 7026SOL    HW121758   4.246   4.059   8.939
 7026SOL    HW221759   4.095   4.063   8.949
 7027SOL     OW21760   3.806   4.369   8.012
 7027SOL    HW121761   3.798   4.278   8.039
 7027SOL    HW221762   3.866   4.408   8.075
 7028SOL     OW21763   3.842   4.473   9.032
 7028SOL    HW121764   3.912   4.489   9.095
 7028SOL    HW221765   3.809   0.061   9.010
 7029SOL     OW21766   0.022   3.730   7.974
 7029SOL    HW121767   0.054   3.794   7.911
 7029SOL    HW221768   4.427   3.744   7.976
 7030SOL     OW21769   4.055   3.976   9.253
 7030SOL    HW121770   4.100   4.058   9.275
 7030SOL    HW221771   3.966   3.987   9.287
 7031SOL     OW21772   4.253   3.914   8.329
 7031SOL    HW121773   4.272   3.920   8.423
 7031SOL    HW221774   4.265   4.003   8.296
 7032SOL     OW21775   3.923   4.007   8.951
 7032SOL    HW121776   3.838   4.051   8.941
 7032SOL    HW221777   3.908   3.942   9.020
 7033SOL     OW21778   4.093   4.392   7.866
 7033SOL    HW121779   4.129   4.315   7.909
 7033SOL    HW221780   4.020   4.419   7.921
 7034SOL     OW21781   4.339   3.832   7.566
 7034SOL    HW121782   4.434   3.823   7.564
 7034SOL    HW221783   4.311   3.811   7.477
 7035SOL     OW21784   4.261   3.788   7.950
 7035SOL    HW121785   4.182   3.793   8.004
 7035SOL    HW221786   4.257   3.866   7.895
 7036SOL     OW21787   4.018   3.771   7.632
 7036SOL    HW121788   4.078   3.836   7.597
 7036SOL    HW221789   4.075   3.706   7.674
 7037SOL     OW21790   0.356   4.396   8.969
 7037SOL    HW121791   0.288   4.370   8.907
 7037SOL    HW221792   0.427   4.333   8.955
 7038SOL     OW21793   3.799   4.279   8.840
 7038SOL    HW121794   3.890   4.272   8.811
 7038SOL    HW221795   3.799   4.353   8.901
 7039SOL     OW21796   4.284   3.936   8.597
 7039SOL    HW121797   4.326   3.868   8.650
 7039SOL    HW221798   4.198   3.948   8.636
 7040SOL     OW21799   4.245   3.988   7.771
 7040SOL    HW121800   4.285   3.933   7.703
 7040SOL    HW221801   4.231   4.072   7.728
 7041SOL     OW21802   4.153   0.010   8.716
 7041SOL    HW121803   4.218   0.009   8.786
 7041SOL    HW221804   4.112   4.423   8.720
 7042SOL     OW21805   4.301   4.264   8.318
 7042SOL    HW121806   4.311   4.331   8.251
 7042SOL    HW221807   4.368   4.285   8.384
 7043SOL     OW21808   4.231   3.776   9.182
 7043SOL    HW121809   4.186   3.716   9.123
 7043SOL    HW221810   4.165   3.843   9.202
 7044SOL     OW21811   4.025   3.925   8.695
 7044SOL    HW121812   3.987   3.957   8.776
 7044SOL    HW221813   4.004   3.831   8.694
 7045SOL     OW21814   4.020   3.790   8.073
 7045SOL    HW121815   4.005   3.882   8.098
 7045SOL    HW221816   4.031   3.744   8.156
 7046SOL     OW21817   4.040   0.014   8.372
 7046SOL    HW121818   4.118   0.070   8.378
 7046SOL    HW221819   4.060   4.441   8.431
 7047SOL     OW21820   4.067   4.241   8.465
 7047SOL    HW121821   4.028   4.157   8.444
 7047SOL    HW221822   4.144   4.247   8.407
 7048SOL     OW21823   3.760   4.269   8.563
 7048SOL    HW121824   3.840   4.252   8.514
 7048SOL    HW221825   3.787   4.273   8.654
 7049SOL     OW21826   3.916   4.244   9.167
 7049SOL    HW121827   3.972   4.198   9.104
 7049SOL    HW221828   3.861   4.301   9.112
 7050SOL     OW21829   0.003   4.295   7.723
 7050SOL    HW121830   0.031   4.210   7.757
 7050SOL    HW221831   4.471   4.343   7.799
 7051SOL     OW21832   4.202   4.215   7.638
 7051SOL    HW121833   4.252   4.296   7.651
 7051SOL    HW221834   4.112   4.244   7.630
 7052SOL     OW21835   3.987   4.044   8.165
 7052SOL    HW121836   3.899   4.074   8.143
 7052SOL    HW221837   3.985   4.031   8.260
 7053SOL     OW21838   4.392   3.928   8.942
 7053SOL    HW121839   4.480   3.928   8.905
 7053SOL    HW221840   4.405   3.923   9.036
 7054SOL     OW21841   3.799   4.047   7.478
 7054SOL    HW121842   3.711   4.038   7.442
 7054SOL    HW221843   3.830   4.131   7.444
 7055SOL     OW21844   3.794   3.881   7.761
 7055SOL    HW121845   3.779   3.961   7.710
 7055SOL    HW221846   3.879   3.849   7.730
 7056SOL     OW21847   4.407   4.272   9.190
 7056SOL    HW121848   4.427   4.355   9.233
 7056SOL    HW221849   4.493   4.237   9.164
 7057SOL     OW21850   4.174   4.152   7.991
 7057SOL    HW121851   4.184   4.088   7.920
 7057SOL    HW221852   4.111   4.112   8.051
 7058SOL     OW21853   4.046   4.264   8.739
 7058SOL    HW121854   4.102   4.208   8.793
 7058SOL    HW221855   4.068   4.239   8.649
 7059SOL     OW21856   3.951   4.295   9.435
 7059SOL    HW121857   3.887   4.357   9.469
 7059SOL    HW221858   3.939   4.298   9.340
 7060SOL     OW21859   3.947   4.004  10.300
 7060SOL    HW121860   3.978   3.971  10.384
 7060SOL    HW221861   3.857   3.971  10.292
 7061SOL     OW21862   3.729   4.101   9.954
 7061SOL    HW121863   3.646   4.129   9.992
 7061SOL    HW221864   3.707   4.024   9.901
 7062SOL     OW21865   4.178   4.122  10.798
 7062SOL    HW121866   4.245   4.053  10.800
 7062SOL    HW221867   4.096   4.076  10.819
 7063SOL     OW21868   3.805   4.369   9.874
 7063SOL    HW121869   3.798   4.278   9.901
 7063SOL    HW221870   3.866   4.408   9.937
 7064SOL     OW21871   3.850   4.458  10.907
 7064SOL    HW121872   3.945   4.466  10.914
 7064SOL    HW221873   3.819   0.047  10.893
 7065SOL     OW21874   0.022   3.730   9.836
 7065SOL    HW121875   0.055   3.794   9.773
 7065SOL    HW221876   4.427   3.744   9.838
 7066SOL     OW21877   4.064   3.980   0.013
 7066SOL    HW121878   4.109   4.060   0.040
 7066SOL    HW221879   3.972   3.996   0.032
 7067SOL     OW21880   4.253   3.914  10.192
 7067SOL    HW121881   4.272   3.921  10.285
 7067SOL    HW221882   4.265   4.003  10.158
 7068SOL     OW21883   3.927   4.006  10.807
 7068SOL    HW121884   3.845   4.057  10.805
 7068SOL    HW221885   3.915   3.946  10.880
 7069SOL     OW21886   4.093   4.392   9.728
 7069SOL    HW121887   4.129   4.315   9.771
 7069SOL    HW221888   4.020   4.419   9.784
 7070SOL     OW21889   4.339   3.832   9.429
 7070SOL    HW121890   4.434   3.823   9.427
 7070SOL    HW221891   4.311   3.811   9.339
 7071SOL     OW21892   4.261   3.789   9.812
 7071SOL    HW121893   4.182   3.793   9.866
 7071SOL    HW221894   4.257   3.866   9.757
 7072SOL     OW21895   4.018   3.771   9.494
 7072SOL    HW121896   4.078   3.836   9.459
 7072SOL    HW221897   4.075   3.706   9.536
 7073SOL     OW21898   0.323   4.401  10.794
 7073SOL    HW121899   0.237   4.359  10.798
 7073SOL    HW221900   0.382   4.331  10.765
 7074SOL     OW21901   3.798   4.281  10.704
 7074SOL    HW121902   3.889   4.273  10.675
 7074SOL    HW221903   3.800   4.340  10.778
 7075SOL     OW21904   4.285   3.937  10.460
 7075SOL    HW121905   4.324   3.865  10.509
 7075SOL    HW221906   4.197   3.947  10.498
 7076SOL     OW21907   4.245   3.988   9.633
 7076SOL    HW121908   4.285   3.933   9.565
 7076SOL    HW221909   4.231   4.072   9.590
 7077SOL     OW21910   4.152   0.008  10.573
 7077SOL    HW121911   4.221   0.006  10.640
 7077SOL    HW221912   4.109   4.423  10.580
 7078SOL     OW21913   4.301   4.264  10.181
 7078SOL    HW121914   4.312   4.331  10.114
 7078SOL    HW221915   4.369   4.283  10.246
 7079SOL     OW21916   4.125   4.464  10.913
 7079SOL    HW121917   4.190   0.026  10.881
 7079SOL    HW221918   4.170   4.379  10.911
 7080SOL     OW21919   4.025   3.925  10.556
 7080SOL    HW121920   3.988   3.958  10.638
 7080SOL    HW221921   4.005   3.831  10.556
 7081SOL     OW21922   4.020   3.790   9.935
 7081SOL    HW121923   4.005   3.882   9.960
 7081SOL    HW221924   4.031   3.744  10.018
 7082SOL     OW21925   4.040   0.014  10.234
 7082SOL    HW121926   4.117   0.070  10.240
 7082SOL    HW221927   4.059   4.441  10.293
 7083SOL     OW21928   4.067   4.241  10.327
 7083SOL    HW121929   4.028   4.157  10.306
 7083SOL    HW221930   4.144   4.247  10.270
 7084SOL     OW21931   3.760   4.271  10.425
 7084SOL    HW121932   3.841   4.252  10.378
 7084SOL    HW221933   3.787   4.275  10.517
 7085SOL     OW21934   0.003   4.295   9.585
 7085SOL    HW121935   0.031   4.210   9.619
 7085SOL    HW221936   4.471   4.343   9.661
 7086SOL     OW21937   4.202   4.215   9.500
 7086SOL    HW121938   4.252   4.295   9.513
 7086SOL    HW221939   4.112   4.244   9.492
 7087SOL     OW21940   3.987   4.044  10.027
 7087SOL    HW121941   3.899   4.074  10.005
 7087SOL    HW221942   3.985   4.031  10.122
 7088SOL     OW21943   4.396   3.927  10.809
 7088SOL    HW121944   4.476   3.932  10.756
 7088SOL    HW221945   4.427   3.940  10.899
 7089SOL     OW21946   3.799   4.047   9.340
 7089SOL    HW121947   3.711   4.038   9.304
 7089SOL    HW221948   3.830   4.131   9.307
 7090SOL     OW21949   3.794   3.881   9.623
 7090SOL    HW121950   3.779   3.961   9.572
 7090SOL    HW221951   3.879   3.849   9.592
 7091SOL     OW21952   4.174   4.152   9.853
 7091SOL    HW121953   4.184   4.088   9.782
 7091SOL    HW221954   4.111   4.112   9.913
 7092SOL     OW21955   4.047   4.262  10.601
 7092SOL    HW121956   4.102   4.206  10.655
 7092SOL    HW221957   4.068   4.238  10.511
   4.50000   4.50000  11.10000
