2gCDOC_2PEG_l8
22257
    1LIG      O    1   2.821   2.902   8.074
    1LIG      C    2   2.805   2.887   0.135
    1LIG     C1    3   2.896   2.771   0.184
    1LIG     O1    4   2.828   2.697   0.283
    1LIG     C2    5   2.854   2.744   0.413
    1LIG     C3    6   2.756   2.860   0.450
    1LIG     O2    7   2.780   2.905   0.583
    1LIG     C4    8   2.725   2.815   0.681
    1LIG     C5    9   2.830   2.701   0.712
    1LIG     O3   10   2.816   2.646   0.839
    1LIG     C6   11   2.887   2.712   0.941
    1LIG     C7   12   2.807   2.839   0.979
    1LIG     O4   13   2.849   2.892   1.102
    1LIG     C8   14   2.781   2.832   1.209
    1LIG     C9   15   2.871   2.718   1.262
    1LIG     O5   16   2.816   2.668   1.379
    1LIG    C10   17   2.871   2.727   1.491
    1LIG    C11   18   2.784   2.850   1.529
    1LIG     O6   19   2.837   2.906   1.645
    1LIG    C12   20   2.780   2.845   1.757
    1LIG    C13   21   2.861   2.720   1.799
    1LIG     O7   22   2.804   2.667   1.915
    1LIG    C14   23   2.861   2.725   2.028
    1LIG    C15   24   2.771   2.845   2.073
    1LIG     O8   25   2.832   2.912   2.180
    1LIG    C16   26   2.780   2.867   2.301
    1LIG    C17   27   2.857   2.740   2.346
    1LIG     O9   28   2.783   2.679   2.447
    1LIG    C18   29   2.815   2.727   2.573
    1LIG    C19   30   2.731   2.851   2.613
    1LIG    O10   31   2.801   2.914   2.718
    1LIG    C20   32   2.769   2.854   2.843
    1LIG    C21   33   2.866   2.733   2.877
    1LIG    O11   34   2.800   2.644   2.967
    1LIG    C22   35   2.838   2.663   3.101
    1LIG    C23   36   2.793   2.805   3.142
    1LIG    O12   37   2.842   2.845   3.268
    1LIG    C24   38   2.768   2.797   3.375
    1LIG    C25   39   2.849   2.676   3.419
    1LIG    O13   40   2.788   2.616   3.527
    1LIG    C26   41   2.811   2.690   3.645
    1LIG    C27   42   2.695   2.792   3.671
    1LIG    O14   43   2.650   2.778   3.803
    1LIG    C28   44   2.739   2.831   3.902
    1LIG    C29   45   2.853   2.732   3.945
    1LIG    O15   46   2.810   2.649   4.051
    1LIG    C30   47   2.855   2.701   4.174
    1LIG    C31   48   2.758   2.814   4.221
    1LIG    O16   49   2.811   2.878   4.334
    1LIG    C32   50   2.761   2.824   4.453
    1LIG    C33   51   2.856   2.704   4.488
    1LIG    O17   52   2.813   2.636   4.602
    1LIG    C34   53   2.878   2.683   4.715
    1LIG    C35   54   2.815   2.819   4.749
    1LIG    O18   55   2.862   2.865   4.871
    1LIG    C36   56   2.787   2.809   4.974
    1LIG    C37   57   2.855   2.681   5.024
    1LIG    O19   58   2.817   2.658   5.155
    1LIG    C38   59   2.884   2.746   5.243
    1LIG    C39   60   2.784   2.859   5.284
    1LIG    O20   61   2.827   2.912   5.404
    1LIG    C40   62   2.767   2.840   5.508
    1LIG    C41   63   2.855   2.718   5.549
    1LIG    O21   64   2.812   2.666   5.671
    1LIG    C42   65   2.870   2.732   5.780
    1LIG    C43   66   2.776   2.849   5.823
    1LIG    O22   67   2.827   2.918   5.933
    1LIG    C44   68   2.767   2.873   6.050
    1LIG    C45   69   2.847   2.750   6.098
    1LIG    O23   70   2.774   2.687   6.198
    1LIG    C46   71   2.820   2.723   6.322
    1LIG    C47   72   2.751   2.851   6.369
    1LIG    O24   73   2.837   2.900   6.468
    1LIG    C48   74   2.804   2.839   6.590
    1LIG    C49   75   2.882   2.709   6.622
    1LIG    O25   76   2.831   2.665   6.746
    1LIG    C50   77   2.878   2.745   6.853
    1LIG    C51   78   2.771   2.856   6.895
    1LIG    O26   79   2.800   2.908   7.024
    1LIG    C52   80   2.735   2.833   7.125
    1LIG    C53   81   2.830   2.715   7.161
    1LIG    O27   82   2.795   2.650   7.282
    1LIG    C54   83   2.840   2.716   7.395
    1LIG    C55   84   2.729   2.814   7.441
    1LIG    O28   85   2.677   2.779   7.568
    1LIG    C56   86   2.749   2.834   7.677
    1LIG    C57   87   2.870   2.743   7.714
    1LIG    O29   88   2.839   2.652   7.819
    1LIG    C58   89   2.881   2.703   7.945
    1LIG    C59   90   2.766   2.788   8.008
    1LIG      H   91   2.700   2.864   0.158
    1LIG     H1   92   2.831   2.980   0.186
    1LIG     H2   93   2.991   2.810   0.221
    1LIG     H3   94   2.918   2.699   0.106
    1LIG     H4   95   2.958   2.775   0.424
    1LIG     H5   96   2.839   2.656   0.473
    1LIG     H6   97   2.651   2.829   0.439
    1LIG     H7   98   2.771   2.945   0.383
    1LIG     H8   99   2.632   2.774   0.644
    1LIG     H9  100   2.697   2.875   0.768
    1LIG    H10  101   2.932   2.737   0.698
    1LIG    H11  102   2.814   2.615   0.647
    1LIG    H12  103   2.989   2.737   0.910
    1LIG    H13  104   2.894   2.639   1.019
    1LIG    H14  105   2.700   2.816   0.980
    1LIG    H15  106   2.825   2.917   0.905
    1LIG    H16  107   2.681   2.795   1.182
    1LIG    H17  108   2.765   2.913   1.279
    1LIG    H18  109   2.974   2.753   1.277
    1LIG    H19  110   2.873   2.632   1.197
    1LIG    H20  111   2.976   2.753   1.479
    1LIG    H21  112   2.865   2.645   1.560
    1LIG    H22  113   2.678   2.823   1.539
    1LIG    H23  114   2.792   2.929   1.456
    1LIG    H24  115   2.674   2.821   1.744
    1LIG    H25  116   2.789   2.925   1.827
    1LIG    H26  117   2.967   2.745   1.810
    1LIG    H27  118   2.853   2.635   1.734
    1LIG    H28  119   2.964   2.757   2.013
    1LIG    H29  120   2.862   2.642   2.097
    1LIG    H30  121   2.669   2.812   2.094
    1LIG    H31  122   2.761   2.924   2.001
    1LIG    H32  123   2.672   2.846   2.294
    1LIG    H33  124   2.797   2.949   2.370
    1LIG    H34  125   2.960   2.762   2.375
    1LIG    H35  126   2.861   2.662   2.272
    1LIG    H36  127   2.922   2.749   2.580
    1LIG    H37  128   2.792   2.644   2.639
    1LIG    H38  129   2.630   2.822   2.641
    1LIG    H39  130   2.720   2.926   2.535
    1LIG    H40  131   2.664   2.821   2.844
    1LIG    H41  132   2.775   2.936   2.915
    1LIG    H42  133   2.960   2.768   2.920
    1LIG    H43  134   2.896   2.673   2.792
    1LIG    H44  135   2.946   2.651   3.111
    1LIG    H45  136   2.788   2.587   3.160
    1LIG    H46  137   2.686   2.820   3.134
    1LIG    H47  138   2.841   2.877   3.076
    1LIG    H48  139   2.666   2.776   3.345
    1LIG    H49  140   2.765   2.875   3.451
    1LIG    H50  141   2.952   2.704   3.442
    1LIG    H51  142   2.851   2.602   3.340
    1LIG    H52  143   2.909   2.740   3.644
    1LIG    H53  144   2.811   2.612   3.720
    1LIG    H54  145   2.612   2.771   3.604
    1LIG    H55  146   2.722   2.896   3.654
    1LIG    H56  147   2.673   2.852   3.985
    1LIG    H57  148   2.783   2.926   3.869
    1LIG    H58  149   2.938   2.792   3.978
    1LIG    H59  150   2.896   2.666   3.871
    1LIG    H60  151   2.956   2.741   4.168
    1LIG    H61  152   2.859   2.614   4.238
    1LIG    H62  153   2.657   2.781   4.240
    1LIG    H63  154   2.750   2.893   4.147
    1LIG    H64  155   2.657   2.796   4.443
    1LIG    H65  156   2.761   2.907   4.523
    1LIG    H66  157   2.960   2.737   4.495
    1LIG    H67  158   2.850   2.626   4.414
    1LIG    H68  159   2.985   2.695   4.699
    1LIG    H69  160   2.862   2.606   4.789
    1LIG    H70  161   2.705   2.813   4.746
    1LIG    H71  162   2.850   2.894   4.680
    1LIG    H72  163   2.681   2.797   4.950
    1LIG    H73  164   2.795   2.886   5.048
    1LIG    H74  165   2.963   2.697   5.019
    1LIG    H75  166   2.826   2.592   4.968
    1LIG    H76  167   2.975   2.788   5.200
    1LIG    H77  168   2.917   2.682   5.323
    1LIG    H78  169   2.680   2.823   5.288
    1LIG    H79  170   2.785   2.945   5.217
    1LIG    H80  171   2.665   2.809   5.487
    1LIG    H81  172   2.761   2.917   5.581
    1LIG    H82  173   2.961   2.745   5.551
    1LIG    H83  174   2.840   2.634   5.481
    1LIG    H84  175   2.972   2.767   5.759
    1LIG    H85  176   2.879   2.651   5.851
    1LIG    H86  177   2.673   2.816   5.836
    1LIG    H87  178   2.774   2.931   5.753
    1LIG    H88  179   2.661   2.848   6.036
    1LIG    H89  180   2.774   2.957   6.118
    1LIG    H90  181   2.950   2.777   6.126
    1LIG    H91  182   2.854   2.672   6.025
    1LIG    H92  183   2.929   2.737   6.322
    1LIG    H93  184   2.797   2.639   6.386
    1LIG    H94  185   2.650   2.830   6.404
    1LIG    H95  186   2.744   2.929   6.295
    1LIG    H96  187   2.696   2.818   6.598
    1LIG    H97  188   2.831   2.914   6.661
    1LIG    H98  189   2.989   2.729   6.629
    1LIG    H99  190   2.869   2.627   6.553
    1LIG   H100  191   2.974   2.790   6.830
    1LIG   H101  192   2.898   2.674   6.931
    1LIG   H102  193   2.669   2.816   6.888
    1LIG   H103  194   2.773   2.943   6.830
    1LIG   H104  195   2.638   2.799   7.090
    1LIG   H105  196   2.716   2.900   7.208
    1LIG   H106  197   2.935   2.746   7.161
    1LIG   H107  198   2.814   2.638   7.087
    1LIG   H108  199   2.935   2.768   7.375
    1LIG   H109  200   2.857   2.635   7.465
    1LIG   H110  201   2.646   2.808   7.371
    1LIG   H111  202   2.766   2.917   7.444
    1LIG   H112  203   2.676   2.842   7.757
    1LIG   H113  204   2.783   2.935   7.654
    1LIG   H114  205   2.956   2.805   7.739
    1LIG   H115  206   2.905   2.680   7.633
    1LIG   H116  207   2.972   2.763   7.935
    1LIG   H117  208   2.904   2.617   8.009
    1LIG   H118  209   2.691   2.822   7.938
    1LIG   H119  210   2.713   2.724   8.078
    2LIG      O  211   2.637   2.491   8.048
    2LIG      C  212   2.630   2.497   0.112
    2LIG     C1  213   2.496   2.434   0.161
    2LIG     O1  214   2.440   2.515   0.262
    2LIG     C2  215   2.469   2.464   0.389
    2LIG     C3  216   2.590   2.534   0.446
    2LIG     O2  217   2.605   2.478   0.575
    2LIG     C4  218   2.526   2.547   0.671
    2LIG     C5  219   2.407   2.466   0.727
    2LIG     O3  220   2.357   2.525   0.849
    2LIG     C6  221   2.426   2.485   0.967
    2LIG     C7  222   2.551   2.572   0.997
    2LIG     O4  223   2.635   2.506   1.087
    2LIG     C8  224   2.598   2.522   1.219
    2LIG     C9  225   2.513   2.404   1.265
    2LIG     O5  226   2.566   2.359   1.390
    2LIG    C10  227   2.507   2.429   1.500
    2LIG    C11  228   2.571   2.568   1.524
    2LIG     O6  229   2.500   2.638   1.626
    2LIG    C12  230   2.532   2.583   1.754
    2LIG    C13  231   2.429   2.473   1.788
    2LIG     O7  232   2.365   2.513   1.903
    2LIG    C14  233   2.425   2.459   2.018
    2LIG    C15  234   2.564   2.525   2.049
    2LIG     O8  235   2.615   2.474   2.170
    2LIG    C16  236   2.562   2.538   2.285
    2LIG    C17  237   2.427   2.475   2.332
    2LIG     O9  238   2.366   2.546   2.438
    2LIG    C18  239   2.395   2.486   2.560
    2LIG    C19  240   2.526   2.552   2.600
    2LIG    O10  241   2.611   2.455   2.661
    2LIG    C20  242   2.632   2.495   2.792
    2LIG    C21  243   2.501   2.475   2.866
    2LIG    O11  244   2.490   2.595   2.937
    2LIG    C22  245   2.421   2.576   3.053
    2LIG    C23  246   2.497   2.651   3.155
    2LIG    O12  247   2.428   2.647   3.278
    2LIG    C24  248   2.510   2.594   3.381
    2LIG    C25  249   2.447   2.467   3.427
    2LIG    O13  250   2.357   2.494   3.533
    2LIG    C26  251   2.403   2.430   3.650
    2LIG    C27  252   2.532   2.506   3.695
    2LIG    O14  253   2.588   2.443   3.809
    2LIG    C28  254   2.548   2.507   3.929
    2LIG    C29  255   2.391   2.504   3.942
    2LIG    O15  256   2.348   2.569   4.060
    2LIG    C30  257   2.402   2.504   4.173
    2LIG    C31  258   2.515   2.590   4.227
    2LIG    O16  259   2.592   2.511   4.319
    2LIG    C32  260   2.557   2.544   4.453
    2LIG    C33  261   2.427   2.474   4.495
    2LIG    O17  262   2.383   2.533   4.615
    2LIG    C34  263   2.439   2.469   4.729
    2LIG    C35  264   2.572   2.539   4.768
    2LIG    O18  265   2.592   2.538   4.909
    2LIG    C36  266   2.502   2.621   4.981
    2LIG    C37  267   2.379   2.537   5.026
    2LIG    O19  268   2.364   2.551   5.165
    2LIG    C38  269   2.451   2.458   5.231
    2LIG    C39  270   2.578   2.529   5.279
    2LIG    O20  271   2.622   2.468   5.399
    2LIG    C40  272   2.564   2.527   5.514
    2LIG    C41  273   2.429   2.459   5.557
    2LIG    O21  274   2.373   2.529   5.667
    2LIG    C42  275   2.425   2.486   5.792
    2LIG    C43  276   2.545   2.577   5.828
    2LIG    O22  277   2.641   2.507   5.906
    2LIG    C44  278   2.610   2.520   6.044
    2LIG    C45  279   2.496   2.425   6.081
    2LIG    O23  280   2.519   2.376   6.213
    2LIG    C46  281   2.442   2.447   6.310
    2LIG    C47  282   2.511   2.582   6.350
    2LIG    O24  283   2.456   2.638   6.472
    2LIG    C48  284   2.524   2.594   6.591
    2LIG    C49  285   2.451   2.468   6.645
    2LIG    O25  286   2.534   2.384   6.724
    2LIG    C50  287   2.514   2.406   6.863
    2LIG    C51  288   2.612   2.515   6.906
    2LIG    O26  289   2.633   2.502   7.045
    2LIG    C52  290   2.534   2.572   7.122
    2LIG    C53  291   2.418   2.479   7.156
    2LIG    O27  292   2.360   2.524   7.278
    2LIG    C54  293   2.414   2.453   7.392
    2LIG    C55  294   2.552   2.513   7.437
    2LIG    O28  295   2.608   2.448   7.552
    2LIG    C56  296   2.571   2.507   7.677
    2LIG    C57  297   2.436   2.448   7.719
    2LIG    O29  298   2.373   2.529   7.816
    2LIG    C58  299   2.412   2.492   7.946
    2LIG    C59  300   2.535   2.575   7.988
    2LIG      H  301   2.636   2.601   0.144
    2LIG     H1  302   2.715   2.446   0.157
    2LIG     H2  303   2.510   2.330   0.193
    2LIG     H3  304   2.420   2.429   0.086
    2LIG     H4  305   2.488   2.356   0.387
    2LIG     H5  306   2.384   2.482   0.453
    2LIG     H6  307   2.572   2.642   0.452
    2LIG     H7  308   2.679   2.515   0.387
    2LIG     H8  309   2.487   2.643   0.635
    2LIG     H9  310   2.600   2.570   0.743
    2LIG    H10  311   2.434   2.360   0.743
    2LIG    H11  312   2.327   2.470   0.653
    2LIG    H12  313   2.452   2.378   0.960
    2LIG    H13  314   2.359   2.498   1.052
    2LIG    H14  315   2.522   2.673   1.032
    2LIG    H15  316   2.613   2.587   0.915
    2LIG    H16  317   2.543   2.617   1.233
    2LIG    H17  318   2.688   2.521   1.277
    2LIG    H18  319   2.517   2.322   1.192
    2LIG    H19  320   2.410   2.437   1.275
    2LIG    H20  321   2.520   2.365   1.588
    2LIG    H21  322   2.400   2.444   1.484
    2LIG    H22  323   2.563   2.632   1.435
    2LIG    H23  324   2.675   2.557   1.551
    2LIG    H24  325   2.529   2.664   1.828
    2LIG    H25  326   2.633   2.540   1.755
    2LIG    H26  327   2.478   2.375   1.803
    2LIG    H27  328   2.353   2.461   1.711
    2LIG    H28  329   2.438   2.350   2.011
    2LIG    H29  330   2.351   2.481   2.090
    2LIG    H30  331   2.555   2.635   2.054
    2LIG    H31  332   2.635   2.500   1.971
    2LIG    H32  333   2.555   2.648   2.271
    2LIG    H33  334   2.638   2.517   2.360
    2LIG    H34  335   2.447   2.369   2.356
    2LIG    H35  336   2.346   2.476   2.262
    2LIG    H36  337   2.406   2.376   2.551
    2LIG    H37  338   2.316   2.507   2.632
    2LIG    H38  339   2.503   2.639   2.664
    2LIG    H39  340   2.580   2.595   2.518
    2LIG    H40  341   2.656   2.602   2.790
    2LIG    H41  342   2.712   2.443   2.841
    2LIG    H42  343   2.507   2.384   2.927
    2LIG    H43  344   2.412   2.465   2.804
    2LIG    H44  345   2.419   2.469   3.080
    2LIG    H45  346   2.324   2.620   3.037
    2LIG    H46  347   2.506   2.754   3.123
    2LIG    H47  348   2.594   2.601   3.160
    2LIG    H48  349   2.518   2.668   3.461
    2LIG    H49  350   2.611   2.567   3.347
    2LIG    H50  351   2.530   2.402   3.459
    2LIG    H51  352   2.395   2.420   3.346
    2LIG    H52  353   2.426   2.325   3.630
    2LIG    H53  354   2.322   2.432   3.721
    2LIG    H54  355   2.507   2.611   3.714
    2LIG    H55  356   2.608   2.503   3.617
    2LIG    H56  357   2.578   2.611   3.930
    2LIG    H57  358   2.599   2.457   4.011
    2LIG    H58  359   2.357   2.399   3.941
    2LIG    H59  360   2.345   2.561   3.862
    2LIG    H60  361   2.448   2.410   4.145
    2LIG    H61  362   2.321   2.485   4.242
    2LIG    H62  363   2.476   2.682   4.271
    2LIG    H63  364   2.582   2.618   4.145
    2LIG    H64  365   2.540   2.651   4.464
    2LIG    H65  366   2.637   2.511   4.517
    2LIG    H66  367   2.447   2.367   4.506
    2LIG    H67  368   2.347   2.489   4.424
    2LIG    H68  369   2.455   2.363   4.712
    2LIG    H69  370   2.361   2.477   4.804
    2LIG    H70  371   2.570   2.643   4.733
    2LIG    H71  372   2.654   2.487   4.719
    2LIG    H72  373   2.471   2.707   4.920
    2LIG    H73  374   2.555   2.660   5.067
    2LIG    H74  375   2.390   2.431   4.999
    2LIG    H75  376   2.289   2.570   4.975
    2LIG    H76  377   2.475   2.372   5.169
    2LIG    H77  378   2.397   2.418   5.314
    2LIG    H78  379   2.563   2.637   5.292
    2LIG    H79  380   2.655   2.516   5.205
    2LIG    H80  381   2.548   2.635   5.499
    2LIG    H81  382   2.639   2.511   5.590
    2LIG    H82  383   2.444   2.353   5.578
    2LIG    H83  384   2.352   2.468   5.481
    2LIG    H84  385   2.453   2.379   5.788
    2LIG    H85  386   2.347   2.497   5.868
    2LIG    H86  387   2.511   2.668   5.877
    2LIG    H87  388   2.595   2.613   5.740
    2LIG    H88  389   2.579   2.623   6.066
    2LIG    H89  390   2.698   2.494   6.102
    2LIG    H90  391   2.494   2.340   6.012
    2LIG    H91  392   2.402   2.479   6.076
    2LIG    H92  393   2.438   2.377   6.392
    2LIG    H93  394   2.340   2.465   6.277
    2LIG    H94  395   2.500   2.655   6.269
    2LIG    H95  396   2.618   2.562   6.363
    2LIG    H96  397   2.518   2.673   6.667
    2LIG    H97  398   2.630   2.574   6.572
    2LIG    H98  399   2.414   2.405   6.566
    2LIG    H99  400   2.361   2.500   6.699
    2LIG   H100  401   2.532   2.313   6.918
    2LIG   H101  402   2.412   2.439   6.883
    2LIG   H102  403   2.571   2.614   6.882
    2LIG   H103  404   2.706   2.500   6.854
    2LIG   H104  405   2.496   2.659   7.069
    2LIG   H105  406   2.580   2.610   7.212
    2LIG   H106  407   2.453   2.375   7.166
    2LIG   H107  408   2.343   2.486   7.077
    2LIG   H108  409   2.424   2.346   7.371
    2LIG   H109  410   2.336   2.466   7.465
    2LIG   H110  411   2.540   2.621   7.454
    2LIG   H111  412   2.626   2.496   7.359
    2LIG   H112  413   2.560   2.616   7.670
    2LIG   H113  414   2.648   2.485   7.752
    2LIG   H114  415   2.452   2.346   7.753
    2LIG   H115  416   2.366   2.442   7.639
    2LIG   H116  417   2.436   2.385   7.950
    2LIG   H117  418   2.328   2.511   8.013
    2LIG   H118  419   2.579   2.627   7.902
    2LIG   H119  420   2.503   2.652   8.058
    3MOL     C1  421   3.171   2.206   3.574
    3MOL     H1  422   3.191   2.100   3.595
    3MOL     O1  423   3.217   2.239   3.442
    3MOL     C2  424   3.201   2.377   3.405
    3MOL     H2  425   3.097   2.406   3.423
    3MOL     C3  426   3.232   2.389   3.254
    3MOL     H3  427   3.200   2.488   3.219
    3MOL     H4  428   3.176   2.312   3.199
    3MOL     O2  429   3.373   2.372   3.234
    3MOL     C4  430   3.413   2.397   3.100
    3MOL     C5  431   3.252   2.292   3.676
    3MOL     H5  432   3.356   2.256   3.675
    3MOL     O3  433   3.199   2.278   3.809
    3MOL     C6  434   3.226   2.151   3.869
    3MOL     C7  435   3.259   2.441   3.642
    3MOL     H6  436   3.163   2.488   3.668
    3MOL     O4  437   3.369   2.496   3.717
    3MOL     C8  438   3.328   2.582   3.823
    3MOL     C9  439   3.288   2.468   3.493
    3MOL     H7  440   3.395   2.446   3.475
    3MOL     O5  441   3.258   2.608   3.466
    3MOL    C10  442   3.355   2.683   3.389
    3MOL     H8  443   3.442   2.619   3.365
    3MOL     O6  444   3.296   2.726   3.265
    3MOL    C11  445   3.182   2.816   3.277
    3MOL     H9  446   3.105   2.765   3.334
    3MOL    C12  447   3.129   2.838   3.136
    3MOL    H10  448   3.027   2.870   3.148
    3MOL    H11  449   3.131   2.744   3.080
    3MOL     O7  450   3.196   2.943   3.065
    3MOL    C13  451   3.116   2.986   2.953
    3MOL    C14  452   3.405   2.809   3.464
    3MOL    H12  453   3.483   2.856   3.404
    3MOL     O8  454   3.459   2.771   3.593
    3MOL    C15  455   3.581   2.695   3.586
    3MOL    C16  456   3.292   2.916   3.485
    3MOL    H13  457   3.221   2.880   3.559
    3MOL     O9  458   3.354   3.040   3.526
    3MOL    C17  459   3.344   3.073   3.665
    3MOL    C18  460   3.218   2.948   3.351
    3MOL    H14  461   3.287   3.005   3.289
    3MOL    O10  462   3.095   3.025   3.380
    3MOL    C19  463   3.072   3.145   3.297
    3MOL    H15  464   3.151   3.150   3.221
    3MOL    O11  465   2.944   3.137   3.228
    3MOL    C20  466   2.829   3.130   3.315
    3MOL    H16  467   2.847   3.047   3.381
    3MOL    C21  468   2.700   3.092   3.238
    3MOL    H17  469   2.633   3.036   3.305
    3MOL    H18  470   2.730   3.028   3.157
    3MOL    O12  471   2.629   3.199   3.177
    3MOL    C22  472   2.528   3.144   3.089
    3MOL    C23  473   3.070   3.277   3.381
    3MOL    H19  474   3.061   3.362   3.312
    3MOL    O13  475   3.191   3.289   3.457
    3MOL    C24  476   3.307   3.315   3.378
    3MOL    C25  477   2.951   3.285   3.479
    3MOL    H20  478   2.971   3.217   3.561
    3MOL    O14  479   2.942   3.419   3.531
    3MOL    C26  480   2.978   3.432   3.670
    3MOL    C27  481   2.816   3.249   3.409
    3MOL    H21  482   2.777   3.335   3.353
    3MOL    O15  483   2.722   3.205   3.507
    3MOL    C28  484   2.639   3.310   3.557
    3MOL    H22  485   2.699   3.401   3.570
    3MOL    O16  486   2.531   3.334   3.465
    3MOL    C29  487   2.432   3.230   3.446
    3MOL    H23  488   2.479   3.140   3.406
    3MOL    C30  489   2.335   3.285   3.338
    3MOL    H24  490   2.265   3.208   3.306
    3MOL    H25  491   2.394   3.315   3.250
    3MOL    O17  492   2.266   3.399   3.391
    3MOL    C31  493   2.175   3.459   3.298
    3MOL    C32  494   2.583   3.269   3.693
    3MOL    H26  495   2.540   3.359   3.738
    3MOL    O18  496   2.695   3.220   3.767
    3MOL    C33  497   2.702   3.280   3.895
    3MOL    C34  498   2.474   3.160   3.687
    3MOL    H27  499   2.521   3.065   3.660
    3MOL    O19  500   2.412   3.153   3.817
    3MOL    C35  501   2.398   3.021   3.871
    3MOL    C36  502   2.366   3.196   3.582
    3MOL    H28  503   2.310   3.282   3.620
    3MOL    O20  504   2.280   3.079   3.570
    3MOL    C37  505   2.141   3.105   3.538
    3MOL    H29  506   2.121   3.212   3.541
    3MOL    O21  507   2.116   3.057   3.405
    3MOL    C38  508   2.137   2.915   3.383
    3MOL    H30  509   2.238   2.886   3.416
    3MOL    C39  510   2.126   2.889   3.232
    3MOL    H31  511   2.154   2.786   3.210
    3MOL    H32  512   2.194   2.956   3.179
    3MOL    O22  513   1.990   2.915   3.191
    3MOL    C40  514   1.964   2.873   3.056
    3MOL    C41  515   2.047   3.032   3.638
    3MOL    H33  516   1.944   3.068   3.623
    3MOL    O23  517   2.087   3.056   3.775
    3MOL    C42  518   2.050   3.183   3.832
    3MOL    C43  519   2.047   2.879   3.615
    3MOL    H34  520   2.141   2.837   3.653
    3MOL    O24  521   1.934   2.823   3.682
    3MOL    C44  522   1.962   2.749   3.800
    3MOL    C45  523   2.032   2.839   3.468
    3MOL    H35  524   1.931   2.870   3.435
    3MOL    O25  525   2.048   2.695   3.460
    3MOL    C46  526   1.946   2.621   3.386
    3MOL    H36  527   1.864   2.688   3.356
    3MOL    O26  528   2.006   2.565   3.269
    3MOL    C47  529   2.118   2.477   3.298
    3MOL    H37  530   2.191   2.532   3.359
    3MOL    C48  531   2.183   2.446   3.170
    3MOL    H38  532   2.282   2.406   3.190
    3MOL    H39  533   2.184   2.543   3.121
    3MOL    O27  534   2.113   2.356   3.085
    3MOL    C49  535   2.184   2.344   2.961
    3MOL    C50  536   1.892   2.500   3.466
    3MOL    H40  537   1.822   2.447   3.400
    3MOL    O28  538   1.820   2.542   3.584
    3MOL    C51  539   1.693   2.603   3.552
    3MOL    C52  540   2.004   2.397   3.503
    3MOL    H41  541   2.076   2.441   3.572
    3MOL    O29  542   1.942   2.278   3.554
    3MOL    C53  543   1.944   2.259   3.696
    3MOL    C54  544   2.075   2.352   3.374
    3MOL    H42  545   2.005   2.295   3.313
    3MOL    O30  546   2.194   2.271   3.405
    3MOL    C55  547   2.213   2.149   3.328
    3MOL    H43  548   2.126   2.133   3.263
    3MOL    O31  549   2.333   2.155   3.245
    3MOL    C56  550   2.462   2.157   3.314
    3MOL    H44  551   2.468   2.244   3.374
    3MOL    C57  552   2.581   2.159   3.216
    3MOL    H45  553   2.575   2.077   3.144
    3MOL    H46  554   2.673   2.146   3.274
    3MOL    O32  555   2.588   2.286   3.151
    3MOL    C58  556   2.703   2.294   3.065
    3MOL    C59  557   2.226   2.026   3.421
    3MOL    H47  558   2.230   1.937   3.359
    3MOL    O33  559   2.112   2.020   3.509
    3MOL    C60  560   1.991   1.972   3.447
    3MOL    C61  561   2.355   2.033   3.507
    3MOL    H48  562   2.350   2.120   3.573
    3MOL    O34  563   2.373   1.910   3.581
    3MOL    C62  564   2.323   1.914   3.714
    3MOL    C63  565   2.478   2.046   3.416
    3MOL    H49  566   2.501   1.951   3.366
    3MOL    O35  567   2.587   2.091   3.500
    3MOL    C64  568   2.676   1.987   3.545
    3MOL    H50  569   2.621   1.893   3.552
    3MOL    O36  570   2.785   1.975   3.452
    3MOL    C65  571   2.878   2.086   3.444
    3MOL    H51  572   2.826   2.178   3.415
    3MOL    C66  573   2.975   2.047   3.331
    3MOL    H52  574   3.014   1.946   3.349
    3MOL    H53  575   3.059   2.117   3.325
    3MOL    O37  576   2.899   2.051   3.209
    3MOL    C67  577   2.971   2.007   3.094
    3MOL    C68  578   2.730   2.020   3.685
    3MOL    H54  579   2.778   1.929   3.724
    3MOL    O38  580   2.617   2.058   3.765
    3MOL    C69  581   2.610   1.985   3.887
    3MOL    C70  582   2.833   2.135   3.688
    3MOL    H55  583   2.781   2.229   3.665
    3MOL    O39  584   2.892   2.139   3.819
    3MOL    C71  585   2.875   2.262   3.890
    3MOL    C72  586   2.944   2.111   3.583
    3MOL    H56  587   3.000   2.022   3.614
    3MOL    O40  588   3.028   2.230   3.581
    3MOL    H57  589   3.521   2.389   3.090
    3MOL    H58  590   3.365   2.325   3.033
    3MOL    H59  591   3.383   2.499   3.070
    3MOL    H60  592   2.911   2.024   3.004
    3MOL    H61  593   3.065   2.062   3.084
    3MOL    H62  594   2.993   1.900   3.102
    3MOL    H63  595   2.720   2.398   3.036
    3MOL    H64  596   2.793   2.258   3.116
    3MOL    H65  597   2.687   2.233   2.975
    3MOL    H66  598   2.122   2.295   2.885
    3MOL    H67  599   2.210   2.443   2.921
    3MOL    H68  600   2.276   2.287   2.975
    3MOL    H69  601   1.860   2.898   3.030
    3MOL    H70  602   2.031   2.924   2.987
    3MOL    H71  603   1.977   2.764   3.046
    3MOL    H72  604   2.119   3.539   3.347
    3MOL    H73  605   2.230   3.500   3.212
    3MOL    H74  606   2.104   3.384   3.261
    3MOL    H75  607   2.476   3.222   3.033
    3MOL    H76  608   2.574   3.075   3.016
    3MOL    H77  609   2.454   3.086   3.147
    3MOL    H78  610   3.164   3.071   2.902
    3MOL    H79  611   3.105   2.905   2.880
    3MOL    H80  612   3.016   3.017   2.986
    3MOL    H81  613   3.398   3.166   3.684
    3MOL    H82  614   3.239   3.086   3.693
    3MOL    H83  615   3.389   2.994   3.726
    3MOL    H84  616   3.626   2.687   3.686
    3MOL    H85  617   3.562   2.593   3.550
    3MOL    H86  618   3.652   2.743   3.518
    3MOL    H87  619   3.415   2.617   3.879
    3MOL    H88  620   3.275   2.669   3.782
    3MOL    H89  621   3.262   2.527   3.891
    3MOL    H90  622   3.202   2.155   3.976
    3MOL    H91  623   3.163   2.074   3.823
    3MOL    H92  624   3.332   2.124   3.860
    3MOL    H93  625   2.913   2.252   3.992
    3MOL    H94  626   2.929   2.343   3.839
    3MOL    H95  627   2.768   2.289   3.896
    3MOL    H96  628   2.525   2.020   3.945
    3MOL    H97  629   2.599   1.878   3.867
    3MOL    H98  630   2.704   2.002   3.942
    3MOL    H99  631   2.344   1.819   3.765
    3MOL   H100  632   2.369   1.996   3.770
    3MOL   H101  633   2.215   1.930   3.713
    3MOL   H102  634   1.914   1.956   3.523
    3MOL   H103  635   1.953   2.047   3.376
    3MOL   H104  636   2.008   1.878   3.394
    3MOL   H105  637   1.886   2.168   3.720
    3MOL   H106  638   2.047   2.245   3.731
    3MOL   H107  639   1.897   2.344   3.746
    3MOL   H108  640   1.632   2.613   3.643
    3MOL   H109  641   1.709   2.704   3.511
    3MOL   H110  642   1.637   2.544   3.479
    3MOL   H111  643   1.871   2.701   3.837
    3MOL   H112  644   2.037   2.672   3.778
    3MOL   H113  645   2.001   2.817   3.876
    3MOL   H114  646   2.058   3.180   3.941
    3MOL   H115  647   2.117   3.262   3.796
    3MOL   H116  648   1.946   3.207   3.806
    3MOL   H117  649   2.350   3.026   3.970
    3MOL   H118  650   2.337   2.959   3.805
    3MOL   H119  651   2.496   2.974   3.883
    3MOL   H120  652   2.788   3.242   3.951
    3MOL   H121  653   2.709   3.389   3.886
    3MOL   H122  654   2.609   3.255   3.946
    3MOL   H123  655   2.970   3.537   3.701
    3MOL   H124  656   2.910   3.372   3.732
    3MOL   H125  657   3.081   3.398   3.686
    3MOL   H126  658   3.395   3.323   3.443
    3MOL   H127  659   3.324   3.232   3.309
    3MOL   H128  660   3.295   3.409   3.322
    4MOL     C1  661   2.119   2.201   4.503
    4MOL     H1  662   2.091   2.096   4.485
    4MOL     O1  663   2.077   2.237   4.636
    4MOL     C2  664   2.098   2.376   4.673
    4MOL     H2  665   2.201   2.400   4.655
    4MOL     C3  666   2.071   2.390   4.824
    4MOL     H3  667   2.113   2.485   4.858
    4MOL     H4  668   2.120   2.309   4.878
    4MOL     O2  669   1.929   2.388   4.847
    4MOL     C4  670   1.893   2.416   4.982
    4MOL     C5  671   2.041   2.290   4.400
    4MOL     H5  672   1.938   2.256   4.398
    4MOL     O3  673   2.100   2.280   4.269
    4MOL     C6  674   2.059   2.166   4.192
    4MOL     C7  675   2.040   2.441   4.435
    4MOL     H6  676   2.137   2.484   4.412
    4MOL     O4  677   1.935   2.503   4.356
    4MOL     C8  678   1.983   2.591   4.253
    4MOL     C9  679   2.009   2.466   4.583
    4MOL     H7  680   1.903   2.444   4.601
    4MOL     O5  681   2.040   2.606   4.608
    4MOL    C10  682   1.949   2.676   4.695
    4MOL     H8  683   1.867   2.610   4.726
    4MOL     O6  684   2.022   2.719   4.812
    4MOL    C11  685   2.131   2.810   4.789
    4MOL     H9  686   2.203   2.764   4.720
    4MOL    C12  687   2.203   2.834   4.924
    4MOL    H10  688   2.305   2.870   4.907
    4MOL    H11  689   2.208   2.739   4.976
    4MOL     O7  690   2.129   2.925   5.008
    4MOL    C13  691   2.190   2.940   5.137
    4MOL    C14  692   1.890   2.801   4.623
    4MOL    H12  693   1.812   2.844   4.687
    4MOL     O8  694   1.837   2.764   4.495
    4MOL    C15  695   1.710   2.699   4.498
    4MOL    C16  696   1.995   2.909   4.598
    4MOL    H13  697   2.063   2.874   4.518
    4MOL     O9  698   1.927   3.030   4.559
    4MOL    C17  699   1.940   3.066   4.421
    4MOL    C18  700   2.077   2.940   4.724
    4MOL    H14  701   2.010   2.992   4.795
    4MOL    O10  702   2.187   3.024   4.683
    4MOL    C19  703   2.219   3.133   4.772
    4MOL    H15  704   2.141   3.142   4.849
    4MOL    O11  705   2.345   3.105   4.835
    4MOL    C20  706   2.456   3.089   4.744
    4MOL    H16  707   2.436   3.008   4.673
    4MOL    C21  708   2.581   3.051   4.825
    4MOL    H17  709   2.660   3.023   4.754
    4MOL    H18  710   2.558   2.964   4.887
    4MOL    O12  711   2.624   3.163   4.904
    4MOL    C22  712   2.725   3.131   5.000
    4MOL    C23  713   2.230   3.265   4.692
    4MOL    H19  714   2.248   3.347   4.762
    4MOL    O13  715   2.108   3.290   4.619
    4MOL    C24  716   1.994   3.321   4.700
    4MOL    C25  717   2.347   3.262   4.591
    4MOL    H20  718   2.328   3.189   4.512
    4MOL    O14  719   2.364   3.396   4.538
    4MOL    C26  720   2.312   3.414   4.405
    4MOL    C27  721   2.477   3.220   4.666
    4MOL    H21  722   2.505   3.300   4.736
    4MOL    O15  723   2.584   3.194   4.573
    4MOL    C28  724   2.657   3.311   4.533
    4MOL    H22  725   2.591   3.398   4.532
    4MOL    O16  726   2.764   3.331   4.626
    4MOL    C29  727   2.865   3.228   4.634
    4MOL    H23  728   2.820   3.133   4.667
    4MOL    C30  729   2.964   3.279   4.742
    4MOL    H24  730   3.034   3.202   4.773
    4MOL    H25  731   2.908   3.307   4.831
    4MOL    O17  732   3.032   3.393   4.687
    4MOL    C31  733   3.107   3.471   4.781
    4MOL    C32  734   2.711   3.292   4.391
    4MOL    H26  735   2.745   3.390   4.353
    4MOL    O18  736   2.597   3.244   4.318
    4MOL    C33  737   2.593   3.287   4.184
    4MOL    C34  738   2.827   3.190   4.381
    4MOL    H27  739   2.780   3.092   4.385
    4MOL    O19  740   2.896   3.213   4.255
    4MOL    C35  741   2.932   3.097   4.179
    4MOL    C36  742   2.931   3.205   4.495
    4MOL    H28  743   2.992   3.292   4.468
    4MOL    O20  744   3.012   3.084   4.500
    4MOL    C37  745   3.151   3.105   4.532
    4MOL    H29  746   3.175   3.212   4.523
    4MOL    O21  747   3.176   3.060   4.667
    4MOL    C38  748   3.151   2.919   4.692
    4MOL    H30  749   3.052   2.895   4.655
    4MOL    C39  750   3.155   2.894   4.845
    4MOL    H31  751   3.122   2.792   4.866
    4MOL    H32  752   3.087   2.964   4.894
    4MOL    O22  753   3.288   2.914   4.894
    4MOL    C40  754   3.304   2.884   5.034
    4MOL    C41  755   3.245   3.027   4.436
    4MOL    H33  756   3.347   3.061   4.454
    4MOL    O23  757   3.208   3.049   4.299
    4MOL    C42  758   3.235   3.179   4.248
    4MOL    C43  759   3.241   2.875   4.461
    4MOL    H34  760   3.147   2.835   4.423
    4MOL    O24  761   3.355   2.816   4.395
    4MOL    C44  762   3.322   2.759   4.269
    4MOL    C45  763   3.254   2.839   4.609
    4MOL    H35  764   3.356   2.864   4.641
    4MOL    O25  765   3.230   2.696   4.618
    4MOL    C46  766   3.320   2.624   4.705
    4MOL    H36  767   3.399   2.690   4.743
    4MOL    O26  768   3.243   2.573   4.814
    4MOL    C47  769   3.141   2.476   4.779
    4MOL    H37  770   3.074   2.518   4.703
    4MOL    C48  771   3.060   2.449   4.904
    4MOL    H38  772   2.960   2.412   4.878
    4MOL    H39  773   3.050   2.544   4.955
    4MOL    O27  774   3.128   2.360   4.993
    4MOL    C49  775   3.053   2.337   5.112
    4MOL    C50  776   3.387   2.504   4.630
    4MOL    H40  777   3.462   2.460   4.696
    4MOL    O28  778   3.448   2.547   4.508
    4MOL    C51  779   3.576   2.605   4.527
    4MOL    C52  780   3.289   2.392   4.594
    4MOL    H41  781   3.221   2.427   4.515
    4MOL    O29  782   3.365   2.276   4.554
    4MOL    C53  783   3.356   2.245   4.414
    4MOL    C54  784   3.205   2.352   4.715
    4MOL    H42  785   3.270   2.302   4.789
    4MOL    O30  786   3.101   2.266   4.666
    4MOL    C55  787   3.081   2.144   4.739
    4MOL    H43  788   3.167   2.125   4.806
    4MOL    O31  789   2.963   2.155   4.818
    4MOL    C56  790   2.840   2.178   4.743
    4MOL    H44  791   2.844   2.273   4.689
    4MOL    C57  792   2.726   2.179   4.842
    4MOL    H45  793   2.721   2.084   4.896
    4MOL    H46  794   2.630   2.197   4.792
    4MOL    O32  795   2.753   2.286   4.931
    4MOL    C58  796   2.673   2.277   5.046
    4MOL    C59  797   3.066   2.025   4.641
    4MOL    H47  798   3.054   1.934   4.700
    4MOL    O33  799   3.183   2.015   4.558
    4MOL    C60  800   3.303   1.971   4.625
    4MOL    C61  801   2.939   2.041   4.552
    4MOL    H48  802   2.950   2.128   4.487
    4MOL    O34  803   2.919   1.919   4.476
    4MOL    C62  804   2.976   1.918   4.345
    4MOL    C63  805   2.818   2.062   4.645
    4MOL    H49  806   2.800   1.971   4.703
    4MOL    O35  807   2.700   2.096   4.568
    4MOL    C64  808   2.617   1.981   4.540
    4MOL    H50  809   2.677   1.890   4.543
    4MOL    O36  810   2.509   1.973   4.636
    4MOL    C65  811   2.417   2.084   4.640
    4MOL    H51  812   2.472   2.177   4.658
    4MOL    C66  813   2.320   2.058   4.756
    4MOL    H52  814   2.283   1.955   4.750
    4MOL    H53  815   2.234   2.125   4.754
    4MOL    O37  816   2.388   2.075   4.881
    4MOL    C67  817   2.312   2.019   4.988
    4MOL    C68  818   2.560   1.996   4.399
    4MOL    H54  819   2.524   1.897   4.366
    4MOL    O38  820   2.668   2.043   4.317
    4MOL    C69  821   2.679   1.978   4.192
    4MOL    C70  822   2.446   2.098   4.387
    4MOL    H55  823   2.493   2.198   4.387
    4MOL    O39  824   2.377   2.071   4.265
    4MOL    C71  825   2.381   2.181   4.175
    4MOL    C72  826   2.345   2.095   4.503
    4MOL    H56  827   2.282   2.005   4.491
    4MOL    O40  828   2.263   2.215   4.494
    4MOL    H57  829   1.784   2.423   4.990
    4MOL    H58  830   1.930   2.335   5.048
    4MOL    H59  831   1.937   2.511   5.015
    4MOL    H60  832   2.359   2.043   5.084
    4MOL    H61  833   2.210   2.059   4.989
    4MOL    H62  834   2.308   1.910   4.979
    4MOL    H63  835   2.691   2.367   5.103
    4MOL    H64  836   2.567   2.270   5.018
    4MOL    H65  837   2.702   2.192   5.108
    4MOL    H66  838   3.114   2.278   5.182
    4MOL    H67  839   3.026   2.431   5.161
    4MOL    H68  840   2.961   2.282   5.089
    4MOL    H69  841   3.407   2.908   5.065
    4MOL    H70  842   3.235   2.943   5.094
    4MOL    H71  843   3.287   2.777   5.052
    4MOL    H72  844   3.162   3.550   4.728
    4MOL    H73  845   3.041   3.517   4.855
    4MOL    H74  846   3.180   3.408   4.835
    4MOL    H75  847   2.752   3.217   5.061
    4MOL    H76  848   2.686   3.054   5.068
    4MOL    H77  849   2.815   3.094   4.950
    4MOL    H78  850   2.125   2.998   5.203
    4MOL    H79  851   2.207   2.842   5.183
    4MOL    H80  852   2.287   2.992   5.127
    4MOL    H81  853   1.882   3.157   4.401
    4MOL    H82  854   2.046   3.085   4.397
    4MOL    H83  855   1.903   2.986   4.356
    4MOL    H84  856   1.674   2.690   4.395
    4MOL    H85  857   1.720   2.599   4.541
    4MOL    H86  858   1.639   2.758   4.557
    4MOL    H87  859   1.898   2.631   4.196
    4MOL    H88  860   2.039   2.675   4.297
    4MOL    H89  861   2.049   2.537   4.183
    4MOL    H90  862   2.071   2.188   4.086
    4MOL    H91  863   2.122   2.080   4.216
    4MOL    H92  864   1.955   2.140   4.212
    4MOL    H93  865   2.323   2.162   4.085
    4MOL    H94  866   2.337   2.267   4.227
    4MOL    H95  867   2.485   2.205   4.148
    4MOL    H96  868   2.763   2.021   4.136
    4MOL    H97  869   2.696   1.871   4.207
    4MOL    H98  870   2.586   1.992   4.137
    4MOL    H99  871   2.949   1.825   4.293
    4MOL   H100  872   2.937   2.002   4.286
    4MOL   H101  873   3.085   1.925   4.349
    4MOL   H102  874   3.381   1.949   4.551
    4MOL   H103  875   3.340   2.049   4.692
    4MOL   H104  876   3.283   1.880   4.683
    4MOL   H105  877   3.412   2.154   4.392
    4MOL   H106  878   3.252   2.230   4.386
    4MOL   H107  879   3.398   2.328   4.356
    4MOL   H108  880   3.628   2.610   4.431
    4MOL   H109  881   3.566   2.707   4.567
    4MOL   H110  882   3.638   2.546   4.596
    4MOL   H111  883   3.414   2.734   4.214
    4MOL   H112  884   3.262   2.668   4.282
    4MOL   H113  885   3.266   2.830   4.209
    4MOL   H114  886   3.214   3.183   4.140
    4MOL   H115  887   3.171   3.253   4.297
    4MOL   H116  888   3.340   3.206   4.261
    4MOL   H117  889   3.010   3.120   4.107
    4MOL   H118  890   2.971   3.017   4.243
    4MOL   H119  891   2.845   3.061   4.122
    4MOL   H120  892   2.504   3.247   4.134
    4MOL   H121  893   2.593   3.396   4.177
    4MOL   H122  894   2.683   3.248   4.136
    4MOL   H123  895   2.337   3.514   4.367
    4MOL   H124  896   2.356   3.339   4.336
    4MOL   H125  897   2.203   3.402   4.405
    4MOL   H126  898   1.909   3.350   4.637
    4MOL   H127  899   1.962   3.233   4.757
    4MOL   H128  900   2.016   3.403   4.770
    5SOL     OW  901   0.222   0.621   0.109
    5SOL    HW1  902   0.169   0.576   0.174
    5SOL    HW2  903   0.248   0.553   0.047
    6SOL     OW  904   0.233   0.281   0.990
    6SOL    HW1  905   0.252   0.242   1.075
    6SOL    HW2  906   0.152   0.238   0.961
    7SOL     OW  907   0.001   0.407   0.662
    7SOL    HW1  908   5.208   0.430   0.668
    7SOL    HW2  909   0.002   0.316   0.632
    8SOL     OW  910   0.575   1.286   1.184
    8SOL    HW1  911   0.493   1.294   1.136
    8SOL    HW2  912   0.591   1.374   1.218
    9SOL     OW  913   1.562   1.513   0.708
    9SOL    HW1  914   1.520   1.491   0.791
    9SOL    HW2  915   1.491   1.516   0.644
   10SOL     OW  916   1.132   0.698   0.701
   10SOL    HW1  917   1.180   0.779   0.687
   10SOL    HW2  918   1.084   0.712   0.783
   11SOL     OW  919   1.772   0.599   0.231
   11SOL    HW1  920   1.727   0.605   0.146
   11SOL    HW2  921   1.730   0.525   0.275
   12SOL     OW  922   0.754   1.140   1.040
   12SOL    HW1  923   0.688   1.175   1.100
   12SOL    HW2  924   0.790   1.218   0.997
   13SOL     OW  925   0.867   0.776   1.822
   13SOL    HW1  926   0.859   0.847   1.885
   13SOL    HW2  927   0.891   0.818   1.740
   14SOL     OW  928   0.684   1.000   0.649
   14SOL    HW1  929   0.750   0.990   0.717
   14SOL    HW2  930   0.617   1.055   0.690
   15SOL     OW  931   0.710   1.150   1.814
   15SOL    HW1  932   0.759   1.228   1.841
   15SOL    HW2  933   0.629   1.184   1.777
   16SOL     OW  934   0.358   1.404   1.061
   16SOL    HW1  935   0.271   1.401   1.022
   16SOL    HW2  936   0.406   1.466   1.005
   17SOL     OW  937   1.461   1.500   1.356
   17SOL    HW1  938   1.512   1.580   1.365
   17SOL    HW2  939   1.397   1.504   1.427
   18SOL     OW  940   0.450   0.399   1.488
   18SOL    HW1  941   0.530   0.346   1.483
   18SOL    HW2  942   0.379   0.335   1.496
   19SOL     OW  943   1.610   0.451   0.738
   19SOL    HW1  944   1.531   0.471   0.688
   19SOL    HW2  945   1.625   0.530   0.790
   20SOL     OW  946   0.217   1.731   0.464
   20SOL    HW1  947   0.258   1.787   0.531
   20SOL    HW2  948   0.288   1.708   0.405
   21SOL     OW  949   1.137   1.342   1.693
   21SOL    HW1  950   1.178   1.336   1.779
   21SOL    HW2  951   1.085   1.262   1.686
   22SOL     OW  952   0.220   1.449   0.532
   22SOL    HW1  953   0.200   1.543   0.539
   22SOL    HW2  954   0.160   1.407   0.592
   23SOL     OW  955   0.255   1.078   0.878
   23SOL    HW1  956   0.261   0.991   0.917
   23SOL    HW2  957   0.200   1.128   0.938
   24SOL     OW  958   0.612   1.790   1.432
   24SOL    HW1  959   0.528   1.773   1.475
   24SOL    HW2  960   0.633   1.881   1.455
   25SOL     OW  961   0.619   0.958   0.140
   25SOL    HW1  962   0.575   1.038   0.110
   25SOL    HW2  963   0.677   0.988   0.210
   26SOL     OW  964   1.587   0.136   1.455
   26SOL    HW1  965   1.611   0.220   1.417
   26SOL    HW2  966   1.582   0.153   1.550
   27SOL     OW  967   0.128   0.639   0.583
   27SOL    HW1  968   0.093   0.555   0.610
   27SOL    HW2  969   0.098   0.701   0.650
   28SOL     OW  970   1.846   1.758   0.330
   28SOL    HW1  971   1.911   1.728   0.394
   28SOL    HW2  972   1.870   1.849   0.312
   29SOL     OW  973   0.032   1.583   0.104
   29SOL    HW1  974   0.024   1.498   0.147
   29SOL    HW2  975   0.007   1.646   0.171
   30SOL     OW  976   1.689   0.919   0.645
   30SOL    HW1  977   1.770   0.875   0.622
   30SOL    HW2  978   1.666   0.970   0.568
   31SOL     OW  979   1.646   1.104   0.434
   31SOL    HW1  980   1.727   1.117   0.385
   31SOL    HW2  981   1.652   1.167   0.507
   32SOL     OW  982   0.131   0.750   1.586
   32SOL    HW1  983   0.225   0.764   1.585
   32SOL    HW2  984   0.094   0.836   1.601
   33SOL     OW  985   0.616   1.387   0.734
   33SOL    HW1  986   0.568   1.305   0.745
   33SOL    HW2  987   0.599   1.413   0.643
   34SOL     OW  988   1.288   1.238   1.423
   34SOL    HW1  989   1.320   1.170   1.363
   34SOL    HW2  990   1.346   1.232   1.499
   35SOL     OW  991   0.817   0.030   0.529
   35SOL    HW1  992   0.845   0.116   0.499
   35SOL    HW2  993   0.722   0.031   0.522
   36SOL     OW  994   0.174   0.943   1.279
   36SOL    HW1  995   0.265   0.914   1.270
   36SOL    HW2  996   0.134   0.925   1.194
   37SOL     OW  997   1.508   1.008   0.213
   37SOL    HW1  998   1.446   0.943   0.247
   37SOL    HW2  999   1.561   1.032   0.289
   38SOL     OW 1000   1.185   1.807   1.623
   38SOL    HW1 1001   1.194   1.867   1.549
   38SOL    HW2 1002   1.202   1.721   1.586
   39SOL     OW 1003   0.329   0.278   1.797
   39SOL    HW1 1004   0.388   0.338   1.844
   39SOL    HW2 1005   0.248   0.280   1.848
   40SOL     OW 1006   1.467   1.419   0.951
   40SOL    HW1 1007   1.399   1.435   1.016
   40SOL    HW2 1008   1.454   1.328   0.924
   41SOL     OW 1009   1.659   1.743   0.581
   41SOL    HW1 1010   1.638   1.714   0.493
   41SOL    HW2 1011   1.635   1.669   0.637
   42SOL     OW 1012   0.596   0.713   0.280
   42SOL    HW1 1013   0.616   0.794   0.233
   42SOL    HW2 1014   0.535   0.740   0.349
   43SOL     OW 1015   1.277   0.348   0.932
   43SOL    HW1 1016   1.187   0.319   0.944
   43SOL    HW2 1017   1.327   0.298   0.996
   44SOL     OW 1018   1.587   1.671   0.320
   44SOL    HW1 1019   1.678   1.700   0.312
   44SOL    HW2 1020   1.559   1.654   0.230
   45SOL     OW 1021   0.794   0.618   1.450
   45SOL    HW1 1022   0.766   0.596   1.539
   45SOL    HW2 1023   0.753   0.552   1.395
   46SOL     OW 1024   1.394   0.475   1.678
   46SOL    HW1 1025   1.397   0.520   1.763
   46SOL    HW2 1026   1.458   0.404   1.687
   47SOL     OW 1027   0.954   0.887   1.583
   47SOL    HW1 1028   1.008   0.817   1.547
   47SOL    HW2 1029   0.906   0.921   1.508
   48SOL     OW 1030   0.993   0.417   1.234
   48SOL    HW1 1031   0.907   0.437   1.271
   48SOL    HW2 1032   0.975   0.369   1.154
   49SOL     OW 1033   1.053   0.699   0.428
   49SOL    HW1 1034   1.069   0.691   0.522
   49SOL    HW2 1035   0.970   0.653   0.414
   50SOL     OW 1036   0.067   0.791   0.816
   50SOL    HW1 1037   0.149   0.794   0.864
   50SOL    HW2 1038   0.068   0.869   0.761
   51SOL     OW 1039   0.129   1.885   1.585
   51SOL    HW1 1040   0.133   1.857   1.676
   51SOL    HW2 1041   0.060   1.831   1.546
   52SOL     OW 1042   0.887   0.360   0.203
   52SOL    HW1 1043   0.931   0.407   0.132
   52SOL    HW2 1044   0.868   0.273   0.166
   53SOL     OW 1045   1.707   0.573   1.828
   53SOL    HW1 1046   1.670   0.647   1.779
   53SOL    HW2 1047   1.737   0.513   1.760
   54SOL     OW 1048   1.377   1.142   0.541
   54SOL    HW1 1049   1.455   1.129   0.488
   54SOL    HW2 1050   1.324   1.204   0.492
   55SOL     OW 1051   0.536   0.201   0.884
   55SOL    HW1 1052   0.553   0.221   0.976
   55SOL    HW2 1053   0.548   0.285   0.839
   56SOL     OW 1054   1.003   1.444   0.472
   56SOL    HW1 1055   0.967   1.517   0.422
   56SOL    HW2 1056   0.983   1.465   0.563
   57SOL     OW 1057   0.358   1.803   0.869
   57SOL    HW1 1058   0.398   1.717   0.883
   57SOL    HW2 1059   0.423   1.865   0.901
   58SOL     OW 1060   1.800   1.057   0.869
   58SOL    HW1 1061   1.746   1.036   0.792
   58SOL    HW2 1062   1.737   1.062   0.941
   59SOL     OW 1063   1.228   1.539   1.513
   59SOL    HW1 1064   1.214   1.466   1.574
   59SOL    HW2 1065   1.163   1.525   1.444
   60SOL     OW 1066   0.327   0.949   0.251
   60SOL    HW1 1067   0.407   0.966   0.202
   60SOL    HW2 1068   0.319   0.853   0.250
   61SOL     OW 1069   1.479   0.745   0.726
   61SOL    HW1 1070   1.471   0.702   0.811
   61SOL    HW2 1071   1.557   0.800   0.734
   62SOL     OW 1072   0.465   1.264   1.738
   62SOL    HW1 1073   0.439   1.270   1.646
   62SOL    HW2 1074   0.383   1.265   1.787
   63SOL     OW 1075   1.107   1.781   0.223
   63SOL    HW1 1076   1.051   1.741   0.289
   63SOL    HW2 1077   1.128   1.710   0.163
   64SOL     OW 1078   0.197   0.279   1.494
   64SOL    HW1 1079   0.160   0.367   1.487
   64SOL    HW2 1080   0.207   0.265   1.588
   65SOL     OW 1081   1.634   1.373   0.082
   65SOL    HW1 1082   1.593   1.459   0.083
   65SOL    HW2 1083   1.563   1.312   0.064
   66SOL     OW 1084   0.470   1.733   0.325
   66SOL    HW1 1085   0.513   1.794   0.385
   66SOL    HW2 1086   0.540   1.707   0.264
   67SOL     OW 1087   1.416   0.100   0.446
   67SOL    HW1 1088   1.409   0.080   0.353
   67SOL    HW2 1089   1.508   0.127   0.458
   68SOL     OW 1090   0.278   1.801   1.211
   68SOL    HW1 1091   0.306   1.723   1.258
   68SOL    HW2 1092   0.224   1.767   1.139
   69SOL     OW 1093   0.939   1.699   0.898
   69SOL    HW1 1094   1.016   1.647   0.920
   69SOL    HW2 1095   0.895   1.649   0.829
   70SOL     OW 1096   0.380   0.698   0.474
   70SOL    HW1 1097   0.412   0.609   0.485
   70SOL    HW2 1098   0.289   0.694   0.503
   71SOL     OW 1099   1.538   0.228   1.723
   71SOL    HW1 1100   1.546   0.245   1.817
   71SOL    HW2 1101   1.462   0.170   1.715
   72SOL     OW 1102   0.625   0.138   0.122
   72SOL    HW1 1103   0.716   0.110   0.133
   72SOL    HW2 1104   0.597   0.097   0.040
   73SOL     OW 1105   0.780   0.313   1.767
   73SOL    HW1 1106   0.840   0.238   1.766
   73SOL    HW2 1107   0.734   0.306   1.851
   74SOL     OW 1108   0.877   1.522   1.193
   74SOL    HW1 1109   0.861   1.485   1.106
   74SOL    HW2 1110   0.947   1.467   1.230
   75SOL     OW 1111   1.341   0.589   1.432
   75SOL    HW1 1112   1.371   0.558   1.517
   75SOL    HW2 1113   1.376   0.677   1.424
   76SOL     OW 1114   0.816   1.393   0.941
   76SOL    HW1 1115   0.901   1.382   0.897
   76SOL    HW2 1116   0.752   1.396   0.869
   77SOL     OW 1117   0.928   0.511   0.902
   77SOL    HW1 1118   0.904   0.502   0.810
   77SOL    HW2 1119   0.958   0.423   0.927
   78SOL     OW 1120   0.549   0.058   0.508
   78SOL    HW1 1121   0.469   0.057   0.560
   78SOL    HW2 1122   0.536   0.128   0.444
   79SOL     OW 1123   1.433   1.199   0.035
   79SOL    HW1 1124   1.457   1.126   0.092
   79SOL    HW2 1125   1.345   1.225   0.065
   80SOL     OW 1126   0.319   0.075   0.198
   80SOL    HW1 1127   0.382   0.143   0.175
   80SOL    HW2 1128   0.368   5.293   0.189
   81SOL     OW 1129   0.946   0.260   0.454
   81SOL    HW1 1130   0.920   0.305   0.373
   81SOL    HW2 1131   1.038   0.283   0.465
   82SOL     OW 1132   1.081   0.682   1.459
   82SOL    HW1 1133   1.013   0.615   1.464
   82SOL    HW2 1134   1.162   0.633   1.452
   83SOL     OW 1135   1.223   1.570   0.794
   83SOL    HW1 1136   1.238   1.636   0.727
   83SOL    HW2 1137   1.291   1.585   0.859
   84SOL     OW 1138   0.469   1.152   0.731
   84SOL    HW1 1139   0.400   1.131   0.794
   84SOL    HW2 1140   0.428   1.136   0.645
   85SOL     OW 1141   1.267   1.794   0.608
   85SOL    HW1 1142   1.317   1.857   0.557
   85SOL    HW2 1143   1.200   1.846   0.651
   86SOL     OW 1144   1.029   0.527   0.032
   86SOL    HW1 1145   0.992   0.610   0.003
   86SOL    HW2 1146   1.093   0.551   0.099
   87SOL     OW 1147   0.101   0.529   1.413
   87SOL    HW1 1148   0.180   0.549   1.364
   87SOL    HW2 1149   0.079   0.611   1.458
   88SOL     OW 1150   0.560   0.240   1.159
   88SOL    HW1 1151   0.592   0.154   1.185
   88SOL    HW2 1152   0.467   0.240   1.183
   89SOL     OW 1153   0.868   0.461   0.640
   89SOL    HW1 1154   0.824   0.515   0.573
   89SOL    HW2 1155   0.889   0.380   0.594
   90SOL     OW 1156   0.978   0.061   0.763
   90SOL    HW1 1157   0.914   0.057   0.692
   90SOL    HW2 1158   0.986   5.271   0.792
   91SOL     OW 1159   1.437   1.162   0.857
   91SOL    HW1 1160   1.367   1.097   0.856
   91SOL    HW2 1161   1.461   1.173   0.764
   92SOL     OW 1162   1.466   0.607   0.976
   92SOL    HW1 1163   1.415   0.526   0.979
   92SOL    HW2 1164   1.526   0.601   1.050
   93SOL     OW 1165   1.848   0.814   0.387
   93SOL    HW1 1166   1.900   0.762   0.448
   93SOL    HW2 1167   1.818   0.751   0.322
   94SOL     OW 1168   0.483   1.441   0.173
   94SOL    HW1 1169   0.410   1.402   0.222
   94SOL    HW2 1170   0.489   1.389   0.093
   95SOL     OW 1171   1.672   1.265   0.646
   95SOL    HW1 1172   1.767   1.268   0.660
   95SOL    HW2 1173   1.642   1.354   0.667
   96SOL     OW 1174   1.399   0.577   0.088
   96SOL    HW1 1175   1.336   0.559   0.157
   96SOL    HW2 1176   1.452   0.497   0.083
   97SOL     OW 1177   0.523   0.268   0.328
   97SOL    HW1 1178   0.566   0.214   0.263
   97SOL    HW2 1179   0.506   0.351   0.282
   98SOL     OW 1180   1.752   1.240   1.571
   98SOL    HW1 1181   1.839   1.201   1.568
   98SOL    HW2 1182   1.767   1.330   1.600
   99SOL     OW 1183   1.058   1.353   1.333
   99SOL    HW1 1184   0.983   1.322   1.384
   99SOL    HW2 1185   1.134   1.312   1.374
  100SOL     OW 1186   1.608   1.626   1.655
  100SOL    HW1 1187   1.602   1.660   1.565
  100SOL    HW2 1188   1.691   1.578   1.656
  101SOL     OW 1189   1.130   1.204   1.105
  101SOL    HW1 1190   1.071   1.242   1.169
  101SOL    HW2 1191   1.098   1.237   1.021
  102SOL     OW 1192   1.627   1.098   1.077
  102SOL    HW1 1193   1.622   1.160   1.150
  102SOL    HW2 1194   1.549   1.115   1.025
  103SOL     OW 1195   0.905   0.107   1.388
  103SOL    HW1 1196   0.936   0.073   1.304
  103SOL    HW2 1197   0.982   0.149   1.426
  104SOL     OW 1198   0.984   1.115   1.723
  104SOL    HW1 1199   0.892   1.131   1.744
  104SOL    HW2 1200   0.983   1.037   1.667
  105SOL     OW 1201   0.715   1.063   0.382
  105SOL    HW1 1202   0.698   1.045   0.474
  105SOL    HW2 1203   0.793   1.011   0.361
  106SOL     OW 1204   0.421   0.821   1.253
  106SOL    HW1 1205   0.490   0.827   1.319
  106SOL    HW2 1206   0.386   0.733   1.262
  107SOL     OW 1207   1.266   0.378   1.274
  107SOL    HW1 1208   1.299   0.455   1.320
  107SOL    HW2 1209   1.176   0.401   1.251
  108SOL     OW 1210   0.102   1.624   1.366
  108SOL    HW1 1211   0.080   1.629   1.273
  108SOL    HW2 1212   0.189   1.582   1.368
  109SOL     OW 1213   0.344   1.110   0.487
  109SOL    HW1 1214   0.342   1.189   0.433
  109SOL    HW2 1215   0.358   1.038   0.424
  110SOL     OW 1216   0.555   0.536   0.860
  110SOL    HW1 1217   0.570   0.595   0.785
  110SOL    HW2 1218   0.621   0.562   0.924
  111SOL     OW 1219   1.247   1.347   0.394
  111SOL    HW1 1220   1.303   1.420   0.423
  111SOL    HW2 1221   1.160   1.370   0.426
  112SOL     OW 1222   1.283   1.458   1.147
  112SOL    HW1 1223   1.338   1.461   1.225
  112SOL    HW2 1224   1.227   1.381   1.160
  113SOL     OW 1225   1.581   0.625   0.482
  113SOL    HW1 1226   1.531   0.673   0.548
  113SOL    HW2 1227   1.615   0.693   0.424
  114SOL     OW 1228   0.352   1.520   1.310
  114SOL    HW1 1229   0.341   1.476   1.225
  114SOL    HW2 1230   0.446   1.537   1.316
  115SOL     OW 1231   0.416   0.741   1.603
  115SOL    HW1 1232   0.474   0.789   1.544
  115SOL    HW2 1233   0.461   0.658   1.619
  116SOL     OW 1234   1.603   0.779   1.682
  116SOL    HW1 1235   1.517   0.820   1.676
  116SOL    HW2 1236   1.655   0.821   1.614
  117SOL     OW 1237   1.048   0.118   1.784
  117SOL    HW1 1238   1.074   0.197   1.737
  117SOL    HW2 1239   1.052   0.048   1.719
  118SOL     OW 1240   0.483   0.059   1.737
  118SOL    HW1 1241   0.425   5.292   1.702
  118SOL    HW2 1242   0.426   0.134   1.754
  119SOL     OW 1243   0.586   0.874   1.033
  119SOL    HW1 1244   0.617   0.964   1.031
  119SOL    HW2 1245   0.529   0.869   1.109
  120SOL     OW 1246   1.356   0.859   1.028
  120SOL    HW1 1247   1.273   0.848   0.983
  120SOL    HW2 1248   1.398   0.773   1.022
  121SOL     OW 1249   1.201   0.527   0.269
  121SOL    HW1 1250   1.210   0.448   0.322
  121SOL    HW2 1251   1.159   0.590   0.328
  122SOL     OW 1252   0.304   0.205   1.246
  122SOL    HW1 1253   0.262   0.236   1.326
  122SOL    HW2 1254   0.298   0.109   1.251
  123SOL     OW 1255   0.067   1.318   1.280
  123SOL    HW1 1256   0.091   1.259   1.351
  123SOL    HW2 1257   5.296   1.371   1.315
  124SOL     OW 1258   0.726   0.632   1.060
  124SOL    HW1 1259   0.800   0.615   1.001
  124SOL    HW2 1260   0.697   0.721   1.037
  125SOL     OW 1261   1.735   0.959   1.853
  125SOL    HW1 1262   1.690   0.896   1.797
  125SOL    HW2 1263   1.676   0.974   1.927
  126SOL     OW 1264   0.318   0.066   0.656
  126SOL    HW1 1265   0.300   0.160   0.662
  126SOL    HW2 1266   0.324   0.037   0.747
  127SOL     OW 1267   1.623   0.380   0.366
  127SOL    HW1 1268   1.649   0.313   0.429
  127SOL    HW2 1269   1.597   0.454   0.420
  128SOL     OW 1270   1.028   0.759   0.960
  128SOL    HW1 1271   1.024   0.777   1.054
  128SOL    HW2 1272   1.001   0.668   0.951
  129SOL     OW 1273   0.981   1.566   1.718
  129SOL    HW1 1274   0.967   1.610   1.634
  129SOL    HW2 1275   1.026   1.484   1.694
  130SOL     OW 1276   1.854   1.505   1.605
  130SOL    HW1 1277   1.873   1.531   1.515
  130SOL    HW2 1278   1.935   1.522   1.653
  131SOL     OW 1279   0.354   0.917   1.807
  131SOL    HW1 1280   0.435   0.938   1.854
  131SOL    HW2 1281   0.380   0.852   1.741
  132SOL     OW 1282   1.519   0.305   0.126
  132SOL    HW1 1283   1.485   0.217   0.139
  132SOL    HW2 1284   1.560   0.328   0.209
  133SOL     OW 1285   1.295   0.823   0.021
  133SOL    HW1 1286   1.333   0.737   0.038
  133SOL    HW2 1287   1.357   0.865   8.041
  134SOL     OW 1288   1.067   1.336   0.855
  134SOL    HW1 1289   1.070   1.264   0.792
  134SOL    HW2 1290   1.127   1.401   0.819
  135SOL     OW 1291   0.313   0.809   0.949
  135SOL    HW1 1292   0.407   0.827   0.945
  135SOL    HW2 1293   0.308   0.718   0.980
  136SOL     OW 1294   0.336   0.527   1.015
  136SOL    HW1 1295   0.299   0.440   1.000
  136SOL    HW2 1296   0.411   0.531   0.956
  137SOL     OW 1297   1.135   0.377   1.689
  137SOL    HW1 1298   1.087   0.432   1.752
  137SOL    HW2 1299   1.222   0.417   1.685
  138SOL     OW 1300   1.133   0.223   1.466
  138SOL    HW1 1301   1.137   0.282   1.542
  138SOL    HW2 1302   1.188   0.264   1.400
  139SOL     OW 1303   0.010   1.326   0.201
  139SOL    HW1 1304   5.238   1.311   0.140
  139SOL    HW2 1305   0.015   1.247   0.254
  140SOL     OW 1306   0.094   1.782   0.949
  140SOL    HW1 1307   0.059   1.712   0.895
  140SOL    HW2 1308   0.182   1.798   0.915
  141SOL     OW 1309   0.505   1.573   0.907
  141SOL    HW1 1310   0.572   1.639   0.928
  141SOL    HW2 1311   0.548   1.513   0.847
  142SOL     OW 1312   0.982   0.792   1.226
  142SOL    HW1 1313   1.038   0.769   1.300
  142SOL    HW2 1314   0.897   0.753   1.248
  143SOL     OW 1315   0.036   0.570   1.121
  143SOL    HW1 1316   0.116   0.537   1.080
  143SOL    HW2 1317   0.037   0.532   1.209
  144SOL     OW 1318   0.167   0.516   1.717
  144SOL    HW1 1319   0.251   0.495   1.677
  144SOL    HW2 1320   0.137   0.595   1.671
  145SOL     OW 1321   1.378   0.938   1.658
  145SOL    HW1 1322   1.399   1.031   1.656
  145SOL    HW2 1323   1.375   0.912   1.566
  146SOL     OW 1324   0.819   0.571   0.368
  146SOL    HW1 1325   0.829   0.499   0.306
  146SOL    HW2 1326   0.741   0.618   0.337
  147SOL     OW 1327   1.642   0.601   1.185
  147SOL    HW1 1328   1.631   0.542   1.259
  147SOL    HW2 1329   1.729   0.582   1.151
  148SOL     OW 1330   0.256   1.556   1.734
  148SOL    HW1 1331   0.234   1.619   1.803
  148SOL    HW2 1332   0.250   1.470   1.778
  149SOL     OW 1333   0.700   0.452   1.260
  149SOL    HW1 1334   0.650   0.378   1.227
  149SOL    HW2 1335   0.699   0.516   1.189
  150SOL     OW 1336   0.928   1.679   1.468
  150SOL    HW1 1337   0.901   1.643   1.383
  150SOL    HW2 1338   0.922   1.774   1.457
  151SOL     OW 1339   0.470   0.491   0.175
  151SOL    HW1 1340   0.537   0.555   0.195
  151SOL    HW2 1341   0.387   0.535   0.195
  152SOL     OW 1342   0.147   1.137   1.471
  152SOL    HW1 1343   0.144   1.089   1.554
  152SOL    HW2 1344   0.158   1.069   1.404
  153SOL     OW 1345   1.325   1.046   1.222
  153SOL    HW1 1346   1.348   0.983   1.155
  153SOL    HW2 1347   1.255   1.099   1.183
  154SOL     OW 1348   1.306   0.849   0.308
  154SOL    HW1 1349   1.229   0.818   0.357
  154SOL    HW2 1350   1.282   0.836   0.216
  155SOL     OW 1351   1.773   1.743   1.151
  155SOL    HW1 1352   1.833   1.769   1.081
  155SOL    HW2 1353   1.748   1.653   1.129
  156SOL     OW 1354   1.241   1.733   1.112
  156SOL    HW1 1355   1.323   1.754   1.067
  156SOL    HW2 1356   1.247   1.639   1.130
  157SOL     OW 1357   0.082   1.214   1.027
  157SOL    HW1 1358   0.069   1.241   1.118
  157SOL    HW2 1359   5.294   1.205   0.992
  158SOL     OW 1360   0.678   1.667   1.731
  158SOL    HW1 1361   0.621   1.744   1.725
  158SOL    HW2 1362   0.743   1.679   1.662
  159SOL     OW 1363   0.893   0.086   0.139
  159SOL    HW1 1364   0.944   0.075   0.058
  159SOL    HW2 1365   0.908   0.004   0.187
  160SOL     OW 1366   1.712   0.150   0.503
  160SOL    HW1 1367   1.786   0.129   0.446
  160SOL    HW2 1368   1.705   0.075   0.563
  161SOL     OW 1369   1.390   1.568   0.487
  161SOL    HW1 1370   1.453   1.601   0.423
  161SOL    HW2 1371   1.342   1.646   0.516
  162SOL     OW 1372   0.146   1.798   1.842
  162SOL    HW1 1373   0.091   1.735   1.890
  162SOL    HW2 1374   0.193   1.845   1.911
  163SOL     OW 1375   1.277   0.926   0.672
  163SOL    HW1 1376   1.351   0.866   0.679
  163SOL    HW2 1377   1.311   0.999   0.619
  164SOL     OW 1378   0.813   1.273   1.429
  164SOL    HW1 1379   0.784   1.314   1.511
  164SOL    HW2 1380   0.743   1.294   1.367
  165SOL     OW 1381   0.678   1.621   0.156
  165SOL    HW1 1382   0.682   1.629   0.060
  165SOL    HW2 1383   0.617   1.549   0.171
  166SOL     OW 1384   1.625   1.727   1.391
  166SOL    HW1 1385   1.675   1.733   1.310
  166SOL    HW2 1386   1.611   1.817   1.418
  167SOL     OW 1387   1.846   0.155   0.956
  167SOL    HW1 1388   1.843   0.060   0.949
  167SOL    HW2 1389   1.760   0.185   0.927
  168SOL     OW 1390   0.271   0.329   0.718
  168SOL    HW1 1391   0.184   0.365   0.703
  168SOL    HW2 1392   0.274   0.314   0.813
  169SOL     OW 1393   1.157   1.580   0.051
  169SOL    HW1 1394   1.172   1.488   0.072
  169SOL    HW2 1395   1.169   1.586   8.036
  170SOL     OW 1396   0.824   1.006   1.373
  170SOL    HW1 1397   0.868   1.001   1.288
  170SOL    HW2 1398   0.823   1.099   1.394
  171SOL     OW 1399   0.918   0.913   0.297
  171SOL    HW1 1400   0.972   0.937   0.222
  171SOL    HW2 1401   0.966   0.842   0.340
  172SOL     OW 1402   1.510   1.623   0.061
  172SOL    HW1 1403   1.415   1.624   0.050
  172SOL    HW2 1404   1.545   1.626   8.052
  173SOL     OW 1405   0.367   1.304   1.493
  173SOL    HW1 1406   0.359   1.378   1.433
  173SOL    HW2 1407   0.291   1.249   1.473
  174SOL     OW 1408   1.610   1.283   1.280
  174SOL    HW1 1409   1.670   1.271   1.355
  174SOL    HW2 1410   1.550   1.352   1.309
  175SOL     OW 1411   1.053   1.108   0.707
  175SOL    HW1 1412   0.982   1.056   0.746
  175SOL    HW2 1413   1.116   1.042   0.676
  176SOL     OW 1414   1.019   0.243   0.969
  176SOL    HW1 1415   0.999   0.198   0.887
  176SOL    HW2 1416   1.012   0.176   1.036
  177SOL     OW 1417   0.603   1.486   0.479
  177SOL    HW1 1418   0.646   1.437   0.409
  177SOL    HW2 1419   0.534   1.536   0.434
  178SOL     OW 1420   1.725   0.386   1.378
  178SOL    HW1 1421   1.796   0.451   1.377
  178SOL    HW2 1422   1.757   0.317   1.320
  179SOL     OW 1423   0.270   1.324   0.300
  179SOL    HW1 1424   0.184   1.334   0.258
  179SOL    HW2 1425   0.261   1.372   0.383
  180SOL     OW 1426   0.117   1.016   1.717
  180SOL    HW1 1427   0.046   0.982   1.771
  180SOL    HW2 1428   0.197   0.985   1.760
  181SOL     OW 1429   0.675   0.217   1.491
  181SOL    HW1 1430   0.758   0.199   1.446
  181SOL    HW2 1431   0.700   0.262   1.571
  182SOL     OW 1432   0.085   0.355   8.079
  182SOL    HW1 1433   0.005   0.320   0.038
  182SOL    HW2 1434   0.061   0.443   8.051
  183SOL     OW 1435   1.429   0.858   1.400
  183SOL    HW1 1436   1.380   0.919   1.344
  183SOL    HW2 1437   1.518   0.861   1.365
  184SOL     OW 1438   0.080   0.142   0.287
  184SOL    HW1 1439   0.079   0.238   0.281
  184SOL    HW2 1440   0.169   0.117   0.263
  185SOL     OW 1441   1.184   1.316   0.121
  185SOL    HW1 1442   1.089   1.307   0.120
  185SOL    HW2 1443   1.207   1.318   0.214
  186SOL     OW 1444   0.620   0.831   1.436
  186SOL    HW1 1445   0.675   0.907   1.420
  186SOL    HW2 1446   0.681   0.758   1.443
  187SOL     OW 1447   1.483   1.777   0.979
  187SOL    HW1 1448   1.506   1.838   0.909
  187SOL    HW2 1449   1.567   1.758   1.022
  188SOL     OW 1450   0.713   0.573   1.703
  188SOL    HW1 1451   0.757   0.636   1.760
  188SOL    HW2 1452   0.743   0.488   1.733
  189SOL     OW 1453   1.472   1.199   1.631
  189SOL    HW1 1454   1.460   1.213   1.725
  189SOL    HW2 1455   1.565   1.215   1.617
  190SOL     OW 1456   0.376   1.743   1.564
  190SOL    HW1 1457   0.294   1.789   1.548
  190SOL    HW2 1458   0.351   1.662   1.609
  191SOL     OW 1459   1.669   0.881   1.255
  191SOL    HW1 1460   1.663   0.796   1.212
  191SOL    HW2 1461   1.659   0.944   1.184
  192SOL     OW 1462   1.216   0.328   0.473
  192SOL    HW1 1463   1.274   0.253   0.458
  192SOL    HW2 1464   1.255   0.374   0.547
  193SOL     OW 1465   0.588   0.736   0.669
  193SOL    HW1 1466   0.627   0.823   0.656
  193SOL    HW2 1467   0.518   0.731   0.604
  194SOL     OW 1468   1.766   0.362   1.649
  194SOL    HW1 1469   1.747   0.377   1.556
  194SOL    HW2 1470   1.694   0.306   1.679
  195SOL     OW 1471   1.745   0.934   1.512
  195SOL    HW1 1472   1.741   1.028   1.525
  195SOL    HW2 1473   1.730   0.922   1.418
  196SOL     OW 1474   0.896   1.371   0.038
  196SOL    HW1 1475   0.833   1.362   0.110
  196SOL    HW2 1476   0.878   1.458   0.002
  197SOL     OW 1477   0.664   1.793   0.942
  197SOL    HW1 1478   0.643   1.884   0.920
  197SOL    HW2 1479   0.759   1.788   0.936
  198SOL     OW 1480   0.868   0.967   0.854
  198SOL    HW1 1481   0.918   0.896   0.894
  198SOL    HW2 1482   0.833   1.016   0.929
  199SOL     OW 1483   1.076   0.975   0.085
  199SOL    HW1 1484   1.068   1.041   0.016
  199SOL    HW2 1485   1.154   0.924   0.061
  200SOL     OW 1486   1.853   1.554   0.844
  200SOL    HW1 1487   1.774   1.543   0.791
  200SOL    HW2 1488   1.845   1.488   0.913
  201SOL     OW 1489   0.226   1.304   1.861
  201SOL    HW1 1490   0.158   1.242   1.835
  201SOL    HW2 1491   0.215   1.315   1.955
  202SOL     OW 1492   0.096   1.234   0.661
  202SOL    HW1 1493   0.099   1.189   0.745
  202SOL    HW2 1494   0.173   1.201   0.613
  203SOL     OW 1495   0.682   1.403   1.629
  203SOL    HW1 1496   0.601   1.361   1.659
  203SOL    HW2 1497   0.678   1.492   1.665
  204SOL     OW 1498   1.812   0.176   1.232
  204SOL    HW1 1499   1.777   0.087   1.235
  204SOL    HW2 1500   1.833   0.190   1.139
  205SOL     OW 1501   0.430   0.440   0.521
  205SOL    HW1 1502   0.466   0.367   0.472
  205SOL    HW2 1503   0.386   0.400   0.596
  206SOL     OW 1504   1.700   1.489   1.095
  206SOL    HW1 1505   1.619   1.466   1.049
  206SOL    HW2 1506   1.710   1.419   1.160
  207SOL     OW 1507   0.338   0.562   1.289
  207SOL    HW1 1508   0.394   0.504   1.339
  207SOL    HW2 1509   0.350   0.535   1.198
  208SOL     OW 1510   0.829   1.577   0.677
  208SOL    HW1 1511   0.814   1.634   0.601
  208SOL    HW2 1512   0.753   1.519   0.679
  209SOL     OW 1513   1.428   0.219   1.117
  209SOL    HW1 1514   1.463   0.144   1.164
  209SOL    HW2 1515   1.379   0.268   1.183
  210SOL     OW 1516   1.001   0.020   1.140
  210SOL    HW1 1517   0.951   5.253   1.094
  210SOL    HW2 1518   1.088   5.281   1.153
  211SOL     OW 1519   0.772   1.326   0.308
  211SOL    HW1 1520   0.741   1.237   0.325
  211SOL    HW2 1521   0.852   1.334   0.359
  212SOL     OW 1522   0.623   1.555   1.288
  212SOL    HW1 1523   0.624   1.638   1.337
  212SOL    HW2 1524   0.710   1.550   1.248
  213SOL     OW 1525   1.395   0.047   0.168
  213SOL    HW1 1526   1.384   0.027   0.075
  213SOL    HW2 1527   1.309   0.076   0.197
  214SOL     OW 1528   1.308   0.468   0.689
  214SOL    HW1 1529   1.250   0.544   0.692
  214SOL    HW2 1530   1.297   0.426   0.774
  215SOL     OW 1531   1.595   0.216   0.883
  215SOL    HW1 1532   1.529   0.227   0.951
  215SOL    HW2 1533   1.587   0.294   0.828
  216SOL     OW 1534   0.047   1.074   0.317
  216SOL    HW1 1535   0.135   1.047   0.291
  216SOL    HW2 1536   5.297   0.992   0.321
  217SOL     OW 1537   0.884   1.654   0.346
  217SOL    HW1 1538   0.815   1.639   0.282
  217SOL    HW2 1539   0.853   1.730   0.397
  218SOL     OW 1540   0.232   0.632   1.980
  218SOL    HW1 1541   0.158   0.603   2.033
  218SOL    HW2 1542   0.212   0.602   1.891
  219SOL     OW 1543   0.233   0.281   2.852
  219SOL    HW1 1544   0.252   0.243   2.937
  219SOL    HW2 1545   0.153   0.238   2.823
  220SOL     OW 1546   5.299   0.407   2.528
  220SOL    HW1 1547   5.206   0.429   2.530
  220SOL    HW2 1548   0.001   0.317   2.495
  221SOL     OW 1549   0.575   1.286   3.046
  221SOL    HW1 1550   0.492   1.294   2.998
  221SOL    HW2 1551   0.591   1.374   3.080
  222SOL     OW 1552   1.563   1.512   2.569
  222SOL    HW1 1553   1.520   1.492   2.652
  222SOL    HW2 1554   1.491   1.516   2.506
  223SOL     OW 1555   1.132   0.698   2.562
  223SOL    HW1 1556   1.180   0.779   2.548
  223SOL    HW2 1557   1.084   0.712   2.644
  224SOL     OW 1558   1.768   0.605   2.090
  224SOL    HW1 1559   1.747   0.598   1.997
  224SOL    HW2 1560   1.732   0.525   2.129
  225SOL     OW 1561   0.754   1.140   2.902
  225SOL    HW1 1562   0.688   1.175   2.962
  225SOL    HW2 1563   0.790   1.217   2.859
  226SOL     OW 1564   0.867   0.776   3.684
  226SOL    HW1 1565   0.859   0.847   3.747
  226SOL    HW2 1566   0.891   0.818   3.602
  227SOL     OW 1567   0.685   1.002   2.508
  227SOL    HW1 1568   0.752   0.990   2.577
  227SOL    HW2 1569   0.618   1.055   2.550
  228SOL     OW 1570   0.710   1.150   3.676
  228SOL    HW1 1571   0.759   1.228   3.703
  228SOL    HW2 1572   0.629   1.184   3.639
  229SOL     OW 1573   0.358   1.404   2.922
  229SOL    HW1 1574   0.270   1.405   2.886
  229SOL    HW2 1575   0.407   1.466   2.867
  230SOL     OW 1576   1.459   1.499   3.217
  230SOL    HW1 1577   1.514   1.577   3.226
  230SOL    HW2 1578   1.397   1.505   3.289
  231SOL     OW 1579   0.450   0.399   3.349
  231SOL    HW1 1580   0.530   0.346   3.345
  231SOL    HW2 1581   0.379   0.336   3.358
  232SOL     OW 1582   1.610   0.451   2.600
  232SOL    HW1 1583   1.534   0.474   2.546
  232SOL    HW2 1584   1.626   0.530   2.652
  233SOL     OW 1585   0.232   1.714   2.339
  233SOL    HW1 1586   0.264   1.783   2.397
  233SOL    HW2 1587   0.295   1.711   2.267
  234SOL     OW 1588   1.137   1.342   3.555
  234SOL    HW1 1589   1.178   1.336   3.641
  234SOL    HW2 1590   1.085   1.262   3.548
  235SOL     OW 1591   0.222   1.445   2.402
  235SOL    HW1 1592   0.217   1.540   2.396
  235SOL    HW2 1593   0.151   1.421   2.462
  236SOL     OW 1594   0.251   1.077   2.736
  236SOL    HW1 1595   0.262   0.991   2.778
  236SOL    HW2 1596   0.198   1.127   2.799
  237SOL     OW 1597   0.612   1.790   3.294
  237SOL    HW1 1598   0.528   1.774   3.337
  237SOL    HW2 1599   0.633   1.881   3.317
  238SOL     OW 1600   0.581   0.984   1.998
  238SOL    HW1 1601   0.629   1.031   1.929
  238SOL    HW2 1602   0.623   1.014   2.079
  239SOL     OW 1603   1.587   0.136   3.317
  239SOL    HW1 1604   1.611   0.220   3.279
  239SOL    HW2 1605   1.582   0.153   3.412
  240SOL     OW 1606   0.124   0.636   2.439
  240SOL    HW1 1607   0.090   0.553   2.474
  240SOL    HW2 1608   0.098   0.701   2.505
  241SOL     OW 1609   1.842   1.757   2.196
  241SOL    HW1 1610   1.908   1.730   2.261
  241SOL    HW2 1611   1.865   1.849   2.177
  242SOL     OW 1612   0.038   1.599   1.995
  242SOL    HW1 1613   0.025   1.508   2.020
  242SOL    HW2 1614   5.282   1.649   2.054
  243SOL     OW 1615   1.689   0.918   2.504
  243SOL    HW1 1616   1.772   0.875   2.482
  243SOL    HW2 1617   1.667   0.969   2.425
  244SOL     OW 1618   1.647   1.106   2.291
  244SOL    HW1 1619   1.733   1.111   2.250
  244SOL    HW2 1620   1.652   1.168   2.364
  245SOL     OW 1621   0.131   0.750   3.447
  245SOL    HW1 1622   0.226   0.764   3.447
  245SOL    HW2 1623   0.094   0.836   3.464
  246SOL     OW 1624   0.616   1.386   2.596
  246SOL    HW1 1625   0.568   1.304   2.607
  246SOL    HW2 1626   0.598   1.413   2.506
  247SOL     OW 1627   1.287   1.237   3.286
  247SOL    HW1 1628   1.320   1.170   3.225
  247SOL    HW2 1629   1.346   1.232   3.361
  248SOL     OW 1630   0.816   0.029   2.391
  248SOL    HW1 1631   0.843   0.117   2.365
  248SOL    HW2 1632   0.720   0.031   2.383
  249SOL     OW 1633   0.174   0.944   3.141
  249SOL    HW1 1634   0.265   0.914   3.133
  249SOL    HW2 1635   0.134   0.924   3.056
  250SOL     OW 1636   1.531   0.994   2.061
  250SOL    HW1 1637   1.461   0.937   2.093
  250SOL    HW2 1638   1.573   1.029   2.140
  251SOL     OW 1639   1.182   1.806   3.485
  251SOL    HW1 1640   1.198   1.867   3.413
  251SOL    HW2 1641   1.202   1.720   3.448
  252SOL     OW 1642   0.329   0.278   3.659
  252SOL    HW1 1643   0.388   0.338   3.706
  252SOL    HW2 1644   0.248   0.280   3.710
  253SOL     OW 1645   1.467   1.419   2.813
  253SOL    HW1 1646   1.399   1.435   2.878
  253SOL    HW2 1647   1.454   1.328   2.786
  254SOL     OW 1648   1.658   1.742   2.440
  254SOL    HW1 1649   1.638   1.712   2.351
  254SOL    HW2 1650   1.634   1.668   2.496
  255SOL     OW 1651   0.594   0.720   2.128
  255SOL    HW1 1652   0.602   0.801   2.079
  255SOL    HW2 1653   0.530   0.739   2.196
  256SOL     OW 1654   1.278   0.348   2.793
  256SOL    HW1 1655   1.187   0.320   2.805
  256SOL    HW2 1656   1.328   0.298   2.857
  257SOL     OW 1657   1.580   1.670   2.171
  257SOL    HW1 1658   1.671   1.701   2.164
  257SOL    HW2 1659   1.553   1.654   2.081
  258SOL     OW 1660   0.794   0.618   3.312
  258SOL    HW1 1661   0.766   0.596   3.401
  258SOL    HW2 1662   0.752   0.552   3.257
  259SOL     OW 1663   1.394   0.475   3.540
  259SOL    HW1 1664   1.397   0.520   3.625
  259SOL    HW2 1665   1.458   0.404   3.549
  260SOL     OW 1666   0.953   0.887   3.445
  260SOL    HW1 1667   1.008   0.817   3.409
  260SOL    HW2 1668   0.906   0.922   3.369
  261SOL     OW 1669   0.993   0.417   3.097
  261SOL    HW1 1670   0.907   0.438   3.133
  261SOL    HW2 1671   0.974   0.369   3.016
  262SOL     OW 1672   1.051   0.698   2.288
  262SOL    HW1 1673   1.067   0.691   2.382
  262SOL    HW2 1674   0.968   0.652   2.275
  263SOL     OW 1675   0.070   0.789   2.673
  263SOL    HW1 1676   0.151   0.793   2.724
  263SOL    HW2 1677   0.066   0.873   2.628
  264SOL     OW 1678   0.129   1.885   3.447
  264SOL    HW1 1679   0.133   1.857   3.538
  264SOL    HW2 1680   0.060   1.831   3.408
  265SOL     OW 1681   0.875   0.366   2.050
  265SOL    HW1 1682   0.915   0.425   1.986
  265SOL    HW2 1683   0.931   0.289   2.050
  266SOL     OW 1684   1.707   0.573   3.690
  266SOL    HW1 1685   1.670   0.647   3.641
  266SOL    HW2 1686   1.737   0.513   3.622
  267SOL     OW 1687   1.377   1.142   2.403
  267SOL    HW1 1688   1.456   1.130   2.350
  267SOL    HW2 1689   1.325   1.204   2.353
  268SOL     OW 1690   0.536   0.203   2.744
  268SOL    HW1 1691   0.552   0.220   2.837
  268SOL    HW2 1692   0.549   0.287   2.701
  269SOL     OW 1693   1.004   1.443   2.333
  269SOL    HW1 1694   0.968   1.517   2.284
  269SOL    HW2 1695   0.986   1.465   2.425
  270SOL     OW 1696   0.357   1.803   2.732
  270SOL    HW1 1697   0.398   1.718   2.745
  270SOL    HW2 1698   0.423   1.866   2.763
  271SOL     OW 1699   1.799   1.055   2.731
  271SOL    HW1 1700   1.745   1.038   2.654
  271SOL    HW2 1701   1.737   1.061   2.803
  272SOL     OW 1702   1.228   1.539   3.375
  272SOL    HW1 1703   1.214   1.465   3.435
  272SOL    HW2 1704   1.164   1.525   3.306
  273SOL     OW 1705   0.316   0.952   2.110
  273SOL    HW1 1706   0.397   0.976   2.067
  273SOL    HW2 1707   0.294   0.866   2.075
  274SOL     OW 1708   1.479   0.744   2.588
  274SOL    HW1 1709   1.472   0.702   2.674
  274SOL    HW2 1710   1.557   0.800   2.595
  275SOL     OW 1711   0.465   1.264   3.600
  275SOL    HW1 1712   0.439   1.270   3.508
  275SOL    HW2 1713   0.383   1.265   3.649
  276SOL     OW 1714   1.122   1.778   2.092
  276SOL    HW1 1715   1.049   1.736   2.138
  276SOL    HW2 1716   1.146   1.716   2.023
  277SOL     OW 1717   0.198   0.280   3.356
  277SOL    HW1 1718   0.160   0.368   3.349
  277SOL    HW2 1719   0.208   0.266   3.450
  278SOL     OW 1720   1.628   1.380   1.950
  278SOL    HW1 1721   1.587   1.465   1.935
  278SOL    HW2 1722   1.560   1.316   1.930
  279SOL     OW 1723   0.471   1.734   2.181
  279SOL    HW1 1724   0.514   1.792   2.244
  279SOL    HW2 1725   0.542   1.703   2.125
  280SOL     OW 1726   1.407   0.101   2.293
  280SOL    HW1 1727   1.400   0.081   2.200
  280SOL    HW2 1728   1.500   0.121   2.306
  281SOL     OW 1729   0.277   1.801   3.073
  281SOL    HW1 1730   0.307   1.722   3.119
  281SOL    HW2 1731   0.225   1.767   3.000
  282SOL     OW 1732   0.939   1.699   2.761
  282SOL    HW1 1733   1.017   1.648   2.782
  282SOL    HW2 1734   0.895   1.649   2.692
  283SOL     OW 1735   0.385   0.696   2.340
  283SOL    HW1 1736   0.415   0.605   2.349
  283SOL    HW2 1737   0.292   0.693   2.362
  284SOL     OW 1738   1.538   0.228   3.585
  284SOL    HW1 1739   1.546   0.245   3.679
  284SOL    HW2 1740   1.462   0.170   3.577
  285SOL     OW 1741   0.621   0.132   1.969
  285SOL    HW1 1742   0.685   0.067   1.995
  285SOL    HW2 1743   0.574   0.092   1.896
  286SOL     OW 1744   0.780   0.313   3.629
  286SOL    HW1 1745   0.840   0.238   3.628
  286SOL    HW2 1746   0.735   0.307   3.713
  287SOL     OW 1747   0.877   1.522   3.055
  287SOL    HW1 1748   0.861   1.485   2.968
  287SOL    HW2 1749   0.947   1.467   3.091
  288SOL     OW 1750   1.340   0.589   3.294
  288SOL    HW1 1751   1.371   0.558   3.379
  288SOL    HW2 1752   1.376   0.677   3.286
  289SOL     OW 1753   0.816   1.393   2.803
  289SOL    HW1 1754   0.901   1.382   2.759
  289SOL    HW2 1755   0.753   1.396   2.732
  290SOL     OW 1756   0.928   0.510   2.765
  290SOL    HW1 1757   0.903   0.503   2.673
  290SOL    HW2 1758   0.958   0.423   2.790
  291SOL     OW 1759   0.548   0.058   2.366
  291SOL    HW1 1760   0.469   0.059   2.421
  291SOL    HW2 1761   0.535   0.129   2.303
  292SOL     OW 1762   1.428   1.198   1.903
  292SOL    HW1 1763   1.458   1.123   1.953
  292SOL    HW2 1764   1.343   1.220   1.940
  293SOL     OW 1765   0.316   0.066   2.047
  293SOL    HW1 1766   0.383   0.132   2.029
  293SOL    HW2 1767   0.365   5.284   2.053
  294SOL     OW 1768   0.940   0.265   2.324
  294SOL    HW1 1769   0.913   0.300   2.240
  294SOL    HW2 1770   1.035   0.275   2.325
  295SOL     OW 1771   1.081   0.682   3.321
  295SOL    HW1 1772   1.013   0.615   3.326
  295SOL    HW2 1773   1.163   0.633   3.314
  296SOL     OW 1774   1.223   1.570   2.656
  296SOL    HW1 1775   1.238   1.637   2.589
  296SOL    HW2 1776   1.291   1.586   2.721
  297SOL     OW 1777   0.468   1.151   2.592
  297SOL    HW1 1778   0.399   1.130   2.656
  297SOL    HW2 1779   0.428   1.133   2.507
  298SOL     OW 1780   1.268   1.793   2.471
  298SOL    HW1 1781   1.315   1.855   2.414
  298SOL    HW2 1782   1.201   1.847   2.514
  299SOL     OW 1783   1.025   0.545   1.885
  299SOL    HW1 1784   0.983   0.629   1.867
  299SOL    HW2 1785   1.089   0.565   1.954
  300SOL     OW 1786   0.100   0.529   3.275
  300SOL    HW1 1787   0.180   0.549   3.226
  300SOL    HW2 1788   0.079   0.611   3.320
  301SOL     OW 1789   0.560   0.239   3.020
  301SOL    HW1 1790   0.592   0.153   3.047
  301SOL    HW2 1791   0.467   0.239   3.045
  302SOL     OW 1792   0.867   0.464   2.503
  302SOL    HW1 1793   0.820   0.517   2.439
  302SOL    HW2 1794   0.890   0.384   2.456
  303SOL     OW 1795   0.979   0.061   2.625
  303SOL    HW1 1796   0.914   0.057   2.555
  303SOL    HW2 1797   0.987   5.270   2.655
  304SOL     OW 1798   1.438   1.162   2.719
  304SOL    HW1 1799   1.368   1.097   2.718
  304SOL    HW2 1800   1.463   1.173   2.627
  305SOL     OW 1801   1.466   0.607   2.838
  305SOL    HW1 1802   1.416   0.526   2.841
  305SOL    HW2 1803   1.526   0.601   2.912
  306SOL     OW 1804   1.845   0.816   2.245
  306SOL    HW1 1805   1.901   0.765   2.303
  306SOL    HW2 1806   1.817   0.753   2.178
  307SOL     OW 1807   0.491   1.419   2.019
  307SOL    HW1 1808   0.416   1.391   2.071
  307SOL    HW2 1809   0.477   1.380   1.933
  308SOL     OW 1810   1.671   1.264   2.508
  308SOL    HW1 1811   1.766   1.267   2.521
  308SOL    HW2 1812   1.641   1.352   2.528
  309SOL     OW 1813   1.394   0.572   1.933
  309SOL    HW1 1814   1.333   0.552   2.004
  309SOL    HW2 1815   1.479   0.542   1.966
  310SOL     OW 1816   0.522   0.265   2.182
  310SOL    HW1 1817   0.570   0.217   2.114
  310SOL    HW2 1818   0.501   0.350   2.142
  311SOL     OW 1819   1.752   1.239   3.434
  311SOL    HW1 1820   1.840   1.201   3.428
  311SOL    HW2 1821   1.767   1.330   3.461
  312SOL     OW 1822   1.058   1.352   3.194
  312SOL    HW1 1823   0.983   1.322   3.246
  312SOL    HW2 1824   1.134   1.312   3.236
  313SOL     OW 1825   1.607   1.623   3.516
  313SOL    HW1 1826   1.602   1.659   3.428
  313SOL    HW2 1827   1.692   1.578   3.518
  314SOL     OW 1828   1.129   1.203   2.967
  314SOL    HW1 1829   1.071   1.242   3.032
  314SOL    HW2 1830   1.098   1.237   2.883
  315SOL     OW 1831   1.627   1.098   2.939
  315SOL    HW1 1832   1.622   1.160   3.012
  315SOL    HW2 1833   1.549   1.115   2.887
  316SOL     OW 1834   0.905   0.107   3.250
  316SOL    HW1 1835   0.936   0.073   3.166
  316SOL    HW2 1836   0.982   0.150   3.288
  317SOL     OW 1837   0.984   1.115   3.585
  317SOL    HW1 1838   0.892   1.131   3.606
  317SOL    HW2 1839   0.983   1.037   3.529
  318SOL     OW 1840   0.708   1.060   2.234
  318SOL    HW1 1841   0.696   1.044   2.328
  318SOL    HW2 1842   0.784   1.007   2.210
  319SOL     OW 1843   0.420   0.821   3.115
  319SOL    HW1 1844   0.490   0.827   3.181
  319SOL    HW2 1845   0.386   0.732   3.124
  320SOL     OW 1846   1.266   0.378   3.136
  320SOL    HW1 1847   1.299   0.455   3.182
  320SOL    HW2 1848   1.176   0.401   3.113
  321SOL     OW 1849   0.102   1.623   3.229
  321SOL    HW1 1850   0.081   1.631   3.136
  321SOL    HW2 1851   0.188   1.582   3.230
  322SOL     OW 1852   0.342   1.107   2.349
  322SOL    HW1 1853   0.350   1.187   2.296
  322SOL    HW2 1854   0.350   1.036   2.286
  323SOL     OW 1855   0.555   0.536   2.722
  323SOL    HW1 1856   0.569   0.595   2.647
  323SOL    HW2 1857   0.620   0.562   2.786
  324SOL     OW 1858   1.248   1.349   2.251
  324SOL    HW1 1859   1.304   1.420   2.282
  324SOL    HW2 1860   1.161   1.370   2.285
  325SOL     OW 1861   1.283   1.458   3.009
  325SOL    HW1 1862   1.339   1.462   3.087
  325SOL    HW2 1863   1.227   1.382   3.024
  326SOL     OW 1864   1.581   0.622   2.342
  326SOL    HW1 1865   1.534   0.675   2.406
  326SOL    HW2 1866   1.626   0.686   2.286
  327SOL     OW 1867   0.352   1.520   3.172
  327SOL    HW1 1868   0.341   1.476   3.087
  327SOL    HW2 1869   0.446   1.537   3.178
  328SOL     OW 1870   0.416   0.740   3.465
  328SOL    HW1 1871   0.474   0.789   3.406
  328SOL    HW2 1872   0.461   0.658   3.481
  329SOL     OW 1873   1.603   0.779   3.544
  329SOL    HW1 1874   1.517   0.821   3.538
  329SOL    HW2 1875   1.655   0.821   3.476
  330SOL     OW 1876   1.048   0.118   3.646
  330SOL    HW1 1877   1.074   0.197   3.599
  330SOL    HW2 1878   1.052   0.048   3.581
  331SOL     OW 1879   0.483   0.059   3.599
  331SOL    HW1 1880   0.425   5.292   3.564
  331SOL    HW2 1881   0.426   0.134   3.616
  332SOL     OW 1882   0.586   0.874   2.894
  332SOL    HW1 1883   0.618   0.964   2.894
  332SOL    HW2 1884   0.529   0.870   2.971
  333SOL     OW 1885   1.356   0.859   2.891
  333SOL    HW1 1886   1.273   0.849   2.845
  333SOL    HW2 1887   1.398   0.773   2.884
  334SOL     OW 1888   1.204   0.528   2.128
  334SOL    HW1 1889   1.210   0.448   2.180
  334SOL    HW2 1890   1.162   0.591   2.186
  335SOL     OW 1891   0.304   0.205   3.108
  335SOL    HW1 1892   0.262   0.237   3.188
  335SOL    HW2 1893   0.295   0.110   3.112
  336SOL     OW 1894   0.066   1.317   3.142
  336SOL    HW1 1895   0.091   1.259   3.213
  336SOL    HW2 1896   5.296   1.371   3.178
  337SOL     OW 1897   0.726   0.632   2.921
  337SOL    HW1 1898   0.800   0.615   2.863
  337SOL    HW2 1899   0.697   0.721   2.899
  338SOL     OW 1900   1.736   0.959   3.716
  338SOL    HW1 1901   1.690   0.897   3.659
  338SOL    HW2 1902   1.675   0.974   3.789
  339SOL     OW 1903   0.319   0.068   2.518
  339SOL    HW1 1904   0.299   0.161   2.524
  339SOL    HW2 1905   0.326   0.038   2.609
  340SOL     OW 1906   1.613   0.376   2.225
  340SOL    HW1 1907   1.646   0.312   2.288
  340SOL    HW2 1908   1.593   0.453   2.278
  341SOL     OW 1909   1.028   0.759   2.822
  341SOL    HW1 1910   1.024   0.777   2.916
  341SOL    HW2 1911   1.001   0.668   2.813
  342SOL     OW 1912   0.981   1.565   3.580
  342SOL    HW1 1913   0.967   1.610   3.497
  342SOL    HW2 1914   1.026   1.484   3.556
  343SOL     OW 1915   1.854   1.502   3.468
  343SOL    HW1 1916   1.871   1.531   3.378
  343SOL    HW2 1917   1.935   1.523   3.515
  344SOL     OW 1918   0.354   0.917   3.669
  344SOL    HW1 1919   0.435   0.938   3.716
  344SOL    HW2 1920   0.381   0.852   3.603
  345SOL     OW 1921   1.525   0.271   1.988
  345SOL    HW1 1922   1.461   0.208   2.019
  345SOL    HW2 1923   1.562   0.310   2.067
  346SOL     OW 1924   1.290   0.826   1.893
  346SOL    HW1 1925   1.333   0.741   1.896
  346SOL    HW2 1926   1.322   0.865   1.811
  347SOL     OW 1927   1.067   1.336   2.717
  347SOL    HW1 1928   1.070   1.264   2.654
  347SOL    HW2 1929   1.127   1.401   2.682
  348SOL     OW 1930   0.314   0.810   2.812
  348SOL    HW1 1931   0.408   0.828   2.807
  348SOL    HW2 1932   0.308   0.719   2.842
  349SOL     OW 1933   0.336   0.527   2.877
  349SOL    HW1 1934   0.299   0.440   2.862
  349SOL    HW2 1935   0.411   0.531   2.818
  350SOL     OW 1936   1.135   0.377   3.551
  350SOL    HW1 1937   1.087   0.432   3.614
  350SOL    HW2 1938   1.222   0.417   3.547
  351SOL     OW 1939   1.133   0.223   3.328
  351SOL    HW1 1940   1.137   0.282   3.404
  351SOL    HW2 1941   1.188   0.264   3.262
  352SOL     OW 1942   0.002   1.329   2.072
  352SOL    HW1 1943   5.230   1.317   2.011
  352SOL    HW2 1944   0.012   1.243   2.114
  353SOL     OW 1945   0.094   1.781   2.814
  353SOL    HW1 1946   0.060   1.712   2.757
  353SOL    HW2 1947   0.181   1.801   2.779
  354SOL     OW 1948   0.505   1.574   2.770
  354SOL    HW1 1949   0.572   1.639   2.790
  354SOL    HW2 1950   0.548   1.513   2.710
  355SOL     OW 1951   0.982   0.791   3.088
  355SOL    HW1 1952   1.038   0.769   3.162
  355SOL    HW2 1953   0.897   0.754   3.111
  356SOL     OW 1954   0.036   0.569   2.983
  356SOL    HW1 1955   0.117   0.537   2.942
  356SOL    HW2 1956   0.037   0.533   3.071
  357SOL     OW 1957   0.166   0.517   3.579
  357SOL    HW1 1958   0.251   0.495   3.539
  357SOL    HW2 1959   0.137   0.595   3.533
  358SOL     OW 1960   1.378   0.938   3.520
  358SOL    HW1 1961   1.399   1.031   3.518
  358SOL    HW2 1962   1.374   0.912   3.428
  359SOL     OW 1963   0.814   0.572   2.225
  359SOL    HW1 1964   0.819   0.499   2.165
  359SOL    HW2 1965   0.740   0.625   2.194
  360SOL     OW 1966   1.642   0.601   3.047
  360SOL    HW1 1967   1.631   0.542   3.121
  360SOL    HW2 1968   1.729   0.581   3.013
  361SOL     OW 1969   0.256   1.556   3.596
  361SOL    HW1 1970   0.234   1.619   3.665
  361SOL    HW2 1971   0.250   1.470   3.640
  362SOL     OW 1972   0.700   0.452   3.122
  362SOL    HW1 1973   0.650   0.378   3.089
  362SOL    HW2 1974   0.699   0.516   3.051
  363SOL     OW 1975   0.926   1.678   3.330
  363SOL    HW1 1976   0.901   1.644   3.245
  363SOL    HW2 1977   0.923   1.773   3.320
  364SOL     OW 1978   0.463   0.492   2.041
  364SOL    HW1 1979   0.526   0.560   2.065
  364SOL    HW2 1980   0.380   0.539   2.032
  365SOL     OW 1981   0.147   1.137   3.333
  365SOL    HW1 1982   0.144   1.090   3.416
  365SOL    HW2 1983   0.159   1.069   3.266
  366SOL     OW 1984   1.325   1.046   3.085
  366SOL    HW1 1985   1.348   0.983   3.017
  366SOL    HW2 1986   1.255   1.099   3.045
  367SOL     OW 1987   1.312   0.857   2.168
  367SOL    HW1 1988   1.237   0.826   2.218
  367SOL    HW2 1989   1.287   0.843   2.076
  368SOL     OW 1990   1.769   1.743   3.011
  368SOL    HW1 1991   1.832   1.768   2.943
  368SOL    HW2 1992   1.747   1.652   2.990
  369SOL     OW 1993   1.240   1.733   2.972
  369SOL    HW1 1994   1.323   1.754   2.929
  369SOL    HW2 1995   1.247   1.639   2.992
  370SOL     OW 1996   0.082   1.214   2.889
  370SOL    HW1 1997   0.070   1.241   2.980
  370SOL    HW2 1998   5.293   1.204   2.855
  371SOL     OW 1999   0.678   1.667   3.593
  371SOL    HW1 2000   0.622   1.744   3.586
  371SOL    HW2 2001   0.743   1.679   3.524
  372SOL     OW 2002   1.711   0.150   2.363
  372SOL    HW1 2003   1.787   0.129   2.308
  372SOL    HW2 2004   1.705   0.076   2.423
  373SOL     OW 2005   1.391   1.568   2.348
  373SOL    HW1 2006   1.451   1.600   2.281
  373SOL    HW2 2007   1.342   1.645   2.376
  374SOL     OW 2008   0.146   1.798   3.704
  374SOL    HW1 2009   0.091   1.735   3.752
  374SOL    HW2 2010   0.193   1.845   3.773
  375SOL     OW 2011   1.277   0.926   2.533
  375SOL    HW1 2012   1.351   0.866   2.541
  375SOL    HW2 2013   1.311   0.998   2.480
  376SOL     OW 2014   0.813   1.273   3.291
  376SOL    HW1 2015   0.784   1.313   3.373
  376SOL    HW2 2016   0.744   1.295   3.229
  377SOL     OW 2017   0.672   1.620   2.017
  377SOL    HW1 2018   0.683   1.634   1.923
  377SOL    HW2 2019   0.617   1.542   2.024
  378SOL     OW 2020   1.623   1.719   3.250
  378SOL    HW1 2021   1.676   1.729   3.171
  378SOL    HW2 2022   1.601   1.809   3.276
  379SOL     OW 2023   1.846   0.155   2.819
  379SOL    HW1 2024   1.843   0.060   2.811
  379SOL    HW2 2025   1.760   0.185   2.789
  380SOL     OW 2026   0.270   0.329   2.580
  380SOL    HW1 2027   0.183   0.366   2.565
  380SOL    HW2 2028   0.274   0.314   2.674
  381SOL     OW 2029   1.208   1.605   1.894
  381SOL    HW1 2030   1.197   1.514   1.920
  381SOL    HW2 2031   1.142   1.618   1.825
  382SOL     OW 2032   0.824   1.006   3.235
  382SOL    HW1 2033   0.868   1.001   3.150
  382SOL    HW2 2034   0.823   1.099   3.256
  383SOL     OW 2035   0.915   0.910   2.152
  383SOL    HW1 2036   0.976   0.942   2.086
  383SOL    HW2 2037   0.964   0.841   2.198
  384SOL     OW 2038   1.491   1.625   1.905
  384SOL    HW1 2039   1.397   1.619   1.891
  384SOL    HW2 2040   1.528   1.632   1.817
  385SOL     OW 2041   0.367   1.304   3.355
  385SOL    HW1 2042   0.359   1.378   3.295
  385SOL    HW2 2043   0.291   1.249   3.335
  386SOL     OW 2044   1.610   1.283   3.142
  386SOL    HW1 2045   1.671   1.272   3.215
  386SOL    HW2 2046   1.550   1.351   3.171
  387SOL     OW 2047   1.053   1.108   2.569
  387SOL    HW1 2048   0.983   1.056   2.608
  387SOL    HW2 2049   1.117   1.042   2.539
  388SOL     OW 2050   1.019   0.243   2.831
  388SOL    HW1 2051   0.999   0.198   2.749
  388SOL    HW2 2052   1.012   0.176   2.898
  389SOL     OW 2053   0.602   1.487   2.343
  389SOL    HW1 2054   0.648   1.439   2.274
  389SOL    HW2 2055   0.534   1.537   2.296
  390SOL     OW 2056   1.725   0.386   3.240
  390SOL    HW1 2057   1.795   0.451   3.239
  390SOL    HW2 2058   1.757   0.316   3.182
  391SOL     OW 2059   0.261   1.348   2.155
  391SOL    HW1 2060   0.168   1.350   2.132
  391SOL    HW2 2061   0.264   1.385   2.243
  392SOL     OW 2062   0.117   1.015   3.579
  392SOL    HW1 2063   0.046   0.983   3.634
  392SOL    HW2 2064   0.197   0.985   3.622
  393SOL     OW 2065   0.675   0.217   3.353
  393SOL    HW1 2066   0.758   0.200   3.308
  393SOL    HW2 2067   0.700   0.262   3.433
  394SOL     OW 2068   0.079   0.335   1.899
  394SOL    HW1 2069   5.287   0.311   1.889
  394SOL    HW2 2070   0.093   0.404   1.834
  395SOL     OW 2071   1.429   0.858   3.262
  395SOL    HW1 2072   1.380   0.919   3.207
  395SOL    HW2 2073   1.518   0.861   3.227
  396SOL     OW 2074   0.084   0.142   2.155
  396SOL    HW1 2075   0.078   0.236   2.136
  396SOL    HW2 2076   0.171   0.117   2.124
  397SOL     OW 2077   1.179   1.338   1.979
  397SOL    HW1 2078   1.088   1.308   1.982
  397SOL    HW2 2079   1.206   1.339   2.071
  398SOL     OW 2080   0.620   0.831   3.298
  398SOL    HW1 2081   0.675   0.907   3.282
  398SOL    HW2 2082   0.681   0.758   3.305
  399SOL     OW 2083   1.484   1.777   2.842
  399SOL    HW1 2084   1.506   1.838   2.772
  399SOL    HW2 2085   1.567   1.759   2.886
  400SOL     OW 2086   0.713   0.573   3.565
  400SOL    HW1 2087   0.757   0.636   3.622
  400SOL    HW2 2088   0.743   0.488   3.595
  401SOL     OW 2089   1.472   1.199   3.493
  401SOL    HW1 2090   1.460   1.213   3.587
  401SOL    HW2 2091   1.565   1.215   3.478
  402SOL     OW 2092   0.376   1.743   3.427
  402SOL    HW1 2093   0.294   1.789   3.410
  402SOL    HW2 2094   0.351   1.663   3.471
  403SOL     OW 2095   1.669   0.881   3.117
  403SOL    HW1 2096   1.663   0.796   3.074
  403SOL    HW2 2097   1.659   0.945   3.047
  404SOL     OW 2098   1.220   0.319   2.327
  404SOL    HW1 2099   1.283   0.247   2.321
  404SOL    HW2 2100   1.250   0.370   2.401
  405SOL     OW 2101   0.589   0.737   2.532
  405SOL    HW1 2102   0.628   0.823   2.516
  405SOL    HW2 2103   0.520   0.730   2.465
  406SOL     OW 2104   1.766   0.362   3.511
  406SOL    HW1 2105   1.747   0.377   3.418
  406SOL    HW2 2106   1.694   0.306   3.541
  407SOL     OW 2107   1.746   0.934   3.374
  407SOL    HW1 2108   1.741   1.029   3.387
  407SOL    HW2 2109   1.730   0.922   3.280
  408SOL     OW 2110   0.862   1.367   1.897
  408SOL    HW1 2111   0.824   1.396   1.980
  408SOL    HW2 2112   0.881   1.447   1.850
  409SOL     OW 2113   0.664   1.793   2.804
  409SOL    HW1 2114   0.643   1.883   2.782
  409SOL    HW2 2115   0.759   1.788   2.798
  410SOL     OW 2116   0.868   0.967   2.716
  410SOL    HW1 2117   0.918   0.896   2.755
  410SOL    HW2 2118   0.833   1.016   2.790
  411SOL     OW 2119   1.077   0.987   1.950
  411SOL    HW1 2120   1.057   1.039   1.872
  411SOL    HW2 2121   1.153   0.934   1.925
  412SOL     OW 2122   1.853   1.553   2.705
  412SOL    HW1 2123   1.774   1.542   2.652
  412SOL    HW2 2124   1.843   1.489   2.776
  413SOL     OW 2125   0.226   1.304   3.723
  413SOL    HW1 2126   0.157   1.243   3.697
  413SOL    HW2 2127   0.215   1.315   3.817
  414SOL     OW 2128   0.088   1.218   2.516
  414SOL    HW1 2129   0.102   1.187   2.605
  414SOL    HW2 2130   0.175   1.218   2.476
  415SOL     OW 2131   0.682   1.403   3.491
  415SOL    HW1 2132   0.601   1.361   3.521
  415SOL    HW2 2133   0.678   1.492   3.527
  416SOL     OW 2134   1.812   0.176   3.094
  416SOL    HW1 2135   1.777   0.087   3.097
  416SOL    HW2 2136   1.833   0.190   3.001
  417SOL     OW 2137   0.433   0.436   2.384
  417SOL    HW1 2138   0.465   0.363   2.332
  417SOL    HW2 2139   0.387   0.396   2.457
  418SOL     OW 2140   1.701   1.487   2.955
  418SOL    HW1 2141   1.619   1.466   2.910
  418SOL    HW2 2142   1.711   1.419   3.022
  419SOL     OW 2143   0.338   0.562   3.151
  419SOL    HW1 2144   0.394   0.504   3.202
  419SOL    HW2 2145   0.351   0.535   3.060
  420SOL     OW 2146   0.829   1.577   2.539
  420SOL    HW1 2147   0.815   1.635   2.464
  420SOL    HW2 2148   0.753   1.520   2.541
  421SOL     OW 2149   1.428   0.219   2.978
  421SOL    HW1 2150   1.464   0.144   3.026
  421SOL    HW2 2151   1.379   0.268   3.044
  422SOL     OW 2152   1.002   0.020   3.002
  422SOL    HW1 2153   0.951   5.252   2.957
  422SOL    HW2 2154   1.088   5.281   3.016
  423SOL     OW 2155   0.772   1.333   2.178
  423SOL    HW1 2156   0.743   1.242   2.185
  423SOL    HW2 2157   0.854   1.335   2.228
  424SOL     OW 2158   0.623   1.555   3.150
  424SOL    HW1 2159   0.624   1.638   3.199
  424SOL    HW2 2160   0.710   1.550   3.110
  425SOL     OW 2161   1.354   0.037   2.025
  425SOL    HW1 2162   1.390   5.296   1.946
  425SOL    HW2 2163   1.276   5.285   2.045
  426SOL     OW 2164   1.301   0.464   2.546
  426SOL    HW1 2165   1.246   0.543   2.551
  426SOL    HW2 2166   1.294   0.424   2.633
  427SOL     OW 2167   1.595   0.215   2.745
  427SOL    HW1 2168   1.529   0.227   2.813
  427SOL    HW2 2169   1.587   0.294   2.690
  428SOL     OW 2170   0.048   1.068   2.152
  428SOL    HW1 2171   0.137   1.035   2.141
  428SOL    HW2 2172   5.300   0.994   2.188
  429SOL     OW 2173   0.886   1.653   2.203
  429SOL    HW1 2174   0.813   1.638   2.143
  429SOL    HW2 2175   0.859   1.728   2.256
  430SOL     OW 2176   0.232   0.632   3.842
  430SOL    HW1 2177   0.158   0.604   3.895
  430SOL    HW2 2178   0.212   0.602   3.753
  431SOL     OW 2179   0.233   0.281   4.714
  431SOL    HW1 2180   0.252   0.243   4.799
  431SOL    HW2 2181   0.153   0.238   4.685
  432SOL     OW 2182   5.299   0.407   4.390
  432SOL    HW1 2183   5.206   0.429   4.393
  432SOL    HW2 2184   0.001   0.316   4.357
  433SOL     OW 2185   0.575   1.286   4.908
  433SOL    HW1 2186   0.492   1.294   4.860
  433SOL    HW2 2187   0.591   1.374   4.943
  434SOL     OW 2188   1.561   1.510   4.431
  434SOL    HW1 2189   1.519   1.491   4.515
  434SOL    HW2 2190   1.489   1.515   4.369
  435SOL     OW 2191   1.132   0.698   4.424
  435SOL    HW1 2192   1.180   0.779   4.410
  435SOL    HW2 2193   1.084   0.712   4.506
  436SOL     OW 2194   1.768   0.605   3.952
  436SOL    HW1 2195   1.747   0.598   3.859
  436SOL    HW2 2196   1.732   0.525   3.991
  437SOL     OW 2197   0.754   1.140   4.764
  437SOL    HW1 2198   0.688   1.175   4.824
  437SOL    HW2 2199   0.790   1.217   4.721
  438SOL     OW 2200   0.866   0.776   5.546
  438SOL    HW1 2201   0.859   0.847   5.609
  438SOL    HW2 2202   0.891   0.818   5.464
  439SOL     OW 2203   0.685   1.001   4.371
  439SOL    HW1 2204   0.751   0.990   4.439
  439SOL    HW2 2205   0.618   1.055   4.412
  440SOL     OW 2206   0.710   1.150   5.538
  440SOL    HW1 2207   0.759   1.228   5.565
  440SOL    HW2 2208   0.629   1.184   5.501
  441SOL     OW 2209   0.359   1.404   4.784
  441SOL    HW1 2210   0.270   1.406   4.749
  441SOL    HW2 2211   0.407   1.466   4.729
  442SOL     OW 2212   1.461   1.500   5.079
  442SOL    HW1 2213   1.513   1.579   5.088
  442SOL    HW2 2214   1.398   1.505   5.151
  443SOL     OW 2215   0.450   0.399   5.211
  443SOL    HW1 2216   0.530   0.346   5.207
  443SOL    HW2 2217   0.379   0.336   5.220
  444SOL     OW 2218   1.610   0.451   4.462
  444SOL    HW1 2219   1.534   0.474   4.408
  444SOL    HW2 2220   1.626   0.530   4.514
  445SOL     OW 2221   0.233   1.714   4.201
  445SOL    HW1 2222   0.264   1.783   4.259
  445SOL    HW2 2223   0.295   1.711   4.129
  446SOL     OW 2224   1.137   1.342   5.417
  446SOL    HW1 2225   1.178   1.336   5.503
  446SOL    HW2 2226   1.085   1.262   5.410
  447SOL     OW 2227   0.221   1.445   4.264
  447SOL    HW1 2228   0.217   1.540   4.258
  447SOL    HW2 2229   0.151   1.422   4.324
  448SOL     OW 2230   0.250   1.077   4.598
  448SOL    HW1 2231   0.262   0.991   4.640
  448SOL    HW2 2232   0.198   1.127   4.661
  449SOL     OW 2233   0.612   1.790   5.156
  449SOL    HW1 2234   0.528   1.773   5.199
  449SOL    HW2 2235   0.633   1.881   5.179
  450SOL     OW 2236   0.581   0.984   3.860
  450SOL    HW1 2237   0.628   1.031   3.791
  450SOL    HW2 2238   0.622   1.014   3.941
  451SOL     OW 2239   1.587   0.136   5.179
  451SOL    HW1 2240   1.611   0.220   5.141
  451SOL    HW2 2241   1.582   0.153   5.273
  452SOL     OW 2242   0.124   0.636   4.301
  452SOL    HW1 2243   0.090   0.553   4.336
  452SOL    HW2 2244   0.098   0.701   4.366
  453SOL     OW 2245   1.830   1.743   4.059
  453SOL    HW1 2246   1.904   1.719   4.116
  453SOL    HW2 2247   1.845   1.835   4.038
  454SOL     OW 2248   0.038   1.599   3.857
  454SOL    HW1 2249   0.025   1.508   3.882
  454SOL    HW2 2250   5.282   1.649   3.916
  455SOL     OW 2251   1.689   0.918   4.366
  455SOL    HW1 2252   1.772   0.875   4.344
  455SOL    HW2 2253   1.666   0.969   4.288
  456SOL     OW 2254   1.646   1.106   4.153
  456SOL    HW1 2255   1.732   1.111   4.112
  456SOL    HW2 2256   1.651   1.167   4.226
  457SOL     OW 2257   0.131   0.750   5.309
  457SOL    HW1 2258   0.226   0.764   5.309
  457SOL    HW2 2259   0.094   0.836   5.326
  458SOL     OW 2260   0.616   1.386   4.458
  458SOL    HW1 2261   0.568   1.304   4.469
  458SOL    HW2 2262   0.598   1.413   4.368
  459SOL     OW 2263   1.288   1.237   5.147
  459SOL    HW1 2264   1.320   1.170   5.087
  459SOL    HW2 2265   1.346   1.232   5.223
  460SOL     OW 2266   0.816   0.029   4.253
  460SOL    HW1 2267   0.843   0.117   4.227
  460SOL    HW2 2268   0.720   0.031   4.245
  461SOL     OW 2269   0.174   0.944   5.003
  461SOL    HW1 2270   0.265   0.914   4.995
  461SOL    HW2 2271   0.134   0.924   4.918
  462SOL     OW 2272   1.531   0.994   3.923
  462SOL    HW1 2273   1.461   0.937   3.955
  462SOL    HW2 2274   1.572   1.029   4.002
  463SOL     OW 2275   1.184   1.807   5.347
  463SOL    HW1 2276   1.195   1.867   5.273
  463SOL    HW2 2277   1.202   1.720   5.310
  464SOL     OW 2278   0.329   0.279   5.521
  464SOL    HW1 2279   0.388   0.338   5.568
  464SOL    HW2 2280   0.248   0.280   5.572
  465SOL     OW 2281   1.467   1.419   4.675
  465SOL    HW1 2282   1.399   1.435   4.741
  465SOL    HW2 2283   1.454   1.328   4.649
  466SOL     OW 2284   1.659   1.736   4.306
  466SOL    HW1 2285   1.641   1.708   4.217
  466SOL    HW2 2286   1.631   1.662   4.361
  467SOL     OW 2287   0.594   0.720   3.990
  467SOL    HW1 2288   0.602   0.801   3.941
  467SOL    HW2 2289   0.530   0.739   4.058
  468SOL     OW 2290   1.278   0.348   4.655
  468SOL    HW1 2291   1.187   0.320   4.667
  468SOL    HW2 2292   1.328   0.298   4.719
  469SOL     OW 2293   1.572   1.668   4.033
  469SOL    HW1 2294   1.664   1.694   4.029
  469SOL    HW2 2295   1.547   1.653   3.941
  470SOL     OW 2296   0.794   0.618   5.174
  470SOL    HW1 2297   0.766   0.596   5.263
  470SOL    HW2 2298   0.752   0.552   5.119
  471SOL     OW 2299   1.394   0.475   5.402
  471SOL    HW1 2300   1.397   0.520   5.487
  471SOL    HW2 2301   1.458   0.404   5.411
  472SOL     OW 2302   0.953   0.887   5.307
  472SOL    HW1 2303   1.008   0.817   5.271
  472SOL    HW2 2304   0.906   0.922   5.231
  473SOL     OW 2305   0.993   0.417   4.959
  473SOL    HW1 2306   0.907   0.438   4.995
  473SOL    HW2 2307   0.974   0.369   4.878
  474SOL     OW 2308   1.051   0.698   4.150
  474SOL    HW1 2309   1.067   0.691   4.245
  474SOL    HW2 2310   0.968   0.652   4.137
  475SOL     OW 2311   0.070   0.788   4.535
  475SOL    HW1 2312   0.151   0.793   4.586
  475SOL    HW2 2313   0.066   0.873   4.490
  476SOL     OW 2314   0.129   1.885   5.309
  476SOL    HW1 2315   0.133   1.857   5.401
  476SOL    HW2 2316   0.060   1.831   5.270
  477SOL     OW 2317   0.875   0.366   3.912
  477SOL    HW1 2318   0.915   0.425   3.848
  477SOL    HW2 2319   0.931   0.289   3.912
  478SOL     OW 2320   1.706   0.573   5.552
  478SOL    HW1 2321   1.670   0.647   5.503
  478SOL    HW2 2322   1.738   0.513   5.484
  479SOL     OW 2323   1.377   1.142   4.265
  479SOL    HW1 2324   1.456   1.130   4.212
  479SOL    HW2 2325   1.324   1.204   4.215
  480SOL     OW 2326   0.536   0.203   4.606
  480SOL    HW1 2327   0.552   0.220   4.699
  480SOL    HW2 2328   0.549   0.287   4.563
  481SOL     OW 2329   1.004   1.443   4.195
  481SOL    HW1 2330   0.969   1.517   4.146
  481SOL    HW2 2331   0.986   1.465   4.287
  482SOL     OW 2332   0.357   1.803   4.594
  482SOL    HW1 2333   0.398   1.718   4.607
  482SOL    HW2 2334   0.423   1.866   4.625
  483SOL     OW 2335   1.800   1.057   4.592
  483SOL    HW1 2336   1.745   1.037   4.515
  483SOL    HW2 2337   1.738   1.062   4.665
  484SOL     OW 2338   1.228   1.539   5.237
  484SOL    HW1 2339   1.214   1.466   5.297
  484SOL    HW2 2340   1.164   1.525   5.168
  485SOL     OW 2341   0.316   0.952   3.972
  485SOL    HW1 2342   0.397   0.977   3.929
  485SOL    HW2 2343   0.294   0.866   3.937
  486SOL     OW 2344   1.479   0.744   4.450
  486SOL    HW1 2345   1.472   0.702   4.536
  486SOL    HW2 2346   1.557   0.800   4.458
  487SOL     OW 2347   0.465   1.264   5.462
  487SOL    HW1 2348   0.439   1.270   5.370
  487SOL    HW2 2349   0.383   1.265   5.511
  488SOL     OW 2350   1.123   1.778   3.955
  488SOL    HW1 2351   1.049   1.736   4.000
  488SOL    HW2 2352   1.146   1.717   3.885
  489SOL     OW 2353   0.198   0.280   5.218
  489SOL    HW1 2354   0.160   0.368   5.212
  489SOL    HW2 2355   0.208   0.266   5.312
  490SOL     OW 2356   1.629   1.379   3.814
  490SOL    HW1 2357   1.589   1.465   3.797
  490SOL    HW2 2358   1.560   1.316   3.793
  491SOL     OW 2359   0.471   1.734   4.043
  491SOL    HW1 2360   0.514   1.792   4.106
  491SOL    HW2 2361   0.542   1.703   3.987
  492SOL     OW 2362   1.407   0.101   4.155
  492SOL    HW1 2363   1.400   0.081   4.062
  492SOL    HW2 2364   1.500   0.121   4.168
  493SOL     OW 2365   0.277   1.801   4.935
  493SOL    HW1 2366   0.307   1.723   4.981
  493SOL    HW2 2367   0.225   1.767   4.862
  494SOL     OW 2368   0.939   1.699   4.623
  494SOL    HW1 2369   1.017   1.648   4.644
  494SOL    HW2 2370   0.895   1.649   4.554
  495SOL     OW 2371   0.385   0.696   4.202
  495SOL    HW1 2372   0.415   0.605   4.211
  495SOL    HW2 2373   0.292   0.693   4.224
  496SOL     OW 2374   1.538   0.227   5.447
  496SOL    HW1 2375   1.546   0.245   5.541
  496SOL    HW2 2376   1.462   0.170   5.439
  497SOL     OW 2377   0.621   0.132   3.831
  497SOL    HW1 2378   0.685   0.067   3.857
  497SOL    HW2 2379   0.574   0.092   3.758
  498SOL     OW 2380   0.780   0.312   5.490
  498SOL    HW1 2381   0.840   0.238   5.491
  498SOL    HW2 2382   0.735   0.307   5.575
  499SOL     OW 2383   0.877   1.522   4.918
  499SOL    HW1 2384   0.861   1.485   4.830
  499SOL    HW2 2385   0.947   1.467   4.953
  500SOL     OW 2386   1.341   0.589   5.156
  500SOL    HW1 2387   1.371   0.558   5.241
  500SOL    HW2 2388   1.376   0.677   5.148
  501SOL     OW 2389   0.816   1.393   4.665
  501SOL    HW1 2390   0.901   1.382   4.621
  501SOL    HW2 2391   0.753   1.396   4.594
  502SOL     OW 2392   0.928   0.510   4.627
  502SOL    HW1 2393   0.904   0.503   4.535
  502SOL    HW2 2394   0.958   0.423   4.652
  503SOL     OW 2395   0.548   0.058   4.228
  503SOL    HW1 2396   0.469   0.059   4.283
  503SOL    HW2 2397   0.534   0.129   4.165
  504SOL     OW 2398   1.428   1.199   3.765
  504SOL    HW1 2399   1.458   1.123   3.815
  504SOL    HW2 2400   1.343   1.221   3.802
  505SOL     OW 2401   0.316   0.066   3.909
  505SOL    HW1 2402   0.383   0.132   3.892
  505SOL    HW2 2403   0.365   5.284   3.915
  506SOL     OW 2404   0.940   0.265   4.186
  506SOL    HW1 2405   0.913   0.300   4.102
  506SOL    HW2 2406   1.035   0.275   4.187
  507SOL     OW 2407   1.081   0.682   5.183
  507SOL    HW1 2408   1.013   0.615   5.188
  507SOL    HW2 2409   1.163   0.633   5.176
  508SOL     OW 2410   1.223   1.570   4.518
  508SOL    HW1 2411   1.239   1.637   4.451
  508SOL    HW2 2412   1.291   1.586   4.584
  509SOL     OW 2413   0.468   1.151   4.454
  509SOL    HW1 2414   0.399   1.130   4.518
  509SOL    HW2 2415   0.428   1.133   4.369
  510SOL     OW 2416   1.268   1.794   4.332
  510SOL    HW1 2417   1.315   1.855   4.276
  510SOL    HW2 2418   1.202   1.847   4.376
  511SOL     OW 2419   1.025   0.545   3.747
  511SOL    HW1 2420   0.983   0.629   3.729
  511SOL    HW2 2421   1.089   0.565   3.816
  512SOL     OW 2422   0.100   0.530   5.137
  512SOL    HW1 2423   0.180   0.549   5.088
  512SOL    HW2 2424   0.079   0.611   5.182
  513SOL     OW 2425   0.560   0.239   4.882
  513SOL    HW1 2426   0.592   0.153   4.909
  513SOL    HW2 2427   0.467   0.239   4.907
  514SOL     OW 2428   0.867   0.464   4.365
  514SOL    HW1 2429   0.820   0.517   4.301
  514SOL    HW2 2430   0.890   0.384   4.318
  515SOL     OW 2431   0.979   0.060   4.487
  515SOL    HW1 2432   0.914   0.057   4.417
  515SOL    HW2 2433   0.987   5.270   4.517
  516SOL     OW 2434   1.438   1.162   4.581
  516SOL    HW1 2435   1.368   1.097   4.580
  516SOL    HW2 2436   1.462   1.173   4.489
  517SOL     OW 2437   1.466   0.607   4.700
  517SOL    HW1 2438   1.415   0.526   4.703
  517SOL    HW2 2439   1.526   0.601   4.774
  518SOL     OW 2440   1.845   0.815   4.107
  518SOL    HW1 2441   1.901   0.764   4.165
  518SOL    HW2 2442   1.817   0.753   4.040
  519SOL     OW 2443   0.491   1.419   3.881
  519SOL    HW1 2444   0.416   1.391   3.933
  519SOL    HW2 2445   0.477   1.380   3.795
  520SOL     OW 2446   1.671   1.264   4.369
  520SOL    HW1 2447   1.765   1.267   4.383
  520SOL    HW2 2448   1.640   1.352   4.391
  521SOL     OW 2449   1.394   0.572   3.795
  521SOL    HW1 2450   1.333   0.552   3.866
  521SOL    HW2 2451   1.479   0.542   3.828
  522SOL     OW 2452   0.522   0.265   4.044
  522SOL    HW1 2453   0.570   0.217   3.976
  522SOL    HW2 2454   0.501   0.350   4.004
  523SOL     OW 2455   1.752   1.240   5.296
  523SOL    HW1 2456   1.840   1.202   5.290
  523SOL    HW2 2457   1.767   1.330   5.324
  524SOL     OW 2458   1.058   1.352   5.056
  524SOL    HW1 2459   0.983   1.322   5.108
  524SOL    HW2 2460   1.134   1.312   5.098
  525SOL     OW 2461   1.608   1.625   5.378
  525SOL    HW1 2462   1.602   1.660   5.289
  525SOL    HW2 2463   1.691   1.578   5.380
  526SOL     OW 2464   1.129   1.203   4.829
  526SOL    HW1 2465   1.071   1.242   4.894
  526SOL    HW2 2466   1.098   1.237   4.745
  527SOL     OW 2467   1.628   1.098   4.801
  527SOL    HW1 2468   1.623   1.160   4.873
  527SOL    HW2 2469   1.549   1.115   4.749
  528SOL     OW 2470   0.905   0.107   5.112
  528SOL    HW1 2471   0.936   0.073   5.028
  528SOL    HW2 2472   0.982   0.150   5.150
  529SOL     OW 2473   0.984   1.115   5.447
  529SOL    HW1 2474   0.892   1.131   5.468
  529SOL    HW2 2475   0.983   1.037   5.391
  530SOL     OW 2476   0.708   1.060   4.096
  530SOL    HW1 2477   0.696   1.044   4.190
  530SOL    HW2 2478   0.784   1.007   4.072
  531SOL     OW 2479   0.420   0.821   4.977
  531SOL    HW1 2480   0.490   0.827   5.043
  531SOL    HW2 2481   0.386   0.732   4.986
  532SOL     OW 2482   1.266   0.378   4.997
  532SOL    HW1 2483   1.299   0.455   5.044
  532SOL    HW2 2484   1.176   0.401   4.975
  533SOL     OW 2485   0.102   1.623   5.090
  533SOL    HW1 2486   0.081   1.631   4.997
  533SOL    HW2 2487   0.188   1.582   5.092
  534SOL     OW 2488   0.342   1.108   4.211
  534SOL    HW1 2489   0.350   1.187   4.158
  534SOL    HW2 2490   0.350   1.036   4.148
  535SOL     OW 2491   0.555   0.536   4.583
  535SOL    HW1 2492   0.569   0.595   4.509
  535SOL    HW2 2493   0.620   0.562   4.648
  536SOL     OW 2494   1.248   1.348   4.114
  536SOL    HW1 2495   1.303   1.420   4.144
  536SOL    HW2 2496   1.161   1.370   4.147
  537SOL     OW 2497   1.283   1.458   4.872
  537SOL    HW1 2498   1.339   1.462   4.949
  537SOL    HW2 2499   1.227   1.382   4.886
  538SOL     OW 2500   1.581   0.622   4.204
  538SOL    HW1 2501   1.534   0.675   4.268
  538SOL    HW2 2502   1.625   0.686   4.148
  539SOL     OW 2503   0.352   1.520   5.034
  539SOL    HW1 2504   0.341   1.476   4.949
  539SOL    HW2 2505   0.446   1.537   5.040
  540SOL     OW 2506   0.416   0.740   5.327
  540SOL    HW1 2507   0.474   0.789   5.268
  540SOL    HW2 2508   0.461   0.658   5.343
  541SOL     OW 2509   1.602   0.779   5.406
  541SOL    HW1 2510   1.516   0.820   5.400
  541SOL    HW2 2511   1.655   0.821   5.338
  542SOL     OW 2512   1.047   0.118   5.508
  542SOL    HW1 2513   1.074   0.197   5.461
  542SOL    HW2 2514   1.052   0.049   5.442
  543SOL     OW 2515   0.483   0.059   5.461
  543SOL    HW1 2516   0.424   5.292   5.426
  543SOL    HW2 2517   0.426   0.134   5.478
  544SOL     OW 2518   0.586   0.874   4.756
  544SOL    HW1 2519   0.618   0.964   4.756
  544SOL    HW2 2520   0.529   0.870   4.833
  545SOL     OW 2521   1.356   0.859   4.752
  545SOL    HW1 2522   1.273   0.848   4.707
  545SOL    HW2 2523   1.398   0.773   4.746
  546SOL     OW 2524   1.204   0.528   3.990
  546SOL    HW1 2525   1.210   0.448   4.042
  546SOL    HW2 2526   1.162   0.591   4.048
  547SOL     OW 2527   0.304   0.205   4.970
  547SOL    HW1 2528   0.262   0.237   5.050
  547SOL    HW2 2529   0.295   0.110   4.974
  548SOL     OW 2530   0.066   1.317   5.004
  548SOL    HW1 2531   0.091   1.259   5.075
  548SOL    HW2 2532   5.296   1.371   5.040
  549SOL     OW 2533   0.725   0.632   4.783
  549SOL    HW1 2534   0.800   0.615   4.725
  549SOL    HW2 2535   0.697   0.721   4.761
  550SOL     OW 2536   1.735   0.959   5.578
  550SOL    HW1 2537   1.690   0.897   5.521
  550SOL    HW2 2538   1.676   0.974   5.651
  551SOL     OW 2539   0.319   0.068   4.380
  551SOL    HW1 2540   0.299   0.161   4.387
  551SOL    HW2 2541   0.326   0.038   4.471
  552SOL     OW 2542   1.613   0.376   4.087
  552SOL    HW1 2543   1.646   0.312   4.150
  552SOL    HW2 2544   1.593   0.453   4.140
  553SOL     OW 2545   1.028   0.759   4.684
  553SOL    HW1 2546   1.024   0.777   4.778
  553SOL    HW2 2547   1.001   0.668   4.675
  554SOL     OW 2548   0.981   1.565   5.442
  554SOL    HW1 2549   0.967   1.610   5.359
  554SOL    HW2 2550   1.026   1.484   5.418
  555SOL     OW 2551   1.854   1.504   5.331
  555SOL    HW1 2552   1.872   1.529   5.240
  555SOL    HW2 2553   1.935   1.522   5.377
  556SOL     OW 2554   0.354   0.917   5.531
  556SOL    HW1 2555   0.435   0.938   5.578
  556SOL    HW2 2556   0.381   0.852   5.465
  557SOL     OW 2557   1.526   0.271   3.850
  557SOL    HW1 2558   1.461   0.208   3.881
  557SOL    HW2 2559   1.562   0.310   3.929
  558SOL     OW 2560   1.291   0.826   3.755
  558SOL    HW1 2561   1.333   0.741   3.758
  558SOL    HW2 2562   1.322   0.865   3.673
  559SOL     OW 2563   1.067   1.336   4.579
  559SOL    HW1 2564   1.070   1.264   4.516
  559SOL    HW2 2565   1.127   1.401   4.544
  560SOL     OW 2566   0.314   0.810   4.674
  560SOL    HW1 2567   0.408   0.828   4.670
  560SOL    HW2 2568   0.308   0.719   4.704
  561SOL     OW 2569   0.336   0.527   4.739
  561SOL    HW1 2570   0.299   0.440   4.724
  561SOL    HW2 2571   0.411   0.531   4.680
  562SOL     OW 2572   1.135   0.377   5.413
  562SOL    HW1 2573   1.087   0.432   5.476
  562SOL    HW2 2574   1.222   0.417   5.409
  563SOL     OW 2575   1.133   0.223   5.190
  563SOL    HW1 2576   1.137   0.282   5.266
  563SOL    HW2 2577   1.188   0.264   5.124
  564SOL     OW 2578   0.002   1.329   3.934
  564SOL    HW1 2579   5.229   1.317   3.873
  564SOL    HW2 2580   0.012   1.243   3.976
  565SOL     OW 2581   0.094   1.781   4.676
  565SOL    HW1 2582   0.060   1.712   4.619
  565SOL    HW2 2583   0.181   1.801   4.641
  566SOL     OW 2584   0.505   1.574   4.632
  566SOL    HW1 2585   0.572   1.639   4.652
  566SOL    HW2 2586   0.548   1.513   4.572
  567SOL     OW 2587   0.982   0.791   4.950
  567SOL    HW1 2588   1.038   0.769   5.024
  567SOL    HW2 2589   0.897   0.754   4.973
  568SOL     OW 2590   0.036   0.569   4.844
  568SOL    HW1 2591   0.117   0.537   4.804
  568SOL    HW2 2592   0.037   0.533   4.933
  569SOL     OW 2593   0.166   0.517   5.441
  569SOL    HW1 2594   0.251   0.495   5.401
  569SOL    HW2 2595   0.137   0.595   5.395
  570SOL     OW 2596   1.378   0.938   5.382
  570SOL    HW1 2597   1.399   1.031   5.380
  570SOL    HW2 2598   1.375   0.912   5.290
  571SOL     OW 2599   0.814   0.572   4.087
  571SOL    HW1 2600   0.819   0.499   4.027
  571SOL    HW2 2601   0.740   0.625   4.056
  572SOL     OW 2602   1.642   0.601   4.909
  572SOL    HW1 2603   1.631   0.542   4.983
  572SOL    HW2 2604   1.729   0.581   4.875
  573SOL     OW 2605   0.256   1.556   5.458
  573SOL    HW1 2606   0.234   1.619   5.527
  573SOL    HW2 2607   0.250   1.470   5.502
  574SOL     OW 2608   0.700   0.452   4.984
  574SOL    HW1 2609   0.650   0.378   4.950
  574SOL    HW2 2610   0.699   0.516   4.913
  575SOL     OW 2611   0.927   1.679   5.192
  575SOL    HW1 2612   0.901   1.644   5.107
  575SOL    HW2 2613   0.922   1.774   5.182
  576SOL     OW 2614   0.463   0.492   3.903
  576SOL    HW1 2615   0.526   0.560   3.927
  576SOL    HW2 2616   0.380   0.539   3.894
  577SOL     OW 2617   0.147   1.137   5.195
  577SOL    HW1 2618   0.144   1.090   5.278
  577SOL    HW2 2619   0.159   1.069   5.128
  578SOL     OW 2620   1.325   1.046   4.947
  578SOL    HW1 2621   1.348   0.983   4.879
  578SOL    HW2 2622   1.255   1.099   4.907
  579SOL     OW 2623   1.312   0.856   4.030
  579SOL    HW1 2624   1.237   0.826   4.080
  579SOL    HW2 2625   1.287   0.843   3.938
  580SOL     OW 2626   1.762   1.742   4.870
  580SOL    HW1 2627   1.828   1.772   4.807
  580SOL    HW2 2628   1.746   1.651   4.847
  581SOL     OW 2629   1.241   1.733   4.834
  581SOL    HW1 2630   1.324   1.755   4.791
  581SOL    HW2 2631   1.248   1.639   4.853
  582SOL     OW 2632   0.082   1.214   4.751
  582SOL    HW1 2633   0.070   1.241   4.842
  582SOL    HW2 2634   5.293   1.204   4.717
  583SOL     OW 2635   0.678   1.667   5.455
  583SOL    HW1 2636   0.622   1.744   5.448
  583SOL    HW2 2637   0.743   1.679   5.386
  584SOL     OW 2638   1.711   0.150   4.225
  584SOL    HW1 2639   1.787   0.129   4.170
  584SOL    HW2 2640   1.705   0.076   4.286
  585SOL     OW 2641   1.389   1.567   4.211
  585SOL    HW1 2642   1.449   1.599   4.143
  585SOL    HW2 2643   1.341   1.645   4.239
  586SOL     OW 2644   0.146   1.798   5.566
  586SOL    HW1 2645   0.091   1.735   5.614
  586SOL    HW2 2646   0.193   1.845   5.635
  587SOL     OW 2647   1.277   0.926   4.395
  587SOL    HW1 2648   1.351   0.865   4.403
  587SOL    HW2 2649   1.311   0.998   4.342
  588SOL     OW 2650   0.813   1.273   5.153
  588SOL    HW1 2651   0.784   1.313   5.236
  588SOL    HW2 2652   0.744   1.295   5.091
  589SOL     OW 2653   0.672   1.620   3.879
  589SOL    HW1 2654   0.683   1.634   3.785
  589SOL    HW2 2655   0.617   1.543   3.886
  590SOL     OW 2656   1.625   1.724   5.114
  590SOL    HW1 2657   1.673   1.734   5.032
  590SOL    HW2 2658   1.607   1.814   5.142
  591SOL     OW 2659   1.846   0.155   4.680
  591SOL    HW1 2660   1.843   0.060   4.673
  591SOL    HW2 2661   1.760   0.185   4.651
  592SOL     OW 2662   0.270   0.329   4.442
  592SOL    HW1 2663   0.183   0.366   4.427
  592SOL    HW2 2664   0.274   0.314   4.536
  593SOL     OW 2665   1.207   1.606   3.756
  593SOL    HW1 2666   1.197   1.514   3.782
  593SOL    HW2 2667   1.143   1.618   3.686
  594SOL     OW 2668   0.824   1.006   5.097
  594SOL    HW1 2669   0.868   1.001   5.012
  594SOL    HW2 2670   0.823   1.099   5.118
  595SOL     OW 2671   0.915   0.910   4.014
  595SOL    HW1 2672   0.976   0.942   3.948
  595SOL    HW2 2673   0.964   0.841   4.060
  596SOL     OW 2674   1.491   1.625   3.766
  596SOL    HW1 2675   1.397   1.619   3.751
  596SOL    HW2 2676   1.528   1.631   3.678
  597SOL     OW 2677   0.367   1.304   5.217
  597SOL    HW1 2678   0.359   1.378   5.157
  597SOL    HW2 2679   0.291   1.249   5.197
  598SOL     OW 2680   1.610   1.284   5.004
  598SOL    HW1 2681   1.671   1.272   5.077
  598SOL    HW2 2682   1.550   1.352   5.033
  599SOL     OW 2683   1.053   1.108   4.431
  599SOL    HW1 2684   0.983   1.056   4.470
  599SOL    HW2 2685   1.116   1.042   4.401
  600SOL     OW 2686   1.019   0.243   4.693
  600SOL    HW1 2687   0.999   0.198   4.611
  600SOL    HW2 2688   1.012   0.176   4.760
  601SOL     OW 2689   0.602   1.487   4.205
  601SOL    HW1 2690   0.648   1.439   4.136
  601SOL    HW2 2691   0.534   1.537   4.158
  602SOL     OW 2692   1.725   0.386   5.102
  602SOL    HW1 2693   1.795   0.451   5.101
  602SOL    HW2 2694   1.757   0.317   5.044
  603SOL     OW 2695   0.261   1.348   4.017
  603SOL    HW1 2696   0.168   1.350   3.994
  603SOL    HW2 2697   0.264   1.385   4.105
  604SOL     OW 2698   0.117   1.015   5.440
  604SOL    HW1 2699   0.046   0.983   5.496
  604SOL    HW2 2700   0.197   0.985   5.484
  605SOL     OW 2701   0.675   0.217   5.215
  605SOL    HW1 2702   0.758   0.200   5.170
  605SOL    HW2 2703   0.700   0.262   5.295
  606SOL     OW 2704   0.079   0.335   3.761
  606SOL    HW1 2705   5.287   0.311   3.752
  606SOL    HW2 2706   0.093   0.404   3.696
  607SOL     OW 2707   1.429   0.858   5.124
  607SOL    HW1 2708   1.380   0.919   5.068
  607SOL    HW2 2709   1.518   0.861   5.089
  608SOL     OW 2710   0.084   0.142   4.017
  608SOL    HW1 2711   0.078   0.236   3.999
  608SOL    HW2 2712   0.171   0.117   3.986
  609SOL     OW 2713   1.179   1.338   3.841
  609SOL    HW1 2714   1.088   1.309   3.843
  609SOL    HW2 2715   1.207   1.339   3.933
  610SOL     OW 2716   0.620   0.831   5.160
  610SOL    HW1 2717   0.675   0.907   5.144
  610SOL    HW2 2718   0.681   0.758   5.167
  611SOL     OW 2719   1.486   1.778   4.704
  611SOL    HW1 2720   1.508   1.841   4.635
  611SOL    HW2 2721   1.568   1.763   4.750
  612SOL     OW 2722   0.713   0.573   5.427
  612SOL    HW1 2723   0.757   0.636   5.484
  612SOL    HW2 2724   0.743   0.488   5.457
  613SOL     OW 2725   1.472   1.199   5.355
  613SOL    HW1 2726   1.460   1.213   5.449
  613SOL    HW2 2727   1.565   1.215   5.340
  614SOL     OW 2728   0.376   1.743   5.288
  614SOL    HW1 2729   0.294   1.789   5.272
  614SOL    HW2 2730   0.351   1.663   5.333
  615SOL     OW 2731   1.669   0.881   4.979
  615SOL    HW1 2732   1.663   0.796   4.936
  615SOL    HW2 2733   1.659   0.945   4.908
  616SOL     OW 2734   1.220   0.318   4.189
  616SOL    HW1 2735   1.283   0.246   4.183
  616SOL    HW2 2736   1.250   0.370   4.263
  617SOL     OW 2737   0.589   0.737   4.394
  617SOL    HW1 2738   0.628   0.823   4.378
  617SOL    HW2 2739   0.521   0.730   4.327
  618SOL     OW 2740   1.766   0.362   5.373
  618SOL    HW1 2741   1.747   0.377   5.280
  618SOL    HW2 2742   1.694   0.306   5.403
  619SOL     OW 2743   1.745   0.934   5.236
  619SOL    HW1 2744   1.742   1.028   5.249
  619SOL    HW2 2745   1.730   0.922   5.142
  620SOL     OW 2746   0.862   1.366   3.759
  620SOL    HW1 2747   0.824   1.396   3.842
  620SOL    HW2 2748   0.881   1.447   3.711
  621SOL     OW 2749   0.664   1.793   4.666
  621SOL    HW1 2750   0.643   1.883   4.644
  621SOL    HW2 2751   0.759   1.788   4.660
  622SOL     OW 2752   0.868   0.967   4.578
  622SOL    HW1 2753   0.918   0.896   4.617
  622SOL    HW2 2754   0.833   1.016   4.652
  623SOL     OW 2755   1.077   0.987   3.812
  623SOL    HW1 2756   1.057   1.039   3.735
  623SOL    HW2 2757   1.153   0.934   3.787
  624SOL     OW 2758   1.854   1.552   4.568
  624SOL    HW1 2759   1.775   1.545   4.515
  624SOL    HW2 2760   1.840   1.493   4.641
  625SOL     OW 2761   0.226   1.304   5.585
  625SOL    HW1 2762   0.157   1.243   5.559
  625SOL    HW2 2763   0.215   1.315   5.679
  626SOL     OW 2764   0.088   1.217   4.378
  626SOL    HW1 2765   0.103   1.187   4.467
  626SOL    HW2 2766   0.175   1.218   4.338
  627SOL     OW 2767   0.682   1.403   5.353
  627SOL    HW1 2768   0.601   1.361   5.383
  627SOL    HW2 2769   0.678   1.492   5.389
  628SOL     OW 2770   1.812   0.176   4.956
  628SOL    HW1 2771   1.778   0.087   4.959
  628SOL    HW2 2772   1.833   0.190   4.863
  629SOL     OW 2773   0.433   0.436   4.246
  629SOL    HW1 2774   0.465   0.362   4.194
  629SOL    HW2 2775   0.387   0.396   4.319
  630SOL     OW 2776   1.704   1.484   4.813
  630SOL    HW1 2777   1.621   1.464   4.771
  630SOL    HW2 2778   1.712   1.418   4.882
  631SOL     OW 2779   0.338   0.562   5.013
  631SOL    HW1 2780   0.394   0.504   5.064
  631SOL    HW2 2781   0.351   0.534   4.922
  632SOL     OW 2782   0.829   1.577   4.401
  632SOL    HW1 2783   0.815   1.635   4.326
  632SOL    HW2 2784   0.753   1.520   4.403
  633SOL     OW 2785   1.428   0.219   4.840
  633SOL    HW1 2786   1.464   0.144   4.888
  633SOL    HW2 2787   1.379   0.268   4.906
  634SOL     OW 2788   1.002   0.020   4.864
  634SOL    HW1 2789   0.951   5.252   4.819
  634SOL    HW2 2790   1.088   5.281   4.878
  635SOL     OW 2791   0.772   1.333   4.041
  635SOL    HW1 2792   0.743   1.242   4.047
  635SOL    HW2 2793   0.854   1.335   4.090
  636SOL     OW 2794   0.623   1.555   5.012
  636SOL    HW1 2795   0.624   1.638   5.061
  636SOL    HW2 2796   0.710   1.550   4.972
  637SOL     OW 2797   1.354   0.037   3.887
  637SOL    HW1 2798   1.390   5.296   3.808
  637SOL    HW2 2799   1.276   5.285   3.907
  638SOL     OW 2800   1.301   0.464   4.408
  638SOL    HW1 2801   1.246   0.543   4.413
  638SOL    HW2 2802   1.294   0.424   4.495
  639SOL     OW 2803   1.595   0.215   4.607
  639SOL    HW1 2804   1.529   0.227   4.675
  639SOL    HW2 2805   1.587   0.294   4.552
  640SOL     OW 2806   0.048   1.068   4.014
  640SOL    HW1 2807   0.137   1.035   4.003
  640SOL    HW2 2808   5.300   0.994   4.050
  641SOL     OW 2809   0.886   1.653   4.065
  641SOL    HW1 2810   0.813   1.638   4.005
  641SOL    HW2 2811   0.859   1.728   4.118
  642SOL     OW 2812   0.232   0.632   5.704
  642SOL    HW1 2813   0.158   0.604   5.757
  642SOL    HW2 2814   0.212   0.601   5.615
  643SOL     OW 2815   0.233   0.281   6.576
  643SOL    HW1 2816   0.252   0.242   6.661
  643SOL    HW2 2817   0.153   0.238   6.547
  644SOL     OW 2818   5.299   0.407   6.252
  644SOL    HW1 2819   5.206   0.429   6.255
  644SOL    HW2 2820   0.001   0.316   6.219
  645SOL     OW 2821   0.575   1.286   6.770
  645SOL    HW1 2822   0.492   1.294   6.722
  645SOL    HW2 2823   0.591   1.374   6.805
  646SOL     OW 2824   1.563   1.512   6.293
  646SOL    HW1 2825   1.520   1.491   6.376
  646SOL    HW2 2826   1.491   1.516   6.229
  647SOL     OW 2827   1.132   0.698   6.286
  647SOL    HW1 2828   1.180   0.779   6.272
  647SOL    HW2 2829   1.084   0.712   6.368
  648SOL     OW 2830   1.768   0.605   5.814
  648SOL    HW1 2831   1.747   0.598   5.721
  648SOL    HW2 2832   1.732   0.525   5.853
  649SOL     OW 2833   0.754   1.140   6.626
  649SOL    HW1 2834   0.688   1.175   6.686
  649SOL    HW2 2835   0.790   1.217   6.583
  650SOL     OW 2836   0.865   0.777   7.406
  650SOL    HW1 2837   0.858   0.852   7.466
  650SOL    HW2 2838   0.892   0.816   7.322
  651SOL     OW 2839   0.685   1.001   6.232
  651SOL    HW1 2840   0.752   0.990   6.301
  651SOL    HW2 2841   0.618   1.055   6.274
  652SOL     OW 2842   0.710   1.151   7.400
  652SOL    HW1 2843   0.759   1.229   7.427
  652SOL    HW2 2844   0.629   1.185   7.362
  653SOL     OW 2845   0.359   1.404   6.646
  653SOL    HW1 2846   0.269   1.406   6.611
  653SOL    HW2 2847   0.407   1.466   6.591
  654SOL     OW 2848   1.461   1.500   6.942
  654SOL    HW1 2849   1.512   1.580   6.951
  654SOL    HW2 2850   1.397   1.504   7.013
  655SOL     OW 2851   0.450   0.399   7.076
  655SOL    HW1 2852   0.530   0.347   7.071
  655SOL    HW2 2853   0.379   0.335   7.081
  656SOL     OW 2854   1.610   0.451   6.324
  656SOL    HW1 2855   1.534   0.474   6.270
  656SOL    HW2 2856   1.627   0.530   6.376
  657SOL     OW 2857   0.233   1.713   6.063
  657SOL    HW1 2858   0.264   1.783   6.121
  657SOL    HW2 2859   0.295   1.711   5.991
  658SOL     OW 2860   1.137   1.341   7.276
  658SOL    HW1 2861   1.177   1.338   7.363
  658SOL    HW2 2862   1.085   1.261   7.271
  659SOL     OW 2863   0.221   1.445   6.126
  659SOL    HW1 2864   0.218   1.540   6.120
  659SOL    HW2 2865   0.150   1.422   6.186
  660SOL     OW 2866   0.250   1.077   6.460
  660SOL    HW1 2867   0.262   0.991   6.502
  660SOL    HW2 2868   0.198   1.127   6.523
  661SOL     OW 2869   0.612   1.790   7.017
  661SOL    HW1 2870   0.528   1.773   7.061
  661SOL    HW2 2871   0.633   1.881   7.041
  662SOL     OW 2872   0.581   0.984   5.722
  662SOL    HW1 2873   0.629   1.031   5.653
  662SOL    HW2 2874   0.622   1.014   5.803
  663SOL     OW 2875   1.586   0.136   7.042
  663SOL    HW1 2876   1.611   0.220   7.003
  663SOL    HW2 2877   1.582   0.153   7.136
  664SOL     OW 2878   0.124   0.636   6.163
  664SOL    HW1 2879   0.090   0.553   6.198
  664SOL    HW2 2880   0.098   0.701   6.228
  665SOL     OW 2881   1.842   1.758   5.921
  665SOL    HW1 2882   1.908   1.731   5.984
  665SOL    HW2 2883   1.865   1.849   5.901
  666SOL     OW 2884   0.038   1.599   5.719
  666SOL    HW1 2885   0.025   1.508   5.744
  666SOL    HW2 2886   5.282   1.649   5.777
  667SOL     OW 2887   1.689   0.918   6.228
  667SOL    HW1 2888   1.772   0.876   6.206
  667SOL    HW2 2889   1.667   0.969   6.150
  668SOL     OW 2890   1.646   1.106   6.015
  668SOL    HW1 2891   1.732   1.111   5.973
  668SOL    HW2 2892   1.652   1.168   6.088
  669SOL     OW 2893   0.131   0.749   7.172
  669SOL    HW1 2894   0.225   0.764   7.170
  669SOL    HW2 2895   0.093   0.836   7.189
  670SOL     OW 2896   0.616   1.386   6.320
  670SOL    HW1 2897   0.568   1.304   6.331
  670SOL    HW2 2898   0.598   1.413   6.230
  671SOL     OW 2899   1.288   1.238   7.009
  671SOL    HW1 2900   1.320   1.170   6.949
  671SOL    HW2 2901   1.346   1.232   7.085
  672SOL     OW 2902   0.816   0.029   6.115
  672SOL    HW1 2903   0.843   0.117   6.089
  672SOL    HW2 2904   0.720   0.031   6.107
  673SOL     OW 2905   0.174   0.943   6.865
  673SOL    HW1 2906   0.265   0.914   6.856
  673SOL    HW2 2907   0.134   0.925   6.780
  674SOL     OW 2908   1.531   0.994   5.785
  674SOL    HW1 2909   1.461   0.937   5.818
  674SOL    HW2 2910   1.573   1.029   5.864
  675SOL     OW 2911   1.185   1.807   7.209
  675SOL    HW1 2912   1.194   1.867   7.134
  675SOL    HW2 2913   1.202   1.721   7.173
  676SOL     OW 2914   0.328   0.275   7.389
  676SOL    HW1 2915   0.388   0.337   7.430
  676SOL    HW2 2916   0.246   0.284   7.438
  677SOL     OW 2917   1.467   1.419   6.537
  677SOL    HW1 2918   1.399   1.435   6.602
  677SOL    HW2 2919   1.454   1.328   6.510
  678SOL     OW 2920   1.657   1.742   6.164
  678SOL    HW1 2921   1.639   1.712   6.075
  678SOL    HW2 2922   1.633   1.668   6.220
  679SOL     OW 2923   0.594   0.720   5.852
  679SOL    HW1 2924   0.602   0.801   5.803
  679SOL    HW2 2925   0.530   0.739   5.920
  680SOL     OW 2926   1.278   0.348   6.517
  680SOL    HW1 2927   1.187   0.320   6.530
  680SOL    HW2 2928   1.328   0.298   6.581
  681SOL     OW 2929   1.580   1.670   5.895
  681SOL    HW1 2930   1.671   1.701   5.888
  681SOL    HW2 2931   1.553   1.654   5.805
  682SOL     OW 2932   0.794   0.618   7.036
  682SOL    HW1 2933   0.765   0.597   7.125
  682SOL    HW2 2934   0.752   0.552   6.981
  683SOL     OW 2935   1.394   0.475   7.264
  683SOL    HW1 2936   1.397   0.520   7.349
  683SOL    HW2 2937   1.458   0.404   7.273
  684SOL     OW 2938   0.954   0.887   7.168
  684SOL    HW1 2939   1.009   0.818   7.132
  684SOL    HW2 2940   0.906   0.922   7.093
  685SOL     OW 2941   0.993   0.417   6.821
  685SOL    HW1 2942   0.908   0.438   6.857
  685SOL    HW2 2943   0.974   0.369   6.740
  686SOL     OW 2944   1.051   0.698   6.012
  686SOL    HW1 2945   1.067   0.691   6.106
  686SOL    HW2 2946   0.968   0.652   5.999
  687SOL     OW 2947   0.070   0.788   6.397
  687SOL    HW1 2948   0.151   0.793   6.448
  687SOL    HW2 2949   0.066   0.873   6.352
  688SOL     OW 2950   0.128   1.885   7.171
  688SOL    HW1 2951   0.131   1.858   7.262
  688SOL    HW2 2952   0.060   1.831   7.132
  689SOL     OW 2953   0.875   0.366   5.774
  689SOL    HW1 2954   0.915   0.425   5.710
  689SOL    HW2 2955   0.931   0.289   5.774
  690SOL     OW 2956   1.708   0.574   7.415
  690SOL    HW1 2957   1.670   0.648   7.367
  690SOL    HW2 2958   1.737   0.514   7.347
  691SOL     OW 2959   1.377   1.142   6.127
  691SOL    HW1 2960   1.456   1.130   6.074
  691SOL    HW2 2961   1.325   1.204   6.077
  692SOL     OW 2962   0.536   0.203   6.468
  692SOL    HW1 2963   0.553   0.221   6.561
  692SOL    HW2 2964   0.549   0.287   6.425
  693SOL     OW 2965   1.004   1.443   6.057
  693SOL    HW1 2966   0.968   1.517   6.008
  693SOL    HW2 2967   0.986   1.465   6.149
  694SOL     OW 2968   0.357   1.803   6.456
  694SOL    HW1 2969   0.398   1.718   6.469
  694SOL    HW2 2970   0.423   1.866   6.487
  695SOL     OW 2971   1.799   1.055   6.455
  695SOL    HW1 2972   1.745   1.038   6.378
  695SOL    HW2 2973   1.737   1.061   6.527
  696SOL     OW 2974   1.228   1.539   7.099
  696SOL    HW1 2975   1.214   1.466   7.159
  696SOL    HW2 2976   1.163   1.526   7.030
  697SOL     OW 2977   0.316   0.952   5.834
  697SOL    HW1 2978   0.397   0.977   5.791
  697SOL    HW2 2979   0.294   0.866   5.799
  698SOL     OW 2980   1.479   0.744   6.312
  698SOL    HW1 2981   1.472   0.702   6.398
  698SOL    HW2 2982   1.557   0.800   6.319
  699SOL     OW 2983   0.465   1.263   7.323
  699SOL    HW1 2984   0.438   1.270   7.232
  699SOL    HW2 2985   0.382   1.264   7.372
  700SOL     OW 2986   1.122   1.777   5.817
  700SOL    HW1 2987   1.048   1.736   5.862
  700SOL    HW2 2988   1.146   1.716   5.747
  701SOL     OW 2989   0.198   0.280   7.080
  701SOL    HW1 2990   0.160   0.367   7.072
  701SOL    HW2 2991   0.207   0.266   7.174
  702SOL     OW 2992   1.628   1.380   5.675
  702SOL    HW1 2993   1.587   1.465   5.659
  702SOL    HW2 2994   1.559   1.316   5.654
  703SOL     OW 2995   0.471   1.734   5.905
  703SOL    HW1 2996   0.514   1.792   5.968
  703SOL    HW2 2997   0.542   1.703   5.849
  704SOL     OW 2998   1.407   0.101   6.017
  704SOL    HW1 2999   1.400   0.081   5.924
  704SOL    HW2 3000   1.500   0.122   6.030
  705SOL     OW 3001   0.277   1.801   6.797
  705SOL    HW1 3002   0.307   1.723   6.843
  705SOL    HW2 3003   0.225   1.768   6.724
  706SOL     OW 3004   0.939   1.699   6.485
  706SOL    HW1 3005   1.017   1.648   6.505
  706SOL    HW2 3006   0.895   1.649   6.416
  707SOL     OW 3007   0.385   0.696   6.064
  707SOL    HW1 3008   0.415   0.605   6.073
  707SOL    HW2 3009   0.292   0.693   6.086
  708SOL     OW 3010   1.538   0.227   7.310
  708SOL    HW1 3011   1.545   0.245   7.404
  708SOL    HW2 3012   1.462   0.170   7.302
  709SOL     OW 3013   0.620   0.132   5.693
  709SOL    HW1 3014   0.686   0.067   5.719
  709SOL    HW2 3015   0.574   0.092   5.620
  710SOL     OW 3016   0.779   0.312   7.350
  710SOL    HW1 3017   0.842   0.240   7.351
  710SOL    HW2 3018   0.742   0.313   7.438
  711SOL     OW 3019   0.877   1.522   6.779
  711SOL    HW1 3020   0.861   1.485   6.692
  711SOL    HW2 3021   0.947   1.467   6.815
  712SOL     OW 3022   1.341   0.589   7.018
  712SOL    HW1 3023   1.371   0.558   7.103
  712SOL    HW2 3024   1.376   0.677   7.010
  713SOL     OW 3025   0.816   1.393   6.527
  713SOL    HW1 3026   0.901   1.382   6.483
  713SOL    HW2 3027   0.753   1.396   6.456
  714SOL     OW 3028   0.928   0.510   6.489
  714SOL    HW1 3029   0.903   0.503   6.397
  714SOL    HW2 3030   0.958   0.423   6.514
  715SOL     OW 3031   0.548   0.058   6.090
  715SOL    HW1 3032   0.469   0.059   6.145
  715SOL    HW2 3033   0.535   0.129   6.027
  716SOL     OW 3034   1.428   1.198   5.626
  716SOL    HW1 3035   1.458   1.123   5.677
  716SOL    HW2 3036   1.343   1.220   5.664
  717SOL     OW 3037   0.316   0.066   5.771
  717SOL    HW1 3038   0.383   0.132   5.754
  717SOL    HW2 3039   0.365   5.284   5.777
  718SOL     OW 3040   0.940   0.265   6.049
  718SOL    HW1 3041   0.913   0.300   5.964
  718SOL    HW2 3042   1.035   0.275   6.049
  719SOL     OW 3043   1.081   0.682   7.045
  719SOL    HW1 3044   1.013   0.614   7.050
  719SOL    HW2 3045   1.163   0.633   7.038
  720SOL     OW 3046   1.223   1.570   6.380
  720SOL    HW1 3047   1.238   1.637   6.313
  720SOL    HW2 3048   1.291   1.585   6.445
  721SOL     OW 3049   0.468   1.151   6.316
  721SOL    HW1 3050   0.399   1.130   6.380
  721SOL    HW2 3051   0.428   1.133   6.231
  722SOL     OW 3052   1.268   1.793   6.195
  722SOL    HW1 3053   1.315   1.855   6.138
  722SOL    HW2 3054   1.201   1.847   6.238
  723SOL     OW 3055   1.025   0.545   5.609
  723SOL    HW1 3056   0.983   0.629   5.591
  723SOL    HW2 3057   1.089   0.565   5.678
  724SOL     OW 3058   0.100   0.529   6.999
  724SOL    HW1 3059   0.180   0.549   6.950
  724SOL    HW2 3060   0.078   0.611   7.043
  725SOL     OW 3061   0.560   0.239   6.744
  725SOL    HW1 3062   0.592   0.153   6.771
  725SOL    HW2 3063   0.467   0.239   6.768
  726SOL     OW 3064   0.867   0.464   6.227
  726SOL    HW1 3065   0.820   0.517   6.163
  726SOL    HW2 3066   0.890   0.384   6.180
  727SOL     OW 3067   0.979   0.061   6.349
  727SOL    HW1 3068   0.914   0.057   6.279
  727SOL    HW2 3069   0.987   5.270   6.379
  728SOL     OW 3070   1.438   1.162   6.443
  728SOL    HW1 3071   1.368   1.097   6.442
  728SOL    HW2 3072   1.463   1.173   6.351
  729SOL     OW 3073   1.466   0.607   6.562
  729SOL    HW1 3074   1.416   0.526   6.565
  729SOL    HW2 3075   1.526   0.601   6.636
  730SOL     OW 3076   1.844   0.815   5.969
  730SOL    HW1 3077   1.901   0.765   6.027
  730SOL    HW2 3078   1.817   0.753   5.902
  731SOL     OW 3079   0.491   1.419   5.743
  731SOL    HW1 3080   0.416   1.391   5.795
  731SOL    HW2 3081   0.477   1.380   5.657
  732SOL     OW 3082   1.671   1.264   6.232
  732SOL    HW1 3083   1.766   1.266   6.245
  732SOL    HW2 3084   1.641   1.352   6.252
  733SOL     OW 3085   1.394   0.572   5.657
  733SOL    HW1 3086   1.333   0.552   5.728
  733SOL    HW2 3087   1.479   0.543   5.690
  734SOL     OW 3088   0.521   0.265   5.906
  734SOL    HW1 3089   0.570   0.217   5.838
  734SOL    HW2 3090   0.501   0.350   5.866
  735SOL     OW 3091   1.752   1.240   7.157
  735SOL    HW1 3092   1.839   1.201   7.152
  735SOL    HW2 3093   1.767   1.329   7.187
  736SOL     OW 3094   1.058   1.352   6.918
  736SOL    HW1 3095   0.983   1.322   6.970
  736SOL    HW2 3096   1.134   1.312   6.960
  737SOL     OW 3097   1.608   1.626   7.239
  737SOL    HW1 3098   1.602   1.660   7.150
  737SOL    HW2 3099   1.691   1.577   7.241
  738SOL     OW 3100   1.129   1.203   6.691
  738SOL    HW1 3101   1.071   1.242   6.756
  738SOL    HW2 3102   1.098   1.237   6.607
  739SOL     OW 3103   1.627   1.098   6.663
  739SOL    HW1 3104   1.622   1.160   6.736
  739SOL    HW2 3105   1.549   1.115   6.611
  740SOL     OW 3106   0.905   0.107   6.974
  740SOL    HW1 3107   0.935   0.073   6.890
  740SOL    HW2 3108   0.982   0.150   7.012
  741SOL     OW 3109   0.984   1.114   7.311
  741SOL    HW1 3110   0.892   1.132   7.329
  741SOL    HW2 3111   0.983   1.037   7.254
  742SOL     OW 3112   0.707   1.060   5.958
  742SOL    HW1 3113   0.696   1.044   6.052
  742SOL    HW2 3114   0.784   1.007   5.934
  743SOL     OW 3115   0.420   0.821   6.839
  743SOL    HW1 3116   0.490   0.827   6.905
  743SOL    HW2 3117   0.386   0.732   6.848
  744SOL     OW 3118   1.266   0.378   6.859
  744SOL    HW1 3119   1.299   0.455   6.906
  744SOL    HW2 3120   1.176   0.401   6.837
  745SOL     OW 3121   0.103   1.623   6.952
  745SOL    HW1 3122   0.081   1.631   6.859
  745SOL    HW2 3123   0.189   1.582   6.954
  746SOL     OW 3124   0.342   1.108   6.073
  746SOL    HW1 3125   0.350   1.187   6.020
  746SOL    HW2 3126   0.350   1.036   6.010
  747SOL     OW 3127   0.555   0.536   6.446
  747SOL    HW1 3128   0.569   0.595   6.371
  747SOL    HW2 3129   0.620   0.562   6.510
  748SOL     OW 3130   1.248   1.349   5.975
  748SOL    HW1 3131   1.304   1.420   6.006
  748SOL    HW2 3132   1.161   1.370   6.009
  749SOL     OW 3133   1.283   1.458   6.733
  749SOL    HW1 3134   1.339   1.461   6.811
  749SOL    HW2 3135   1.227   1.382   6.747
  750SOL     OW 3136   1.581   0.622   6.066
  750SOL    HW1 3137   1.534   0.675   6.129
  750SOL    HW2 3138   1.627   0.685   6.010
  751SOL     OW 3139   0.352   1.519   6.896
  751SOL    HW1 3140   0.341   1.476   6.811
  751SOL    HW2 3141   0.446   1.537   6.902
  752SOL     OW 3142   0.416   0.740   7.189
  752SOL    HW1 3143   0.474   0.789   7.130
  752SOL    HW2 3144   0.462   0.658   7.205
  753SOL     OW 3145   1.602   0.778   7.269
  753SOL    HW1 3146   1.516   0.820   7.262
  753SOL    HW2 3147   1.655   0.821   7.201
  754SOL     OW 3148   1.045   0.117   7.371
  754SOL    HW1 3149   1.075   0.196   7.327
  754SOL    HW2 3150   1.053   0.048   7.305
  755SOL     OW 3151   0.482   0.059   7.323
  755SOL    HW1 3152   0.424   5.292   7.288
  755SOL    HW2 3153   0.425   0.134   7.340
  756SOL     OW 3154   0.586   0.874   6.618
  756SOL    HW1 3155   0.618   0.964   6.617
  756SOL    HW2 3156   0.529   0.870   6.695
  757SOL     OW 3157   1.356   0.859   6.614
  757SOL    HW1 3158   1.273   0.849   6.569
  757SOL    HW2 3159   1.398   0.773   6.608
  758SOL     OW 3160   1.204   0.528   5.852
  758SOL    HW1 3161   1.210   0.448   5.904
  758SOL    HW2 3162   1.162   0.591   5.910
  759SOL     OW 3163   0.304   0.205   6.832
  759SOL    HW1 3164   0.262   0.237   6.911
  759SOL    HW2 3165   0.295   0.110   6.836
  760SOL     OW 3166   0.066   1.317   6.866
  760SOL    HW1 3167   0.091   1.259   6.937
  760SOL    HW2 3168   5.295   1.370   6.902
  761SOL     OW 3169   0.726   0.632   6.645
  761SOL    HW1 3170   0.800   0.615   6.587
  761SOL    HW2 3171   0.697   0.721   6.623
  762SOL     OW 3172   1.736   0.960   7.439
  762SOL    HW1 3173   1.688   0.897   7.384
  762SOL    HW2 3174   1.678   0.975   7.514
  763SOL     OW 3175   0.319   0.068   6.242
  763SOL    HW1 3176   0.299   0.161   6.248
  763SOL    HW2 3177   0.326   0.038   6.333
  764SOL     OW 3178   1.613   0.376   5.949
  764SOL    HW1 3179   1.646   0.312   6.012
  764SOL    HW2 3180   1.593   0.453   6.002
  765SOL     OW 3181   1.028   0.759   6.546
  765SOL    HW1 3182   1.024   0.777   6.640
  765SOL    HW2 3183   1.001   0.668   6.537
  766SOL     OW 3184   0.981   1.565   7.303
  766SOL    HW1 3185   0.967   1.610   7.220
  766SOL    HW2 3186   1.026   1.484   7.279
  767SOL     OW 3187   1.854   1.505   7.191
  767SOL    HW1 3188   1.873   1.531   7.101
  767SOL    HW2 3189   1.935   1.522   7.239
  768SOL     OW 3190   0.354   0.914   7.395
  768SOL    HW1 3191   0.435   0.938   7.439
  768SOL    HW2 3192   0.380   0.852   7.327
  769SOL     OW 3193   1.526   0.271   5.712
  769SOL    HW1 3194   1.461   0.208   5.744
  769SOL    HW2 3195   1.562   0.310   5.791
  770SOL     OW 3196   1.290   0.826   5.617
  770SOL    HW1 3197   1.333   0.741   5.620
  770SOL    HW2 3198   1.322   0.865   5.535
  771SOL     OW 3199   1.067   1.336   6.441
  771SOL    HW1 3200   1.070   1.264   6.378
  771SOL    HW2 3201   1.127   1.401   6.406
  772SOL     OW 3202   0.314   0.810   6.536
  772SOL    HW1 3203   0.408   0.828   6.531
  772SOL    HW2 3204   0.308   0.719   6.566
  773SOL     OW 3205   0.336   0.527   6.601
  773SOL    HW1 3206   0.299   0.440   6.586
  773SOL    HW2 3207   0.411   0.532   6.542
  774SOL     OW 3208   1.135   0.377   7.275
  774SOL    HW1 3209   1.088   0.431   7.338
  774SOL    HW2 3210   1.223   0.416   7.270
  775SOL     OW 3211   1.133   0.222   7.052
  775SOL    HW1 3212   1.137   0.281   7.127
  775SOL    HW2 3213   1.188   0.264   6.986
  776SOL     OW 3214   0.002   1.329   5.796
  776SOL    HW1 3215   5.229   1.317   5.735
  776SOL    HW2 3216   0.012   1.243   5.838
  777SOL     OW 3217   0.094   1.781   6.538
  777SOL    HW1 3218   0.060   1.712   6.481
  777SOL    HW2 3219   0.181   1.801   6.503
  778SOL     OW 3220   0.505   1.574   6.494
  778SOL    HW1 3221   0.572   1.639   6.514
  778SOL    HW2 3222   0.548   1.513   6.434
  779SOL     OW 3223   0.982   0.791   6.812
  779SOL    HW1 3224   1.038   0.769   6.886
  779SOL    HW2 3225   0.897   0.754   6.835
  780SOL     OW 3226   0.036   0.569   6.706
  780SOL    HW1 3227   0.117   0.537   6.666
  780SOL    HW2 3228   0.037   0.532   6.795
  781SOL     OW 3229   0.170   0.516   7.300
  781SOL    HW1 3230   0.253   0.496   7.258
  781SOL    HW2 3231   0.138   0.594   7.256
  782SOL     OW 3232   1.377   0.938   7.245
  782SOL    HW1 3233   1.399   1.031   7.243
  782SOL    HW2 3234   1.374   0.912   7.152
  783SOL     OW 3235   0.814   0.572   5.949
  783SOL    HW1 3236   0.819   0.498   5.889
  783SOL    HW2 3237   0.740   0.625   5.918
  784SOL     OW 3238   1.642   0.601   6.771
  784SOL    HW1 3239   1.631   0.542   6.845
  784SOL    HW2 3240   1.729   0.581   6.737
  785SOL     OW 3241   0.255   1.556   7.321
  785SOL    HW1 3242   0.233   1.618   7.390
  785SOL    HW2 3243   0.250   1.470   7.363
  786SOL     OW 3244   0.699   0.452   6.846
  786SOL    HW1 3245   0.649   0.378   6.812
  786SOL    HW2 3246   0.698   0.516   6.775
  787SOL     OW 3247   0.928   1.679   7.054
  787SOL    HW1 3248   0.901   1.644   6.969
  787SOL    HW2 3249   0.922   1.774   7.043
  788SOL     OW 3250   0.463   0.492   5.765
  788SOL    HW1 3251   0.526   0.560   5.789
  788SOL    HW2 3252   0.380   0.538   5.756
  789SOL     OW 3253   0.148   1.137   7.057
  789SOL    HW1 3254   0.144   1.089   7.139
  789SOL    HW2 3255   0.159   1.069   6.990
  790SOL     OW 3256   1.325   1.046   6.809
  790SOL    HW1 3257   1.348   0.983   6.741
  790SOL    HW2 3258   1.255   1.099   6.769
  791SOL     OW 3259   1.312   0.856   5.892
  791SOL    HW1 3260   1.237   0.826   5.942
  791SOL    HW2 3261   1.287   0.843   5.800
  792SOL     OW 3262   1.773   1.743   6.737
  792SOL    HW1 3263   1.834   1.769   6.667
  792SOL    HW2 3264   1.748   1.653   6.715
  793SOL     OW 3265   1.241   1.733   6.698
  793SOL    HW1 3266   1.323   1.754   6.653
  793SOL    HW2 3267   1.248   1.639   6.716
  794SOL     OW 3268   0.082   1.214   6.614
  794SOL    HW1 3269   0.070   1.241   6.704
  794SOL    HW2 3270   5.293   1.204   6.579
  795SOL     OW 3271   0.677   1.666   7.316
  795SOL    HW1 3272   0.622   1.744   7.312
  795SOL    HW2 3273   0.743   1.679   7.248
  796SOL     OW 3274   1.711   0.150   6.087
  796SOL    HW1 3275   1.787   0.129   6.032
  796SOL    HW2 3276   1.705   0.076   6.148
  797SOL     OW 3277   1.391   1.568   6.072
  797SOL    HW1 3278   1.451   1.600   6.005
  797SOL    HW2 3279   1.342   1.645   6.100
  798SOL     OW 3280   0.142   1.799   7.429
  798SOL    HW1 3281   0.090   1.735   7.478
  798SOL    HW2 3282   0.196   1.842   7.495
  799SOL     OW 3283   1.277   0.926   6.257
  799SOL    HW1 3284   1.351   0.866   6.265
  799SOL    HW2 3285   1.311   0.998   6.204
  800SOL     OW 3286   0.813   1.273   7.015
  800SOL    HW1 3287   0.784   1.313   7.097
  800SOL    HW2 3288   0.744   1.295   6.953
  801SOL     OW 3289   0.672   1.620   5.741
  801SOL    HW1 3290   0.683   1.634   5.647
  801SOL    HW2 3291   0.617   1.542   5.748
  802SOL     OW 3292   1.625   1.727   6.977
  802SOL    HW1 3293   1.675   1.733   6.895
  802SOL    HW2 3294   1.611   1.817   7.004
  803SOL     OW 3295   1.846   0.156   6.543
  803SOL    HW1 3296   1.843   0.060   6.535
  803SOL    HW2 3297   1.760   0.185   6.513
  804SOL     OW 3298   0.270   0.329   6.304
  804SOL    HW1 3299   0.183   0.366   6.289
  804SOL    HW2 3300   0.274   0.314   6.398
  805SOL     OW 3301   1.207   1.605   5.618
  805SOL    HW1 3302   1.197   1.514   5.644
  805SOL    HW2 3303   1.142   1.618   5.549
  806SOL     OW 3304   0.824   1.006   6.959
  806SOL    HW1 3305   0.868   1.001   6.874
  806SOL    HW2 3306   0.823   1.099   6.980
  807SOL     OW 3307   0.915   0.910   5.876
  807SOL    HW1 3308   0.976   0.942   5.810
  807SOL    HW2 3309   0.964   0.841   5.922
  808SOL     OW 3310   1.491   1.625   5.629
  808SOL    HW1 3311   1.397   1.619   5.614
  808SOL    HW2 3312   1.529   1.631   5.541
  809SOL     OW 3313   0.367   1.304   7.079
  809SOL    HW1 3314   0.359   1.378   7.019
  809SOL    HW2 3315   0.291   1.249   7.059
  810SOL     OW 3316   1.610   1.283   6.866
  810SOL    HW1 3317   1.670   1.271   6.940
  810SOL    HW2 3318   1.550   1.351   6.895
  811SOL     OW 3319   1.053   1.108   6.293
  811SOL    HW1 3320   0.983   1.056   6.332
  811SOL    HW2 3321   1.117   1.042   6.263
  812SOL     OW 3322   1.019   0.243   6.555
  812SOL    HW1 3323   0.999   0.198   6.473
  812SOL    HW2 3324   1.012   0.176   6.622
  813SOL     OW 3325   0.601   1.487   6.067
  813SOL    HW1 3326   0.648   1.439   5.998
  813SOL    HW2 3327   0.535   1.537   6.020
  814SOL     OW 3328   1.726   0.386   6.964
  814SOL    HW1 3329   1.796   0.451   6.963
  814SOL    HW2 3330   1.757   0.316   6.906
  815SOL     OW 3331   0.261   1.348   5.879
  815SOL    HW1 3332   0.168   1.350   5.856
  815SOL    HW2 3333   0.264   1.385   5.967
  816SOL     OW 3334   0.117   1.013   7.301
  816SOL    HW1 3335   0.045   0.986   7.358
  816SOL    HW2 3336   0.196   0.984   7.346
  817SOL     OW 3337   0.675   0.217   7.078
  817SOL    HW1 3338   0.758   0.200   7.033
  817SOL    HW2 3339   0.700   0.262   7.159
  818SOL     OW 3340   0.079   0.334   5.622
  818SOL    HW1 3341   5.286   0.312   5.614
  818SOL    HW2 3342   0.092   0.404   5.558
  819SOL     OW 3343   1.429   0.858   6.986
  819SOL    HW1 3344   1.380   0.919   6.931
  819SOL    HW2 3345   1.518   0.861   6.952
  820SOL     OW 3346   0.084   0.142   5.879
  820SOL    HW1 3347   0.078   0.236   5.861
  820SOL    HW2 3348   0.171   0.117   5.848
  821SOL     OW 3349   1.179   1.338   5.703
  821SOL    HW1 3350   1.088   1.309   5.706
  821SOL    HW2 3351   1.207   1.339   5.795
  822SOL     OW 3352   0.620   0.831   7.022
  822SOL    HW1 3353   0.675   0.907   7.005
  822SOL    HW2 3354   0.681   0.758   7.029
  823SOL     OW 3355   1.483   1.777   6.566
  823SOL    HW1 3356   1.506   1.838   6.495
  823SOL    HW2 3357   1.567   1.758   6.608
  824SOL     OW 3358   0.712   0.574   7.289
  824SOL    HW1 3359   0.756   0.636   7.346
  824SOL    HW2 3360   0.742   0.488   7.318
  825SOL     OW 3361   1.472   1.199   7.218
  825SOL    HW1 3362   1.459   1.213   7.311
  825SOL    HW2 3363   1.565   1.215   7.203
  826SOL     OW 3364   0.376   1.743   7.150
  826SOL    HW1 3365   0.294   1.789   7.134
  826SOL    HW2 3366   0.350   1.663   7.195
  827SOL     OW 3367   1.668   0.881   6.841
  827SOL    HW1 3368   1.663   0.796   6.798
  827SOL    HW2 3369   1.659   0.945   6.770
  828SOL     OW 3370   1.220   0.318   6.051
  828SOL    HW1 3371   1.283   0.246   6.045
  828SOL    HW2 3372   1.250   0.370   6.125
  829SOL     OW 3373   0.589   0.737   6.256
  829SOL    HW1 3374   0.628   0.823   6.240
  829SOL    HW2 3375   0.520   0.730   6.189
  830SOL     OW 3376   1.765   0.361   7.236
  830SOL    HW1 3377   1.747   0.377   7.144
  830SOL    HW2 3378   1.693   0.306   7.266
  831SOL     OW 3379   1.745   0.933   7.098
  831SOL    HW1 3380   1.741   1.028   7.112
  831SOL    HW2 3381   1.730   0.922   7.004
  832SOL     OW 3382   0.862   1.366   5.621
  832SOL    HW1 3383   0.824   1.396   5.704
  832SOL    HW2 3384   0.881   1.447   5.573
  833SOL     OW 3385   0.664   1.793   6.528
  833SOL    HW1 3386   0.643   1.883   6.506
  833SOL    HW2 3387   0.759   1.788   6.522
  834SOL     OW 3388   0.868   0.967   6.440
  834SOL    HW1 3389   0.918   0.896   6.479
  834SOL    HW2 3390   0.833   1.016   6.514
  835SOL     OW 3391   1.077   0.987   5.674
  835SOL    HW1 3392   1.057   1.039   5.596
  835SOL    HW2 3393   1.153   0.934   5.649
  836SOL     OW 3394   1.853   1.554   6.430
  836SOL    HW1 3395   1.775   1.542   6.376
  836SOL    HW2 3396   1.845   1.488   6.498
  837SOL     OW 3397   0.226   1.304   7.447
  837SOL    HW1 3398   0.155   1.245   7.421
  837SOL    HW2 3399   0.214   1.316   7.541
  838SOL     OW 3400   0.088   1.216   6.239
  838SOL    HW1 3401   0.102   1.187   6.329
  838SOL    HW2 3402   0.176   1.218   6.200
  839SOL     OW 3403   0.681   1.402   7.215
  839SOL    HW1 3404   0.600   1.362   7.245
  839SOL    HW2 3405   0.678   1.491   7.250
  840SOL     OW 3406   1.812   0.176   6.818
  840SOL    HW1 3407   1.777   0.087   6.821
  840SOL    HW2 3408   1.833   0.190   6.726
  841SOL     OW 3409   0.433   0.436   6.108
  841SOL    HW1 3410   0.465   0.362   6.056
  841SOL    HW2 3411   0.387   0.396   6.181
  842SOL     OW 3412   1.700   1.489   6.682
  842SOL    HW1 3413   1.619   1.466   6.635
  842SOL    HW2 3414   1.710   1.419   6.747
  843SOL     OW 3415   0.338   0.562   6.875
  843SOL    HW1 3416   0.395   0.504   6.925
  843SOL    HW2 3417   0.351   0.535   6.784
  844SOL     OW 3418   0.829   1.577   6.263
  844SOL    HW1 3419   0.815   1.635   6.188
  844SOL    HW2 3420   0.753   1.520   6.264
  845SOL     OW 3421   1.427   0.219   6.702
  845SOL    HW1 3422   1.464   0.144   6.750
  845SOL    HW2 3423   1.379   0.268   6.768
  846SOL     OW 3424   1.001   0.020   6.726
  846SOL    HW1 3425   0.952   5.252   6.680
  846SOL    HW2 3426   1.088   5.281   6.740
  847SOL     OW 3427   0.772   1.333   5.903
  847SOL    HW1 3428   0.743   1.242   5.909
  847SOL    HW2 3429   0.854   1.335   5.952
  848SOL     OW 3430   0.623   1.555   6.874
  848SOL    HW1 3431   0.624   1.638   6.922
  848SOL    HW2 3432   0.710   1.550   6.834
  849SOL     OW 3433   1.353   0.037   5.749
  849SOL    HW1 3434   1.390   5.297   5.670
  849SOL    HW2 3435   1.276   5.284   5.769
  850SOL     OW 3436   1.300   0.464   6.270
  850SOL    HW1 3437   1.246   0.543   6.275
  850SOL    HW2 3438   1.294   0.424   6.357
  851SOL     OW 3439   1.594   0.215   6.468
  851SOL    HW1 3440   1.529   0.227   6.537
  851SOL    HW2 3441   1.587   0.294   6.414
  852SOL     OW 3442   0.048   1.068   5.875
  852SOL    HW1 3443   0.137   1.035   5.865
  852SOL    HW2 3444   5.300   0.994   5.912
  853SOL     OW 3445   0.886   1.653   5.927
  853SOL    HW1 3446   0.813   1.638   5.867
  853SOL    HW2 3447   0.859   1.728   5.980
  854SOL     OW 3448   0.227   0.630   7.567
  854SOL    HW1 3449   0.152   0.590   7.610
  854SOL    HW2 3450   0.218   0.606   7.475
  855SOL     OW 3451   1.769   0.597   7.679
  855SOL    HW1 3452   1.747   0.592   7.586
  855SOL    HW2 3453   1.727   0.519   7.716
  856SOL     OW 3454   0.232   1.703   7.922
  856SOL    HW1 3455   0.264   1.751   7.998
  856SOL    HW2 3456   0.301   1.713   7.857
  857SOL     OW 3457   0.216   1.435   7.992
  857SOL    HW1 3458   0.211   1.530   7.981
  857SOL    HW2 3459   0.153   1.416   8.061
  858SOL     OW 3460   0.582   0.985   7.581
  858SOL    HW1 3461   0.628   1.032   7.512
  858SOL    HW2 3462   0.623   1.015   7.662
  859SOL     OW 3463   1.837   1.757   7.796
  859SOL    HW1 3464   1.909   1.728   7.853
  859SOL    HW2 3465   1.862   1.847   7.772
  860SOL     OW 3466   0.036   1.602   7.583
  860SOL    HW1 3467   0.028   1.509   7.604
  860SOL    HW2 3468   5.275   1.646   7.643
  861SOL     OW 3469   1.683   0.864   8.032
  861SOL    HW1 3470   1.761   0.876   0.005
  861SOL    HW2 3471   1.669   0.948   7.989
  862SOL     OW 3472   1.655   1.098   7.878
  862SOL    HW1 3473   1.743   1.124   7.849
  862SOL    HW2 3474   1.626   1.170   7.933
  863SOL     OW 3475   0.810   5.287   7.942
  863SOL    HW1 3476   0.853   0.072   7.930
  863SOL    HW2 3477   0.717   0.007   7.942
  864SOL     OW 3478   1.533   0.995   7.650
  864SOL    HW1 3479   1.466   0.937   7.684
  864SOL    HW2 3480   1.577   1.029   7.728
  865SOL     OW 3481   0.587   0.723   7.707
  865SOL    HW1 3482   0.596   0.805   7.659
  865SOL    HW2 3483   0.534   0.744   7.784
  866SOL     OW 3484   1.574   1.671   7.757
  866SOL    HW1 3485   1.665   1.699   7.766
  866SOL    HW2 3486   1.562   1.659   7.663
  867SOL     OW 3487   0.049   0.817   0.196
  867SOL    HW1 3488   0.121   0.763   0.162
  867SOL    HW2 3489   0.029   0.878   0.125
  868SOL     OW 3490   0.870   0.360   7.629
  868SOL    HW1 3491   0.913   0.423   7.571
  868SOL    HW2 3492   0.934   0.290   7.641
  869SOL     OW 3493   0.318   0.948   7.694
  869SOL    HW1 3494   0.398   0.976   7.651
  869SOL    HW2 3495   0.296   0.865   7.653
  870SOL     OW 3496   1.124   1.776   7.681
  870SOL    HW1 3497   1.047   1.736   7.722
  870SOL    HW2 3498   1.149   1.715   7.612
  871SOL     OW 3499   1.628   1.381   7.534
  871SOL    HW1 3500   1.586   1.466   7.520
  871SOL    HW2 3501   1.560   1.317   7.516
  872SOL     OW 3502   0.470   1.737   7.769
  872SOL    HW1 3503   0.516   1.791   7.834
  872SOL    HW2 3504   0.539   1.703   7.713
  873SOL     OW 3505   1.411   0.107   7.883
  873SOL    HW1 3506   1.407   0.083   7.791
  873SOL    HW2 3507   1.505   0.112   7.902
  874SOL     OW 3508   0.378   0.697   7.922
  874SOL    HW1 3509   0.399   0.603   7.926
  874SOL    HW2 3510   0.288   0.702   7.955
  875SOL     OW 3511   0.614   0.131   7.559
  875SOL    HW1 3512   0.689   0.075   7.580
  875SOL    HW2 3513   0.572   0.090   7.484
  876SOL     OW 3514   0.548   0.062   7.950
  876SOL    HW1 3515   0.456   0.046   7.974
  876SOL    HW2 3516   0.544   0.136   7.890
  877SOL     OW 3517   1.428   1.198   7.489
  877SOL    HW1 3518   1.459   1.124   7.542
  877SOL    HW2 3519   1.344   1.222   7.527
  878SOL     OW 3520   0.315   0.072   7.653
  878SOL    HW1 3521   0.374   0.129   7.604
  878SOL    HW2 3522   0.360   5.287   7.656
  879SOL     OW 3523   0.949   0.227   7.909
  879SOL    HW1 3524   0.900   0.299   7.870
  879SOL    HW2 3525   1.038   0.262   7.919
  880SOL     OW 3526   0.446   1.158   0.090
  880SOL    HW1 3527   0.374   1.186   0.147
  880SOL    HW2 3528   0.404   1.141   0.006
  881SOL     OW 3529   1.291   1.812   8.014
  881SOL    HW1 3530   1.328   1.881   7.958
  881SOL    HW2 3531   1.206   1.845   8.040
  882SOL     OW 3532   1.025   0.545   7.469
  882SOL    HW1 3533   0.983   0.629   7.454
  882SOL    HW2 3534   1.085   0.561   7.542
  883SOL     OW 3535   1.874   0.815   7.801
  883SOL    HW1 3536   1.860   0.793   7.893
  883SOL    HW2 3537   1.834   0.743   7.753
  884SOL     OW 3538   0.489   1.417   7.604
  884SOL    HW1 3539   0.415   1.389   7.657
  884SOL    HW2 3540   0.473   1.379   7.517
  885SOL     OW 3541   1.393   0.572   7.519
  885SOL    HW1 3542   1.331   0.551   7.589
  885SOL    HW2 3543   1.477   0.540   7.552
  886SOL     OW 3544   0.524   0.272   7.773
  886SOL    HW1 3545   0.566   0.219   7.706
  886SOL    HW2 3546   0.502   0.354   7.730
  887SOL     OW 3547   0.710   1.061   7.813
  887SOL    HW1 3548   0.692   1.049   7.906
  887SOL    HW2 3549   0.788   1.009   7.797
  888SOL     OW 3550   0.344   1.096   7.927
  888SOL    HW1 3551   0.343   1.180   7.882
  888SOL    HW2 3552   0.346   1.031   7.856
  889SOL     OW 3553   1.222   1.356   7.821
  889SOL    HW1 3554   1.283   1.426   7.844
  889SOL    HW2 3555   1.188   1.326   7.905
  890SOL     OW 3556   1.589   0.625   7.921
  890SOL    HW1 3557   1.575   0.682   7.996
  890SOL    HW2 3558   1.625   0.682   7.853
  891SOL     OW 3559   1.202   0.525   7.714
  891SOL    HW1 3560   1.203   0.438   7.754
  891SOL    HW2 3561   1.182   0.584   7.786
  892SOL     OW 3562   1.617   0.376   7.813
  892SOL    HW1 3563   1.638   0.309   7.877
  892SOL    HW2 3564   1.594   0.453   7.865
  893SOL     OW 3565   1.528   0.272   7.575
  893SOL    HW1 3566   1.464   0.207   7.605
  893SOL    HW2 3567   1.564   0.309   7.655
  894SOL     OW 3568   1.293   0.827   7.480
  894SOL    HW1 3569   1.334   0.741   7.482
  894SOL    HW2 3570   1.324   0.867   7.399
  895SOL     OW 3571   0.004   1.333   7.656
  895SOL    HW1 3572   5.222   1.330   7.606
  895SOL    HW2 3573   0.013   1.244   7.691
  896SOL     OW 3574   0.839   0.605   7.762
  896SOL    HW1 3575   0.831   0.514   7.732
  896SOL    HW2 3576   0.749   0.638   7.764
  897SOL     OW 3577   0.459   0.493   7.631
  897SOL    HW1 3578   0.522   0.562   7.650
  897SOL    HW2 3579   0.376   0.540   7.620
  898SOL     OW 3580   1.313   0.852   7.754
  898SOL    HW1 3581   1.226   0.857   7.794
  898SOL    HW2 3582   1.295   0.841   7.660
  899SOL     OW 3583   1.709   0.132   7.944
  899SOL    HW1 3584   1.783   0.132   7.884
  899SOL    HW2 3585   1.742   0.086   8.022
  900SOL     OW 3586   1.363   1.577   7.895
  900SOL    HW1 3587   1.438   1.598   7.840
  900SOL    HW2 3588   1.332   1.662   7.926
  901SOL     OW 3589   0.668   1.620   7.603
  901SOL    HW1 3590   0.680   1.632   7.509
  901SOL    HW2 3591   0.615   1.540   7.610
  902SOL     OW 3592   1.210   1.606   7.478
  902SOL    HW1 3593   1.198   1.515   7.505
  902SOL    HW2 3594   1.143   1.620   7.411
  903SOL     OW 3595   0.923   0.908   7.754
  903SOL    HW1 3596   0.978   0.932   7.680
  903SOL    HW2 3597   0.920   0.813   7.752
  904SOL     OW 3598   1.493   1.627   7.488
  904SOL    HW1 3599   1.398   1.619   7.476
  904SOL    HW2 3600   1.528   1.632   7.400
  905SOL     OW 3601   0.607   1.506   7.935
  905SOL    HW1 3602   0.652   1.447   7.875
  905SOL    HW2 3603   0.534   1.541   7.884
  906SOL     OW 3604   0.260   1.346   7.743
  906SOL    HW1 3605   0.168   1.351   7.718
  906SOL    HW2 3606   0.263   1.382   7.832
  907SOL     OW 3607   0.079   0.341   7.486
  907SOL    HW1 3608   5.289   0.309   7.472
  907SOL    HW2 3609   0.092   0.407   7.418
  908SOL     OW 3610   0.068   0.143   7.735
  908SOL    HW1 3611   0.068   0.238   7.722
  908SOL    HW2 3612   0.157   0.116   7.713
  909SOL     OW 3613   1.176   1.338   7.556
  909SOL    HW1 3614   1.083   1.313   7.555
  909SOL    HW2 3615   1.198   1.344   7.649
  910SOL     OW 3616   1.222   0.318   7.916
  910SOL    HW1 3617   1.288   0.249   7.910
  910SOL    HW2 3618   1.245   0.366   7.995
  911SOL     OW 3619   0.625   0.744   8.042
  911SOL    HW1 3620   0.629   0.818   0.023
  911SOL    HW2 3621   0.533   0.737   8.018
  912SOL     OW 3622   0.863   1.367   7.484
  912SOL    HW1 3623   0.825   1.397   7.567
  912SOL    HW2 3624   0.881   1.447   7.436
  913SOL     OW 3625   1.070   0.976   7.537
  913SOL    HW1 3626   1.053   1.035   7.463
  913SOL    HW2 3627   1.150   0.929   7.511
  914SOL     OW 3628   0.400   0.430   7.982
  914SOL    HW1 3629   0.447   0.368   7.926
  914SOL    HW2 3630   0.443   0.421   8.068
  915SOL     OW 3631   0.765   1.336   7.764
  915SOL    HW1 3632   0.736   1.245   7.764
  915SOL    HW2 3633   0.847   1.336   7.813
  916SOL     OW 3634   1.364   0.036   7.612
  916SOL    HW1 3635   1.378   5.290   7.530
  916SOL    HW2 3636   1.283   5.299   7.647
  917SOL     OW 3637   0.048   1.069   7.721
  917SOL    HW1 3638   0.138   1.035   7.719
  917SOL    HW2 3639   0.001   1.010   7.779
  918SOL     OW 3640   0.893   1.653   7.779
  918SOL    HW1 3641   0.817   1.629   7.727
  918SOL    HW2 3642   0.859   1.715   7.844
  919SOL     OW 3643   0.222   2.483   0.118
  919SOL    HW1 3644   0.154   2.434   0.165
  919SOL    HW2 3645   0.231   2.437   0.035
  920SOL     OW 3646   0.242   2.137   0.988
  920SOL    HW1 3647   0.256   2.103   1.077
  920SOL    HW2 3648   0.158   2.100   0.962
  921SOL     OW 3649   5.296   2.260   0.647
  921SOL    HW1 3650   5.205   2.288   0.657
  921SOL    HW2 3651   5.291   2.167   0.628
  922SOL     OW 3652   0.575   3.148   1.184
  922SOL    HW1 3653   0.493   3.156   1.136
  922SOL    HW2 3654   0.591   3.236   1.218
  923SOL     OW 3655   1.562   3.374   0.708
  923SOL    HW1 3656   1.520   3.353   0.791
  923SOL    HW2 3657   1.491   3.377   0.644
  924SOL     OW 3658   1.131   2.560   0.700
  924SOL    HW1 3659   1.180   2.641   0.686
  924SOL    HW2 3660   1.084   2.574   0.783
  925SOL     OW 3661   1.765   2.463   0.234
  925SOL    HW1 3662   1.729   2.467   0.146
  925SOL    HW2 3663   1.727   2.384   0.272
  926SOL     OW 3664   0.754   3.002   1.040
  926SOL    HW1 3665   0.688   3.037   1.100
  926SOL    HW2 3666   0.790   3.080   0.997
  927SOL     OW 3667   0.868   2.634   1.822
  927SOL    HW1 3668   0.858   2.706   1.885
  927SOL    HW2 3669   0.891   2.678   1.740
  928SOL     OW 3670   0.684   2.861   0.650
  928SOL    HW1 3671   0.750   2.852   0.718
  928SOL    HW2 3672   0.616   2.916   0.690
  929SOL     OW 3673   0.710   3.012   1.814
  929SOL    HW1 3674   0.758   3.090   1.841
  929SOL    HW2 3675   0.629   3.046   1.777
  930SOL     OW 3676   0.358   3.266   1.061
  930SOL    HW1 3677   0.271   3.263   1.022
  930SOL    HW2 3678   0.406   3.328   1.005
  931SOL     OW 3679   1.460   3.362   1.356
  931SOL    HW1 3680   1.512   3.442   1.365
  931SOL    HW2 3681   1.397   3.366   1.427
  932SOL     OW 3682   0.451   2.262   1.491
  932SOL    HW1 3683   0.525   2.201   1.493
  932SOL    HW2 3684   0.374   2.206   1.501
  933SOL     OW 3685   1.612   2.310   0.741
  933SOL    HW1 3686   1.538   2.331   0.684
  933SOL    HW2 3687   1.622   2.387   0.797
  934SOL     OW 3688   0.217   3.593   0.464
  934SOL    HW1 3689   0.258   3.648   0.531
  934SOL    HW2 3690   0.288   3.570   0.405
  935SOL     OW 3691   1.137   3.204   1.693
  935SOL    HW1 3692   1.178   3.198   1.779
  935SOL    HW2 3693   1.085   3.124   1.686
  936SOL     OW 3694   0.220   3.311   0.532
  936SOL    HW1 3695   0.200   3.405   0.539
  936SOL    HW2 3696   0.160   3.269   0.593
  937SOL     OW 3697   0.255   2.940   0.878
  937SOL    HW1 3698   0.261   2.853   0.917
  937SOL    HW2 3699   0.200   2.990   0.938
  938SOL     OW 3700   0.613   3.652   1.432
  938SOL    HW1 3701   0.528   3.635   1.475
  938SOL    HW2 3702   0.633   3.743   1.455
  939SOL     OW 3703   0.619   2.821   0.139
  939SOL    HW1 3704   0.576   2.901   0.109
  939SOL    HW2 3705   0.676   2.850   0.210
  940SOL     OW 3706   1.596   1.986   1.467
  940SOL    HW1 3707   1.605   2.068   1.418
  940SOL    HW2 3708   1.581   2.015   1.557
  941SOL     OW 3709   0.129   2.497   0.583
  941SOL    HW1 3710   0.087   2.414   0.606
  941SOL    HW2 3711   0.099   2.558   0.650
  942SOL     OW 3712   1.846   3.619   0.330
  942SOL    HW1 3713   1.911   3.590   0.394
  942SOL    HW2 3714   1.869   3.710   0.312
  943SOL     OW 3715   0.032   3.445   0.104
  943SOL    HW1 3716   0.023   3.360   0.147
  943SOL    HW2 3717   0.007   3.508   0.172
  944SOL     OW 3718   1.687   2.780   0.644
  944SOL    HW1 3719   1.769   2.737   0.619
  944SOL    HW2 3720   1.664   2.833   0.567
  945SOL     OW 3721   1.647   2.966   0.435
  945SOL    HW1 3722   1.727   2.979   0.385
  945SOL    HW2 3723   1.652   3.029   0.507
  946SOL     OW 3724   0.132   2.611   1.584
  946SOL    HW1 3725   0.227   2.625   1.585
  946SOL    HW2 3726   0.095   2.697   1.601
  947SOL     OW 3727   0.616   3.249   0.734
  947SOL    HW1 3728   0.568   3.167   0.744
  947SOL    HW2 3729   0.599   3.275   0.643
  948SOL     OW 3730   1.288   3.100   1.423
  948SOL    HW1 3731   1.320   3.032   1.363
  948SOL    HW2 3732   1.346   3.094   1.499
  949SOL     OW 3733   0.825   1.865   0.513
  949SOL    HW1 3734   0.863   1.949   0.490
  949SOL    HW2 3735   0.731   1.882   0.518
  950SOL     OW 3736   0.175   2.806   1.279
  950SOL    HW1 3737   0.266   2.776   1.270
  950SOL    HW2 3738   0.135   2.786   1.195
  951SOL     OW 3739   1.506   2.872   0.214
  951SOL    HW1 3740   1.447   2.805   0.247
  951SOL    HW2 3741   1.561   2.895   0.289
  952SOL     OW 3742   1.185   3.669   1.623
  952SOL    HW1 3743   1.194   3.729   1.548
  952SOL    HW2 3744   1.202   3.582   1.587
  953SOL     OW 3745   0.338   2.116   1.819
  953SOL    HW1 3746   0.385   2.198   1.833
  953SOL    HW2 3747   0.250   2.132   1.853
  954SOL     OW 3748   1.467   3.281   0.951
  954SOL    HW1 3749   1.399   3.297   1.016
  954SOL    HW2 3750   1.454   3.190   0.924
  955SOL     OW 3751   1.658   3.605   0.582
  955SOL    HW1 3752   1.638   3.576   0.493
  955SOL    HW2 3753   1.634   3.531   0.637
  956SOL     OW 3754   0.597   2.574   0.282
  956SOL    HW1 3755   0.616   2.654   0.233
  956SOL    HW2 3756   0.534   2.602   0.348
  957SOL     OW 3757   1.279   2.216   0.933
  957SOL    HW1 3758   1.190   2.183   0.941
  957SOL    HW2 3759   1.330   2.163   0.994
  958SOL     OW 3760   1.587   3.533   0.320
  958SOL    HW1 3761   1.678   3.562   0.313
  958SOL    HW2 3762   1.559   3.516   0.230
  959SOL     OW 3763   0.792   2.479   1.451
  959SOL    HW1 3764   0.765   2.455   1.539
  959SOL    HW2 3765   0.752   2.412   1.395
  960SOL     OW 3766   1.393   2.336   1.678
  960SOL    HW1 3767   1.396   2.381   1.762
  960SOL    HW2 3768   1.454   2.262   1.688
  961SOL     OW 3769   0.954   2.749   1.583
  961SOL    HW1 3770   1.008   2.679   1.547
  961SOL    HW2 3771   0.906   2.783   1.508
  962SOL     OW 3772   0.992   2.274   1.238
  962SOL    HW1 3773   0.906   2.295   1.274
  962SOL    HW2 3774   0.974   2.229   1.156
  963SOL     OW 3775   1.053   2.561   0.427
  963SOL    HW1 3776   1.069   2.554   0.521
  963SOL    HW2 3777   0.970   2.515   0.414
  964SOL     OW 3778   0.067   2.651   0.815
  964SOL    HW1 3779   0.149   2.655   0.864
  964SOL    HW2 3780   0.068   2.729   0.759
  965SOL     OW 3781   0.129   3.747   1.585
  965SOL    HW1 3782   0.133   3.719   1.676
  965SOL    HW2 3783   0.060   3.693   1.546
  966SOL     OW 3784   0.885   2.219   0.202
  966SOL    HW1 3785   0.930   2.270   0.135
  966SOL    HW2 3786   0.886   2.129   0.170
  967SOL     OW 3787   1.707   2.433   1.827
  967SOL    HW1 3788   1.671   2.509   1.780
  967SOL    HW2 3789   1.736   2.374   1.757
  968SOL     OW 3790   1.377   3.003   0.541
  968SOL    HW1 3791   1.455   2.991   0.487
  968SOL    HW2 3792   1.324   3.066   0.492
  969SOL     OW 3793   0.555   2.045   0.894
  969SOL    HW1 3794   0.553   2.073   0.985
  969SOL    HW2 3795   0.553   2.127   0.844
  970SOL     OW 3796   1.003   3.306   0.472
  970SOL    HW1 3797   0.966   3.379   0.422
  970SOL    HW2 3798   0.983   3.327   0.563
  971SOL     OW 3799   0.358   3.665   0.869
  971SOL    HW1 3800   0.398   3.579   0.883
  971SOL    HW2 3801   0.423   3.727   0.901
  972SOL     OW 3802   1.798   2.917   0.869
  972SOL    HW1 3803   1.743   2.900   0.792
  972SOL    HW2 3804   1.736   2.924   0.942
  973SOL     OW 3805   1.228   3.401   1.513
  973SOL    HW1 3806   1.214   3.328   1.574
  973SOL    HW2 3807   1.163   3.387   1.444
  974SOL     OW 3808   0.331   2.814   0.254
  974SOL    HW1 3809   0.411   2.824   0.203
  974SOL    HW2 3810   0.312   2.720   0.249
  975SOL     OW 3811   1.479   2.605   0.726
  975SOL    HW1 3812   1.471   2.564   0.812
  975SOL    HW2 3813   1.556   2.661   0.733
  976SOL     OW 3814   0.466   3.127   1.738
  976SOL    HW1 3815   0.439   3.133   1.646
  976SOL    HW2 3816   0.383   3.127   1.787
  977SOL     OW 3817   1.107   3.643   0.223
  977SOL    HW1 3818   1.051   3.603   0.289
  977SOL    HW2 3819   1.128   3.572   0.163
  978SOL     OW 3820   0.205   2.141   1.497
  978SOL    HW1 3821   0.127   2.193   1.481
  978SOL    HW2 3822   0.173   2.061   1.539
  979SOL     OW 3823   1.634   3.235   0.082
  979SOL    HW1 3824   1.592   3.321   0.083
  979SOL    HW2 3825   1.563   3.173   0.064
  980SOL     OW 3826   0.470   3.595   0.325
  980SOL    HW1 3827   0.513   3.656   0.385
  980SOL    HW2 3828   0.540   3.569   0.264
  981SOL     OW 3829   1.407   1.973   0.446
  981SOL    HW1 3830   1.398   1.952   0.353
  981SOL    HW2 3831   1.502   1.981   0.459
  982SOL     OW 3832   0.277   3.663   1.211
  982SOL    HW1 3833   0.306   3.585   1.258
  982SOL    HW2 3834   0.224   3.629   1.139
  983SOL     OW 3835   0.939   3.561   0.898
  983SOL    HW1 3836   1.016   3.509   0.920
  983SOL    HW2 3837   0.895   3.511   0.829
  984SOL     OW 3838   0.381   2.561   0.476
  984SOL    HW1 3839   0.413   2.471   0.485
  984SOL    HW2 3840   0.289   2.556   0.502
  985SOL     OW 3841   1.535   2.087   1.725
  985SOL    HW1 3842   1.545   2.108   1.818
  985SOL    HW2 3843   1.465   2.022   1.722
  986SOL     OW 3844   0.629   1.971   0.138
  986SOL    HW1 3845   0.724   1.960   0.142
  986SOL    HW2 3846   0.607   1.953   0.046
  987SOL     OW 3847   0.766   2.140   1.754
  987SOL    HW1 3848   0.843   2.083   1.755
  987SOL    HW2 3849   0.718   2.116   1.834
  988SOL     OW 3850   0.877   3.384   1.193
  988SOL    HW1 3851   0.860   3.347   1.106
  988SOL    HW2 3852   0.947   3.329   1.229
  989SOL     OW 3853   1.340   2.451   1.432
  989SOL    HW1 3854   1.371   2.420   1.517
  989SOL    HW2 3855   1.376   2.539   1.424
  990SOL     OW 3856   0.816   3.255   0.941
  990SOL    HW1 3857   0.901   3.244   0.897
  990SOL    HW2 3858   0.752   3.258   0.869
  991SOL     OW 3859   0.928   2.371   0.902
  991SOL    HW1 3860   0.904   2.363   0.810
  991SOL    HW2 3861   0.959   2.284   0.927
  992SOL     OW 3862   0.561   1.923   0.499
  992SOL    HW1 3863   0.486   1.923   0.559
  992SOL    HW2 3864   0.549   2.003   0.447
  993SOL     OW 3865   1.433   3.062   0.035
  993SOL    HW1 3866   1.457   2.988   0.091
  993SOL    HW2 3867   1.345   3.087   0.065
  994SOL     OW 3868   0.314   1.910   0.176
  994SOL    HW1 3869   0.380   1.980   0.181
  994SOL    HW2 3870   0.356   1.835   0.219
  995SOL     OW 3871   0.942   2.110   0.458
  995SOL    HW1 3872   0.914   2.151   0.376
  995SOL    HW2 3873   1.036   2.127   0.462
  996SOL     OW 3874   1.080   2.543   1.459
  996SOL    HW1 3875   1.012   2.476   1.464
  996SOL    HW2 3876   1.162   2.494   1.453
  997SOL     OW 3877   1.223   3.432   0.794
  997SOL    HW1 3878   1.238   3.498   0.727
  997SOL    HW2 3879   1.291   3.447   0.859
  998SOL     OW 3880   0.469   3.014   0.731
  998SOL    HW1 3881   0.400   2.993   0.794
  998SOL    HW2 3882   0.428   2.998   0.645
  999SOL     OW 3883   1.267   3.656   0.608
  999SOL    HW1 3884   1.317   3.719   0.557
  999SOL    HW2 3885   1.200   3.708   0.651
 1000SOL     OW 3886   1.030   2.388   0.033
 1000SOL    HW1 3887   0.992   2.470   0.002
 1000SOL    HW2 3888   1.094   2.416   0.099
 1001SOL     OW 3889   0.089   2.406   1.398
 1001SOL    HW1 3890   0.176   2.414   1.361
 1001SOL    HW2 3891   0.080   2.483   1.456
 1002SOL     OW 3892   0.560   2.090   1.167
 1002SOL    HW1 3893   0.598   2.010   1.205
 1002SOL    HW2 3894   0.468   2.088   1.194
 1003SOL     OW 3895   0.867   2.320   0.639
 1003SOL    HW1 3896   0.825   2.376   0.573
 1003SOL    HW2 3897   0.889   2.240   0.591
 1004SOL     OW 3898   1.016   1.914   0.749
 1004SOL    HW1 3899   0.957   1.908   0.675
 1004SOL    HW2 3900   0.994   1.840   0.805
 1005SOL     OW 3901   1.438   3.024   0.857
 1005SOL    HW1 3902   1.367   2.959   0.856
 1005SOL    HW2 3903   1.462   3.035   0.765
 1006SOL     OW 3904   1.466   2.468   0.975
 1006SOL    HW1 3905   1.413   2.388   0.979
 1006SOL    HW2 3906   1.525   2.462   1.050
 1007SOL     OW 3907   1.847   2.678   0.387
 1007SOL    HW1 3908   1.890   2.621   0.450
 1007SOL    HW2 3909   1.817   2.618   0.318
 1008SOL     OW 3910   0.483   3.303   0.173
 1008SOL    HW1 3911   0.410   3.264   0.222
 1008SOL    HW2 3912   0.489   3.250   0.094
 1009SOL     OW 3913   1.671   3.127   0.647
 1009SOL    HW1 3914   1.766   3.129   0.661
 1009SOL    HW2 3915   1.642   3.216   0.668
 1010SOL     OW 3916   1.397   2.439   0.086
 1010SOL    HW1 3917   1.336   2.421   0.157
 1010SOL    HW2 3918   1.453   2.361   0.082
 1011SOL     OW 3919   0.514   2.126   0.323
 1011SOL    HW1 3920   0.565   2.074   0.261
 1011SOL    HW2 3921   0.500   2.209   0.279
 1012SOL     OW 3922   1.751   3.102   1.572
 1012SOL    HW1 3923   1.839   3.063   1.567
 1012SOL    HW2 3924   1.767   3.192   1.601
 1013SOL     OW 3925   1.058   3.215   1.333
 1013SOL    HW1 3926   0.983   3.184   1.384
 1013SOL    HW2 3927   1.134   3.174   1.374
 1014SOL     OW 3928   1.608   3.488   1.655
 1014SOL    HW1 3929   1.602   3.522   1.565
 1014SOL    HW2 3930   1.691   3.440   1.656
 1015SOL     OW 3931   1.130   3.066   1.105
 1015SOL    HW1 3932   1.071   3.104   1.170
 1015SOL    HW2 3933   1.098   3.099   1.021
 1016SOL     OW 3934   1.627   2.959   1.077
 1016SOL    HW1 3935   1.622   3.022   1.150
 1016SOL    HW2 3936   1.548   2.977   1.025
 1017SOL     OW 3937   0.919   1.958   1.396
 1017SOL    HW1 3938   0.941   1.940   1.305
 1017SOL    HW2 3939   0.998   1.998   1.432
 1018SOL     OW 3940   0.984   2.977   1.723
 1018SOL    HW1 3941   0.892   2.993   1.744
 1018SOL    HW2 3942   0.983   2.899   1.667
 1019SOL     OW 3943   0.715   2.925   0.381
 1019SOL    HW1 3944   0.698   2.907   0.474
 1019SOL    HW2 3945   0.793   2.873   0.361
 1020SOL     OW 3946   0.421   2.682   1.253
 1020SOL    HW1 3947   0.490   2.689   1.319
 1020SOL    HW2 3948   0.386   2.593   1.263
 1021SOL     OW 3949   1.265   2.239   1.276
 1021SOL    HW1 3950   1.298   2.316   1.322
 1021SOL    HW2 3951   1.174   2.260   1.254
 1022SOL     OW 3952   0.102   3.485   1.366
 1022SOL    HW1 3953   0.080   3.492   1.273
 1022SOL    HW2 3954   0.188   3.444   1.368
 1023SOL     OW 3955   0.346   2.971   0.487
 1023SOL    HW1 3956   0.343   3.051   0.434
 1023SOL    HW2 3957   0.357   2.901   0.423
 1024SOL     OW 3958   0.553   2.396   0.859
 1024SOL    HW1 3959   0.568   2.455   0.785
 1024SOL    HW2 3960   0.618   2.423   0.924
 1025SOL     OW 3961   1.247   3.209   0.394
 1025SOL    HW1 3962   1.303   3.281   0.423
 1025SOL    HW2 3963   1.160   3.232   0.426
 1026SOL     OW 3964   1.283   3.320   1.147
 1026SOL    HW1 3965   1.338   3.323   1.225
 1026SOL    HW2 3966   1.227   3.244   1.161
 1027SOL     OW 3967   1.581   2.483   0.483
 1027SOL    HW1 3968   1.531   2.535   0.546
 1027SOL    HW2 3969   1.619   2.547   0.423
 1028SOL     OW 3970   0.352   3.382   1.310
 1028SOL    HW1 3971   0.341   3.338   1.225
 1028SOL    HW2 3972   0.446   3.399   1.316
 1029SOL     OW 3973   0.414   2.604   1.602
 1029SOL    HW1 3974   0.476   2.650   1.545
 1029SOL    HW2 3975   0.454   2.518   1.615
 1030SOL     OW 3976   1.602   2.640   1.683
 1030SOL    HW1 3977   1.516   2.682   1.677
 1030SOL    HW2 3978   1.655   2.683   1.615
 1031SOL     OW 3979   0.996   1.987   1.755
 1031SOL    HW1 3980   1.052   2.060   1.729
 1031SOL    HW2 3981   1.044   1.908   1.729
 1032SOL     OW 3982   0.497   1.903   1.748
 1032SOL    HW1 3983   0.454   1.849   1.682
 1032SOL    HW2 3984   0.438   1.977   1.761
 1033SOL     OW 3985   0.586   2.736   1.033
 1033SOL    HW1 3986   0.617   2.826   1.032
 1033SOL    HW2 3987   0.529   2.731   1.110
 1034SOL     OW 3988   1.356   2.720   1.028
 1034SOL    HW1 3989   1.273   2.711   0.983
 1034SOL    HW2 3990   1.398   2.634   1.022
 1035SOL     OW 3991   1.203   2.389   0.271
 1035SOL    HW1 3992   1.210   2.311   0.325
 1035SOL    HW2 3993   1.160   2.453   0.327
 1036SOL     OW 3994   0.301   2.065   1.247
 1036SOL    HW1 3995   0.267   2.089   1.333
 1036SOL    HW2 3996   0.290   1.970   1.242
 1037SOL     OW 3997   0.067   3.180   1.280
 1037SOL    HW1 3998   0.091   3.121   1.351
 1037SOL    HW2 3999   5.296   3.233   1.316
 1038SOL     OW 4000   0.723   2.492   1.057
 1038SOL    HW1 4001   0.799   2.478   1.000
 1038SOL    HW2 4002   0.695   2.582   1.037
 1039SOL     OW 4003   1.733   2.823   1.853
 1039SOL    HW1 4004   1.688   2.758   1.798
 1039SOL    HW2 4005   1.674   2.836   1.927
 1040SOL     OW 4006   0.325   1.925   0.635
 1040SOL    HW1 4007   0.309   2.015   0.664
 1040SOL    HW2 4008   0.332   1.875   0.716
 1041SOL     OW 4009   1.621   2.237   0.369
 1041SOL    HW1 4010   1.646   2.173   0.436
 1041SOL    HW2 4011   1.596   2.315   0.419
 1042SOL     OW 4012   1.028   2.621   0.960
 1042SOL    HW1 4013   1.024   2.638   1.054
 1042SOL    HW2 4014   1.001   2.529   0.951
 1043SOL     OW 4015   0.981   3.428   1.718
 1043SOL    HW1 4016   0.967   3.472   1.634
 1043SOL    HW2 4017   1.026   3.346   1.694
 1044SOL     OW 4018   1.854   3.367   1.605
 1044SOL    HW1 4019   1.873   3.394   1.515
 1044SOL    HW2 4020   1.935   3.384   1.653
 1045SOL     OW 4021   0.354   2.780   1.806
 1045SOL    HW1 4022   0.435   2.800   1.853
 1045SOL    HW2 4023   0.380   2.715   1.741
 1046SOL     OW 4024   1.516   2.164   0.127
 1046SOL    HW1 4025   1.467   2.083   0.143
 1046SOL    HW2 4026   1.557   2.185   0.211
 1047SOL     OW 4027   1.295   2.685   0.021
 1047SOL    HW1 4028   1.333   2.599   0.037
 1047SOL    HW2 4029   1.358   2.728   8.042
 1048SOL     OW 4030   1.067   3.198   0.855
 1048SOL    HW1 4031   1.070   3.126   0.792
 1048SOL    HW2 4032   1.127   3.263   0.819
 1049SOL     OW 4033   0.313   2.671   0.950
 1049SOL    HW1 4034   0.407   2.690   0.946
 1049SOL    HW2 4035   0.308   2.580   0.981
 1050SOL     OW 4036   0.334   2.388   1.015
 1050SOL    HW1 4037   0.299   2.300   1.001
 1050SOL    HW2 4038   0.409   2.393   0.956
 1051SOL     OW 4039   1.134   2.237   1.683
 1051SOL    HW1 4040   1.086   2.292   1.745
 1051SOL    HW2 4041   1.221   2.276   1.679
 1052SOL     OW 4042   1.161   2.064   1.470
 1052SOL    HW1 4043   1.150   2.127   1.542
 1052SOL    HW2 4044   1.201   2.115   1.400
 1053SOL     OW 4045   0.011   3.189   0.201
 1053SOL    HW1 4046   5.239   3.171   0.140
 1053SOL    HW2 4047   0.015   3.110   0.256
 1054SOL     OW 4048   0.094   3.644   0.950
 1054SOL    HW1 4049   0.059   3.574   0.895
 1054SOL    HW2 4050   0.182   3.661   0.915
 1055SOL     OW 4051   0.505   3.435   0.907
 1055SOL    HW1 4052   0.572   3.501   0.928
 1055SOL    HW2 4053   0.548   3.375   0.847
 1056SOL     OW 4054   0.981   2.652   1.226
 1056SOL    HW1 4055   1.038   2.631   1.300
 1056SOL    HW2 4056   0.896   2.616   1.250
 1057SOL     OW 4057   0.032   2.421   1.116
 1057SOL    HW1 4058   0.120   2.402   1.084
 1057SOL    HW2 4059   0.037   2.405   1.210
 1058SOL     OW 4060   0.173   2.375   1.712
 1058SOL    HW1 4061   0.238   2.337   1.652
 1058SOL    HW2 4062   0.147   2.457   1.669
 1059SOL     OW 4063   1.378   2.800   1.658
 1059SOL    HW1 4064   1.399   2.893   1.656
 1059SOL    HW2 4065   1.375   2.774   1.566
 1060SOL     OW 4066   0.819   2.431   0.369
 1060SOL    HW1 4067   0.829   2.360   0.306
 1060SOL    HW2 4068   0.743   2.480   0.338
 1061SOL     OW 4069   1.640   2.463   1.185
 1061SOL    HW1 4070   1.630   2.405   1.260
 1061SOL    HW2 4071   1.727   2.443   1.150
 1062SOL     OW 4072   0.256   3.418   1.734
 1062SOL    HW1 4073   0.234   3.481   1.803
 1062SOL    HW2 4074   0.250   3.332   1.777
 1063SOL     OW 4075   0.704   2.311   1.258
 1063SOL    HW1 4076   0.650   2.237   1.230
 1063SOL    HW2 4077   0.698   2.374   1.187
 1064SOL     OW 4078   0.928   3.541   1.468
 1064SOL    HW1 4079   0.901   3.505   1.383
 1064SOL    HW2 4080   0.922   3.636   1.457
 1065SOL     OW 4081   0.467   2.352   0.178
 1065SOL    HW1 4082   0.532   2.418   0.200
 1065SOL    HW2 4083   0.383   2.398   0.182
 1066SOL     OW 4084   0.147   2.999   1.471
 1066SOL    HW1 4085   0.145   2.951   1.554
 1066SOL    HW2 4086   0.159   2.931   1.404
 1067SOL     OW 4087   1.325   2.908   1.223
 1067SOL    HW1 4088   1.348   2.845   1.155
 1067SOL    HW2 4089   1.255   2.961   1.184
 1068SOL     OW 4090   1.306   2.709   0.309
 1068SOL    HW1 4091   1.228   2.681   0.356
 1068SOL    HW2 4092   1.283   2.698   0.216
 1069SOL     OW 4093   1.773   3.605   1.151
 1069SOL    HW1 4094   1.833   3.631   1.081
 1069SOL    HW2 4095   1.748   3.515   1.129
 1070SOL     OW 4096   1.241   3.595   1.111
 1070SOL    HW1 4097   1.323   3.616   1.067
 1070SOL    HW2 4098   1.247   3.501   1.130
 1071SOL     OW 4099   0.082   3.076   1.027
 1071SOL    HW1 4100   0.069   3.103   1.118
 1071SOL    HW2 4101   5.294   3.067   0.992
 1072SOL     OW 4102   0.678   3.529   1.731
 1072SOL    HW1 4103   0.621   3.606   1.725
 1072SOL    HW2 4104   0.743   3.541   1.662
 1073SOL     OW 4105   0.905   1.953   0.132
 1073SOL    HW1 4106   0.922   1.938   0.039
 1073SOL    HW2 4107   0.970   1.901   0.178
 1074SOL     OW 4108   1.721   2.009   0.510
 1074SOL    HW1 4109   1.791   1.992   0.447
 1074SOL    HW2 4110   1.705   1.924   0.551
 1075SOL     OW 4111   1.390   3.430   0.487
 1075SOL    HW1 4112   1.453   3.463   0.423
 1075SOL    HW2 4113   1.342   3.508   0.516
 1076SOL     OW 4114   0.146   3.660   1.842
 1076SOL    HW1 4115   0.091   3.597   1.890
 1076SOL    HW2 4116   0.193   3.707   1.911
 1077SOL     OW 4117   1.277   2.788   0.671
 1077SOL    HW1 4118   1.351   2.727   0.678
 1077SOL    HW2 4119   1.311   2.860   0.618
 1078SOL     OW 4120   0.813   3.135   1.429
 1078SOL    HW1 4121   0.784   3.176   1.511
 1078SOL    HW2 4122   0.743   3.156   1.367
 1079SOL     OW 4123   0.678   3.483   0.155
 1079SOL    HW1 4124   0.682   3.491   0.060
 1079SOL    HW2 4125   0.616   3.411   0.171
 1080SOL     OW 4126   1.624   3.589   1.391
 1080SOL    HW1 4127   1.675   3.595   1.310
 1080SOL    HW2 4128   1.611   3.679   1.418
 1081SOL     OW 4129   1.837   2.032   0.967
 1081SOL    HW1 4130   1.865   1.945   0.939
 1081SOL    HW2 4131   1.751   2.043   0.927
 1082SOL     OW 4132   0.270   2.178   0.716
 1082SOL    HW1 4133   0.187   2.222   0.698
 1082SOL    HW2 4134   0.272   2.168   0.811
 1083SOL     OW 4135   1.158   3.442   0.051
 1083SOL    HW1 4136   1.172   3.350   0.072
 1083SOL    HW2 4137   1.169   3.448   8.036
 1084SOL     OW 4138   0.824   2.868   1.373
 1084SOL    HW1 4139   0.867   2.863   1.287
 1084SOL    HW2 4140   0.823   2.961   1.394
 1085SOL     OW 4141   0.918   2.775   0.297
 1085SOL    HW1 4142   0.972   2.799   0.222
 1085SOL    HW2 4143   0.967   2.704   0.340
 1086SOL     OW 4144   1.510   3.485   0.061
 1086SOL    HW1 4145   1.415   3.486   0.049
 1086SOL    HW2 4146   1.545   3.488   8.052
 1087SOL     OW 4147   0.367   3.166   1.493
 1087SOL    HW1 4148   0.359   3.240   1.433
 1087SOL    HW2 4149   0.291   3.111   1.474
 1088SOL     OW 4150   1.610   3.145   1.280
 1088SOL    HW1 4151   1.670   3.133   1.353
 1088SOL    HW2 4152   1.550   3.213   1.309
 1089SOL     OW 4153   1.053   2.970   0.707
 1089SOL    HW1 4154   0.983   2.918   0.746
 1089SOL    HW2 4155   1.116   2.904   0.676
 1090SOL     OW 4156   1.022   2.102   0.966
 1090SOL    HW1 4157   1.017   2.055   0.883
 1090SOL    HW2 4158   1.016   2.034   1.033
 1091SOL     OW 4159   0.603   3.348   0.479
 1091SOL    HW1 4160   0.646   3.299   0.409
 1091SOL    HW2 4161   0.534   3.398   0.434
 1092SOL     OW 4162   1.718   2.252   1.379
 1092SOL    HW1 4163   1.789   2.317   1.380
 1092SOL    HW2 4164   1.751   2.182   1.323
 1093SOL     OW 4165   0.270   3.187   0.300
 1093SOL    HW1 4166   0.185   3.196   0.258
 1093SOL    HW2 4167   0.261   3.234   0.383
 1094SOL     OW 4168   0.117   2.878   1.717
 1094SOL    HW1 4169   0.046   2.843   1.772
 1094SOL    HW2 4170   0.197   2.848   1.759
 1095SOL     OW 4171   0.675   2.058   1.499
 1095SOL    HW1 4172   0.759   2.038   1.458
 1095SOL    HW2 4173   0.698   2.090   1.587
 1096SOL     OW 4174   0.042   2.252   0.027
 1096SOL    HW1 4175   0.019   2.167   0.065
 1096SOL    HW2 4176   0.124   2.236   8.061
 1097SOL     OW 4177   1.429   2.720   1.399
 1097SOL    HW1 4178   1.380   2.781   1.344
 1097SOL    HW2 4179   1.518   2.723   1.366
 1098SOL     OW 4180   0.053   1.997   0.214
 1098SOL    HW1 4181   0.055   2.083   0.256
 1098SOL    HW2 4182   0.145   1.973   0.204
 1099SOL     OW 4183   1.184   3.178   0.122
 1099SOL    HW1 4184   1.089   3.169   0.120
 1099SOL    HW2 4185   1.207   3.180   0.214
 1100SOL     OW 4186   0.620   2.693   1.436
 1100SOL    HW1 4187   0.676   2.768   1.420
 1100SOL    HW2 4188   0.680   2.619   1.443
 1101SOL     OW 4189   1.483   3.639   0.979
 1101SOL    HW1 4190   1.507   3.700   0.909
 1101SOL    HW2 4191   1.567   3.619   1.022
 1102SOL     OW 4192   0.717   2.426   1.704
 1102SOL    HW1 4193   0.759   2.488   1.763
 1102SOL    HW2 4194   0.743   2.339   1.737
 1103SOL     OW 4195   1.472   3.061   1.631
 1103SOL    HW1 4196   1.460   3.075   1.725
 1103SOL    HW2 4197   1.565   3.077   1.617
 1104SOL     OW 4198   0.377   3.605   1.565
 1104SOL    HW1 4199   0.294   3.651   1.548
 1104SOL    HW2 4200   0.351   3.524   1.609
 1105SOL     OW 4201   1.670   2.743   1.255
 1105SOL    HW1 4202   1.662   2.658   1.212
 1105SOL    HW2 4203   1.659   2.807   1.184
 1106SOL     OW 4204   1.217   2.179   0.460
 1106SOL    HW1 4205   1.282   2.110   0.454
 1106SOL    HW2 4206   1.244   2.231   0.536
 1107SOL     OW 4207   0.588   2.598   0.669
 1107SOL    HW1 4208   0.628   2.684   0.656
 1107SOL    HW2 4209   0.518   2.593   0.604
 1108SOL     OW 4210   1.763   2.222   1.648
 1108SOL    HW1 4211   1.742   2.239   1.556
 1108SOL    HW2 4212   1.691   2.167   1.679
 1109SOL     OW 4213   1.744   2.796   1.512
 1109SOL    HW1 4214   1.741   2.891   1.526
 1109SOL    HW2 4215   1.729   2.785   1.418
 1110SOL     OW 4216   0.896   3.233   0.038
 1110SOL    HW1 4217   0.834   3.223   0.110
 1110SOL    HW2 4218   0.877   3.320   0.002
 1111SOL     OW 4219   0.664   3.655   0.942
 1111SOL    HW1 4220   0.643   3.746   0.920
 1111SOL    HW2 4221   0.759   3.650   0.936
 1112SOL     OW 4222   0.868   2.829   0.854
 1112SOL    HW1 4223   0.918   2.758   0.894
 1112SOL    HW2 4224   0.833   2.878   0.929
 1113SOL     OW 4225   1.076   2.836   0.085
 1113SOL    HW1 4226   1.068   2.903   0.017
 1113SOL    HW2 4227   1.154   2.786   0.060
 1114SOL     OW 4228   1.853   3.416   0.843
 1114SOL    HW1 4229   1.774   3.404   0.791
 1114SOL    HW2 4230   1.846   3.350   0.913
 1115SOL     OW 4231   0.226   3.166   1.860
 1115SOL    HW1 4232   0.158   3.104   1.835
 1115SOL    HW2 4233   0.214   3.176   1.955
 1116SOL     OW 4234   0.096   3.096   0.662
 1116SOL    HW1 4235   0.101   3.050   0.746
 1116SOL    HW2 4236   0.171   3.062   0.612
 1117SOL     OW 4237   0.682   3.265   1.629
 1117SOL    HW1 4238   0.601   3.223   1.659
 1117SOL    HW2 4239   0.678   3.354   1.665
 1118SOL     OW 4240   1.814   2.046   1.238
 1118SOL    HW1 4241   1.821   1.952   1.252
 1118SOL    HW2 4242   1.821   2.057   1.143
 1119SOL     OW 4243   0.432   2.301   0.523
 1119SOL    HW1 4244   0.462   2.229   0.469
 1119SOL    HW2 4245   0.387   2.259   0.596
 1120SOL     OW 4246   1.700   3.351   1.095
 1120SOL    HW1 4247   1.619   3.328   1.049
 1120SOL    HW2 4248   1.711   3.282   1.160
 1121SOL     OW 4249   0.337   2.422   1.292
 1121SOL    HW1 4250   0.390   2.363   1.345
 1121SOL    HW2 4251   0.351   2.392   1.202
 1122SOL     OW 4252   0.829   3.439   0.677
 1122SOL    HW1 4253   0.814   3.496   0.601
 1122SOL    HW2 4254   0.753   3.381   0.679
 1123SOL     OW 4255   1.432   2.088   1.118
 1123SOL    HW1 4256   1.454   2.007   1.164
 1123SOL    HW2 4257   1.380   2.138   1.181
 1124SOL     OW 4258   1.009   1.880   1.141
 1124SOL    HW1 4259   0.954   1.813   1.101
 1124SOL    HW2 4260   1.097   1.842   1.143
 1125SOL     OW 4261   0.772   3.188   0.307
 1125SOL    HW1 4262   0.741   3.099   0.324
 1125SOL    HW2 4263   0.852   3.196   0.359
 1126SOL     OW 4264   0.623   3.417   1.288
 1126SOL    HW1 4265   0.624   3.500   1.337
 1126SOL    HW2 4266   0.710   3.412   1.248
 1127SOL     OW 4267   1.356   1.916   0.185
 1127SOL    HW1 4268   1.376   1.870   0.104
 1127SOL    HW2 4269   1.270   1.884   0.211
 1128SOL     OW 4270   1.296   2.323   0.681
 1128SOL    HW1 4271   1.244   2.403   0.687
 1128SOL    HW2 4272   1.292   2.285   0.768
 1129SOL     OW 4273   1.585   2.063   0.878
 1129SOL    HW1 4274   1.525   2.084   0.950
 1129SOL    HW2 4275   1.584   2.142   0.823
 1130SOL     OW 4276   0.047   2.938   0.323
 1130SOL    HW1 4277   0.135   2.915   0.293
 1130SOL    HW2 4278   5.298   2.856   0.318
 1131SOL     OW 4279   0.884   3.516   0.346
 1131SOL    HW1 4280   0.815   3.501   0.282
 1131SOL    HW2 4281   0.853   3.592   0.397
 1132SOL     OW 4282   0.233   2.493   1.979
 1132SOL    HW1 4283   0.161   2.457   2.031
 1132SOL    HW2 4284   0.217   2.460   1.890
 1133SOL     OW 4285   0.243   2.137   2.851
 1133SOL    HW1 4286   0.256   2.103   2.939
 1133SOL    HW2 4287   0.158   2.102   2.824
 1134SOL     OW 4288   5.298   2.261   2.515
 1134SOL    HW1 4289   5.205   2.283   2.520
 1134SOL    HW2 4290   5.299   2.171   2.483
 1135SOL     OW 4291   0.575   3.148   3.046
 1135SOL    HW1 4292   0.493   3.156   2.998
 1135SOL    HW2 4293   0.591   3.236   3.080
 1136SOL     OW 4294   1.563   3.374   2.569
 1136SOL    HW1 4295   1.520   3.353   2.652
 1136SOL    HW2 4296   1.491   3.378   2.506
 1137SOL     OW 4297   1.130   2.560   2.562
 1137SOL    HW1 4298   1.180   2.641   2.548
 1137SOL    HW2 4299   1.084   2.574   2.644
 1138SOL     OW 4300   1.765   2.467   2.089
 1138SOL    HW1 4301   1.745   2.459   1.996
 1138SOL    HW2 4302   1.730   2.387   2.129
 1139SOL     OW 4303   0.754   3.002   2.902
 1139SOL    HW1 4304   0.688   3.037   2.962
 1139SOL    HW2 4305   0.790   3.079   2.859
 1140SOL     OW 4306   0.868   2.634   3.684
 1140SOL    HW1 4307   0.858   2.706   3.746
 1140SOL    HW2 4308   0.891   2.677   3.602
 1141SOL     OW 4309   0.685   2.863   2.509
 1141SOL    HW1 4310   0.751   2.852   2.577
 1141SOL    HW2 4311   0.618   2.917   2.550
 1142SOL     OW 4312   0.710   3.012   3.677
 1142SOL    HW1 4313   0.759   3.090   3.703
 1142SOL    HW2 4314   0.629   3.046   3.639
 1143SOL     OW 4315   0.358   3.266   2.922
 1143SOL    HW1 4316   0.270   3.266   2.886
 1143SOL    HW2 4317   0.407   3.328   2.867
 1144SOL     OW 4318   1.460   3.362   3.217
 1144SOL    HW1 4319   1.513   3.441   3.227
 1144SOL    HW2 4320   1.398   3.365   3.289
 1145SOL     OW 4321   0.451   2.262   3.354
 1145SOL    HW1 4322   0.525   2.202   3.355
 1145SOL    HW2 4323   0.374   2.206   3.364
 1146SOL     OW 4324   1.611   2.310   2.602
 1146SOL    HW1 4325   1.537   2.331   2.545
 1146SOL    HW2 4326   1.624   2.390   2.654
 1147SOL     OW 4327   0.232   3.576   2.339
 1147SOL    HW1 4328   0.264   3.645   2.397
 1147SOL    HW2 4329   0.295   3.573   2.267
 1148SOL     OW 4330   1.136   3.204   3.555
 1148SOL    HW1 4331   1.179   3.198   3.640
 1148SOL    HW2 4332   1.084   3.124   3.548
 1149SOL     OW 4333   0.222   3.307   2.402
 1149SOL    HW1 4334   0.217   3.402   2.396
 1149SOL    HW2 4335   0.151   3.283   2.462
 1150SOL     OW 4336   0.250   2.939   2.736
 1150SOL    HW1 4337   0.262   2.853   2.778
 1150SOL    HW2 4338   0.199   2.989   2.799
 1151SOL     OW 4339   0.612   3.652   3.294
 1151SOL    HW1 4340   0.528   3.635   3.337
 1151SOL    HW2 4341   0.633   3.743   3.317
 1152SOL     OW 4342   0.582   2.846   1.998
 1152SOL    HW1 4343   0.629   2.893   1.929
 1152SOL    HW2 4344   0.623   2.876   2.079
 1153SOL     OW 4345   1.574   1.974   3.312
 1153SOL    HW1 4346   1.570   2.053   3.259
 1153SOL    HW2 4347   1.625   1.999   3.389
 1154SOL     OW 4348   0.126   2.495   2.442
 1154SOL    HW1 4349   0.089   2.412   2.471
 1154SOL    HW2 4350   0.099   2.559   2.508
 1155SOL     OW 4351   1.842   3.620   2.196
 1155SOL    HW1 4352   1.908   3.592   2.260
 1155SOL    HW2 4353   1.865   3.711   2.177
 1156SOL     OW 4354   0.038   3.461   1.994
 1156SOL    HW1 4355   0.025   3.370   2.020
 1156SOL    HW2 4356   5.282   3.511   2.054
 1157SOL     OW 4357   1.690   2.780   2.504
 1157SOL    HW1 4358   1.771   2.734   2.481
 1157SOL    HW2 4359   1.668   2.830   2.425
 1158SOL     OW 4360   1.646   2.968   2.291
 1158SOL    HW1 4361   1.733   2.973   2.250
 1158SOL    HW2 4362   1.652   3.030   2.364
 1159SOL     OW 4363   0.132   2.611   3.446
 1159SOL    HW1 4364   0.227   2.624   3.447
 1159SOL    HW2 4365   0.095   2.697   3.463
 1160SOL     OW 4366   0.616   3.248   2.596
 1160SOL    HW1 4367   0.568   3.166   2.607
 1160SOL    HW2 4368   0.598   3.275   2.506
 1161SOL     OW 4369   1.288   3.100   3.285
 1161SOL    HW1 4370   1.319   3.032   3.225
 1161SOL    HW2 4371   1.346   3.094   3.361
 1162SOL     OW 4372   0.824   1.862   2.372
 1162SOL    HW1 4373   0.864   1.946   2.352
 1162SOL    HW2 4374   0.730   1.881   2.378
 1163SOL     OW 4375   0.175   2.806   3.141
 1163SOL    HW1 4376   0.266   2.776   3.133
 1163SOL    HW2 4377   0.135   2.784   3.057
 1164SOL     OW 4378   1.531   2.857   2.061
 1164SOL    HW1 4379   1.462   2.799   2.094
 1164SOL    HW2 4380   1.573   2.891   2.140
 1165SOL     OW 4381   1.186   3.670   3.485
 1165SOL    HW1 4382   1.194   3.729   3.410
 1165SOL    HW2 4383   1.202   3.582   3.449
 1166SOL     OW 4384   0.338   2.115   3.682
 1166SOL    HW1 4385   0.385   2.198   3.694
 1166SOL    HW2 4386   0.250   2.132   3.715
 1167SOL     OW 4387   1.467   3.282   2.813
 1167SOL    HW1 4388   1.399   3.297   2.879
 1167SOL    HW2 4389   1.455   3.191   2.786
 1168SOL     OW 4390   1.656   3.605   2.440
 1168SOL    HW1 4391   1.638   3.573   2.351
 1168SOL    HW2 4392   1.635   3.531   2.496
 1169SOL     OW 4393   0.595   2.582   2.129
 1169SOL    HW1 4394   0.602   2.664   2.079
 1169SOL    HW2 4395   0.531   2.602   2.197
 1170SOL     OW 4396   1.279   2.216   2.795
 1170SOL    HW1 4397   1.190   2.184   2.803
 1170SOL    HW2 4398   1.330   2.163   2.857
 1171SOL     OW 4399   1.580   3.532   2.171
 1171SOL    HW1 4400   1.671   3.563   2.164
 1171SOL    HW2 4401   1.553   3.516   2.081
 1172SOL     OW 4402   0.791   2.479   3.313
 1172SOL    HW1 4403   0.764   2.455   3.401
 1172SOL    HW2 4404   0.752   2.412   3.257
 1173SOL     OW 4405   1.391   2.348   3.539
 1173SOL    HW1 4406   1.396   2.389   3.626
 1173SOL    HW2 4407   1.430   2.262   3.551
 1174SOL     OW 4408   0.953   2.749   3.445
 1174SOL    HW1 4409   1.008   2.679   3.409
 1174SOL    HW2 4410   0.906   2.783   3.370
 1175SOL     OW 4411   0.992   2.275   3.100
 1175SOL    HW1 4412   0.905   2.295   3.135
 1175SOL    HW2 4413   0.975   2.229   3.018
 1176SOL     OW 4414   1.051   2.561   2.288
 1176SOL    HW1 4415   1.068   2.554   2.382
 1176SOL    HW2 4416   0.969   2.514   2.275
 1177SOL     OW 4417   0.071   2.650   2.673
 1177SOL    HW1 4418   0.151   2.654   2.723
 1177SOL    HW2 4419   0.066   2.734   2.628
 1178SOL     OW 4420   0.129   3.747   3.447
 1178SOL    HW1 4421   0.133   3.719   3.538
 1178SOL    HW2 4422   0.060   3.693   3.408
 1179SOL     OW 4423   0.894   2.211   2.056
 1179SOL    HW1 4424   0.934   2.274   1.996
 1179SOL    HW2 4425   0.910   2.126   2.016
 1180SOL     OW 4426   1.377   3.004   2.402
 1180SOL    HW1 4427   1.457   2.992   2.350
 1180SOL    HW2 4428   1.325   3.066   2.352
 1181SOL     OW 4429   0.556   2.045   2.756
 1181SOL    HW1 4430   0.553   2.073   2.847
 1181SOL    HW2 4431   0.552   2.126   2.705
 1182SOL     OW 4432   1.004   3.305   2.333
 1182SOL    HW1 4433   0.968   3.379   2.284
 1182SOL    HW2 4434   0.986   3.327   2.425
 1183SOL     OW 4435   0.357   3.665   2.732
 1183SOL    HW1 4436   0.397   3.580   2.745
 1183SOL    HW2 4437   0.423   3.728   2.763
 1184SOL     OW 4438   1.797   2.916   2.733
 1184SOL    HW1 4439   1.745   2.900   2.654
 1184SOL    HW2 4440   1.732   2.922   2.803
 1185SOL     OW 4441   1.228   3.401   3.376
 1185SOL    HW1 4442   1.214   3.328   3.436
 1185SOL    HW2 4443   1.164   3.387   3.305
 1186SOL     OW 4444   0.315   2.814   2.110
 1186SOL    HW1 4445   0.397   2.838   2.066
 1186SOL    HW2 4446   0.293   2.728   2.075
 1187SOL     OW 4447   1.479   2.606   2.588
 1187SOL    HW1 4448   1.471   2.564   2.673
 1187SOL    HW2 4449   1.557   2.661   2.596
 1188SOL     OW 4450   0.465   3.127   3.600
 1188SOL    HW1 4451   0.439   3.133   3.508
 1188SOL    HW2 4452   0.383   3.127   3.649
 1189SOL     OW 4453   1.122   3.640   2.092
 1189SOL    HW1 4454   1.049   3.598   2.138
 1189SOL    HW2 4455   1.146   3.578   2.023
 1190SOL     OW 4456   0.205   2.141   3.359
 1190SOL    HW1 4457   0.127   2.193   3.343
 1190SOL    HW2 4458   0.173   2.061   3.401
 1191SOL     OW 4459   1.629   3.242   1.950
 1191SOL    HW1 4460   1.587   3.327   1.935
 1191SOL    HW2 4461   1.560   3.178   1.931
 1192SOL     OW 4462   0.471   3.597   2.181
 1192SOL    HW1 4463   0.514   3.654   2.244
 1192SOL    HW2 4464   0.542   3.565   2.125
 1193SOL     OW 4465   1.401   1.969   2.296
 1193SOL    HW1 4466   1.391   1.945   2.204
 1193SOL    HW2 4467   1.495   1.977   2.309
 1194SOL     OW 4468   0.277   3.663   3.073
 1194SOL    HW1 4469   0.307   3.584   3.119
 1194SOL    HW2 4470   0.225   3.630   3.000
 1195SOL     OW 4471   0.939   3.561   2.761
 1195SOL    HW1 4472   1.017   3.509   2.781
 1195SOL    HW2 4473   0.895   3.511   2.692
 1196SOL     OW 4474   0.386   2.558   2.341
 1196SOL    HW1 4475   0.415   2.467   2.350
 1196SOL    HW2 4476   0.292   2.555   2.361
 1197SOL     OW 4477   1.487   2.106   3.602
 1197SOL    HW1 4478   1.505   2.113   3.696
 1197SOL    HW2 4479   1.454   2.016   3.590
 1198SOL     OW 4480   0.635   1.984   1.967
 1198SOL    HW1 4481   0.704   1.918   1.979
 1198SOL    HW2 4482   0.586   1.953   1.891
 1199SOL     OW 4483   0.766   2.141   3.617
 1199SOL    HW1 4484   0.843   2.083   3.616
 1199SOL    HW2 4485   0.718   2.115   3.695
 1200SOL     OW 4486   0.877   3.384   3.056
 1200SOL    HW1 4487   0.861   3.348   2.969
 1200SOL    HW2 4488   0.947   3.329   3.092
 1201SOL     OW 4489   1.340   2.452   3.292
 1201SOL    HW1 4490   1.369   2.422   3.378
 1201SOL    HW2 4491   1.376   2.541   3.284
 1202SOL     OW 4492   0.816   3.255   2.803
 1202SOL    HW1 4493   0.901   3.244   2.759
 1202SOL    HW2 4494   0.752   3.258   2.732
 1203SOL     OW 4495   0.928   2.371   2.765
 1203SOL    HW1 4496   0.904   2.363   2.672
 1203SOL    HW2 4497   0.959   2.284   2.789
 1204SOL     OW 4498   0.561   1.923   2.357
 1204SOL    HW1 4499   0.486   1.923   2.417
 1204SOL    HW2 4500   0.550   2.002   2.305
 1205SOL     OW 4501   1.428   3.061   1.903
 1205SOL    HW1 4502   1.458   2.985   1.953
 1205SOL    HW2 4503   1.343   3.082   1.941
 1206SOL     OW 4504   0.306   1.909   2.041
 1206SOL    HW1 4505   0.368   1.973   2.006
 1206SOL    HW2 4506   0.360   1.845   2.086
 1207SOL     OW 4507   0.940   2.109   2.321
 1207SOL    HW1 4508   0.914   2.151   2.238
 1207SOL    HW2 4509   1.035   2.125   2.326
 1208SOL     OW 4510   1.080   2.543   3.322
 1208SOL    HW1 4511   1.012   2.475   3.325
 1208SOL    HW2 4512   1.162   2.495   3.313
 1209SOL     OW 4513   1.222   3.432   2.656
 1209SOL    HW1 4514   1.238   3.499   2.589
 1209SOL    HW2 4515   1.292   3.446   2.721
 1210SOL     OW 4516   0.468   3.013   2.592
 1210SOL    HW1 4517   0.399   2.992   2.655
 1210SOL    HW2 4518   0.428   2.995   2.507
 1211SOL     OW 4519   1.268   3.655   2.471
 1211SOL    HW1 4520   1.315   3.717   2.414
 1211SOL    HW2 4521   1.201   3.709   2.514
 1212SOL     OW 4522   1.023   2.402   1.886
 1212SOL    HW1 4523   0.981   2.486   1.866
 1212SOL    HW2 4524   1.089   2.424   1.952
 1213SOL     OW 4525   0.089   2.406   3.261
 1213SOL    HW1 4526   0.176   2.413   3.223
 1213SOL    HW2 4527   0.080   2.482   3.318
 1214SOL     OW 4528   0.560   2.090   3.029
 1214SOL    HW1 4529   0.598   2.011   3.067
 1214SOL    HW2 4530   0.468   2.088   3.056
 1215SOL     OW 4531   0.867   2.321   2.501
 1215SOL    HW1 4532   0.822   2.375   2.437
 1215SOL    HW2 4533   0.889   2.240   2.454
 1216SOL     OW 4534   1.016   1.915   2.613
 1216SOL    HW1 4535   0.957   1.908   2.537
 1216SOL    HW2 4536   0.994   1.840   2.668
 1217SOL     OW 4537   1.437   3.025   2.719
 1217SOL    HW1 4538   1.368   2.959   2.718
 1217SOL    HW2 4539   1.462   3.035   2.627
 1218SOL     OW 4540   1.463   2.468   2.834
 1218SOL    HW1 4541   1.411   2.387   2.837
 1218SOL    HW2 4542   1.519   2.463   2.911
 1219SOL     OW 4543   1.840   2.681   2.241
 1219SOL    HW1 4544   1.893   2.629   2.302
 1219SOL    HW2 4545   1.815   2.618   2.172
 1220SOL     OW 4546   0.491   3.281   2.019
 1220SOL    HW1 4547   0.416   3.253   2.071
 1220SOL    HW2 4548   0.477   3.241   1.933
 1221SOL     OW 4549   1.670   3.126   2.508
 1221SOL    HW1 4550   1.765   3.127   2.521
 1221SOL    HW2 4551   1.641   3.214   2.528
 1222SOL     OW 4552   1.394   2.434   1.933
 1222SOL    HW1 4553   1.333   2.414   2.004
 1222SOL    HW2 4554   1.479   2.405   1.966
 1223SOL     OW 4555   0.524   2.125   2.178
 1223SOL    HW1 4556   0.570   2.079   2.108
 1223SOL    HW2 4557   0.501   2.209   2.139
 1224SOL     OW 4558   1.733   3.115   3.429
 1224SOL    HW1 4559   1.805   3.053   3.439
 1224SOL    HW2 4560   1.770   3.200   3.454
 1225SOL     OW 4561   1.058   3.215   3.195
 1225SOL    HW1 4562   0.983   3.184   3.246
 1225SOL    HW2 4563   1.134   3.174   3.236
 1226SOL     OW 4564   1.607   3.489   3.519
 1226SOL    HW1 4565   1.605   3.522   3.429
 1226SOL    HW2 4566   1.685   3.433   3.521
 1227SOL     OW 4567   1.130   3.066   2.966
 1227SOL    HW1 4568   1.071   3.104   3.031
 1227SOL    HW2 4569   1.098   3.099   2.883
 1228SOL     OW 4570   1.624   2.960   2.939
 1228SOL    HW1 4571   1.617   3.021   3.013
 1228SOL    HW2 4572   1.545   2.977   2.887
 1229SOL     OW 4573   0.918   1.958   3.258
 1229SOL    HW1 4574   0.940   1.939   3.167
 1229SOL    HW2 4575   0.997   1.997   3.294
 1230SOL     OW 4576   0.984   2.976   3.586
 1230SOL    HW1 4577   0.892   2.993   3.606
 1230SOL    HW2 4578   0.983   2.899   3.530
 1231SOL     OW 4579   0.708   2.922   2.234
 1231SOL    HW1 4580   0.696   2.906   2.328
 1231SOL    HW2 4581   0.784   2.869   2.210
 1232SOL     OW 4582   0.421   2.682   3.115
 1232SOL    HW1 4583   0.490   2.689   3.181
 1232SOL    HW2 4584   0.387   2.593   3.125
 1233SOL     OW 4585   1.265   2.239   3.138
 1233SOL    HW1 4586   1.298   2.316   3.183
 1233SOL    HW2 4587   1.174   2.260   3.116
 1234SOL     OW 4588   0.102   3.485   3.228
 1234SOL    HW1 4589   0.081   3.493   3.135
 1234SOL    HW2 4590   0.188   3.444   3.230
 1235SOL     OW 4591   0.342   2.969   2.349
 1235SOL    HW1 4592   0.350   3.048   2.295
 1235SOL    HW2 4593   0.350   2.897   2.286
 1236SOL     OW 4594   0.553   2.397   2.721
 1236SOL    HW1 4595   0.568   2.456   2.647
 1236SOL    HW2 4596   0.618   2.423   2.786
 1237SOL     OW 4597   1.248   3.211   2.251
 1237SOL    HW1 4598   1.304   3.282   2.282
 1237SOL    HW2 4599   1.161   3.232   2.285
 1238SOL     OW 4600   1.282   3.320   3.009
 1238SOL    HW1 4601   1.338   3.323   3.086
 1238SOL    HW2 4602   1.227   3.243   3.022
 1239SOL     OW 4603   1.578   2.483   2.340
 1239SOL    HW1 4604   1.533   2.537   2.405
 1239SOL    HW2 4605   1.631   2.544   2.289
 1240SOL     OW 4606   0.352   3.382   3.172
 1240SOL    HW1 4607   0.341   3.338   3.087
 1240SOL    HW2 4608   0.446   3.399   3.178
 1241SOL     OW 4609   0.414   2.604   3.464
 1241SOL    HW1 4610   0.476   2.650   3.407
 1241SOL    HW2 4611   0.454   2.518   3.477
 1242SOL     OW 4612   0.996   1.987   3.617
 1242SOL    HW1 4613   1.053   2.059   3.590
 1242SOL    HW2 4614   1.043   1.908   3.590
 1243SOL     OW 4615   0.497   1.903   3.611
 1243SOL    HW1 4616   0.454   1.849   3.544
 1243SOL    HW2 4617   0.438   1.977   3.623
 1244SOL     OW 4618   0.585   2.736   2.894
 1244SOL    HW1 4619   0.618   2.826   2.894
 1244SOL    HW2 4620   0.529   2.731   2.972
 1245SOL     OW 4621   1.356   2.722   2.890
 1245SOL    HW1 4622   1.272   2.711   2.845
 1245SOL    HW2 4623   1.398   2.636   2.884
 1246SOL     OW 4624   1.203   2.390   2.128
 1246SOL    HW1 4625   1.212   2.312   2.183
 1246SOL    HW2 4626   1.161   2.455   2.184
 1247SOL     OW 4627   0.301   2.065   3.110
 1247SOL    HW1 4628   0.267   2.089   3.196
 1247SOL    HW2 4629   0.289   1.970   3.105
 1248SOL     OW 4630   0.066   3.179   3.142
 1248SOL    HW1 4631   0.091   3.121   3.213
 1248SOL    HW2 4632   5.296   3.233   3.178
 1249SOL     OW 4633   0.723   2.493   2.919
 1249SOL    HW1 4634   0.799   2.477   2.862
 1249SOL    HW2 4635   0.696   2.582   2.898
 1250SOL     OW 4636   1.652   2.857   3.727
 1250SOL    HW1 4637   1.593   2.841   3.654
 1250SOL    HW2 4638   1.596   2.857   3.804
 1251SOL     OW 4639   0.327   1.924   2.496
 1251SOL    HW1 4640   0.307   2.013   2.523
 1251SOL    HW2 4641   0.333   1.875   2.578
 1252SOL     OW 4642   1.616   2.236   2.227
 1252SOL    HW1 4643   1.644   2.173   2.294
 1252SOL    HW2 4644   1.594   2.315   2.277
 1253SOL     OW 4645   1.028   2.621   2.822
 1253SOL    HW1 4646   1.024   2.639   2.916
 1253SOL    HW2 4647   1.002   2.529   2.814
 1254SOL     OW 4648   0.981   3.428   3.580
 1254SOL    HW1 4649   0.967   3.472   3.496
 1254SOL    HW2 4650   1.026   3.346   3.556
 1255SOL     OW 4651   1.852   3.363   3.464
 1255SOL    HW1 4652   1.869   3.406   3.380
 1255SOL    HW2 4653   1.927   3.385   3.519
 1256SOL     OW 4654   0.354   2.780   3.668
 1256SOL    HW1 4655   0.435   2.800   3.715
 1256SOL    HW2 4656   0.380   2.715   3.603
 1257SOL     OW 4657   1.530   2.134   1.989
 1257SOL    HW1 4658   1.464   2.069   2.016
 1257SOL    HW2 4659   1.562   2.170   2.071
 1258SOL     OW 4660   1.290   2.688   1.892
 1258SOL    HW1 4661   1.334   2.602   1.896
 1258SOL    HW2 4662   1.322   2.727   1.811
 1259SOL     OW 4663   1.066   3.198   2.716
 1259SOL    HW1 4664   1.070   3.126   2.653
 1259SOL    HW2 4665   1.127   3.263   2.682
 1260SOL     OW 4666   0.313   2.671   2.812
 1260SOL    HW1 4667   0.407   2.690   2.808
 1260SOL    HW2 4668   0.308   2.581   2.843
 1261SOL     OW 4669   0.334   2.388   2.877
 1261SOL    HW1 4670   0.300   2.300   2.863
 1261SOL    HW2 4671   0.409   2.394   2.818
 1262SOL     OW 4672   1.134   2.238   3.545
 1262SOL    HW1 4673   1.086   2.293   3.607
 1262SOL    HW2 4674   1.220   2.280   3.539
 1263SOL     OW 4675   1.159   2.064   3.332
 1263SOL    HW1 4676   1.151   2.127   3.404
 1263SOL    HW2 4677   1.201   2.114   3.262
 1264SOL     OW 4678   0.002   3.191   2.072
 1264SOL    HW1 4679   5.230   3.178   2.011
 1264SOL    HW2 4680   0.012   3.105   2.114
 1265SOL     OW 4681   0.094   3.643   2.814
 1265SOL    HW1 4682   0.060   3.574   2.757
 1265SOL    HW2 4683   0.181   3.663   2.779
 1266SOL     OW 4684   0.505   3.436   2.770
 1266SOL    HW1 4685   0.572   3.501   2.790
 1266SOL    HW2 4686   0.548   3.375   2.710
 1267SOL     OW 4687   0.981   2.653   3.088
 1267SOL    HW1 4688   1.038   2.632   3.162
 1267SOL    HW2 4689   0.896   2.615   3.112
 1268SOL     OW 4690   0.032   2.425   2.979
 1268SOL    HW1 4691   0.118   2.401   2.945
 1268SOL    HW2 4692   0.037   2.406   3.072
 1269SOL     OW 4693   0.174   2.375   3.574
 1269SOL    HW1 4694   0.238   2.337   3.514
 1269SOL    HW2 4695   0.147   2.457   3.531
 1270SOL     OW 4696   1.392   2.802   3.531
 1270SOL    HW1 4697   1.404   2.896   3.518
 1270SOL    HW2 4698   1.397   2.764   3.443
 1271SOL     OW 4699   0.816   2.431   2.224
 1271SOL    HW1 4700   0.821   2.357   2.163
 1271SOL    HW2 4701   0.743   2.483   2.192
 1272SOL     OW 4702   1.624   2.465   3.049
 1272SOL    HW1 4703   1.615   2.402   3.121
 1272SOL    HW2 4704   1.713   2.452   3.017
 1273SOL     OW 4705   0.256   3.418   3.596
 1273SOL    HW1 4706   0.234   3.481   3.665
 1273SOL    HW2 4707   0.250   3.332   3.639
 1274SOL     OW 4708   0.703   2.311   3.121
 1274SOL    HW1 4709   0.650   2.237   3.091
 1274SOL    HW2 4710   0.698   2.374   3.049
 1275SOL     OW 4711   0.927   3.541   3.330
 1275SOL    HW1 4712   0.902   3.505   3.245
 1275SOL    HW2 4713   0.921   3.636   3.319
 1276SOL     OW 4714   0.464   2.355   2.046
 1276SOL    HW1 4715   0.525   2.426   2.069
 1276SOL    HW2 4716   0.380   2.399   2.033
 1277SOL     OW 4717   0.147   2.999   3.333
 1277SOL    HW1 4718   0.145   2.951   3.416
 1277SOL    HW2 4719   0.159   2.931   3.266
 1278SOL     OW 4720   1.324   2.907   3.087
 1278SOL    HW1 4721   1.349   2.844   3.019
 1278SOL    HW2 4722   1.255   2.960   3.046
 1279SOL     OW 4723   1.312   2.719   2.168
 1279SOL    HW1 4724   1.236   2.688   2.218
 1279SOL    HW2 4725   1.286   2.705   2.076
 1280SOL     OW 4726   1.759   3.613   3.001
 1280SOL    HW1 4727   1.827   3.634   2.938
 1280SOL    HW2 4728   1.743   3.520   2.990
 1281SOL     OW 4729   1.242   3.595   2.974
 1281SOL    HW1 4730   1.324   3.616   2.930
 1281SOL    HW2 4731   1.248   3.502   2.992
 1282SOL     OW 4732   0.082   3.077   2.889
 1282SOL    HW1 4733   0.070   3.103   2.980
 1282SOL    HW2 4734   5.294   3.066   2.855
 1283SOL     OW 4735   0.678   3.529   3.593
 1283SOL    HW1 4736   0.621   3.606   3.586
 1283SOL    HW2 4737   0.743   3.541   3.524
 1284SOL     OW 4738   1.719   2.010   2.371
 1284SOL    HW1 4739   1.791   1.995   2.310
 1284SOL    HW2 4740   1.704   1.924   2.411
 1285SOL     OW 4741   1.390   3.430   2.347
 1285SOL    HW1 4742   1.451   3.462   2.281
 1285SOL    HW2 4743   1.342   3.507   2.376
 1286SOL     OW 4744   0.146   3.660   3.704
 1286SOL    HW1 4745   0.091   3.597   3.751
 1286SOL    HW2 4746   0.193   3.707   3.773
 1287SOL     OW 4747   1.277   2.788   2.533
 1287SOL    HW1 4748   1.351   2.727   2.541
 1287SOL    HW2 4749   1.311   2.860   2.480
 1288SOL     OW 4750   0.813   3.135   3.291
 1288SOL    HW1 4751   0.784   3.176   3.373
 1288SOL    HW2 4752   0.743   3.156   3.229
 1289SOL     OW 4753   0.672   3.482   2.017
 1289SOL    HW1 4754   0.683   3.496   1.923
 1289SOL    HW2 4755   0.617   3.405   2.024
 1290SOL     OW 4756   1.638   3.587   3.256
 1290SOL    HW1 4757   1.681   3.593   3.171
 1290SOL    HW2 4758   1.620   3.677   3.281
 1291SOL     OW 4759   1.827   2.028   2.833
 1291SOL    HW1 4760   1.854   1.942   2.802
 1291SOL    HW2 4761   1.742   2.043   2.791
 1292SOL     OW 4762   0.273   2.179   2.579
 1292SOL    HW1 4763   0.188   2.217   2.559
 1292SOL    HW2 4764   0.273   2.168   2.674
 1293SOL     OW 4765   1.207   3.467   1.894
 1293SOL    HW1 4766   1.198   3.376   1.920
 1293SOL    HW2 4767   1.142   3.480   1.825
 1294SOL     OW 4768   0.824   2.868   3.235
 1294SOL    HW1 4769   0.868   2.863   3.150
 1294SOL    HW2 4770   0.823   2.961   3.256
 1295SOL     OW 4771   0.915   2.772   2.152
 1295SOL    HW1 4772   0.976   2.805   2.085
 1295SOL    HW2 4773   0.964   2.704   2.198
 1296SOL     OW 4774   1.491   3.487   1.905
 1296SOL    HW1 4775   1.397   3.481   1.891
 1296SOL    HW2 4776   1.528   3.494   1.817
 1297SOL     OW 4777   0.367   3.166   3.355
 1297SOL    HW1 4778   0.359   3.240   3.295
 1297SOL    HW2 4779   0.291   3.111   3.336
 1298SOL     OW 4780   1.611   3.144   3.143
 1298SOL    HW1 4781   1.666   3.129   3.219
 1298SOL    HW2 4782   1.549   3.212   3.171
 1299SOL     OW 4783   1.053   2.969   2.569
 1299SOL    HW1 4784   0.983   2.918   2.608
 1299SOL    HW2 4785   1.117   2.904   2.539
 1300SOL     OW 4786   1.022   2.103   2.828
 1300SOL    HW1 4787   1.017   2.055   2.745
 1300SOL    HW2 4788   1.016   2.035   2.895
 1301SOL     OW 4789   0.602   3.349   2.343
 1301SOL    HW1 4790   0.648   3.301   2.274
 1301SOL    HW2 4791   0.534   3.398   2.296
 1302SOL     OW 4792   1.714   2.264   3.228
 1302SOL    HW1 4793   1.791   2.320   3.230
 1302SOL    HW2 4794   1.743   2.185   3.182
 1303SOL     OW 4795   0.261   3.210   2.155
 1303SOL    HW1 4796   0.168   3.212   2.132
 1303SOL    HW2 4797   0.264   3.247   2.243
 1304SOL     OW 4798   0.117   2.878   3.579
 1304SOL    HW1 4799   0.046   2.843   3.634
 1304SOL    HW2 4800   0.197   2.847   3.621
 1305SOL     OW 4801   0.675   2.058   3.362
 1305SOL    HW1 4802   0.758   2.038   3.320
 1305SOL    HW2 4803   0.698   2.090   3.449
 1306SOL     OW 4804   0.084   2.210   1.903
 1306SOL    HW1 4805   0.004   2.163   1.880
 1306SOL    HW2 4806   0.099   2.269   1.829
 1307SOL     OW 4807   1.431   2.719   3.270
 1307SOL    HW1 4808   1.381   2.781   3.216
 1307SOL    HW2 4809   1.520   2.724   3.235
 1308SOL     OW 4810   0.056   1.995   2.106
 1308SOL    HW1 4811   0.055   2.090   2.094
 1308SOL    HW2 4812   0.145   1.969   2.082
 1309SOL     OW 4813   1.179   3.201   1.979
 1309SOL    HW1 4814   1.088   3.170   1.982
 1309SOL    HW2 4815   1.207   3.201   2.071
 1310SOL     OW 4816   0.620   2.693   3.298
 1310SOL    HW1 4817   0.676   2.768   3.282
 1310SOL    HW2 4818   0.680   2.619   3.305
 1311SOL     OW 4819   1.486   3.641   2.845
 1311SOL    HW1 4820   1.509   3.699   2.772
 1311SOL    HW2 4821   1.570   3.622   2.887
 1312SOL     OW 4822   0.717   2.425   3.566
 1312SOL    HW1 4823   0.759   2.487   3.625
 1312SOL    HW2 4824   0.743   2.339   3.598
 1313SOL     OW 4825   1.468   3.064   3.495
 1313SOL    HW1 4826   1.461   3.080   3.589
 1313SOL    HW2 4827   1.559   3.083   3.474
 1314SOL     OW 4828   0.377   3.605   3.427
 1314SOL    HW1 4829   0.294   3.651   3.410
 1314SOL    HW2 4830   0.351   3.525   3.471
 1315SOL     OW 4831   1.660   2.737   3.125
 1315SOL    HW1 4832   1.653   2.653   3.080
 1315SOL    HW2 4833   1.655   2.802   3.055
 1316SOL     OW 4834   1.216   2.181   2.320
 1316SOL    HW1 4835   1.280   2.109   2.312
 1316SOL    HW2 4836   1.245   2.230   2.396
 1317SOL     OW 4837   0.589   2.599   2.532
 1317SOL    HW1 4838   0.629   2.685   2.517
 1317SOL    HW2 4839   0.521   2.592   2.465
 1318SOL     OW 4840   1.719   2.131   3.472
 1318SOL    HW1 4841   1.716   2.201   3.408
 1318SOL    HW2 4842   1.643   2.146   3.528
 1319SOL     OW 4843   0.862   3.229   1.897
 1319SOL    HW1 4844   0.825   3.258   1.980
 1319SOL    HW2 4845   0.881   3.309   1.850
 1320SOL     OW 4846   0.664   3.655   2.804
 1320SOL    HW1 4847   0.643   3.745   2.782
 1320SOL    HW2 4848   0.759   3.650   2.798
 1321SOL     OW 4849   0.868   2.829   2.716
 1321SOL    HW1 4850   0.918   2.758   2.755
 1321SOL    HW2 4851   0.833   2.878   2.790
 1322SOL     OW 4852   1.077   2.849   1.950
 1322SOL    HW1 4853   1.057   2.901   1.872
 1322SOL    HW2 4854   1.153   2.796   1.925
 1323SOL     OW 4855   1.853   3.417   2.705
 1323SOL    HW1 4856   1.772   3.402   2.656
 1323SOL    HW2 4857   1.853   3.349   2.772
 1324SOL     OW 4858   0.226   3.166   3.722
 1324SOL    HW1 4859   0.158   3.104   3.696
 1324SOL    HW2 4860   0.214   3.176   3.817
 1325SOL     OW 4861   0.088   3.081   2.517
 1325SOL    HW1 4862   0.103   3.049   2.606
 1325SOL    HW2 4863   0.175   3.079   2.476
 1326SOL     OW 4864   0.682   3.265   3.491
 1326SOL    HW1 4865   0.601   3.223   3.521
 1326SOL    HW2 4866   0.678   3.354   3.527
 1327SOL     OW 4867   1.819   2.050   3.102
 1327SOL    HW1 4868   1.828   1.957   3.125
 1327SOL    HW2 4869   1.817   2.051   3.007
 1328SOL     OW 4870   0.435   2.298   2.386
 1328SOL    HW1 4871   0.463   2.225   2.330
 1328SOL    HW2 4872   0.388   2.256   2.458
 1329SOL     OW 4873   1.699   3.352   2.963
 1329SOL    HW1 4874   1.620   3.328   2.915
 1329SOL    HW2 4875   1.710   3.284   3.029
 1330SOL     OW 4876   0.337   2.422   3.154
 1330SOL    HW1 4877   0.391   2.363   3.207
 1330SOL    HW2 4878   0.351   2.392   3.064
 1331SOL     OW 4879   0.829   3.440   2.539
 1331SOL    HW1 4880   0.814   3.497   2.464
 1331SOL    HW2 4881   0.753   3.382   2.541
 1332SOL     OW 4882   1.432   2.088   2.981
 1332SOL    HW1 4883   1.452   2.005   3.026
 1332SOL    HW2 4884   1.380   2.137   3.044
 1333SOL     OW 4885   1.009   1.880   3.003
 1333SOL    HW1 4886   0.955   1.813   2.962
 1333SOL    HW2 4887   1.097   1.842   3.005
 1334SOL     OW 4888   0.772   3.195   2.179
 1334SOL    HW1 4889   0.743   3.104   2.185
 1334SOL    HW2 4890   0.854   3.197   2.228
 1335SOL     OW 4891   0.623   3.417   3.150
 1335SOL    HW1 4892   0.624   3.500   3.199
 1335SOL    HW2 4893   0.710   3.412   3.110
 1336SOL     OW 4894   1.353   1.916   2.028
 1336SOL    HW1 4895   1.382   1.850   1.964
 1336SOL    HW2 4896   1.265   1.887   2.054
 1337SOL     OW 4897   1.295   2.322   2.542
 1337SOL    HW1 4898   1.244   2.403   2.549
 1337SOL    HW2 4899   1.292   2.284   2.630
 1338SOL     OW 4900   1.579   2.064   2.737
 1338SOL    HW1 4901   1.520   2.086   2.810
 1338SOL    HW2 4902   1.580   2.142   2.682
 1339SOL     OW 4903   0.048   2.930   2.152
 1339SOL    HW1 4904   0.137   2.897   2.141
 1339SOL    HW2 4905   5.300   2.856   2.188
 1340SOL     OW 4906   0.886   3.515   2.203
 1340SOL    HW1 4907   0.813   3.500   2.143
 1340SOL    HW2 4908   0.859   3.590   2.256
 1341SOL     OW 4909   0.233   2.493   3.841
 1341SOL    HW1 4910   0.161   2.457   3.892
 1341SOL    HW2 4911   0.217   2.460   3.752
 1342SOL     OW 4912   0.243   2.137   4.713
 1342SOL    HW1 4913   0.256   2.103   4.801
 1342SOL    HW2 4914   0.158   2.102   4.686
 1343SOL     OW 4915   5.298   2.261   4.377
 1343SOL    HW1 4916   5.205   2.283   4.382
 1343SOL    HW2 4917   5.299   2.171   4.345
 1344SOL     OW 4918   0.575   3.148   4.908
 1344SOL    HW1 4919   0.492   3.156   4.860
 1344SOL    HW2 4920   0.591   3.236   4.942
 1345SOL     OW 4921   1.557   3.380   4.427
 1345SOL    HW1 4922   1.524   3.346   4.510
 1345SOL    HW2 4923   1.485   3.370   4.365
 1346SOL     OW 4924   1.127   2.560   4.425
 1346SOL    HW1 4925   1.173   2.642   4.409
 1346SOL    HW2 4926   1.081   2.573   4.508
 1347SOL     OW 4927   1.784   2.452   3.949
 1347SOL    HW1 4928   1.733   2.462   3.869
 1347SOL    HW2 4929   1.736   2.386   4.000
 1348SOL     OW 4930   0.754   3.002   4.764
 1348SOL    HW1 4931   0.688   3.037   4.824
 1348SOL    HW2 4932   0.790   3.079   4.721
 1349SOL     OW 4933   0.868   2.635   5.546
 1349SOL    HW1 4934   0.858   2.706   5.609
 1349SOL    HW2 4935   0.891   2.678   5.464
 1350SOL     OW 4936   0.685   2.863   4.371
 1350SOL    HW1 4937   0.751   2.852   4.439
 1350SOL    HW2 4938   0.617   2.917   4.412
 1351SOL     OW 4939   0.710   3.012   5.538
 1351SOL    HW1 4940   0.759   3.090   5.565
 1351SOL    HW2 4941   0.629   3.046   5.501
 1352SOL     OW 4942   0.358   3.266   4.784
 1352SOL    HW1 4943   0.270   3.267   4.748
 1352SOL    HW2 4944   0.407   3.328   4.729
 1353SOL     OW 4945   1.460   3.361   5.081
 1353SOL    HW1 4946   1.512   3.442   5.089
 1353SOL    HW2 4947   1.396   3.367   5.152
 1354SOL     OW 4948   0.451   2.262   5.215
 1354SOL    HW1 4949   0.525   2.202   5.217
 1354SOL    HW2 4950   0.374   2.206   5.225
 1355SOL     OW 4951   1.591   2.311   4.479
 1355SOL    HW1 4952   1.523   2.330   4.415
 1355SOL    HW2 4953   1.663   2.370   4.457
 1356SOL     OW 4954   0.232   3.576   4.201
 1356SOL    HW1 4955   0.264   3.646   4.259
 1356SOL    HW2 4956   0.295   3.573   4.129
 1357SOL     OW 4957   1.137   3.204   5.417
 1357SOL    HW1 4958   1.178   3.198   5.503
 1357SOL    HW2 4959   1.085   3.124   5.410
 1358SOL     OW 4960   0.222   3.307   4.264
 1358SOL    HW1 4961   0.217   3.402   4.258
 1358SOL    HW2 4962   0.151   3.283   4.324
 1359SOL     OW 4963   0.251   2.939   4.598
 1359SOL    HW1 4964   0.262   2.853   4.640
 1359SOL    HW2 4965   0.199   2.989   4.661
 1360SOL     OW 4966   0.613   3.652   5.157
 1360SOL    HW1 4967   0.528   3.635   5.199
 1360SOL    HW2 4968   0.633   3.743   5.179
 1361SOL     OW 4969   0.582   2.845   3.860
 1361SOL    HW1 4970   0.629   2.893   3.791
 1361SOL    HW2 4971   0.623   2.876   3.941
 1362SOL     OW 4972   1.585   1.978   5.197
 1362SOL    HW1 4973   1.610   2.058   5.151
 1362SOL    HW2 4974   1.574   2.005   5.288
 1363SOL     OW 4975   0.126   2.495   4.304
 1363SOL    HW1 4976   0.089   2.412   4.333
 1363SOL    HW2 4977   0.099   2.559   4.370
 1364SOL     OW 4978   1.842   3.622   4.062
 1364SOL    HW1 4979   1.906   3.592   4.127
 1364SOL    HW2 4980   1.868   3.713   4.043
 1365SOL     OW 4981   0.038   3.461   3.857
 1365SOL    HW1 4982   0.025   3.370   3.882
 1365SOL    HW2 4983   5.282   3.511   3.916
 1366SOL     OW 4984   1.639   2.974   4.160
 1366SOL    HW1 4985   1.724   2.968   4.117
 1366SOL    HW2 4986   1.658   3.018   4.243
 1367SOL     OW 4987   0.132   2.611   5.308
 1367SOL    HW1 4988   0.227   2.624   5.309
 1367SOL    HW2 4989   0.095   2.697   5.326
 1368SOL     OW 4990   0.616   3.248   4.458
 1368SOL    HW1 4991   0.568   3.166   4.469
 1368SOL    HW2 4992   0.598   3.275   4.368
 1369SOL     OW 4993   1.287   3.100   5.147
 1369SOL    HW1 4994   1.319   3.032   5.087
 1369SOL    HW2 4995   1.346   3.094   5.223
 1370SOL     OW 4996   0.824   1.862   4.235
 1370SOL    HW1 4997   0.864   1.946   4.214
 1370SOL    HW2 4998   0.730   1.880   4.240
 1371SOL     OW 4999   0.176   2.806   5.003
 1371SOL    HW1 5000   0.266   2.776   4.994
 1371SOL    HW2 5001   0.135   2.784   4.919
 1372SOL     OW 5002   1.498   2.872   3.946
 1372SOL    HW1 5003   1.434   2.811   3.984
 1372SOL    HW2 5004   1.549   2.903   4.021
 1373SOL     OW 5005   1.186   3.670   5.347
 1373SOL    HW1 5006   1.194   3.729   5.272
 1373SOL    HW2 5007   1.202   3.582   5.311
 1374SOL     OW 5008   0.338   2.115   5.543
 1374SOL    HW1 5009   0.385   2.198   5.557
 1374SOL    HW2 5010   0.250   2.132   5.577
 1375SOL     OW 5011   1.466   3.282   4.673
 1375SOL    HW1 5012   1.400   3.297   4.740
 1375SOL    HW2 5013   1.455   3.190   4.648
 1376SOL     OW 5014   1.665   3.600   4.305
 1376SOL    HW1 5015   1.642   3.573   4.217
 1376SOL    HW2 5016   1.638   3.527   4.361
 1377SOL     OW 5017   0.595   2.583   3.991
 1377SOL    HW1 5018   0.602   2.664   3.940
 1377SOL    HW2 5019   0.530   2.602   4.059
 1378SOL     OW 5020   1.278   2.220   4.657
 1378SOL    HW1 5021   1.190   2.186   4.666
 1378SOL    HW2 5022   1.331   2.166   4.715
 1379SOL     OW 5023   1.579   3.535   4.035
 1379SOL    HW1 5024   1.670   3.566   4.027
 1379SOL    HW2 5025   1.552   3.518   3.945
 1380SOL     OW 5026   0.791   2.480   5.175
 1380SOL    HW1 5027   0.765   2.455   5.263
 1380SOL    HW2 5028   0.752   2.412   5.119
 1381SOL     OW 5029   1.393   2.336   5.401
 1381SOL    HW1 5030   1.397   2.380   5.486
 1381SOL    HW2 5031   1.455   2.263   5.410
 1382SOL     OW 5032   0.954   2.749   5.307
 1382SOL    HW1 5033   1.008   2.679   5.271
 1382SOL    HW2 5034   0.906   2.783   5.232
 1383SOL     OW 5035   0.992   2.275   4.962
 1383SOL    HW1 5036   0.905   2.295   4.997
 1383SOL    HW2 5037   0.974   2.228   4.880
 1384SOL     OW 5038   1.051   2.560   4.150
 1384SOL    HW1 5039   1.066   2.553   4.244
 1384SOL    HW2 5040   0.969   2.514   4.135
 1385SOL     OW 5041   0.071   2.649   4.535
 1385SOL    HW1 5042   0.151   2.654   4.585
 1385SOL    HW2 5043   0.065   2.734   4.490
 1386SOL     OW 5044   0.129   3.747   5.309
 1386SOL    HW1 5045   0.133   3.719   5.400
 1386SOL    HW2 5046   0.060   3.693   5.270
 1387SOL     OW 5047   0.895   2.211   3.918
 1387SOL    HW1 5048   0.934   2.273   3.857
 1387SOL    HW2 5049   0.909   2.125   3.878
 1388SOL     OW 5050   1.704   2.436   5.554
 1388SOL    HW1 5051   1.670   2.510   5.504
 1388SOL    HW2 5052   1.735   2.374   5.489
 1389SOL     OW 5053   1.383   3.008   4.269
 1389SOL    HW1 5054   1.459   2.994   4.213
 1389SOL    HW2 5055   1.327   3.068   4.220
 1390SOL     OW 5056   0.556   2.045   4.618
 1390SOL    HW1 5057   0.553   2.073   4.709
 1390SOL    HW2 5058   0.551   2.126   4.567
 1391SOL     OW 5059   1.003   3.305   4.195
 1391SOL    HW1 5060   0.968   3.379   4.145
 1391SOL    HW2 5061   0.986   3.327   4.287
 1392SOL     OW 5062   0.357   3.665   4.594
 1392SOL    HW1 5063   0.397   3.579   4.607
 1392SOL    HW2 5064   0.423   3.728   4.625
 1393SOL     OW 5065   1.228   3.401   5.237
 1393SOL    HW1 5066   1.214   3.328   5.298
 1393SOL    HW2 5067   1.164   3.387   5.168
 1394SOL     OW 5068   0.315   2.814   3.972
 1394SOL    HW1 5069   0.397   2.838   3.928
 1394SOL    HW2 5070   0.293   2.728   3.936
 1395SOL     OW 5071   1.443   2.593   4.452
 1395SOL    HW1 5072   1.420   2.522   4.512
 1395SOL    HW2 5073   1.512   2.641   4.498
 1396SOL     OW 5074   0.466   3.127   5.462
 1396SOL    HW1 5075   0.439   3.133   5.370
 1396SOL    HW2 5076   0.383   3.127   5.511
 1397SOL     OW 5077   1.122   3.640   3.954
 1397SOL    HW1 5078   1.049   3.598   4.000
 1397SOL    HW2 5079   1.146   3.578   3.885
 1398SOL     OW 5080   0.205   2.141   5.221
 1398SOL    HW1 5081   0.127   2.193   5.205
 1398SOL    HW2 5082   0.173   2.061   5.263
 1399SOL     OW 5083   1.648   3.261   3.810
 1399SOL    HW1 5084   1.589   3.335   3.796
 1399SOL    HW2 5085   1.593   3.184   3.796
 1400SOL     OW 5086   0.471   3.597   4.043
 1400SOL    HW1 5087   0.514   3.654   4.106
 1400SOL    HW2 5088   0.542   3.565   3.987
 1401SOL     OW 5089   1.403   1.971   4.159
 1401SOL    HW1 5090   1.395   1.943   4.068
 1401SOL    HW2 5091   1.497   1.975   4.175
 1402SOL     OW 5092   0.277   3.663   4.935
 1402SOL    HW1 5093   0.306   3.584   4.981
 1402SOL    HW2 5094   0.224   3.630   4.862
 1403SOL     OW 5095   0.939   3.561   4.623
 1403SOL    HW1 5096   1.018   3.510   4.642
 1403SOL    HW2 5097   0.895   3.511   4.554
 1404SOL     OW 5098   0.386   2.558   4.203
 1404SOL    HW1 5099   0.415   2.467   4.212
 1404SOL    HW2 5100   0.293   2.555   4.223
 1405SOL     OW 5101   1.531   2.084   5.454
 1405SOL    HW1 5102   1.539   2.106   5.546
 1405SOL    HW2 5103   1.460   2.020   5.450
 1406SOL     OW 5104   0.636   1.984   3.828
 1406SOL    HW1 5105   0.704   1.918   3.841
 1406SOL    HW2 5106   0.586   1.953   3.753
 1407SOL     OW 5107   0.766   2.140   5.478
 1407SOL    HW1 5108   0.843   2.083   5.479
 1407SOL    HW2 5109   0.718   2.116   5.558
 1408SOL     OW 5110   0.877   3.384   4.918
 1408SOL    HW1 5111   0.861   3.348   4.831
 1408SOL    HW2 5112   0.947   3.329   4.953
 1409SOL     OW 5113   1.341   2.451   5.156
 1409SOL    HW1 5114   1.371   2.419   5.241
 1409SOL    HW2 5115   1.375   2.540   5.150
 1410SOL     OW 5116   0.816   3.255   4.665
 1410SOL    HW1 5117   0.900   3.244   4.621
 1410SOL    HW2 5118   0.752   3.258   4.594
 1411SOL     OW 5119   0.929   2.372   4.626
 1411SOL    HW1 5120   0.904   2.363   4.534
 1411SOL    HW2 5121   0.958   2.284   4.652
 1412SOL     OW 5122   0.561   1.923   4.219
 1412SOL    HW1 5123   0.486   1.923   4.279
 1412SOL    HW2 5124   0.550   2.002   4.166
 1413SOL     OW 5125   1.428   3.073   3.768
 1413SOL    HW1 5126   1.451   3.000   3.826
 1413SOL    HW2 5127   1.342   3.102   3.798
 1414SOL     OW 5128   0.305   1.909   3.903
 1414SOL    HW1 5129   0.367   1.973   3.867
 1414SOL    HW2 5130   0.360   1.845   3.948
 1415SOL     OW 5131   0.940   2.110   4.183
 1415SOL    HW1 5132   0.914   2.150   4.100
 1415SOL    HW2 5133   1.035   2.124   4.187
 1416SOL     OW 5134   1.080   2.543   5.183
 1416SOL    HW1 5135   1.011   2.476   5.188
 1416SOL    HW2 5136   1.161   2.493   5.177
 1417SOL     OW 5137   1.222   3.432   4.518
 1417SOL    HW1 5138   1.239   3.498   4.451
 1417SOL    HW2 5139   1.295   3.440   4.580
 1418SOL     OW 5140   0.468   3.013   4.454
 1418SOL    HW1 5141   0.399   2.992   4.517
 1418SOL    HW2 5142   0.428   2.995   4.369
 1419SOL     OW 5143   1.268   3.655   4.333
 1419SOL    HW1 5144   1.314   3.717   4.275
 1419SOL    HW2 5145   1.201   3.708   4.376
 1420SOL     OW 5146   1.023   2.403   3.748
 1420SOL    HW1 5147   0.980   2.486   3.726
 1420SOL    HW2 5148   1.087   2.426   3.815
 1421SOL     OW 5149   0.089   2.406   5.123
 1421SOL    HW1 5150   0.176   2.414   5.085
 1421SOL    HW2 5151   0.080   2.482   5.180
 1422SOL     OW 5152   0.560   2.090   4.891
 1422SOL    HW1 5153   0.598   2.011   4.929
 1422SOL    HW2 5154   0.468   2.088   4.919
 1423SOL     OW 5155   0.869   2.321   4.363
 1423SOL    HW1 5156   0.822   2.375   4.299
 1423SOL    HW2 5157   0.889   2.241   4.315
 1424SOL     OW 5158   1.015   1.916   4.475
 1424SOL    HW1 5159   0.957   1.907   4.399
 1424SOL    HW2 5160   0.994   1.840   4.530
 1425SOL     OW 5161   1.435   3.026   4.577
 1425SOL    HW1 5162   1.369   2.958   4.594
 1425SOL    HW2 5163   1.434   3.036   4.482
 1426SOL     OW 5164   1.454   2.459   4.721
 1426SOL    HW1 5165   1.402   2.382   4.700
 1426SOL    HW2 5166   1.529   2.426   4.770
 1427SOL     OW 5167   0.491   3.281   3.881
 1427SOL    HW1 5168   0.416   3.253   3.933
 1427SOL    HW2 5169   0.477   3.241   3.795
 1428SOL     OW 5170   1.401   2.427   3.804
 1428SOL    HW1 5171   1.330   2.419   3.868
 1428SOL    HW2 5172   1.463   2.358   3.829
 1429SOL     OW 5173   0.524   2.125   4.040
 1429SOL    HW1 5174   0.570   2.079   3.970
 1429SOL    HW2 5175   0.501   2.209   4.001
 1430SOL     OW 5176   1.766   3.090   5.301
 1430SOL    HW1 5177   1.829   3.042   5.356
 1430SOL    HW2 5178   1.783   3.182   5.320
 1431SOL     OW 5179   1.058   3.214   5.056
 1431SOL    HW1 5180   0.983   3.184   5.107
 1431SOL    HW2 5181   1.134   3.173   5.098
 1432SOL     OW 5182   1.609   3.487   5.379
 1432SOL    HW1 5183   1.603   3.521   5.290
 1432SOL    HW2 5184   1.691   3.437   5.380
 1433SOL     OW 5185   1.129   3.064   4.828
 1433SOL    HW1 5186   1.071   3.104   4.894
 1433SOL    HW2 5187   1.098   3.100   4.745
 1434SOL     OW 5188   1.617   2.951   4.812
 1434SOL    HW1 5189   1.618   3.025   4.873
 1434SOL    HW2 5190   1.566   2.982   4.737
 1435SOL     OW 5191   0.918   1.958   5.120
 1435SOL    HW1 5192   0.941   1.940   5.029
 1435SOL    HW2 5193   0.997   1.998   5.156
 1436SOL     OW 5194   0.984   2.977   5.447
 1436SOL    HW1 5195   0.892   2.993   5.468
 1436SOL    HW2 5196   0.983   2.899   5.391
 1437SOL     OW 5197   0.707   2.922   4.096
 1437SOL    HW1 5198   0.696   2.906   4.190
 1437SOL    HW2 5199   0.784   2.870   4.072
 1438SOL     OW 5200   0.421   2.682   4.977
 1438SOL    HW1 5201   0.490   2.689   5.043
 1438SOL    HW2 5202   0.386   2.593   4.987
 1439SOL     OW 5203   1.264   2.239   5.000
 1439SOL    HW1 5204   1.297   2.316   5.046
 1439SOL    HW2 5205   1.174   2.261   4.978
 1440SOL     OW 5206   0.102   3.485   5.090
 1440SOL    HW1 5207   0.081   3.493   4.997
 1440SOL    HW2 5208   0.188   3.444   5.092
 1441SOL     OW 5209   0.342   2.969   4.210
 1441SOL    HW1 5210   0.350   3.048   4.157
 1441SOL    HW2 5211   0.350   2.897   4.148
 1442SOL     OW 5212   0.554   2.397   4.583
 1442SOL    HW1 5213   0.569   2.456   4.509
 1442SOL    HW2 5214   0.618   2.424   4.648
 1443SOL     OW 5215   1.246   3.207   4.115
 1443SOL    HW1 5216   1.302   3.281   4.142
 1443SOL    HW2 5217   1.159   3.230   4.148
 1444SOL     OW 5218   1.283   3.320   4.872
 1444SOL    HW1 5219   1.340   3.323   4.949
 1444SOL    HW2 5220   1.227   3.244   4.886
 1445SOL     OW 5221   1.583   2.485   4.209
 1445SOL    HW1 5222   1.516   2.534   4.256
 1445SOL    HW2 5223   1.621   2.547   4.148
 1446SOL     OW 5224   0.352   3.382   5.034
 1446SOL    HW1 5225   0.341   3.338   4.949
 1446SOL    HW2 5226   0.446   3.399   5.040
 1447SOL     OW 5227   0.414   2.604   5.326
 1447SOL    HW1 5228   0.476   2.650   5.269
 1447SOL    HW2 5229   0.454   2.518   5.339
 1448SOL     OW 5230   1.602   2.641   5.405
 1448SOL    HW1 5231   1.516   2.683   5.400
 1448SOL    HW2 5232   1.654   2.684   5.338
 1449SOL     OW 5233   0.996   1.987   5.479
 1449SOL    HW1 5234   1.052   2.060   5.452
 1449SOL    HW2 5235   1.044   1.908   5.453
 1450SOL     OW 5236   0.497   1.903   5.472
 1450SOL    HW1 5237   0.454   1.849   5.406
 1450SOL    HW2 5238   0.438   1.977   5.485
 1451SOL     OW 5239   0.585   2.736   4.756
 1451SOL    HW1 5240   0.617   2.826   4.756
 1451SOL    HW2 5241   0.529   2.730   4.834
 1452SOL     OW 5242   1.358   2.720   4.745
 1452SOL    HW1 5243   1.268   2.709   4.713
 1452SOL    HW2 5244   1.393   2.631   4.747
 1453SOL     OW 5245   1.202   2.391   3.989
 1453SOL    HW1 5246   1.210   2.312   4.042
 1453SOL    HW2 5247   1.160   2.455   4.046
 1454SOL     OW 5248   0.301   2.065   4.972
 1454SOL    HW1 5249   0.267   2.089   5.058
 1454SOL    HW2 5250   0.289   1.970   4.967
 1455SOL     OW 5251   0.067   3.179   5.004
 1455SOL    HW1 5252   0.091   3.121   5.075
 1455SOL    HW2 5253   5.296   3.233   5.040
 1456SOL     OW 5254   0.723   2.493   4.781
 1456SOL    HW1 5255   0.799   2.478   4.724
 1456SOL    HW2 5256   0.695   2.582   4.760
 1457SOL     OW 5257   1.728   2.824   5.575
 1457SOL    HW1 5258   1.687   2.756   5.523
 1457SOL    HW2 5259   1.671   2.835   5.651
 1458SOL     OW 5260   0.328   1.924   4.358
 1458SOL    HW1 5261   0.307   2.013   4.385
 1458SOL    HW2 5262   0.333   1.875   4.440
 1459SOL     OW 5263   1.631   2.240   4.094
 1459SOL    HW1 5264   1.645   2.169   4.156
 1459SOL    HW2 5265   1.603   2.314   4.149
 1460SOL     OW 5266   1.029   2.620   4.685
 1460SOL    HW1 5267   1.023   2.638   4.779
 1460SOL    HW2 5268   1.002   2.529   4.676
 1461SOL     OW 5269   0.982   3.428   5.442
 1461SOL    HW1 5270   0.967   3.472   5.358
 1461SOL    HW2 5271   1.026   3.346   5.418
 1462SOL     OW 5272   1.855   3.363   5.328
 1462SOL    HW1 5273   1.873   3.393   5.239
 1462SOL    HW2 5274   1.934   3.383   5.377
 1463SOL     OW 5275   0.354   2.780   5.530
 1463SOL    HW1 5276   0.435   2.799   5.578
 1463SOL    HW2 5277   0.380   2.715   5.465
 1464SOL     OW 5278   1.519   2.145   3.865
 1464SOL    HW1 5279   1.462   2.072   3.888
 1464SOL    HW2 5280   1.561   2.171   3.947
 1465SOL     OW 5281   1.293   2.685   3.756
 1465SOL    HW1 5282   1.339   2.601   3.760
 1465SOL    HW2 5283   1.326   2.727   3.677
 1466SOL     OW 5284   1.067   3.198   4.579
 1466SOL    HW1 5285   1.070   3.127   4.515
 1466SOL    HW2 5286   1.126   3.264   4.544
 1467SOL     OW 5287   0.313   2.671   4.674
 1467SOL    HW1 5288   0.407   2.690   4.670
 1467SOL    HW2 5289   0.308   2.581   4.705
 1468SOL     OW 5290   0.335   2.388   4.739
 1468SOL    HW1 5291   0.300   2.300   4.725
 1468SOL    HW2 5292   0.410   2.394   4.680
 1469SOL     OW 5293   1.134   2.237   5.407
 1469SOL    HW1 5294   1.086   2.292   5.469
 1469SOL    HW2 5295   1.222   2.275   5.403
 1470SOL     OW 5296   1.160   2.064   5.195
 1470SOL    HW1 5297   1.150   2.127   5.266
 1470SOL    HW2 5298   1.202   2.114   5.124
 1471SOL     OW 5299   0.002   3.191   3.934
 1471SOL    HW1 5300   5.230   3.178   3.873
 1471SOL    HW2 5301   0.013   3.105   3.977
 1472SOL     OW 5302   0.094   3.643   4.676
 1472SOL    HW1 5303   0.060   3.574   4.619
 1472SOL    HW2 5304   0.181   3.662   4.641
 1473SOL     OW 5305   0.505   3.436   4.632
 1473SOL    HW1 5306   0.572   3.501   4.652
 1473SOL    HW2 5307   0.548   3.375   4.572
 1474SOL     OW 5308   0.981   2.653   4.950
 1474SOL    HW1 5309   1.038   2.631   5.024
 1474SOL    HW2 5310   0.896   2.616   4.974
 1475SOL     OW 5311   0.032   2.426   4.841
 1475SOL    HW1 5312   0.118   2.400   4.807
 1475SOL    HW2 5313   0.037   2.406   4.934
 1476SOL     OW 5314   0.174   2.375   5.436
 1476SOL    HW1 5315   0.238   2.337   5.376
 1476SOL    HW2 5316   0.147   2.457   5.393
 1477SOL     OW 5317   1.377   2.800   5.382
 1477SOL    HW1 5318   1.398   2.893   5.380
 1477SOL    HW2 5319   1.374   2.774   5.290
 1478SOL     OW 5320   0.817   2.432   4.085
 1478SOL    HW1 5321   0.821   2.357   4.025
 1478SOL    HW2 5322   0.743   2.483   4.053
 1479SOL     OW 5323   0.256   3.417   5.458
 1479SOL    HW1 5324   0.234   3.481   5.527
 1479SOL    HW2 5325   0.250   3.332   5.501
 1480SOL     OW 5326   0.704   2.311   4.983
 1480SOL    HW1 5327   0.650   2.237   4.954
 1480SOL    HW2 5328   0.698   2.374   4.911
 1481SOL     OW 5329   0.927   3.541   5.192
 1481SOL    HW1 5330   0.901   3.505   5.107
 1481SOL    HW2 5331   0.921   3.636   5.181
 1482SOL     OW 5332   0.464   2.355   3.909
 1482SOL    HW1 5333   0.525   2.426   3.931
 1482SOL    HW2 5334   0.380   2.399   3.895
 1483SOL     OW 5335   0.148   2.999   5.195
 1483SOL    HW1 5336   0.145   2.951   5.278
 1483SOL    HW2 5337   0.159   2.931   5.128
 1484SOL     OW 5338   1.322   2.906   4.948
 1484SOL    HW1 5339   1.355   2.850   4.878
 1484SOL    HW2 5340   1.253   2.958   4.908
 1485SOL     OW 5341   1.303   2.706   4.037
 1485SOL    HW1 5342   1.223   2.679   4.081
 1485SOL    HW2 5343   1.284   2.698   3.944
 1486SOL     OW 5344   1.778   3.608   4.880
 1486SOL    HW1 5345   1.834   3.631   4.806
 1486SOL    HW2 5346   1.747   3.519   4.859
 1487SOL     OW 5347   1.240   3.595   4.838
 1487SOL    HW1 5348   1.321   3.618   4.792
 1487SOL    HW2 5349   1.247   3.501   4.854
 1488SOL     OW 5350   0.082   3.077   4.751
 1488SOL    HW1 5351   0.070   3.103   4.842
 1488SOL    HW2 5352   5.294   3.066   4.717
 1489SOL     OW 5353   0.678   3.529   5.455
 1489SOL    HW1 5354   0.621   3.606   5.448
 1489SOL    HW2 5355   0.743   3.541   5.386
 1490SOL     OW 5356   1.689   1.997   4.220
 1490SOL    HW1 5357   1.767   1.988   4.165
 1490SOL    HW2 5358   1.686   1.917   4.271
 1491SOL     OW 5359   1.384   3.429   4.203
 1491SOL    HW1 5360   1.449   3.462   4.141
 1491SOL    HW2 5361   1.340   3.507   4.237
 1492SOL     OW 5362   0.146   3.660   5.566
 1492SOL    HW1 5363   0.091   3.597   5.613
 1492SOL    HW2 5364   0.193   3.707   5.635
 1493SOL     OW 5365   1.267   2.792   4.389
 1493SOL    HW1 5366   1.337   2.727   4.399
 1493SOL    HW2 5367   1.308   2.864   4.340
 1494SOL     OW 5368   0.813   3.135   5.153
 1494SOL    HW1 5369   0.784   3.175   5.235
 1494SOL    HW2 5370   0.743   3.157   5.091
 1495SOL     OW 5371   0.672   3.482   3.879
 1495SOL    HW1 5372   0.683   3.496   3.784
 1495SOL    HW2 5373   0.617   3.405   3.886
 1496SOL     OW 5374   1.625   3.589   5.117
 1496SOL    HW1 5375   1.675   3.595   5.036
 1496SOL    HW2 5376   1.611   3.680   5.144
 1497SOL     OW 5377   1.836   2.037   4.692
 1497SOL    HW1 5378   1.874   1.953   4.665
 1497SOL    HW2 5379   1.752   2.041   4.647
 1498SOL     OW 5380   0.273   2.179   4.441
 1498SOL    HW1 5381   0.188   2.217   4.421
 1498SOL    HW2 5382   0.273   2.168   4.536
 1499SOL     OW 5383   1.207   3.467   3.756
 1499SOL    HW1 5384   1.197   3.376   3.782
 1499SOL    HW2 5385   1.142   3.479   3.687
 1500SOL     OW 5386   0.824   2.868   5.097
 1500SOL    HW1 5387   0.868   2.863   5.012
 1500SOL    HW2 5388   0.823   2.961   5.118
 1501SOL     OW 5389   0.915   2.773   4.014
 1501SOL    HW1 5390   0.976   2.805   3.947
 1501SOL    HW2 5391   0.963   2.704   4.059
 1502SOL     OW 5392   1.489   3.491   3.768
 1502SOL    HW1 5393   1.395   3.482   3.754
 1502SOL    HW2 5394   1.526   3.496   3.680
 1503SOL     OW 5395   0.367   3.166   5.217
 1503SOL    HW1 5396   0.359   3.240   5.157
 1503SOL    HW2 5397   0.292   3.111   5.198
 1504SOL     OW 5398   1.613   3.147   5.004
 1504SOL    HW1 5399   1.671   3.134   5.079
 1504SOL    HW2 5400   1.553   3.216   5.031
 1505SOL     OW 5401   1.052   2.971   4.430
 1505SOL    HW1 5402   0.981   2.920   4.470
 1505SOL    HW2 5403   1.116   2.905   4.402
 1506SOL     OW 5404   1.022   2.103   4.690
 1506SOL    HW1 5405   1.017   2.055   4.607
 1506SOL    HW2 5406   1.017   2.035   4.757
 1507SOL     OW 5407   0.602   3.349   4.205
 1507SOL    HW1 5408   0.648   3.301   4.136
 1507SOL    HW2 5409   0.534   3.398   4.158
 1508SOL     OW 5410   1.704   2.218   5.126
 1508SOL    HW1 5411   1.720   2.306   5.093
 1508SOL    HW2 5412   1.743   2.160   5.061
 1509SOL     OW 5413   0.261   3.210   4.017
 1509SOL    HW1 5414   0.168   3.212   3.994
 1509SOL    HW2 5415   0.265   3.247   4.105
 1510SOL     OW 5416   0.117   2.878   5.441
 1510SOL    HW1 5417   0.046   2.843   5.496
 1510SOL    HW2 5418   0.197   2.848   5.483
 1511SOL     OW 5419   0.675   2.058   5.223
 1511SOL    HW1 5420   0.759   2.038   5.182
 1511SOL    HW2 5421   0.698   2.090   5.311
 1512SOL     OW 5422   0.083   2.210   3.765
 1512SOL    HW1 5423   0.004   2.162   3.741
 1512SOL    HW2 5424   0.099   2.269   3.691
 1513SOL     OW 5425   1.428   2.720   5.124
 1513SOL    HW1 5426   1.378   2.780   5.069
 1513SOL    HW2 5427   1.518   2.726   5.090
 1514SOL     OW 5428   0.057   1.995   3.968
 1514SOL    HW1 5429   0.055   2.090   3.956
 1514SOL    HW2 5430   0.145   1.969   3.944
 1515SOL     OW 5431   1.180   3.200   3.842
 1515SOL    HW1 5432   1.089   3.171   3.843
 1515SOL    HW2 5433   1.206   3.200   3.934
 1516SOL     OW 5434   0.620   2.693   5.160
 1516SOL    HW1 5435   0.676   2.768   5.144
 1516SOL    HW2 5436   0.680   2.619   5.167
 1517SOL     OW 5437   1.480   3.644   4.708
 1517SOL    HW1 5438   1.505   3.697   4.632
 1517SOL    HW2 5439   1.563   3.615   4.745
 1518SOL     OW 5440   0.717   2.426   5.428
 1518SOL    HW1 5441   0.760   2.488   5.487
 1518SOL    HW2 5442   0.743   2.339   5.460
 1519SOL     OW 5443   1.472   3.061   5.355
 1519SOL    HW1 5444   1.459   3.075   5.449
 1519SOL    HW2 5445   1.566   3.076   5.342
 1520SOL     OW 5446   0.377   3.605   5.289
 1520SOL    HW1 5447   0.294   3.651   5.272
 1520SOL    HW2 5448   0.351   3.524   5.333
 1521SOL     OW 5449   1.664   2.744   4.977
 1521SOL    HW1 5450   1.669   2.672   4.915
 1521SOL    HW2 5451   1.655   2.822   4.923
 1522SOL     OW 5452   1.217   2.181   4.180
 1522SOL    HW1 5453   1.280   2.109   4.173
 1522SOL    HW2 5454   1.245   2.230   4.257
 1523SOL     OW 5455   0.590   2.598   4.393
 1523SOL    HW1 5456   0.629   2.685   4.379
 1523SOL    HW2 5457   0.521   2.591   4.328
 1524SOL     OW 5458   1.760   2.218   5.389
 1524SOL    HW1 5459   1.745   2.226   5.295
 1524SOL    HW2 5460   1.688   2.163   5.420
 1525SOL     OW 5461   1.746   2.796   5.234
 1525SOL    HW1 5462   1.747   2.891   5.245
 1525SOL    HW2 5463   1.731   2.783   5.140
 1526SOL     OW 5464   0.863   3.229   3.760
 1526SOL    HW1 5465   0.824   3.258   3.842
 1526SOL    HW2 5466   0.881   3.309   3.711
 1527SOL     OW 5467   0.664   3.655   4.666
 1527SOL    HW1 5468   0.643   3.745   4.644
 1527SOL    HW2 5469   0.759   3.650   4.660
 1528SOL     OW 5470   0.868   2.829   4.578
 1528SOL    HW1 5471   0.918   2.758   4.618
 1528SOL    HW2 5472   0.832   2.878   4.652
 1529SOL     OW 5473   1.079   2.848   3.813
 1529SOL    HW1 5474   1.057   2.900   3.736
 1529SOL    HW2 5475   1.155   2.796   3.786
 1530SOL     OW 5476   0.226   3.166   5.584
 1530SOL    HW1 5477   0.158   3.103   5.559
 1530SOL    HW2 5478   0.214   3.176   5.679
 1531SOL     OW 5479   0.088   3.081   4.379
 1531SOL    HW1 5480   0.102   3.049   4.468
 1531SOL    HW2 5481   0.175   3.079   4.338
 1532SOL     OW 5482   0.682   3.265   5.353
 1532SOL    HW1 5483   0.601   3.223   5.383
 1532SOL    HW2 5484   0.677   3.354   5.389
 1533SOL     OW 5485   1.816   2.046   4.960
 1533SOL    HW1 5486   1.843   1.955   4.973
 1533SOL    HW2 5487   1.828   2.062   4.866
 1534SOL     OW 5488   0.435   2.298   4.248
 1534SOL    HW1 5489   0.463   2.225   4.192
 1534SOL    HW2 5490   0.388   2.256   4.320
 1535SOL     OW 5491   1.694   3.361   4.824
 1535SOL    HW1 5492   1.621   3.333   4.769
 1535SOL    HW2 5493   1.714   3.284   4.877
 1536SOL     OW 5494   0.338   2.422   5.016
 1536SOL    HW1 5495   0.391   2.363   5.069
 1536SOL    HW2 5496   0.351   2.392   4.926
 1537SOL     OW 5497   0.829   3.439   4.401
 1537SOL    HW1 5498   0.815   3.497   4.326
 1537SOL    HW2 5499   0.753   3.382   4.403
 1538SOL     OW 5500   1.433   2.090   4.841
 1538SOL    HW1 5501   1.463   2.012   4.888
 1538SOL    HW2 5502   1.379   2.137   4.905
 1539SOL     OW 5503   1.009   1.880   4.865
 1539SOL    HW1 5504   0.955   1.813   4.824
 1539SOL    HW2 5505   1.097   1.843   4.867
 1540SOL     OW 5506   0.772   3.195   4.041
 1540SOL    HW1 5507   0.743   3.104   4.047
 1540SOL    HW2 5508   0.854   3.197   4.090
 1541SOL     OW 5509   0.623   3.417   5.012
 1541SOL    HW1 5510   0.624   3.500   5.061
 1541SOL    HW2 5511   0.710   3.412   4.972
 1542SOL     OW 5512   1.355   1.915   3.891
 1542SOL    HW1 5513   1.383   1.851   3.826
 1542SOL    HW2 5514   1.267   1.888   3.916
 1543SOL     OW 5515   1.292   2.325   4.403
 1543SOL    HW1 5516   1.233   2.400   4.411
 1543SOL    HW2 5517   1.289   2.283   4.490
 1544SOL     OW 5518   1.580   2.057   4.600
 1544SOL    HW1 5519   1.526   2.078   4.676
 1544SOL    HW2 5520   1.582   2.139   4.549
 1545SOL     OW 5521   0.048   2.930   4.014
 1545SOL    HW1 5522   0.137   2.897   4.003
 1545SOL    HW2 5523   5.300   2.856   4.050
 1546SOL     OW 5524   0.886   3.515   4.065
 1546SOL    HW1 5525   0.813   3.500   4.005
 1546SOL    HW2 5526   0.859   3.590   4.118
 1547SOL     OW 5527   0.233   2.493   5.703
 1547SOL    HW1 5528   0.161   2.457   5.755
 1547SOL    HW2 5529   0.217   2.460   5.614
 1548SOL     OW 5530   0.243   2.137   6.575
 1548SOL    HW1 5531   0.256   2.103   6.663
 1548SOL    HW2 5532   0.158   2.102   6.548
 1549SOL     OW 5533   5.298   2.261   6.239
 1549SOL    HW1 5534   5.205   2.283   6.244
 1549SOL    HW2 5535   5.299   2.171   6.207
 1550SOL     OW 5536   0.575   3.148   6.770
 1550SOL    HW1 5537   0.493   3.156   6.722
 1550SOL    HW2 5538   0.591   3.236   6.804
 1551SOL     OW 5539   1.563   3.374   6.293
 1551SOL    HW1 5540   1.520   3.353   6.376
 1551SOL    HW2 5541   1.491   3.378   6.230
 1552SOL     OW 5542   1.130   2.560   6.286
 1552SOL    HW1 5543   1.179   2.641   6.272
 1552SOL    HW2 5544   1.084   2.574   6.368
 1553SOL     OW 5545   1.764   2.467   5.816
 1553SOL    HW1 5546   1.744   2.461   5.722
 1553SOL    HW2 5547   1.730   2.385   5.853
 1554SOL     OW 5548   0.754   3.002   6.626
 1554SOL    HW1 5549   0.688   3.037   6.686
 1554SOL    HW2 5550   0.790   3.079   6.583
 1555SOL     OW 5551   0.867   2.636   7.406
 1555SOL    HW1 5552   0.856   2.711   7.465
 1555SOL    HW2 5553   0.892   2.675   7.322
 1556SOL     OW 5554   0.685   2.863   6.233
 1556SOL    HW1 5555   0.751   2.852   6.301
 1556SOL    HW2 5556   0.617   2.917   6.274
 1557SOL     OW 5557   0.710   3.013   7.400
 1557SOL    HW1 5558   0.759   3.091   7.427
 1557SOL    HW2 5559   0.629   3.047   7.362
 1558SOL     OW 5560   0.358   3.266   6.646
 1558SOL    HW1 5561   0.270   3.266   6.610
 1558SOL    HW2 5562   0.407   3.328   6.591
 1559SOL     OW 5563   1.460   3.362   6.942
 1559SOL    HW1 5564   1.512   3.442   6.951
 1559SOL    HW2 5565   1.397   3.366   7.013
 1560SOL     OW 5566   0.451   2.262   7.078
 1560SOL    HW1 5567   0.525   2.202   7.080
 1560SOL    HW2 5568   0.374   2.206   7.088
 1561SOL     OW 5569   1.611   2.309   6.327
 1561SOL    HW1 5570   1.538   2.331   6.269
 1561SOL    HW2 5571   1.624   2.388   6.380
 1562SOL     OW 5572   0.232   3.576   6.063
 1562SOL    HW1 5573   0.264   3.646   6.121
 1562SOL    HW2 5574   0.295   3.573   5.991
 1563SOL     OW 5575   1.136   3.203   7.276
 1563SOL    HW1 5576   1.177   3.200   7.363
 1563SOL    HW2 5577   1.085   3.123   7.271
 1564SOL     OW 5578   0.222   3.307   6.126
 1564SOL    HW1 5579   0.216   3.403   6.120
 1564SOL    HW2 5580   0.152   3.282   6.186
 1565SOL     OW 5581   0.251   2.939   6.460
 1565SOL    HW1 5582   0.262   2.853   6.502
 1565SOL    HW2 5583   0.199   2.989   6.523
 1566SOL     OW 5584   0.612   3.652   7.017
 1566SOL    HW1 5585   0.528   3.635   7.061
 1566SOL    HW2 5586   0.633   3.743   7.041
 1567SOL     OW 5587   0.582   2.846   5.722
 1567SOL    HW1 5588   0.629   2.893   5.653
 1567SOL    HW2 5589   0.623   2.876   5.803
 1568SOL     OW 5590   1.596   1.986   7.053
 1568SOL    HW1 5591   1.606   2.067   7.004
 1568SOL    HW2 5592   1.581   2.015   7.143
 1569SOL     OW 5593   0.126   2.496   6.166
 1569SOL    HW1 5594   0.089   2.412   6.195
 1569SOL    HW2 5595   0.099   2.559   6.232
 1570SOL     OW 5596   1.842   3.620   5.920
 1570SOL    HW1 5597   1.908   3.592   5.984
 1570SOL    HW2 5598   1.865   3.711   5.901
 1571SOL     OW 5599   0.038   3.461   5.719
 1571SOL    HW1 5600   0.025   3.370   5.744
 1571SOL    HW2 5601   5.282   3.511   5.778
 1572SOL     OW 5602   1.689   2.781   6.227
 1572SOL    HW1 5603   1.770   2.736   6.204
 1572SOL    HW2 5604   1.666   2.831   6.150
 1573SOL     OW 5605   1.647   2.968   6.015
 1573SOL    HW1 5606   1.733   2.972   5.974
 1573SOL    HW2 5607   1.652   3.030   6.088
 1574SOL     OW 5608   0.132   2.609   7.172
 1574SOL    HW1 5609   0.227   2.623   7.171
 1574SOL    HW2 5610   0.095   2.696   7.189
 1575SOL     OW 5611   0.616   3.248   6.320
 1575SOL    HW1 5612   0.568   3.166   6.331
 1575SOL    HW2 5613   0.598   3.275   6.230
 1576SOL     OW 5614   1.288   3.100   7.009
 1576SOL    HW1 5615   1.320   3.032   6.949
 1576SOL    HW2 5616   1.346   3.094   7.085
 1577SOL     OW 5617   0.824   1.862   6.097
 1577SOL    HW1 5618   0.864   1.946   6.076
 1577SOL    HW2 5619   0.730   1.881   6.102
 1578SOL     OW 5620   0.175   2.806   6.865
 1578SOL    HW1 5621   0.266   2.776   6.856
 1578SOL    HW2 5622   0.135   2.784   6.781
 1579SOL     OW 5623   1.530   2.856   5.785
 1579SOL    HW1 5624   1.461   2.799   5.818
 1579SOL    HW2 5625   1.573   2.890   5.864
 1580SOL     OW 5626   1.185   3.670   7.208
 1580SOL    HW1 5627   1.194   3.728   7.134
 1580SOL    HW2 5628   1.202   3.582   7.173
 1581SOL     OW 5629   0.339   2.115   7.404
 1581SOL    HW1 5630   0.385   2.197   7.418
 1581SOL    HW2 5631   0.251   2.130   7.438
 1582SOL     OW 5632   1.467   3.281   6.537
 1582SOL    HW1 5633   1.399   3.297   6.602
 1582SOL    HW2 5634   1.454   3.190   6.510
 1583SOL     OW 5635   1.657   3.604   6.164
 1583SOL    HW1 5636   1.638   3.573   6.075
 1583SOL    HW2 5637   1.634   3.530   6.220
 1584SOL     OW 5638   0.595   2.582   5.853
 1584SOL    HW1 5639   0.602   2.664   5.802
 1584SOL    HW2 5640   0.531   2.602   5.921
 1585SOL     OW 5641   1.279   2.217   6.519
 1585SOL    HW1 5642   1.190   2.184   6.527
 1585SOL    HW2 5643   1.330   2.163   6.580
 1586SOL     OW 5644   1.580   3.533   5.895
 1586SOL    HW1 5645   1.671   3.563   5.888
 1586SOL    HW2 5646   1.553   3.516   5.805
 1587SOL     OW 5647   0.791   2.480   7.037
 1587SOL    HW1 5648   0.765   2.455   7.126
 1587SOL    HW2 5649   0.752   2.412   6.981
 1588SOL     OW 5650   1.394   2.336   7.263
 1588SOL    HW1 5651   1.396   2.380   7.348
 1588SOL    HW2 5652   1.453   2.262   7.274
 1589SOL     OW 5653   0.954   2.749   7.169
 1589SOL    HW1 5654   1.008   2.679   7.132
 1589SOL    HW2 5655   0.906   2.784   7.093
 1590SOL     OW 5656   0.992   2.274   6.824
 1590SOL    HW1 5657   0.906   2.295   6.860
 1590SOL    HW2 5658   0.974   2.229   6.742
 1591SOL     OW 5659   1.051   2.560   6.012
 1591SOL    HW1 5660   1.068   2.554   6.106
 1591SOL    HW2 5661   0.969   2.514   5.998
 1592SOL     OW 5662   0.070   2.649   6.397
 1592SOL    HW1 5663   0.151   2.654   6.448
 1592SOL    HW2 5664   0.066   2.734   6.351
 1593SOL     OW 5665   0.128   3.748   7.171
 1593SOL    HW1 5666   0.131   3.720   7.262
 1593SOL    HW2 5667   0.060   3.692   7.131
 1594SOL     OW 5668   0.895   2.211   5.780
 1594SOL    HW1 5669   0.934   2.274   5.720
 1594SOL    HW2 5670   0.910   2.126   5.740
 1595SOL     OW 5671   1.709   2.436   7.415
 1595SOL    HW1 5672   1.671   2.510   7.368
 1595SOL    HW2 5673   1.734   2.374   7.346
 1596SOL     OW 5674   1.377   3.004   6.127
 1596SOL    HW1 5675   1.457   2.992   6.074
 1596SOL    HW2 5676   1.325   3.066   6.076
 1597SOL     OW 5677   0.556   2.045   6.480
 1597SOL    HW1 5678   0.553   2.073   6.571
 1597SOL    HW2 5679   0.552   2.126   6.429
 1598SOL     OW 5680   1.004   3.305   6.057
 1598SOL    HW1 5681   0.969   3.379   6.008
 1598SOL    HW2 5682   0.986   3.327   6.149
 1599SOL     OW 5683   0.357   3.665   6.456
 1599SOL    HW1 5684   0.397   3.579   6.469
 1599SOL    HW2 5685   0.423   3.728   6.487
 1600SOL     OW 5686   1.798   2.918   6.455
 1600SOL    HW1 5687   1.744   2.900   6.378
 1600SOL    HW2 5688   1.735   2.924   6.527
 1601SOL     OW 5689   1.228   3.401   7.099
 1601SOL    HW1 5690   1.214   3.328   7.159
 1601SOL    HW2 5691   1.163   3.387   7.030
 1602SOL     OW 5692   0.315   2.814   5.834
 1602SOL    HW1 5693   0.397   2.838   5.790
 1602SOL    HW2 5694   0.293   2.728   5.799
 1603SOL     OW 5695   1.479   2.607   6.313
 1603SOL    HW1 5696   1.472   2.564   6.398
 1603SOL    HW2 5697   1.557   2.661   6.320
 1604SOL     OW 5698   0.465   3.125   7.324
 1604SOL    HW1 5699   0.438   3.132   7.232
 1604SOL    HW2 5700   0.383   3.126   7.372
 1605SOL     OW 5701   1.122   3.640   5.817
 1605SOL    HW1 5702   1.049   3.598   5.862
 1605SOL    HW2 5703   1.146   3.578   5.747
 1606SOL     OW 5704   0.205   2.141   7.084
 1606SOL    HW1 5705   0.126   2.192   7.066
 1606SOL    HW2 5706   0.172   2.060   7.125
 1607SOL     OW 5707   1.629   3.242   5.673
 1607SOL    HW1 5708   1.587   3.327   5.659
 1607SOL    HW2 5709   1.560   3.178   5.654
 1608SOL     OW 5710   0.471   3.597   5.905
 1608SOL    HW1 5711   0.514   3.654   5.968
 1608SOL    HW2 5712   0.542   3.565   5.849
 1609SOL     OW 5713   1.401   1.969   6.020
 1609SOL    HW1 5714   1.391   1.944   5.928
 1609SOL    HW2 5715   1.495   1.976   6.033
 1610SOL     OW 5716   0.277   3.663   6.797
 1610SOL    HW1 5717   0.307   3.585   6.844
 1610SOL    HW2 5718   0.224   3.630   6.725
 1611SOL     OW 5719   0.939   3.561   6.484
 1611SOL    HW1 5720   1.017   3.509   6.506
 1611SOL    HW2 5721   0.895   3.511   6.416
 1612SOL     OW 5722   0.386   2.558   6.065
 1612SOL    HW1 5723   0.415   2.467   6.074
 1612SOL    HW2 5724   0.293   2.555   6.085
 1613SOL     OW 5725   1.534   2.087   7.311
 1613SOL    HW1 5726   1.544   2.108   7.404
 1613SOL    HW2 5727   1.465   2.021   7.309
 1614SOL     OW 5728   0.635   1.984   5.691
 1614SOL    HW1 5729   0.704   1.918   5.703
 1614SOL    HW2 5730   0.586   1.953   5.615
 1615SOL     OW 5731   0.765   2.139   7.340
 1615SOL    HW1 5732   0.843   2.082   7.340
 1615SOL    HW2 5733   0.723   2.123   7.424
 1616SOL     OW 5734   0.877   3.384   6.779
 1616SOL    HW1 5735   0.861   3.347   6.692
 1616SOL    HW2 5736   0.947   3.329   6.815
 1617SOL     OW 5737   1.340   2.451   7.018
 1617SOL    HW1 5738   1.371   2.420   7.103
 1617SOL    HW2 5739   1.376   2.539   7.010
 1618SOL     OW 5740   0.816   3.255   6.527
 1618SOL    HW1 5741   0.901   3.244   6.483
 1618SOL    HW2 5742   0.752   3.258   6.456
 1619SOL     OW 5743   0.928   2.371   6.489
 1619SOL    HW1 5744   0.904   2.363   6.396
 1619SOL    HW2 5745   0.959   2.284   6.513
 1620SOL     OW 5746   0.561   1.923   6.081
 1620SOL    HW1 5747   0.486   1.923   6.141
 1620SOL    HW2 5748   0.550   2.002   6.028
 1621SOL     OW 5749   1.428   3.061   5.627
 1621SOL    HW1 5750   1.458   2.985   5.677
 1621SOL    HW2 5751   1.343   3.082   5.664
 1622SOL     OW 5752   0.306   1.909   5.764
 1622SOL    HW1 5753   0.368   1.973   5.729
 1622SOL    HW2 5754   0.360   1.845   5.810
 1623SOL     OW 5755   0.940   2.109   6.045
 1623SOL    HW1 5756   0.914   2.151   5.962
 1623SOL    HW2 5757   1.035   2.125   6.050
 1624SOL     OW 5758   1.080   2.543   7.045
 1624SOL    HW1 5759   1.012   2.476   7.050
 1624SOL    HW2 5760   1.162   2.494   7.038
 1625SOL     OW 5761   1.223   3.432   6.380
 1625SOL    HW1 5762   1.238   3.499   6.313
 1625SOL    HW2 5763   1.291   3.447   6.445
 1626SOL     OW 5764   0.468   3.013   6.316
 1626SOL    HW1 5765   0.399   2.992   6.379
 1626SOL    HW2 5766   0.428   2.995   6.231
 1627SOL     OW 5767   1.268   3.655   6.195
 1627SOL    HW1 5768   1.315   3.717   6.138
 1627SOL    HW2 5769   1.201   3.708   6.238
 1628SOL     OW 5770   1.023   2.402   5.610
 1628SOL    HW1 5771   0.981   2.486   5.590
 1628SOL    HW2 5772   1.089   2.424   5.676
 1629SOL     OW 5773   0.089   2.405   6.986
 1629SOL    HW1 5774   0.176   2.413   6.948
 1629SOL    HW2 5775   0.080   2.482   7.042
 1630SOL     OW 5776   0.560   2.090   6.753
 1630SOL    HW1 5777   0.598   2.011   6.791
 1630SOL    HW2 5778   0.469   2.088   6.781
 1631SOL     OW 5779   0.867   2.321   6.225
 1631SOL    HW1 5780   0.822   2.375   6.161
 1631SOL    HW2 5781   0.889   2.241   6.178
 1632SOL     OW 5782   1.016   1.915   6.337
 1632SOL    HW1 5783   0.957   1.908   6.261
 1632SOL    HW2 5784   0.994   1.840   6.392
 1633SOL     OW 5785   1.438   3.024   6.443
 1633SOL    HW1 5786   1.368   2.959   6.442
 1633SOL    HW2 5787   1.463   3.035   6.351
 1634SOL     OW 5788   1.466   2.468   6.561
 1634SOL    HW1 5789   1.414   2.388   6.564
 1634SOL    HW2 5790   1.525   2.462   6.636
 1635SOL     OW 5791   1.839   2.679   5.970
 1635SOL    HW1 5792   1.891   2.627   6.031
 1635SOL    HW2 5793   1.815   2.618   5.900
 1636SOL     OW 5794   0.491   3.281   5.743
 1636SOL    HW1 5795   0.416   3.253   5.795
 1636SOL    HW2 5796   0.477   3.241   5.657
 1637SOL     OW 5797   1.671   3.126   6.231
 1637SOL    HW1 5798   1.765   3.128   6.245
 1637SOL    HW2 5799   1.641   3.215   6.252
 1638SOL     OW 5800   1.394   2.434   5.656
 1638SOL    HW1 5801   1.334   2.414   5.728
 1638SOL    HW2 5802   1.479   2.405   5.687
 1639SOL     OW 5803   0.524   2.125   5.902
 1639SOL    HW1 5804   0.570   2.078   5.832
 1639SOL    HW2 5805   0.501   2.209   5.863
 1640SOL     OW 5806   1.751   3.102   7.158
 1640SOL    HW1 5807   1.839   3.064   7.149
 1640SOL    HW2 5808   1.766   3.191   7.188
 1641SOL     OW 5809   1.058   3.215   6.919
 1641SOL    HW1 5810   0.983   3.184   6.970
 1641SOL    HW2 5811   1.134   3.174   6.960
 1642SOL     OW 5812   1.608   3.488   7.239
 1642SOL    HW1 5813   1.602   3.522   7.150
 1642SOL    HW2 5814   1.691   3.440   7.241
 1643SOL     OW 5815   1.130   3.066   6.691
 1643SOL    HW1 5816   1.071   3.104   6.756
 1643SOL    HW2 5817   1.098   3.099   6.607
 1644SOL     OW 5818   1.626   2.959   6.664
 1644SOL    HW1 5819   1.622   3.021   6.736
 1644SOL    HW2 5820   1.548   2.977   6.611
 1645SOL     OW 5821   0.919   1.958   6.982
 1645SOL    HW1 5822   0.941   1.940   6.891
 1645SOL    HW2 5823   0.998   1.998   7.019
 1646SOL     OW 5824   0.984   2.976   7.311
 1646SOL    HW1 5825   0.892   2.993   7.330
 1646SOL    HW2 5826   0.983   2.898   7.255
 1647SOL     OW 5827   0.708   2.922   5.958
 1647SOL    HW1 5828   0.696   2.906   6.052
 1647SOL    HW2 5829   0.784   2.870   5.934
 1648SOL     OW 5830   0.421   2.682   6.839
 1648SOL    HW1 5831   0.490   2.689   6.905
 1648SOL    HW2 5832   0.387   2.593   6.849
 1649SOL     OW 5833   1.265   2.239   6.862
 1649SOL    HW1 5834   1.298   2.316   6.908
 1649SOL    HW2 5835   1.174   2.260   6.840
 1650SOL     OW 5836   0.103   3.485   6.952
 1650SOL    HW1 5837   0.081   3.492   6.859
 1650SOL    HW2 5838   0.189   3.444   6.954
 1651SOL     OW 5839   0.342   2.969   6.072
 1651SOL    HW1 5840   0.350   3.048   6.019
 1651SOL    HW2 5841   0.350   2.897   6.010
 1652SOL     OW 5842   0.553   2.397   6.445
 1652SOL    HW1 5843   0.568   2.456   6.371
 1652SOL    HW2 5844   0.618   2.423   6.510
 1653SOL     OW 5845   1.248   3.211   5.975
 1653SOL    HW1 5846   1.304   3.282   6.006
 1653SOL    HW2 5847   1.161   3.232   6.009
 1654SOL     OW 5848   1.283   3.320   6.733
 1654SOL    HW1 5849   1.338   3.323   6.811
 1654SOL    HW2 5850   1.227   3.244   6.747
 1655SOL     OW 5851   1.581   2.482   6.067
 1655SOL    HW1 5852   1.534   2.538   6.129
 1655SOL    HW2 5853   1.629   2.543   6.011
 1656SOL     OW 5854   0.352   3.382   6.896
 1656SOL    HW1 5855   0.341   3.338   6.811
 1656SOL    HW2 5856   0.446   3.399   6.902
 1657SOL     OW 5857   0.415   2.604   7.188
 1657SOL    HW1 5858   0.476   2.650   7.131
 1657SOL    HW2 5859   0.453   2.518   7.200
 1658SOL     OW 5860   1.602   2.641   7.268
 1658SOL    HW1 5861   1.516   2.682   7.262
 1658SOL    HW2 5862   1.655   2.683   7.200
 1659SOL     OW 5863   0.996   1.987   7.340
 1659SOL    HW1 5864   1.053   2.060   7.314
 1659SOL    HW2 5865   1.044   1.909   7.315
 1660SOL     OW 5866   0.498   1.902   7.334
 1660SOL    HW1 5867   0.455   1.849   7.267
 1660SOL    HW2 5868   0.440   1.977   7.346
 1661SOL     OW 5869   0.585   2.736   6.618
 1661SOL    HW1 5870   0.617   2.826   6.618
 1661SOL    HW2 5871   0.529   2.731   6.696
 1662SOL     OW 5872   1.356   2.720   6.615
 1662SOL    HW1 5873   1.273   2.710   6.569
 1662SOL    HW2 5874   1.398   2.634   6.608
 1663SOL     OW 5875   1.204   2.390   5.852
 1663SOL    HW1 5876   1.212   2.312   5.907
 1663SOL    HW2 5877   1.161   2.455   5.908
 1664SOL     OW 5878   0.301   2.065   6.834
 1664SOL    HW1 5879   0.268   2.089   6.920
 1664SOL    HW2 5880   0.290   1.970   6.829
 1665SOL     OW 5881   0.066   3.179   6.866
 1665SOL    HW1 5882   0.091   3.121   6.937
 1665SOL    HW2 5883   5.296   3.232   6.902
 1666SOL     OW 5884   0.723   2.493   6.643
 1666SOL    HW1 5885   0.799   2.477   6.586
 1666SOL    HW2 5886   0.696   2.582   6.622
 1667SOL     OW 5887   1.736   2.822   7.438
 1667SOL    HW1 5888   1.687   2.759   7.385
 1667SOL    HW2 5889   1.680   2.837   7.515
 1668SOL     OW 5890   0.327   1.924   6.220
 1668SOL    HW1 5891   0.307   2.013   6.247
 1668SOL    HW2 5892   0.333   1.875   6.302
 1669SOL     OW 5893   1.616   2.236   5.953
 1669SOL    HW1 5894   1.645   2.173   6.019
 1669SOL    HW2 5895   1.594   2.314   6.003
 1670SOL     OW 5896   1.028   2.621   6.546
 1670SOL    HW1 5897   1.024   2.638   6.640
 1670SOL    HW2 5898   1.002   2.529   6.537
 1671SOL     OW 5899   0.981   3.427   7.303
 1671SOL    HW1 5900   0.967   3.472   7.220
 1671SOL    HW2 5901   1.026   3.346   7.279
 1672SOL     OW 5902   1.854   3.367   7.191
 1672SOL    HW1 5903   1.873   3.393   7.101
 1672SOL    HW2 5904   1.935   3.384   7.239
 1673SOL     OW 5905   0.354   2.778   7.394
 1673SOL    HW1 5906   0.436   2.800   7.438
 1673SOL    HW2 5907   0.379   2.714   7.327
 1674SOL     OW 5908   1.527   2.134   5.715
 1674SOL    HW1 5909   1.463   2.069   5.743
 1674SOL    HW2 5910   1.561   2.171   5.797
 1675SOL     OW 5911   1.290   2.688   5.616
 1675SOL    HW1 5912   1.333   2.602   5.620
 1675SOL    HW2 5913   1.322   2.727   5.535
 1676SOL     OW 5914   1.067   3.198   6.440
 1676SOL    HW1 5915   1.070   3.126   6.378
 1676SOL    HW2 5916   1.127   3.263   6.405
 1677SOL     OW 5917   0.313   2.671   6.536
 1677SOL    HW1 5918   0.407   2.690   6.532
 1677SOL    HW2 5919   0.308   2.581   6.567
 1678SOL     OW 5920   0.334   2.388   6.601
 1678SOL    HW1 5921   0.300   2.300   6.587
 1678SOL    HW2 5922   0.410   2.394   6.542
 1679SOL     OW 5923   1.134   2.237   7.268
 1679SOL    HW1 5924   1.087   2.292   7.330
 1679SOL    HW2 5925   1.222   2.276   7.264
 1680SOL     OW 5926   1.161   2.064   7.056
 1680SOL    HW1 5927   1.150   2.126   7.127
 1680SOL    HW2 5928   1.201   2.115   6.985
 1681SOL     OW 5929   0.002   3.191   5.796
 1681SOL    HW1 5930   5.230   3.178   5.735
 1681SOL    HW2 5931   0.012   3.105   5.839
 1682SOL     OW 5932   0.094   3.644   6.538
 1682SOL    HW1 5933   0.060   3.574   6.481
 1682SOL    HW2 5934   0.181   3.662   6.503
 1683SOL     OW 5935   0.505   3.435   6.494
 1683SOL    HW1 5936   0.572   3.501   6.514
 1683SOL    HW2 5937   0.548   3.375   6.434
 1684SOL     OW 5938   0.981   2.653   6.812
 1684SOL    HW1 5939   1.038   2.631   6.886
 1684SOL    HW2 5940   0.896   2.615   6.835
 1685SOL     OW 5941   0.032   2.426   6.703
 1685SOL    HW1 5942   0.118   2.401   6.669
 1685SOL    HW2 5943   0.037   2.405   6.796
 1686SOL     OW 5944   0.174   2.375   7.303
 1686SOL    HW1 5945   0.236   2.334   7.242
 1686SOL    HW2 5946   0.147   2.456   7.259
 1687SOL     OW 5947   1.378   2.800   7.245
 1687SOL    HW1 5948   1.399   2.893   7.243
 1687SOL    HW2 5949   1.374   2.774   7.153
 1688SOL     OW 5950   0.816   2.431   5.948
 1688SOL    HW1 5951   0.821   2.357   5.887
 1688SOL    HW2 5952   0.743   2.483   5.916
 1689SOL     OW 5953   1.640   2.463   6.771
 1689SOL    HW1 5954   1.629   2.404   6.846
 1689SOL    HW2 5955   1.727   2.443   6.737
 1690SOL     OW 5956   0.255   3.418   7.321
 1690SOL    HW1 5957   0.233   3.479   7.391
 1690SOL    HW2 5958   0.250   3.332   7.363
 1691SOL     OW 5959   0.704   2.311   6.845
 1691SOL    HW1 5960   0.650   2.237   6.816
 1691SOL    HW2 5961   0.698   2.374   6.773
 1692SOL     OW 5962   0.928   3.541   7.054
 1692SOL    HW1 5963   0.901   3.506   6.969
 1692SOL    HW2 5964   0.922   3.636   7.043
 1693SOL     OW 5965   0.464   2.355   5.770
 1693SOL    HW1 5966   0.525   2.426   5.793
 1693SOL    HW2 5967   0.380   2.399   5.757
 1694SOL     OW 5968   0.148   2.999   7.057
 1694SOL    HW1 5969   0.144   2.951   7.139
 1694SOL    HW2 5970   0.159   2.931   6.990
 1695SOL     OW 5971   1.325   2.908   6.809
 1695SOL    HW1 5972   1.348   2.845   6.741
 1695SOL    HW2 5973   1.255   2.961   6.770
 1696SOL     OW 5974   1.312   2.718   5.892
 1696SOL    HW1 5975   1.236   2.688   5.942
 1696SOL    HW2 5976   1.287   2.705   5.800
 1697SOL     OW 5977   1.773   3.605   6.737
 1697SOL    HW1 5978   1.833   3.631   6.667
 1697SOL    HW2 5979   1.748   3.515   6.715
 1698SOL     OW 5980   1.241   3.595   6.697
 1698SOL    HW1 5981   1.323   3.616   6.653
 1698SOL    HW2 5982   1.247   3.501   6.716
 1699SOL     OW 5983   0.082   3.077   6.613
 1699SOL    HW1 5984   0.070   3.103   6.704
 1699SOL    HW2 5985   5.294   3.066   6.579
 1700SOL     OW 5986   0.677   3.528   7.316
 1700SOL    HW1 5987   0.622   3.606   7.311
 1700SOL    HW2 5988   0.743   3.541   7.248
 1701SOL     OW 5989   1.721   2.010   6.096
 1701SOL    HW1 5990   1.792   1.995   6.033
 1701SOL    HW2 5991   1.705   1.924   6.135
 1702SOL     OW 5992   1.391   3.430   6.072
 1702SOL    HW1 5993   1.451   3.462   6.005
 1702SOL    HW2 5994   1.342   3.507   6.100
 1703SOL     OW 5995   0.142   3.661   7.429
 1703SOL    HW1 5996   0.090   3.598   7.478
 1703SOL    HW2 5997   0.196   3.704   7.495
 1704SOL     OW 5998   1.277   2.788   6.257
 1704SOL    HW1 5999   1.351   2.728   6.265
 1704SOL    HW2 6000   1.311   2.860   6.204
 1705SOL     OW 6001   0.813   3.135   7.015
 1705SOL    HW1 6002   0.784   3.176   7.097
 1705SOL    HW2 6003   0.743   3.157   6.953
 1706SOL     OW 6004   0.672   3.482   5.741
 1706SOL    HW1 6005   0.683   3.496   5.647
 1706SOL    HW2 6006   0.617   3.405   5.748
 1707SOL     OW 6007   1.625   3.589   6.976
 1707SOL    HW1 6008   1.675   3.595   6.896
 1707SOL    HW2 6009   1.611   3.679   7.004
 1708SOL     OW 6010   1.839   2.033   6.553
 1708SOL    HW1 6011   1.867   1.946   6.526
 1708SOL    HW2 6012   1.753   2.044   6.513
 1709SOL     OW 6013   0.273   2.179   6.303
 1709SOL    HW1 6014   0.188   2.217   6.283
 1709SOL    HW2 6015   0.273   2.168   6.398
 1710SOL     OW 6016   1.208   3.467   5.618
 1710SOL    HW1 6017   1.197   3.376   5.644
 1710SOL    HW2 6018   1.142   3.480   5.549
 1711SOL     OW 6019   0.824   2.868   6.959
 1711SOL    HW1 6020   0.868   2.863   6.874
 1711SOL    HW2 6021   0.823   2.961   6.980
 1712SOL     OW 6022   0.915   2.772   5.876
 1712SOL    HW1 6023   0.976   2.805   5.810
 1712SOL    HW2 6024   0.964   2.704   5.922
 1713SOL     OW 6025   1.491   3.488   5.629
 1713SOL    HW1 6026   1.397   3.481   5.615
 1713SOL    HW2 6027   1.528   3.494   5.541
 1714SOL     OW 6028   0.367   3.166   7.079
 1714SOL    HW1 6029   0.359   3.240   7.019
 1714SOL    HW2 6030   0.291   3.111   7.060
 1715SOL     OW 6031   1.609   3.144   6.866
 1715SOL    HW1 6032   1.670   3.134   6.939
 1715SOL    HW2 6033   1.549   3.213   6.895
 1716SOL     OW 6034   1.053   2.969   6.293
 1716SOL    HW1 6035   0.983   2.918   6.332
 1716SOL    HW2 6036   1.117   2.904   6.263
 1717SOL     OW 6037   1.022   2.103   6.552
 1717SOL    HW1 6038   1.017   2.055   6.469
 1717SOL    HW2 6039   1.016   2.035   6.619
 1718SOL     OW 6040   0.602   3.349   6.067
 1718SOL    HW1 6041   0.648   3.301   5.998
 1718SOL    HW2 6042   0.534   3.398   6.020
 1719SOL     OW 6043   1.719   2.252   6.966
 1719SOL    HW1 6044   1.790   2.317   6.966
 1719SOL    HW2 6045   1.751   2.182   6.910
 1720SOL     OW 6046   0.261   3.210   5.879
 1720SOL    HW1 6047   0.168   3.212   5.856
 1720SOL    HW2 6048   0.265   3.247   5.967
 1721SOL     OW 6049   0.117   2.876   7.302
 1721SOL    HW1 6050   0.045   2.846   7.358
 1721SOL    HW2 6051   0.196   2.846   7.346
 1722SOL     OW 6052   0.674   2.058   7.085
 1722SOL    HW1 6053   0.758   2.038   7.044
 1722SOL    HW2 6054   0.697   2.088   7.173
 1723SOL     OW 6055   0.084   2.210   5.627
 1723SOL    HW1 6056   0.003   2.163   5.604
 1723SOL    HW2 6057   0.099   2.269   5.553
 1724SOL     OW 6058   1.429   2.720   6.986
 1724SOL    HW1 6059   1.380   2.781   6.931
 1724SOL    HW2 6060   1.518   2.723   6.950
 1725SOL     OW 6061   0.057   1.995   5.830
 1725SOL    HW1 6062   0.056   2.090   5.818
 1725SOL    HW2 6063   0.146   1.969   5.806
 1726SOL     OW 6064   1.179   3.201   5.703
 1726SOL    HW1 6065   1.088   3.170   5.705
 1726SOL    HW2 6066   1.206   3.201   5.795
 1727SOL     OW 6067   0.620   2.693   7.022
 1727SOL    HW1 6068   0.676   2.768   7.006
 1727SOL    HW2 6069   0.680   2.619   7.029
 1728SOL     OW 6070   1.483   3.640   6.566
 1728SOL    HW1 6071   1.507   3.700   6.495
 1728SOL    HW2 6072   1.567   3.619   6.608
 1729SOL     OW 6073   0.717   2.425   7.291
 1729SOL    HW1 6074   0.759   2.487   7.350
 1729SOL    HW2 6075   0.744   2.339   7.322
 1730SOL     OW 6076   1.472   3.060   7.218
 1730SOL    HW1 6077   1.459   3.074   7.312
 1730SOL    HW2 6078   1.565   3.077   7.203
 1731SOL     OW 6079   0.376   3.605   7.150
 1731SOL    HW1 6080   0.294   3.651   7.134
 1731SOL    HW2 6081   0.350   3.525   7.195
 1732SOL     OW 6082   1.669   2.743   6.841
 1732SOL    HW1 6083   1.662   2.658   6.798
 1732SOL    HW2 6084   1.658   2.807   6.771
 1733SOL     OW 6085   1.216   2.181   6.044
 1733SOL    HW1 6086   1.279   2.109   6.036
 1733SOL    HW2 6087   1.245   2.230   6.120
 1734SOL     OW 6088   0.589   2.599   6.256
 1734SOL    HW1 6089   0.629   2.685   6.241
 1734SOL    HW2 6090   0.521   2.592   6.190
 1735SOL     OW 6091   1.761   2.225   7.236
 1735SOL    HW1 6092   1.743   2.240   7.144
 1735SOL    HW2 6093   1.690   2.168   7.266
 1736SOL     OW 6094   1.751   2.792   7.097
 1736SOL    HW1 6095   1.744   2.886   7.114
 1736SOL    HW2 6096   1.732   2.782   7.004
 1737SOL     OW 6097   0.862   3.229   5.621
 1737SOL    HW1 6098   0.824   3.258   5.704
 1737SOL    HW2 6099   0.881   3.310   5.574
 1738SOL     OW 6100   0.664   3.655   6.528
 1738SOL    HW1 6101   0.643   3.745   6.506
 1738SOL    HW2 6102   0.759   3.650   6.522
 1739SOL     OW 6103   0.868   2.829   6.440
 1739SOL    HW1 6104   0.918   2.758   6.479
 1739SOL    HW2 6105   0.833   2.878   6.514
 1740SOL     OW 6106   1.077   2.849   5.674
 1740SOL    HW1 6107   1.057   2.901   5.596
 1740SOL    HW2 6108   1.153   2.796   5.649
 1741SOL     OW 6109   1.853   3.416   6.430
 1741SOL    HW1 6110   1.774   3.404   6.377
 1741SOL    HW2 6111   1.847   3.349   6.498
 1742SOL     OW 6112   0.226   3.166   7.446
 1742SOL    HW1 6113   0.156   3.106   7.420
 1742SOL    HW2 6114   0.213   3.177   7.541
 1743SOL     OW 6115   0.088   3.081   6.241
 1743SOL    HW1 6116   0.102   3.049   6.330
 1743SOL    HW2 6117   0.175   3.078   6.200
 1744SOL     OW 6118   0.681   3.264   7.215
 1744SOL    HW1 6119   0.600   3.223   7.245
 1744SOL    HW2 6120   0.678   3.353   7.251
 1745SOL     OW 6121   1.814   2.046   6.824
 1745SOL    HW1 6122   1.822   1.952   6.838
 1745SOL    HW2 6123   1.822   2.057   6.729
 1746SOL     OW 6124   0.435   2.298   6.110
 1746SOL    HW1 6125   0.463   2.226   6.054
 1746SOL    HW2 6126   0.388   2.256   6.182
 1747SOL     OW 6127   1.699   3.351   6.682
 1747SOL    HW1 6128   1.619   3.328   6.635
 1747SOL    HW2 6129   1.711   3.281   6.746
 1748SOL     OW 6130   0.337   2.422   6.878
 1748SOL    HW1 6131   0.391   2.363   6.931
 1748SOL    HW2 6132   0.351   2.392   6.788
 1749SOL     OW 6133   0.829   3.439   6.263
 1749SOL    HW1 6134   0.814   3.497   6.188
 1749SOL    HW2 6135   0.753   3.382   6.265
 1750SOL     OW 6136   1.432   2.088   6.704
 1750SOL    HW1 6137   1.454   2.007   6.749
 1750SOL    HW2 6138   1.380   2.137   6.768
 1751SOL     OW 6139   1.009   1.880   6.727
 1751SOL    HW1 6140   0.955   1.813   6.686
 1751SOL    HW2 6141   1.097   1.842   6.729
 1752SOL     OW 6142   0.772   3.195   5.903
 1752SOL    HW1 6143   0.743   3.104   5.909
 1752SOL    HW2 6144   0.854   3.197   5.951
 1753SOL     OW 6145   0.623   3.417   6.874
 1753SOL    HW1 6146   0.624   3.500   6.922
 1753SOL    HW2 6147   0.710   3.412   6.834
 1754SOL     OW 6148   1.352   1.915   5.753
 1754SOL    HW1 6149   1.382   1.851   5.688
 1754SOL    HW2 6150   1.265   1.886   5.778
 1755SOL     OW 6151   1.296   2.323   6.266
 1755SOL    HW1 6152   1.243   2.403   6.273
 1755SOL    HW2 6153   1.292   2.284   6.354
 1756SOL     OW 6154   1.586   2.063   6.464
 1756SOL    HW1 6155   1.526   2.084   6.536
 1756SOL    HW2 6156   1.585   2.141   6.409
 1757SOL     OW 6157   0.048   2.930   5.877
 1757SOL    HW1 6158   0.137   2.897   5.865
 1757SOL    HW2 6159   5.300   2.855   5.911
 1758SOL     OW 6160   0.886   3.515   5.927
 1758SOL    HW1 6161   0.813   3.500   5.867
 1758SOL    HW2 6162   0.859   3.590   5.980
 1759SOL     OW 6163   0.229   2.491   7.567
 1759SOL    HW1 6164   0.156   2.449   7.612
 1759SOL    HW2 6165   0.220   2.464   7.476
 1760SOL     OW 6166   1.771   2.457   7.678
 1760SOL    HW1 6167   1.749   2.454   7.585
 1760SOL    HW2 6168   1.726   2.381   7.716
 1761SOL     OW 6169   0.231   3.566   7.922
 1761SOL    HW1 6170   0.264   3.612   7.999
 1761SOL    HW2 6171   0.301   3.575   7.857
 1762SOL     OW 6172   0.216   3.298   7.992
 1762SOL    HW1 6173   0.210   3.393   7.981
 1762SOL    HW2 6174   0.153   3.278   8.061
 1763SOL     OW 6175   0.582   2.847   7.581
 1763SOL    HW1 6176   0.628   2.894   7.512
 1763SOL    HW2 6177   0.623   2.877   7.662
 1764SOL     OW 6178   1.837   3.620   7.797
 1764SOL    HW1 6179   1.909   3.591   7.853
 1764SOL    HW2 6180   1.862   3.709   7.771
 1765SOL     OW 6181   0.036   3.464   7.583
 1765SOL    HW1 6182   0.028   3.371   7.604
 1765SOL    HW2 6183   5.276   3.507   7.644
 1766SOL     OW 6184   1.675   2.727   8.038
 1766SOL    HW1 6185   1.758   2.734   0.006
 1766SOL    HW2 6186   1.669   2.809   7.989
 1767SOL     OW 6187   1.655   2.960   7.876
 1767SOL    HW1 6188   1.744   2.985   7.850
 1767SOL    HW2 6189   1.626   3.031   7.934
 1768SOL     OW 6190   0.799   1.857   7.937
 1768SOL    HW1 6191   0.849   1.937   7.921
 1768SOL    HW2 6192   0.709   1.887   7.948
 1769SOL     OW 6193   1.533   2.857   7.650
 1769SOL    HW1 6194   1.467   2.797   7.685
 1769SOL    HW2 6195   1.578   2.891   7.727
 1770SOL     OW 6196   0.588   2.585   7.708
 1770SOL    HW1 6197   0.595   2.667   7.659
 1770SOL    HW2 6198   0.534   2.607   7.784
 1771SOL     OW 6199   1.574   3.534   7.757
 1771SOL    HW1 6200   1.665   3.561   7.766
 1771SOL    HW2 6201   1.562   3.521   7.663
 1772SOL     OW 6202   0.057   2.688   0.199
 1772SOL    HW1 6203   0.121   2.622   0.171
 1772SOL    HW2 6204   0.033   2.734   0.119
 1773SOL     OW 6205   0.883   2.210   7.637
 1773SOL    HW1 6206   0.927   2.270   7.577
 1773SOL    HW2 6207   0.918   2.124   7.614
 1774SOL     OW 6208   0.317   2.809   7.694
 1774SOL    HW1 6209   0.398   2.837   7.650
 1774SOL    HW2 6210   0.295   2.726   7.653
 1775SOL     OW 6211   1.124   3.638   7.681
 1775SOL    HW1 6212   1.047   3.598   7.722
 1775SOL    HW2 6213   1.149   3.577   7.612
 1776SOL     OW 6214   1.628   3.243   7.533
 1776SOL    HW1 6215   1.586   3.328   7.520
 1776SOL    HW2 6216   1.560   3.179   7.516
 1777SOL     OW 6217   0.470   3.600   7.769
 1777SOL    HW1 6218   0.516   3.653   7.834
 1777SOL    HW2 6219   0.539   3.565   7.713
 1778SOL     OW 6220   1.417   1.994   7.864
 1778SOL    HW1 6221   1.405   1.960   7.775
 1778SOL    HW2 6222   1.511   1.994   7.878
 1779SOL     OW 6223   0.379   2.562   7.923
 1779SOL    HW1 6224   0.397   2.468   7.928
 1779SOL    HW2 6225   0.284   2.569   7.935
 1780SOL     OW 6226   0.629   1.980   7.559
 1780SOL    HW1 6227   0.704   1.922   7.568
 1780SOL    HW2 6228   0.585   1.950   7.479
 1781SOL     OW 6229   0.526   1.938   7.961
 1781SOL    HW1 6230   0.438   1.944   7.999
 1781SOL    HW2 6231   0.528   2.008   7.896
 1782SOL     OW 6232   1.428   3.060   7.489
 1782SOL    HW1 6233   1.459   2.986   7.542
 1782SOL    HW2 6234   1.344   3.084   7.528
 1783SOL     OW 6235   0.307   1.905   7.619
 1783SOL    HW1 6236   0.368   1.969   7.583
 1783SOL    HW2 6237   0.362   1.843   7.667
 1784SOL     OW 6238   0.944   2.087   7.910
 1784SOL    HW1 6239   0.900   2.153   7.855
 1784SOL    HW2 6240   1.035   2.117   7.914
 1785SOL     OW 6241   0.447   3.022   0.088
 1785SOL    HW1 6242   0.376   3.045   0.148
 1785SOL    HW2 6243   0.404   3.003   0.005
 1786SOL     OW 6244   1.291   3.674   8.014
 1786SOL    HW1 6245   1.327   3.743   7.958
 1786SOL    HW2 6246   1.206   3.707   8.041
 1787SOL     OW 6247   1.025   2.402   7.468
 1787SOL    HW1 6248   0.980   2.485   7.451
 1787SOL    HW2 6249   1.085   2.422   7.540
 1788SOL     OW 6250   1.863   2.682   7.801
 1788SOL    HW1 6251   1.881   2.649   7.889
 1788SOL    HW2 6252   1.831   2.605   7.753
 1789SOL     OW 6253   0.489   3.279   7.604
 1789SOL    HW1 6254   0.415   3.251   7.657
 1789SOL    HW2 6255   0.473   3.240   7.517
 1790SOL     OW 6256   1.394   2.433   7.519
 1790SOL    HW1 6257   1.332   2.414   7.589
 1790SOL    HW2 6258   1.478   2.402   7.552
 1791SOL     OW 6259   0.526   2.128   7.769
 1791SOL    HW1 6260   0.571   2.078   7.701
 1791SOL    HW2 6261   0.502   2.210   7.728
 1792SOL     OW 6262   0.710   2.923   7.813
 1792SOL    HW1 6263   0.692   2.912   7.906
 1792SOL    HW2 6264   0.789   2.871   7.797
 1793SOL     OW 6265   0.344   2.958   7.926
 1793SOL    HW1 6266   0.342   3.042   7.881
 1793SOL    HW2 6267   0.346   2.893   7.856
 1794SOL     OW 6268   1.222   3.219   7.821
 1794SOL    HW1 6269   1.283   3.288   7.844
 1794SOL    HW2 6270   1.188   3.187   7.905
 1795SOL     OW 6271   1.589   2.489   7.920
 1795SOL    HW1 6272   1.575   2.547   7.995
 1795SOL    HW2 6273   1.629   2.545   7.854
 1796SOL     OW 6274   1.203   2.387   7.713
 1796SOL    HW1 6275   1.204   2.305   7.762
 1796SOL    HW2 6276   1.184   2.455   7.779
 1797SOL     OW 6277   1.618   2.242   7.812
 1797SOL    HW1 6278   1.640   2.176   7.878
 1797SOL    HW2 6279   1.595   2.319   7.864
 1798SOL     OW 6280   1.530   2.136   7.575
 1798SOL    HW1 6281   1.464   2.072   7.600
 1798SOL    HW2 6282   1.562   2.172   7.658
 1799SOL     OW 6283   1.292   2.689   7.480
 1799SOL    HW1 6284   1.335   2.603   7.482
 1799SOL    HW2 6285   1.323   2.729   7.399
 1800SOL     OW 6286   0.004   3.195   7.656
 1800SOL    HW1 6287   5.223   3.191   7.605
 1800SOL    HW2 6288   0.014   3.106   7.692
 1801SOL     OW 6289   0.841   2.465   7.759
 1801SOL    HW1 6290   0.834   2.373   7.733
 1801SOL    HW2 6291   0.750   2.496   7.761
 1802SOL     OW 6292   0.461   2.355   7.638
 1802SOL    HW1 6293   0.522   2.426   7.655
 1802SOL    HW2 6294   0.377   2.398   7.622
 1803SOL     OW 6295   1.311   2.711   7.754
 1803SOL    HW1 6296   1.225   2.725   7.793
 1803SOL    HW2 6297   1.294   2.703   7.660
 1804SOL     OW 6298   1.710   2.009   7.945
 1804SOL    HW1 6299   1.788   2.002   7.889
 1804SOL    HW2 6300   1.715   1.933   8.002
 1805SOL     OW 6301   1.363   3.439   7.895
 1805SOL    HW1 6302   1.438   3.460   7.840
 1805SOL    HW2 6303   1.332   3.524   7.926
 1806SOL     OW 6304   0.668   3.482   7.603
 1806SOL    HW1 6305   0.680   3.494   7.509
 1806SOL    HW2 6306   0.615   3.403   7.610
 1807SOL     OW 6307   1.210   3.468   7.478
 1807SOL    HW1 6308   1.199   3.377   7.506
 1807SOL    HW2 6309   1.143   3.481   7.411
 1808SOL     OW 6310   0.924   2.770   7.755
 1808SOL    HW1 6311   0.979   2.795   7.680
 1808SOL    HW2 6312   0.920   2.675   7.751
 1809SOL     OW 6313   1.493   3.489   7.488
 1809SOL    HW1 6314   1.398   3.481   7.476
 1809SOL    HW2 6315   1.528   3.494   7.400
 1810SOL     OW 6316   0.608   3.369   7.935
 1810SOL    HW1 6317   0.652   3.309   7.875
 1810SOL    HW2 6318   0.534   3.402   7.885
 1811SOL     OW 6319   0.261   3.208   7.743
 1811SOL    HW1 6320   0.168   3.212   7.718
 1811SOL    HW2 6321   0.263   3.244   7.832
 1812SOL     OW 6322   0.083   2.200   7.487
 1812SOL    HW1 6323   5.298   2.162   7.464
 1812SOL    HW2 6324   0.100   2.265   7.419
 1813SOL     OW 6325   0.083   2.000   7.739
 1813SOL    HW1 6326   0.068   2.086   7.700
 1813SOL    HW2 6327   0.154   1.963   7.687
 1814SOL     OW 6328   1.176   3.200   7.556
 1814SOL    HW1 6329   1.083   3.175   7.555
 1814SOL    HW2 6330   1.198   3.206   7.649
 1815SOL     OW 6331   1.214   2.180   7.904
 1815SOL    HW1 6332   1.288   2.120   7.892
 1815SOL    HW2 6333   1.235   2.228   7.984
 1816SOL     OW 6334   0.625   2.603   8.046
 1816SOL    HW1 6335   0.628   2.679   0.024
 1816SOL    HW2 6336   0.533   2.598   8.018
 1817SOL     OW 6337   0.863   3.229   7.484
 1817SOL    HW1 6338   0.825   3.259   7.567
 1817SOL    HW2 6339   0.881   3.309   7.436
 1818SOL     OW 6340   1.071   2.839   7.537
 1818SOL    HW1 6341   1.053   2.897   7.464
 1818SOL    HW2 6342   1.150   2.791   7.511
 1819SOL     OW 6343   0.392   2.294   7.981
 1819SOL    HW1 6344   0.435   2.234   7.920
 1819SOL    HW2 6345   0.438   2.282   8.064
 1820SOL     OW 6346   0.765   3.198   7.763
 1820SOL    HW1 6347   0.736   3.107   7.764
 1820SOL    HW2 6348   0.847   3.198   7.813
 1821SOL     OW 6349   1.353   1.915   7.610
 1821SOL    HW1 6350   1.383   1.847   7.549
 1821SOL    HW2 6351   1.266   1.885   7.638
 1822SOL     OW 6352   0.048   2.932   7.721
 1822SOL    HW1 6353   0.138   2.897   7.719
 1822SOL    HW2 6354   0.001   2.872   7.779
 1823SOL     OW 6355   0.893   3.515   7.779
 1823SOL    HW1 6356   0.817   3.491   7.727
 1823SOL    HW2 6357   0.859   3.577   7.844
 1824SOL     OW 6358   0.225   4.345   0.116
 1824SOL    HW1 6359   0.155   4.302   0.165
 1824SOL    HW2 6360   0.230   4.295   0.034
 1825SOL     OW 6361   0.242   3.998   0.988
 1825SOL    HW1 6362   0.256   3.965   1.076
 1825SOL    HW2 6363   0.158   3.962   0.962
 1826SOL     OW 6364   5.295   4.121   0.649
 1826SOL    HW1 6365   5.204   4.149   0.658
 1826SOL    HW2 6366   5.290   4.028   0.628
 1827SOL     OW 6367   0.575   5.001   1.185
 1827SOL    HW1 6368   0.496   5.007   1.132
 1827SOL    HW2 6369   0.593   5.092   1.210
 1828SOL     OW 6370   1.557   5.233   0.688
 1828SOL    HW1 6371   1.535   5.230   0.781
 1828SOL    HW2 6372   1.478   5.269   0.646
 1829SOL     OW 6373   1.131   4.422   0.700
 1829SOL    HW1 6374   1.179   4.503   0.687
 1829SOL    HW2 6375   1.084   4.435   0.782
 1830SOL     OW 6376   1.770   4.324   0.232
 1830SOL    HW1 6377   1.730   4.326   0.145
 1830SOL    HW2 6378   1.731   4.248   0.275
 1831SOL     OW 6379   0.757   4.866   1.038
 1831SOL    HW1 6380   0.691   4.896   1.100
 1831SOL    HW2 6381   0.786   4.946   0.992
 1832SOL     OW 6382   0.869   4.497   1.822
 1832SOL    HW1 6383   0.856   4.568   1.885
 1832SOL    HW2 6384   0.891   4.540   1.740
 1833SOL     OW 6385   0.684   4.723   0.651
 1833SOL    HW1 6386   0.750   4.714   0.719
 1833SOL    HW2 6387   0.617   4.780   0.689
 1834SOL     OW 6388   0.708   4.871   1.813
 1834SOL    HW1 6389   0.756   4.951   1.837
 1834SOL    HW2 6390   0.626   4.903   1.777
 1835SOL     OW 6391   0.377   5.146   1.053
 1835SOL    HW1 6392   0.283   5.157   1.041
 1835SOL    HW2 6393   0.417   5.196   0.981
 1836SOL     OW 6394   1.454   5.221   1.348
 1836SOL    HW1 6395   1.509   5.293   1.379
 1836SOL    HW2 6396   1.387   5.211   1.415
 1837SOL     OW 6397   0.451   4.124   1.491
 1837SOL    HW1 6398   0.525   4.063   1.493
 1837SOL    HW2 6399   0.374   4.068   1.501
 1838SOL     OW 6400   1.611   4.171   0.741
 1838SOL    HW1 6401   1.536   4.193   0.686
 1838SOL    HW2 6402   1.624   4.248   0.796
 1839SOL     OW 6403   1.133   5.073   1.702
 1839SOL    HW1 6404   1.163   5.074   1.793
 1839SOL    HW2 6405   1.080   4.994   1.695
 1840SOL     OW 6406   0.209   5.150   0.531
 1840SOL    HW1 6407   0.253   5.229   0.565
 1840SOL    HW2 6408   0.128   5.144   0.581
 1841SOL     OW 6409   0.255   4.800   0.877
 1841SOL    HW1 6410   0.264   4.711   0.912
 1841SOL    HW2 6411   0.196   4.845   0.938
 1842SOL     OW 6412   0.619   4.683   0.138
 1842SOL    HW1 6413   0.575   4.763   0.108
 1842SOL    HW2 6414   0.674   4.712   0.211
 1843SOL     OW 6415   1.596   3.848   1.467
 1843SOL    HW1 6416   1.606   3.929   1.417
 1843SOL    HW2 6417   1.581   3.877   1.557
 1844SOL     OW 6418   0.132   4.353   0.582
 1844SOL    HW1 6419   0.086   4.274   0.610
 1844SOL    HW2 6420   0.100   4.422   0.640
 1845SOL     OW 6421   0.014   5.293   0.070
 1845SOL    HW1 6422   0.021   5.209   0.115
 1845SOL    HW2 6423   0.043   0.057   0.134
 1846SOL     OW 6424   1.687   4.642   0.644
 1846SOL    HW1 6425   1.770   4.599   0.621
 1846SOL    HW2 6426   1.665   4.694   0.567
 1847SOL     OW 6427   1.646   4.829   0.434
 1847SOL    HW1 6428   1.728   4.839   0.386
 1847SOL    HW2 6429   1.653   4.891   0.507
 1848SOL     OW 6430   0.132   4.472   1.585
 1848SOL    HW1 6431   0.226   4.487   1.585
 1848SOL    HW2 6432   0.094   4.559   1.598
 1849SOL     OW 6433   0.627   5.098   0.737
 1849SOL    HW1 6434   0.570   5.021   0.735
 1849SOL    HW2 6435   0.603   5.147   0.659
 1850SOL     OW 6436   1.288   4.953   1.426
 1850SOL    HW1 6437   1.322   4.888   1.365
 1850SOL    HW2 6438   1.349   4.951   1.500
 1851SOL     OW 6439   0.825   3.727   0.513
 1851SOL    HW1 6440   0.863   3.811   0.490
 1851SOL    HW2 6441   0.731   3.744   0.518
 1852SOL     OW 6442   0.174   4.665   1.283
 1852SOL    HW1 6443   0.264   4.634   1.270
 1852SOL    HW2 6444   0.134   4.660   1.196
 1853SOL     OW 6445   1.508   4.735   0.211
 1853SOL    HW1 6446   1.447   4.669   0.244
 1853SOL    HW2 6447   1.561   4.759   0.287
 1854SOL     OW 6448   0.339   3.977   1.820
 1854SOL    HW1 6449   0.385   4.060   1.833
 1854SOL    HW2 6450   0.250   3.994   1.853
 1855SOL     OW 6451   1.478   5.147   0.963
 1855SOL    HW1 6452   1.405   5.160   1.022
 1855SOL    HW2 6453   1.466   5.058   0.928
 1856SOL     OW 6454   0.597   4.436   0.281
 1856SOL    HW1 6455   0.617   4.517   0.234
 1856SOL    HW2 6456   0.535   4.463   0.349
 1857SOL     OW 6457   1.279   4.078   0.932
 1857SOL    HW1 6458   1.190   4.045   0.941
 1857SOL    HW2 6459   1.330   4.025   0.993
 1858SOL     OW 6460   0.792   4.341   1.451
 1858SOL    HW1 6461   0.765   4.317   1.539
 1858SOL    HW2 6462   0.753   4.274   1.395
 1859SOL     OW 6463   1.393   4.198   1.678
 1859SOL    HW1 6464   1.396   4.243   1.763
 1859SOL    HW2 6465   1.454   4.124   1.687
 1860SOL     OW 6466   0.954   4.612   1.583
 1860SOL    HW1 6467   1.009   4.541   1.548
 1860SOL    HW2 6468   0.906   4.645   1.508
 1861SOL     OW 6469   0.992   4.136   1.238
 1861SOL    HW1 6470   0.906   4.157   1.274
 1861SOL    HW2 6471   0.974   4.091   1.156
 1862SOL     OW 6472   1.053   4.423   0.427
 1862SOL    HW1 6473   1.069   4.416   0.522
 1862SOL    HW2 6474   0.970   4.377   0.414
 1863SOL     OW 6475   0.066   4.512   0.818
 1863SOL    HW1 6476   0.150   4.516   0.863
 1863SOL    HW2 6477   0.065   4.589   0.761
 1864SOL     OW 6478   0.885   4.081   0.202
 1864SOL    HW1 6479   0.931   4.131   0.133
 1864SOL    HW2 6480   0.885   3.991   0.170
 1865SOL     OW 6481   1.708   4.298   1.828
 1865SOL    HW1 6482   1.670   4.371   1.780
 1865SOL    HW2 6483   1.736   4.236   1.760
 1866SOL     OW 6484   1.377   4.863   0.539
 1866SOL    HW1 6485   1.458   4.851   0.489
 1866SOL    HW2 6486   1.326   4.926   0.487
 1867SOL     OW 6487   0.556   3.907   0.894
 1867SOL    HW1 6488   0.553   3.935   0.985
 1867SOL    HW2 6489   0.553   3.989   0.844
 1868SOL     OW 6490   1.018   5.162   0.471
 1868SOL    HW1 6491   0.944   5.223   0.471
 1868SOL    HW2 6492   1.040   5.150   0.563
 1869SOL     OW 6493   1.800   4.780   0.867
 1869SOL    HW1 6494   1.743   4.761   0.792
 1869SOL    HW2 6495   1.741   4.787   0.941
 1870SOL     OW 6496   1.251   5.240   1.525
 1870SOL    HW1 6497   1.215   5.173   1.584
 1870SOL    HW2 6498   1.179   5.261   1.466
 1871SOL     OW 6499   0.330   4.674   0.250
 1871SOL    HW1 6500   0.412   4.684   0.202
 1871SOL    HW2 6501   0.314   4.579   0.251
 1872SOL     OW 6502   1.479   4.466   0.726
 1872SOL    HW1 6503   1.471   4.425   0.812
 1872SOL    HW2 6504   1.556   4.523   0.733
 1873SOL     OW 6505   0.463   4.989   1.743
 1873SOL    HW1 6506   0.437   4.992   1.651
 1873SOL    HW2 6507   0.380   4.989   1.791
 1874SOL     OW 6508   1.159   0.158   0.236
 1874SOL    HW1 6509   1.076   0.177   0.280
 1874SOL    HW2 6510   1.134   0.136   0.146
 1875SOL     OW 6511   0.205   4.003   1.497
 1875SOL    HW1 6512   0.127   4.055   1.480
 1875SOL    HW2 6513   0.173   3.923   1.539
 1876SOL     OW 6514   1.630   5.094   0.076
 1876SOL    HW1 6515   1.591   5.180   0.095
 1876SOL    HW2 6516   1.555   5.036   0.062
 1877SOL     OW 6517   1.407   3.835   0.445
 1877SOL    HW1 6518   1.399   3.814   0.353
 1877SOL    HW2 6519   1.502   3.842   0.460
 1878SOL     OW 6520   0.382   4.423   0.475
 1878SOL    HW1 6521   0.413   4.333   0.485
 1878SOL    HW2 6522   0.290   4.420   0.501
 1879SOL     OW 6523   1.534   3.949   1.725
 1879SOL    HW1 6524   1.544   3.970   1.818
 1879SOL    HW2 6525   1.465   3.883   1.722
 1880SOL     OW 6526   0.629   3.834   0.137
 1880SOL    HW1 6527   0.724   3.822   0.142
 1880SOL    HW2 6528   0.607   3.815   0.046
 1881SOL     OW 6529   0.766   4.003   1.755
 1881SOL    HW1 6530   0.843   3.945   1.755
 1881SOL    HW2 6531   0.718   3.978   1.833
 1882SOL     OW 6532   1.340   4.313   1.432
 1882SOL    HW1 6533   1.371   4.282   1.517
 1882SOL    HW2 6534   1.376   4.401   1.424
 1883SOL     OW 6535   0.814   5.119   0.937
 1883SOL    HW1 6536   0.895   5.105   0.887
 1883SOL    HW2 6537   0.746   5.125   0.871
 1884SOL     OW 6538   0.928   4.234   0.902
 1884SOL    HW1 6539   0.904   4.225   0.810
 1884SOL    HW2 6540   0.959   4.146   0.927
 1885SOL     OW 6541   0.561   3.786   0.500
 1885SOL    HW1 6542   0.486   3.785   0.559
 1885SOL    HW2 6543   0.549   3.865   0.447
 1886SOL     OW 6544   1.425   4.925   0.035
 1886SOL    HW1 6545   1.453   4.852   0.089
 1886SOL    HW2 6546   1.339   4.949   0.069
 1887SOL     OW 6547   0.315   3.772   0.176
 1887SOL    HW1 6548   0.380   3.842   0.182
 1887SOL    HW2 6549   0.356   3.697   0.219
 1888SOL     OW 6550   0.942   3.972   0.458
 1888SOL    HW1 6551   0.914   4.013   0.376
 1888SOL    HW2 6552   1.036   3.989   0.462
 1889SOL     OW 6553   1.080   4.405   1.460
 1889SOL    HW1 6554   1.011   4.338   1.464
 1889SOL    HW2 6555   1.161   4.356   1.453
 1890SOL     OW 6556   1.263   5.265   0.780
 1890SOL    HW1 6557   1.220   0.045   0.749
 1890SOL    HW2 6558   1.307   5.291   0.860
 1891SOL     OW 6559   0.466   4.875   0.728
 1891SOL    HW1 6560   0.398   4.854   0.791
 1891SOL    HW2 6561   0.426   4.857   0.643
 1892SOL     OW 6562   1.032   4.251   0.032
 1892SOL    HW1 6563   0.990   4.332   0.003
 1892SOL    HW2 6564   1.094   4.278   0.099
 1893SOL     OW 6565   0.089   4.268   1.399
 1893SOL    HW1 6566   0.177   4.276   1.361
 1893SOL    HW2 6567   0.079   4.345   1.455
 1894SOL     OW 6568   0.560   3.952   1.167
 1894SOL    HW1 6569   0.598   3.872   1.205
 1894SOL    HW2 6570   0.468   3.950   1.194
 1895SOL     OW 6571   0.867   4.182   0.639
 1895SOL    HW1 6572   0.825   4.238   0.574
 1895SOL    HW2 6573   0.889   4.102   0.591
 1896SOL     OW 6574   1.016   3.777   0.749
 1896SOL    HW1 6575   0.956   3.770   0.675
 1896SOL    HW2 6576   0.994   3.702   0.805
 1897SOL     OW 6577   1.438   4.890   0.859
 1897SOL    HW1 6578   1.370   4.822   0.856
 1897SOL    HW2 6579   1.463   4.903   0.767
 1898SOL     OW 6580   1.466   4.330   0.975
 1898SOL    HW1 6581   1.414   4.250   0.979
 1898SOL    HW2 6582   1.525   4.323   1.050
 1899SOL     OW 6583   1.848   4.538   0.388
 1899SOL    HW1 6584   1.901   4.486   0.448
 1899SOL    HW2 6585   1.817   4.476   0.322
 1900SOL     OW 6586   0.473   5.158   0.156
 1900SOL    HW1 6587   0.421   5.110   0.220
 1900SOL    HW2 6588   0.504   5.092   0.095
 1901SOL     OW 6589   1.671   4.988   0.647
 1901SOL    HW1 6590   1.764   4.995   0.665
 1901SOL    HW2 6591   1.636   5.076   0.663
 1902SOL     OW 6592   1.398   4.302   0.088
 1902SOL    HW1 6593   1.336   4.283   0.158
 1902SOL    HW2 6594   1.452   4.223   0.082
 1903SOL     OW 6595   0.514   3.987   0.323
 1903SOL    HW1 6596   0.565   3.936   0.260
 1903SOL    HW2 6597   0.500   4.071   0.279
 1904SOL     OW 6598   1.751   4.960   1.574
 1904SOL    HW1 6599   1.836   4.917   1.574
 1904SOL    HW2 6600   1.770   5.053   1.586
 1905SOL     OW 6601   1.064   5.075   1.331
 1905SOL    HW1 6602   0.985   5.048   1.378
 1905SOL    HW2 6603   1.136   5.035   1.380
 1906SOL     OW 6604   1.128   4.927   1.107
 1906SOL    HW1 6605   1.077   4.968   1.177
 1906SOL    HW2 6606   1.082   4.951   1.027
 1907SOL     OW 6607   1.628   4.822   1.076
 1907SOL    HW1 6608   1.623   4.883   1.149
 1907SOL    HW2 6609   1.551   4.841   1.023
 1908SOL     OW 6610   0.919   3.820   1.396
 1908SOL    HW1 6611   0.941   3.802   1.305
 1908SOL    HW2 6612   0.998   3.860   1.432
 1909SOL     OW 6613   0.984   4.839   1.725
 1909SOL    HW1 6614   0.892   4.855   1.744
 1909SOL    HW2 6615   0.984   4.762   1.668
 1910SOL     OW 6616   0.710   4.782   0.381
 1910SOL    HW1 6617   0.694   4.766   0.474
 1910SOL    HW2 6618   0.790   4.734   0.362
 1911SOL     OW 6619   0.421   4.543   1.252
 1911SOL    HW1 6620   0.490   4.550   1.318
 1911SOL    HW2 6621   0.386   4.455   1.262
 1912SOL     OW 6622   1.265   4.100   1.276
 1912SOL    HW1 6623   1.297   4.178   1.322
 1912SOL    HW2 6624   1.174   4.122   1.254
 1913SOL     OW 6625   0.112   5.287   1.321
 1913SOL    HW1 6626   0.052   0.046   1.367
 1913SOL    HW2 6627   0.190   5.285   1.375
 1914SOL     OW 6628   0.346   4.829   0.486
 1914SOL    HW1 6629   0.338   4.908   0.432
 1914SOL    HW2 6630   0.356   4.758   0.423
 1915SOL     OW 6631   0.553   4.258   0.859
 1915SOL    HW1 6632   0.568   4.317   0.785
 1915SOL    HW2 6633   0.618   4.285   0.924
 1916SOL     OW 6634   1.258   5.073   0.385
 1916SOL    HW1 6635   1.312   5.148   0.410
 1916SOL    HW2 6636   1.169   5.097   0.412
 1917SOL     OW 6637   1.270   5.183   1.141
 1917SOL    HW1 6638   1.329   5.196   1.216
 1917SOL    HW2 6639   1.226   5.100   1.160
 1918SOL     OW 6640   1.582   4.347   0.483
 1918SOL    HW1 6641   1.532   4.396   0.548
 1918SOL    HW2 6642   1.616   4.414   0.424
 1919SOL     OW 6643   0.382   5.232   1.314
 1919SOL    HW1 6644   0.366   5.193   1.228
 1919SOL    HW2 6645   0.474   5.257   1.312
 1920SOL     OW 6646   0.415   4.466   1.602
 1920SOL    HW1 6647   0.476   4.512   1.545
 1920SOL    HW2 6648   0.453   4.380   1.615
 1921SOL     OW 6649   1.603   4.503   1.683
 1921SOL    HW1 6650   1.517   4.544   1.676
 1921SOL    HW2 6651   1.655   4.545   1.614
 1922SOL     OW 6652   0.996   3.849   1.755
 1922SOL    HW1 6653   1.053   3.921   1.728
 1922SOL    HW2 6654   1.044   3.770   1.729
 1923SOL     OW 6655   0.497   3.765   1.748
 1923SOL    HW1 6656   0.454   3.711   1.682
 1923SOL    HW2 6657   0.438   3.839   1.761
 1924SOL     OW 6658   0.586   4.597   1.032
 1924SOL    HW1 6659   0.615   4.688   1.030
 1924SOL    HW2 6660   0.529   4.592   1.109
 1925SOL     OW 6661   1.356   4.582   1.027
 1925SOL    HW1 6662   1.272   4.571   0.983
 1925SOL    HW2 6663   1.398   4.496   1.021
 1926SOL     OW 6664   1.202   4.252   0.270
 1926SOL    HW1 6665   1.210   4.173   0.324
 1926SOL    HW2 6666   1.159   4.315   0.327
 1927SOL     OW 6667   0.301   3.927   1.247
 1927SOL    HW1 6668   0.267   3.951   1.333
 1927SOL    HW2 6669   0.289   3.832   1.242
 1928SOL     OW 6670   0.042   5.021   1.277
 1928SOL    HW1 6671   0.073   4.971   1.352
 1928SOL    HW2 6672   0.045   5.112   1.305
 1929SOL     OW 6673   0.723   4.354   1.057
 1929SOL    HW1 6674   0.799   4.340   1.000
 1929SOL    HW2 6675   0.695   4.444   1.037
 1930SOL     OW 6676   1.735   4.684   1.853
 1930SOL    HW1 6677   1.690   4.620   1.797
 1930SOL    HW2 6678   1.675   4.698   1.926
 1931SOL     OW 6679   0.325   3.787   0.635
 1931SOL    HW1 6680   0.309   3.877   0.664
 1931SOL    HW2 6681   0.332   3.737   0.716
 1932SOL     OW 6682   1.623   4.100   0.369
 1932SOL    HW1 6683   1.646   4.035   0.434
 1932SOL    HW2 6684   1.597   4.177   0.420
 1933SOL     OW 6685   1.028   4.483   0.960
 1933SOL    HW1 6686   1.024   4.500   1.054
 1933SOL    HW2 6687   1.002   4.391   0.951
 1934SOL     OW 6688   1.854   5.213   1.583
 1934SOL    HW1 6689   1.846   5.290   1.527
 1934SOL    HW2 6690   1.924   5.236   1.645
 1935SOL     OW 6691   0.355   4.643   1.806
 1935SOL    HW1 6692   0.436   4.660   1.854
 1935SOL    HW2 6693   0.380   4.577   1.741
 1936SOL     OW 6694   1.515   4.027   0.127
 1936SOL    HW1 6695   1.467   3.946   0.143
 1936SOL    HW2 6696   1.557   4.047   0.211
 1937SOL     OW 6697   1.295   4.547   0.019
 1937SOL    HW1 6698   1.333   4.461   0.037
 1937SOL    HW2 6699   1.357   4.587   8.038
 1938SOL     OW 6700   1.058   5.079   0.826
 1938SOL    HW1 6701   1.064   4.994   0.782
 1938SOL    HW2 6702   1.144   5.119   0.812
 1939SOL     OW 6703   0.314   4.532   0.948
 1939SOL    HW1 6704   0.408   4.550   0.945
 1939SOL    HW2 6705   0.308   4.442   0.981
 1940SOL     OW 6706   0.334   4.250   1.016
 1940SOL    HW1 6707   0.299   4.162   1.001
 1940SOL    HW2 6708   0.409   4.255   0.956
 1941SOL     OW 6709   1.134   4.099   1.683
 1941SOL    HW1 6710   1.086   4.154   1.745
 1941SOL    HW2 6711   1.221   4.138   1.679
 1942SOL     OW 6712   1.161   3.926   1.470
 1942SOL    HW1 6713   1.150   3.989   1.542
 1942SOL    HW2 6714   1.201   3.976   1.400
 1943SOL     OW 6715   0.012   5.051   0.197
 1943SOL    HW1 6716   5.222   5.054   0.166
 1943SOL    HW2 6717   0.018   4.967   0.243
 1944SOL     OW 6718   0.981   4.515   1.226
 1944SOL    HW1 6719   1.038   4.493   1.300
 1944SOL    HW2 6720   0.896   4.477   1.249
 1945SOL     OW 6721   0.031   4.278   1.115
 1945SOL    HW1 6722   0.121   4.264   1.084
 1945SOL    HW2 6723   0.037   4.266   1.210
 1946SOL     OW 6724   0.174   4.237   1.712
 1946SOL    HW1 6725   0.238   4.199   1.652
 1946SOL    HW2 6726   0.147   4.319   1.670
 1947SOL     OW 6727   1.377   4.662   1.658
 1947SOL    HW1 6728   1.398   4.755   1.655
 1947SOL    HW2 6729   1.374   4.635   1.566
 1948SOL     OW 6730   0.819   4.294   0.368
 1948SOL    HW1 6731   0.829   4.222   0.306
 1948SOL    HW2 6732   0.743   4.342   0.337
 1949SOL     OW 6733   1.642   4.325   1.185
 1949SOL    HW1 6734   1.631   4.267   1.260
 1949SOL    HW2 6735   1.729   4.306   1.151
 1950SOL     OW 6736   0.209   5.279   1.732
 1950SOL    HW1 6737   0.171   0.021   1.809
 1950SOL    HW2 6738   0.213   5.186   1.754
 1951SOL     OW 6739   0.704   4.173   1.259
 1951SOL    HW1 6740   0.650   4.099   1.230
 1951SOL    HW2 6741   0.698   4.236   1.187
 1952SOL     OW 6742   0.467   4.214   0.178
 1952SOL    HW1 6743   0.532   4.280   0.201
 1952SOL    HW2 6744   0.383   4.260   0.181
 1953SOL     OW 6745   0.151   4.861   1.472
 1953SOL    HW1 6746   0.146   4.812   1.555
 1953SOL    HW2 6747   0.160   4.793   1.405
 1954SOL     OW 6748   1.326   4.769   1.222
 1954SOL    HW1 6749   1.348   4.706   1.153
 1954SOL    HW2 6750   1.256   4.822   1.184
 1955SOL     OW 6751   1.307   4.573   0.307
 1955SOL    HW1 6752   1.231   4.544   0.357
 1955SOL    HW2 6753   1.281   4.561   0.216
 1956SOL     OW 6754   0.075   4.915   1.031
 1956SOL    HW1 6755   0.062   4.957   1.116
 1956SOL    HW2 6756   5.289   4.921   0.989
 1957SOL     OW 6757   0.753   0.037   1.709
 1957SOL    HW1 6758   0.660   0.059   1.718
 1957SOL    HW2 6759   0.774   0.060   1.618
 1958SOL     OW 6760   0.905   3.816   0.132
 1958SOL    HW1 6761   0.922   3.799   0.039
 1958SOL    HW2 6762   0.970   3.763   0.178
 1959SOL     OW 6763   1.719   3.870   0.509
 1959SOL    HW1 6764   1.791   3.854   0.448
 1959SOL    HW2 6765   1.704   3.786   0.551
 1960SOL     OW 6766   1.277   4.649   0.672
 1960SOL    HW1 6767   1.351   4.589   0.679
 1960SOL    HW2 6768   1.311   4.722   0.618
 1961SOL     OW 6769   0.817   4.993   1.418
 1961SOL    HW1 6770   0.785   5.029   1.501
 1961SOL    HW2 6771   0.742   5.000   1.358
 1962SOL     OW 6772   1.841   3.897   0.966
 1962SOL    HW1 6773   1.870   3.809   0.940
 1962SOL    HW2 6774   1.754   3.906   0.927
 1963SOL     OW 6775   0.270   4.040   0.716
 1963SOL    HW1 6776   0.188   4.085   0.698
 1963SOL    HW2 6777   0.271   4.030   0.811
 1964SOL     OW 6778   1.139   0.018   0.002
 1964SOL    HW1 6779   1.154   5.229   0.033
 1964SOL    HW2 6780   1.145   0.012   7.987
 1965SOL     OW 6781   0.825   4.727   1.371
 1965SOL    HW1 6782   0.870   4.720   1.287
 1965SOL    HW2 6783   0.828   4.820   1.392
 1966SOL     OW 6784   0.918   4.638   0.298
 1966SOL    HW1 6785   0.973   4.664   0.225
 1966SOL    HW2 6786   0.967   4.567   0.340
 1967SOL     OW 6787   0.365   5.029   1.500
 1967SOL    HW1 6788   0.366   5.098   1.434
 1967SOL    HW2 6789   0.291   4.974   1.477
 1968SOL     OW 6790   1.613   5.004   1.282
 1968SOL    HW1 6791   1.668   4.996   1.359
 1968SOL    HW2 6792   1.550   5.073   1.305
 1969SOL     OW 6793   1.056   4.834   0.713
 1969SOL    HW1 6794   0.984   4.783   0.749
 1969SOL    HW2 6795   1.117   4.768   0.680
 1970SOL     OW 6796   1.022   3.965   0.966
 1970SOL    HW1 6797   1.017   3.917   0.883
 1970SOL    HW2 6798   1.016   3.897   1.033
 1971SOL     OW 6799   1.723   4.116   1.380
 1971SOL    HW1 6800   1.795   4.179   1.379
 1971SOL    HW2 6801   1.752   4.045   1.324
 1972SOL     OW 6802   0.271   5.034   0.296
 1972SOL    HW1 6803   0.189   5.047   0.248
 1972SOL    HW2 6804   0.258   5.082   0.379
 1973SOL     OW 6805   0.117   4.742   1.719
 1973SOL    HW1 6806   0.046   4.704   1.771
 1973SOL    HW2 6807   0.197   4.709   1.760
 1974SOL     OW 6808   0.675   3.920   1.499
 1974SOL    HW1 6809   0.759   3.900   1.458
 1974SOL    HW2 6810   0.698   3.952   1.587
 1975SOL     OW 6811   0.043   4.114   0.026
 1975SOL    HW1 6812   0.019   4.030   0.065
 1975SOL    HW2 6813   0.125   4.096   8.060
 1976SOL     OW 6814   1.429   4.582   1.400
 1976SOL    HW1 6815   1.380   4.642   1.344
 1976SOL    HW2 6816   1.518   4.584   1.365
 1977SOL     OW 6817   0.053   3.859   0.213
 1977SOL    HW1 6818   0.054   3.944   0.257
 1977SOL    HW2 6819   0.145   3.835   0.204
 1978SOL     OW 6820   1.182   5.063   0.111
 1978SOL    HW1 6821   1.088   5.049   0.108
 1978SOL    HW2 6822   1.204   5.059   0.204
 1979SOL     OW 6823   0.620   4.555   1.436
 1979SOL    HW1 6824   0.676   4.630   1.419
 1979SOL    HW2 6825   0.680   4.481   1.444
 1980SOL     OW 6826   0.718   4.287   1.704
 1980SOL    HW1 6827   0.760   4.349   1.764
 1980SOL    HW2 6828   0.743   4.201   1.736
 1981SOL     OW 6829   1.474   4.922   1.630
 1981SOL    HW1 6830   1.461   4.934   1.724
 1981SOL    HW2 6831   1.568   4.936   1.618
 1982SOL     OW 6832   1.669   4.605   1.255
 1982SOL    HW1 6833   1.662   4.520   1.212
 1982SOL    HW2 6834   1.658   4.669   1.184
 1983SOL     OW 6835   1.217   4.042   0.460
 1983SOL    HW1 6836   1.282   3.972   0.453
 1983SOL    HW2 6837   1.244   4.093   0.536
 1984SOL     OW 6838   0.589   4.460   0.669
 1984SOL    HW1 6839   0.627   4.546   0.657
 1984SOL    HW2 6840   0.518   4.455   0.604
 1985SOL     OW 6841   1.761   4.086   1.651
 1985SOL    HW1 6842   1.745   4.102   1.558
 1985SOL    HW2 6843   1.689   4.030   1.679
 1986SOL     OW 6844   1.745   4.657   1.512
 1986SOL    HW1 6845   1.739   4.752   1.524
 1986SOL    HW2 6846   1.730   4.645   1.418
 1987SOL     OW 6847   0.911   5.095   0.036
 1987SOL    HW1 6848   0.852   5.076   0.109
 1987SOL    HW2 6849   0.863   5.158   8.062
 1988SOL     OW 6850   0.869   4.692   0.855
 1988SOL    HW1 6851   0.918   4.620   0.895
 1988SOL    HW2 6852   0.833   4.741   0.929
 1989SOL     OW 6853   1.079   4.701   0.088
 1989SOL    HW1 6854   1.061   4.758   0.013
 1989SOL    HW2 6855   1.156   4.650   0.061
 1990SOL     OW 6856   0.219   5.024   1.855
 1990SOL    HW1 6857   0.155   4.955   1.836
 1990SOL    HW2 6858   0.216   5.034   1.950
 1991SOL     OW 6859   0.082   4.926   0.656
 1991SOL    HW1 6860   0.107   4.902   0.746
 1991SOL    HW2 6861   0.165   4.948   0.614
 1992SOL     OW 6862   0.673   5.104   1.610
 1992SOL    HW1 6863   0.595   5.073   1.656
 1992SOL    HW2 6864   0.705   5.176   1.663
 1993SOL     OW 6865   1.812   3.908   1.237
 1993SOL    HW1 6866   1.822   3.814   1.252
 1993SOL    HW2 6867   1.822   3.919   1.143
 1994SOL     OW 6868   0.433   4.163   0.524
 1994SOL    HW1 6869   0.462   4.090   0.469
 1994SOL    HW2 6870   0.387   4.122   0.596
 1995SOL     OW 6871   1.707   5.224   1.119
 1995SOL    HW1 6872   1.633   5.208   1.060
 1995SOL    HW2 6873   1.713   5.145   1.172
 1996SOL     OW 6874   0.338   4.284   1.292
 1996SOL    HW1 6875   0.390   4.225   1.345
 1996SOL    HW2 6876   0.351   4.254   1.202
 1997SOL     OW 6877   1.432   3.950   1.118
 1997SOL    HW1 6878   1.455   3.869   1.164
 1997SOL    HW2 6879   1.380   3.999   1.181
 1998SOL     OW 6880   1.009   3.742   1.141
 1998SOL    HW1 6881   0.954   3.675   1.101
 1998SOL    HW2 6882   1.097   3.704   1.143
 1999SOL     OW 6883   0.798   5.038   0.281
 1999SOL    HW1 6884   0.743   4.965   0.308
 1999SOL    HW2 6885   0.854   5.056   0.357
 2000SOL     OW 6886   0.641   0.003   1.288
 2000SOL    HW1 6887   0.644   0.057   1.367
 2000SOL    HW2 6888   0.733   5.286   1.267
 2001SOL     OW 6889   1.356   3.779   0.185
 2001SOL    HW1 6890   1.377   3.731   0.105
 2001SOL    HW2 6891   1.270   3.746   0.211
 2002SOL     OW 6892   1.297   4.186   0.681
 2002SOL    HW1 6893   1.243   4.265   0.687
 2002SOL    HW2 6894   1.292   4.146   0.768
 2003SOL     OW 6895   1.586   3.925   0.879
 2003SOL    HW1 6896   1.527   3.946   0.950
 2003SOL    HW2 6897   1.585   4.003   0.823
 2004SOL     OW 6898   0.042   4.801   0.308
 2004SOL    HW1 6899   0.133   4.775   0.294
 2004SOL    HW2 6900   5.295   4.719   0.321
 2005SOL     OW 6901   0.233   4.355   1.978
 2005SOL    HW1 6902   0.161   4.320   2.031
 2005SOL    HW2 6903   0.217   4.322   1.890
 2006SOL     OW 6904   0.243   3.999   2.851
 2006SOL    HW1 6905   0.256   3.964   2.939
 2006SOL    HW2 6906   0.158   3.964   2.824
 2007SOL     OW 6907   5.298   4.122   2.516
 2007SOL    HW1 6908   5.205   4.145   2.520
 2007SOL    HW2 6909   5.299   4.032   2.483
 2008SOL     OW 6910   0.575   5.001   3.047
 2008SOL    HW1 6911   0.496   5.007   2.994
 2008SOL    HW2 6912   0.593   5.092   3.073
 2009SOL     OW 6913   1.556   5.232   2.551
 2009SOL    HW1 6914   1.538   5.228   2.645
 2009SOL    HW2 6915   1.476   5.268   2.512
 2010SOL     OW 6916   1.130   4.422   2.562
 2010SOL    HW1 6917   1.179   4.503   2.548
 2010SOL    HW2 6918   1.084   4.436   2.644
 2011SOL     OW 6919   1.768   4.329   2.090
 2011SOL    HW1 6920   1.746   4.321   1.997
 2011SOL    HW2 6921   1.732   4.249   2.129
 2012SOL     OW 6922   0.757   4.866   2.900
 2012SOL    HW1 6923   0.691   4.896   2.962
 2012SOL    HW2 6924   0.786   4.946   2.855
 2013SOL     OW 6925   0.869   4.497   3.685
 2013SOL    HW1 6926   0.856   4.568   3.747
 2013SOL    HW2 6927   0.892   4.540   3.602
 2014SOL     OW 6928   0.685   4.725   2.509
 2014SOL    HW1 6929   0.751   4.715   2.578
 2014SOL    HW2 6930   0.618   4.780   2.549
 2015SOL     OW 6931   0.708   4.871   3.675
 2015SOL    HW1 6932   0.756   4.951   3.699
 2015SOL    HW2 6933   0.626   4.903   3.639
 2016SOL     OW 6934   0.377   5.146   2.915
 2016SOL    HW1 6935   0.283   5.157   2.903
 2016SOL    HW2 6936   0.417   5.196   2.844
 2017SOL     OW 6937   1.454   5.221   3.210
 2017SOL    HW1 6938   1.509   5.293   3.241
 2017SOL    HW2 6939   1.387   5.211   3.277
 2018SOL     OW 6940   0.451   4.124   3.354
 2018SOL    HW1 6941   0.525   4.063   3.355
 2018SOL    HW2 6942   0.374   4.068   3.364
 2019SOL     OW 6943   1.611   4.171   2.603
 2019SOL    HW1 6944   1.536   4.193   2.547
 2019SOL    HW2 6945   1.624   4.250   2.656
 2020SOL     OW 6946   1.133   5.073   3.564
 2020SOL    HW1 6947   1.163   5.074   3.655
 2020SOL    HW2 6948   1.080   4.994   3.557
 2021SOL     OW 6949   0.212   5.151   2.396
 2021SOL    HW1 6950   0.253   5.230   2.431
 2021SOL    HW2 6951   0.131   5.142   2.445
 2022SOL     OW 6952   0.253   4.798   2.737
 2022SOL    HW1 6953   0.265   4.711   2.775
 2022SOL    HW2 6954   0.196   4.844   2.799
 2023SOL     OW 6955   0.581   4.707   1.998
 2023SOL    HW1 6956   0.629   4.753   1.929
 2023SOL    HW2 6957   0.621   4.736   2.079
 2024SOL     OW 6958   1.597   3.847   3.329
 2024SOL    HW1 6959   1.604   3.928   3.279
 2024SOL    HW2 6960   1.581   3.875   3.419
 2025SOL     OW 6961   0.127   4.355   2.441
 2025SOL    HW1 6962   0.088   4.273   2.473
 2025SOL    HW2 6963   0.100   4.420   2.505
 2026SOL     OW 6964   5.299   5.299   1.944
 2026SOL    HW1 6965   0.013   5.210   1.979
 2026SOL    HW2 6966   0.027   0.057   2.015
 2027SOL     OW 6967   1.689   4.642   2.504
 2027SOL    HW1 6968   1.772   4.599   2.482
 2027SOL    HW2 6969   1.667   4.693   2.425
 2028SOL     OW 6970   1.646   4.830   2.291
 2028SOL    HW1 6971   1.732   4.834   2.249
 2028SOL    HW2 6972   1.653   4.891   2.365
 2029SOL     OW 6973   0.132   4.472   3.447
 2029SOL    HW1 6974   0.226   4.487   3.447
 2029SOL    HW2 6975   0.094   4.559   3.461
 2030SOL     OW 6976   0.627   5.097   2.599
 2030SOL    HW1 6977   0.570   5.020   2.597
 2030SOL    HW2 6978   0.602   5.146   2.520
 2031SOL     OW 6979   1.288   4.953   3.288
 2031SOL    HW1 6980   1.322   4.888   3.227
 2031SOL    HW2 6981   1.349   4.951   3.362
 2032SOL     OW 6982   0.824   3.724   2.373
 2032SOL    HW1 6983   0.864   3.808   2.352
 2032SOL    HW2 6984   0.730   3.742   2.378
 2033SOL     OW 6985   0.175   4.665   3.145
 2033SOL    HW1 6986   0.264   4.635   3.132
 2033SOL    HW2 6987   0.135   4.658   3.058
 2034SOL     OW 6988   1.531   4.720   2.060
 2034SOL    HW1 6989   1.461   4.662   2.092
 2034SOL    HW2 6990   1.572   4.754   2.139
 2035SOL     OW 6991   0.339   3.977   3.682
 2035SOL    HW1 6992   0.385   4.060   3.694
 2035SOL    HW2 6993   0.250   3.994   3.715
 2036SOL     OW 6994   1.478   5.147   2.824
 2036SOL    HW1 6995   1.405   5.160   2.885
 2036SOL    HW2 6996   1.465   5.059   2.790
 2037SOL     OW 6997   0.595   4.444   2.129
 2037SOL    HW1 6998   0.602   4.526   2.079
 2037SOL    HW2 6999   0.531   4.463   2.197
 2038SOL     OW 7000   1.279   4.079   2.795
 2038SOL    HW1 7001   1.190   4.045   2.803
 2038SOL    HW2 7002   1.330   4.026   2.855
 2039SOL     OW 7003   0.792   4.342   3.313
 2039SOL    HW1 7004   0.765   4.317   3.401
 2039SOL    HW2 7005   0.753   4.274   3.257
 2040SOL     OW 7006   1.393   4.198   3.540
 2040SOL    HW1 7007   1.396   4.243   3.624
 2040SOL    HW2 7008   1.454   4.125   3.549
 2041SOL     OW 7009   0.954   4.612   3.445
 2041SOL    HW1 7010   1.008   4.541   3.410
 2041SOL    HW2 7011   0.906   4.645   3.370
 2042SOL     OW 7012   0.992   4.136   3.100
 2042SOL    HW1 7013   0.905   4.156   3.135
 2042SOL    HW2 7014   0.975   4.090   3.018
 2043SOL     OW 7015   1.051   4.422   2.288
 2043SOL    HW1 7016   1.067   4.415   2.382
 2043SOL    HW2 7017   0.969   4.376   2.274
 2044SOL     OW 7018   0.072   4.510   2.671
 2044SOL    HW1 7019   0.152   4.515   2.723
 2044SOL    HW2 7020   0.063   4.597   2.632
 2045SOL     OW 7021   0.895   4.073   2.056
 2045SOL    HW1 7022   0.934   4.135   1.995
 2045SOL    HW2 7023   0.909   3.988   2.016
 2046SOL     OW 7024   1.708   4.298   3.690
 2046SOL    HW1 7025   1.670   4.371   3.642
 2046SOL    HW2 7026   1.735   4.236   3.623
 2047SOL     OW 7027   1.378   4.864   2.401
 2047SOL    HW1 7028   1.459   4.850   2.352
 2047SOL    HW2 7029   1.328   4.925   2.347
 2048SOL     OW 7030   0.557   3.907   2.756
 2048SOL    HW1 7031   0.553   3.936   2.847
 2048SOL    HW2 7032   0.551   3.988   2.705
 2049SOL     OW 7033   1.023   5.168   2.334
 2049SOL    HW1 7034   0.946   5.225   2.331
 2049SOL    HW2 7035   1.038   5.153   2.427
 2050SOL     OW 7036   1.801   4.780   2.729
 2050SOL    HW1 7037   1.745   4.762   2.653
 2050SOL    HW2 7038   1.740   4.787   2.803
 2051SOL     OW 7039   1.251   5.240   3.387
 2051SOL    HW1 7040   1.215   5.173   3.446
 2051SOL    HW2 7041   1.179   5.261   3.328
 2052SOL     OW 7042   0.316   4.676   2.110
 2052SOL    HW1 7043   0.397   4.698   2.065
 2052SOL    HW2 7044   0.292   4.590   2.075
 2053SOL     OW 7045   1.479   4.468   2.589
 2053SOL    HW1 7046   1.471   4.425   2.674
 2053SOL    HW2 7047   1.557   4.523   2.596
 2054SOL     OW 7048   0.463   4.989   3.605
 2054SOL    HW1 7049   0.438   4.992   3.513
 2054SOL    HW2 7050   0.380   4.989   3.653
 2055SOL     OW 7051   1.065   0.178   2.067
 2055SOL    HW1 7052   1.082   0.105   2.126
 2055SOL    HW2 7053   1.096   0.147   1.982
 2056SOL     OW 7054   0.205   4.003   3.360
 2056SOL    HW1 7055   0.127   4.055   3.342
 2056SOL    HW2 7056   0.173   3.923   3.401
 2057SOL     OW 7057   1.622   5.101   1.971
 2057SOL    HW1 7058   1.623   5.175   1.910
 2057SOL    HW2 7059   1.554   5.043   1.937
 2058SOL     OW 7060   1.401   3.832   2.296
 2058SOL    HW1 7061   1.392   3.806   2.204
 2058SOL    HW2 7062   1.496   3.837   2.310
 2059SOL     OW 7063   0.387   4.419   2.341
 2059SOL    HW1 7064   0.415   4.329   2.350
 2059SOL    HW2 7065   0.293   4.417   2.361
 2060SOL     OW 7066   1.534   3.948   3.587
 2060SOL    HW1 7067   1.544   3.969   3.680
 2060SOL    HW2 7068   1.464   3.883   3.584
 2061SOL     OW 7069   0.635   3.846   1.966
 2061SOL    HW1 7070   0.704   3.780   1.979
 2061SOL    HW2 7071   0.586   3.815   1.890
 2062SOL     OW 7072   0.766   4.003   3.617
 2062SOL    HW1 7073   0.843   3.945   3.617
 2062SOL    HW2 7074   0.717   3.978   3.695
 2063SOL     OW 7075   1.340   4.313   3.294
 2063SOL    HW1 7076   1.371   4.282   3.379
 2063SOL    HW2 7077   1.376   4.401   3.286
 2064SOL     OW 7078   0.815   5.119   2.799
 2064SOL    HW1 7079   0.895   5.105   2.749
 2064SOL    HW2 7080   0.746   5.125   2.733
 2065SOL     OW 7081   0.928   4.234   2.764
 2065SOL    HW1 7082   0.904   4.225   2.672
 2065SOL    HW2 7083   0.959   4.146   2.789
 2066SOL     OW 7084   0.561   3.785   2.357
 2066SOL    HW1 7085   0.486   3.785   2.417
 2066SOL    HW2 7086   0.550   3.864   2.304
 2067SOL     OW 7087   1.428   4.924   1.900
 2067SOL    HW1 7088   1.458   4.849   1.950
 2067SOL    HW2 7089   1.340   4.942   1.933
 2068SOL     OW 7090   0.306   3.771   2.040
 2068SOL    HW1 7091   0.368   3.835   2.005
 2068SOL    HW2 7092   0.360   3.707   2.086
 2069SOL     OW 7093   0.940   3.972   2.321
 2069SOL    HW1 7094   0.914   4.012   2.238
 2069SOL    HW2 7095   1.035   3.986   2.326
 2070SOL     OW 7096   1.080   4.405   3.322
 2070SOL    HW1 7097   1.011   4.338   3.325
 2070SOL    HW2 7098   1.161   4.356   3.314
 2071SOL     OW 7099   1.264   5.266   2.639
 2071SOL    HW1 7100   1.218   0.046   2.614
 2071SOL    HW2 7101   1.309   5.289   2.721
 2072SOL     OW 7102   0.466   4.874   2.589
 2072SOL    HW1 7103   0.398   4.853   2.653
 2072SOL    HW2 7104   0.426   4.854   2.504
 2073SOL     OW 7105   1.023   4.265   1.886
 2073SOL    HW1 7106   0.980   4.348   1.866
 2073SOL    HW2 7107   1.089   4.286   1.952
 2074SOL     OW 7108   0.089   4.267   3.261
 2074SOL    HW1 7109   0.176   4.276   3.223
 2074SOL    HW2 7110   0.080   4.344   3.317
 2075SOL     OW 7111   0.560   3.952   3.029
 2075SOL    HW1 7112   0.598   3.872   3.066
 2075SOL    HW2 7113   0.468   3.950   3.056
 2076SOL     OW 7114   0.868   4.183   2.501
 2076SOL    HW1 7115   0.822   4.237   2.437
 2076SOL    HW2 7116   0.889   4.103   2.454
 2077SOL     OW 7117   1.015   3.778   2.613
 2077SOL    HW1 7118   0.957   3.770   2.537
 2077SOL    HW2 7119   0.994   3.702   2.668
 2078SOL     OW 7120   1.438   4.890   2.721
 2078SOL    HW1 7121   1.371   4.822   2.717
 2078SOL    HW2 7122   1.464   4.902   2.629
 2079SOL     OW 7123   1.466   4.330   2.837
 2079SOL    HW1 7124   1.414   4.250   2.840
 2079SOL    HW2 7125   1.525   4.323   2.912
 2080SOL     OW 7126   1.845   4.539   2.245
 2080SOL    HW1 7127   1.901   4.488   2.303
 2080SOL    HW2 7128   1.817   4.476   2.178
 2081SOL     OW 7129   0.482   5.145   2.013
 2081SOL    HW1 7130   0.421   5.095   2.066
 2081SOL    HW2 7131   0.485   5.099   1.929
 2082SOL     OW 7132   1.670   4.987   2.508
 2082SOL    HW1 7133   1.764   4.993   2.525
 2082SOL    HW2 7134   1.636   5.075   2.524
 2083SOL     OW 7135   1.394   4.296   1.933
 2083SOL    HW1 7136   1.333   4.276   2.004
 2083SOL    HW2 7137   1.478   4.263   1.965
 2084SOL     OW 7138   0.524   3.987   2.178
 2084SOL    HW1 7139   0.570   3.941   2.108
 2084SOL    HW2 7140   0.501   4.071   2.139
 2085SOL     OW 7141   1.751   4.960   3.436
 2085SOL    HW1 7142   1.836   4.917   3.436
 2085SOL    HW2 7143   1.770   5.053   3.448
 2086SOL     OW 7144   1.064   5.075   3.193
 2086SOL    HW1 7145   0.985   5.048   3.240
 2086SOL    HW2 7146   1.136   5.035   3.242
 2087SOL     OW 7147   1.128   4.927   2.969
 2087SOL    HW1 7148   1.077   4.968   3.040
 2087SOL    HW2 7149   1.081   4.950   2.889
 2088SOL     OW 7150   1.628   4.822   2.938
 2088SOL    HW1 7151   1.623   4.883   3.011
 2088SOL    HW2 7152   1.550   4.841   2.886
 2089SOL     OW 7153   0.919   3.820   3.258
 2089SOL    HW1 7154   0.941   3.802   3.167
 2089SOL    HW2 7155   0.998   3.860   3.294
 2090SOL     OW 7156   0.984   4.839   3.587
 2090SOL    HW1 7157   0.892   4.855   3.606
 2090SOL    HW2 7158   0.984   4.762   3.530
 2091SOL     OW 7159   0.704   4.782   2.234
 2091SOL    HW1 7160   0.693   4.766   2.328
 2091SOL    HW2 7161   0.781   4.732   2.210
 2092SOL     OW 7162   0.421   4.543   3.114
 2092SOL    HW1 7163   0.490   4.550   3.181
 2092SOL    HW2 7164   0.386   4.455   3.124
 2093SOL     OW 7165   1.264   4.100   3.139
 2093SOL    HW1 7166   1.297   4.178   3.184
 2093SOL    HW2 7167   1.174   4.122   3.116
 2094SOL     OW 7168   0.112   5.290   3.181
 2094SOL    HW1 7169   0.051   0.044   3.230
 2094SOL    HW2 7170   0.190   5.284   3.236
 2095SOL     OW 7171   0.344   4.829   2.348
 2095SOL    HW1 7172   0.347   4.908   2.293
 2095SOL    HW2 7173   0.348   4.756   2.285
 2096SOL     OW 7174   0.553   4.259   2.721
 2096SOL    HW1 7175   0.568   4.318   2.647
 2096SOL    HW2 7176   0.619   4.286   2.786
 2097SOL     OW 7177   1.261   5.078   2.247
 2097SOL    HW1 7178   1.317   5.144   2.286
 2097SOL    HW2 7179   1.173   5.101   2.277
 2098SOL     OW 7180   1.270   5.182   3.003
 2098SOL    HW1 7181   1.329   5.196   3.077
 2098SOL    HW2 7182   1.226   5.099   3.022
 2099SOL     OW 7183   1.581   4.346   2.342
 2099SOL    HW1 7184   1.533   4.399   2.406
 2099SOL    HW2 7185   1.626   4.410   2.287
 2100SOL     OW 7186   0.382   5.230   3.177
 2100SOL    HW1 7187   0.366   5.192   3.090
 2100SOL    HW2 7188   0.474   5.256   3.175
 2101SOL     OW 7189   0.415   4.466   3.464
 2101SOL    HW1 7190   0.476   4.512   3.407
 2101SOL    HW2 7191   0.453   4.380   3.477
 2102SOL     OW 7192   1.603   4.503   3.545
 2102SOL    HW1 7193   1.517   4.545   3.538
 2102SOL    HW2 7194   1.655   4.545   3.476
 2103SOL     OW 7195   0.996   3.849   3.617
 2103SOL    HW1 7196   1.052   3.921   3.590
 2103SOL    HW2 7197   1.044   3.770   3.592
 2104SOL     OW 7198   0.497   3.765   3.610
 2104SOL    HW1 7199   0.454   3.711   3.544
 2104SOL    HW2 7200   0.438   3.839   3.623
 2105SOL     OW 7201   0.586   4.597   2.894
 2105SOL    HW1 7202   0.615   4.688   2.893
 2105SOL    HW2 7203   0.529   4.591   2.971
 2106SOL     OW 7204   1.356   4.582   2.889
 2106SOL    HW1 7205   1.272   4.571   2.844
 2106SOL    HW2 7206   1.398   4.496   2.883
 2107SOL     OW 7207   1.204   4.252   2.128
 2107SOL    HW1 7208   1.212   4.174   2.182
 2107SOL    HW2 7209   1.161   4.316   2.184
 2108SOL     OW 7210   0.301   3.927   3.110
 2108SOL    HW1 7211   0.267   3.951   3.196
 2108SOL    HW2 7212   0.289   3.832   3.105
 2109SOL     OW 7213   0.043   5.021   3.138
 2109SOL    HW1 7214   0.073   4.972   3.214
 2109SOL    HW2 7215   0.044   5.113   3.166
 2110SOL     OW 7216   0.724   4.355   2.919
 2110SOL    HW1 7217   0.799   4.339   2.862
 2110SOL    HW2 7218   0.696   4.444   2.899
 2111SOL     OW 7219   1.735   4.684   3.715
 2111SOL    HW1 7220   1.690   4.620   3.659
 2111SOL    HW2 7221   1.675   4.698   3.788
 2112SOL     OW 7222   0.328   3.786   2.496
 2112SOL    HW1 7223   0.307   3.875   2.523
 2112SOL    HW2 7224   0.333   3.737   2.578
 2113SOL     OW 7225   1.617   4.099   2.228
 2113SOL    HW1 7226   1.645   4.034   2.293
 2113SOL    HW2 7227   1.595   4.177   2.279
 2114SOL     OW 7228   1.028   4.483   2.822
 2114SOL    HW1 7229   1.024   4.500   2.916
 2114SOL    HW2 7230   1.002   4.391   2.813
 2115SOL     OW 7231   1.854   5.213   3.445
 2115SOL    HW1 7232   1.846   5.290   3.389
 2115SOL    HW2 7233   1.924   5.236   3.507
 2116SOL     OW 7234   0.355   4.643   3.668
 2116SOL    HW1 7235   0.436   4.660   3.716
 2116SOL    HW2 7236   0.379   4.577   3.603
 2117SOL     OW 7237   1.528   3.997   1.989
 2117SOL    HW1 7238   1.464   3.932   2.016
 2117SOL    HW2 7239   1.562   4.032   2.071
 2118SOL     OW 7240   1.291   4.550   1.893
 2118SOL    HW1 7241   1.334   4.464   1.896
 2118SOL    HW2 7242   1.322   4.589   1.811
 2119SOL     OW 7243   1.058   5.080   2.685
 2119SOL    HW1 7244   1.063   4.994   2.643
 2119SOL    HW2 7245   1.145   5.118   2.674
 2120SOL     OW 7246   0.314   4.533   2.811
 2120SOL    HW1 7247   0.408   4.550   2.807
 2120SOL    HW2 7248   0.307   4.443   2.843
 2121SOL     OW 7249   0.335   4.250   2.877
 2121SOL    HW1 7250   0.299   4.162   2.863
 2121SOL    HW2 7251   0.409   4.256   2.818
 2122SOL     OW 7252   1.134   4.099   3.545
 2122SOL    HW1 7253   1.086   4.154   3.607
 2122SOL    HW2 7254   1.221   4.138   3.541
 2123SOL     OW 7255   1.161   3.926   3.333
 2123SOL    HW1 7256   1.150   3.989   3.404
 2123SOL    HW2 7257   1.201   3.976   3.262
 2124SOL     OW 7258   0.002   5.046   2.069
 2124SOL    HW1 7259   5.227   5.032   2.011
 2124SOL    HW2 7260   0.014   4.962   2.113
 2125SOL     OW 7261   0.981   4.515   3.088
 2125SOL    HW1 7262   1.038   4.493   3.162
 2125SOL    HW2 7263   0.896   4.476   3.111
 2126SOL     OW 7264   0.032   4.285   2.978
 2126SOL    HW1 7265   0.119   4.263   2.945
 2126SOL    HW2 7266   0.037   4.267   3.072
 2127SOL     OW 7267   0.174   4.237   3.574
 2127SOL    HW1 7268   0.238   4.199   3.514
 2127SOL    HW2 7269   0.147   4.319   3.532
 2128SOL     OW 7270   1.377   4.662   3.520
 2128SOL    HW1 7271   1.398   4.755   3.517
 2128SOL    HW2 7272   1.374   4.635   3.428
 2129SOL     OW 7273   0.817   4.293   2.223
 2129SOL    HW1 7274   0.821   4.219   2.163
 2129SOL    HW2 7275   0.742   4.345   2.192
 2130SOL     OW 7276   1.642   4.326   3.047
 2130SOL    HW1 7277   1.631   4.266   3.121
 2130SOL    HW2 7278   1.729   4.306   3.013
 2131SOL     OW 7279   0.209   5.278   3.593
 2131SOL    HW1 7280   0.171   0.021   3.671
 2131SOL    HW2 7281   0.213   5.186   3.616
 2132SOL     OW 7282   0.704   4.173   3.121
 2132SOL    HW1 7283   0.650   4.099   3.092
 2132SOL    HW2 7284   0.698   4.236   3.049
 2133SOL     OW 7285   0.465   4.217   2.046
 2133SOL    HW1 7286   0.525   4.288   2.069
 2133SOL    HW2 7287   0.380   4.260   2.033
 2134SOL     OW 7288   0.150   4.861   3.334
 2134SOL    HW1 7289   0.146   4.812   3.417
 2134SOL    HW2 7290   0.160   4.793   3.267
 2135SOL     OW 7291   1.326   4.769   3.084
 2135SOL    HW1 7292   1.348   4.706   3.015
 2135SOL    HW2 7293   1.256   4.822   3.046
 2136SOL     OW 7294   1.311   4.582   2.168
 2136SOL    HW1 7295   1.237   4.549   2.218
 2136SOL    HW2 7296   1.287   4.567   2.076
 2137SOL     OW 7297   0.075   4.915   2.892
 2137SOL    HW1 7298   0.064   4.957   2.978
 2137SOL    HW2 7299   5.288   4.921   2.852
 2138SOL     OW 7300   0.753   0.037   3.571
 2138SOL    HW1 7301   0.660   0.059   3.580
 2138SOL    HW2 7302   0.774   0.060   3.480
 2139SOL     OW 7303   1.719   3.872   2.370
 2139SOL    HW1 7304   1.792   3.857   2.310
 2139SOL    HW2 7305   1.703   3.787   2.411
 2140SOL     OW 7306   1.277   4.650   2.534
 2140SOL    HW1 7307   1.350   4.589   2.542
 2140SOL    HW2 7308   1.312   4.722   2.480
 2141SOL     OW 7309   0.817   4.993   3.280
 2141SOL    HW1 7310   0.785   5.029   3.363
 2141SOL    HW2 7311   0.742   4.999   3.221
 2142SOL     OW 7312   1.841   3.898   2.829
 2142SOL    HW1 7313   1.870   3.811   2.802
 2142SOL    HW2 7314   1.754   3.908   2.789
 2143SOL     OW 7315   0.273   4.041   2.579
 2143SOL    HW1 7316   0.188   4.079   2.559
 2143SOL    HW2 7317   0.273   4.029   2.674
 2144SOL     OW 7318   0.825   4.727   3.233
 2144SOL    HW1 7319   0.871   4.719   3.149
 2144SOL    HW2 7320   0.828   4.820   3.254
 2145SOL     OW 7321   0.916   4.636   2.153
 2145SOL    HW1 7322   0.977   4.668   2.086
 2145SOL    HW2 7323   0.964   4.566   2.197
 2146SOL     OW 7324   0.365   5.028   3.363
 2146SOL    HW1 7325   0.367   5.097   3.296
 2146SOL    HW2 7326   0.291   4.973   3.339
 2147SOL     OW 7327   1.612   5.004   3.144
 2147SOL    HW1 7328   1.669   4.997   3.221
 2147SOL    HW2 7329   1.549   5.073   3.167
 2148SOL     OW 7330   1.056   4.834   2.574
 2148SOL    HW1 7331   0.984   4.783   2.610
 2148SOL    HW2 7332   1.118   4.768   2.543
 2149SOL     OW 7333   1.022   3.965   2.828
 2149SOL    HW1 7334   1.017   3.917   2.745
 2149SOL    HW2 7335   1.016   3.896   2.895
 2150SOL     OW 7336   1.724   4.114   3.241
 2150SOL    HW1 7337   1.795   4.178   3.241
 2150SOL    HW2 7338   1.755   4.043   3.186
 2151SOL     OW 7339   0.259   5.059   2.149
 2151SOL    HW1 7340   0.167   5.062   2.125
 2151SOL    HW2 7341   0.262   5.097   2.237
 2152SOL     OW 7342   0.117   4.742   3.581
 2152SOL    HW1 7343   0.046   4.704   3.633
 2152SOL    HW2 7344   0.197   4.709   3.622
 2153SOL     OW 7345   0.675   3.920   3.362
 2153SOL    HW1 7346   0.759   3.900   3.320
 2153SOL    HW2 7347   0.698   3.952   3.449
 2154SOL     OW 7348   0.084   4.071   1.902
 2154SOL    HW1 7349   0.003   4.025   1.880
 2154SOL    HW2 7350   0.099   4.130   1.829
 2155SOL     OW 7351   1.429   4.582   3.262
 2155SOL    HW1 7352   1.380   4.642   3.206
 2155SOL    HW2 7353   1.518   4.584   3.227
 2156SOL     OW 7354   0.056   3.857   2.106
 2156SOL    HW1 7355   0.055   3.952   2.094
 2156SOL    HW2 7356   0.145   3.831   2.082
 2157SOL     OW 7357   1.182   5.063   1.983
 2157SOL    HW1 7358   1.091   5.034   1.984
 2157SOL    HW2 7359   1.210   5.055   2.074
 2158SOL     OW 7360   0.620   4.555   3.298
 2158SOL    HW1 7361   0.677   4.630   3.281
 2158SOL    HW2 7362   0.679   4.480   3.306
 2159SOL     OW 7363   0.718   4.287   3.566
 2159SOL    HW1 7364   0.760   4.349   3.626
 2159SOL    HW2 7365   0.743   4.201   3.598
 2160SOL     OW 7366   1.474   4.922   3.492
 2160SOL    HW1 7367   1.461   4.935   3.586
 2160SOL    HW2 7368   1.568   4.936   3.480
 2161SOL     OW 7369   1.669   4.605   3.117
 2161SOL    HW1 7370   1.663   4.520   3.074
 2161SOL    HW2 7371   1.659   4.668   3.046
 2162SOL     OW 7372   1.217   4.043   2.320
 2162SOL    HW1 7373   1.280   3.971   2.312
 2162SOL    HW2 7374   1.246   4.092   2.397
 2163SOL     OW 7375   0.590   4.461   2.532
 2163SOL    HW1 7376   0.628   4.547   2.517
 2163SOL    HW2 7377   0.521   4.453   2.466
 2164SOL     OW 7378   1.760   4.087   3.513
 2164SOL    HW1 7379   1.745   4.101   3.420
 2164SOL    HW2 7380   1.689   4.030   3.541
 2165SOL     OW 7381   1.746   4.657   3.374
 2165SOL    HW1 7382   1.739   4.752   3.386
 2165SOL    HW2 7383   1.730   4.645   3.280
 2166SOL     OW 7384   0.848   5.094   1.882
 2166SOL    HW1 7385   0.831   5.094   1.976
 2166SOL    HW2 7386   0.863   5.186   1.860
 2167SOL     OW 7387   0.869   4.692   2.716
 2167SOL    HW1 7388   0.918   4.620   2.756
 2167SOL    HW2 7389   0.833   4.741   2.790
 2168SOL     OW 7390   1.080   4.713   1.952
 2168SOL    HW1 7391   1.057   4.763   1.873
 2168SOL    HW2 7392   1.154   4.659   1.925
 2169SOL     OW 7393   0.219   5.024   3.717
 2169SOL    HW1 7394   0.155   4.955   3.698
 2169SOL    HW2 7395   0.216   5.034   3.812
 2170SOL     OW 7396   0.084   4.926   2.517
 2170SOL    HW1 7397   0.104   4.906   2.608
 2170SOL    HW2 7398   0.169   4.945   2.477
 2171SOL     OW 7399   0.672   5.104   3.471
 2171SOL    HW1 7400   0.595   5.073   3.518
 2171SOL    HW2 7401   0.705   5.176   3.524
 2172SOL     OW 7402   1.818   3.904   3.100
 2172SOL    HW1 7403   1.804   3.810   3.108
 2172SOL    HW2 7404   1.826   3.919   3.005
 2173SOL     OW 7405   0.436   4.160   2.386
 2173SOL    HW1 7406   0.463   4.087   2.330
 2173SOL    HW2 7407   0.388   4.118   2.458
 2174SOL     OW 7408   1.706   5.224   2.981
 2174SOL    HW1 7409   1.633   5.208   2.922
 2174SOL    HW2 7410   1.713   5.145   3.034
 2175SOL     OW 7411   0.338   4.285   3.154
 2175SOL    HW1 7412   0.391   4.225   3.207
 2175SOL    HW2 7413   0.351   4.254   3.064
 2176SOL     OW 7414   1.432   3.951   2.980
 2176SOL    HW1 7415   1.452   3.868   3.022
 2176SOL    HW2 7416   1.380   3.999   3.044
 2177SOL     OW 7417   1.009   3.742   3.003
 2177SOL    HW1 7418   0.955   3.675   2.962
 2177SOL    HW2 7419   1.097   3.704   3.005
 2178SOL     OW 7420   0.805   5.047   2.146
 2178SOL    HW1 7421   0.745   4.974   2.166
 2178SOL    HW2 7422   0.859   5.056   2.225
 2179SOL     OW 7423   0.641   0.003   3.150
 2179SOL    HW1 7424   0.644   0.058   3.229
 2179SOL    HW2 7425   0.733   5.286   3.130
 2180SOL     OW 7426   1.353   3.778   2.028
 2180SOL    HW1 7427   1.382   3.712   1.964
 2180SOL    HW2 7428   1.265   3.749   2.054
 2181SOL     OW 7429   1.296   4.185   2.542
 2181SOL    HW1 7430   1.243   4.265   2.549
 2181SOL    HW2 7431   1.292   4.146   2.630
 2182SOL     OW 7432   1.586   3.926   2.740
 2182SOL    HW1 7433   1.526   3.947   2.812
 2182SOL    HW2 7434   1.585   4.004   2.685
 2183SOL     OW 7435   0.048   4.789   2.152
 2183SOL    HW1 7436   0.138   4.758   2.142
 2183SOL    HW2 7437   0.000   4.716   2.191
 2184SOL     OW 7438   0.233   4.355   3.840
 2184SOL    HW1 7439   0.161   4.320   3.893
 2184SOL    HW2 7440   0.217   4.322   3.752
 2185SOL     OW 7441   0.243   3.999   4.713
 2185SOL    HW1 7442   0.256   3.964   4.801
 2185SOL    HW2 7443   0.158   3.964   4.686
 2186SOL     OW 7444   5.298   4.123   4.378
 2186SOL    HW1 7445   5.205   4.145   4.382
 2186SOL    HW2 7446   5.299   4.033   4.345
 2187SOL     OW 7447   0.575   5.001   4.909
 2187SOL    HW1 7448   0.496   5.007   4.856
 2187SOL    HW2 7449   0.593   5.092   4.935
 2188SOL     OW 7450   1.556   5.232   4.413
 2188SOL    HW1 7451   1.538   5.228   4.507
 2188SOL    HW2 7452   1.476   5.268   4.374
 2189SOL     OW 7453   1.131   4.422   4.424
 2189SOL    HW1 7454   1.179   4.503   4.410
 2189SOL    HW2 7455   1.084   4.435   4.506
 2190SOL     OW 7456   1.768   4.328   3.952
 2190SOL    HW1 7457   1.747   4.321   3.859
 2190SOL    HW2 7458   1.732   4.249   3.991
 2191SOL     OW 7459   0.757   4.866   4.762
 2191SOL    HW1 7460   0.691   4.896   4.824
 2191SOL    HW2 7461   0.786   4.946   4.717
 2192SOL     OW 7462   0.869   4.497   5.547
 2192SOL    HW1 7463   0.856   4.568   5.609
 2192SOL    HW2 7464   0.891   4.540   5.464
 2193SOL     OW 7465   0.685   4.725   4.371
 2193SOL    HW1 7466   0.751   4.715   4.440
 2193SOL    HW2 7467   0.618   4.780   4.411
 2194SOL     OW 7468   0.708   4.871   5.537
 2194SOL    HW1 7469   0.756   4.951   5.561
 2194SOL    HW2 7470   0.626   4.903   5.501
 2195SOL     OW 7471   0.377   5.146   4.777
 2195SOL    HW1 7472   0.283   5.157   4.765
 2195SOL    HW2 7473   0.417   5.196   4.706
 2196SOL     OW 7474   1.454   5.221   5.072
 2196SOL    HW1 7475   1.509   5.293   5.103
 2196SOL    HW2 7476   1.387   5.211   5.139
 2197SOL     OW 7477   0.451   4.124   5.215
 2197SOL    HW1 7478   0.525   4.063   5.217
 2197SOL    HW2 7479   0.374   4.068   5.226
 2198SOL     OW 7480   1.611   4.172   4.464
 2198SOL    HW1 7481   1.536   4.193   4.409
 2198SOL    HW2 7482   1.623   4.249   4.519
 2199SOL     OW 7483   1.133   5.073   5.426
 2199SOL    HW1 7484   1.163   5.074   5.517
 2199SOL    HW2 7485   1.080   4.994   5.419
 2200SOL     OW 7486   0.212   5.151   4.258
 2200SOL    HW1 7487   0.252   5.230   4.293
 2200SOL    HW2 7488   0.131   5.142   4.307
 2201SOL     OW 7489   0.253   4.798   4.599
 2201SOL    HW1 7490   0.265   4.711   4.637
 2201SOL    HW2 7491   0.196   4.844   4.661
 2202SOL     OW 7492   0.581   4.707   3.860
 2202SOL    HW1 7493   0.629   4.753   3.791
 2202SOL    HW2 7494   0.621   4.736   3.941
 2203SOL     OW 7495   1.596   3.848   5.192
 2203SOL    HW1 7496   1.605   3.929   5.141
 2203SOL    HW2 7497   1.581   3.878   5.281
 2204SOL     OW 7498   0.127   4.355   4.303
 2204SOL    HW1 7499   0.088   4.273   4.334
 2204SOL    HW2 7500   0.100   4.420   4.367
 2205SOL     OW 7501   5.299   5.298   3.806
 2205SOL    HW1 7502   0.013   5.210   3.840
 2205SOL    HW2 7503   0.026   0.057   3.877
 2206SOL     OW 7504   1.689   4.642   4.365
 2206SOL    HW1 7505   1.771   4.599   4.343
 2206SOL    HW2 7506   1.667   4.693   4.287
 2207SOL     OW 7507   1.646   4.830   4.153
 2207SOL    HW1 7508   1.732   4.834   4.111
 2207SOL    HW2 7509   1.653   4.891   4.227
 2208SOL     OW 7510   0.132   4.472   5.309
 2208SOL    HW1 7511   0.227   4.487   5.309
 2208SOL    HW2 7512   0.094   4.559   5.323
 2209SOL     OW 7513   0.627   5.097   4.461
 2209SOL    HW1 7514   0.570   5.020   4.459
 2209SOL    HW2 7515   0.602   5.146   4.382
 2210SOL     OW 7516   1.288   4.953   5.149
 2210SOL    HW1 7517   1.322   4.888   5.089
 2210SOL    HW2 7518   1.349   4.951   5.224
 2211SOL     OW 7519   0.824   3.724   4.235
 2211SOL    HW1 7520   0.864   3.808   4.214
 2211SOL    HW2 7521   0.730   3.742   4.240
 2212SOL     OW 7522   0.175   4.665   5.007
 2212SOL    HW1 7523   0.265   4.635   4.994
 2212SOL    HW2 7524   0.135   4.658   4.920
 2213SOL     OW 7525   1.531   4.720   3.922
 2213SOL    HW1 7526   1.461   4.662   3.954
 2213SOL    HW2 7527   1.572   4.754   4.001
 2214SOL     OW 7528   0.339   3.977   5.544
 2214SOL    HW1 7529   0.385   4.060   5.556
 2214SOL    HW2 7530   0.250   3.994   5.577
 2215SOL     OW 7531   1.478   5.147   4.686
 2215SOL    HW1 7532   1.405   5.160   4.747
 2215SOL    HW2 7533   1.465   5.058   4.652
 2216SOL     OW 7534   0.595   4.445   3.991
 2216SOL    HW1 7535   0.602   4.526   3.941
 2216SOL    HW2 7536   0.531   4.463   4.059
 2217SOL     OW 7537   1.279   4.078   4.657
 2217SOL    HW1 7538   1.190   4.045   4.665
 2217SOL    HW2 7539   1.330   4.025   4.717
 2218SOL     OW 7540   0.792   4.341   5.175
 2218SOL    HW1 7541   0.765   4.317   5.263
 2218SOL    HW2 7542   0.753   4.274   5.119
 2219SOL     OW 7543   1.393   4.198   5.402
 2219SOL    HW1 7544   1.396   4.243   5.487
 2219SOL    HW2 7545   1.454   4.124   5.411
 2220SOL     OW 7546   0.954   4.612   5.307
 2220SOL    HW1 7547   1.009   4.541   5.272
 2220SOL    HW2 7548   0.906   4.645   5.232
 2221SOL     OW 7549   0.992   4.136   4.962
 2221SOL    HW1 7550   0.905   4.156   4.997
 2221SOL    HW2 7551   0.975   4.090   4.880
 2222SOL     OW 7552   1.051   4.422   4.150
 2222SOL    HW1 7553   1.067   4.415   4.244
 2222SOL    HW2 7554   0.969   4.376   4.136
 2223SOL     OW 7555   0.072   4.510   4.533
 2223SOL    HW1 7556   0.152   4.515   4.585
 2223SOL    HW2 7557   0.063   4.597   4.495
 2224SOL     OW 7558   0.895   4.073   3.919
 2224SOL    HW1 7559   0.934   4.135   3.857
 2224SOL    HW2 7560   0.909   3.988   3.878
 2225SOL     OW 7561   1.708   4.298   5.552
 2225SOL    HW1 7562   1.670   4.371   5.504
 2225SOL    HW2 7563   1.736   4.236   5.484
 2226SOL     OW 7564   1.378   4.864   4.263
 2226SOL    HW1 7565   1.459   4.850   4.214
 2226SOL    HW2 7566   1.328   4.925   4.209
 2227SOL     OW 7567   0.557   3.907   4.618
 2227SOL    HW1 7568   0.553   3.935   4.709
 2227SOL    HW2 7569   0.551   3.988   4.567
 2228SOL     OW 7570   1.023   5.168   4.196
 2228SOL    HW1 7571   0.946   5.225   4.193
 2228SOL    HW2 7572   1.038   5.154   4.289
 2229SOL     OW 7573   1.801   4.780   4.591
 2229SOL    HW1 7574   1.744   4.762   4.515
 2229SOL    HW2 7575   1.740   4.787   4.665
 2230SOL     OW 7576   1.251   5.240   5.249
 2230SOL    HW1 7577   1.215   5.173   5.308
 2230SOL    HW2 7578   1.178   5.261   5.190
 2231SOL     OW 7579   0.316   4.676   3.972
 2231SOL    HW1 7580   0.397   4.698   3.927
 2231SOL    HW2 7581   0.292   4.590   3.937
 2232SOL     OW 7582   1.479   4.468   4.450
 2232SOL    HW1 7583   1.471   4.425   4.536
 2232SOL    HW2 7584   1.557   4.523   4.458
 2233SOL     OW 7585   0.463   4.989   5.467
 2233SOL    HW1 7586   0.438   4.992   5.375
 2233SOL    HW2 7587   0.380   4.989   5.515
 2234SOL     OW 7588   1.065   0.178   3.929
 2234SOL    HW1 7589   1.082   0.105   3.988
 2234SOL    HW2 7590   1.096   0.147   3.844
 2235SOL     OW 7591   0.205   4.003   5.222
 2235SOL    HW1 7592   0.127   4.055   5.204
 2235SOL    HW2 7593   0.173   3.923   5.263
 2236SOL     OW 7594   1.622   5.102   3.833
 2236SOL    HW1 7595   1.623   5.175   3.772
 2236SOL    HW2 7596   1.554   5.043   3.799
 2237SOL     OW 7597   1.401   3.832   4.158
 2237SOL    HW1 7598   1.390   3.806   4.066
 2237SOL    HW2 7599   1.495   3.837   4.170
 2238SOL     OW 7600   0.387   4.419   4.203
 2238SOL    HW1 7601   0.415   4.329   4.212
 2238SOL    HW2 7602   0.293   4.417   4.223
 2239SOL     OW 7603   1.534   3.949   5.449
 2239SOL    HW1 7604   1.544   3.970   5.542
 2239SOL    HW2 7605   1.465   3.883   5.446
 2240SOL     OW 7606   0.636   3.846   3.828
 2240SOL    HW1 7607   0.704   3.780   3.841
 2240SOL    HW2 7608   0.586   3.815   3.752
 2241SOL     OW 7609   0.766   4.003   5.479
 2241SOL    HW1 7610   0.843   3.945   5.479
 2241SOL    HW2 7611   0.717   3.978   5.557
 2242SOL     OW 7612   1.340   4.313   5.156
 2242SOL    HW1 7613   1.371   4.282   5.241
 2242SOL    HW2 7614   1.376   4.401   5.148
 2243SOL     OW 7615   0.815   5.119   4.661
 2243SOL    HW1 7616   0.895   5.105   4.611
 2243SOL    HW2 7617   0.746   5.125   4.595
 2244SOL     OW 7618   0.929   4.234   4.626
 2244SOL    HW1 7619   0.905   4.225   4.534
 2244SOL    HW2 7620   0.959   4.146   4.651
 2245SOL     OW 7621   0.561   3.785   4.219
 2245SOL    HW1 7622   0.486   3.785   4.279
 2245SOL    HW2 7623   0.550   3.864   4.166
 2246SOL     OW 7624   1.428   4.924   3.762
 2246SOL    HW1 7625   1.458   4.849   3.812
 2246SOL    HW2 7626   1.340   4.942   3.795
 2247SOL     OW 7627   0.305   3.771   3.902
 2247SOL    HW1 7628   0.367   3.835   3.867
 2247SOL    HW2 7629   0.360   3.707   3.948
 2248SOL     OW 7630   0.940   3.972   4.183
 2248SOL    HW1 7631   0.914   4.012   4.100
 2248SOL    HW2 7632   1.035   3.987   4.187
 2249SOL     OW 7633   1.080   4.405   5.183
 2249SOL    HW1 7634   1.011   4.338   5.187
 2249SOL    HW2 7635   1.161   4.356   5.176
 2250SOL     OW 7636   1.264   5.267   4.501
 2250SOL    HW1 7637   1.218   0.046   4.476
 2250SOL    HW2 7638   1.309   5.289   4.583
 2251SOL     OW 7639   0.466   4.874   4.451
 2251SOL    HW1 7640   0.398   4.853   4.515
 2251SOL    HW2 7641   0.425   4.854   4.366
 2252SOL     OW 7642   1.023   4.265   3.748
 2252SOL    HW1 7643   0.980   4.348   3.728
 2252SOL    HW2 7644   1.089   4.287   3.814
 2253SOL     OW 7645   0.089   4.267   5.123
 2253SOL    HW1 7646   0.176   4.276   5.085
 2253SOL    HW2 7647   0.080   4.344   5.179
 2254SOL     OW 7648   0.560   3.952   4.891
 2254SOL    HW1 7649   0.598   3.872   4.928
 2254SOL    HW2 7650   0.468   3.950   4.918
 2255SOL     OW 7651   0.868   4.183   4.363
 2255SOL    HW1 7652   0.822   4.237   4.299
 2255SOL    HW2 7653   0.889   4.103   4.316
 2256SOL     OW 7654   1.015   3.778   4.475
 2256SOL    HW1 7655   0.957   3.770   4.399
 2256SOL    HW2 7656   0.994   3.702   4.530
 2257SOL     OW 7657   1.438   4.890   4.583
 2257SOL    HW1 7658   1.371   4.822   4.580
 2257SOL    HW2 7659   1.464   4.902   4.491
 2258SOL     OW 7660   1.466   4.330   4.699
 2258SOL    HW1 7661   1.414   4.250   4.702
 2258SOL    HW2 7662   1.525   4.323   4.774
 2259SOL     OW 7663   1.845   4.539   4.107
 2259SOL    HW1 7664   1.902   4.488   4.165
 2259SOL    HW2 7665   1.817   4.476   4.040
 2260SOL     OW 7666   0.482   5.145   3.875
 2260SOL    HW1 7667   0.421   5.095   3.928
 2260SOL    HW2 7668   0.485   5.099   3.791
 2261SOL     OW 7669   1.670   4.987   4.370
 2261SOL    HW1 7670   1.764   4.993   4.387
 2261SOL    HW2 7671   1.636   5.075   4.386
 2262SOL     OW 7672   1.394   4.296   3.795
 2262SOL    HW1 7673   1.333   4.276   3.866
 2262SOL    HW2 7674   1.478   4.264   3.827
 2263SOL     OW 7675   0.524   3.987   4.040
 2263SOL    HW1 7676   0.570   3.941   3.970
 2263SOL    HW2 7677   0.501   4.071   4.001
 2264SOL     OW 7678   1.751   4.960   5.298
 2264SOL    HW1 7679   1.836   4.917   5.298
 2264SOL    HW2 7680   1.770   5.053   5.310
 2265SOL     OW 7681   1.064   5.074   5.055
 2265SOL    HW1 7682   0.985   5.048   5.102
 2265SOL    HW2 7683   1.136   5.035   5.104
 2266SOL     OW 7684   1.128   4.926   4.831
 2266SOL    HW1 7685   1.077   4.967   4.902
 2266SOL    HW2 7686   1.081   4.950   4.751
 2267SOL     OW 7687   1.628   4.822   4.800
 2267SOL    HW1 7688   1.623   4.883   4.873
 2267SOL    HW2 7689   1.550   4.841   4.748
 2268SOL     OW 7690   0.919   3.820   5.120
 2268SOL    HW1 7691   0.941   3.802   5.029
 2268SOL    HW2 7692   0.998   3.860   5.156
 2269SOL     OW 7693   0.984   4.839   5.449
 2269SOL    HW1 7694   0.892   4.855   5.468
 2269SOL    HW2 7695   0.984   4.762   5.392
 2270SOL     OW 7696   0.704   4.782   4.096
 2270SOL    HW1 7697   0.693   4.766   4.190
 2270SOL    HW2 7698   0.781   4.732   4.072
 2271SOL     OW 7699   0.421   4.543   4.976
 2271SOL    HW1 7700   0.490   4.550   5.043
 2271SOL    HW2 7701   0.386   4.455   4.986
 2272SOL     OW 7702   1.265   4.100   5.000
 2272SOL    HW1 7703   1.297   4.178   5.046
 2272SOL    HW2 7704   1.174   4.122   4.978
 2273SOL     OW 7705   0.112   5.290   5.042
 2273SOL    HW1 7706   0.051   0.044   5.092
 2273SOL    HW2 7707   0.190   5.284   5.098
 2274SOL     OW 7708   0.344   4.829   4.210
 2274SOL    HW1 7709   0.347   4.908   4.155
 2274SOL    HW2 7710   0.348   4.756   4.147
 2275SOL     OW 7711   0.554   4.259   4.583
 2275SOL    HW1 7712   0.568   4.318   4.509
 2275SOL    HW2 7713   0.619   4.286   4.648
 2276SOL     OW 7714   1.261   5.078   4.109
 2276SOL    HW1 7715   1.317   5.144   4.148
 2276SOL    HW2 7716   1.173   5.100   4.139
 2277SOL     OW 7717   1.270   5.182   4.865
 2277SOL    HW1 7718   1.329   5.196   4.939
 2277SOL    HW2 7719   1.226   5.100   4.885
 2278SOL     OW 7720   1.581   4.346   4.204
 2278SOL    HW1 7721   1.533   4.398   4.268
 2278SOL    HW2 7722   1.626   4.410   4.148
 2279SOL     OW 7723   0.382   5.230   5.039
 2279SOL    HW1 7724   0.366   5.192   4.952
 2279SOL    HW2 7725   0.474   5.256   5.037
 2280SOL     OW 7726   0.415   4.466   5.326
 2280SOL    HW1 7727   0.476   4.512   5.269
 2280SOL    HW2 7728   0.453   4.380   5.339
 2281SOL     OW 7729   1.603   4.503   5.407
 2281SOL    HW1 7730   1.517   4.544   5.400
 2281SOL    HW2 7731   1.655   4.545   5.338
 2282SOL     OW 7732   0.996   3.849   5.479
 2282SOL    HW1 7733   1.052   3.921   5.452
 2282SOL    HW2 7734   1.044   3.770   5.453
 2283SOL     OW 7735   0.497   3.765   5.472
 2283SOL    HW1 7736   0.454   3.711   5.406
 2283SOL    HW2 7737   0.438   3.839   5.485
 2284SOL     OW 7738   0.586   4.597   4.756
 2284SOL    HW1 7739   0.615   4.688   4.755
 2284SOL    HW2 7740   0.529   4.591   4.833
 2285SOL     OW 7741   1.356   4.582   4.751
 2285SOL    HW1 7742   1.272   4.571   4.707
 2285SOL    HW2 7743   1.398   4.496   4.745
 2286SOL     OW 7744   1.204   4.253   3.990
 2286SOL    HW1 7745   1.212   4.174   4.045
 2286SOL    HW2 7746   1.161   4.317   4.046
 2287SOL     OW 7747   0.301   3.927   4.972
 2287SOL    HW1 7748   0.267   3.951   5.058
 2287SOL    HW2 7749   0.289   3.832   4.967
 2288SOL     OW 7750   0.043   5.021   5.000
 2288SOL    HW1 7751   0.073   4.972   5.076
 2288SOL    HW2 7752   0.044   5.113   5.028
 2289SOL     OW 7753   0.724   4.355   4.781
 2289SOL    HW1 7754   0.799   4.339   4.724
 2289SOL    HW2 7755   0.695   4.444   4.761
 2290SOL     OW 7756   1.735   4.684   5.577
 2290SOL    HW1 7757   1.690   4.620   5.521
 2290SOL    HW2 7758   1.675   4.698   5.650
 2291SOL     OW 7759   0.328   3.786   4.358
 2291SOL    HW1 7760   0.307   3.875   4.385
 2291SOL    HW2 7761   0.333   3.737   4.440
 2292SOL     OW 7762   1.618   4.099   4.090
 2292SOL    HW1 7763   1.644   4.035   4.156
 2292SOL    HW2 7764   1.595   4.177   4.140
 2293SOL     OW 7765   1.028   4.483   4.684
 2293SOL    HW1 7766   1.024   4.500   4.778
 2293SOL    HW2 7767   1.002   4.391   4.675
 2294SOL     OW 7768   1.854   5.213   5.307
 2294SOL    HW1 7769   1.846   5.291   5.251
 2294SOL    HW2 7770   1.924   5.236   5.369
 2295SOL     OW 7771   0.355   4.643   5.530
 2295SOL    HW1 7772   0.436   4.660   5.578
 2295SOL    HW2 7773   0.380   4.577   5.465
 2296SOL     OW 7774   1.529   3.997   3.851
 2296SOL    HW1 7775   1.463   3.932   3.877
 2296SOL    HW2 7776   1.562   4.032   3.934
 2297SOL     OW 7777   1.291   4.550   3.755
 2297SOL    HW1 7778   1.334   4.464   3.758
 2297SOL    HW2 7779   1.322   4.589   3.673
 2298SOL     OW 7780   1.058   5.080   4.547
 2298SOL    HW1 7781   1.063   4.994   4.505
 2298SOL    HW2 7782   1.145   5.118   4.536
 2299SOL     OW 7783   0.314   4.532   4.673
 2299SOL    HW1 7784   0.408   4.550   4.669
 2299SOL    HW2 7785   0.307   4.443   4.705
 2300SOL     OW 7786   0.335   4.250   4.739
 2300SOL    HW1 7787   0.299   4.162   4.725
 2300SOL    HW2 7788   0.409   4.256   4.680
 2301SOL     OW 7789   1.134   4.099   5.407
 2301SOL    HW1 7790   1.086   4.154   5.469
 2301SOL    HW2 7791   1.221   4.138   5.403
 2302SOL     OW 7792   1.161   3.926   5.194
 2302SOL    HW1 7793   1.150   3.989   5.266
 2302SOL    HW2 7794   1.201   3.976   5.124
 2303SOL     OW 7795   0.002   5.046   3.931
 2303SOL    HW1 7796   5.227   5.032   3.873
 2303SOL    HW2 7797   0.014   4.962   3.975
 2304SOL     OW 7798   0.981   4.515   4.950
 2304SOL    HW1 7799   1.038   4.493   5.024
 2304SOL    HW2 7800   0.896   4.476   4.973
 2305SOL     OW 7801   0.032   4.285   4.840
 2305SOL    HW1 7802   0.119   4.263   4.807
 2305SOL    HW2 7803   0.037   4.267   4.934
 2306SOL     OW 7804   0.174   4.237   5.436
 2306SOL    HW1 7805   0.238   4.199   5.376
 2306SOL    HW2 7806   0.147   4.319   5.394
 2307SOL     OW 7807   1.377   4.662   5.382
 2307SOL    HW1 7808   1.398   4.755   5.379
 2307SOL    HW2 7809   1.374   4.635   5.290
 2308SOL     OW 7810   0.817   4.293   4.085
 2308SOL    HW1 7811   0.821   4.219   4.025
 2308SOL    HW2 7812   0.742   4.345   4.054
 2309SOL     OW 7813   1.642   4.326   4.909
 2309SOL    HW1 7814   1.631   4.267   4.983
 2309SOL    HW2 7815   1.729   4.305   4.874
 2310SOL     OW 7816   0.209   5.278   5.455
 2310SOL    HW1 7817   0.172   0.021   5.533
 2310SOL    HW2 7818   0.213   5.186   5.478
 2311SOL     OW 7819   0.704   4.173   4.983
 2311SOL    HW1 7820   0.650   4.099   4.954
 2311SOL    HW2 7821   0.698   4.236   4.911
 2312SOL     OW 7822   0.464   4.217   3.908
 2312SOL    HW1 7823   0.525   4.288   3.931
 2312SOL    HW2 7824   0.380   4.260   3.895
 2313SOL     OW 7825   0.150   4.861   5.196
 2313SOL    HW1 7826   0.146   4.812   5.279
 2313SOL    HW2 7827   0.160   4.793   5.129
 2314SOL     OW 7828   1.326   4.769   4.946
 2314SOL    HW1 7829   1.348   4.706   4.877
 2314SOL    HW2 7830   1.256   4.822   4.908
 2315SOL     OW 7831   1.311   4.582   4.030
 2315SOL    HW1 7832   1.237   4.549   4.080
 2315SOL    HW2 7833   1.287   4.567   3.938
 2316SOL     OW 7834   0.075   4.915   4.754
 2316SOL    HW1 7835   0.064   4.957   4.840
 2316SOL    HW2 7836   5.288   4.921   4.714
 2317SOL     OW 7837   0.753   0.036   5.433
 2317SOL    HW1 7838   0.660   0.059   5.442
 2317SOL    HW2 7839   0.774   0.060   5.343
 2318SOL     OW 7840   1.720   3.871   4.234
 2318SOL    HW1 7841   1.791   3.856   4.172
 2318SOL    HW2 7842   1.705   3.785   4.273
 2319SOL     OW 7843   1.277   4.650   4.396
 2319SOL    HW1 7844   1.350   4.589   4.404
 2319SOL    HW2 7845   1.312   4.722   4.342
 2320SOL     OW 7846   0.817   4.993   5.142
 2320SOL    HW1 7847   0.786   5.029   5.225
 2320SOL    HW2 7848   0.742   4.999   5.083
 2321SOL     OW 7849   1.842   3.893   4.691
 2321SOL    HW1 7850   1.868   3.806   4.661
 2321SOL    HW2 7851   1.756   3.907   4.653
 2322SOL     OW 7852   0.273   4.041   4.441
 2322SOL    HW1 7853   0.188   4.079   4.421
 2322SOL    HW2 7854   0.273   4.030   4.536
 2323SOL     OW 7855   0.825   4.727   5.095
 2323SOL    HW1 7856   0.871   4.719   5.011
 2323SOL    HW2 7857   0.828   4.820   5.116
 2324SOL     OW 7858   0.916   4.636   4.015
 2324SOL    HW1 7859   0.977   4.668   3.948
 2324SOL    HW2 7860   0.964   4.566   4.059
 2325SOL     OW 7861   0.365   5.028   5.225
 2325SOL    HW1 7862   0.367   5.097   5.158
 2325SOL    HW2 7863   0.291   4.973   5.201
 2326SOL     OW 7864   1.613   5.004   5.006
 2326SOL    HW1 7865   1.669   4.996   5.083
 2326SOL    HW2 7866   1.550   5.073   5.029
 2327SOL     OW 7867   1.056   4.834   4.436
 2327SOL    HW1 7868   0.984   4.783   4.472
 2327SOL    HW2 7869   1.118   4.768   4.405
 2328SOL     OW 7870   1.022   3.965   4.690
 2328SOL    HW1 7871   1.017   3.917   4.607
 2328SOL    HW2 7872   1.016   3.897   4.757
 2329SOL     OW 7873   1.723   4.116   5.104
 2329SOL    HW1 7874   1.795   4.180   5.103
 2329SOL    HW2 7875   1.753   4.045   5.048
 2330SOL     OW 7876   0.259   5.059   4.011
 2330SOL    HW1 7877   0.167   5.062   3.987
 2330SOL    HW2 7878   0.262   5.097   4.099
 2331SOL     OW 7879   0.117   4.742   5.443
 2331SOL    HW1 7880   0.046   4.704   5.495
 2331SOL    HW2 7881   0.197   4.709   5.484
 2332SOL     OW 7882   0.675   3.920   5.224
 2332SOL    HW1 7883   0.759   3.900   5.182
 2332SOL    HW2 7884   0.698   3.952   5.311
 2333SOL     OW 7885   0.084   4.071   3.765
 2333SOL    HW1 7886   0.003   4.025   3.742
 2333SOL    HW2 7887   0.099   4.130   3.691
 2334SOL     OW 7888   1.429   4.582   5.124
 2334SOL    HW1 7889   1.380   4.642   5.068
 2334SOL    HW2 7890   1.518   4.584   5.089
 2335SOL     OW 7891   0.057   3.857   3.968
 2335SOL    HW1 7892   0.055   3.952   3.956
 2335SOL    HW2 7893   0.145   3.831   3.944
 2336SOL     OW 7894   1.182   5.063   3.845
 2336SOL    HW1 7895   1.091   5.034   3.846
 2336SOL    HW2 7896   1.210   5.055   3.936
 2337SOL     OW 7897   0.620   4.555   5.160
 2337SOL    HW1 7898   0.677   4.630   5.143
 2337SOL    HW2 7899   0.679   4.480   5.168
 2338SOL     OW 7900   0.718   4.287   5.428
 2338SOL    HW1 7901   0.760   4.349   5.488
 2338SOL    HW2 7902   0.743   4.201   5.460
 2339SOL     OW 7903   1.474   4.922   5.354
 2339SOL    HW1 7904   1.461   4.934   5.448
 2339SOL    HW2 7905   1.568   4.936   5.342
 2340SOL     OW 7906   1.669   4.605   4.979
 2340SOL    HW1 7907   1.662   4.520   4.936
 2340SOL    HW2 7908   1.658   4.668   4.908
 2341SOL     OW 7909   1.217   4.043   4.182
 2341SOL    HW1 7910   1.279   3.971   4.174
 2341SOL    HW2 7911   1.246   4.092   4.259
 2342SOL     OW 7912   0.590   4.461   4.394
 2342SOL    HW1 7913   0.628   4.547   4.379
 2342SOL    HW2 7914   0.521   4.453   4.328
 2343SOL     OW 7915   1.761   4.086   5.375
 2343SOL    HW1 7916   1.745   4.101   5.282
 2343SOL    HW2 7917   1.689   4.029   5.403
 2344SOL     OW 7918   1.746   4.657   5.236
 2344SOL    HW1 7919   1.739   4.752   5.249
 2344SOL    HW2 7920   1.730   4.645   5.142
 2345SOL     OW 7921   0.848   5.094   3.744
 2345SOL    HW1 7922   0.831   5.094   3.838
 2345SOL    HW2 7923   0.863   5.186   3.722
 2346SOL     OW 7924   0.869   4.692   4.578
 2346SOL    HW1 7925   0.918   4.620   4.618
 2346SOL    HW2 7926   0.833   4.741   4.652
 2347SOL     OW 7927   1.080   4.714   3.814
 2347SOL    HW1 7928   1.057   4.763   3.735
 2347SOL    HW2 7929   1.154   4.659   3.787
 2348SOL     OW 7930   0.219   5.024   5.579
 2348SOL    HW1 7931   0.155   4.955   5.560
 2348SOL    HW2 7932   0.217   5.034   5.674
 2349SOL     OW 7933   0.084   4.926   4.379
 2349SOL    HW1 7934   0.103   4.906   4.470
 2349SOL    HW2 7935   0.169   4.945   4.339
 2350SOL     OW 7936   0.672   5.103   5.333
 2350SOL    HW1 7937   0.595   5.073   5.380
 2350SOL    HW2 7938   0.705   5.176   5.386
 2351SOL     OW 7939   1.814   3.908   4.962
 2351SOL    HW1 7940   1.818   3.813   4.976
 2351SOL    HW2 7941   1.823   3.919   4.867
 2352SOL     OW 7942   0.436   4.160   4.248
 2352SOL    HW1 7943   0.463   4.087   4.192
 2352SOL    HW2 7944   0.388   4.118   4.320
 2353SOL     OW 7945   1.707   5.224   4.842
 2353SOL    HW1 7946   1.633   5.208   4.784
 2353SOL    HW2 7947   1.713   5.145   4.896
 2354SOL     OW 7948   0.338   4.285   5.016
 2354SOL    HW1 7949   0.390   4.225   5.069
 2354SOL    HW2 7950   0.351   4.254   4.926
 2355SOL     OW 7951   1.432   3.951   4.842
 2355SOL    HW1 7952   1.452   3.867   4.884
 2355SOL    HW2 7953   1.380   3.999   4.906
 2356SOL     OW 7954   1.009   3.742   4.865
 2356SOL    HW1 7955   0.954   3.675   4.824
 2356SOL    HW2 7956   1.096   3.704   4.868
 2357SOL     OW 7957   0.805   5.046   4.008
 2357SOL    HW1 7958   0.745   4.974   4.028
 2357SOL    HW2 7959   0.859   5.056   4.087
 2358SOL     OW 7960   0.641   0.003   5.013
 2358SOL    HW1 7961   0.644   0.058   5.091
 2358SOL    HW2 7962   0.733   5.286   4.992
 2359SOL     OW 7963   1.353   3.777   3.890
 2359SOL    HW1 7964   1.383   3.712   3.827
 2359SOL    HW2 7965   1.265   3.749   3.915
 2360SOL     OW 7966   1.297   4.185   4.405
 2360SOL    HW1 7967   1.243   4.264   4.411
 2360SOL    HW2 7968   1.292   4.146   4.492
 2361SOL     OW 7969   1.589   3.927   4.603
 2361SOL    HW1 7970   1.528   3.946   4.674
 2361SOL    HW2 7971   1.586   4.004   4.547
 2362SOL     OW 7972   0.048   4.789   4.013
 2362SOL    HW1 7973   0.138   4.757   4.004
 2362SOL    HW2 7974   0.000   4.716   4.053
 2363SOL     OW 7975   0.233   4.355   5.702
 2363SOL    HW1 7976   0.161   4.320   5.755
 2363SOL    HW2 7977   0.217   4.322   5.614
 2364SOL     OW 7978   0.243   3.999   6.575
 2364SOL    HW1 7979   0.256   3.964   6.663
 2364SOL    HW2 7980   0.158   3.964   6.548
 2365SOL     OW 7981   5.298   4.123   6.240
 2365SOL    HW1 7982   5.205   4.145   6.244
 2365SOL    HW2 7983   5.299   4.033   6.207
 2366SOL     OW 7984   0.575   5.001   6.771
 2366SOL    HW1 7985   0.496   5.007   6.718
 2366SOL    HW2 7986   0.593   5.092   6.796
 2367SOL     OW 7987   1.556   5.232   6.275
 2367SOL    HW1 7988   1.538   5.228   6.369
 2367SOL    HW2 7989   1.476   5.268   6.236
 2368SOL     OW 7990   1.130   4.422   6.286
 2368SOL    HW1 7991   1.179   4.503   6.272
 2368SOL    HW2 7992   1.084   4.435   6.368
 2369SOL     OW 7993   1.768   4.328   5.814
 2369SOL    HW1 7994   1.747   4.321   5.721
 2369SOL    HW2 7995   1.732   4.249   5.853
 2370SOL     OW 7996   0.757   4.866   6.624
 2370SOL    HW1 7997   0.691   4.896   6.686
 2370SOL    HW2 7998   0.785   4.946   6.579
 2371SOL     OW 7999   0.868   4.499   7.406
 2371SOL    HW1 8000   0.854   4.573   7.464
 2371SOL    HW2 8001   0.893   4.537   7.322
 2372SOL     OW 8002   0.685   4.725   6.233
 2372SOL    HW1 8003   0.751   4.715   6.302
 2372SOL    HW2 8004   0.618   4.780   6.273
 2373SOL     OW 8005   0.708   4.872   7.399
 2373SOL    HW1 8006   0.757   4.951   7.422
 2373SOL    HW2 8007   0.626   4.904   7.362
 2374SOL     OW 8008   0.377   5.146   6.639
 2374SOL    HW1 8009   0.283   5.157   6.627
 2374SOL    HW2 8010   0.417   5.196   6.568
 2375SOL     OW 8011   1.454   5.221   6.934
 2375SOL    HW1 8012   1.509   5.293   6.965
 2375SOL    HW2 8013   1.387   5.211   7.001
 2376SOL     OW 8014   0.451   4.124   7.078
 2376SOL    HW1 8015   0.525   4.064   7.080
 2376SOL    HW2 8016   0.374   4.068   7.088
 2377SOL     OW 8017   1.611   4.171   6.327
 2377SOL    HW1 8018   1.536   4.193   6.271
 2377SOL    HW2 8019   1.624   4.249   6.381
 2378SOL     OW 8020   1.133   5.072   7.287
 2378SOL    HW1 8021   1.165   5.072   7.377
 2378SOL    HW2 8022   1.079   4.993   7.280
 2379SOL     OW 8023   0.212   5.151   6.120
 2379SOL    HW1 8024   0.253   5.230   6.155
 2379SOL    HW2 8025   0.131   5.142   6.169
 2380SOL     OW 8026   0.253   4.798   6.461
 2380SOL    HW1 8027   0.265   4.711   6.499
 2380SOL    HW2 8028   0.196   4.844   6.523
 2381SOL     OW 8029   0.581   4.707   5.722
 2381SOL    HW1 8030   0.629   4.753   5.653
 2381SOL    HW2 8031   0.621   4.736   5.803
 2382SOL     OW 8032   1.596   3.848   7.053
 2382SOL    HW1 8033   1.606   3.929   7.003
 2382SOL    HW2 8034   1.580   3.877   7.143
 2383SOL     OW 8035   0.127   4.355   6.165
 2383SOL    HW1 8036   0.088   4.273   6.196
 2383SOL    HW2 8037   0.100   4.420   6.229
 2384SOL     OW 8038   5.299   5.298   5.668
 2384SOL    HW1 8039   0.013   5.210   5.703
 2384SOL    HW2 8040   0.026   0.057   5.738
 2385SOL     OW 8041   1.689   4.642   6.227
 2385SOL    HW1 8042   1.772   4.599   6.206
 2385SOL    HW2 8043   1.667   4.693   6.149
 2386SOL     OW 8044   1.646   4.830   6.015
 2386SOL    HW1 8045   1.732   4.834   5.973
 2386SOL    HW2 8046   1.653   4.891   6.089
 2387SOL     OW 8047   0.132   4.471   7.173
 2387SOL    HW1 8048   0.226   4.486   7.171
 2387SOL    HW2 8049   0.094   4.558   7.184
 2388SOL     OW 8050   0.627   5.097   6.323
 2388SOL    HW1 8051   0.570   5.020   6.321
 2388SOL    HW2 8052   0.602   5.146   6.244
 2389SOL     OW 8053   1.288   4.953   7.012
 2389SOL    HW1 8054   1.322   4.888   6.951
 2389SOL    HW2 8055   1.349   4.951   7.086
 2390SOL     OW 8056   0.824   3.724   6.097
 2390SOL    HW1 8057   0.864   3.808   6.076
 2390SOL    HW2 8058   0.730   3.742   6.102
 2391SOL     OW 8059   0.175   4.665   6.869
 2391SOL    HW1 8060   0.264   4.634   6.856
 2391SOL    HW2 8061   0.135   4.659   6.782
 2392SOL     OW 8062   1.531   4.720   5.784
 2392SOL    HW1 8063   1.461   4.662   5.816
 2392SOL    HW2 8064   1.572   4.754   5.863
 2393SOL     OW 8065   0.339   3.977   7.404
 2393SOL    HW1 8066   0.385   4.060   7.418
 2393SOL    HW2 8067   0.251   3.992   7.438
 2394SOL     OW 8068   1.478   5.147   6.548
 2394SOL    HW1 8069   1.405   5.160   6.609
 2394SOL    HW2 8070   1.465   5.059   6.514
 2395SOL     OW 8071   0.595   4.444   5.853
 2395SOL    HW1 8072   0.602   4.526   5.803
 2395SOL    HW2 8073   0.531   4.463   5.921
 2396SOL     OW 8074   1.279   4.079   6.519
 2396SOL    HW1 8075   1.189   4.045   6.527
 2396SOL    HW2 8076   1.330   4.025   6.579
 2397SOL     OW 8077   0.791   4.342   7.037
 2397SOL    HW1 8078   0.765   4.317   7.126
 2397SOL    HW2 8079   0.752   4.274   6.981
 2398SOL     OW 8080   1.394   4.198   7.263
 2398SOL    HW1 8081   1.396   4.243   7.348
 2398SOL    HW2 8082   1.453   4.124   7.273
 2399SOL     OW 8083   0.955   4.612   7.169
 2399SOL    HW1 8084   1.009   4.541   7.133
 2399SOL    HW2 8085   0.906   4.645   7.093
 2400SOL     OW 8086   0.992   4.137   6.824
 2400SOL    HW1 8087   0.905   4.156   6.859
 2400SOL    HW2 8088   0.975   4.090   6.742
 2401SOL     OW 8089   1.051   4.422   6.012
 2401SOL    HW1 8090   1.068   4.415   6.106
 2401SOL    HW2 8091   0.969   4.376   5.998
 2402SOL     OW 8092   0.071   4.510   6.396
 2402SOL    HW1 8093   0.152   4.515   6.447
 2402SOL    HW2 8094   0.063   4.597   6.356
 2403SOL     OW 8095   0.895   4.073   5.781
 2403SOL    HW1 8096   0.934   4.135   5.719
 2403SOL    HW2 8097   0.909   3.988   5.740
 2404SOL     OW 8098   1.708   4.299   7.416
 2404SOL    HW1 8099   1.671   4.372   7.367
 2404SOL    HW2 8100   1.736   4.237   7.348
 2405SOL     OW 8101   1.378   4.863   6.125
 2405SOL    HW1 8102   1.459   4.850   6.076
 2405SOL    HW2 8103   1.328   4.925   6.071
 2406SOL     OW 8104   0.557   3.907   6.480
 2406SOL    HW1 8105   0.553   3.935   6.571
 2406SOL    HW2 8106   0.551   3.988   6.429
 2407SOL     OW 8107   1.023   5.168   6.058
 2407SOL    HW1 8108   0.946   5.225   6.055
 2407SOL    HW2 8109   1.038   5.154   6.151
 2408SOL     OW 8110   1.801   4.780   6.453
 2408SOL    HW1 8111   1.744   4.762   6.378
 2408SOL    HW2 8112   1.740   4.787   6.527
 2409SOL     OW 8113   1.251   5.240   7.111
 2409SOL    HW1 8114   1.215   5.173   7.169
 2409SOL    HW2 8115   1.179   5.262   7.052
 2410SOL     OW 8116   0.316   4.676   5.834
 2410SOL    HW1 8117   0.397   4.698   5.789
 2410SOL    HW2 8118   0.292   4.590   5.799
 2411SOL     OW 8119   1.479   4.468   6.312
 2411SOL    HW1 8120   1.471   4.425   6.398
 2411SOL    HW2 8121   1.557   4.523   6.320
 2412SOL     OW 8122   0.462   4.989   7.330
 2412SOL    HW1 8123   0.437   4.992   7.238
 2412SOL    HW2 8124   0.379   4.989   7.378
 2413SOL     OW 8125   1.064   0.178   5.791
 2413SOL    HW1 8126   1.083   0.105   5.851
 2413SOL    HW2 8127   1.097   0.148   5.706
 2414SOL     OW 8128   0.205   4.003   7.085
 2414SOL    HW1 8129   0.126   4.054   7.065
 2414SOL    HW2 8130   0.173   3.922   7.124
 2415SOL     OW 8131   1.622   5.101   5.695
 2415SOL    HW1 8132   1.623   5.175   5.634
 2415SOL    HW2 8133   1.554   5.043   5.661
 2416SOL     OW 8134   1.401   3.832   6.020
 2416SOL    HW1 8135   1.391   3.806   5.928
 2416SOL    HW2 8136   1.496   3.837   6.033
 2417SOL     OW 8137   0.387   4.419   6.065
 2417SOL    HW1 8138   0.415   4.329   6.074
 2417SOL    HW2 8139   0.293   4.417   6.085
 2418SOL     OW 8140   1.534   3.949   7.311
 2418SOL    HW1 8141   1.543   3.970   7.404
 2418SOL    HW2 8142   1.465   3.882   7.309
 2419SOL     OW 8143   0.636   3.846   5.690
 2419SOL    HW1 8144   0.703   3.780   5.703
 2419SOL    HW2 8145   0.586   3.815   5.614
 2420SOL     OW 8146   0.765   4.001   7.340
 2420SOL    HW1 8147   0.843   3.945   7.341
 2420SOL    HW2 8148   0.722   3.984   7.424
 2421SOL     OW 8149   1.340   4.313   7.018
 2421SOL    HW1 8150   1.371   4.281   7.103
 2421SOL    HW2 8151   1.376   4.401   7.010
 2422SOL     OW 8152   0.815   5.118   6.523
 2422SOL    HW1 8153   0.895   5.105   6.473
 2422SOL    HW2 8154   0.746   5.125   6.457
 2423SOL     OW 8155   0.928   4.234   6.488
 2423SOL    HW1 8156   0.904   4.225   6.396
 2423SOL    HW2 8157   0.959   4.146   6.514
 2424SOL     OW 8158   0.561   3.785   6.081
 2424SOL    HW1 8159   0.486   3.785   6.141
 2424SOL    HW2 8160   0.550   3.864   6.028
 2425SOL     OW 8161   1.428   4.924   5.624
 2425SOL    HW1 8162   1.458   4.849   5.674
 2425SOL    HW2 8163   1.340   4.942   5.657
 2426SOL     OW 8164   0.305   3.771   5.764
 2426SOL    HW1 8165   0.368   3.835   5.729
 2426SOL    HW2 8166   0.360   3.707   5.810
 2427SOL     OW 8167   0.940   3.972   6.045
 2427SOL    HW1 8168   0.914   4.012   5.962
 2427SOL    HW2 8169   1.035   3.987   6.050
 2428SOL     OW 8170   1.080   4.405   7.045
 2428SOL    HW1 8171   1.012   4.338   7.050
 2428SOL    HW2 8172   1.162   4.356   7.039
 2429SOL     OW 8173   1.264   5.266   6.363
 2429SOL    HW1 8174   1.218   0.047   6.338
 2429SOL    HW2 8175   1.309   5.289   6.445
 2430SOL     OW 8176   0.466   4.874   6.313
 2430SOL    HW1 8177   0.398   4.853   6.377
 2430SOL    HW2 8178   0.426   4.854   6.228
 2431SOL     OW 8179   1.023   4.265   5.610
 2431SOL    HW1 8180   0.980   4.348   5.590
 2431SOL    HW2 8181   1.088   4.286   5.676
 2432SOL     OW 8182   0.089   4.267   6.986
 2432SOL    HW1 8183   0.176   4.275   6.948
 2432SOL    HW2 8184   0.080   4.344   7.042
 2433SOL     OW 8185   0.560   3.952   6.753
 2433SOL    HW1 8186   0.598   3.872   6.791
 2433SOL    HW2 8187   0.469   3.950   6.781
 2434SOL     OW 8188   0.868   4.183   6.225
 2434SOL    HW1 8189   0.822   4.237   6.161
 2434SOL    HW2 8190   0.889   4.103   6.178
 2435SOL     OW 8191   1.016   3.777   6.336
 2435SOL    HW1 8192   0.957   3.770   6.261
 2435SOL    HW2 8193   0.994   3.702   6.392
 2436SOL     OW 8194   1.438   4.890   6.445
 2436SOL    HW1 8195   1.371   4.822   6.442
 2436SOL    HW2 8196   1.464   4.902   6.353
 2437SOL     OW 8197   1.466   4.330   6.561
 2437SOL    HW1 8198   1.414   4.250   6.564
 2437SOL    HW2 8199   1.525   4.323   6.636
 2438SOL     OW 8200   1.845   4.539   5.969
 2438SOL    HW1 8201   1.901   4.488   6.027
 2438SOL    HW2 8202   1.817   4.476   5.902
 2439SOL     OW 8203   0.482   5.145   5.737
 2439SOL    HW1 8204   0.421   5.095   5.790
 2439SOL    HW2 8205   0.485   5.099   5.653
 2440SOL     OW 8206   1.670   4.987   6.232
 2440SOL    HW1 8207   1.764   4.993   6.249
 2440SOL    HW2 8208   1.636   5.075   6.248
 2441SOL     OW 8209   1.394   4.296   5.657
 2441SOL    HW1 8210   1.333   4.276   5.728
 2441SOL    HW2 8211   1.478   4.263   5.689
 2442SOL     OW 8212   0.524   3.987   5.902
 2442SOL    HW1 8213   0.570   3.941   5.832
 2442SOL    HW2 8214   0.501   4.071   5.863
 2443SOL     OW 8215   1.750   4.960   7.159
 2443SOL    HW1 8216   1.836   4.917   7.160
 2443SOL    HW2 8217   1.769   5.053   7.172
 2444SOL     OW 8218   1.064   5.074   6.917
 2444SOL    HW1 8219   0.986   5.048   6.964
 2444SOL    HW2 8220   1.136   5.035   6.966
 2445SOL     OW 8221   1.128   4.926   6.693
 2445SOL    HW1 8222   1.077   4.968   6.764
 2445SOL    HW2 8223   1.081   4.951   6.613
 2446SOL     OW 8224   1.628   4.822   6.662
 2446SOL    HW1 8225   1.623   4.883   6.735
 2446SOL    HW2 8226   1.550   4.841   6.610
 2447SOL     OW 8227   0.918   3.820   6.982
 2447SOL    HW1 8228   0.941   3.802   6.891
 2447SOL    HW2 8229   0.998   3.859   7.018
 2448SOL     OW 8230   0.985   4.838   7.313
 2448SOL    HW1 8231   0.892   4.855   7.330
 2448SOL    HW2 8232   0.985   4.762   7.255
 2449SOL     OW 8233   0.703   4.782   5.958
 2449SOL    HW1 8234   0.693   4.766   6.052
 2449SOL    HW2 8235   0.781   4.732   5.934
 2450SOL     OW 8236   0.421   4.544   6.838
 2450SOL    HW1 8237   0.490   4.550   6.905
 2450SOL    HW2 8238   0.387   4.455   6.848
 2451SOL     OW 8239   1.265   4.101   6.862
 2451SOL    HW1 8240   1.297   4.178   6.908
 2451SOL    HW2 8241   1.174   4.122   6.840
 2452SOL     OW 8242   0.113   5.290   6.904
 2452SOL    HW1 8243   0.051   0.044   6.954
 2452SOL    HW2 8244   0.190   5.284   6.960
 2453SOL     OW 8245   0.344   4.829   6.072
 2453SOL    HW1 8246   0.347   4.908   6.017
 2453SOL    HW2 8247   0.348   4.756   6.009
 2454SOL     OW 8248   0.553   4.259   6.445
 2454SOL    HW1 8249   0.568   4.318   6.371
 2454SOL    HW2 8250   0.619   4.286   6.510
 2455SOL     OW 8251   1.261   5.078   5.971
 2455SOL    HW1 8252   1.317   5.144   6.010
 2455SOL    HW2 8253   1.173   5.101   6.001
 2456SOL     OW 8254   1.270   5.182   6.727
 2456SOL    HW1 8255   1.329   5.196   6.801
 2456SOL    HW2 8256   1.227   5.100   6.747
 2457SOL     OW 8257   1.581   4.346   6.066
 2457SOL    HW1 8258   1.533   4.398   6.130
 2457SOL    HW2 8259   1.626   4.410   6.011
 2458SOL     OW 8260   0.382   5.230   6.901
 2458SOL    HW1 8261   0.366   5.192   6.814
 2458SOL    HW2 8262   0.474   5.256   6.899
 2459SOL     OW 8263   0.415   4.467   7.188
 2459SOL    HW1 8264   0.476   4.512   7.131
 2459SOL    HW2 8265   0.452   4.379   7.200
 2460SOL     OW 8266   1.602   4.503   7.269
 2460SOL    HW1 8267   1.516   4.544   7.262
 2460SOL    HW2 8268   1.655   4.545   7.201
 2461SOL     OW 8269   0.996   3.849   7.340
 2461SOL    HW1 8270   1.053   3.921   7.313
 2461SOL    HW2 8271   1.044   3.770   7.315
 2462SOL     OW 8272   0.498   3.764   7.334
 2462SOL    HW1 8273   0.455   3.710   7.267
 2462SOL    HW2 8274   0.440   3.839   7.346
 2463SOL     OW 8275   0.586   4.597   6.618
 2463SOL    HW1 8276   0.615   4.688   6.617
 2463SOL    HW2 8277   0.529   4.591   6.695
 2464SOL     OW 8278   1.356   4.582   6.613
 2464SOL    HW1 8279   1.272   4.571   6.569
 2464SOL    HW2 8280   1.398   4.496   6.607
 2465SOL     OW 8281   1.204   4.253   5.852
 2465SOL    HW1 8282   1.212   4.174   5.906
 2465SOL    HW2 8283   1.161   4.317   5.908
 2466SOL     OW 8284   0.301   3.927   6.834
 2466SOL    HW1 8285   0.268   3.951   6.920
 2466SOL    HW2 8286   0.290   3.832   6.829
 2467SOL     OW 8287   0.044   5.021   6.862
 2467SOL    HW1 8288   0.074   4.972   6.938
 2467SOL    HW2 8289   0.044   5.112   6.890
 2468SOL     OW 8290   0.724   4.355   6.643
 2468SOL    HW1 8291   0.799   4.339   6.586
 2468SOL    HW2 8292   0.696   4.444   6.622
 2469SOL     OW 8293   1.736   4.685   7.438
 2469SOL    HW1 8294   1.689   4.621   7.384
 2469SOL    HW2 8295   1.678   4.699   7.513
 2470SOL     OW 8296   0.328   3.786   6.220
 2470SOL    HW1 8297   0.307   3.875   6.247
 2470SOL    HW2 8298   0.333   3.737   6.302
 2471SOL     OW 8299   1.617   4.099   5.952
 2471SOL    HW1 8300   1.645   4.035   6.017
 2471SOL    HW2 8301   1.595   4.177   6.003
 2472SOL     OW 8302   1.028   4.483   6.546
 2472SOL    HW1 8303   1.024   4.500   6.640
 2472SOL    HW2 8304   1.002   4.391   6.537
 2473SOL     OW 8305   1.854   5.213   7.168
 2473SOL    HW1 8306   1.846   5.290   7.112
 2473SOL    HW2 8307   1.924   5.235   7.229
 2474SOL     OW 8308   0.355   4.641   7.393
 2474SOL    HW1 8309   0.436   4.660   7.439
 2474SOL    HW2 8310   0.379   4.576   7.326
 2475SOL     OW 8311   1.529   3.997   5.713
 2475SOL    HW1 8312   1.464   3.932   5.740
 2475SOL    HW2 8313   1.562   4.032   5.795
 2476SOL     OW 8314   1.291   4.550   5.617
 2476SOL    HW1 8315   1.334   4.464   5.620
 2476SOL    HW2 8316   1.322   4.589   5.535
 2477SOL     OW 8317   1.058   5.080   6.409
 2477SOL    HW1 8318   1.063   4.994   6.367
 2477SOL    HW2 8319   1.145   5.118   6.398
 2478SOL     OW 8320   0.314   4.533   6.535
 2478SOL    HW1 8321   0.408   4.550   6.531
 2478SOL    HW2 8322   0.307   4.443   6.567
 2479SOL     OW 8323   0.335   4.250   6.601
 2479SOL    HW1 8324   0.299   4.162   6.587
 2479SOL    HW2 8325   0.409   4.256   6.542
 2480SOL     OW 8326   1.135   4.099   7.268
 2480SOL    HW1 8327   1.087   4.154   7.330
 2480SOL    HW2 8328   1.222   4.138   7.264
 2481SOL     OW 8329   1.161   3.926   7.056
 2481SOL    HW1 8330   1.150   3.988   7.127
 2481SOL    HW2 8331   1.201   3.977   6.985
 2482SOL     OW 8332   0.002   5.046   5.793
 2482SOL    HW1 8333   5.227   5.032   5.735
 2482SOL    HW2 8334   0.014   4.962   5.837
 2483SOL     OW 8335   0.981   4.515   6.812
 2483SOL    HW1 8336   1.038   4.493   6.886
 2483SOL    HW2 8337   0.896   4.476   6.834
 2484SOL     OW 8338   0.032   4.286   6.702
 2484SOL    HW1 8339   0.118   4.262   6.669
 2484SOL    HW2 8340   0.037   4.267   6.796
 2485SOL     OW 8341   0.174   4.237   7.303
 2485SOL    HW1 8342   0.235   4.196   7.242
 2485SOL    HW2 8343   0.147   4.317   7.259
 2486SOL     OW 8344   1.377   4.662   7.244
 2486SOL    HW1 8345   1.398   4.755   7.241
 2486SOL    HW2 8346   1.373   4.635   7.153
 2487SOL     OW 8347   0.817   4.293   5.947
 2487SOL    HW1 8348   0.821   4.219   5.887
 2487SOL    HW2 8349   0.742   4.345   5.916
 2488SOL     OW 8350   1.642   4.325   6.771
 2488SOL    HW1 8351   1.631   4.266   6.846
 2488SOL    HW2 8352   1.729   4.306   6.737
 2489SOL     OW 8353   0.208   5.278   7.318
 2489SOL    HW1 8354   0.157   0.015   7.390
 2489SOL    HW2 8355   0.215   5.185   7.340
 2490SOL     OW 8356   0.704   4.173   6.845
 2490SOL    HW1 8357   0.650   4.099   6.816
 2490SOL    HW2 8358   0.698   4.236   6.773
 2491SOL     OW 8359   0.464   4.217   5.770
 2491SOL    HW1 8360   0.525   4.288   5.793
 2491SOL    HW2 8361   0.380   4.260   5.757
 2492SOL     OW 8362   0.150   4.861   7.058
 2492SOL    HW1 8363   0.146   4.812   7.140
 2492SOL    HW2 8364   0.160   4.793   6.991
 2493SOL     OW 8365   1.326   4.769   6.808
 2493SOL    HW1 8366   1.348   4.706   6.739
 2493SOL    HW2 8367   1.256   4.822   6.770
 2494SOL     OW 8368   1.311   4.582   5.892
 2494SOL    HW1 8369   1.237   4.549   5.942
 2494SOL    HW2 8370   1.287   4.567   5.800
 2495SOL     OW 8371   0.075   4.915   6.616
 2495SOL    HW1 8372   0.064   4.957   6.702
 2495SOL    HW2 8373   5.288   4.921   6.576
 2496SOL     OW 8374   0.752   0.035   7.297
 2496SOL    HW1 8375   0.660   0.059   7.305
 2496SOL    HW2 8376   0.776   0.061   7.208
 2497SOL     OW 8377   1.719   3.872   6.095
 2497SOL    HW1 8378   1.792   3.857   6.034
 2497SOL    HW2 8379   1.704   3.787   6.135
 2498SOL     OW 8380   1.277   4.650   6.258
 2498SOL    HW1 8381   1.350   4.589   6.266
 2498SOL    HW2 8382   1.312   4.722   6.204
 2499SOL     OW 8383   0.817   4.993   7.003
 2499SOL    HW1 8384   0.785   5.029   7.086
 2499SOL    HW2 8385   0.742   5.000   6.944
 2500SOL     OW 8386   1.841   3.897   6.553
 2500SOL    HW1 8387   1.870   3.809   6.526
 2500SOL    HW2 8388   1.755   3.906   6.513
 2501SOL     OW 8389   0.273   4.041   6.303
 2501SOL    HW1 8390   0.188   4.079   6.283
 2501SOL    HW2 8391   0.273   4.030   6.398
 2502SOL     OW 8392   0.825   4.727   6.957
 2502SOL    HW1 8393   0.871   4.718   6.874
 2502SOL    HW2 8394   0.828   4.820   6.977
 2503SOL     OW 8395   0.916   4.636   5.877
 2503SOL    HW1 8396   0.977   4.668   5.810
 2503SOL    HW2 8397   0.964   4.566   5.921
 2504SOL     OW 8398   0.365   5.029   7.088
 2504SOL    HW1 8399   0.367   5.097   7.021
 2504SOL    HW2 8400   0.291   4.974   7.063
 2505SOL     OW 8401   1.612   5.004   6.868
 2505SOL    HW1 8402   1.668   4.996   6.945
 2505SOL    HW2 8403   1.550   5.073   6.891
 2506SOL     OW 8404   1.056   4.834   6.298
 2506SOL    HW1 8405   0.984   4.783   6.334
 2506SOL    HW2 8406   1.118   4.768   6.267
 2507SOL     OW 8407   1.022   3.965   6.552
 2507SOL    HW1 8408   1.017   3.917   6.469
 2507SOL    HW2 8409   1.016   3.897   6.619
 2508SOL     OW 8410   1.723   4.116   6.967
 2508SOL    HW1 8411   1.795   4.179   6.965
 2508SOL    HW2 8412   1.752   4.045   6.910
 2509SOL     OW 8413   0.259   5.059   5.873
 2509SOL    HW1 8414   0.167   5.062   5.849
 2509SOL    HW2 8415   0.262   5.097   5.961
 2510SOL     OW 8416   0.117   4.743   7.305
 2510SOL    HW1 8417   0.045   4.705   7.357
 2510SOL    HW2 8418   0.197   4.709   7.347
 2511SOL     OW 8419   0.674   3.920   7.085
 2511SOL    HW1 8420   0.758   3.900   7.044
 2511SOL    HW2 8421   0.697   3.951   7.173
 2512SOL     OW 8422   0.084   4.072   5.627
 2512SOL    HW1 8423   0.003   4.024   5.604
 2512SOL    HW2 8424   0.099   4.130   5.553
 2513SOL     OW 8425   1.429   4.582   6.986
 2513SOL    HW1 8426   1.380   4.643   6.930
 2513SOL    HW2 8427   1.518   4.584   6.951
 2514SOL     OW 8428   0.056   3.857   5.830
 2514SOL    HW1 8429   0.055   3.952   5.818
 2514SOL    HW2 8430   0.145   3.831   5.806
 2515SOL     OW 8431   1.182   5.063   5.707
 2515SOL    HW1 8432   1.091   5.034   5.708
 2515SOL    HW2 8433   1.210   5.055   5.798
 2516SOL     OW 8434   0.619   4.555   7.022
 2516SOL    HW1 8435   0.677   4.630   7.005
 2516SOL    HW2 8436   0.679   4.481   7.030
 2517SOL     OW 8437   0.717   4.287   7.290
 2517SOL    HW1 8438   0.759   4.348   7.351
 2517SOL    HW2 8439   0.743   4.200   7.322
 2518SOL     OW 8440   1.474   4.922   7.217
 2518SOL    HW1 8441   1.461   4.934   7.311
 2518SOL    HW2 8442   1.568   4.936   7.204
 2519SOL     OW 8443   1.669   4.605   6.841
 2519SOL    HW1 8444   1.663   4.520   6.798
 2519SOL    HW2 8445   1.659   4.668   6.770
 2520SOL     OW 8446   1.217   4.043   6.044
 2520SOL    HW1 8447   1.279   3.971   6.036
 2520SOL    HW2 8448   1.246   4.092   6.121
 2521SOL     OW 8449   0.590   4.461   6.256
 2521SOL    HW1 8450   0.628   4.547   6.241
 2521SOL    HW2 8451   0.521   4.453   6.190
 2522SOL     OW 8452   1.761   4.087   7.238
 2522SOL    HW1 8453   1.745   4.102   7.145
 2522SOL    HW2 8454   1.689   4.030   7.265
 2523SOL     OW 8455   1.746   4.657   7.098
 2523SOL    HW1 8456   1.739   4.752   7.111
 2523SOL    HW2 8457   1.730   4.645   7.004
 2524SOL     OW 8458   0.848   5.094   5.606
 2524SOL    HW1 8459   0.831   5.094   5.700
 2524SOL    HW2 8460   0.863   5.186   5.584
 2525SOL     OW 8461   0.869   4.692   6.440
 2525SOL    HW1 8462   0.918   4.620   6.480
 2525SOL    HW2 8463   0.833   4.741   6.514
 2526SOL     OW 8464   1.080   4.714   5.676
 2526SOL    HW1 8465   1.057   4.763   5.597
 2526SOL    HW2 8466   1.154   4.659   5.649
 2527SOL     OW 8467   0.218   5.023   7.442
 2527SOL    HW1 8468   0.155   4.954   7.420
 2527SOL    HW2 8469   0.209   5.034   7.537
 2528SOL     OW 8470   0.084   4.926   6.241
 2528SOL    HW1 8471   0.103   4.906   6.332
 2528SOL    HW2 8472   0.169   4.945   6.201
 2529SOL     OW 8473   0.672   5.102   7.196
 2529SOL    HW1 8474   0.594   5.073   7.242
 2529SOL    HW2 8475   0.704   5.176   7.247
 2530SOL     OW 8476   1.813   3.908   6.824
 2530SOL    HW1 8477   1.822   3.814   6.838
 2530SOL    HW2 8478   1.822   3.919   6.729
 2531SOL     OW 8479   0.436   4.160   6.110
 2531SOL    HW1 8480   0.463   4.087   6.054
 2531SOL    HW2 8481   0.388   4.118   6.182
 2532SOL     OW 8482   1.706   5.224   6.705
 2532SOL    HW1 8483   1.633   5.208   6.646
 2532SOL    HW2 8484   1.713   5.145   6.758
 2533SOL     OW 8485   0.338   4.284   6.878
 2533SOL    HW1 8486   0.391   4.225   6.931
 2533SOL    HW2 8487   0.351   4.254   6.788
 2534SOL     OW 8488   1.432   3.950   6.704
 2534SOL    HW1 8489   1.455   3.869   6.749
 2534SOL    HW2 8490   1.380   3.999   6.768
 2535SOL     OW 8491   1.009   3.742   6.727
 2535SOL    HW1 8492   0.954   3.675   6.687
 2535SOL    HW2 8493   1.097   3.704   6.729
 2536SOL     OW 8494   0.805   5.046   5.870
 2536SOL    HW1 8495   0.745   4.974   5.890
 2536SOL    HW2 8496   0.859   5.056   5.949
 2537SOL     OW 8497   0.641   0.003   6.875
 2537SOL    HW1 8498   0.645   0.058   6.954
 2537SOL    HW2 8499   0.733   5.286   6.853
 2538SOL     OW 8500   1.353   3.777   5.752
 2538SOL    HW1 8501   1.382   3.712   5.688
 2538SOL    HW2 8502   1.265   3.749   5.778
 2539SOL     OW 8503   1.297   4.185   6.266
 2539SOL    HW1 8504   1.243   4.264   6.273
 2539SOL    HW2 8505   1.292   4.146   6.354
 2540SOL     OW 8506   1.586   3.925   6.465
 2540SOL    HW1 8507   1.527   3.946   6.536
 2540SOL    HW2 8508   1.586   4.003   6.409
 2541SOL     OW 8509   0.048   4.789   5.876
 2541SOL    HW1 8510   0.138   4.757   5.866
 2541SOL    HW2 8511   0.000   4.716   5.915
 2542SOL     OW 8512   0.229   4.354   7.567
 2542SOL    HW1 8513   0.157   4.311   7.613
 2542SOL    HW2 8514   0.220   4.326   7.476
 2543SOL     OW 8515   1.768   4.321   7.679
 2543SOL    HW1 8516   1.747   4.317   7.585
 2543SOL    HW2 8517   1.727   4.243   7.716
 2544SOL     OW 8518   0.280   0.133   7.959
 2544SOL    HW1 8519   0.239   0.209   8.001
 2544SOL    HW2 8520   0.286   0.157   7.867
 2545SOL     OW 8521   0.226   5.159   7.991
 2545SOL    HW1 8522   0.236   5.254   7.994
 2545SOL    HW2 8523   0.156   5.140   8.053
 2546SOL     OW 8524   0.581   4.708   7.582
 2546SOL    HW1 8525   0.628   4.755   7.513
 2546SOL    HW2 8526   0.622   4.738   7.663
 2547SOL     OW 8527   0.002   5.297   7.523
 2547SOL    HW1 8528   0.015   5.210   7.560
 2547SOL    HW2 8529   0.020   0.057   7.595
 2548SOL     OW 8530   1.682   4.589   8.033
 2548SOL    HW1 8531   1.761   4.600   0.006
 2548SOL    HW2 8532   1.670   4.673   7.989
 2549SOL     OW 8533   1.657   4.824   7.877
 2549SOL    HW1 8534   1.745   4.844   7.846
 2549SOL    HW2 8535   1.636   4.896   7.937
 2550SOL     OW 8536   0.799   3.719   7.938
 2550SOL    HW1 8537   0.849   3.799   7.921
 2550SOL    HW2 8538   0.709   3.749   7.948
 2551SOL     OW 8539   1.532   4.722   7.649
 2551SOL    HW1 8540   1.466   4.662   7.683
 2551SOL    HW2 8541   1.577   4.755   7.727
 2552SOL     OW 8542   0.588   4.447   7.708
 2552SOL    HW1 8543   0.595   4.530   7.660
 2552SOL    HW2 8544   0.535   4.468   7.785
 2553SOL     OW 8545   0.053   4.542   0.200
 2553SOL    HW1 8546   0.122   4.485   0.167
 2553SOL    HW2 8547   0.031   4.600   0.126
 2554SOL     OW 8548   0.884   4.072   7.638
 2554SOL    HW1 8549   0.927   4.131   7.576
 2554SOL    HW2 8550   0.917   3.985   7.614
 2555SOL     OW 8551   0.316   4.672   7.693
 2555SOL    HW1 8552   0.398   4.698   7.650
 2555SOL    HW2 8553   0.294   4.587   7.654
 2556SOL     OW 8554   1.083   0.191   7.644
 2556SOL    HW1 8555   1.066   0.123   7.710
 2556SOL    HW2 8556   1.089   0.144   7.561
 2557SOL     OW 8557   1.626   5.100   7.552
 2557SOL    HW1 8558   1.614   5.178   7.498
 2557SOL    HW2 8559   1.557   5.041   7.523
 2558SOL     OW 8560   1.417   3.857   7.864
 2558SOL    HW1 8561   1.405   3.821   7.776
 2558SOL    HW2 8562   1.511   3.855   7.878
 2559SOL     OW 8563   0.379   4.424   7.923
 2559SOL    HW1 8564   0.397   4.330   7.928
 2559SOL    HW2 8565   0.285   4.431   7.937
 2560SOL     OW 8566   0.630   3.843   7.558
 2560SOL    HW1 8567   0.703   3.783   7.569
 2560SOL    HW2 8568   0.585   3.812   7.479
 2561SOL     OW 8569   0.526   3.800   7.961
 2561SOL    HW1 8570   0.439   3.805   8.000
 2561SOL    HW2 8571   0.528   3.870   7.896
 2562SOL     OW 8572   1.428   4.925   7.487
 2562SOL    HW1 8573   1.458   4.850   7.539
 2562SOL    HW2 8574   1.340   4.944   7.520
 2563SOL     OW 8575   0.307   3.767   7.619
 2563SOL    HW1 8576   0.368   3.831   7.583
 2563SOL    HW2 8577   0.362   3.705   7.667
 2564SOL     OW 8578   0.944   3.949   7.910
 2564SOL    HW1 8579   0.901   4.014   7.854
 2564SOL    HW2 8580   1.035   3.979   7.914
 2565SOL     OW 8581   0.448   4.884   0.088
 2565SOL    HW1 8582   0.376   4.904   0.148
 2565SOL    HW2 8583   0.405   4.865   0.005
 2566SOL     OW 8584   1.025   4.265   7.468
 2566SOL    HW1 8585   0.980   4.347   7.451
 2566SOL    HW2 8586   1.085   4.284   7.540
 2567SOL     OW 8587   1.873   4.539   7.801
 2567SOL    HW1 8588   1.863   4.514   7.893
 2567SOL    HW2 8589   1.833   4.467   7.753
 2568SOL     OW 8590   0.475   5.148   7.600
 2568SOL    HW1 8591   0.417   5.096   7.655
 2568SOL    HW2 8592   0.482   5.098   7.518
 2569SOL     OW 8593   1.394   4.296   7.519
 2569SOL    HW1 8594   1.333   4.275   7.590
 2569SOL    HW2 8595   1.478   4.262   7.550
 2570SOL     OW 8596   0.527   3.990   7.769
 2570SOL    HW1 8597   0.571   3.940   7.700
 2570SOL    HW2 8598   0.502   4.072   7.728
 2571SOL     OW 8599   0.707   4.783   7.814
 2571SOL    HW1 8600   0.689   4.770   7.907
 2571SOL    HW2 8601   0.787   4.733   7.799
 2572SOL     OW 8602   0.345   4.820   7.926
 2572SOL    HW1 8603   0.339   4.903   7.881
 2572SOL    HW2 8604   0.346   4.754   7.857
 2573SOL     OW 8605   1.225   5.116   7.832
 2573SOL    HW1 8606   1.312   5.123   7.873
 2573SOL    HW2 8607   1.175   5.062   7.893
 2574SOL     OW 8608   1.587   4.351   7.921
 2574SOL    HW1 8609   1.576   4.409   7.995
 2574SOL    HW2 8610   1.626   4.406   7.853
 2575SOL     OW 8611   1.203   4.250   7.714
 2575SOL    HW1 8612   1.205   4.167   7.761
 2575SOL    HW2 8613   1.177   4.314   7.781
 2576SOL     OW 8614   1.620   4.104   7.813
 2576SOL    HW1 8615   1.641   4.037   7.878
 2576SOL    HW2 8616   1.595   4.180   7.864
 2577SOL     OW 8617   1.529   3.999   7.575
 2577SOL    HW1 8618   1.464   3.934   7.600
 2577SOL    HW2 8619   1.562   4.034   7.658
 2578SOL     OW 8620   1.293   4.551   7.480
 2578SOL    HW1 8621   1.335   4.465   7.482
 2578SOL    HW2 8622   1.323   4.590   7.398
 2579SOL     OW 8623   0.004   5.050   7.654
 2579SOL    HW1 8624   5.226   5.039   7.599
 2579SOL    HW2 8625   0.018   4.964   7.693
 2580SOL     OW 8626   0.842   4.328   7.758
 2580SOL    HW1 8627   0.835   4.236   7.733
 2580SOL    HW2 8628   0.751   4.359   7.761
 2581SOL     OW 8629   0.461   4.217   7.638
 2581SOL    HW1 8630   0.522   4.288   7.655
 2581SOL    HW2 8631   0.377   4.260   7.622
 2582SOL     OW 8632   1.311   4.579   7.754
 2582SOL    HW1 8633   1.224   4.580   7.794
 2582SOL    HW2 8634   1.294   4.566   7.660
 2583SOL     OW 8635   1.712   3.872   7.946
 2583SOL    HW1 8636   1.788   3.864   7.889
 2583SOL    HW2 8637   1.715   3.794   8.001
 2584SOL     OW 8638   0.925   4.633   7.756
 2584SOL    HW1 8639   0.979   4.658   7.681
 2584SOL    HW2 8640   0.919   4.538   7.751
 2585SOL     OW 8641   0.260   5.059   7.746
 2585SOL    HW1 8642   0.168   5.067   7.721
 2585SOL    HW2 8643   0.265   5.098   7.833
 2586SOL     OW 8644   0.083   4.063   7.488
 2586SOL    HW1 8645   5.299   4.024   7.464
 2586SOL    HW2 8646   0.100   4.127   7.419
 2587SOL     OW 8647   0.082   3.861   7.739
 2587SOL    HW1 8648   0.068   3.948   7.701
 2587SOL    HW2 8649   0.154   3.825   7.687
 2588SOL     OW 8650   1.181   5.058   7.565
 2588SOL    HW1 8651   1.088   5.032   7.562
 2588SOL    HW2 8652   1.198   5.073   7.658
 2589SOL     OW 8653   1.214   4.042   7.903
 2589SOL    HW1 8654   1.288   3.982   7.892
 2589SOL    HW2 8655   1.235   4.089   7.984
 2590SOL     OW 8656   0.626   4.467   8.043
 2590SOL    HW1 8657   0.629   4.542   0.023
 2590SOL    HW2 8658   0.534   4.460   8.018
 2591SOL     OW 8659   0.850   5.093   7.467
 2591SOL    HW1 8660   0.834   5.093   7.561
 2591SOL    HW2 8661   0.861   5.186   7.444
 2592SOL     OW 8662   1.073   4.703   7.539
 2592SOL    HW1 8663   1.053   4.759   7.464
 2592SOL    HW2 8664   1.151   4.653   7.512
 2593SOL     OW 8665   0.392   4.156   7.980
 2593SOL    HW1 8666   0.435   4.095   7.920
 2593SOL    HW2 8667   0.438   4.143   8.064
 2594SOL     OW 8668   0.807   5.049   7.731
 2594SOL    HW1 8669   0.754   4.972   7.752
 2594SOL    HW2 8670   0.821   5.091   7.816
 2595SOL     OW 8671   1.353   3.777   7.610
 2595SOL    HW1 8672   1.383   3.708   7.550
 2595SOL    HW2 8673   1.266   3.747   7.638
 2596SOL     OW 8674   0.050   4.791   7.724
 2596SOL    HW1 8675   0.139   4.756   7.721
 2596SOL    HW2 8676   0.001   4.731   7.780
 2597SOL     OW 8677   2.077   0.624   0.121
 2597SOL    HW1 8678   1.998   0.588   0.162
 2597SOL    HW2 8679   2.104   0.556   0.058
 2598SOL     OW 8680   2.079   0.285   0.993
 2598SOL    HW1 8681   2.108   0.249   1.077
 2598SOL    HW2 8682   1.995   0.242   0.977
 2599SOL     OW 8683   1.865   0.387   0.637
 2599SOL    HW1 8684   1.781   0.409   0.678
 2599SOL    HW2 8685   1.847   0.309   0.585
 2600SOL     OW 8686   2.429   1.290   1.176
 2600SOL    HW1 8687   2.342   1.293   1.138
 2600SOL    HW2 8688   2.445   1.378   1.209
 2601SOL     OW 8689   3.424   1.512   0.708
 2601SOL    HW1 8690   3.382   1.491   0.791
 2601SOL    HW2 8691   3.353   1.515   0.644
 2602SOL     OW 8692   2.994   0.697   0.701
 2602SOL    HW1 8693   3.042   0.779   0.687
 2602SOL    HW2 8694   2.946   0.712   0.783
 2603SOL     OW 8695   3.634   0.599   0.231
 2603SOL    HW1 8696   3.589   0.605   0.147
 2603SOL    HW2 8697   3.592   0.525   0.275
 2604SOL     OW 8698   2.615   1.141   1.042
 2604SOL    HW1 8699   2.547   1.177   1.099
 2604SOL    HW2 8700   2.652   1.218   0.998
 2605SOL     OW 8701   2.730   0.775   1.823
 2605SOL    HW1 8702   2.718   0.847   1.886
 2605SOL    HW2 8703   2.754   0.819   1.741
 2606SOL     OW 8704   2.546   1.001   0.649
 2606SOL    HW1 8705   2.612   0.990   0.718
 2606SOL    HW2 8706   2.478   1.054   0.690
 2607SOL     OW 8707   2.573   1.150   1.813
 2607SOL    HW1 8708   2.620   1.228   1.841
 2607SOL    HW2 8709   2.491   1.184   1.777
 2608SOL     OW 8710   2.192   1.424   1.068
 2608SOL    HW1 8711   2.120   1.386   1.018
 2608SOL    HW2 8712   2.241   1.474   1.003
 2609SOL     OW 8713   3.322   1.500   1.356
 2609SOL    HW1 8714   3.374   1.580   1.365
 2609SOL    HW2 8715   3.259   1.504   1.427
 2610SOL     OW 8716   2.307   0.398   1.484
 2610SOL    HW1 8717   2.381   0.338   1.483
 2610SOL    HW2 8718   2.231   0.341   1.500
 2611SOL     OW 8719   3.472   0.451   0.739
 2611SOL    HW1 8720   3.393   0.471   0.688
 2611SOL    HW2 8721   3.488   0.530   0.790
 2612SOL     OW 8722   2.082   1.716   0.471
 2612SOL    HW1 8723   2.103   1.792   0.525
 2612SOL    HW2 8724   2.157   1.707   0.412
 2613SOL     OW 8725   2.998   1.342   1.693
 2613SOL    HW1 8726   3.040   1.336   1.779
 2613SOL    HW2 8727   2.946   1.262   1.686
 2614SOL     OW 8728   2.089   1.441   0.529
 2614SOL    HW1 8729   2.074   1.536   0.534
 2614SOL    HW2 8730   2.031   1.404   0.596
 2615SOL     OW 8731   2.121   1.090   0.891
 2615SOL    HW1 8732   2.118   1.003   0.932
 2615SOL    HW2 8733   2.063   1.144   0.945
 2616SOL     OW 8734   2.472   1.790   1.429
 2616SOL    HW1 8735   2.390   1.774   1.476
 2616SOL    HW2 8736   2.496   1.879   1.454
 2617SOL     OW 8737   2.488   0.960   0.136
 2617SOL    HW1 8738   2.437   1.037   0.110
 2617SOL    HW2 8739   2.541   0.990   0.209
 2618SOL     OW 8740   3.448   0.136   1.455
 2618SOL    HW1 8741   3.473   0.220   1.417
 2618SOL    HW2 8742   3.444   0.153   1.549
 2619SOL     OW 8743   1.977   0.652   0.562
 2619SOL    HW1 8744   1.948   0.563   0.583
 2619SOL    HW2 8745   1.969   0.700   0.645
 2620SOL     OW 8746   3.708   1.757   0.330
 2620SOL    HW1 8747   3.774   1.727   0.393
 2620SOL    HW2 8748   3.732   1.848   0.312
 2621SOL     OW 8749   1.894   1.595   0.110
 2621SOL    HW1 8750   1.879   1.507   0.145
 2621SOL    HW2 8751   1.876   1.653   0.184
 2622SOL     OW 8752   3.551   0.919   0.645
 2622SOL    HW1 8753   3.632   0.875   0.622
 2622SOL    HW2 8754   3.528   0.970   0.568
 2623SOL     OW 8755   3.508   1.104   0.435
 2623SOL    HW1 8756   3.589   1.117   0.385
 2623SOL    HW2 8757   3.514   1.167   0.507
 2624SOL     OW 8758   1.985   0.744   1.584
 2624SOL    HW1 8759   2.077   0.771   1.591
 2624SOL    HW2 8760   1.936   0.826   1.592
 2625SOL     OW 8761   2.476   1.387   0.735
 2625SOL    HW1 8762   2.430   1.304   0.744
 2625SOL    HW2 8763   2.460   1.413   0.644
 2626SOL     OW 8764   3.150   1.238   1.423
 2626SOL    HW1 8765   3.182   1.170   1.363
 2626SOL    HW2 8766   3.208   1.232   1.499
 2627SOL     OW 8767   2.674   0.030   0.531
 2627SOL    HW1 8768   2.704   0.115   0.499
 2627SOL    HW2 8769   2.579   0.033   0.524
 2628SOL     OW 8770   2.052   0.966   1.272
 2628SOL    HW1 8771   2.137   0.924   1.257
 2628SOL    HW2 8772   1.990   0.911   1.223
 2629SOL     OW 8773   3.371   1.008   0.213
 2629SOL    HW1 8774   3.308   0.943   0.247
 2629SOL    HW2 8775   3.423   1.032   0.289
 2630SOL     OW 8776   3.047   1.807   1.623
 2630SOL    HW1 8777   3.056   1.867   1.548
 2630SOL    HW2 8778   3.064   1.721   1.586
 2631SOL     OW 8779   2.191   0.267   1.813
 2631SOL    HW1 8780   2.242   0.342   1.843
 2631SOL    HW2 8781   2.104   0.280   1.851
 2632SOL     OW 8782   3.329   1.419   0.951
 2632SOL    HW1 8783   3.261   1.435   1.016
 2632SOL    HW2 8784   3.316   1.328   0.924
 2633SOL     OW 8785   3.520   1.743   0.582
 2633SOL    HW1 8786   3.500   1.714   0.493
 2633SOL    HW2 8787   3.496   1.669   0.637
 2634SOL     OW 8788   2.460   0.713   0.283
 2634SOL    HW1 8789   2.477   0.792   0.231
 2634SOL    HW2 8790   2.395   0.741   0.347
 2635SOL     OW 8791   3.139   0.348   0.932
 2635SOL    HW1 8792   3.048   0.319   0.944
 2635SOL    HW2 8793   3.189   0.298   0.996
 2636SOL     OW 8794   3.449   1.672   0.320
 2636SOL    HW1 8795   3.540   1.700   0.312
 2636SOL    HW2 8796   3.421   1.655   0.230
 2637SOL     OW 8797   2.656   0.618   1.449
 2637SOL    HW1 8798   2.629   0.597   1.538
 2637SOL    HW2 8799   2.615   0.552   1.395
 2638SOL     OW 8800   3.257   0.475   1.678
 2638SOL    HW1 8801   3.259   0.520   1.763
 2638SOL    HW2 8802   3.320   0.404   1.687
 2639SOL     OW 8803   2.816   0.887   1.583
 2639SOL    HW1 8804   2.871   0.817   1.547
 2639SOL    HW2 8805   2.768   0.921   1.507
 2640SOL     OW 8806   2.856   0.417   1.234
 2640SOL    HW1 8807   2.770   0.437   1.271
 2640SOL    HW2 8808   2.837   0.369   1.154
 2641SOL     OW 8809   2.915   0.699   0.428
 2641SOL    HW1 8810   2.931   0.691   0.522
 2641SOL    HW2 8811   2.832   0.653   0.413
 2642SOL     OW 8812   1.951   0.822   0.776
 2642SOL    HW1 8813   2.031   0.814   0.828
 2642SOL    HW2 8814   1.907   0.899   0.812
 2643SOL     OW 8815   1.987   1.855   1.580
 2643SOL    HW1 8816   1.989   1.832   1.673
 2643SOL    HW2 8817   1.898   1.835   1.552
 2644SOL     OW 8818   2.749   0.359   0.203
 2644SOL    HW1 8819   2.793   0.407   0.133
 2644SOL    HW2 8820   2.731   0.273   0.166
 2645SOL     OW 8821   3.569   0.573   1.828
 2645SOL    HW1 8822   3.532   0.647   1.779
 2645SOL    HW2 8823   3.599   0.513   1.761
 2646SOL     OW 8824   3.239   1.142   0.541
 2646SOL    HW1 8825   3.317   1.129   0.488
 2646SOL    HW2 8826   3.186   1.204   0.492
 2647SOL     OW 8827   2.385   0.202   0.882
 2647SOL    HW1 8828   2.408   0.218   0.974
 2647SOL    HW2 8829   2.409   0.283   0.837
 2648SOL     OW 8830   2.866   1.444   0.472
 2648SOL    HW1 8831   2.829   1.517   0.423
 2648SOL    HW2 8832   2.847   1.465   0.564
 2649SOL     OW 8833   2.216   1.809   0.862
 2649SOL    HW1 8834   2.260   1.724   0.870
 2649SOL    HW2 8835   2.284   1.873   0.881
 2650SOL     OW 8836   3.662   1.056   0.869
 2650SOL    HW1 8837   3.608   1.036   0.792
 2650SOL    HW2 8838   3.599   1.062   0.941
 2651SOL     OW 8839   3.090   1.539   1.513
 2651SOL    HW1 8840   3.076   1.466   1.574
 2651SOL    HW2 8841   3.026   1.524   1.443
 2652SOL     OW 8842   2.187   0.943   0.256
 2652SOL    HW1 8843   2.257   0.983   0.204
 2652SOL    HW2 8844   2.187   0.851   0.231
 2653SOL     OW 8845   3.341   0.744   0.726
 2653SOL    HW1 8846   3.333   0.702   0.811
 2653SOL    HW2 8847   3.419   0.800   0.734
 2654SOL     OW 8848   2.329   1.266   1.738
 2654SOL    HW1 8849   2.302   1.270   1.646
 2654SOL    HW2 8850   2.247   1.263   1.787
 2655SOL     OW 8851   2.969   1.781   0.223
 2655SOL    HW1 8852   2.913   1.740   0.290
 2655SOL    HW2 8853   2.990   1.710   0.163
 2656SOL     OW 8854   2.059   0.278   1.504
 2656SOL    HW1 8855   1.980   0.331   1.501
 2656SOL    HW2 8856   2.052   0.228   1.585
 2657SOL     OW 8857   3.496   1.373   0.082
 2657SOL    HW1 8858   3.455   1.459   0.083
 2657SOL    HW2 8859   3.425   1.312   0.064
 2658SOL     OW 8860   2.326   1.738   0.322
 2658SOL    HW1 8861   2.371   1.794   0.386
 2658SOL    HW2 8862   2.396   1.707   0.264
 2659SOL     OW 8863   3.278   0.100   0.447
 2659SOL    HW1 8864   3.271   0.079   0.353
 2659SOL    HW2 8865   3.369   0.127   0.458
 2660SOL     OW 8866   2.118   1.792   1.231
 2660SOL    HW1 8867   2.170   1.726   1.277
 2660SOL    HW2 8868   2.110   1.758   1.142
 2661SOL     OW 8869   2.800   1.698   0.899
 2661SOL    HW1 8870   2.878   1.647   0.920
 2661SOL    HW2 8871   2.757   1.648   0.830
 2662SOL     OW 8872   2.248   0.698   0.476
 2662SOL    HW1 8873   2.272   0.606   0.487
 2662SOL    HW2 8874   2.155   0.702   0.499
 2663SOL     OW 8875   3.400   0.228   1.723
 2663SOL    HW1 8876   3.408   0.245   1.817
 2663SOL    HW2 8877   3.324   0.170   1.715
 2664SOL     OW 8878   2.487   0.137   0.124
 2664SOL    HW1 8879   2.579   0.110   0.133
 2664SOL    HW2 8880   2.459   0.099   0.041
 2665SOL     OW 8881   2.641   0.312   1.768
 2665SOL    HW1 8882   2.700   0.237   1.768
 2665SOL    HW2 8883   2.594   0.306   1.851
 2666SOL     OW 8884   2.737   1.521   1.194
 2666SOL    HW1 8885   2.722   1.485   1.107
 2666SOL    HW2 8886   2.808   1.467   1.230
 2667SOL     OW 8887   3.203   0.589   1.432
 2667SOL    HW1 8888   3.233   0.558   1.518
 2667SOL    HW2 8889   3.239   0.677   1.425
 2668SOL     OW 8890   2.678   1.394   0.941
 2668SOL    HW1 8891   2.762   1.382   0.897
 2668SOL    HW2 8892   2.614   1.396   0.869
 2669SOL     OW 8893   2.789   0.510   0.902
 2669SOL    HW1 8894   2.765   0.502   0.810
 2669SOL    HW2 8895   2.820   0.423   0.927
 2670SOL     OW 8896   2.404   0.061   0.511
 2670SOL    HW1 8897   2.318   0.058   0.552
 2670SOL    HW2 8898   2.398   0.130   0.445
 2671SOL     OW 8899   3.295   1.199   0.036
 2671SOL    HW1 8900   3.319   1.126   0.092
 2671SOL    HW2 8901   3.207   1.224   0.064
 2672SOL     OW 8902   2.162   0.071   0.206
 2672SOL    HW1 8903   2.220   0.142   0.177
 2672SOL    HW2 8904   2.215   5.291   0.195
 2673SOL     OW 8905   2.807   0.259   0.454
 2673SOL    HW1 8906   2.781   0.304   0.374
 2673SOL    HW2 8907   2.899   0.281   0.465
 2674SOL     OW 8908   2.943   0.682   1.459
 2674SOL    HW1 8909   2.875   0.615   1.464
 2674SOL    HW2 8910   3.025   0.633   1.453
 2675SOL     OW 8911   3.084   1.570   0.794
 2675SOL    HW1 8912   3.100   1.637   0.727
 2675SOL    HW2 8913   3.153   1.585   0.860
 2676SOL     OW 8914   2.330   1.152   0.733
 2676SOL    HW1 8915   2.262   1.131   0.797
 2676SOL    HW2 8916   2.289   1.135   0.648
 2677SOL     OW 8917   3.129   1.793   0.608
 2677SOL    HW1 8918   3.179   1.857   0.557
 2677SOL    HW2 8919   3.062   1.846   0.652
 2678SOL     OW 8920   2.891   0.526   0.032
 2678SOL    HW1 8921   2.852   0.609   0.003
 2678SOL    HW2 8922   2.955   0.552   0.099
 2679SOL     OW 8923   1.941   0.553   1.393
 2679SOL    HW1 8924   2.033   0.553   1.365
 2679SOL    HW2 8925   1.936   0.624   1.457
 2680SOL     OW 8926   2.416   0.238   1.159
 2680SOL    HW1 8927   2.449   0.153   1.187
 2680SOL    HW2 8928   2.324   0.239   1.185
 2681SOL     OW 8929   2.729   0.460   0.639
 2681SOL    HW1 8930   2.687   0.515   0.573
 2681SOL    HW2 8931   2.751   0.379   0.594
 2682SOL     OW 8932   2.838   0.062   0.764
 2682SOL    HW1 8933   2.775   0.057   0.692
 2682SOL    HW2 8934   2.850   5.271   0.791
 2683SOL     OW 8935   3.299   1.162   0.857
 2683SOL    HW1 8936   3.230   1.097   0.856
 2683SOL    HW2 8937   3.323   1.173   0.765
 2684SOL     OW 8938   3.328   0.607   0.976
 2684SOL    HW1 8939   3.277   0.526   0.979
 2684SOL    HW2 8940   3.388   0.601   1.050
 2685SOL     OW 8941   3.710   0.814   0.387
 2685SOL    HW1 8942   3.762   0.762   0.448
 2685SOL    HW2 8943   3.680   0.751   0.322
 2686SOL     OW 8944   2.344   1.440   0.173
 2686SOL    HW1 8945   2.271   1.399   0.220
 2686SOL    HW2 8946   2.353   1.388   0.093
 2687SOL     OW 8947   3.534   1.265   0.647
 2687SOL    HW1 8948   3.629   1.268   0.660
 2687SOL    HW2 8949   3.504   1.354   0.667
 2688SOL     OW 8950   3.261   0.577   0.088
 2688SOL    HW1 8951   3.198   0.559   0.157
 2688SOL    HW2 8952   3.314   0.497   0.083
 2689SOL     OW 8953   2.384   0.268   0.328
 2689SOL    HW1 8954   2.426   0.213   0.262
 2689SOL    HW2 8955   2.367   0.351   0.283
 2690SOL     OW 8956   3.614   1.240   1.571
 2690SOL    HW1 8957   3.701   1.201   1.567
 2690SOL    HW2 8958   3.629   1.330   1.600
 2691SOL     OW 8959   2.920   1.354   1.333
 2691SOL    HW1 8960   2.845   1.322   1.384
 2691SOL    HW2 8961   2.996   1.312   1.374
 2692SOL     OW 8962   3.470   1.626   1.655
 2692SOL    HW1 8963   3.464   1.660   1.565
 2692SOL    HW2 8964   3.553   1.578   1.656
 2693SOL     OW 8965   2.992   1.205   1.105
 2693SOL    HW1 8966   2.932   1.242   1.170
 2693SOL    HW2 8967   2.960   1.237   1.021
 2694SOL     OW 8968   3.489   1.098   1.077
 2694SOL    HW1 8969   3.484   1.160   1.150
 2694SOL    HW2 8970   3.411   1.115   1.025
 2695SOL     OW 8971   2.766   0.107   1.388
 2695SOL    HW1 8972   2.796   0.073   1.304
 2695SOL    HW2 8973   2.843   0.149   1.426
 2696SOL     OW 8974   2.846   1.115   1.723
 2696SOL    HW1 8975   2.754   1.131   1.744
 2696SOL    HW2 8976   2.845   1.037   1.667
 2697SOL     OW 8977   2.578   1.064   0.381
 2697SOL    HW1 8978   2.560   1.045   0.473
 2697SOL    HW2 8979   2.655   1.012   0.360
 2698SOL     OW 8980   2.281   0.816   1.252
 2698SOL    HW1 8981   2.349   0.825   1.318
 2698SOL    HW2 8982   2.246   0.728   1.265
 2699SOL     OW 8983   3.128   0.378   1.274
 2699SOL    HW1 8984   3.161   0.455   1.320
 2699SOL    HW2 8985   3.038   0.401   1.251
 2700SOL     OW 8986   1.934   1.574   1.354
 2700SOL    HW1 8987   1.905   1.646   1.298
 2700SOL    HW2 8988   2.029   1.575   1.347
 2701SOL     OW 8989   2.205   1.111   0.491
 2701SOL    HW1 8990   2.211   1.183   0.428
 2701SOL    HW2 8991   2.213   1.032   0.438
 2702SOL     OW 8992   2.414   0.537   0.860
 2702SOL    HW1 8993   2.429   0.595   0.786
 2702SOL    HW2 8994   2.481   0.563   0.925
 2703SOL     OW 8995   3.109   1.347   0.394
 2703SOL    HW1 8996   3.165   1.419   0.423
 2703SOL    HW2 8997   3.022   1.370   0.425
 2704SOL     OW 8998   3.145   1.458   1.147
 2704SOL    HW1 8999   3.200   1.461   1.225
 2704SOL    HW2 9000   3.089   1.381   1.160
 2705SOL     OW 9001   3.444   0.625   0.482
 2705SOL    HW1 9002   3.393   0.673   0.548
 2705SOL    HW2 9003   3.477   0.693   0.423
 2706SOL     OW 9004   2.208   1.528   1.314
 2706SOL    HW1 9005   2.196   1.485   1.230
 2706SOL    HW2 9006   2.303   1.540   1.322
 2707SOL     OW 9007   2.277   0.744   1.602
 2707SOL    HW1 9008   2.339   0.789   1.544
 2707SOL    HW2 9009   2.318   0.660   1.621
 2708SOL     OW 9010   3.465   0.779   1.682
 2708SOL    HW1 9011   3.379   0.820   1.676
 2708SOL    HW2 9012   3.517   0.821   1.614
 2709SOL     OW 9013   2.911   0.118   1.786
 2709SOL    HW1 9014   2.936   0.197   1.739
 2709SOL    HW2 9015   2.913   0.049   1.720
 2710SOL     OW 9016   2.345   0.058   1.738
 2710SOL    HW1 9017   2.285   5.293   1.700
 2710SOL    HW2 9018   2.289   0.132   1.759
 2711SOL     OW 9019   2.445   0.873   1.031
 2711SOL    HW1 9020   2.477   0.963   1.032
 2711SOL    HW2 9021   2.389   0.867   1.108
 2712SOL     OW 9022   3.218   0.859   1.028
 2712SOL    HW1 9023   3.135   0.849   0.982
 2712SOL    HW2 9024   3.260   0.773   1.022
 2713SOL     OW 9025   3.064   0.527   0.270
 2713SOL    HW1 9026   3.072   0.448   0.323
 2713SOL    HW2 9027   3.022   0.590   0.328
 2714SOL     OW 9028   2.158   0.203   1.248
 2714SOL    HW1 9029   2.118   0.242   1.326
 2714SOL    HW2 9030   2.158   0.109   1.267
 2715SOL     OW 9031   1.908   1.311   1.276
 2715SOL    HW1 9032   1.941   1.256   1.347
 2715SOL    HW2 9033   1.915   1.400   1.310
 2716SOL     OW 9034   2.587   0.632   1.059
 2716SOL    HW1 9035   2.661   0.615   1.000
 2716SOL    HW2 9036   2.558   0.720   1.036
 2717SOL     OW 9037   3.597   0.959   1.853
 2717SOL    HW1 9038   3.552   0.896   1.797
 2717SOL    HW2 9039   3.537   0.974   1.927
 2718SOL     OW 9040   2.166   0.070   0.654
 2718SOL    HW1 9041   2.146   0.164   0.659
 2718SOL    HW2 9042   2.213   0.052   0.735
 2719SOL     OW 9043   3.485   0.380   0.366
 2719SOL    HW1 9044   3.511   0.313   0.429
 2719SOL    HW2 9045   3.459   0.454   0.420
 2720SOL     OW 9046   2.890   0.759   0.960
 2720SOL    HW1 9047   2.885   0.776   1.054
 2720SOL    HW2 9048   2.863   0.668   0.951
 2721SOL     OW 9049   2.843   1.566   1.718
 2721SOL    HW1 9050   2.829   1.610   1.634
 2721SOL    HW2 9051   2.887   1.484   1.694
 2722SOL     OW 9052   3.716   1.505   1.605
 2722SOL    HW1 9053   3.735   1.531   1.515
 2722SOL    HW2 9054   3.797   1.522   1.653
 2723SOL     OW 9055   2.215   0.917   1.808
 2723SOL    HW1 9056   2.297   0.935   1.855
 2723SOL    HW2 9057   2.240   0.854   1.741
 2724SOL     OW 9058   3.381   0.305   0.126
 2724SOL    HW1 9059   3.347   0.217   0.139
 2724SOL    HW2 9060   3.422   0.328   0.210
 2725SOL     OW 9061   3.157   0.823   0.021
 2725SOL    HW1 9062   3.196   0.737   0.038
 2725SOL    HW2 9063   3.218   0.865   8.040
 2726SOL     OW 9064   2.928   1.336   0.855
 2726SOL    HW1 9065   2.931   1.264   0.792
 2726SOL    HW2 9066   2.989   1.401   0.820
 2727SOL     OW 9067   2.171   0.809   0.947
 2727SOL    HW1 9068   2.264   0.830   0.941
 2727SOL    HW2 9069   2.169   0.718   0.979
 2728SOL     OW 9070   2.193   0.527   1.013
 2728SOL    HW1 9071   2.157   0.440   0.998
 2728SOL    HW2 9072   2.270   0.531   0.956
 2729SOL     OW 9073   2.997   0.377   1.689
 2729SOL    HW1 9074   2.949   0.432   1.751
 2729SOL    HW2 9075   3.084   0.417   1.685
 2730SOL     OW 9076   2.994   0.222   1.466
 2730SOL    HW1 9077   2.998   0.281   1.541
 2730SOL    HW2 9078   3.050   0.263   1.400
 2731SOL     OW 9079   1.874   1.323   0.189
 2731SOL    HW1 9080   1.787   1.337   0.151
 2731SOL    HW2 9081   1.872   1.233   0.222
 2732SOL     OW 9082   1.952   1.786   0.938
 2732SOL    HW1 9083   1.922   1.707   0.894
 2732SOL    HW2 9084   2.042   1.798   0.907
 2733SOL     OW 9085   2.357   1.573   0.905
 2733SOL    HW1 9086   2.425   1.635   0.929
 2733SOL    HW2 9087   2.401   1.510   0.848
 2734SOL     OW 9088   2.843   0.792   1.226
 2734SOL    HW1 9089   2.900   0.769   1.300
 2734SOL    HW2 9090   2.758   0.753   1.249
 2735SOL     OW 9091   1.897   0.545   1.117
 2735SOL    HW1 9092   1.977   0.530   1.066
 2735SOL    HW2 9093   1.928   0.548   1.208
 2736SOL     OW 9094   2.048   0.523   1.728
 2736SOL    HW1 9095   2.112   0.487   1.666
 2736SOL    HW2 9096   2.010   0.597   1.682
 2737SOL     OW 9097   3.240   0.938   1.658
 2737SOL    HW1 9098   3.261   1.031   1.656
 2737SOL    HW2 9099   3.237   0.912   1.566
 2738SOL     OW 9100   2.681   0.570   0.369
 2738SOL    HW1 9101   2.690   0.499   0.306
 2738SOL    HW2 9102   2.604   0.620   0.340
 2739SOL     OW 9103   3.504   0.601   1.185
 2739SOL    HW1 9104   3.493   0.542   1.259
 2739SOL    HW2 9105   3.591   0.582   1.151
 2740SOL     OW 9106   2.104   1.551   1.727
 2740SOL    HW1 9107   2.082   1.615   1.795
 2740SOL    HW2 9108   2.108   1.467   1.773
 2741SOL     OW 9109   2.564   0.451   1.259
 2741SOL    HW1 9110   2.511   0.378   1.227
 2741SOL    HW2 9111   2.561   0.515   1.188
 2742SOL     OW 9112   2.788   1.680   1.469
 2742SOL    HW1 9113   2.763   1.644   1.383
 2742SOL    HW2 9114   2.785   1.774   1.457
 2743SOL     OW 9115   2.329   0.492   0.176
 2743SOL    HW1 9116   2.398   0.556   0.195
 2743SOL    HW2 9117   2.247   0.539   0.194
 2744SOL     OW 9118   2.007   1.141   1.472
 2744SOL    HW1 9119   2.009   1.090   1.554
 2744SOL    HW2 9120   2.024   1.077   1.404
 2745SOL     OW 9121   3.187   1.046   1.223
 2745SOL    HW1 9122   3.210   0.983   1.155
 2745SOL    HW2 9123   3.117   1.099   1.183
 2746SOL     OW 9124   3.168   0.848   0.308
 2746SOL    HW1 9125   3.091   0.818   0.357
 2746SOL    HW2 9126   3.144   0.837   0.216
 2747SOL     OW 9127   3.634   1.743   1.151
 2747SOL    HW1 9128   3.695   1.769   1.081
 2747SOL    HW2 9129   3.610   1.653   1.129
 2748SOL     OW 9130   3.103   1.732   1.111
 2748SOL    HW1 9131   3.185   1.754   1.067
 2748SOL    HW2 9132   3.110   1.639   1.130
 2749SOL     OW 9133   1.946   1.267   1.011
 2749SOL    HW1 9134   1.931   1.280   1.105
 2749SOL    HW2 9135   1.874   1.212   0.983
 2750SOL     OW 9136   2.540   1.667   1.731
 2750SOL    HW1 9137   2.486   1.745   1.725
 2750SOL    HW2 9138   2.607   1.678   1.663
 2751SOL     OW 9139   2.755   0.086   0.138
 2751SOL    HW1 9140   2.805   0.076   0.057
 2751SOL    HW2 9141   2.772   0.004   0.186
 2752SOL     OW 9142   3.574   0.150   0.503
 2752SOL    HW1 9143   3.648   0.129   0.446
 2752SOL    HW2 9144   3.567   0.075   0.563
 2753SOL     OW 9145   3.252   1.568   0.487
 2753SOL    HW1 9146   3.315   1.601   0.423
 2753SOL    HW2 9147   3.204   1.646   0.516
 2754SOL     OW 9148   1.999   1.797   1.843
 2754SOL    HW1 9149   1.948   1.731   1.891
 2754SOL    HW2 9150   2.046   1.844   1.912
 2755SOL     OW 9151   3.139   0.926   0.672
 2755SOL    HW1 9152   3.213   0.865   0.679
 2755SOL    HW2 9153   3.173   0.998   0.619
 2756SOL     OW 9154   2.675   1.274   1.429
 2756SOL    HW1 9155   2.647   1.313   1.511
 2756SOL    HW2 9156   2.606   1.296   1.367
 2757SOL     OW 9157   2.536   1.623   0.156
 2757SOL    HW1 9158   2.544   1.629   0.061
 2757SOL    HW2 9159   2.476   1.550   0.171
 2758SOL     OW 9160   3.486   1.727   1.391
 2758SOL    HW1 9161   3.537   1.733   1.310
 2758SOL    HW2 9162   3.473   1.817   1.418
 2759SOL     OW 9163   3.708   0.155   0.956
 2759SOL    HW1 9164   3.705   0.060   0.949
 2759SOL    HW2 9165   3.621   0.184   0.927
 2760SOL     OW 9166   2.123   0.329   0.719
 2760SOL    HW1 9167   2.035   0.360   0.698
 2760SOL    HW2 9168   2.122   0.317   0.814
 2761SOL     OW 9169   3.019   1.581   0.051
 2761SOL    HW1 9170   3.033   1.488   0.072
 2761SOL    HW2 9171   3.031   1.586   8.036
 2762SOL     OW 9172   2.686   1.006   1.373
 2762SOL    HW1 9173   2.731   1.001   1.288
 2762SOL    HW2 9174   2.685   1.099   1.394
 2763SOL     OW 9175   2.782   0.915   0.299
 2763SOL    HW1 9176   2.835   0.938   0.223
 2763SOL    HW2 9177   2.829   0.842   0.340
 2764SOL     OW 9178   3.372   1.623   0.061
 2764SOL    HW1 9179   3.277   1.623   0.049
 2764SOL    HW2 9180   3.407   1.626   8.052
 2765SOL     OW 9181   2.230   1.304   1.492
 2765SOL    HW1 9182   2.217   1.380   1.436
 2765SOL    HW2 9183   2.154   1.248   1.476
 2766SOL     OW 9184   3.472   1.283   1.280
 2766SOL    HW1 9185   3.532   1.271   1.354
 2766SOL    HW2 9186   3.412   1.352   1.309
 2767SOL     OW 9187   2.915   1.108   0.708
 2767SOL    HW1 9188   2.844   1.056   0.746
 2767SOL    HW2 9189   2.978   1.043   0.676
 2768SOL     OW 9190   2.880   0.243   0.969
 2768SOL    HW1 9191   2.861   0.197   0.887
 2768SOL    HW2 9192   2.874   0.176   1.036
 2769SOL     OW 9193   2.466   1.487   0.479
 2769SOL    HW1 9194   2.511   1.436   0.412
 2769SOL    HW2 9195   2.394   1.529   0.432
 2770SOL     OW 9196   3.587   0.386   1.378
 2770SOL    HW1 9197   3.658   0.451   1.377
 2770SOL    HW2 9198   3.619   0.317   1.320
 2771SOL     OW 9199   2.129   1.319   0.294
 2771SOL    HW1 9200   2.043   1.329   0.253
 2771SOL    HW2 9201   2.121   1.364   0.378
 2772SOL     OW 9202   1.975   1.024   1.720
 2772SOL    HW1 9203   1.899   1.000   1.773
 2772SOL    HW2 9204   2.049   0.985   1.766
 2773SOL     OW 9205   2.535   0.213   1.489
 2773SOL    HW1 9206   2.618   0.196   1.445
 2773SOL    HW2 9207   2.559   0.262   1.567
 2774SOL     OW 9208   1.931   0.362   0.033
 2774SOL    HW1 9209   1.859   0.299   0.025
 2774SOL    HW2 9210   1.944   0.395   8.025
 2775SOL     OW 9211   3.291   0.858   1.400
 2775SOL    HW1 9212   3.242   0.919   1.344
 2775SOL    HW2 9213   3.380   0.861   1.365
 2776SOL     OW 9214   1.929   0.165   0.313
 2776SOL    HW1 9215   1.937   0.253   0.277
 2776SOL    HW2 9216   2.014   0.124   0.296
 2777SOL     OW 9217   3.047   1.317   0.121
 2777SOL    HW1 9218   2.952   1.306   0.119
 2777SOL    HW2 9219   3.069   1.318   0.214
 2778SOL     OW 9220   2.481   0.830   1.434
 2778SOL    HW1 9221   2.537   0.907   1.418
 2778SOL    HW2 9222   2.542   0.757   1.442
 2779SOL     OW 9223   3.346   1.777   0.979
 2779SOL    HW1 9224   3.369   1.839   0.910
 2779SOL    HW2 9225   3.428   1.758   1.023
 2780SOL     OW 9226   2.577   0.573   1.702
 2780SOL    HW1 9227   2.619   0.635   1.761
 2780SOL    HW2 9228   2.606   0.487   1.733
 2781SOL     OW 9229   3.334   1.199   1.631
 2781SOL    HW1 9230   3.322   1.213   1.725
 2781SOL    HW2 9231   3.427   1.215   1.617
 2782SOL     OW 9232   2.239   1.740   1.564
 2782SOL    HW1 9233   2.154   1.782   1.550
 2782SOL    HW2 9234   2.218   1.656   1.606
 2783SOL     OW 9235   3.531   0.881   1.255
 2783SOL    HW1 9236   3.525   0.796   1.212
 2783SOL    HW2 9237   3.521   0.944   1.184
 2784SOL     OW 9238   3.077   0.327   0.473
 2784SOL    HW1 9239   3.135   0.253   0.458
 2784SOL    HW2 9240   3.116   0.374   0.547
 2785SOL     OW 9241   2.449   0.737   0.670
 2785SOL    HW1 9242   2.490   0.822   0.656
 2785SOL    HW2 9243   2.382   0.730   0.603
 2786SOL     OW 9244   3.628   0.362   1.649
 2786SOL    HW1 9245   3.609   0.377   1.556
 2786SOL    HW2 9246   3.556   0.306   1.680
 2787SOL     OW 9247   3.607   0.934   1.512
 2787SOL    HW1 9248   3.603   1.028   1.525
 2787SOL    HW2 9249   3.592   0.922   1.418
 2788SOL     OW 9250   2.759   1.372   0.039
 2788SOL    HW1 9251   2.695   1.362   0.109
 2788SOL    HW2 9252   2.739   1.457   0.000
 2789SOL     OW 9253   2.524   1.784   0.943
 2789SOL    HW1 9254   2.503   1.875   0.922
 2789SOL    HW2 9255   2.620   1.780   0.939
 2790SOL     OW 9256   2.729   0.967   0.855
 2790SOL    HW1 9257   2.780   0.896   0.894
 2790SOL    HW2 9258   2.695   1.015   0.930
 2791SOL     OW 9259   2.939   0.976   0.086
 2791SOL    HW1 9260   2.927   1.038   0.014
 2791SOL    HW2 9261   3.016   0.925   0.061
 2792SOL     OW 9262   3.715   1.554   0.844
 2792SOL    HW1 9263   3.636   1.543   0.791
 2792SOL    HW2 9264   3.707   1.488   0.913
 2793SOL     OW 9265   2.087   1.303   1.855
 2793SOL    HW1 9266   2.020   1.240   1.826
 2793SOL    HW2 9267   2.069   1.315   1.948
 2794SOL     OW 9268   1.948   1.232   0.665
 2794SOL    HW1 9269   1.951   1.184   0.748
 2794SOL    HW2 9270   2.019   1.195   0.613
 2795SOL     OW 9271   2.543   1.404   1.627
 2795SOL    HW1 9272   2.464   1.360   1.660
 2795SOL    HW2 9273   2.539   1.492   1.665
 2796SOL     OW 9274   3.674   0.176   1.232
 2796SOL    HW1 9275   3.640   0.087   1.235
 2796SOL    HW2 9276   3.695   0.190   1.139
 2797SOL     OW 9277   2.287   0.439   0.523
 2797SOL    HW1 9278   2.324   0.367   0.472
 2797SOL    HW2 9279   2.243   0.396   0.596
 2798SOL     OW 9280   3.562   1.488   1.095
 2798SOL    HW1 9281   3.481   1.466   1.049
 2798SOL    HW2 9282   3.572   1.419   1.160
 2799SOL     OW 9283   2.191   0.557   1.291
 2799SOL    HW1 9284   2.247   0.502   1.346
 2799SOL    HW2 9285   2.211   0.529   1.201
 2800SOL     OW 9286   2.690   1.578   0.677
 2800SOL    HW1 9287   2.676   1.632   0.600
 2800SOL    HW2 9288   2.614   1.520   0.681
 2801SOL     OW 9289   3.290   0.219   1.116
 2801SOL    HW1 9290   3.326   0.144   1.164
 2801SOL    HW2 9291   3.241   0.268   1.183
 2802SOL     OW 9292   2.865   0.021   1.139
 2802SOL    HW1 9293   2.814   5.252   1.095
 2802SOL    HW2 9294   2.951   5.282   1.153
 2803SOL     OW 9295   2.632   1.328   0.309
 2803SOL    HW1 9296   2.602   1.238   0.324
 2803SOL    HW2 9297   2.714   1.334   0.358
 2804SOL     OW 9298   2.481   1.556   1.285
 2804SOL    HW1 9299   2.484   1.638   1.334
 2804SOL    HW2 9300   2.569   1.548   1.248
 2805SOL     OW 9301   3.257   0.047   0.168
 2805SOL    HW1 9302   3.246   0.027   0.075
 2805SOL    HW2 9303   3.171   0.076   0.197
 2806SOL     OW 9304   3.170   0.468   0.689
 2806SOL    HW1 9305   3.113   0.544   0.692
 2806SOL    HW2 9306   3.159   0.426   0.774
 2807SOL     OW 9307   3.456   0.215   0.883
 2807SOL    HW1 9308   3.391   0.227   0.951
 2807SOL    HW2 9309   3.449   0.294   0.828
 2808SOL     OW 9310   1.906   1.066   0.305
 2808SOL    HW1 9311   2.001   1.065   0.308
 2808SOL    HW2 9312   1.879   0.983   0.344
 2809SOL     OW 9313   2.745   1.654   0.347
 2809SOL    HW1 9314   2.676   1.638   0.282
 2809SOL    HW2 9315   2.713   1.729   0.397
 2810SOL     OW 9316   2.089   0.625   1.986
 2810SOL    HW1 9317   2.001   0.621   2.022
 2810SOL    HW2 9318   2.079   0.599   1.894
 2811SOL     OW 9319   2.080   0.285   2.855
 2811SOL    HW1 9320   2.108   0.249   2.939
 2811SOL    HW2 9321   1.995   0.243   2.838
 2812SOL     OW 9322   1.865   0.387   2.500
 2812SOL    HW1 9323   1.781   0.408   2.540
 2812SOL    HW2 9324   1.847   0.310   2.446
 2813SOL     OW 9325   2.429   1.288   3.038
 2813SOL    HW1 9326   2.342   1.291   2.998
 2813SOL    HW2 9327   2.443   1.377   3.070
 2814SOL     OW 9328   3.424   1.512   2.569
 2814SOL    HW1 9329   3.381   1.491   2.652
 2814SOL    HW2 9330   3.353   1.516   2.505
 2815SOL     OW 9331   2.994   0.698   2.563
 2815SOL    HW1 9332   3.042   0.779   2.548
 2815SOL    HW2 9333   2.946   0.712   2.644
 2816SOL     OW 9334   3.629   0.605   2.090
 2816SOL    HW1 9335   3.609   0.598   1.997
 2816SOL    HW2 9336   3.594   0.525   2.129
 2817SOL     OW 9337   2.617   1.142   2.905
 2817SOL    HW1 9338   2.548   1.177   2.961
 2817SOL    HW2 9339   2.652   1.218   2.859
 2818SOL     OW 9340   2.730   0.775   3.685
 2818SOL    HW1 9341   2.717   0.847   3.747
 2818SOL    HW2 9342   2.754   0.818   3.603
 2819SOL     OW 9343   2.548   1.002   2.508
 2819SOL    HW1 9344   2.613   0.991   2.577
 2819SOL    HW2 9345   2.479   1.054   2.548
 2820SOL     OW 9346   2.572   1.150   3.675
 2820SOL    HW1 9347   2.620   1.229   3.701
 2820SOL    HW2 9348   2.490   1.183   3.639
 2821SOL     OW 9349   2.195   1.420   2.925
 2821SOL    HW1 9350   2.120   1.385   2.877
 2821SOL    HW2 9351   2.242   1.473   2.861
 2822SOL     OW 9352   3.323   1.499   3.218
 2822SOL    HW1 9353   3.373   1.581   3.225
 2822SOL    HW2 9354   3.257   1.505   3.287
 2823SOL     OW 9355   2.307   0.398   3.346
 2823SOL    HW1 9356   2.381   0.338   3.345
 2823SOL    HW2 9357   2.231   0.342   3.362
 2824SOL     OW 9358   3.472   0.451   2.601
 2824SOL    HW1 9359   3.396   0.473   2.546
 2824SOL    HW2 9360   3.489   0.530   2.651
 2825SOL     OW 9361   2.081   1.715   2.334
 2825SOL    HW1 9362   2.103   1.792   2.388
 2825SOL    HW2 9363   2.155   1.707   2.273
 2826SOL     OW 9364   2.994   1.344   3.556
 2826SOL    HW1 9365   3.040   1.336   3.640
 2826SOL    HW2 9366   2.944   1.263   3.548
 2827SOL     OW 9367   2.093   1.442   2.397
 2827SOL    HW1 9368   2.075   1.536   2.401
 2827SOL    HW2 9369   2.033   1.404   2.461
 2828SOL     OW 9370   2.121   1.090   2.753
 2828SOL    HW1 9371   2.117   1.003   2.793
 2828SOL    HW2 9372   2.063   1.144   2.807
 2829SOL     OW 9373   2.446   0.983   1.997
 2829SOL    HW1 9374   2.493   1.030   1.928
 2829SOL    HW2 9375   2.486   1.013   2.079
 2830SOL     OW 9376   3.448   0.136   3.317
 2830SOL    HW1 9377   3.473   0.220   3.279
 2830SOL    HW2 9378   3.444   0.153   3.411
 2831SOL     OW 9379   1.977   0.654   2.422
 2831SOL    HW1 9380   1.949   0.565   2.443
 2831SOL    HW2 9381   1.969   0.702   2.504
 2832SOL     OW 9382   3.705   1.758   2.196
 2832SOL    HW1 9383   3.770   1.730   2.260
 2832SOL    HW2 9384   3.727   1.849   2.177
 2833SOL     OW 9385   1.895   1.594   1.985
 2833SOL    HW1 9386   1.877   1.502   2.005
 2833SOL    HW2 9387   1.871   1.641   2.065
 2834SOL     OW 9388   3.551   0.919   2.504
 2834SOL    HW1 9389   3.634   0.875   2.482
 2834SOL    HW2 9390   3.529   0.969   2.426
 2835SOL     OW 9391   3.508   1.106   2.291
 2835SOL    HW1 9392   3.594   1.111   2.250
 2835SOL    HW2 9393   3.514   1.168   2.364
 2836SOL     OW 9394   1.985   0.744   3.446
 2836SOL    HW1 9395   2.076   0.771   3.452
 2836SOL    HW2 9396   1.935   0.826   3.453
 2837SOL     OW 9397   2.475   1.386   2.598
 2837SOL    HW1 9398   2.429   1.303   2.607
 2837SOL    HW2 9399   2.459   1.413   2.507
 2838SOL     OW 9400   3.149   1.235   3.286
 2838SOL    HW1 9401   3.181   1.169   3.225
 2838SOL    HW2 9402   3.209   1.231   3.360
 2839SOL     OW 9403   2.674   0.029   2.392
 2839SOL    HW1 9404   2.702   0.117   2.365
 2839SOL    HW2 9405   2.578   0.032   2.385
 2840SOL     OW 9406   2.051   0.965   3.135
 2840SOL    HW1 9407   2.136   0.924   3.120
 2840SOL    HW2 9408   1.990   0.913   3.084
 2841SOL     OW 9409   3.393   0.994   2.061
 2841SOL    HW1 9410   3.323   0.937   2.093
 2841SOL    HW2 9411   3.435   1.029   2.140
 2842SOL     OW 9412   2.191   0.267   3.676
 2842SOL    HW1 9413   2.241   0.343   3.705
 2842SOL    HW2 9414   2.104   0.280   3.713
 2843SOL     OW 9415   3.331   1.418   2.813
 2843SOL    HW1 9416   3.262   1.434   2.878
 2843SOL    HW2 9417   3.318   1.328   2.785
 2844SOL     OW 9418   3.519   1.742   2.440
 2844SOL    HW1 9419   3.501   1.712   2.351
 2844SOL    HW2 9420   3.495   1.668   2.496
 2845SOL     OW 9421   2.456   0.720   2.129
 2845SOL    HW1 9422   2.462   0.802   2.079
 2845SOL    HW2 9423   2.391   0.737   2.197
 2846SOL     OW 9424   3.140   0.348   2.793
 2846SOL    HW1 9425   3.049   0.320   2.806
 2846SOL    HW2 9426   3.190   0.298   2.857
 2847SOL     OW 9427   3.442   1.671   2.171
 2847SOL    HW1 9428   3.533   1.701   2.164
 2847SOL    HW2 9429   3.415   1.654   2.081
 2848SOL     OW 9430   2.656   0.618   3.311
 2848SOL    HW1 9431   2.628   0.597   3.400
 2848SOL    HW2 9432   2.615   0.552   3.256
 2849SOL     OW 9433   3.257   0.475   3.540
 2849SOL    HW1 9434   3.259   0.520   3.625
 2849SOL    HW2 9435   3.319   0.404   3.549
 2850SOL     OW 9436   2.816   0.887   3.445
 2850SOL    HW1 9437   2.871   0.817   3.409
 2850SOL    HW2 9438   2.768   0.921   3.369
 2851SOL     OW 9439   2.856   0.417   3.096
 2851SOL    HW1 9440   2.769   0.437   3.133
 2851SOL    HW2 9441   2.837   0.369   3.016
 2852SOL     OW 9442   2.913   0.698   2.288
 2852SOL    HW1 9443   2.929   0.691   2.382
 2852SOL    HW2 9444   2.830   0.652   2.274
 2853SOL     OW 9445   1.950   0.821   2.639
 2853SOL    HW1 9446   2.031   0.814   2.690
 2853SOL    HW2 9447   1.907   0.899   2.674
 2854SOL     OW 9448   2.738   0.366   2.051
 2854SOL    HW1 9449   2.777   0.425   1.987
 2854SOL    HW2 9450   2.794   0.288   2.049
 2855SOL     OW 9451   3.569   0.573   3.690
 2855SOL    HW1 9452   3.532   0.647   3.641
 2855SOL    HW2 9453   3.599   0.513   3.623
 2856SOL     OW 9454   3.239   1.142   2.403
 2856SOL    HW1 9455   3.318   1.130   2.350
 2856SOL    HW2 9456   3.187   1.204   2.353
 2857SOL     OW 9457   2.387   0.202   2.744
 2857SOL    HW1 9458   2.409   0.218   2.836
 2857SOL    HW2 9459   2.409   0.284   2.700
 2858SOL     OW 9460   2.866   1.443   2.333
 2858SOL    HW1 9461   2.831   1.517   2.283
 2858SOL    HW2 9462   2.848   1.465   2.424
 2859SOL     OW 9463   2.215   1.804   2.722
 2859SOL    HW1 9464   2.260   1.720   2.731
 2859SOL    HW2 9465   2.282   1.869   2.741
 2860SOL     OW 9466   3.662   1.056   2.731
 2860SOL    HW1 9467   3.608   1.038   2.654
 2860SOL    HW2 9468   3.599   1.062   2.803
 2861SOL     OW 9469   3.094   1.530   3.371
 2861SOL    HW1 9470   3.075   1.461   3.435
 2861SOL    HW2 9471   3.033   1.513   3.299
 2862SOL     OW 9472   2.181   0.958   2.113
 2862SOL    HW1 9473   2.263   0.977   2.068
 2862SOL    HW2 9474   2.151   0.876   2.075
 2863SOL     OW 9475   3.341   0.744   2.588
 2863SOL    HW1 9476   3.334   0.702   2.674
 2863SOL    HW2 9477   3.419   0.800   2.596
 2864SOL     OW 9478   2.328   1.266   3.601
 2864SOL    HW1 9479   2.301   1.270   3.509
 2864SOL    HW2 9480   2.246   1.264   3.650
 2865SOL     OW 9481   2.984   1.779   2.092
 2865SOL    HW1 9482   2.911   1.737   2.138
 2865SOL    HW2 9483   3.007   1.716   2.023
 2866SOL     OW 9484   2.059   0.278   3.366
 2866SOL    HW1 9485   1.980   0.331   3.362
 2866SOL    HW2 9486   2.051   0.228   3.447
 2867SOL     OW 9487   3.490   1.380   1.950
 2867SOL    HW1 9488   3.449   1.465   1.935
 2867SOL    HW2 9489   3.422   1.316   1.931
 2868SOL     OW 9490   2.327   1.737   2.182
 2868SOL    HW1 9491   2.371   1.791   2.248
 2868SOL    HW2 9492   2.398   1.704   2.127
 2869SOL     OW 9493   3.270   0.101   2.294
 2869SOL    HW1 9494   3.262   0.081   2.200
 2869SOL    HW2 9495   3.362   0.122   2.306
 2870SOL     OW 9496   2.112   1.789   3.106
 2870SOL    HW1 9497   2.164   1.720   3.146
 2870SOL    HW2 9498   2.111   1.766   3.013
 2871SOL     OW 9499   2.790   1.705   2.756
 2871SOL    HW1 9500   2.867   1.658   2.790
 2871SOL    HW2 9501   2.758   1.649   2.684
 2872SOL     OW 9502   2.255   0.696   2.337
 2872SOL    HW1 9503   2.276   0.603   2.348
 2872SOL    HW2 9504   2.161   0.703   2.355
 2873SOL     OW 9505   3.400   0.228   3.585
 2873SOL    HW1 9506   3.407   0.245   3.679
 2873SOL    HW2 9507   3.324   0.170   3.577
 2874SOL     OW 9508   2.486   0.132   1.969
 2874SOL    HW1 9509   2.548   0.063   1.995
 2874SOL    HW2 9510   2.434   0.093   1.899
 2875SOL     OW 9511   2.642   0.313   3.630
 2875SOL    HW1 9512   2.700   0.237   3.629
 2875SOL    HW2 9513   2.594   0.305   3.713
 2876SOL     OW 9514   2.733   1.517   3.062
 2876SOL    HW1 9515   2.721   1.489   2.972
 2876SOL    HW2 9516   2.807   1.466   3.094
 2877SOL     OW 9517   3.202   0.589   3.294
 2877SOL    HW1 9518   3.233   0.558   3.379
 2877SOL    HW2 9519   3.239   0.677   3.286
 2878SOL     OW 9520   2.678   1.394   2.802
 2878SOL    HW1 9521   2.762   1.383   2.759
 2878SOL    HW2 9522   2.614   1.397   2.731
 2879SOL     OW 9523   2.790   0.510   2.765
 2879SOL    HW1 9524   2.765   0.503   2.673
 2879SOL    HW2 9525   2.820   0.423   2.789
 2880SOL     OW 9526   2.405   0.062   2.369
 2880SOL    HW1 9527   2.319   0.060   2.413
 2880SOL    HW2 9528   2.397   0.132   2.304
 2881SOL     OW 9529   3.290   1.198   1.903
 2881SOL    HW1 9530   3.320   1.123   1.953
 2881SOL    HW2 9531   3.205   1.220   1.940
 2882SOL     OW 9532   2.163   0.064   2.054
 2882SOL    HW1 9533   2.221   0.134   2.025
 2882SOL    HW2 9534   2.219   5.286   2.060
 2883SOL     OW 9535   2.801   0.264   2.324
 2883SOL    HW1 9536   2.774   0.300   2.240
 2883SOL    HW2 9537   2.897   0.274   2.324
 2884SOL     OW 9538   2.943   0.682   3.322
 2884SOL    HW1 9539   2.875   0.615   3.326
 2884SOL    HW2 9540   3.024   0.633   3.314
 2885SOL     OW 9541   3.088   1.566   2.652
 2885SOL    HW1 9542   3.099   1.636   2.588
 2885SOL    HW2 9543   3.151   1.587   2.721
 2886SOL     OW 9544   2.331   1.150   2.594
 2886SOL    HW1 9545   2.262   1.130   2.658
 2886SOL    HW2 9546   2.291   1.134   2.509
 2887SOL     OW 9547   3.130   1.791   2.471
 2887SOL    HW1 9548   3.174   1.857   2.417
 2887SOL    HW2 9549   3.058   1.839   2.512
 2888SOL     OW 9550   2.887   0.545   1.885
 2888SOL    HW1 9551   2.844   0.629   1.867
 2888SOL    HW2 9552   2.950   0.565   1.954
 2889SOL     OW 9553   1.942   0.553   3.255
 2889SOL    HW1 9554   2.033   0.553   3.227
 2889SOL    HW2 9555   1.936   0.624   3.320
 2890SOL     OW 9556   2.416   0.238   3.020
 2890SOL    HW1 9557   2.448   0.153   3.049
 2890SOL    HW2 9558   2.324   0.239   3.047
 2891SOL     OW 9559   2.728   0.463   2.503
 2891SOL    HW1 9560   2.682   0.517   2.439
 2891SOL    HW2 9561   2.752   0.383   2.456
 2892SOL     OW 9562   2.840   0.061   2.625
 2892SOL    HW1 9563   2.775   0.057   2.555
 2892SOL    HW2 9564   2.850   5.270   2.654
 2893SOL     OW 9565   3.300   1.162   2.719
 2893SOL    HW1 9566   3.229   1.097   2.717
 2893SOL    HW2 9567   3.325   1.173   2.627
 2894SOL     OW 9568   3.328   0.607   2.838
 2894SOL    HW1 9569   3.278   0.526   2.841
 2894SOL    HW2 9570   3.388   0.601   2.912
 2895SOL     OW 9571   3.707   0.816   2.245
 2895SOL    HW1 9572   3.763   0.765   2.303
 2895SOL    HW2 9573   3.679   0.753   2.178
 2896SOL     OW 9574   2.352   1.419   2.018
 2896SOL    HW1 9575   2.277   1.390   2.069
 2896SOL    HW2 9576   2.341   1.376   1.933
 2897SOL     OW 9577   3.533   1.264   2.508
 2897SOL    HW1 9578   3.627   1.267   2.521
 2897SOL    HW2 9579   3.503   1.353   2.528
 2898SOL     OW 9580   3.256   0.572   1.933
 2898SOL    HW1 9581   3.194   0.552   2.004
 2898SOL    HW2 9582   3.341   0.542   1.966
 2899SOL     OW 9583   2.385   0.265   2.183
 2899SOL    HW1 9584   2.431   0.217   2.114
 2899SOL    HW2 9585   2.363   0.349   2.143
 2900SOL     OW 9586   3.614   1.240   3.434
 2900SOL    HW1 9587   3.701   1.201   3.429
 2900SOL    HW2 9588   3.630   1.330   3.462
 2901SOL     OW 9589   2.921   1.356   3.199
 2901SOL    HW1 9590   2.846   1.322   3.248
 2901SOL    HW2 9591   2.996   1.311   3.237
 2902SOL     OW 9592   3.471   1.628   3.516
 2902SOL    HW1 9593   3.464   1.661   3.426
 2902SOL    HW2 9594   3.553   1.579   3.518
 2903SOL     OW 9595   2.992   1.206   2.968
 2903SOL    HW1 9596   2.929   1.242   3.030
 2903SOL    HW2 9597   2.962   1.237   2.882
 2904SOL     OW 9598   3.489   1.097   2.939
 2904SOL    HW1 9599   3.484   1.160   3.011
 2904SOL    HW2 9600   3.411   1.115   2.886
 2905SOL     OW 9601   2.765   0.107   3.250
 2905SOL    HW1 9602   2.796   0.073   3.166
 2905SOL    HW2 9603   2.843   0.149   3.288
 2906SOL     OW 9604   2.846   1.115   3.585
 2906SOL    HW1 9605   2.753   1.129   3.606
 2906SOL    HW2 9606   2.846   1.037   3.529
 2907SOL     OW 9607   2.571   1.062   2.233
 2907SOL    HW1 9608   2.557   1.044   2.326
 2907SOL    HW2 9609   2.647   1.008   2.209
 2908SOL     OW 9610   2.281   0.816   3.114
 2908SOL    HW1 9611   2.350   0.825   3.180
 2908SOL    HW2 9612   2.246   0.728   3.127
 2909SOL     OW 9613   3.128   0.378   3.135
 2909SOL    HW1 9614   3.161   0.455   3.182
 2909SOL    HW2 9615   3.038   0.401   3.113
 2910SOL     OW 9616   1.931   1.572   3.216
 2910SOL    HW1 9617   1.904   1.648   3.164
 2910SOL    HW2 9618   2.027   1.572   3.209
 2911SOL     OW 9619   2.209   1.111   2.352
 2911SOL    HW1 9620   2.214   1.184   2.291
 2911SOL    HW2 9621   2.207   1.033   2.297
 2912SOL     OW 9622   2.415   0.537   2.723
 2912SOL    HW1 9623   2.429   0.595   2.648
 2912SOL    HW2 9624   2.481   0.563   2.787
 2913SOL     OW 9625   3.110   1.349   2.251
 2913SOL    HW1 9626   3.166   1.420   2.282
 2913SOL    HW2 9627   3.023   1.370   2.285
 2914SOL     OW 9628   3.147   1.452   3.009
 2914SOL    HW1 9629   3.200   1.456   3.088
 2914SOL    HW2 9630   3.091   1.375   3.021
 2915SOL     OW 9631   3.443   0.622   2.342
 2915SOL    HW1 9632   3.396   0.675   2.405
 2915SOL    HW2 9633   3.488   0.685   2.286
 2916SOL     OW 9634   2.203   1.519   3.172
 2916SOL    HW1 9635   2.195   1.477   3.086
 2916SOL    HW2 9636   2.297   1.534   3.183
 2917SOL     OW 9637   2.277   0.745   3.464
 2917SOL    HW1 9638   2.339   0.789   3.406
 2917SOL    HW2 9639   2.318   0.660   3.482
 2918SOL     OW 9640   3.465   0.779   3.545
 2918SOL    HW1 9641   3.378   0.820   3.538
 2918SOL    HW2 9642   3.517   0.821   3.476
 2919SOL     OW 9643   2.911   0.118   3.648
 2919SOL    HW1 9644   2.936   0.197   3.601
 2919SOL    HW2 9645   2.914   0.048   3.582
 2920SOL     OW 9646   2.345   0.058   3.600
 2920SOL    HW1 9647   2.285   5.293   3.562
 2920SOL    HW2 9648   2.289   0.132   3.621
 2921SOL     OW 9649   2.446   0.872   2.894
 2921SOL    HW1 9650   2.476   0.963   2.892
 2921SOL    HW2 9651   2.389   0.867   2.970
 2922SOL     OW 9652   3.218   0.858   2.891
 2922SOL    HW1 9653   3.135   0.849   2.844
 2922SOL    HW2 9654   3.260   0.773   2.884
 2923SOL     OW 9655   3.067   0.528   2.128
 2923SOL    HW1 9656   3.072   0.447   2.180
 2923SOL    HW2 9657   3.024   0.591   2.186
 2924SOL     OW 9658   2.158   0.203   3.110
 2924SOL    HW1 9659   2.118   0.242   3.188
 2924SOL    HW2 9660   2.158   0.109   3.129
 2925SOL     OW 9661   1.907   1.311   3.138
 2925SOL    HW1 9662   1.941   1.256   3.210
 2925SOL    HW2 9663   1.914   1.400   3.171
 2926SOL     OW 9664   2.587   0.632   2.921
 2926SOL    HW1 9665   2.661   0.616   2.862
 2926SOL    HW2 9666   2.558   0.720   2.899
 2927SOL     OW 9667   3.597   0.960   3.715
 2927SOL    HW1 9668   3.552   0.896   3.659
 2927SOL    HW2 9669   3.537   0.973   3.789
 2928SOL     OW 9670   2.168   0.071   2.517
 2928SOL    HW1 9671   2.147   0.165   2.521
 2928SOL    HW2 9672   2.213   0.053   2.599
 2929SOL     OW 9673   3.475   0.376   2.225
 2929SOL    HW1 9674   3.508   0.312   2.288
 2929SOL    HW2 9675   3.455   0.453   2.278
 2930SOL     OW 9676   2.890   0.759   2.822
 2930SOL    HW1 9677   2.886   0.777   2.916
 2930SOL    HW2 9678   2.863   0.668   2.813
 2931SOL     OW 9679   2.845   1.572   3.577
 2931SOL    HW1 9680   2.823   1.610   3.492
 2931SOL    HW2 9681   2.888   1.489   3.555
 2932SOL     OW 9682   3.715   1.505   3.467
 2932SOL    HW1 9683   3.735   1.531   3.377
 2932SOL    HW2 9684   3.797   1.522   3.515
 2933SOL     OW 9685   2.216   0.916   3.671
 2933SOL    HW1 9686   2.298   0.934   3.717
 2933SOL    HW2 9687   2.239   0.853   3.603
 2934SOL     OW 9688   3.388   0.272   1.988
 2934SOL    HW1 9689   3.323   0.208   2.019
 2934SOL    HW2 9690   3.424   0.310   2.067
 2935SOL     OW 9691   3.153   0.826   1.893
 2935SOL    HW1 9692   3.195   0.740   1.896
 2935SOL    HW2 9693   3.184   0.865   1.811
 2936SOL     OW 9694   2.929   1.336   2.718
 2936SOL    HW1 9695   2.932   1.264   2.654
 2936SOL    HW2 9696   2.989   1.401   2.682
 2937SOL     OW 9697   2.170   0.809   2.809
 2937SOL    HW1 9698   2.263   0.830   2.801
 2937SOL    HW2 9699   2.169   0.718   2.841
 2938SOL     OW 9700   2.194   0.527   2.875
 2938SOL    HW1 9701   2.157   0.440   2.860
 2938SOL    HW2 9702   2.270   0.531   2.818
 2939SOL     OW 9703   2.997   0.377   3.551
 2939SOL    HW1 9704   2.949   0.432   3.613
 2939SOL    HW2 9705   3.084   0.417   3.547
 2940SOL     OW 9706   2.994   0.222   3.328
 2940SOL    HW1 9707   2.998   0.281   3.403
 2940SOL    HW2 9708   3.050   0.263   3.262
 2941SOL     OW 9709   1.867   1.321   2.057
 2941SOL    HW1 9710   1.780   1.335   2.019
 2941SOL    HW2 9711   1.864   1.231   2.091
 2942SOL     OW 9712   1.949   1.787   2.799
 2942SOL    HW1 9713   1.921   1.706   2.755
 2942SOL    HW2 9714   2.039   1.800   2.769
 2943SOL     OW 9715   2.360   1.575   2.767
 2943SOL    HW1 9716   2.430   1.635   2.795
 2943SOL    HW2 9717   2.404   1.511   2.711
 2944SOL     OW 9718   2.843   0.792   3.088
 2944SOL    HW1 9719   2.900   0.769   3.162
 2944SOL    HW2 9720   2.759   0.753   3.110
 2945SOL     OW 9721   1.897   0.544   2.979
 2945SOL    HW1 9722   1.977   0.531   2.927
 2945SOL    HW2 9723   1.928   0.548   3.070
 2946SOL     OW 9724   2.049   0.523   3.590
 2946SOL    HW1 9725   2.112   0.486   3.528
 2946SOL    HW2 9726   2.010   0.597   3.544
 2947SOL     OW 9727   3.239   0.938   3.520
 2947SOL    HW1 9728   3.261   1.032   3.517
 2947SOL    HW2 9729   3.236   0.911   3.428
 2948SOL     OW 9730   2.676   0.573   2.226
 2948SOL    HW1 9731   2.680   0.499   2.165
 2948SOL    HW2 9732   2.602   0.625   2.195
 2949SOL     OW 9733   3.504   0.601   3.047
 2949SOL    HW1 9734   3.493   0.542   3.121
 2949SOL    HW2 9735   3.591   0.582   3.013
 2950SOL     OW 9736   2.106   1.550   3.588
 2950SOL    HW1 9737   2.082   1.622   3.646
 2950SOL    HW2 9738   2.103   1.472   3.643
 2951SOL     OW 9739   2.563   0.451   3.121
 2951SOL    HW1 9740   2.511   0.378   3.089
 2951SOL    HW2 9741   2.562   0.515   3.050
 2952SOL     OW 9742   2.766   1.687   3.333
 2952SOL    HW1 9743   2.770   1.648   3.245
 2952SOL    HW2 9744   2.807   1.773   3.323
 2953SOL     OW 9745   2.324   0.492   2.044
 2953SOL    HW1 9746   2.384   0.563   2.068
 2953SOL    HW2 9747   2.239   0.536   2.035
 2954SOL     OW 9748   2.007   1.141   3.335
 2954SOL    HW1 9749   2.009   1.090   3.416
 2954SOL    HW2 9750   2.024   1.077   3.266
 2955SOL     OW 9751   3.186   1.046   3.085
 2955SOL    HW1 9752   3.210   0.983   3.017
 2955SOL    HW2 9753   3.117   1.099   3.045
 2956SOL     OW 9754   3.174   0.857   2.168
 2956SOL    HW1 9755   3.099   0.826   2.218
 2956SOL    HW2 9756   3.149   0.843   2.077
 2957SOL     OW 9757   3.635   1.743   3.011
 2957SOL    HW1 9758   3.696   1.767   2.942
 2957SOL    HW2 9759   3.611   1.653   2.991
 2958SOL     OW 9760   3.117   1.725   2.974
 2958SOL    HW1 9761   3.199   1.746   2.928
 2958SOL    HW2 9762   3.122   1.630   2.989
 2959SOL     OW 9763   1.947   1.266   2.874
 2959SOL    HW1 9764   1.931   1.280   2.968
 2959SOL    HW2 9765   1.873   1.212   2.846
 2960SOL     OW 9766   2.536   1.662   3.593
 2960SOL    HW1 9767   2.464   1.717   3.562
 2960SOL    HW2 9768   2.605   1.674   3.527
 2961SOL     OW 9769   3.574   0.150   2.363
 2961SOL    HW1 9770   3.649   0.130   2.308
 2961SOL    HW2 9771   3.567   0.076   2.423
 2962SOL     OW 9772   3.253   1.568   2.347
 2962SOL    HW1 9773   3.313   1.601   2.280
 2962SOL    HW2 9774   3.204   1.645   2.377
 2963SOL     OW 9775   2.017   1.776   3.720
 2963SOL    HW1 9776   1.954   1.714   3.757
 2963SOL    HW2 9777   2.033   1.839   3.790
 2964SOL     OW 9778   3.139   0.926   2.533
 2964SOL    HW1 9779   3.213   0.865   2.540
 2964SOL    HW2 9780   3.173   0.998   2.480
 2965SOL     OW 9781   2.675   1.273   3.291
 2965SOL    HW1 9782   2.645   1.313   3.373
 2965SOL    HW2 9783   2.607   1.294   3.228
 2966SOL     OW 9784   2.532   1.622   2.018
 2966SOL    HW1 9785   2.544   1.634   1.924
 2966SOL    HW2 9786   2.477   1.543   2.025
 2967SOL     OW 9787   3.486   1.729   3.252
 2967SOL    HW1 9788   3.538   1.733   3.172
 2967SOL    HW2 9789   3.469   1.820   3.275
 2968SOL     OW 9790   3.708   0.156   2.819
 2968SOL    HW1 9791   3.705   0.060   2.811
 2968SOL    HW2 9792   3.621   0.184   2.789
 2969SOL     OW 9793   2.123   0.329   2.581
 2969SOL    HW1 9794   2.035   0.360   2.559
 2969SOL    HW2 9795   2.121   0.318   2.676
 2970SOL     OW 9796   3.069   1.605   1.894
 2970SOL    HW1 9797   3.059   1.514   1.920
 2970SOL    HW2 9798   3.005   1.617   1.825
 2971SOL     OW 9799   2.686   1.005   3.235
 2971SOL    HW1 9800   2.729   1.000   3.150
 2971SOL    HW2 9801   2.686   1.099   3.255
 2972SOL     OW 9802   2.778   0.911   2.152
 2972SOL    HW1 9803   2.839   0.943   2.086
 2972SOL    HW2 9804   2.826   0.841   2.197
 2973SOL     OW 9805   3.353   1.626   1.905
 2973SOL    HW1 9806   3.259   1.619   1.891
 2973SOL    HW2 9807   3.390   1.632   1.817
 2974SOL     OW 9808   2.231   1.302   3.354
 2974SOL    HW1 9809   2.217   1.379   3.298
 2974SOL    HW2 9810   2.155   1.247   3.339
 2975SOL     OW 9811   3.472   1.282   3.142
 2975SOL    HW1 9812   3.533   1.272   3.215
 2975SOL    HW2 9813   3.412   1.352   3.171
 2976SOL     OW 9814   2.916   1.108   2.569
 2976SOL    HW1 9815   2.844   1.057   2.608
 2976SOL    HW2 9816   2.978   1.042   2.538
 2977SOL     OW 9817   2.881   0.244   2.831
 2977SOL    HW1 9818   2.861   0.198   2.749
 2977SOL    HW2 9819   2.874   0.176   2.898
 2978SOL     OW 9820   2.465   1.488   2.343
 2978SOL    HW1 9821   2.511   1.438   2.276
 2978SOL    HW2 9822   2.394   1.531   2.296
 2979SOL     OW 9823   3.587   0.386   3.240
 2979SOL    HW1 9824   3.658   0.451   3.239
 2979SOL    HW2 9825   3.619   0.317   3.182
 2980SOL     OW 9826   2.122   1.345   2.151
 2980SOL    HW1 9827   2.029   1.342   2.128
 2980SOL    HW2 9828   2.123   1.382   2.239
 2981SOL     OW 9829   1.975   1.024   3.582
 2981SOL    HW1 9830   1.899   1.000   3.635
 2981SOL    HW2 9831   2.049   0.985   3.629
 2982SOL     OW 9832   2.534   0.212   3.351
 2982SOL    HW1 9833   2.617   0.195   3.307
 2982SOL    HW2 9834   2.559   0.262   3.429
 2983SOL     OW 9835   1.940   0.338   1.903
 2983SOL    HW1 9836   1.856   0.305   1.871
 2983SOL    HW2 9837   1.960   0.412   1.846
 2984SOL     OW 9838   3.291   0.858   3.262
 2984SOL    HW1 9839   3.242   0.919   3.207
 2984SOL    HW2 9840   3.380   0.860   3.227
 2985SOL     OW 9841   1.933   0.167   2.176
 2985SOL    HW1 9842   1.936   0.250   2.129
 2985SOL    HW2 9843   2.018   0.126   2.157
 2986SOL     OW 9844   3.041   1.339   1.979
 2986SOL    HW1 9845   2.951   1.307   1.982
 2986SOL    HW2 9846   3.069   1.339   2.071
 2987SOL     OW 9847   2.481   0.830   3.296
 2987SOL    HW1 9848   2.537   0.906   3.280
 2987SOL    HW2 9849   2.542   0.757   3.304
 2988SOL     OW 9850   3.353   1.780   2.841
 2988SOL    HW1 9851   3.375   1.834   2.766
 2988SOL    HW2 9852   3.438   1.757   2.880
 2989SOL     OW 9853   2.578   0.573   3.564
 2989SOL    HW1 9854   2.620   0.635   3.623
 2989SOL    HW2 9855   2.606   0.487   3.595
 2990SOL     OW 9856   3.334   1.199   3.493
 2990SOL    HW1 9857   3.323   1.212   3.588
 2990SOL    HW2 9858   3.427   1.215   3.478
 2991SOL     OW 9859   2.261   1.695   3.414
 2991SOL    HW1 9860   2.205   1.770   3.432
 2991SOL    HW2 9861   2.222   1.623   3.463
 2992SOL     OW 9862   3.530   0.881   3.117
 2992SOL    HW1 9863   3.525   0.796   3.074
 2992SOL    HW2 9864   3.521   0.944   3.046
 2993SOL     OW 9865   3.082   0.318   2.327
 2993SOL    HW1 9866   3.145   0.247   2.321
 2993SOL    HW2 9867   3.112   0.370   2.402
 2994SOL     OW 9868   2.451   0.738   2.533
 2994SOL    HW1 9869   2.490   0.823   2.517
 2994SOL    HW2 9870   2.384   0.729   2.465
 2995SOL     OW 9871   3.627   0.362   3.511
 2995SOL    HW1 9872   3.609   0.377   3.419
 2995SOL    HW2 9873   3.556   0.306   3.542
 2996SOL     OW 9874   3.607   0.934   3.374
 2996SOL    HW1 9875   3.603   1.029   3.387
 2996SOL    HW2 9876   3.592   0.921   3.280
 2997SOL     OW 9877   2.722   1.367   1.897
 2997SOL    HW1 9878   2.687   1.395   1.981
 2997SOL    HW2 9879   2.742   1.448   1.851
 2998SOL     OW 9880   2.527   1.791   2.819
 2998SOL    HW1 9881   2.510   1.875   2.776
 2998SOL    HW2 9882   2.621   1.776   2.805
 2999SOL     OW 9883   2.729   0.968   2.717
 2999SOL    HW1 9884   2.780   0.896   2.756
 2999SOL    HW2 9885   2.695   1.016   2.792
 3000SOL     OW 9886   2.940   0.988   1.950
 3000SOL    HW1 9887   2.919   1.039   1.872
 3000SOL    HW2 9888   3.015   0.935   1.925
 3001SOL     OW 9889   3.714   1.554   2.706
 3001SOL    HW1 9890   3.636   1.542   2.651
 3001SOL    HW2 9891   3.707   1.487   2.774
 3002SOL     OW 9892   2.086   1.302   3.719
 3002SOL    HW1 9893   2.022   1.241   3.683
 3002SOL    HW2 9894   2.059   1.314   3.810
 3003SOL     OW 9895   1.947   1.232   2.527
 3003SOL    HW1 9896   1.953   1.185   2.610
 3003SOL    HW2 9897   2.015   1.194   2.472
 3004SOL     OW 9898   2.543   1.403   3.490
 3004SOL    HW1 9899   2.464   1.358   3.517
 3004SOL    HW2 9900   2.536   1.490   3.530
 3005SOL     OW 9901   3.674   0.176   3.094
 3005SOL    HW1 9902   3.639   0.087   3.097
 3005SOL    HW2 9903   3.695   0.190   3.001
 3006SOL     OW 9904   2.292   0.436   2.386
 3006SOL    HW1 9905   2.324   0.363   2.333
 3006SOL    HW2 9906   2.244   0.394   2.458
 3007SOL     OW 9907   3.561   1.489   2.958
 3007SOL    HW1 9908   3.481   1.466   2.911
 3007SOL    HW2 9909   3.572   1.419   3.023
 3008SOL     OW 9910   2.191   0.557   3.153
 3008SOL    HW1 9911   2.247   0.502   3.207
 3008SOL    HW2 9912   2.211   0.530   3.063
 3009SOL     OW 9913   2.691   1.574   2.536
 3009SOL    HW1 9914   2.677   1.633   2.462
 3009SOL    HW2 9915   2.614   1.518   2.537
 3010SOL     OW 9916   3.290   0.219   2.978
 3010SOL    HW1 9917   3.326   0.144   3.026
 3010SOL    HW2 9918   3.241   0.268   3.045
 3011SOL     OW 9919   2.865   0.021   3.001
 3011SOL    HW1 9920   2.814   5.252   2.958
 3011SOL    HW2 9921   2.951   5.282   3.015
 3012SOL     OW 9922   2.634   1.333   2.178
 3012SOL    HW1 9923   2.604   1.242   2.184
 3012SOL    HW2 9924   2.716   1.335   2.227
 3013SOL     OW 9925   2.477   1.555   3.148
 3013SOL    HW1 9926   2.484   1.627   3.211
 3013SOL    HW2 9927   2.565   1.547   3.111
 3014SOL     OW 9928   3.218   0.037   2.025
 3014SOL    HW1 9929   3.252   5.295   1.946
 3014SOL    HW2 9930   3.138   5.289   2.045
 3015SOL     OW 9931   3.163   0.464   2.546
 3015SOL    HW1 9932   3.108   0.543   2.551
 3015SOL    HW2 9933   3.156   0.424   2.633
 3016SOL     OW 9934   3.456   0.215   2.744
 3016SOL    HW1 9935   3.391   0.227   2.813
 3016SOL    HW2 9936   3.449   0.294   2.690
 3017SOL     OW 9937   1.905   1.070   2.168
 3017SOL    HW1 9938   1.999   1.062   2.151
 3017SOL    HW2 9939   1.877   0.981   2.191
 3018SOL     OW 9940   2.748   1.653   2.202
 3018SOL    HW1 9941   2.674   1.637   2.143
 3018SOL    HW2 9942   2.719   1.727   2.256
 3019SOL     OW 9943   2.089   0.626   3.848
 3019SOL    HW1 9944   2.001   0.621   3.884
 3019SOL    HW2 9945   2.079   0.600   3.756
 3020SOL     OW 9946   2.080   0.285   4.717
 3020SOL    HW1 9947   2.108   0.249   4.801
 3020SOL    HW2 9948   1.995   0.242   4.700
 3021SOL     OW 9949   1.865   0.387   4.362
 3021SOL    HW1 9950   1.781   0.408   4.402
 3021SOL    HW2 9951   1.847   0.310   4.308
 3022SOL     OW 9952   2.429   1.289   4.899
 3022SOL    HW1 9953   2.340   1.292   4.864
 3022SOL    HW2 9954   2.445   1.377   4.934
 3023SOL     OW 9955   3.422   1.513   4.430
 3023SOL    HW1 9956   3.380   1.488   4.512
 3023SOL    HW2 9957   3.350   1.516   4.367
 3024SOL     OW 9958   2.994   0.698   4.424
 3024SOL    HW1 9959   3.042   0.779   4.410
 3024SOL    HW2 9960   2.946   0.712   4.506
 3025SOL     OW 9961   3.629   0.605   3.952
 3025SOL    HW1 9962   3.608   0.598   3.859
 3025SOL    HW2 9963   3.594   0.525   3.991
 3026SOL     OW 9964   2.615   1.141   4.766
 3026SOL    HW1 9965   2.547   1.175   4.823
 3026SOL    HW2 9966   2.652   1.218   4.723
 3027SOL     OW 9967   2.730   0.775   5.547
 3027SOL    HW1 9968   2.718   0.846   5.610
 3027SOL    HW2 9969   2.754   0.819   5.465
 3028SOL     OW 9970   2.549   1.003   4.370
 3028SOL    HW1 9971   2.613   0.991   4.439
 3028SOL    HW2 9972   2.478   1.054   4.411
 3029SOL     OW 9973   2.573   1.150   5.537
 3029SOL    HW1 9974   2.621   1.229   5.565
 3029SOL    HW2 9975   2.491   1.184   5.501
 3030SOL     OW 9976   2.193   1.425   4.791
 3030SOL    HW1 9977   2.119   1.386   4.745
 3030SOL    HW2 9978   2.241   1.472   4.722
 3031SOL     OW 9979   3.322   1.502   5.078
 3031SOL    HW1 9980   3.377   1.580   5.091
 3031SOL    HW2 9981   3.259   1.505   5.150
 3032SOL     OW 9982   2.307   0.397   5.207
 3032SOL    HW1 9983   2.381   0.338   5.207
 3032SOL    HW2 9984   2.231   0.341   5.224
 3033SOL     OW 9985   3.472   0.451   4.463
 3033SOL    HW1 9986   3.396   0.473   4.408
 3033SOL    HW2 9987   3.488   0.530   4.514
 3034SOL     OW 9988   2.072   1.688   4.171
 3034SOL    HW1 9989   2.092   1.755   4.236
 3034SOL    HW2 9990   2.145   1.691   4.110
 3035SOL     OW 9991   2.999   1.342   5.416
 3035SOL    HW1 9992   3.040   1.337   5.503
 3035SOL    HW2 9993   2.946   1.262   5.410
 3036SOL     OW 9994   2.102   1.434   4.268
 3036SOL    HW1 9995   2.073   1.525   4.255
 3036SOL    HW2 9996   2.037   1.396   4.326
 3037SOL     OW 9997   2.123   1.090   4.616
 3037SOL    HW1 9998   2.118   1.003   4.655
 3037SOL    HW2 9999   2.064   1.144   4.669
 3038SOL     OW10000   2.478   1.782   5.162
 3038SOL    HW110001   2.394   1.770   5.206
 3038SOL    HW210002   2.502   1.873   5.180
 3039SOL     OW10003   2.446   0.982   3.859
 3039SOL    HW110004   2.492   1.029   3.790
 3039SOL    HW210005   2.486   1.012   3.941
 3040SOL     OW10006   3.448   0.136   5.179
 3040SOL    HW110007   3.473   0.221   5.141
 3040SOL    HW210008   3.444   0.153   5.273
 3041SOL     OW10009   1.977   0.654   4.284
 3041SOL    HW110010   1.949   0.565   4.305
 3041SOL    HW210011   1.969   0.702   4.366
 3042SOL     OW10012   3.705   1.759   4.061
 3042SOL    HW110013   3.774   1.731   4.122
 3042SOL    HW210014   3.727   1.850   4.041
 3043SOL     OW10015   1.887   1.586   3.849
 3043SOL    HW110016   1.871   1.494   3.869
 3043SOL    HW210017   1.860   1.632   3.928
 3044SOL     OW10018   3.552   0.919   4.367
 3044SOL    HW110019   3.634   0.875   4.345
 3044SOL    HW210020   3.530   0.968   4.287
 3045SOL     OW10021   3.508   1.106   4.153
 3045SOL    HW110022   3.594   1.110   4.111
 3045SOL    HW210023   3.514   1.168   4.226
 3046SOL     OW10024   1.985   0.745   5.308
 3046SOL    HW110025   2.077   0.771   5.315
 3046SOL    HW210026   1.936   0.826   5.317
 3047SOL     OW10027   2.477   1.386   4.454
 3047SOL    HW110028   2.431   1.302   4.464
 3047SOL    HW210029   2.460   1.412   4.364
 3048SOL     OW10030   3.152   1.238   5.146
 3048SOL    HW110031   3.184   1.170   5.087
 3048SOL    HW210032   3.209   1.232   5.223
 3049SOL     OW10033   2.674   0.029   4.254
 3049SOL    HW110034   2.702   0.117   4.227
 3049SOL    HW210035   2.578   0.032   4.247
 3050SOL     OW10036   2.052   0.965   4.997
 3050SOL    HW110037   2.137   0.924   4.981
 3050SOL    HW210038   1.990   0.912   4.947
 3051SOL     OW10039   3.393   0.995   3.923
 3051SOL    HW110040   3.323   0.938   3.955
 3051SOL    HW210041   3.435   1.028   4.002
 3052SOL     OW10042   3.049   1.802   5.353
 3052SOL    HW110043   3.052   1.865   5.281
 3052SOL    HW210044   3.066   1.717   5.311
 3053SOL     OW10045   2.191   0.267   5.537
 3053SOL    HW110046   2.242   0.342   5.567
 3053SOL    HW210047   2.104   0.280   5.575
 3054SOL     OW10048   3.319   1.423   4.670
 3054SOL    HW110049   3.258   1.432   4.743
 3054SOL    HW210050   3.314   1.331   4.645
 3055SOL     OW10051   3.515   1.745   4.303
 3055SOL    HW110052   3.504   1.712   4.213
 3055SOL    HW210053   3.495   1.669   4.358
 3056SOL     OW10054   2.456   0.721   3.991
 3056SOL    HW110055   2.460   0.802   3.941
 3056SOL    HW210056   2.390   0.737   4.059
 3057SOL     OW10057   3.139   0.348   4.655
 3057SOL    HW110058   3.049   0.320   4.668
 3057SOL    HW210059   3.190   0.298   4.719
 3058SOL     OW10060   3.451   1.657   4.035
 3058SOL    HW110061   3.539   1.694   4.027
 3058SOL    HW210062   3.419   1.651   3.945
 3059SOL     OW10063   2.656   0.618   5.173
 3059SOL    HW110064   2.629   0.597   5.262
 3059SOL    HW210065   2.615   0.551   5.119
 3060SOL     OW10066   3.256   0.475   5.402
 3060SOL    HW110067   3.259   0.520   5.487
 3060SOL    HW210068   3.320   0.404   5.411
 3061SOL     OW10069   2.816   0.887   5.307
 3061SOL    HW110070   2.871   0.817   5.271
 3061SOL    HW210071   2.768   0.921   5.232
 3062SOL     OW10072   2.856   0.417   4.958
 3062SOL    HW110073   2.770   0.438   4.996
 3062SOL    HW210074   2.836   0.369   4.878
 3063SOL     OW10075   2.913   0.698   4.150
 3063SOL    HW110076   2.929   0.691   4.244
 3063SOL    HW210077   2.830   0.653   4.136
 3064SOL     OW10078   1.950   0.822   4.501
 3064SOL    HW110079   2.031   0.814   4.552
 3064SOL    HW210080   1.907   0.899   4.536
 3065SOL     OW10081   1.989   1.858   5.305
 3065SOL    HW110082   1.989   1.834   5.397
 3065SOL    HW210083   1.901   1.835   5.274
 3066SOL     OW10084   2.738   0.366   3.914
 3066SOL    HW110085   2.777   0.425   3.849
 3066SOL    HW210086   2.793   0.288   3.911
 3067SOL     OW10087   3.569   0.573   5.552
 3067SOL    HW110088   3.532   0.647   5.503
 3067SOL    HW210089   3.599   0.513   5.484
 3068SOL     OW10090   3.241   1.142   4.265
 3068SOL    HW110091   3.320   1.128   4.213
 3068SOL    HW210092   3.188   1.203   4.213
 3069SOL     OW10093   2.387   0.202   4.606
 3069SOL    HW110094   2.409   0.218   4.698
 3069SOL    HW210095   2.408   0.285   4.562
 3070SOL     OW10096   2.870   1.445   4.198
 3070SOL    HW110097   2.828   1.517   4.153
 3070SOL    HW210098   2.857   1.463   4.291
 3071SOL     OW10099   2.221   1.785   4.586
 3071SOL    HW110100   2.256   1.696   4.591
 3071SOL    HW210101   2.291   1.840   4.621
 3072SOL     OW10102   3.661   1.056   4.593
 3072SOL    HW110103   3.608   1.036   4.516
 3072SOL    HW210104   3.599   1.062   4.665
 3073SOL     OW10105   3.090   1.538   5.235
 3073SOL    HW110106   3.077   1.466   5.297
 3073SOL    HW210107   3.021   1.527   5.170
 3074SOL     OW10108   2.181   0.958   3.975
 3074SOL    HW110109   2.263   0.976   3.929
 3074SOL    HW210110   2.150   0.876   3.937
 3075SOL     OW10111   3.341   0.745   4.451
 3075SOL    HW110112   3.333   0.702   4.536
 3075SOL    HW210113   3.419   0.799   4.458
 3076SOL     OW10114   2.329   1.265   5.462
 3076SOL    HW110115   2.302   1.269   5.371
 3076SOL    HW210116   2.247   1.263   5.511
 3077SOL     OW10117   2.966   1.765   3.954
 3077SOL    HW110118   2.896   1.717   3.997
 3077SOL    HW210119   2.992   1.709   3.881
 3078SOL     OW10120   2.059   0.278   5.228
 3078SOL    HW110121   1.980   0.332   5.225
 3078SOL    HW210122   2.052   0.229   5.309
 3079SOL     OW10123   3.491   1.378   3.813
 3079SOL    HW110124   3.451   1.464   3.798
 3079SOL    HW210125   3.422   1.315   3.792
 3080SOL     OW10126   2.331   1.750   4.042
 3080SOL    HW110127   2.377   1.773   4.123
 3080SOL    HW210128   2.397   1.705   3.989
 3081SOL     OW10129   3.269   0.101   4.155
 3081SOL    HW110130   3.262   0.081   4.062
 3081SOL    HW210131   3.362   0.121   4.168
 3082SOL     OW10132   2.087   1.772   4.958
 3082SOL    HW110133   2.157   1.723   5.001
 3082SOL    HW210134   2.102   1.758   4.864
 3083SOL     OW10135   2.795   1.684   4.645
 3083SOL    HW110136   2.887   1.658   4.637
 3083SOL    HW210137   2.755   1.658   4.562
 3084SOL     OW10138   2.255   0.696   4.199
 3084SOL    HW110139   2.276   0.604   4.210
 3084SOL    HW210140   2.161   0.703   4.217
 3085SOL     OW10141   3.400   0.228   5.447
 3085SOL    HW110142   3.408   0.245   5.541
 3085SOL    HW210143   3.324   0.170   5.439
 3086SOL     OW10144   2.486   0.132   3.831
 3086SOL    HW110145   2.547   0.063   3.857
 3086SOL    HW210146   2.434   0.093   3.761
 3087SOL     OW10147   2.641   0.312   5.491
 3087SOL    HW110148   2.700   0.237   5.492
 3087SOL    HW210149   2.595   0.307   5.575
 3088SOL     OW10150   2.733   1.514   4.924
 3088SOL    HW110151   2.728   1.492   4.831
 3088SOL    HW210152   2.807   1.463   4.956
 3089SOL     OW10153   3.203   0.589   5.156
 3089SOL    HW110154   3.233   0.558   5.242
 3089SOL    HW210155   3.239   0.677   5.149
 3090SOL     OW10156   2.672   1.391   4.661
 3090SOL    HW110157   2.760   1.383   4.622
 3090SOL    HW210158   2.612   1.386   4.586
 3091SOL     OW10159   2.790   0.511   4.627
 3091SOL    HW110160   2.766   0.502   4.534
 3091SOL    HW210161   2.820   0.423   4.652
 3092SOL     OW10162   2.405   0.062   4.231
 3092SOL    HW110163   2.319   0.060   4.275
 3092SOL    HW210164   2.397   0.132   4.166
 3093SOL     OW10165   3.290   1.198   3.765
 3093SOL    HW110166   3.322   1.122   3.814
 3093SOL    HW210167   3.204   1.217   3.803
 3094SOL     OW10168   2.163   0.064   3.917
 3094SOL    HW110169   2.221   0.134   3.886
 3094SOL    HW210170   2.220   5.287   3.922
 3095SOL     OW10171   2.801   0.264   4.186
 3095SOL    HW110172   2.774   0.300   4.102
 3095SOL    HW210173   2.897   0.274   4.186
 3096SOL     OW10174   2.943   0.682   5.183
 3096SOL    HW110175   2.874   0.615   5.188
 3096SOL    HW210176   3.024   0.632   5.177
 3097SOL     OW10177   3.080   1.561   4.521
 3097SOL    HW110178   3.097   1.644   4.476
 3097SOL    HW210179   3.146   1.557   4.589
 3098SOL     OW10180   2.331   1.152   4.456
 3098SOL    HW110181   2.264   1.131   4.520
 3098SOL    HW210182   2.291   1.135   4.371
 3099SOL     OW10183   2.887   0.545   3.747
 3099SOL    HW110184   2.844   0.629   3.729
 3099SOL    HW210185   2.950   0.565   3.816
 3100SOL     OW10186   1.941   0.553   5.117
 3100SOL    HW110187   2.033   0.553   5.089
 3100SOL    HW210188   1.936   0.624   5.182
 3101SOL     OW10189   2.416   0.238   4.882
 3101SOL    HW110190   2.448   0.153   4.911
 3101SOL    HW210191   2.324   0.239   4.909
 3102SOL     OW10192   2.729   0.463   4.365
 3102SOL    HW110193   2.682   0.516   4.300
 3102SOL    HW210194   2.752   0.383   4.318
 3103SOL     OW10195   2.840   0.061   4.487
 3103SOL    HW110196   2.775   0.057   4.417
 3103SOL    HW210197   2.850   5.270   4.516
 3104SOL     OW10198   3.299   1.165   4.580
 3104SOL    HW110199   3.232   1.097   4.582
 3104SOL    HW210200   3.324   1.171   4.488
 3105SOL     OW10201   3.328   0.607   4.700
 3105SOL    HW110202   3.277   0.526   4.703
 3105SOL    HW210203   3.388   0.601   4.774
 3106SOL     OW10204   3.706   0.816   4.107
 3106SOL    HW110205   3.763   0.765   4.165
 3106SOL    HW210206   3.678   0.753   4.040
 3107SOL     OW10207   2.350   1.419   3.881
 3107SOL    HW110208   2.273   1.390   3.931
 3107SOL    HW210209   2.340   1.378   3.795
 3108SOL     OW10210   3.533   1.265   4.369
 3108SOL    HW110211   3.628   1.265   4.383
 3108SOL    HW210212   3.506   1.354   4.390
 3109SOL     OW10213   3.256   0.573   3.796
 3109SOL    HW110214   3.195   0.552   3.866
 3109SOL    HW210215   3.341   0.541   3.827
 3110SOL     OW10216   2.385   0.265   4.045
 3110SOL    HW110217   2.431   0.217   3.976
 3110SOL    HW210218   2.363   0.349   4.004
 3111SOL     OW10219   3.614   1.240   5.295
 3111SOL    HW110220   3.701   1.201   5.291
 3111SOL    HW210221   3.629   1.330   5.324
 3112SOL     OW10222   2.921   1.351   5.056
 3112SOL    HW110223   2.846   1.322   5.108
 3112SOL    HW210224   2.997   1.311   5.099
 3113SOL     OW10225   3.470   1.625   5.378
 3113SOL    HW110226   3.464   1.660   5.290
 3113SOL    HW210227   3.553   1.578   5.380
 3114SOL     OW10228   2.991   1.203   4.828
 3114SOL    HW110229   2.933   1.240   4.895
 3114SOL    HW210230   2.957   1.236   4.745
 3115SOL     OW10231   3.490   1.098   4.801
 3115SOL    HW110232   3.485   1.160   4.874
 3115SOL    HW210233   3.410   1.114   4.751
 3116SOL     OW10234   2.766   0.107   5.111
 3116SOL    HW110235   2.796   0.073   5.027
 3116SOL    HW210236   2.843   0.149   5.150
 3117SOL     OW10237   2.846   1.115   5.447
 3117SOL    HW110238   2.755   1.131   5.469
 3117SOL    HW210239   2.844   1.037   5.391
 3118SOL     OW10240   2.572   1.063   4.095
 3118SOL    HW110241   2.557   1.045   4.187
 3118SOL    HW210242   2.647   1.009   4.071
 3119SOL     OW10243   2.281   0.816   4.975
 3119SOL    HW110244   2.349   0.825   5.042
 3119SOL    HW210245   2.246   0.728   4.989
 3120SOL     OW10246   3.128   0.378   4.997
 3120SOL    HW110247   3.161   0.455   5.044
 3120SOL    HW210248   3.038   0.401   4.975
 3121SOL     OW10249   1.929   1.569   5.079
 3121SOL    HW110250   1.899   1.643   5.027
 3121SOL    HW210251   2.024   1.574   5.075
 3122SOL     OW10252   2.211   1.110   4.213
 3122SOL    HW110253   2.210   1.182   4.150
 3122SOL    HW210254   2.208   1.031   4.160
 3123SOL     OW10255   2.415   0.536   4.584
 3123SOL    HW110256   2.429   0.595   4.510
 3123SOL    HW210257   2.480   0.563   4.649
 3124SOL     OW10258   3.112   1.350   4.113
 3124SOL    HW110259   3.167   1.422   4.144
 3124SOL    HW210260   3.025   1.369   4.148
 3125SOL     OW10261   3.144   1.453   4.874
 3125SOL    HW110262   3.199   1.457   4.952
 3125SOL    HW210263   3.087   1.378   4.888
 3126SOL     OW10264   3.443   0.622   4.204
 3126SOL    HW110265   3.396   0.676   4.267
 3126SOL    HW210266   3.489   0.685   4.148
 3127SOL     OW10267   2.210   1.520   5.042
 3127SOL    HW110268   2.196   1.481   4.955
 3127SOL    HW210269   2.304   1.536   5.046
 3128SOL     OW10270   2.277   0.744   5.326
 3128SOL    HW110271   2.338   0.789   5.268
 3128SOL    HW210272   2.319   0.660   5.345
 3129SOL     OW10273   3.465   0.779   5.406
 3129SOL    HW110274   3.379   0.820   5.400
 3129SOL    HW210275   3.517   0.821   5.338
 3130SOL     OW10276   2.910   0.117   5.510
 3130SOL    HW110277   2.936   0.197   5.463
 3130SOL    HW210278   2.913   0.049   5.443
 3131SOL     OW10279   2.345   0.058   5.462
 3131SOL    HW110280   2.285   5.293   5.425
 3131SOL    HW210281   2.289   0.133   5.483
 3132SOL     OW10282   2.446   0.873   4.755
 3132SOL    HW110283   2.477   0.964   4.757
 3132SOL    HW210284   2.389   0.866   4.832
 3133SOL     OW10285   3.218   0.860   4.751
 3133SOL    HW110286   3.134   0.848   4.707
 3133SOL    HW210287   3.260   0.774   4.746
 3134SOL     OW10288   3.067   0.528   3.991
 3134SOL    HW110289   3.072   0.447   4.041
 3134SOL    HW210290   3.023   0.591   4.049
 3135SOL     OW10291   2.157   0.203   4.972
 3135SOL    HW110292   2.118   0.242   5.050
 3135SOL    HW210293   2.158   0.109   4.991
 3136SOL     OW10294   1.908   1.309   4.999
 3136SOL    HW110295   1.941   1.255   5.071
 3136SOL    HW210296   1.913   1.399   5.032
 3137SOL     OW10297   2.587   0.632   4.783
 3137SOL    HW110298   2.661   0.615   4.725
 3137SOL    HW210299   2.558   0.720   4.761
 3138SOL     OW10300   3.597   0.959   5.577
 3138SOL    HW110301   3.552   0.896   5.522
 3138SOL    HW210302   3.538   0.974   5.651
 3139SOL     OW10303   2.168   0.071   4.378
 3139SOL    HW110304   2.147   0.165   4.383
 3139SOL    HW210305   2.213   0.053   4.461
 3140SOL     OW10306   3.476   0.376   4.087
 3140SOL    HW110307   3.508   0.311   4.150
 3140SOL    HW210308   3.455   0.453   4.140
 3141SOL     OW10309   2.890   0.759   4.684
 3141SOL    HW110310   2.885   0.777   4.778
 3141SOL    HW210311   2.863   0.668   4.675
 3142SOL     OW10312   2.843   1.565   5.441
 3142SOL    HW110313   2.828   1.610   5.358
 3142SOL    HW210314   2.887   1.484   5.418
 3143SOL     OW10315   3.716   1.505   5.328
 3143SOL    HW110316   3.735   1.532   5.239
 3143SOL    HW210317   3.797   1.523   5.377
 3144SOL     OW10318   2.215   0.916   5.533
 3144SOL    HW110319   2.297   0.935   5.579
 3144SOL    HW210320   2.240   0.853   5.465
 3145SOL     OW10321   3.387   0.272   3.850
 3145SOL    HW110322   3.323   0.208   3.881
 3145SOL    HW210323   3.424   0.310   3.930
 3146SOL     OW10324   3.153   0.826   3.755
 3146SOL    HW110325   3.195   0.740   3.759
 3146SOL    HW210326   3.184   0.865   3.673
 3147SOL     OW10327   2.924   1.333   4.578
 3147SOL    HW110328   2.929   1.261   4.516
 3147SOL    HW210329   2.985   1.399   4.543
 3148SOL     OW10330   2.171   0.809   4.671
 3148SOL    HW110331   2.264   0.830   4.665
 3148SOL    HW210332   2.169   0.718   4.703
 3149SOL     OW10333   2.193   0.527   4.737
 3149SOL    HW110334   2.157   0.439   4.722
 3149SOL    HW210335   2.270   0.531   4.679
 3150SOL     OW10336   2.997   0.377   5.413
 3150SOL    HW110337   2.949   0.432   5.475
 3150SOL    HW210338   3.084   0.417   5.409
 3151SOL     OW10339   2.994   0.222   5.190
 3151SOL    HW110340   2.998   0.281   5.265
 3151SOL    HW210341   3.050   0.263   5.124
 3152SOL     OW10342   1.868   1.317   3.919
 3152SOL    HW110343   1.781   1.332   3.882
 3152SOL    HW210344   1.865   1.228   3.953
 3153SOL     OW10345   1.950   1.787   4.658
 3153SOL    HW110346   1.917   1.708   4.617
 3153SOL    HW210347   2.041   1.793   4.629
 3154SOL     OW10348   2.375   1.569   4.629
 3154SOL    HW110349   2.454   1.596   4.677
 3154SOL    HW210350   2.406   1.502   4.569
 3155SOL     OW10351   2.844   0.792   4.950
 3155SOL    HW110352   2.900   0.769   5.023
 3155SOL    HW210353   2.758   0.755   4.973
 3156SOL     OW10354   1.897   0.544   4.841
 3156SOL    HW110355   1.977   0.531   4.790
 3156SOL    HW210356   1.928   0.548   4.932
 3157SOL     OW10357   2.048   0.523   5.452
 3157SOL    HW110358   2.112   0.487   5.390
 3157SOL    HW210359   2.010   0.598   5.406
 3158SOL     OW10360   3.240   0.938   5.382
 3158SOL    HW110361   3.261   1.031   5.380
 3158SOL    HW210362   3.237   0.912   5.290
 3159SOL     OW10363   2.676   0.573   4.088
 3159SOL    HW110364   2.681   0.499   4.027
 3159SOL    HW210365   2.602   0.625   4.057
 3160SOL     OW10366   3.504   0.602   4.909
 3160SOL    HW110367   3.493   0.542   4.983
 3160SOL    HW210368   3.591   0.582   4.875
 3161SOL     OW10369   2.104   1.551   5.450
 3161SOL    HW110370   2.082   1.616   5.517
 3161SOL    HW210371   2.107   1.468   5.497
 3162SOL     OW10372   2.564   0.450   4.983
 3162SOL    HW110373   2.511   0.377   4.951
 3162SOL    HW210374   2.561   0.515   4.912
 3163SOL     OW10375   2.793   1.675   5.190
 3163SOL    HW110376   2.767   1.643   5.103
 3163SOL    HW210377   2.784   1.770   5.184
 3164SOL     OW10378   2.324   0.492   3.906
 3164SOL    HW110379   2.384   0.563   3.930
 3164SOL    HW210380   2.239   0.536   3.897
 3165SOL     OW10381   2.006   1.140   5.197
 3165SOL    HW110382   2.008   1.090   5.278
 3165SOL    HW210383   2.024   1.076   5.128
 3166SOL     OW10384   3.187   1.046   4.946
 3166SOL    HW110385   3.210   0.982   4.878
 3166SOL    HW210386   3.117   1.099   4.907
 3167SOL     OW10387   3.173   0.858   4.030
 3167SOL    HW110388   3.099   0.824   4.080
 3167SOL    HW210389   3.149   0.843   3.939
 3168SOL     OW10390   3.648   1.741   4.884
 3168SOL    HW110391   3.701   1.770   4.810
 3168SOL    HW210392   3.613   1.656   4.857
 3169SOL     OW10393   3.106   1.722   4.832
 3169SOL    HW110394   3.200   1.742   4.837
 3169SOL    HW210395   3.100   1.628   4.853
 3170SOL     OW10396   1.949   1.265   4.737
 3170SOL    HW110397   1.933   1.279   4.830
 3170SOL    HW210398   1.874   1.214   4.707
 3171SOL     OW10399   2.539   1.667   5.455
 3171SOL    HW110400   2.483   1.745   5.453
 3171SOL    HW210401   2.602   1.680   5.384
 3172SOL     OW10402   3.574   0.150   4.225
 3172SOL    HW110403   3.649   0.129   4.170
 3172SOL    HW210404   3.567   0.076   4.285
 3173SOL     OW10405   3.252   1.577   4.204
 3173SOL    HW110406   3.323   1.590   4.141
 3173SOL    HW210407   3.206   1.661   4.205
 3174SOL     OW10408   1.998   1.795   5.568
 3174SOL    HW110409   1.947   1.730   5.616
 3174SOL    HW210410   2.045   1.844   5.636
 3175SOL     OW10411   3.139   0.927   4.395
 3175SOL    HW110412   3.212   0.866   4.404
 3175SOL    HW210413   3.174   0.998   4.342
 3176SOL     OW10414   2.676   1.273   5.154
 3176SOL    HW110415   2.647   1.312   5.236
 3176SOL    HW210416   2.609   1.298   5.091
 3177SOL     OW10417   2.533   1.617   3.881
 3177SOL    HW110418   2.542   1.636   3.787
 3177SOL    HW210419   2.476   1.540   3.885
 3178SOL     OW10420   3.484   1.726   5.114
 3178SOL    HW110421   3.541   1.733   5.037
 3178SOL    HW210422   3.471   1.816   5.142
 3179SOL     OW10423   3.708   0.155   4.680
 3179SOL    HW110424   3.705   0.060   4.673
 3179SOL    HW210425   3.621   0.184   4.651
 3180SOL     OW10426   2.123   0.329   4.443
 3180SOL    HW110427   2.035   0.360   4.421
 3180SOL    HW210428   2.121   0.318   4.538
 3181SOL     OW10429   3.065   1.606   3.752
 3181SOL    HW110430   3.062   1.515   3.782
 3181SOL    HW210431   2.999   1.610   3.683
 3182SOL     OW10432   2.686   1.006   5.097
 3182SOL    HW110433   2.730   1.002   5.012
 3182SOL    HW210434   2.685   1.099   5.119
 3183SOL     OW10435   2.779   0.912   4.014
 3183SOL    HW110436   2.840   0.943   3.948
 3183SOL    HW210437   2.825   0.842   4.059
 3184SOL     OW10438   3.354   1.623   3.764
 3184SOL    HW110439   3.261   1.612   3.747
 3184SOL    HW210440   3.394   1.628   3.678
 3185SOL     OW10441   2.231   1.300   5.216
 3185SOL    HW110442   2.219   1.378   5.162
 3185SOL    HW210443   2.153   1.247   5.201
 3186SOL     OW10444   3.471   1.283   5.004
 3186SOL    HW110445   3.532   1.271   5.077
 3186SOL    HW210446   3.412   1.352   5.034
 3187SOL     OW10447   2.915   1.107   4.429
 3187SOL    HW110448   2.844   1.056   4.469
 3187SOL    HW210449   2.979   1.041   4.401
 3188SOL     OW10450   2.881   0.244   4.693
 3188SOL    HW110451   2.861   0.198   4.611
 3188SOL    HW210452   2.874   0.176   4.760
 3189SOL     OW10453   2.467   1.497   4.198
 3189SOL    HW110454   2.515   1.441   4.137
 3189SOL    HW210455   2.381   1.509   4.158
 3190SOL     OW10456   3.587   0.386   5.102
 3190SOL    HW110457   3.658   0.451   5.101
 3190SOL    HW210458   3.619   0.317   5.044
 3191SOL     OW10459   2.122   1.346   4.017
 3191SOL    HW110460   2.030   1.342   3.992
 3191SOL    HW210461   2.122   1.378   4.107
 3192SOL     OW10462   1.975   1.022   5.443
 3192SOL    HW110463   1.899   0.999   5.497
 3192SOL    HW210464   2.049   0.985   5.490
 3193SOL     OW10465   2.535   0.212   5.214
 3193SOL    HW110466   2.618   0.196   5.169
 3193SOL    HW210467   2.559   0.262   5.292
 3194SOL     OW10468   1.940   0.338   3.765
 3194SOL    HW110469   1.856   0.305   3.733
 3194SOL    HW210470   1.960   0.412   3.708
 3195SOL     OW10471   3.291   0.858   5.124
 3195SOL    HW110472   3.242   0.919   5.068
 3195SOL    HW210473   3.380   0.860   5.090
 3196SOL     OW10474   1.933   0.167   4.038
 3196SOL    HW110475   1.935   0.250   3.991
 3196SOL    HW210476   2.018   0.126   4.019
 3197SOL     OW10477   3.042   1.342   3.842
 3197SOL    HW110478   2.954   1.305   3.843
 3197SOL    HW210479   3.070   1.339   3.934
 3198SOL     OW10480   2.481   0.830   5.157
 3198SOL    HW110481   2.537   0.907   5.143
 3198SOL    HW210482   2.543   0.757   5.166
 3199SOL     OW10483   2.577   0.573   5.425
 3199SOL    HW110484   2.619   0.635   5.485
 3199SOL    HW210485   2.606   0.487   5.457
 3200SOL     OW10486   3.334   1.199   5.355
 3200SOL    HW110487   3.322   1.213   5.449
 3200SOL    HW210488   3.428   1.215   5.341
 3201SOL     OW10489   2.239   1.741   5.287
 3201SOL    HW110490   2.155   1.784   5.273
 3201SOL    HW210491   2.216   1.657   5.329
 3202SOL     OW10492   3.531   0.881   4.979
 3202SOL    HW110493   3.525   0.795   4.937
 3202SOL    HW210494   3.521   0.944   4.908
 3203SOL     OW10495   3.082   0.319   4.189
 3203SOL    HW110496   3.145   0.247   4.182
 3203SOL    HW210497   3.113   0.370   4.264
 3204SOL     OW10498   2.451   0.738   4.395
 3204SOL    HW110499   2.491   0.823   4.378
 3204SOL    HW210500   2.384   0.729   4.327
 3205SOL     OW10501   3.628   0.362   5.373
 3205SOL    HW110502   3.608   0.377   5.280
 3205SOL    HW210503   3.556   0.306   5.404
 3206SOL     OW10504   3.607   0.934   5.236
 3206SOL    HW110505   3.603   1.028   5.249
 3206SOL    HW210506   3.592   0.922   5.142
 3207SOL     OW10507   2.724   1.368   3.759
 3207SOL    HW110508   2.684   1.396   3.841
 3207SOL    HW210509   2.741   1.449   3.711
 3208SOL     OW10510   2.730   0.968   4.579
 3208SOL    HW110511   2.780   0.896   4.617
 3208SOL    HW210512   2.694   1.015   4.654
 3209SOL     OW10513   2.942   0.991   3.813
 3209SOL    HW110514   2.919   1.039   3.733
 3209SOL    HW210515   3.016   0.935   3.788
 3210SOL     OW10516   3.717   1.555   4.569
 3210SOL    HW110517   3.638   1.541   4.516
 3210SOL    HW210518   3.709   1.491   4.640
 3211SOL     OW10519   2.087   1.303   5.580
 3211SOL    HW110520   2.020   1.242   5.550
 3211SOL    HW210521   2.069   1.315   5.673
 3212SOL     OW10522   1.947   1.232   4.389
 3212SOL    HW110523   1.949   1.185   4.472
 3212SOL    HW210524   2.014   1.189   4.336
 3213SOL     OW10525   2.543   1.404   5.351
 3213SOL    HW110526   2.464   1.361   5.384
 3213SOL    HW210527   2.540   1.492   5.389
 3214SOL     OW10528   3.674   0.176   4.956
 3214SOL    HW110529   3.640   0.087   4.959
 3214SOL    HW210530   3.695   0.190   4.863
 3215SOL     OW10531   2.292   0.436   4.248
 3215SOL    HW110532   2.324   0.363   4.195
 3215SOL    HW210533   2.244   0.394   4.320
 3216SOL     OW10534   3.562   1.490   4.819
 3216SOL    HW110535   3.480   1.465   4.776
 3216SOL    HW210536   3.576   1.422   4.885
 3217SOL     OW10537   2.191   0.557   5.015
 3217SOL    HW110538   2.247   0.502   5.070
 3217SOL    HW210539   2.211   0.529   4.925
 3218SOL     OW10540   2.681   1.585   4.396
 3218SOL    HW110541   2.669   1.598   4.302
 3218SOL    HW210542   2.612   1.525   4.421
 3219SOL     OW10543   3.290   0.219   4.840
 3219SOL    HW110544   3.326   0.145   4.888
 3219SOL    HW210545   3.241   0.268   4.906
 3220SOL     OW10546   2.865   0.021   4.863
 3220SOL    HW110547   2.814   5.252   4.820
 3220SOL    HW210548   2.951   5.282   4.877
 3221SOL     OW10549   2.634   1.334   4.044
 3221SOL    HW110550   2.601   1.244   4.045
 3221SOL    HW210551   2.719   1.329   4.087
 3222SOL     OW10552   2.479   1.560   5.003
 3222SOL    HW110553   2.483   1.638   5.058
 3222SOL    HW210554   2.569   1.547   4.973
 3223SOL     OW10555   3.218   0.037   3.887
 3223SOL    HW110556   3.253   5.295   3.808
 3223SOL    HW210557   3.138   5.289   3.907
 3224SOL     OW10558   3.163   0.464   4.408
 3224SOL    HW110559   3.108   0.543   4.413
 3224SOL    HW210560   3.156   0.424   4.495
 3225SOL     OW10561   3.456   0.215   4.606
 3225SOL    HW110562   3.391   0.227   4.675
 3225SOL    HW210563   3.449   0.294   4.552
 3226SOL     OW10564   1.907   1.069   4.031
 3226SOL    HW110565   2.000   1.059   4.011
 3226SOL    HW210566   1.878   0.981   4.054
 3227SOL     OW10567   2.735   1.649   4.073
 3227SOL    HW110568   2.672   1.617   4.008
 3227SOL    HW210569   2.706   1.738   4.094
 3228SOL     OW10570   2.089   0.625   5.710
 3228SOL    HW110571   2.001   0.622   5.746
 3228SOL    HW210572   2.079   0.599   5.618
 3229SOL     OW10573   2.080   0.285   6.579
 3229SOL    HW110574   2.108   0.249   6.663
 3229SOL    HW210575   1.995   0.243   6.562
 3230SOL     OW10576   1.865   0.387   6.224
 3230SOL    HW110577   1.781   0.408   6.264
 3230SOL    HW210578   1.847   0.310   6.170
 3231SOL     OW10579   2.429   1.289   6.762
 3231SOL    HW110580   2.342   1.294   6.723
 3231SOL    HW210581   2.445   1.378   6.795
 3232SOL     OW10582   3.425   1.512   6.293
 3232SOL    HW110583   3.382   1.492   6.376
 3232SOL    HW210584   3.353   1.516   6.230
 3233SOL     OW10585   2.994   0.698   6.287
 3233SOL    HW110586   3.042   0.779   6.272
 3233SOL    HW210587   2.946   0.712   6.368
 3234SOL     OW10588   3.630   0.605   5.814
 3234SOL    HW110589   3.609   0.598   5.721
 3234SOL    HW210590   3.594   0.525   5.853
 3235SOL     OW10591   2.615   1.141   6.628
 3235SOL    HW110592   2.547   1.177   6.685
 3235SOL    HW210593   2.652   1.218   6.583
 3236SOL     OW10594   2.728   0.777   7.406
 3236SOL    HW110595   2.716   0.851   7.466
 3236SOL    HW210596   2.754   0.816   7.323
 3237SOL     OW10597   2.548   1.002   6.232
 3237SOL    HW110598   2.613   0.991   6.301
 3237SOL    HW210599   2.479   1.054   6.272
 3238SOL     OW10600   2.573   1.151   7.399
 3238SOL    HW110601   2.621   1.229   7.427
 3238SOL    HW210602   2.491   1.185   7.363
 3239SOL     OW10603   2.192   1.424   6.654
 3239SOL    HW110604   2.120   1.386   6.604
 3239SOL    HW210605   2.242   1.475   6.589
 3240SOL     OW10606   3.323   1.500   6.942
 3240SOL    HW110607   3.374   1.580   6.951
 3240SOL    HW210608   3.259   1.504   7.013
 3241SOL     OW10609   2.307   0.398   7.071
 3241SOL    HW110610   2.382   0.338   7.070
 3241SOL    HW210611   2.231   0.341   7.086
 3242SOL     OW10612   3.472   0.451   6.325
 3242SOL    HW110613   3.396   0.474   6.270
 3242SOL    HW210614   3.488   0.530   6.376
 3243SOL     OW10615   2.081   1.715   6.058
 3243SOL    HW110616   2.103   1.791   6.111
 3243SOL    HW210617   2.154   1.707   5.996
 3244SOL     OW10618   2.998   1.341   7.276
 3244SOL    HW110619   3.039   1.338   7.363
 3244SOL    HW210620   2.947   1.261   7.271
 3245SOL     OW10621   2.092   1.442   6.121
 3245SOL    HW110622   2.075   1.536   6.124
 3245SOL    HW210623   2.033   1.405   6.186
 3246SOL     OW10624   2.120   1.090   6.477
 3246SOL    HW110625   2.117   1.004   6.517
 3246SOL    HW210626   2.063   1.144   6.531
 3247SOL     OW10627   2.472   1.790   7.014
 3247SOL    HW110628   2.390   1.774   7.062
 3247SOL    HW210629   2.496   1.880   7.039
 3248SOL     OW10630   2.446   0.983   5.721
 3248SOL    HW110631   2.493   1.030   5.652
 3248SOL    HW210632   2.486   1.013   5.803
 3249SOL     OW10633   3.449   0.136   7.042
 3249SOL    HW110634   3.473   0.221   7.003
 3249SOL    HW210635   3.444   0.153   7.136
 3250SOL     OW10636   1.977   0.654   6.146
 3250SOL    HW110637   1.949   0.565   6.167
 3250SOL    HW210638   1.969   0.702   6.228
 3251SOL     OW10639   3.705   1.758   5.920
 3251SOL    HW110640   3.770   1.730   5.984
 3251SOL    HW210641   3.727   1.849   5.901
 3252SOL     OW10642   1.894   1.594   5.710
 3252SOL    HW110643   1.877   1.502   5.731
 3252SOL    HW210644   1.871   1.641   5.790
 3253SOL     OW10645   3.551   0.918   6.228
 3253SOL    HW110646   3.634   0.876   6.206
 3253SOL    HW210647   3.529   0.969   6.150
 3254SOL     OW10648   3.508   1.106   6.015
 3254SOL    HW110649   3.594   1.111   5.974
 3254SOL    HW210650   3.514   1.168   6.088
 3255SOL     OW10651   1.985   0.744   7.171
 3255SOL    HW110652   2.077   0.771   7.177
 3255SOL    HW210653   1.935   0.825   7.179
 3256SOL     OW10654   2.475   1.387   6.321
 3256SOL    HW110655   2.430   1.303   6.330
 3256SOL    HW210656   2.460   1.413   6.231
 3257SOL     OW10657   3.150   1.238   7.009
 3257SOL    HW110658   3.182   1.170   6.949
 3257SOL    HW210659   3.208   1.232   7.085
 3258SOL     OW10660   2.674   0.029   6.115
 3258SOL    HW110661   2.702   0.117   6.089
 3258SOL    HW210662   2.578   0.032   6.109
 3259SOL     OW10663   2.051   0.965   6.859
 3259SOL    HW110664   2.137   0.924   6.844
 3259SOL    HW210665   1.990   0.912   6.808
 3260SOL     OW10666   3.393   0.994   5.785
 3260SOL    HW110667   3.324   0.937   5.817
 3260SOL    HW210668   3.435   1.029   5.864
 3261SOL     OW10669   3.047   1.807   7.209
 3261SOL    HW110670   3.055   1.867   7.135
 3261SOL    HW210671   3.065   1.721   7.172
 3262SOL     OW10672   2.190   0.263   7.405
 3262SOL    HW110673   2.241   0.341   7.429
 3262SOL    HW210674   2.102   0.281   7.439
 3263SOL     OW10675   3.329   1.419   6.537
 3263SOL    HW110676   3.261   1.435   6.602
 3263SOL    HW210677   3.316   1.328   6.510
 3264SOL     OW10678   3.520   1.741   6.164
 3264SOL    HW110679   3.501   1.711   6.075
 3264SOL    HW210680   3.496   1.668   6.220
 3265SOL     OW10681   2.456   0.720   5.853
 3265SOL    HW110682   2.462   0.802   5.803
 3265SOL    HW210683   2.391   0.738   5.921
 3266SOL     OW10684   3.140   0.348   6.517
 3266SOL    HW110685   3.049   0.320   6.530
 3266SOL    HW210686   3.190   0.298   6.581
 3267SOL     OW10687   3.442   1.670   5.895
 3267SOL    HW110688   3.533   1.701   5.888
 3267SOL    HW210689   3.415   1.654   5.805
 3268SOL     OW10690   2.656   0.618   7.035
 3268SOL    HW110691   2.628   0.597   7.124
 3268SOL    HW210692   2.614   0.551   6.981
 3269SOL     OW10693   3.257   0.475   7.264
 3269SOL    HW110694   3.258   0.520   7.349
 3269SOL    HW210695   3.319   0.403   7.273
 3270SOL     OW10696   2.816   0.887   7.168
 3270SOL    HW110697   2.871   0.818   7.132
 3270SOL    HW210698   2.768   0.922   7.093
 3271SOL     OW10699   2.856   0.417   6.821
 3271SOL    HW110700   2.770   0.438   6.858
 3271SOL    HW210701   2.836   0.369   6.740
 3272SOL     OW10702   2.913   0.697   6.012
 3272SOL    HW110703   2.929   0.691   6.106
 3272SOL    HW210704   2.830   0.652   5.999
 3273SOL     OW10705   1.950   0.821   6.363
 3273SOL    HW110706   2.031   0.814   6.414
 3273SOL    HW210707   1.907   0.899   6.398
 3274SOL     OW10708   1.987   1.857   7.167
 3274SOL    HW110709   1.989   1.833   7.260
 3274SOL    HW210710   1.899   1.834   7.138
 3275SOL     OW10711   2.738   0.366   5.775
 3275SOL    HW110712   2.777   0.425   5.711
 3275SOL    HW210713   2.794   0.288   5.773
 3276SOL     OW10714   3.570   0.574   7.415
 3276SOL    HW110715   3.533   0.648   7.367
 3276SOL    HW210716   3.599   0.514   7.347
 3277SOL     OW10717   3.239   1.142   6.127
 3277SOL    HW110718   3.318   1.130   6.074
 3277SOL    HW210719   3.186   1.204   6.077
 3278SOL     OW10720   2.387   0.202   6.468
 3278SOL    HW110721   2.409   0.218   6.559
 3278SOL    HW210722   2.409   0.284   6.424
 3279SOL     OW10723   2.866   1.444   6.057
 3279SOL    HW110724   2.830   1.517   6.008
 3279SOL    HW210725   2.848   1.465   6.149
 3280SOL     OW10726   2.216   1.809   6.449
 3280SOL    HW110727   2.261   1.725   6.457
 3280SOL    HW210728   2.285   1.874   6.467
 3281SOL     OW10729   3.661   1.055   6.455
 3281SOL    HW110730   3.607   1.038   6.378
 3281SOL    HW210731   3.599   1.061   6.527
 3282SOL     OW10732   3.090   1.539   7.098
 3282SOL    HW110733   3.076   1.466   7.159
 3282SOL    HW210734   3.025   1.525   7.030
 3283SOL     OW10735   2.181   0.958   5.837
 3283SOL    HW110736   2.263   0.977   5.792
 3283SOL    HW210737   2.151   0.876   5.798
 3284SOL     OW10738   3.342   0.744   6.312
 3284SOL    HW110739   3.334   0.702   6.398
 3284SOL    HW210740   3.419   0.800   6.319
 3285SOL     OW10741   2.328   1.264   7.324
 3285SOL    HW110742   2.301   1.269   7.232
 3285SOL    HW210743   2.246   1.263   7.373
 3286SOL     OW10744   2.984   1.778   5.817
 3286SOL    HW110745   2.910   1.737   5.862
 3286SOL    HW210746   3.008   1.716   5.748
 3287SOL     OW10747   2.059   0.278   7.089
 3287SOL    HW110748   1.980   0.332   7.085
 3287SOL    HW210749   2.050   0.228   7.170
 3288SOL     OW10750   3.490   1.380   5.674
 3288SOL    HW110751   3.449   1.465   5.659
 3288SOL    HW210752   3.421   1.316   5.654
 3289SOL     OW10753   2.328   1.737   5.906
 3289SOL    HW110754   2.372   1.793   5.971
 3289SOL    HW210755   2.399   1.705   5.850
 3290SOL     OW10756   3.270   0.100   6.018
 3290SOL    HW110757   3.262   0.081   5.924
 3290SOL    HW210758   3.362   0.122   6.031
 3291SOL     OW10759   2.116   1.791   6.818
 3291SOL    HW110760   2.170   1.726   6.863
 3291SOL    HW210761   2.110   1.759   6.728
 3292SOL     OW10762   2.800   1.698   6.485
 3292SOL    HW110763   2.879   1.647   6.505
 3292SOL    HW210764   2.756   1.648   6.416
 3293SOL     OW10765   2.255   0.696   6.061
 3293SOL    HW110766   2.275   0.603   6.072
 3293SOL    HW210767   2.161   0.703   6.079
 3294SOL     OW10768   3.400   0.227   7.310
 3294SOL    HW110769   3.407   0.245   7.404
 3294SOL    HW210770   3.323   0.170   7.302
 3295SOL     OW10771   2.486   0.132   5.694
 3295SOL    HW110772   2.548   0.064   5.719
 3295SOL    HW210773   2.434   0.092   5.623
 3296SOL     OW10774   2.640   0.312   7.350
 3296SOL    HW110775   2.701   0.239   7.352
 3296SOL    HW210776   2.601   0.312   7.438
 3297SOL     OW10777   2.737   1.520   6.780
 3297SOL    HW110778   2.722   1.485   6.693
 3297SOL    HW210779   2.808   1.467   6.816
 3298SOL     OW10780   3.203   0.589   7.018
 3298SOL    HW110781   3.233   0.558   7.103
 3298SOL    HW210782   3.238   0.677   7.010
 3299SOL     OW10783   2.678   1.393   6.526
 3299SOL    HW110784   2.762   1.382   6.483
 3299SOL    HW210785   2.614   1.396   6.455
 3300SOL     OW10786   2.790   0.510   6.489
 3300SOL    HW110787   2.765   0.502   6.397
 3300SOL    HW210788   2.821   0.423   6.513
 3301SOL     OW10789   2.404   0.062   6.093
 3301SOL    HW110790   2.319   0.060   6.137
 3301SOL    HW210791   2.397   0.132   6.028
 3302SOL     OW10792   3.290   1.198   5.626
 3302SOL    HW110793   3.320   1.123   5.677
 3302SOL    HW210794   3.204   1.220   5.664
 3303SOL     OW10795   2.163   0.063   5.778
 3303SOL    HW110796   2.221   0.134   5.749
 3303SOL    HW210797   2.220   5.286   5.784
 3304SOL     OW10798   2.801   0.263   6.048
 3304SOL    HW110799   2.774   0.300   5.964
 3304SOL    HW210800   2.896   0.274   6.048
 3305SOL     OW10801   2.943   0.682   7.045
 3305SOL    HW110802   2.875   0.615   7.050
 3305SOL    HW210803   3.025   0.633   7.039
 3306SOL     OW10804   3.085   1.570   6.380
 3306SOL    HW110805   3.100   1.637   6.313
 3306SOL    HW210806   3.153   1.586   6.445
 3307SOL     OW10807   2.331   1.150   6.318
 3307SOL    HW110808   2.262   1.130   6.382
 3307SOL    HW210809   2.291   1.134   6.233
 3308SOL     OW10810   3.130   1.793   6.195
 3308SOL    HW110811   3.177   1.854   6.138
 3308SOL    HW210812   3.063   1.847   6.238
 3309SOL     OW10813   2.887   0.545   5.609
 3309SOL    HW110814   2.844   0.629   5.591
 3309SOL    HW210815   2.950   0.565   5.678
 3310SOL     OW10816   1.942   0.553   6.980
 3310SOL    HW110817   2.033   0.553   6.952
 3310SOL    HW210818   1.936   0.624   7.044
 3311SOL     OW10819   2.416   0.238   6.744
 3311SOL    HW110820   2.449   0.153   6.773
 3311SOL    HW210821   2.324   0.239   6.770
 3312SOL     OW10822   2.728   0.463   6.227
 3312SOL    HW110823   2.682   0.517   6.163
 3312SOL    HW210824   2.752   0.383   6.179
 3313SOL     OW10825   2.840   0.061   6.349
 3313SOL    HW110826   2.775   0.057   6.279
 3313SOL    HW210827   2.850   5.270   6.378
 3314SOL     OW10828   3.300   1.162   6.443
 3314SOL    HW110829   3.229   1.097   6.442
 3314SOL    HW210830   3.324   1.173   6.351
 3315SOL     OW10831   3.328   0.607   6.562
 3315SOL    HW110832   3.277   0.526   6.565
 3315SOL    HW210833   3.388   0.601   6.636
 3316SOL     OW10834   3.707   0.816   5.969
 3316SOL    HW110835   3.763   0.765   6.027
 3316SOL    HW210836   3.679   0.753   5.902
 3317SOL     OW10837   2.352   1.419   5.742
 3317SOL    HW110838   2.277   1.390   5.793
 3317SOL    HW210839   2.340   1.377   5.656
 3318SOL     OW10840   3.533   1.264   6.231
 3318SOL    HW110841   3.627   1.267   6.245
 3318SOL    HW210842   3.503   1.352   6.252
 3319SOL     OW10843   3.256   0.572   5.657
 3319SOL    HW110844   3.194   0.552   5.728
 3319SOL    HW210845   3.341   0.542   5.690
 3320SOL     OW10846   2.385   0.265   5.907
 3320SOL    HW110847   2.431   0.217   5.838
 3320SOL    HW210848   2.363   0.349   5.867
 3321SOL     OW10849   3.614   1.240   7.157
 3321SOL    HW110850   3.701   1.201   7.152
 3321SOL    HW210851   3.629   1.329   7.186
 3322SOL     OW10852   2.920   1.353   6.919
 3322SOL    HW110853   2.845   1.322   6.970
 3322SOL    HW210854   2.996   1.312   6.960
 3323SOL     OW10855   3.470   1.625   7.239
 3323SOL    HW110856   3.464   1.660   7.150
 3323SOL    HW210857   3.553   1.577   7.241
 3324SOL     OW10858   2.992   1.204   6.691
 3324SOL    HW110859   2.933   1.242   6.756
 3324SOL    HW210860   2.960   1.237   6.607
 3325SOL     OW10861   3.489   1.098   6.663
 3325SOL    HW110862   3.484   1.160   6.735
 3325SOL    HW210863   3.411   1.115   6.611
 3326SOL     OW10864   2.765   0.107   6.974
 3326SOL    HW110865   2.796   0.073   6.889
 3326SOL    HW210866   2.843   0.149   7.012
 3327SOL     OW10867   2.846   1.114   7.311
 3327SOL    HW110868   2.754   1.131   7.330
 3327SOL    HW210869   2.845   1.037   7.254
 3328SOL     OW10870   2.571   1.062   5.957
 3328SOL    HW110871   2.557   1.044   6.050
 3328SOL    HW210872   2.647   1.008   5.934
 3329SOL     OW10873   2.281   0.816   6.838
 3329SOL    HW110874   2.350   0.825   6.904
 3329SOL    HW210875   2.246   0.728   6.851
 3330SOL     OW10876   3.128   0.378   6.859
 3330SOL    HW110877   3.161   0.455   6.906
 3330SOL    HW210878   3.038   0.401   6.837
 3331SOL     OW10879   1.934   1.574   6.940
 3331SOL    HW110880   1.905   1.646   6.884
 3331SOL    HW210881   2.029   1.575   6.933
 3332SOL     OW10882   2.209   1.111   6.076
 3332SOL    HW110883   2.214   1.184   6.015
 3332SOL    HW210884   2.206   1.033   6.021
 3333SOL     OW10885   2.415   0.537   6.446
 3333SOL    HW110886   2.429   0.595   6.372
 3333SOL    HW210887   2.481   0.563   6.511
 3334SOL     OW10888   3.110   1.349   5.975
 3334SOL    HW110889   3.166   1.420   6.006
 3334SOL    HW210890   3.023   1.370   6.009
 3335SOL     OW10891   3.145   1.458   6.733
 3335SOL    HW110892   3.201   1.461   6.811
 3335SOL    HW210893   3.089   1.381   6.747
 3336SOL     OW10894   3.443   0.622   6.066
 3336SOL    HW110895   3.396   0.675   6.130
 3336SOL    HW210896   3.488   0.686   6.010
 3337SOL     OW10897   2.208   1.527   6.900
 3337SOL    HW110898   2.196   1.485   6.815
 3337SOL    HW210899   2.303   1.540   6.908
 3338SOL     OW10900   2.277   0.744   7.188
 3338SOL    HW110901   2.338   0.790   7.130
 3338SOL    HW210902   2.319   0.660   7.206
 3339SOL     OW10903   3.464   0.778   7.269
 3339SOL    HW110904   3.378   0.820   7.262
 3339SOL    HW210905   3.517   0.821   7.201
 3340SOL     OW10906   2.907   0.117   7.374
 3340SOL    HW110907   2.936   0.196   7.329
 3340SOL    HW210908   2.913   0.048   7.307
 3341SOL     OW10909   2.345   0.057   7.323
 3341SOL    HW110910   2.285   5.293   7.286
 3341SOL    HW210911   2.289   0.132   7.346
 3342SOL     OW10912   2.446   0.873   6.618
 3342SOL    HW110913   2.477   0.963   6.617
 3342SOL    HW210914   2.389   0.868   6.694
 3343SOL     OW10915   3.218   0.859   6.614
 3343SOL    HW110916   3.135   0.849   6.569
 3343SOL    HW210917   3.260   0.773   6.608
 3344SOL     OW10918   3.067   0.528   5.852
 3344SOL    HW110919   3.072   0.447   5.904
 3344SOL    HW210920   3.024   0.591   5.910
 3345SOL     OW10921   2.158   0.203   6.834
 3345SOL    HW110922   2.118   0.242   6.912
 3345SOL    HW210923   2.158   0.109   6.853
 3346SOL     OW10924   1.908   1.311   6.862
 3346SOL    HW110925   1.941   1.256   6.933
 3346SOL    HW210926   1.915   1.401   6.896
 3347SOL     OW10927   2.587   0.632   6.645
 3347SOL    HW110928   2.661   0.616   6.587
 3347SOL    HW210929   2.558   0.720   6.623
 3348SOL     OW10930   3.598   0.960   7.439
 3348SOL    HW110931   3.550   0.897   7.384
 3348SOL    HW210932   3.540   0.975   7.514
 3349SOL     OW10933   2.168   0.071   6.241
 3349SOL    HW110934   2.147   0.165   6.245
 3349SOL    HW210935   2.213   0.053   6.323
 3350SOL     OW10936   3.475   0.376   5.949
 3350SOL    HW110937   3.508   0.312   6.012
 3350SOL    HW210938   3.455   0.453   6.002
 3351SOL     OW10939   2.890   0.759   6.546
 3351SOL    HW110940   2.886   0.777   6.640
 3351SOL    HW210941   2.863   0.668   6.537
 3352SOL     OW10942   2.843   1.565   7.303
 3352SOL    HW110943   2.829   1.610   7.220
 3352SOL    HW210944   2.888   1.484   7.279
 3353SOL     OW10945   3.716   1.505   7.191
 3353SOL    HW110946   3.735   1.531   7.101
 3353SOL    HW210947   3.798   1.522   7.238
 3354SOL     OW10948   2.215   0.914   7.396
 3354SOL    HW110949   2.298   0.935   7.439
 3354SOL    HW210950   2.239   0.852   7.327
 3355SOL     OW10951   3.388   0.271   5.712
 3355SOL    HW110952   3.323   0.208   5.743
 3355SOL    HW210953   3.424   0.310   5.791
 3356SOL     OW10954   3.153   0.826   5.617
 3356SOL    HW110955   3.195   0.740   5.620
 3356SOL    HW210956   3.184   0.865   5.535
 3357SOL     OW10957   2.929   1.336   6.441
 3357SOL    HW110958   2.932   1.264   6.378
 3357SOL    HW210959   2.989   1.401   6.406
 3358SOL     OW10960   2.171   0.809   6.533
 3358SOL    HW110961   2.264   0.830   6.526
 3358SOL    HW210962   2.169   0.718   6.565
 3359SOL     OW10963   2.194   0.527   6.599
 3359SOL    HW110964   2.157   0.440   6.584
 3359SOL    HW210965   2.270   0.531   6.542
 3360SOL     OW10966   2.997   0.376   7.275
 3360SOL    HW110967   2.950   0.431   7.337
 3360SOL    HW210968   3.084   0.416   7.270
 3361SOL     OW10969   2.994   0.222   7.052
 3361SOL    HW110970   2.998   0.280   7.127
 3361SOL    HW210971   3.050   0.263   6.986
 3362SOL     OW10972   1.867   1.320   5.781
 3362SOL    HW110973   1.780   1.335   5.744
 3362SOL    HW210974   1.864   1.231   5.815
 3363SOL     OW10975   1.952   1.787   6.524
 3363SOL    HW110976   1.922   1.707   6.480
 3363SOL    HW210977   2.042   1.799   6.494
 3364SOL     OW10978   2.357   1.573   6.491
 3364SOL    HW110979   2.425   1.635   6.515
 3364SOL    HW210980   2.401   1.510   6.434
 3365SOL     OW10981   2.843   0.791   6.812
 3365SOL    HW110982   2.900   0.769   6.886
 3365SOL    HW210983   2.758   0.754   6.836
 3366SOL     OW10984   1.897   0.544   6.703
 3366SOL    HW110985   1.977   0.531   6.651
 3366SOL    HW210986   1.928   0.548   6.794
 3367SOL     OW10987   2.050   0.521   7.313
 3367SOL    HW110988   2.113   0.487   7.251
 3367SOL    HW210989   2.010   0.596   7.269
 3368SOL     OW10990   3.240   0.938   7.245
 3368SOL    HW110991   3.261   1.031   7.243
 3368SOL    HW210992   3.236   0.912   7.152
 3369SOL     OW10993   2.676   0.573   5.950
 3369SOL    HW110994   2.680   0.499   5.889
 3369SOL    HW210995   2.602   0.625   5.919
 3370SOL     OW10996   3.504   0.601   6.771
 3370SOL    HW110997   3.493   0.542   6.845
 3370SOL    HW210998   3.591   0.581   6.737
 3371SOL     OW10999   2.103   1.551   7.312
 3371SOL    HW111000   2.082   1.615   7.380
 3371SOL    HW211001   2.108   1.467   7.359
 3372SOL     OW11002   2.563   0.451   6.845
 3372SOL    HW111003   2.511   0.378   6.812
 3372SOL    HW211004   2.561   0.515   6.774
 3373SOL     OW11005   2.789   1.679   7.054
 3373SOL    HW111006   2.763   1.644   6.969
 3373SOL    HW211007   2.785   1.774   7.043
 3374SOL     OW11008   2.324   0.492   5.768
 3374SOL    HW111009   2.384   0.563   5.792
 3374SOL    HW211010   2.239   0.536   5.759
 3375SOL     OW11011   2.006   1.141   7.059
 3375SOL    HW111012   2.009   1.090   7.140
 3375SOL    HW211013   2.024   1.077   6.990
 3376SOL     OW11014   3.187   1.046   6.809
 3376SOL    HW111015   3.210   0.983   6.741
 3376SOL    HW211016   3.117   1.099   6.770
 3377SOL     OW11017   3.174   0.857   5.892
 3377SOL    HW111018   3.099   0.826   5.942
 3377SOL    HW211019   3.149   0.843   5.801
 3378SOL     OW11020   3.635   1.743   6.737
 3378SOL    HW111021   3.695   1.769   6.668
 3378SOL    HW211022   3.611   1.653   6.715
 3379SOL     OW11023   3.103   1.732   6.697
 3379SOL    HW111024   3.185   1.754   6.653
 3379SOL    HW211025   3.110   1.639   6.716
 3380SOL     OW11026   1.946   1.267   6.598
 3380SOL    HW111027   1.931   1.280   6.691
 3380SOL    HW211028   1.873   1.211   6.569
 3381SOL     OW11029   2.538   1.665   7.315
 3381SOL    HW111030   2.488   1.746   7.314
 3381SOL    HW211031   2.607   1.679   7.250
 3382SOL     OW11032   3.574   0.150   6.087
 3382SOL    HW111033   3.649   0.130   6.032
 3382SOL    HW211034   3.567   0.076   6.147
 3383SOL     OW11035   3.253   1.568   6.072
 3383SOL    HW111036   3.313   1.601   6.005
 3383SOL    HW211037   3.204   1.645   6.100
 3384SOL     OW11038   1.998   1.796   7.430
 3384SOL    HW111039   1.947   1.731   7.479
 3384SOL    HW211040   2.046   1.844   7.498
 3385SOL     OW11041   3.139   0.926   6.257
 3385SOL    HW111042   3.213   0.865   6.264
 3385SOL    HW211043   3.173   0.998   6.204
 3386SOL     OW11044   2.675   1.273   7.015
 3386SOL    HW111045   2.646   1.313   7.097
 3386SOL    HW211046   2.607   1.296   6.952
 3387SOL     OW11047   2.533   1.621   5.742
 3387SOL    HW111048   2.544   1.634   5.648
 3387SOL    HW211049   2.478   1.543   5.748
 3388SOL     OW11050   3.487   1.727   6.977
 3388SOL    HW111051   3.537   1.734   6.896
 3388SOL    HW211052   3.473   1.818   7.004
 3389SOL     OW11053   3.708   0.156   6.543
 3389SOL    HW111054   3.705   0.060   6.535
 3389SOL    HW211055   3.621   0.185   6.513
 3390SOL     OW11056   2.123   0.329   6.305
 3390SOL    HW111057   2.035   0.360   6.283
 3390SOL    HW211058   2.122   0.318   6.400
 3391SOL     OW11059   3.070   1.605   5.618
 3391SOL    HW111060   3.059   1.514   5.644
 3391SOL    HW211061   3.005   1.619   5.549
 3392SOL     OW11062   2.686   1.006   6.958
 3392SOL    HW111063   2.730   1.001   6.874
 3392SOL    HW211064   2.685   1.099   6.980
 3393SOL     OW11065   2.778   0.910   5.876
 3393SOL    HW111066   2.839   0.942   5.810
 3393SOL    HW211067   2.826   0.841   5.922
 3394SOL     OW11068   3.353   1.625   5.629
 3394SOL    HW111069   3.259   1.619   5.615
 3394SOL    HW211070   3.390   1.631   5.541
 3395SOL     OW11071   2.230   1.303   7.078
 3395SOL    HW111072   2.218   1.380   7.022
 3395SOL    HW211073   2.153   1.249   7.061
 3396SOL     OW11074   3.472   1.283   6.866
 3396SOL    HW111075   3.532   1.271   6.940
 3396SOL    HW211076   3.412   1.352   6.895
 3397SOL     OW11077   2.916   1.108   6.293
 3397SOL    HW111078   2.844   1.057   6.332
 3397SOL    HW211079   2.978   1.042   6.263
 3398SOL     OW11080   2.881   0.244   6.555
 3398SOL    HW111081   2.861   0.198   6.473
 3398SOL    HW211082   2.874   0.176   6.622
 3399SOL     OW11083   2.465   1.488   6.067
 3399SOL    HW111084   2.511   1.438   5.999
 3399SOL    HW211085   2.395   1.533   6.020
 3400SOL     OW11086   3.588   0.386   6.964
 3400SOL    HW111087   3.658   0.451   6.963
 3400SOL    HW211088   3.619   0.316   6.906
 3401SOL     OW11089   2.122   1.344   5.875
 3401SOL    HW111090   2.029   1.342   5.852
 3401SOL    HW211091   2.124   1.381   5.963
 3402SOL     OW11092   1.975   1.022   7.306
 3402SOL    HW111093   1.899   1.000   7.358
 3402SOL    HW211094   2.049   0.984   7.353
 3403SOL     OW11095   2.535   0.213   7.077
 3403SOL    HW111096   2.618   0.196   7.032
 3403SOL    HW211097   2.559   0.262   7.155
 3404SOL     OW11098   1.940   0.338   5.627
 3404SOL    HW111099   1.856   0.305   5.594
 3404SOL    HW211100   1.960   0.412   5.570
 3405SOL     OW11101   3.291   0.858   6.986
 3405SOL    HW111102   3.242   0.919   6.931
 3405SOL    HW211103   3.380   0.861   6.951
 3406SOL     OW11104   1.933   0.167   5.900
 3406SOL    HW111105   1.935   0.250   5.853
 3406SOL    HW211106   2.018   0.126   5.881
 3407SOL     OW11107   3.041   1.338   5.703
 3407SOL    HW111108   2.950   1.308   5.705
 3407SOL    HW211109   3.068   1.339   5.794
 3408SOL     OW11110   2.482   0.831   7.020
 3408SOL    HW111111   2.537   0.907   7.004
 3408SOL    HW211112   2.543   0.757   7.028
 3409SOL     OW11113   3.345   1.777   6.565
 3409SOL    HW111114   3.367   1.839   6.495
 3409SOL    HW211115   3.429   1.759   6.608
 3410SOL     OW11116   2.576   0.573   7.288
 3410SOL    HW111117   2.618   0.636   7.347
 3410SOL    HW211118   2.605   0.487   7.318
 3411SOL     OW11119   3.334   1.199   7.218
 3411SOL    HW111120   3.321   1.213   7.312
 3411SOL    HW211121   3.427   1.215   7.203
 3412SOL     OW11122   2.238   1.740   7.149
 3412SOL    HW111123   2.153   1.782   7.136
 3412SOL    HW211124   2.218   1.656   7.191
 3413SOL     OW11125   3.531   0.881   6.841
 3413SOL    HW111126   3.525   0.796   6.798
 3413SOL    HW211127   3.521   0.945   6.770
 3414SOL     OW11128   3.082   0.318   6.051
 3414SOL    HW111129   3.145   0.247   6.045
 3414SOL    HW211130   3.112   0.370   6.126
 3415SOL     OW11131   2.451   0.737   6.257
 3415SOL    HW111132   2.490   0.823   6.241
 3415SOL    HW211133   2.384   0.729   6.189
 3416SOL     OW11134   3.627   0.361   7.236
 3416SOL    HW111135   3.609   0.377   7.144
 3416SOL    HW211136   3.555   0.306   7.266
 3417SOL     OW11137   3.608   0.933   7.098
 3417SOL    HW111138   3.603   1.028   7.112
 3417SOL    HW211139   3.592   0.922   7.004
 3418SOL     OW11140   2.724   1.367   5.621
 3418SOL    HW111141   2.686   1.395   5.704
 3418SOL    HW211142   2.742   1.448   5.574
 3419SOL     OW11143   2.524   1.784   6.529
 3419SOL    HW111144   2.503   1.875   6.509
 3419SOL    HW211145   2.620   1.781   6.525
 3420SOL     OW11146   2.730   0.967   6.441
 3420SOL    HW111147   2.780   0.896   6.480
 3420SOL    HW211148   2.694   1.016   6.516
 3421SOL     OW11149   2.940   0.988   5.674
 3421SOL    HW111150   2.919   1.039   5.596
 3421SOL    HW211151   3.015   0.934   5.649
 3422SOL     OW11152   3.715   1.554   6.430
 3422SOL    HW111153   3.637   1.543   6.376
 3422SOL    HW211154   3.705   1.489   6.499
 3423SOL     OW11155   2.087   1.302   7.442
 3423SOL    HW111156   2.021   1.241   7.411
 3423SOL    HW211157   2.066   1.316   7.535
 3424SOL     OW11158   1.946   1.233   6.251
 3424SOL    HW111159   1.954   1.185   6.334
 3424SOL    HW211160   2.014   1.195   6.195
 3425SOL     OW11161   2.543   1.403   7.214
 3425SOL    HW111162   2.463   1.361   7.246
 3425SOL    HW211163   2.540   1.492   7.250
 3426SOL     OW11164   3.674   0.176   6.818
 3426SOL    HW111165   3.639   0.087   6.821
 3426SOL    HW211166   3.695   0.190   6.726
 3427SOL     OW11167   2.291   0.436   6.110
 3427SOL    HW111168   2.324   0.363   6.057
 3427SOL    HW211169   2.244   0.394   6.182
 3428SOL     OW11170   3.562   1.488   6.681
 3428SOL    HW111171   3.481   1.466   6.634
 3428SOL    HW211172   3.572   1.419   6.746
 3429SOL     OW11173   2.191   0.557   6.877
 3429SOL    HW111174   2.247   0.502   6.931
 3429SOL    HW211175   2.211   0.530   6.787
 3430SOL     OW11176   2.691   1.578   6.263
 3430SOL    HW111177   2.676   1.635   6.187
 3430SOL    HW211178   2.614   1.520   6.265
 3431SOL     OW11179   3.290   0.219   6.702
 3431SOL    HW111180   3.326   0.144   6.750
 3431SOL    HW211181   3.241   0.268   6.768
 3432SOL     OW11182   2.865   0.021   6.725
 3432SOL    HW111183   2.814   5.252   6.682
 3432SOL    HW211184   2.951   5.282   6.739
 3433SOL     OW11185   2.634   1.333   5.902
 3433SOL    HW111186   2.604   1.242   5.909
 3433SOL    HW211187   2.716   1.335   5.951
 3434SOL     OW11188   2.481   1.556   6.871
 3434SOL    HW111189   2.484   1.638   6.920
 3434SOL    HW211190   2.569   1.548   6.833
 3435SOL     OW11191   3.218   0.037   5.749
 3435SOL    HW111192   3.252   5.295   5.670
 3435SOL    HW211193   3.138   5.289   5.769
 3436SOL     OW11194   3.163   0.464   6.270
 3436SOL    HW111195   3.109   0.543   6.275
 3436SOL    HW211196   3.156   0.424   6.357
 3437SOL     OW11197   3.456   0.215   6.468
 3437SOL    HW111198   3.391   0.227   6.537
 3437SOL    HW211199   3.449   0.294   6.414
 3438SOL     OW11200   1.905   1.070   5.893
 3438SOL    HW111201   1.999   1.062   5.875
 3438SOL    HW211202   1.877   0.981   5.915
 3439SOL     OW11203   2.747   1.654   5.927
 3439SOL    HW111204   2.674   1.637   5.867
 3439SOL    HW211205   2.718   1.728   5.980
 3440SOL     OW11206   2.088   0.620   7.572
 3440SOL    HW111207   1.998   0.628   7.605
 3440SOL    HW211208   2.078   0.598   7.480
 3441SOL     OW11209   3.631   0.597   7.679
 3441SOL    HW111210   3.610   0.592   7.586
 3441SOL    HW211211   3.589   0.519   7.716
 3442SOL     OW11212   2.082   1.717   7.918
 3442SOL    HW111213   2.110   1.757   8.001
 3442SOL    HW211214   2.161   1.715   7.865
 3443SOL     OW11215   2.079   1.438   7.992
 3443SOL    HW111216   2.063   1.533   7.989
 3443SOL    HW211217   2.019   1.406   8.060
 3444SOL     OW11218   2.446   0.983   7.580
 3444SOL    HW111219   2.492   1.031   7.511
 3444SOL    HW211220   2.486   1.015   7.661
 3445SOL     OW11221   3.699   1.758   7.797
 3445SOL    HW111222   3.771   1.728   7.853
 3445SOL    HW211223   3.725   1.847   7.771
 3446SOL     OW11224   1.893   1.599   7.577
 3446SOL    HW111225   1.877   1.505   7.593
 3446SOL    HW211226   1.866   1.641   7.659
 3447SOL     OW11227   3.546   0.863   8.031
 3447SOL    HW111228   3.624   0.876   0.005
 3447SOL    HW211229   3.531   0.948   7.990
 3448SOL     OW11230   3.517   1.098   7.878
 3448SOL    HW111231   3.605   1.124   7.849
 3448SOL    HW211232   3.487   1.170   7.933
 3449SOL     OW11233   2.673   5.288   7.943
 3449SOL    HW111234   2.716   0.072   7.929
 3449SOL    HW211235   2.579   0.008   7.942
 3450SOL     OW11236   3.396   0.995   7.650
 3450SOL    HW111237   3.328   0.937   7.684
 3450SOL    HW211238   3.439   1.029   7.728
 3451SOL     OW11239   2.452   0.724   7.708
 3451SOL    HW111240   2.455   0.807   7.660
 3451SOL    HW211241   2.392   0.741   7.781
 3452SOL     OW11242   3.436   1.672   7.757
 3452SOL    HW111243   3.527   1.700   7.765
 3452SOL    HW211244   3.424   1.659   7.663
 3453SOL     OW11245   1.921   0.864   0.087
 3453SOL    HW111246   1.984   0.796   0.112
 3453SOL    HW211247   1.920   0.925   0.161
 3454SOL     OW11248   2.734   0.359   7.630
 3454SOL    HW111249   2.777   0.422   7.572
 3454SOL    HW211250   2.798   0.289   7.641
 3455SOL     OW11251   2.184   0.957   7.698
 3455SOL    HW111252   2.264   0.974   7.648
 3455SOL    HW211253   2.148   0.878   7.658
 3456SOL     OW11254   2.987   1.775   7.682
 3456SOL    HW111255   2.909   1.736   7.722
 3456SOL    HW211256   3.011   1.715   7.612
 3457SOL     OW11257   3.490   1.381   7.534
 3457SOL    HW111258   3.448   1.466   7.520
 3457SOL    HW211259   3.422   1.317   7.516
 3458SOL     OW11260   2.328   1.737   7.770
 3458SOL    HW111261   2.380   1.787   7.833
 3458SOL    HW211262   2.393   1.701   7.709
 3459SOL     OW11263   3.273   0.107   7.883
 3459SOL    HW111264   3.269   0.083   7.791
 3459SOL    HW211265   3.367   0.113   7.902
 3460SOL     OW11266   2.253   0.696   7.918
 3460SOL    HW111267   2.256   0.600   7.927
 3460SOL    HW211268   2.163   0.719   7.938
 3461SOL     OW11269   2.480   0.131   7.560
 3461SOL    HW111270   2.550   0.069   7.581
 3461SOL    HW211271   2.432   0.090   7.488
 3462SOL     OW11272   2.410   0.064   7.951
 3462SOL    HW111273   2.319   0.047   7.973
 3462SOL    HW211274   2.407   0.138   7.890
 3463SOL     OW11275   3.290   1.198   7.489
 3463SOL    HW111276   3.320   1.124   7.542
 3463SOL    HW211277   3.206   1.222   7.527
 3464SOL     OW11278   2.166   0.074   7.662
 3464SOL    HW111279   2.216   0.133   7.604
 3464SOL    HW211280   2.215   5.292   7.659
 3465SOL     OW11281   2.812   0.226   7.906
 3465SOL    HW111282   2.762   0.299   7.869
 3465SOL    HW211283   2.900   0.262   7.917
 3466SOL     OW11284   2.302   1.151   0.098
 3466SOL    HW111285   2.227   1.189   0.144
 3466SOL    HW211286   2.271   1.137   0.009
 3467SOL     OW11287   3.154   1.812   8.014
 3467SOL    HW111288   3.190   1.881   7.958
 3467SOL    HW211289   3.067   1.845   8.039
 3468SOL     OW11290   2.888   0.545   7.468
 3468SOL    HW111291   2.844   0.629   7.453
 3468SOL    HW211292   2.947   0.562   7.542
 3469SOL     OW11293   3.737   0.815   7.801
 3469SOL    HW111294   3.721   0.794   7.893
 3469SOL    HW211295   3.696   0.743   7.753
 3470SOL     OW11296   2.349   1.417   7.603
 3470SOL    HW111297   2.275   1.388   7.656
 3470SOL    HW211298   2.336   1.374   7.519
 3471SOL     OW11299   3.255   0.572   7.519
 3471SOL    HW111300   3.193   0.551   7.589
 3471SOL    HW211301   3.339   0.540   7.552
 3472SOL     OW11302   2.386   0.272   7.773
 3472SOL    HW111303   2.428   0.220   7.705
 3472SOL    HW211304   2.364   0.355   7.730
 3473SOL     OW11305   2.574   1.063   7.811
 3473SOL    HW111306   2.548   1.047   7.901
 3473SOL    HW211307   2.652   1.009   7.798
 3474SOL     OW11308   2.226   1.104   7.926
 3474SOL    HW111309   2.207   1.183   7.875
 3474SOL    HW211310   2.213   1.032   7.864
 3475SOL     OW11311   3.084   1.357   7.821
 3475SOL    HW111312   3.145   1.426   7.844
 3475SOL    HW211313   3.050   1.325   7.905
 3476SOL     OW11314   3.451   0.624   7.921
 3476SOL    HW111315   3.437   0.682   7.996
 3476SOL    HW211316   3.487   0.682   7.853
 3477SOL     OW11317   3.065   0.525   7.714
 3477SOL    HW111318   3.065   0.438   7.754
 3477SOL    HW211319   3.043   0.584   7.786
 3478SOL     OW11320   3.480   0.376   7.813
 3478SOL    HW111321   3.500   0.308   7.878
 3478SOL    HW211322   3.456   0.453   7.865
 3479SOL     OW11323   3.390   0.272   7.575
 3479SOL    HW111324   3.327   0.206   7.605
 3479SOL    HW211325   3.426   0.310   7.656
 3480SOL     OW11326   3.155   0.827   7.481
 3480SOL    HW111327   3.196   0.741   7.482
 3480SOL    HW211328   3.186   0.867   7.399
 3481SOL     OW11329   1.868   1.324   7.640
 3481SOL    HW111330   1.781   1.337   7.603
 3481SOL    HW211331   1.867   1.234   7.673
 3482SOL     OW11332   2.701   0.605   7.762
 3482SOL    HW111333   2.693   0.515   7.733
 3482SOL    HW211334   2.612   0.639   7.762
 3483SOL     OW11335   2.321   0.494   7.636
 3483SOL    HW111336   2.382   0.567   7.653
 3483SOL    HW211337   2.237   0.537   7.621
 3484SOL     OW11338   3.174   0.852   7.754
 3484SOL    HW111339   3.087   0.858   7.794
 3484SOL    HW211340   3.157   0.841   7.661
 3485SOL     OW11341   3.571   0.132   7.944
 3485SOL    HW111342   3.645   0.132   7.884
 3485SOL    HW211343   3.604   0.086   8.022
 3486SOL     OW11344   3.225   1.577   7.895
 3486SOL    HW111345   3.300   1.597   7.840
 3486SOL    HW211346   3.194   1.662   7.926
 3487SOL     OW11347   2.529   1.619   7.604
 3487SOL    HW111348   2.541   1.633   7.510
 3487SOL    HW211349   2.475   1.540   7.610
 3488SOL     OW11350   3.072   1.607   7.478
 3488SOL    HW111351   3.060   1.515   7.505
 3488SOL    HW211352   3.005   1.620   7.411
 3489SOL     OW11353   2.788   0.908   7.757
 3489SOL    HW111354   2.841   0.932   7.681
 3489SOL    HW211355   2.782   0.812   7.752
 3490SOL     OW11356   3.355   1.626   7.489
 3490SOL    HW111357   3.260   1.619   7.476
 3490SOL    HW211358   3.390   1.632   7.400
 3491SOL     OW11359   2.471   1.509   7.935
 3491SOL    HW111360   2.517   1.448   7.878
 3491SOL    HW211361   2.395   1.537   7.885
 3492SOL     OW11362   2.120   1.345   7.743
 3492SOL    HW111363   2.028   1.343   7.716
 3492SOL    HW211364   2.119   1.381   7.832
 3493SOL     OW11365   1.937   0.337   7.489
 3493SOL    HW111366   1.854   0.307   7.452
 3493SOL    HW211367   1.961   0.413   7.436
 3494SOL     OW11368   1.924   0.182   7.743
 3494SOL    HW111369   1.923   0.258   7.684
 3494SOL    HW211370   2.006   0.137   7.722
 3495SOL     OW11371   3.038   1.338   7.556
 3495SOL    HW111372   2.945   1.312   7.555
 3495SOL    HW211373   3.060   1.344   7.648
 3496SOL     OW11374   3.084   0.318   7.917
 3496SOL    HW111375   3.150   0.249   7.910
 3496SOL    HW211376   3.107   0.366   7.996
 3497SOL     OW11377   2.489   0.736   8.054
 3497SOL    HW111378   2.492   0.818   0.024
 3497SOL    HW211379   2.402   0.735   8.015
 3498SOL     OW11380   2.724   1.367   7.484
 3498SOL    HW111381   2.686   1.397   7.567
 3498SOL    HW211382   2.743   1.448   7.436
 3499SOL     OW11383   2.933   0.977   7.537
 3499SOL    HW111384   2.915   1.035   7.463
 3499SOL    HW211385   3.012   0.929   7.512
 3500SOL     OW11386   2.250   0.422   7.985
 3500SOL    HW111387   2.303   0.369   7.925
 3500SOL    HW211388   2.299   0.421   8.067
 3501SOL     OW11389   2.627   1.336   7.764
 3501SOL    HW111390   2.597   1.245   7.764
 3501SOL    HW211391   2.710   1.334   7.811
 3502SOL     OW11392   3.229   0.036   7.612
 3502SOL    HW111393   3.238   5.288   7.530
 3502SOL    HW211394   3.144   0.009   7.646
 3503SOL     OW11395   1.914   1.078   7.749
 3503SOL    HW111396   2.008   1.068   7.736
 3503SOL    HW211397   1.883   0.989   7.764
 3504SOL     OW11398   2.755   1.653   7.780
 3504SOL    HW111399   2.679   1.629   7.728
 3504SOL    HW211400   2.722   1.715   7.844
 3505SOL     OW11401   2.085   2.501   0.118
 3505SOL    HW111402   2.016   2.445   0.154
 3505SOL    HW211403   2.114   2.454   0.039
 3506SOL     OW11404   2.087   2.122   0.990
 3506SOL    HW111405   2.115   2.092   1.076
 3506SOL    HW211406   1.995   2.096   0.983
 3507SOL     OW11407   1.863   2.239   0.644
 3507SOL    HW111408   1.780   2.266   0.684
 3507SOL    HW211409   1.840   2.162   0.591
 3508SOL     OW11410   2.418   3.159   1.196
 3508SOL    HW111411   2.334   3.167   1.151
 3508SOL    HW211412   2.438   3.249   1.225
 3509SOL     OW11413   3.423   3.374   0.707
 3509SOL    HW111414   3.382   3.353   0.791
 3509SOL    HW211415   3.351   3.378   0.645
 3510SOL     OW11416   3.631   2.463   0.233
 3510SOL    HW111417   3.593   2.465   0.145
 3510SOL    HW211418   3.592   2.385   0.273
 3511SOL     OW11419   2.576   3.033   1.017
 3511SOL    HW111420   2.516   3.062   1.086
 3511SOL    HW211421   2.621   3.114   0.990
 3512SOL     OW11422   2.549   3.032   1.840
 3512SOL    HW111423   2.619   3.095   1.825
 3512SOL    HW211424   2.475   3.066   1.790
 3513SOL     OW11425   2.191   3.289   1.068
 3513SOL    HW111426   2.120   3.249   1.018
 3513SOL    HW211427   2.241   3.337   1.002
 3514SOL     OW11428   3.324   3.360   1.360
 3514SOL    HW111429   3.374   3.441   1.366
 3514SOL    HW211430   3.258   3.367   1.428
 3515SOL     OW11431   2.293   2.231   1.482
 3515SOL    HW111432   2.367   2.171   1.487
 3515SOL    HW211433   2.216   2.177   1.500
 3516SOL     OW11434   3.475   2.308   0.741
 3516SOL    HW111435   3.400   2.332   0.686
 3516SOL    HW211436   3.487   2.384   0.798
 3517SOL     OW11437   2.082   3.578   0.471
 3517SOL    HW111438   2.103   3.654   0.525
 3517SOL    HW211439   2.157   3.569   0.412
 3518SOL     OW11440   2.994   3.199   1.690
 3518SOL    HW111441   3.026   3.185   1.779
 3518SOL    HW211442   2.952   3.116   1.666
 3519SOL     OW11443   2.087   3.307   0.536
 3519SOL    HW111444   2.072   3.401   0.538
 3519SOL    HW211445   2.029   3.272   0.603
 3520SOL     OW11446   2.115   2.954   0.886
 3520SOL    HW111447   2.116   2.870   0.932
 3520SOL    HW211448   2.062   3.011   0.942
 3521SOL     OW11449   2.471   3.655   1.429
 3521SOL    HW111450   2.390   3.636   1.476
 3521SOL    HW211451   2.495   3.744   1.455
 3522SOL     OW11452   2.443   2.821   0.141
 3522SOL    HW111453   2.415   2.907   0.109
 3522SOL    HW211454   2.513   2.840   0.203
 3523SOL     OW11455   3.458   1.986   1.467
 3523SOL    HW111456   3.467   2.067   1.417
 3523SOL    HW211457   3.443   2.015   1.557
 3524SOL     OW11458   1.942   2.504   0.573
 3524SOL    HW111459   1.917   2.414   0.597
 3524SOL    HW211460   1.940   2.552   0.656
 3525SOL     OW11461   3.708   3.619   0.330
 3525SOL    HW111462   3.774   3.590   0.394
 3525SOL    HW211463   3.732   3.710   0.312
 3526SOL     OW11464   1.894   3.458   0.110
 3526SOL    HW111465   1.879   3.369   0.144
 3526SOL    HW211466   1.876   3.515   0.184
 3527SOL     OW11467   3.546   2.778   0.643
 3527SOL    HW111468   3.631   2.737   0.624
 3527SOL    HW211469   3.528   2.831   0.565
 3528SOL     OW11470   3.511   2.968   0.434
 3528SOL    HW111471   3.592   2.979   0.385
 3528SOL    HW211472   3.518   3.029   0.507
 3529SOL     OW11473   1.956   2.600   1.591
 3529SOL    HW111474   2.049   2.625   1.591
 3529SOL    HW211475   1.909   2.684   1.594
 3530SOL     OW11476   2.480   3.249   0.734
 3530SOL    HW111477   2.437   3.165   0.747
 3530SOL    HW211478   2.458   3.274   0.644
 3531SOL     OW11479   3.146   3.094   1.429
 3531SOL    HW111480   3.180   3.031   1.365
 3531SOL    HW211481   3.209   3.091   1.501
 3532SOL     OW11482   2.678   1.863   0.512
 3532SOL    HW111483   2.718   1.947   0.487
 3532SOL    HW211484   2.585   1.883   0.520
 3533SOL     OW11485   2.033   2.837   1.269
 3533SOL    HW111486   2.118   2.793   1.260
 3533SOL    HW211487   1.972   2.783   1.219
 3534SOL     OW11488   3.370   2.874   0.213
 3534SOL    HW111489   3.323   2.797   0.244
 3534SOL    HW211490   3.426   2.898   0.287
 3535SOL     OW11491   3.048   3.669   1.623
 3535SOL    HW111492   3.056   3.729   1.548
 3535SOL    HW211493   3.063   3.582   1.586
 3536SOL     OW11494   2.195   2.110   1.816
 3536SOL    HW111495   2.226   2.201   1.810
 3536SOL    HW211496   2.104   2.118   1.845
 3537SOL     OW11497   3.330   3.281   0.951
 3537SOL    HW111498   3.263   3.300   1.016
 3537SOL    HW211499   3.315   3.190   0.927
 3538SOL     OW11500   3.520   3.604   0.582
 3538SOL    HW111501   3.500   3.576   0.493
 3538SOL    HW211502   3.496   3.530   0.637
 3539SOL     OW11503   3.144   2.212   0.931
 3539SOL    HW111504   3.054   2.183   0.941
 3539SOL    HW211505   3.194   2.160   0.995
 3540SOL     OW11506   3.449   3.532   0.320
 3540SOL    HW111507   3.540   3.561   0.313
 3540SOL    HW211508   3.422   3.516   0.230
 3541SOL     OW11509   3.254   2.336   1.677
 3541SOL    HW111510   3.258   2.378   1.762
 3541SOL    HW211511   3.317   2.264   1.682
 3542SOL     OW11512   2.857   2.266   1.238
 3542SOL    HW111513   2.785   2.308   1.285
 3542SOL    HW211514   2.826   2.260   1.148
 3543SOL     OW11515   1.945   2.682   0.781
 3543SOL    HW111516   2.028   2.682   0.829
 3543SOL    HW211517   1.900   2.761   0.810
 3544SOL     OW11518   1.988   3.714   1.579
 3544SOL    HW111519   1.990   3.692   1.672
 3544SOL    HW211520   1.898   3.700   1.552
 3545SOL     OW11521   2.744   2.210   0.207
 3545SOL    HW111522   2.794   2.261   0.143
 3545SOL    HW211523   2.748   2.120   0.174
 3546SOL     OW11524   3.570   2.436   1.828
 3546SOL    HW111525   3.532   2.510   1.779
 3546SOL    HW211526   3.598   2.375   1.760
 3547SOL     OW11527   3.243   3.003   0.525
 3547SOL    HW111528   3.326   3.000   0.478
 3547SOL    HW211529   3.193   3.072   0.482
 3548SOL     OW11530   2.408   2.030   0.887
 3548SOL    HW111531   2.409   2.055   0.979
 3548SOL    HW211532   2.427   2.112   0.840
 3549SOL     OW11533   2.857   3.300   0.471
 3549SOL    HW111534   2.826   3.377   0.423
 3549SOL    HW211535   2.846   3.324   0.564
 3550SOL     OW11536   2.217   3.671   0.863
 3550SOL    HW111537   2.260   3.586   0.871
 3550SOL    HW211538   2.285   3.735   0.882
 3551SOL     OW11539   3.660   2.916   0.869
 3551SOL    HW111540   3.605   2.900   0.793
 3551SOL    HW211541   3.599   2.923   0.942
 3552SOL     OW11542   3.089   3.400   1.512
 3552SOL    HW111543   3.077   3.328   1.574
 3552SOL    HW211544   3.027   3.382   1.442
 3553SOL     OW11545   2.185   2.808   0.246
 3553SOL    HW111546   2.270   2.812   0.202
 3553SOL    HW211547   2.168   2.714   0.257
 3554SOL     OW11548   3.344   2.597   0.727
 3554SOL    HW111549   3.337   2.558   0.814
 3554SOL    HW211550   3.419   2.657   0.734
 3555SOL     OW11551   2.321   3.136   1.735
 3555SOL    HW111552   2.295   3.139   1.643
 3555SOL    HW211553   2.239   3.130   1.784
 3556SOL     OW11554   2.969   3.643   0.223
 3556SOL    HW111555   2.913   3.603   0.289
 3556SOL    HW211556   2.990   3.572   0.162
 3557SOL     OW11557   2.045   2.134   1.505
 3557SOL    HW111558   1.963   2.183   1.505
 3557SOL    HW211559   2.026   2.056   1.558
 3558SOL     OW11560   3.496   3.235   0.084
 3558SOL    HW111561   3.455   3.322   0.083
 3558SOL    HW211562   3.425   3.175   0.063
 3559SOL     OW11563   2.327   3.599   0.325
 3559SOL    HW111564   2.368   3.660   0.386
 3559SOL    HW211565   2.397   3.574   0.264
 3560SOL     OW11566   3.269   1.974   0.445
 3560SOL    HW111567   3.261   1.951   0.352
 3560SOL    HW211568   3.364   1.979   0.460
 3561SOL     OW11569   2.117   3.653   1.231
 3561SOL    HW111570   2.169   3.587   1.277
 3561SOL    HW211571   2.109   3.619   1.142
 3562SOL     OW11572   2.799   3.564   0.898
 3562SOL    HW111573   2.872   3.509   0.927
 3562SOL    HW211574   2.756   3.512   0.830
 3563SOL     OW11575   2.181   2.595   0.494
 3563SOL    HW111576   2.229   2.512   0.490
 3563SOL    HW211577   2.092   2.570   0.519
 3564SOL     OW11578   3.396   2.087   1.725
 3564SOL    HW111579   3.406   2.108   1.818
 3564SOL    HW211580   3.327   2.021   1.722
 3565SOL     OW11581   2.495   1.981   0.133
 3565SOL    HW111582   2.588   1.963   0.141
 3565SOL    HW211583   2.471   1.952   0.045
 3566SOL     OW11584   2.626   2.131   1.751
 3566SOL    HW111585   2.704   2.076   1.750
 3566SOL    HW211586   2.583   2.111   1.834
 3567SOL     OW11587   2.739   3.389   1.195
 3567SOL    HW111588   2.722   3.353   1.109
 3567SOL    HW211589   2.806   3.332   1.233
 3568SOL     OW11590   3.216   2.450   1.424
 3568SOL    HW111591   3.235   2.421   1.514
 3568SOL    HW211592   3.240   2.542   1.423
 3569SOL     OW11593   2.674   3.277   0.940
 3569SOL    HW111594   2.761   3.262   0.902
 3569SOL    HW211595   2.614   3.269   0.866
 3570SOL     OW11596   2.800   2.335   0.913
 3570SOL    HW111597   2.790   2.338   0.818
 3570SOL    HW211598   2.834   2.247   0.930
 3571SOL     OW11599   2.413   1.926   0.505
 3571SOL    HW111600   2.333   1.923   0.558
 3571SOL    HW211601   2.402   2.002   0.449
 3572SOL     OW11602   3.296   3.062   0.033
 3572SOL    HW111603   3.319   2.990   0.091
 3572SOL    HW211604   3.208   3.087   0.059
 3573SOL     OW11605   2.174   1.917   0.168
 3573SOL    HW111606   2.237   1.986   0.191
 3573SOL    HW211607   2.208   1.838   0.210
 3574SOL     OW11608   2.802   2.103   0.451
 3574SOL    HW111609   2.777   2.145   0.369
 3574SOL    HW211610   2.896   2.117   0.458
 3575SOL     OW11611   3.094   3.437   0.794
 3575SOL    HW111612   3.106   3.505   0.728
 3575SOL    HW211613   3.159   3.456   0.861
 3576SOL     OW11614   2.330   3.019   0.731
 3576SOL    HW111615   2.261   2.996   0.793
 3576SOL    HW211616   2.294   2.996   0.645
 3577SOL     OW11617   3.130   3.656   0.608
 3577SOL    HW111618   3.180   3.719   0.556
 3577SOL    HW211619   3.062   3.708   0.651
 3578SOL     OW11620   2.918   2.371   0.024
 3578SOL    HW111621   2.859   2.441   8.077
 3578SOL    HW211622   2.966   2.408   0.098
 3579SOL     OW11623   1.931   2.418   1.393
 3579SOL    HW111624   2.024   2.418   1.369
 3579SOL    HW211625   1.924   2.486   1.460
 3580SOL     OW11626   2.413   2.077   1.151
 3580SOL    HW111627   2.469   2.027   1.210
 3580SOL    HW211628   2.328   2.078   1.195
 3581SOL     OW11629   2.768   2.288   0.650
 3581SOL    HW111630   2.709   2.354   0.616
 3581SOL    HW211631   2.771   2.220   0.583
 3582SOL     OW11632   2.879   1.909   0.746
 3582SOL    HW111633   2.817   1.904   0.674
 3582SOL    HW211634   2.855   1.836   0.803
 3583SOL     OW11635   3.301   3.023   0.858
 3583SOL    HW111636   3.223   2.968   0.852
 3583SOL    HW211637   3.329   3.036   0.768
 3584SOL     OW11638   3.328   2.466   0.976
 3584SOL    HW111639   3.274   2.387   0.982
 3584SOL    HW211640   3.387   2.461   1.050
 3585SOL     OW11641   3.709   2.676   0.388
 3585SOL    HW111642   3.762   2.624   0.448
 3585SOL    HW211643   3.679   2.614   0.322
 3586SOL     OW11644   2.345   3.303   0.181
 3586SOL    HW111645   2.271   3.267   0.230
 3586SOL    HW211646   2.352   3.247   0.104
 3587SOL     OW11647   3.533   3.127   0.648
 3587SOL    HW111648   3.628   3.129   0.661
 3587SOL    HW211649   3.504   3.215   0.668
 3588SOL     OW11650   3.261   2.435   0.086
 3588SOL    HW111651   3.198   2.415   0.155
 3588SOL    HW211652   3.316   2.357   0.080
 3589SOL     OW11653   2.375   2.122   0.319
 3589SOL    HW111654   2.424   2.070   0.256
 3589SOL    HW211655   2.404   2.211   0.305
 3590SOL     OW11656   3.614   3.102   1.572
 3590SOL    HW111657   3.701   3.063   1.568
 3590SOL    HW211658   3.629   3.192   1.600
 3591SOL     OW11659   2.922   3.229   1.345
 3591SOL    HW111660   2.843   3.192   1.385
 3591SOL    HW211661   2.994   3.177   1.381
 3592SOL     OW11662   3.470   3.488   1.655
 3592SOL    HW111663   3.463   3.522   1.566
 3592SOL    HW211664   3.553   3.440   1.656
 3593SOL     OW11665   3.018   3.100   1.105
 3593SOL    HW111666   2.948   3.089   1.168
 3593SOL    HW211667   2.974   3.103   1.020
 3594SOL     OW11668   3.489   2.960   1.077
 3594SOL    HW111669   3.484   3.022   1.149
 3594SOL    HW211670   3.411   2.978   1.024
 3595SOL     OW11671   2.780   1.957   1.396
 3595SOL    HW111672   2.801   1.941   1.304
 3595SOL    HW211673   2.858   1.999   1.431
 3596SOL     OW11674   2.254   2.680   1.269
 3596SOL    HW111675   2.349   2.684   1.274
 3596SOL    HW211676   2.233   2.588   1.287
 3597SOL     OW11677   3.128   2.238   1.276
 3597SOL    HW111678   3.159   2.317   1.321
 3597SOL    HW211679   3.037   2.257   1.254
 3598SOL     OW11680   1.933   3.436   1.354
 3598SOL    HW111681   1.904   3.509   1.299
 3598SOL    HW211682   2.029   3.438   1.348
 3599SOL     OW11683   2.216   2.972   0.484
 3599SOL    HW111684   2.202   3.042   0.420
 3599SOL    HW211685   2.212   2.891   0.432
 3600SOL     OW11686   3.105   3.209   0.395
 3600SOL    HW111687   3.162   3.282   0.421
 3600SOL    HW211688   3.018   3.234   0.427
 3601SOL     OW11689   3.148   3.331   1.146
 3601SOL    HW111690   3.198   3.324   1.227
 3601SOL    HW211691   3.093   3.253   1.145
 3602SOL     OW11692   3.441   2.483   0.481
 3602SOL    HW111693   3.398   2.535   0.549
 3602SOL    HW211694   3.479   2.549   0.422
 3603SOL     OW11695   2.207   3.392   1.314
 3603SOL    HW111696   2.195   3.349   1.229
 3603SOL    HW211697   2.302   3.404   1.322
 3604SOL     OW11698   2.221   2.629   1.587
 3604SOL    HW111699   2.276   2.696   1.547
 3604SOL    HW211700   2.283   2.567   1.625
 3605SOL     OW11701   3.463   2.642   1.684
 3605SOL    HW111702   3.377   2.683   1.676
 3605SOL    HW211703   3.516   2.684   1.615
 3606SOL     OW11704   2.861   1.988   1.757
 3606SOL    HW111705   2.918   2.059   1.728
 3606SOL    HW211706   2.906   1.908   1.731
 3607SOL     OW11707   2.358   1.901   1.748
 3607SOL    HW111708   2.315   1.846   1.682
 3607SOL    HW211709   2.299   1.974   1.762
 3608SOL     OW11710   3.222   2.720   1.034
 3608SOL    HW111711   3.154   2.715   0.967
 3608SOL    HW211712   3.264   2.633   1.031
 3609SOL     OW11713   3.060   2.390   0.272
 3609SOL    HW111714   3.064   2.306   0.319
 3609SOL    HW211715   3.068   2.456   0.340
 3610SOL     OW11716   2.156   2.060   1.250
 3610SOL    HW111717   2.113   2.090   1.330
 3610SOL    HW211718   2.141   1.966   1.249
 3611SOL     OW11719   1.907   3.174   1.276
 3611SOL    HW111720   1.940   3.119   1.347
 3611SOL    HW211721   1.914   3.264   1.309
 3612SOL     OW11722   3.598   2.821   1.853
 3612SOL    HW111723   3.552   2.758   1.798
 3612SOL    HW211724   3.539   2.838   1.926
 3613SOL     OW11725   2.166   1.929   0.624
 3613SOL    HW111726   2.144   2.018   0.650
 3613SOL    HW211727   2.174   1.881   0.707
 3614SOL     OW11728   3.485   2.237   0.368
 3614SOL    HW111729   3.509   2.172   0.434
 3614SOL    HW211730   3.459   2.314   0.419
 3615SOL     OW11731   2.844   3.427   1.715
 3615SOL    HW111732   2.828   3.473   1.633
 3615SOL    HW211733   2.888   3.346   1.690
 3616SOL     OW11734   3.716   3.367   1.605
 3616SOL    HW111735   3.735   3.393   1.515
 3616SOL    HW211736   3.797   3.384   1.653
 3617SOL     OW11737   2.207   2.801   1.813
 3617SOL    HW111738   2.285   2.808   1.868
 3617SOL    HW211739   2.221   2.721   1.763
 3618SOL     OW11740   3.376   2.166   0.127
 3618SOL    HW111741   3.330   2.084   0.142
 3618SOL    HW211742   3.418   2.185   0.211
 3619SOL     OW11743   3.157   2.682   0.033
 3619SOL    HW111744   3.198   2.595   0.037
 3619SOL    HW211745   3.212   2.731   8.052
 3620SOL     OW11746   2.924   3.231   0.855
 3620SOL    HW111747   2.952   3.152   0.808
 3620SOL    HW211748   2.988   3.298   0.831
 3621SOL     OW11749   2.156   2.688   0.960
 3621SOL    HW111750   2.243   2.693   0.920
 3621SOL    HW211751   2.152   2.599   0.995
 3622SOL     OW11752   2.155   2.374   1.015
 3622SOL    HW111753   2.132   2.282   1.003
 3622SOL    HW211754   2.216   2.394   0.944
 3623SOL     OW11755   3.001   2.230   1.684
 3623SOL    HW111756   2.948   2.300   1.723
 3623SOL    HW211757   3.089   2.267   1.677
 3624SOL     OW11758   3.024   2.062   1.469
 3624SOL    HW111759   3.014   2.124   1.540
 3624SOL    HW211760   3.060   2.113   1.397
 3625SOL     OW11761   1.875   3.186   0.190
 3625SOL    HW111762   1.788   3.200   0.152
 3625SOL    HW211763   1.873   3.096   0.222
 3626SOL     OW11764   1.952   3.648   0.938
 3626SOL    HW111765   1.922   3.569   0.894
 3626SOL    HW211766   2.042   3.661   0.907
 3627SOL     OW11767   2.358   3.435   0.904
 3627SOL    HW111768   2.427   3.497   0.930
 3627SOL    HW211769   2.403   3.371   0.850
 3628SOL     OW11770   1.895   2.406   1.117
 3628SOL    HW111771   1.978   2.398   1.070
 3628SOL    HW211772   1.920   2.411   1.209
 3629SOL     OW11773   2.058   2.379   1.724
 3629SOL    HW111774   2.098   2.339   1.648
 3629SOL    HW211775   2.008   2.453   1.689
 3630SOL     OW11776   3.234   2.799   1.657
 3630SOL    HW111777   3.258   2.892   1.658
 3630SOL    HW211778   3.238   2.774   1.565
 3631SOL     OW11779   3.504   2.465   1.184
 3631SOL    HW111780   3.490   2.408   1.259
 3631SOL    HW211781   3.591   2.443   1.152
 3632SOL     OW11782   2.105   3.413   1.727
 3632SOL    HW111783   2.081   3.477   1.794
 3632SOL    HW211784   2.106   3.330   1.774
 3633SOL     OW11785   2.785   3.543   1.470
 3633SOL    HW111786   2.766   3.503   1.385
 3633SOL    HW211787   2.781   3.637   1.454
 3634SOL     OW11788   2.005   3.006   1.475
 3634SOL    HW111789   2.006   2.954   1.555
 3634SOL    HW211790   2.017   2.943   1.404
 3635SOL     OW11791   3.185   2.910   1.223
 3635SOL    HW111792   3.207   2.846   1.156
 3635SOL    HW211793   3.126   2.972   1.180
 3636SOL     OW11794   3.191   2.687   0.308
 3636SOL    HW111795   3.110   2.712   0.352
 3636SOL    HW211796   3.168   2.685   0.215
 3637SOL     OW11797   3.634   3.605   1.151
 3637SOL    HW111798   3.695   3.631   1.081
 3637SOL    HW211799   3.610   3.515   1.129
 3638SOL     OW11800   3.103   3.598   1.111
 3638SOL    HW111801   3.185   3.618   1.067
 3638SOL    HW211802   3.109   3.505   1.131
 3639SOL     OW11803   1.946   3.130   1.011
 3639SOL    HW111804   1.931   3.142   1.105
 3639SOL    HW211805   1.874   3.073   0.983
 3640SOL     OW11806   2.540   3.528   1.729
 3640SOL    HW111807   2.485   3.607   1.724
 3640SOL    HW211808   2.607   3.541   1.662
 3641SOL     OW11809   2.768   1.951   0.132
 3641SOL    HW111810   2.782   1.934   0.039
 3641SOL    HW211811   2.834   1.898   0.176
 3642SOL     OW11812   3.581   2.008   0.509
 3642SOL    HW111813   3.653   1.992   0.448
 3642SOL    HW211814   3.566   1.924   0.551
 3643SOL     OW11815   3.250   3.429   0.484
 3643SOL    HW111816   3.315   3.463   0.422
 3643SOL    HW211817   3.204   3.507   0.515
 3644SOL     OW11818   1.999   3.659   1.843
 3644SOL    HW111819   1.948   3.593   1.891
 3644SOL    HW211820   2.047   3.706   1.911
 3645SOL     OW11821   3.160   2.793   0.667
 3645SOL    HW111822   3.222   2.721   0.673
 3645SOL    HW211823   3.203   2.857   0.609
 3646SOL     OW11824   2.677   3.151   1.426
 3646SOL    HW111825   2.640   3.189   1.507
 3646SOL    HW211826   2.601   3.142   1.368
 3647SOL     OW11827   2.539   3.483   0.155
 3647SOL    HW111828   2.545   3.491   0.059
 3647SOL    HW211829   2.475   3.414   0.169
 3648SOL     OW11830   3.487   3.589   1.391
 3648SOL    HW111831   3.537   3.595   1.310
 3648SOL    HW211832   3.473   3.679   1.418
 3649SOL     OW11833   3.703   2.035   0.966
 3649SOL    HW111834   3.732   1.947   0.940
 3649SOL    HW211835   3.616   2.044   0.927
 3650SOL     OW11836   2.120   2.180   0.723
 3650SOL    HW111837   2.032   2.211   0.700
 3650SOL    HW211838   2.114   2.159   0.817
 3651SOL     OW11839   3.019   3.442   0.051
 3651SOL    HW111840   3.035   3.349   0.069
 3651SOL    HW211841   3.030   3.450   8.036
 3652SOL     OW11842   3.372   3.485   0.061
 3652SOL    HW111843   3.277   3.487   0.048
 3652SOL    HW211844   3.408   3.489   8.052
 3653SOL     OW11845   2.229   3.166   1.489
 3653SOL    HW111846   2.217   3.242   1.432
 3653SOL    HW211847   2.152   3.112   1.474
 3654SOL     OW11848   3.472   3.145   1.280
 3654SOL    HW111849   3.532   3.133   1.353
 3654SOL    HW211850   3.412   3.213   1.309
 3655SOL     OW11851   2.985   3.002   0.730
 3655SOL    HW111852   2.904   2.987   0.683
 3655SOL    HW211853   3.046   2.936   0.697
 3656SOL     OW11854   2.895   2.089   0.962
 3656SOL    HW111855   2.888   2.036   0.882
 3656SOL    HW211856   2.883   2.026   1.033
 3657SOL     OW11857   2.463   3.350   0.476
 3657SOL    HW111858   2.502   3.313   0.397
 3657SOL    HW211859   2.389   3.402   0.444
 3658SOL     OW11860   3.585   2.254   1.381
 3658SOL    HW111861   3.657   2.317   1.379
 3658SOL    HW211862   3.615   2.183   1.324
 3659SOL     OW11863   2.128   3.182   0.304
 3659SOL    HW111864   2.044   3.193   0.260
 3659SOL    HW211865   2.118   3.229   0.387
 3660SOL     OW11866   1.969   2.888   1.718
 3660SOL    HW111867   1.894   2.862   1.772
 3660SOL    HW211868   2.045   2.854   1.765
 3661SOL     OW11869   2.533   2.055   1.497
 3661SOL    HW111870   2.616   2.040   1.453
 3661SOL    HW211871   2.557   2.088   1.584
 3662SOL     OW11872   1.921   2.215   0.046
 3662SOL    HW111873   1.844   2.171   0.010
 3662SOL    HW211874   1.974   2.238   8.049
 3663SOL     OW11875   3.290   2.725   1.401
 3663SOL    HW111876   3.243   2.786   1.344
 3663SOL    HW211877   3.379   2.723   1.367
 3664SOL     OW11878   1.934   2.016   0.302
 3664SOL    HW111879   1.915   2.099   0.258
 3664SOL    HW211880   2.016   1.986   0.264
 3665SOL     OW11881   3.048   3.176   0.120
 3665SOL    HW111882   2.953   3.171   0.113
 3665SOL    HW211883   3.065   3.184   0.214
 3666SOL     OW11884   3.346   3.639   0.977
 3666SOL    HW111885   3.370   3.702   0.909
 3666SOL    HW211886   3.428   3.620   1.023
 3667SOL     OW11887   3.335   3.059   1.631
 3667SOL    HW111888   3.323   3.074   1.725
 3667SOL    HW211889   3.428   3.076   1.616
 3668SOL     OW11890   2.240   3.601   1.565
 3668SOL    HW111891   2.155   3.644   1.550
 3668SOL    HW211892   2.218   3.518   1.606
 3669SOL     OW11893   3.530   2.743   1.256
 3669SOL    HW111894   3.524   2.657   1.213
 3669SOL    HW211895   3.520   2.806   1.184
 3670SOL     OW11896   3.079   2.179   0.457
 3670SOL    HW111897   3.143   2.108   0.449
 3670SOL    HW211898   3.106   2.226   0.536
 3671SOL     OW11899   3.623   2.224   1.651
 3671SOL    HW111900   3.607   2.239   1.558
 3671SOL    HW211901   3.552   2.167   1.679
 3672SOL     OW11902   3.607   2.795   1.512
 3672SOL    HW111903   3.603   2.890   1.525
 3672SOL    HW211904   3.591   2.783   1.419
 3673SOL     OW11905   2.760   3.239   0.038
 3673SOL    HW111906   2.698   3.230   0.111
 3673SOL    HW211907   2.739   3.324   8.079
 3674SOL     OW11908   2.522   3.653   0.943
 3674SOL    HW111909   2.504   3.744   0.921
 3674SOL    HW211910   2.617   3.645   0.937
 3675SOL     OW11911   3.715   3.415   0.844
 3675SOL    HW111912   3.636   3.405   0.791
 3675SOL    HW211913   3.705   3.351   0.914
 3676SOL     OW11914   2.083   3.165   1.856
 3676SOL    HW111915   2.017   3.102   1.826
 3676SOL    HW211916   2.064   3.177   1.949
 3677SOL     OW11917   1.946   3.094   0.667
 3677SOL    HW111918   1.952   3.046   0.749
 3677SOL    HW211919   2.019   3.061   0.614
 3678SOL     OW11920   2.545   3.263   1.636
 3678SOL    HW111921   2.460   3.225   1.659
 3678SOL    HW211922   2.540   3.354   1.667
 3679SOL     OW11923   3.675   2.046   1.237
 3679SOL    HW111924   3.684   1.952   1.251
 3679SOL    HW211925   3.684   2.057   1.142
 3680SOL     OW11926   2.268   2.278   0.520
 3680SOL    HW111927   2.285   2.203   0.463
 3680SOL    HW211928   2.217   2.241   0.593
 3681SOL     OW11929   3.563   3.350   1.094
 3681SOL    HW111930   3.481   3.328   1.049
 3681SOL    HW211931   3.573   3.282   1.160
 3682SOL     OW11932   2.179   2.408   1.295
 3682SOL    HW111933   2.225   2.343   1.347
 3682SOL    HW211934   2.184   2.375   1.205
 3683SOL     OW11935   2.690   3.441   0.674
 3683SOL    HW111936   2.672   3.497   0.598
 3683SOL    HW211937   2.614   3.383   0.680
 3684SOL     OW11938   3.295   2.089   1.119
 3684SOL    HW111939   3.317   2.008   1.166
 3684SOL    HW211940   3.243   2.139   1.181
 3685SOL     OW11941   2.869   1.876   1.142
 3685SOL    HW111942   2.817   1.808   1.100
 3685SOL    HW211943   2.958   1.840   1.144
 3686SOL     OW11944   2.646   3.191   0.299
 3686SOL    HW111945   2.595   3.120   0.340
 3686SOL    HW211946   2.715   3.210   0.361
 3687SOL     OW11947   2.481   3.421   1.285
 3687SOL    HW111948   2.484   3.503   1.334
 3687SOL    HW211949   2.569   3.410   1.249
 3688SOL     OW11950   3.218   1.916   0.185
 3688SOL    HW111951   3.239   1.869   0.104
 3688SOL    HW211952   3.132   1.883   0.211
 3689SOL     OW11953   3.162   2.317   0.682
 3689SOL    HW111954   3.112   2.397   0.698
 3689SOL    HW211955   3.161   2.270   0.765
 3690SOL     OW11956   3.448   2.062   0.879
 3690SOL    HW111957   3.389   2.083   0.951
 3690SOL    HW211958   3.447   2.140   0.824
 3691SOL     OW11959   1.906   2.929   0.304
 3691SOL    HW111960   2.002   2.925   0.300
 3691SOL    HW211961   1.880   2.846   0.342
 3692SOL     OW11962   2.745   3.516   0.347
 3692SOL    HW111963   2.678   3.502   0.280
 3692SOL    HW211964   2.715   3.592   0.397
 3693SOL     OW11965   2.080   2.514   1.979
 3693SOL    HW111966   2.001   2.483   2.023
 3693SOL    HW211967   2.081   2.466   1.896
 3694SOL     OW11968   2.091   2.069   2.838
 3694SOL    HW111969   2.121   2.050   2.927
 3694SOL    HW211970   1.996   2.057   2.841
 3695SOL     OW11971   1.867   2.236   2.512
 3695SOL    HW111972   1.783   2.268   2.545
 3695SOL    HW211973   1.844   2.163   2.454
 3696SOL     OW11974   3.424   3.374   2.569
 3696SOL    HW111975   3.381   3.355   2.652
 3696SOL    HW211976   3.352   3.380   2.506
 3697SOL     OW11977   3.064   2.538   2.619
 3697SOL    HW111978   3.066   2.630   2.591
 3697SOL    HW211979   2.973   2.522   2.643
 3698SOL     OW11980   3.632   2.467   2.089
 3698SOL    HW111981   3.609   2.459   1.996
 3698SOL    HW211982   3.594   2.388   2.129
 3699SOL     OW11983   2.175   3.300   2.944
 3699SOL    HW111984   2.118   3.261   2.878
 3699SOL    HW211985   2.241   3.348   2.893
 3700SOL     OW11986   3.477   2.306   2.596
 3700SOL    HW111987   3.399   2.324   2.543
 3700SOL    HW211988   3.492   2.387   2.644
 3701SOL     OW11989   2.081   3.576   2.333
 3701SOL    HW111990   2.102   3.652   2.388
 3701SOL    HW211991   2.156   3.570   2.273
 3702SOL     OW11992   2.091   3.304   2.397
 3702SOL    HW111993   2.076   3.398   2.401
 3702SOL    HW211994   2.032   3.268   2.464
 3703SOL     OW11995   2.110   2.964   2.739
 3703SOL    HW111996   2.107   2.879   2.781
 3703SOL    HW211997   2.058   3.021   2.796
 3704SOL     OW11998   2.485   3.649   3.312
 3704SOL    HW111999   2.394   3.630   3.334
 3704SOL    HW212000   2.497   3.741   3.333
 3705SOL     OW12001   2.418   2.853   1.985
 3705SOL    HW112002   2.460   2.919   1.930
 3705SOL    HW212003   2.488   2.825   2.046
 3706SOL     OW12004   3.449   1.991   3.320
 3706SOL    HW112005   3.486   2.071   3.282
 3706SOL    HW212006   3.450   2.006   3.414
 3707SOL     OW12007   1.947   2.514   2.421
 3707SOL    HW112008   1.949   2.421   2.445
 3707SOL    HW212009   1.960   2.560   2.504
 3708SOL     OW12010   3.704   3.620   2.197
 3708SOL    HW112011   3.770   3.592   2.260
 3708SOL    HW212012   3.727   3.711   2.177
 3709SOL     OW12013   1.895   3.456   1.985
 3709SOL    HW112014   1.877   3.364   2.005
 3709SOL    HW212015   1.871   3.503   2.065
 3710SOL     OW12016   3.556   2.788   2.505
 3710SOL    HW112017   3.637   2.742   2.484
 3710SOL    HW212018   3.533   2.833   2.424
 3711SOL     OW12019   3.508   2.969   2.290
 3711SOL    HW112020   3.594   2.973   2.248
 3711SOL    HW212021   3.515   3.031   2.364
 3712SOL     OW12022   2.481   3.244   2.597
 3712SOL    HW112023   2.434   3.161   2.606
 3712SOL    HW212024   2.460   3.274   2.509
 3713SOL     OW12025   2.676   1.859   2.369
 3713SOL    HW112026   2.718   1.943   2.349
 3713SOL    HW212027   2.583   1.880   2.380
 3714SOL     OW12028   3.399   2.861   2.059
 3714SOL    HW112029   3.333   2.797   2.087
 3714SOL    HW212030   3.437   2.893   2.140
 3715SOL     OW12031   3.052   3.679   3.490
 3715SOL    HW112032   3.054   3.729   3.408
 3715SOL    HW212033   3.013   3.595   3.467
 3716SOL     OW12034   3.332   3.278   2.816
 3716SOL    HW112035   3.262   3.289   2.880
 3716SOL    HW212036   3.320   3.190   2.782
 3717SOL     OW12037   3.519   3.604   2.440
 3717SOL    HW112038   3.501   3.574   2.351
 3717SOL    HW212039   3.496   3.530   2.496
 3718SOL     OW12040   3.163   2.210   2.796
 3718SOL    HW112041   3.072   2.183   2.783
 3718SOL    HW212042   3.196   2.151   2.864
 3719SOL     OW12043   3.443   3.532   2.171
 3719SOL    HW112044   3.533   3.563   2.164
 3719SOL    HW212045   3.415   3.516   2.081
 3720SOL     OW12046   1.945   2.681   2.641
 3720SOL    HW112047   2.029   2.682   2.687
 3720SOL    HW212048   1.900   2.760   2.671
 3721SOL     OW12049   1.976   3.743   3.448
 3721SOL    HW112050   1.985   3.714   3.539
 3721SOL    HW212051   1.887   3.718   3.424
 3722SOL     OW12052   2.745   2.184   2.064
 3722SOL    HW112053   2.778   2.270   2.037
 3722SOL    HW212054   2.788   2.122   2.005
 3723SOL     OW12055   3.236   3.001   2.392
 3723SOL    HW112056   3.319   2.992   2.345
 3723SOL    HW212057   3.188   3.069   2.344
 3724SOL     OW12058   2.417   2.031   2.732
 3724SOL    HW112059   2.394   2.051   2.823
 3724SOL    HW212060   2.411   2.115   2.687
 3725SOL     OW12061   2.864   3.304   2.338
 3725SOL    HW112062   2.831   3.377   2.285
 3725SOL    HW212063   2.843   3.329   2.428
 3726SOL     OW12064   2.217   3.671   2.723
 3726SOL    HW112065   2.256   3.584   2.735
 3726SOL    HW212066   2.289   3.731   2.744
 3727SOL     OW12067   3.662   2.919   2.731
 3727SOL    HW112068   3.608   2.898   2.655
 3727SOL    HW212069   3.600   2.925   2.804
 3728SOL     OW12070   2.175   2.815   2.119
 3728SOL    HW112071   2.253   2.837   2.067
 3728SOL    HW212072   2.145   2.731   2.082
 3729SOL     OW12073   3.360   2.597   2.573
 3729SOL    HW112074   3.336   2.554   2.655
 3729SOL    HW212075   3.430   2.658   2.596
 3730SOL     OW12076   2.985   3.639   2.093
 3730SOL    HW112077   2.910   3.599   2.137
 3730SOL    HW212078   3.007   3.577   2.023
 3731SOL     OW12079   3.490   3.242   1.951
 3731SOL    HW112080   3.450   3.328   1.935
 3731SOL    HW212081   3.422   3.179   1.930
 3732SOL     OW12082   2.328   3.598   2.183
 3732SOL    HW112083   2.370   3.656   2.247
 3732SOL    HW212084   2.399   3.568   2.127
 3733SOL     OW12085   3.263   1.970   2.296
 3733SOL    HW112086   3.253   1.943   2.204
 3733SOL    HW212087   3.357   1.975   2.310
 3734SOL     OW12088   2.797   3.563   2.759
 3734SOL    HW112089   2.864   3.505   2.794
 3734SOL    HW212090   2.755   3.513   2.689
 3735SOL     OW12091   3.434   2.030   3.596
 3735SOL    HW112092   3.435   2.055   3.688
 3735SOL    HW212093   3.362   1.967   3.589
 3736SOL     OW12094   2.494   1.990   1.965
 3736SOL    HW112095   2.563   1.927   1.983
 3736SOL    HW212096   2.448   1.954   1.889
 3737SOL     OW12097   2.765   3.393   3.038
 3737SOL    HW112098   2.731   3.364   2.954
 3737SOL    HW212099   2.758   3.316   3.094
 3738SOL     OW12100   2.677   3.267   2.807
 3738SOL    HW112101   2.760   3.243   2.766
 3738SOL    HW212102   2.611   3.254   2.739
 3739SOL     OW12103   2.874   2.319   2.733
 3739SOL    HW112104   2.817   2.335   2.657
 3739SOL    HW212105   2.834   2.243   2.777
 3740SOL     OW12106   2.412   1.920   2.368
 3740SOL    HW112107   2.330   1.923   2.418
 3740SOL    HW212108   2.406   1.996   2.309
 3741SOL     OW12109   3.290   3.062   1.901
 3741SOL    HW112110   3.321   2.987   1.952
 3741SOL    HW212111   3.205   3.083   1.940
 3742SOL     OW12112   2.153   1.910   2.047
 3742SOL    HW112113   2.212   1.972   2.005
 3742SOL    HW212114   2.211   1.846   2.089
 3743SOL     OW12115   2.800   2.098   2.316
 3743SOL    HW112116   2.774   2.132   2.230
 3743SOL    HW212117   2.895   2.115   2.320
 3744SOL     OW12118   2.936   2.410   3.244
 3744SOL    HW112119   2.871   2.427   3.312
 3744SOL    HW212120   3.018   2.445   3.279
 3745SOL     OW12121   3.097   3.429   2.653
 3745SOL    HW112122   3.101   3.497   2.586
 3745SOL    HW212123   3.161   3.455   2.719
 3746SOL     OW12124   2.338   3.007   2.597
 3746SOL    HW112125   2.262   2.995   2.654
 3746SOL    HW212126   2.305   2.988   2.509
 3747SOL     OW12127   3.129   3.655   2.471
 3747SOL    HW112128   3.176   3.716   2.415
 3747SOL    HW212129   3.062   3.708   2.514
 3748SOL     OW12130   2.376   2.054   2.995
 3748SOL    HW112131   2.430   1.979   3.022
 3748SOL    HW212132   2.353   2.097   3.077
 3749SOL     OW12133   2.751   2.297   2.488
 3749SOL    HW112134   2.713   2.364   2.430
 3749SOL    HW212135   2.762   2.220   2.432
 3750SOL     OW12136   2.900   1.900   2.596
 3750SOL    HW112137   2.827   1.908   2.534
 3750SOL    HW212138   2.867   1.841   2.664
 3751SOL     OW12139   3.301   3.030   2.696
 3751SOL    HW112140   3.253   2.948   2.684
 3751SOL    HW212141   3.341   3.047   2.611
 3752SOL     OW12142   3.330   2.445   2.809
 3752SOL    HW112143   3.269   2.372   2.806
 3752SOL    HW212144   3.399   2.416   2.868
 3753SOL     OW12145   3.705   2.677   2.245
 3753SOL    HW112146   3.763   2.627   2.303
 3753SOL    HW212147   3.679   2.615   2.178
 3754SOL     OW12148   2.354   3.277   2.019
 3754SOL    HW112149   2.278   3.251   2.070
 3754SOL    HW212150   2.340   3.237   1.933
 3755SOL     OW12151   3.530   3.127   2.507
 3755SOL    HW112152   3.625   3.126   2.521
 3755SOL    HW212153   3.503   3.216   2.527
 3756SOL     OW12154   3.255   2.427   1.932
 3756SOL    HW112155   3.191   2.408   2.001
 3756SOL    HW212156   3.338   2.396   1.967
 3757SOL     OW12157   2.396   2.115   2.185
 3757SOL    HW112158   2.433   2.075   2.106
 3757SOL    HW212159   2.395   2.209   2.166
 3758SOL     OW12160   3.625   3.119   3.396
 3758SOL    HW112161   3.705   3.067   3.402
 3758SOL    HW212162   3.644   3.198   3.446
 3759SOL     OW12163   3.499   3.528   3.532
 3759SOL    HW112164   3.484   3.551   3.441
 3759SOL    HW212165   3.576   3.471   3.530
 3760SOL     OW12166   3.495   2.965   2.943
 3760SOL    HW112167   3.491   3.028   3.015
 3760SOL    HW212168   3.405   2.959   2.911
 3761SOL     OW12169   2.919   2.998   3.603
 3761SOL    HW112170   2.851   3.065   3.602
 3761SOL    HW212171   2.962   3.006   3.518
 3762SOL     OW12172   2.224   2.971   2.347
 3762SOL    HW112173   2.210   3.047   2.290
 3762SOL    HW212174   2.207   2.895   2.290
 3763SOL     OW12175   3.107   3.212   2.252
 3763SOL    HW112176   3.164   3.284   2.280
 3763SOL    HW212177   3.021   3.235   2.285
 3764SOL     OW12178   3.137   3.313   3.011
 3764SOL    HW112179   3.153   3.325   3.105
 3764SOL    HW212180   3.055   3.264   3.007
 3765SOL     OW12181   3.441   2.482   2.335
 3765SOL    HW112182   3.404   2.530   2.409
 3765SOL    HW212183   3.489   2.549   2.285
 3766SOL     OW12184   2.367   2.836   2.910
 3766SOL    HW112185   2.434   2.876   2.855
 3766SOL    HW212186   2.412   2.766   2.957
 3767SOL     OW12187   3.260   2.696   2.872
 3767SOL    HW112188   3.181   2.709   2.818
 3767SOL    HW212189   3.284   2.605   2.857
 3768SOL     OW12190   3.073   2.382   2.135
 3768SOL    HW112191   3.075   2.301   2.187
 3768SOL    HW212192   3.065   2.451   2.200
 3769SOL     OW12193   1.912   3.198   3.141
 3769SOL    HW112194   1.948   3.123   3.189
 3769SOL    HW212195   1.985   3.260   3.137
 3770SOL     OW12196   2.165   1.928   2.486
 3770SOL    HW112197   2.142   2.017   2.513
 3770SOL    HW212198   2.172   1.880   2.569
 3771SOL     OW12199   3.479   2.235   2.227
 3771SOL    HW112200   3.507   2.172   2.294
 3771SOL    HW212201   3.456   2.314   2.276
 3772SOL     OW12202   3.720   3.374   3.472
 3772SOL    HW112203   3.735   3.396   3.380
 3772SOL    HW212204   3.805   3.390   3.515
 3773SOL     OW12205   3.390   2.134   1.989
 3773SOL    HW112206   3.326   2.069   2.016
 3773SOL    HW212207   3.424   2.170   2.071
 3774SOL     OW12208   3.184   2.690   1.905
 3774SOL    HW112209   3.215   2.600   1.897
 3774SOL    HW212210   3.199   2.729   1.819
 3775SOL     OW12211   2.925   3.214   2.706
 3775SOL    HW112212   2.951   3.134   2.660
 3775SOL    HW212213   2.989   3.279   2.678
 3776SOL     OW12214   2.163   2.686   2.805
 3776SOL    HW112215   2.239   2.738   2.831
 3776SOL    HW212216   2.174   2.603   2.851
 3777SOL     OW12217   1.867   3.182   2.057
 3777SOL    HW112218   1.781   3.197   2.020
 3777SOL    HW212219   1.864   3.093   2.091
 3778SOL     OW12220   1.949   3.653   2.796
 3778SOL    HW112221   1.920   3.571   2.754
 3778SOL    HW212222   2.042   3.660   2.773
 3779SOL     OW12223   2.355   3.434   2.770
 3779SOL    HW112224   2.422   3.494   2.802
 3779SOL    HW212225   2.403   3.370   2.717
 3780SOL     OW12226   1.874   2.420   2.981
 3780SOL    HW112227   1.919   2.364   2.918
 3780SOL    HW212228   1.941   2.439   3.048
 3781SOL     OW12229   2.069   3.432   3.609
 3781SOL    HW112230   2.049   3.516   3.652
 3781SOL    HW212231   2.114   3.381   3.676
 3782SOL     OW12232   2.825   3.565   3.296
 3782SOL    HW112233   2.783   3.530   3.217
 3782SOL    HW212234   2.787   3.652   3.307
 3783SOL     OW12235   3.182   2.716   2.171
 3783SOL    HW112236   3.093   2.723   2.205
 3783SOL    HW212237   3.171   2.704   2.077
 3784SOL     OW12238   3.631   3.608   3.009
 3784SOL    HW112239   3.694   3.632   2.941
 3784SOL    HW212240   3.609   3.517   2.990
 3785SOL     OW12241   3.105   3.596   2.974
 3785SOL    HW112242   3.187   3.618   2.930
 3785SOL    HW212243   3.109   3.501   2.985
 3786SOL     OW12244   1.934   3.138   2.867
 3786SOL    HW112245   1.915   3.157   2.958
 3786SOL    HW212246   1.862   3.080   2.840
 3787SOL     OW12247   2.563   3.605   3.609
 3787SOL    HW112248   2.488   3.663   3.597
 3787SOL    HW212249   2.575   3.563   3.524
 3788SOL     OW12250   3.582   2.010   2.371
 3788SOL    HW112251   3.654   1.995   2.310
 3788SOL    HW212252   3.566   1.924   2.411
 3789SOL     OW12253   3.252   3.430   2.346
 3789SOL    HW112254   3.313   3.463   2.280
 3789SOL    HW212255   3.204   3.507   2.375
 3790SOL     OW12256   1.991   3.670   3.713
 3790SOL    HW112257   1.937   3.607   3.761
 3790SOL    HW212258   2.040   3.717   3.781
 3791SOL     OW12259   3.167   2.794   2.556
 3791SOL    HW112260   3.235   2.728   2.540
 3791SOL    HW212261   3.186   2.863   2.491
 3792SOL     OW12262   2.532   3.483   2.017
 3792SOL    HW112263   2.543   3.496   1.922
 3792SOL    HW212264   2.477   3.405   2.024
 3793SOL     OW12265   3.503   3.593   3.260
 3793SOL    HW112266   3.540   3.596   3.172
 3793SOL    HW212267   3.480   3.683   3.279
 3794SOL     OW12268   3.705   2.035   2.821
 3794SOL    HW112269   3.733   1.947   2.796
 3794SOL    HW212270   3.618   2.044   2.782
 3795SOL     OW12271   2.124   2.178   2.595
 3795SOL    HW112272   2.036   2.208   2.571
 3795SOL    HW212273   2.114   2.144   2.684
 3796SOL     OW12274   3.069   3.466   1.893
 3796SOL    HW112275   3.060   3.373   1.916
 3796SOL    HW212276   3.005   3.480   1.824
 3797SOL     OW12277   3.353   3.487   1.905
 3797SOL    HW112278   3.259   3.481   1.890
 3797SOL    HW212279   3.390   3.494   1.817
 3798SOL     OW12280   3.483   3.145   3.148
 3798SOL    HW112281   3.544   3.117   3.217
 3798SOL    HW212282   3.436   3.220   3.186
 3799SOL     OW12283   2.462   3.353   2.344
 3799SOL    HW112284   2.509   3.309   2.273
 3799SOL    HW212285   2.391   3.400   2.301
 3800SOL     OW12286   3.628   2.217   3.272
 3800SOL    HW112287   3.666   2.300   3.246
 3800SOL    HW212288   3.646   2.158   3.199
 3801SOL     OW12289   2.122   3.206   2.152
 3801SOL    HW112290   2.029   3.203   2.128
 3801SOL    HW212291   2.123   3.244   2.240
 3802SOL     OW12292   1.942   2.194   1.896
 3802SOL    HW112293   1.852   2.177   1.867
 3802SOL    HW212294   1.970   2.270   1.844
 3803SOL     OW12295   1.929   2.017   2.172
 3803SOL    HW112296   1.916   2.099   2.125
 3803SOL    HW212297   2.014   1.985   2.141
 3804SOL     OW12298   3.038   3.194   1.977
 3804SOL    HW112299   2.942   3.188   1.978
 3804SOL    HW212300   3.063   3.198   2.070
 3805SOL     OW12301   3.347   3.636   2.841
 3805SOL    HW112302   3.368   3.699   2.771
 3805SOL    HW212303   3.430   3.621   2.885
 3806SOL     OW12304   3.572   2.741   3.097
 3806SOL    HW112305   3.491   2.689   3.093
 3806SOL    HW212306   3.553   2.821   3.049
 3807SOL     OW12307   3.077   2.176   2.320
 3807SOL    HW112308   3.139   2.104   2.310
 3807SOL    HW212309   3.106   2.222   2.399
 3808SOL     OW12310   3.631   2.207   3.540
 3808SOL    HW112311   3.629   2.226   3.446
 3808SOL    HW212312   3.561   2.144   3.553
 3809SOL     OW12313   2.753   3.231   1.906
 3809SOL    HW112314   2.693   3.257   1.976
 3809SOL    HW212315   2.755   3.306   1.847
 3810SOL     OW12316   2.522   3.656   2.800
 3810SOL    HW112317   2.505   3.748   2.777
 3810SOL    HW212318   2.617   3.648   2.797
 3811SOL     OW12319   3.716   3.416   2.706
 3811SOL    HW112320   3.637   3.403   2.653
 3811SOL    HW212321   3.713   3.346   2.771
 3812SOL     OW12322   1.944   3.094   2.527
 3812SOL    HW112323   1.956   3.049   2.610
 3812SOL    HW212324   2.012   3.058   2.470
 3813SOL     OW12325   3.678   2.031   3.090
 3813SOL    HW112326   3.684   1.936   3.096
 3813SOL    HW212327   3.687   2.050   2.997
 3814SOL     OW12328   2.230   2.255   2.360
 3814SOL    HW112329   2.276   2.178   2.326
 3814SOL    HW212330   2.201   2.229   2.448
 3815SOL     OW12331   3.560   3.353   2.961
 3815SOL    HW112332   3.484   3.326   2.910
 3815SOL    HW212333   3.577   3.279   3.020
 3816SOL     OW12334   2.693   3.439   2.536
 3816SOL    HW112335   2.668   3.494   2.462
 3816SOL    HW212336   2.617   3.381   2.549
 3817SOL     OW12337   3.298   2.076   2.988
 3817SOL    HW112338   3.332   1.988   3.005
 3817SOL    HW212339   3.280   2.112   3.075
 3818SOL     OW12340   2.634   3.208   2.176
 3818SOL    HW112341   2.606   3.117   2.165
 3818SOL    HW212342   2.718   3.202   2.223
 3819SOL     OW12343   2.497   3.480   3.095
 3819SOL    HW112344   2.501   3.532   3.175
 3819SOL    HW212345   2.585   3.445   3.084
 3820SOL     OW12346   3.214   1.915   2.028
 3820SOL    HW112347   3.244   1.850   1.964
 3820SOL    HW212348   3.127   1.886   2.053
 3821SOL     OW12349   3.174   2.306   2.540
 3821SOL    HW112350   3.136   2.392   2.556
 3821SOL    HW212351   3.171   2.263   2.626
 3822SOL     OW12352   3.450   2.063   2.738
 3822SOL    HW112353   3.385   2.086   2.805
 3822SOL    HW212354   3.451   2.139   2.680
 3823SOL     OW12355   1.907   2.933   2.169
 3823SOL    HW112356   1.999   2.921   2.148
 3823SOL    HW212357   1.876   2.845   2.191
 3824SOL     OW12358   2.749   3.515   2.202
 3824SOL    HW112359   2.676   3.498   2.143
 3824SOL    HW212360   2.720   3.589   2.256
 3825SOL     OW12361   2.093   2.454   3.876
 3825SOL    HW112362   2.004   2.468   3.909
 3825SOL    HW212363   2.083   2.454   3.781
 3826SOL     OW12364   3.437   3.384   4.436
 3826SOL    HW112365   3.390   3.373   4.518
 3826SOL    HW212366   3.368   3.402   4.371
 3827SOL     OW12367   3.630   2.462   3.938
 3827SOL    HW112368   3.576   2.458   3.859
 3827SOL    HW212369   3.602   2.387   3.990
 3828SOL     OW12370   2.540   3.035   5.558
 3828SOL    HW112371   2.612   3.097   5.545
 3828SOL    HW212372   2.469   3.069   5.502
 3829SOL     OW12373   3.323   3.365   5.075
 3829SOL    HW112374   3.376   3.444   5.083
 3829SOL    HW212375   3.261   3.370   5.149
 3830SOL     OW12376   2.299   2.209   5.279
 3830SOL    HW112377   2.368   2.155   5.241
 3830SOL    HW212378   2.219   2.179   5.238
 3831SOL     OW12379   2.084   3.568   4.197
 3831SOL    HW112380   2.103   3.646   4.250
 3831SOL    HW212381   2.156   3.565   4.134
 3832SOL     OW12382   2.991   3.195   5.410
 3832SOL    HW112383   3.033   3.189   5.496
 3832SOL    HW212384   2.941   3.114   5.402
 3833SOL     OW12385   2.071   3.285   4.212
 3833SOL    HW112386   2.070   3.380   4.211
 3833SOL    HW212387   2.031   3.261   4.296
 3834SOL     OW12388   2.478   3.659   5.167
 3834SOL    HW112389   2.393   3.641   5.207
 3834SOL    HW212390   2.496   3.751   5.188
 3835SOL     OW12391   3.458   1.984   5.193
 3835SOL    HW112392   3.472   2.063   5.140
 3835SOL    HW212393   3.444   2.017   5.282
 3836SOL     OW12394   3.709   3.620   4.053
 3836SOL    HW112395   3.771   3.593   4.121
 3836SOL    HW212396   3.730   3.712   4.037
 3837SOL     OW12397   1.879   3.461   3.848
 3837SOL    HW112398   1.822   3.384   3.847
 3837SOL    HW212399   1.863   3.502   3.932
 3838SOL     OW12400   3.647   2.839   4.335
 3838SOL    HW112401   3.686   2.777   4.274
 3838SOL    HW212402   3.569   2.871   4.290
 3839SOL     OW12403   3.517   2.995   4.141
 3839SOL    HW112404   3.609   2.994   4.116
 3839SOL    HW212405   3.514   3.050   4.219
 3840SOL     OW12406   1.956   2.598   5.316
 3840SOL    HW112407   2.045   2.631   5.329
 3840SOL    HW212408   1.903   2.676   5.302
 3841SOL     OW12409   3.396   2.860   3.943
 3841SOL    HW112410   3.311   2.831   3.975
 3841SOL    HW212411   3.433   2.911   4.015
 3842SOL     OW12412   3.043   3.671   5.348
 3842SOL    HW112413   3.060   3.730   5.275
 3842SOL    HW212414   3.068   3.584   5.315
 3843SOL     OW12415   2.198   2.107   5.553
 3843SOL    HW112416   2.227   2.184   5.505
 3843SOL    HW212417   2.108   2.127   5.579
 3844SOL     OW12418   3.358   3.275   4.687
 3844SOL    HW112419   3.290   3.305   4.748
 3844SOL    HW212420   3.342   3.181   4.678
 3845SOL     OW12421   3.530   3.609   4.298
 3845SOL    HW112422   3.503   3.576   4.213
 3845SOL    HW212423   3.505   3.539   4.359
 3846SOL     OW12424   3.447   3.542   4.026
 3846SOL    HW112425   3.538   3.570   4.020
 3846SOL    HW212426   3.420   3.528   3.935
 3847SOL     OW12427   3.249   2.331   5.402
 3847SOL    HW112428   3.253   2.375   5.487
 3847SOL    HW212429   3.314   2.261   5.409
 3848SOL     OW12430   1.988   3.712   5.302
 3848SOL    HW112431   1.989   3.691   5.396
 3848SOL    HW212432   1.897   3.702   5.276
 3849SOL     OW12433   3.569   2.435   5.553
 3849SOL    HW112434   3.534   2.511   5.507
 3849SOL    HW212435   3.597   2.376   5.483
 3850SOL     OW12436   2.221   3.666   4.593
 3850SOL    HW112437   2.276   3.588   4.590
 3850SOL    HW212438   2.282   3.738   4.612
 3851SOL     OW12439   3.690   2.936   4.587
 3851SOL    HW112440   3.651   2.908   4.504
 3851SOL    HW212441   3.615   2.945   4.646
 3852SOL     OW12442   3.097   3.400   5.243
 3852SOL    HW112443   3.080   3.328   5.303
 3852SOL    HW212444   3.028   3.394   5.177
 3853SOL     OW12445   2.209   2.801   3.997
 3853SOL    HW112446   2.273   2.822   3.930
 3853SOL    HW212447   2.209   2.706   4.002
 3854SOL     OW12448   2.315   3.135   5.434
 3854SOL    HW112449   2.273   3.125   5.349
 3854SOL    HW212450   2.244   3.126   5.498
 3855SOL     OW12451   2.989   3.640   3.946
 3855SOL    HW112452   2.947   3.614   4.028
 3855SOL    HW212453   2.972   3.568   3.886
 3856SOL     OW12454   2.041   2.146   5.243
 3856SOL    HW112455   1.950   2.166   5.220
 3856SOL    HW212456   2.038   2.058   5.280
 3857SOL     OW12457   2.323   3.608   4.042
 3857SOL    HW112458   2.363   3.661   4.111
 3857SOL    HW212459   2.397   3.572   3.994
 3858SOL     OW12460   3.269   1.975   4.159
 3858SOL    HW112461   3.256   1.933   4.074
 3858SOL    HW212462   3.364   1.973   4.172
 3859SOL     OW12463   2.120   3.656   4.954
 3859SOL    HW112464   2.165   3.584   4.999
 3859SOL    HW212465   2.109   3.624   4.864
 3860SOL     OW12466   2.815   3.592   4.640
 3860SOL    HW112467   2.894   3.539   4.651
 3860SOL    HW212468   2.751   3.531   4.603
 3861SOL     OW12469   3.396   2.087   5.449
 3861SOL    HW112470   3.405   2.109   5.542
 3861SOL    HW212471   3.329   2.019   5.447
 3862SOL     OW12472   2.631   2.128   5.481
 3862SOL    HW112473   2.707   2.070   5.486
 3862SOL    HW212474   2.586   2.115   5.564
 3863SOL     OW12475   2.724   3.436   4.923
 3863SOL    HW112476   2.706   3.412   4.832
 3863SOL    HW212477   2.743   3.353   4.966
 3864SOL     OW12478   3.305   2.521   5.203
 3864SOL    HW112479   3.293   2.448   5.263
 3864SOL    HW212480   3.236   2.511   5.137
 3865SOL     OW12481   2.138   1.924   3.951
 3865SOL    HW112482   2.192   1.973   3.889
 3865SOL    HW212483   2.196   1.857   3.986
 3866SOL     OW12484   2.333   2.925   4.457
 3866SOL    HW112485   2.271   2.966   4.516
 3866SOL    HW212486   2.298   2.941   4.369
 3867SOL     OW12487   3.114   3.677   4.310
 3867SOL    HW112488   3.166   3.743   4.265
 3867SOL    HW212489   3.060   3.727   4.372
 3868SOL     OW12490   2.791   2.317   4.322
 3868SOL    HW112491   2.720   2.380   4.319
 3868SOL    HW212492   2.749   2.234   4.343
 3869SOL     OW12493   3.708   2.673   4.104
 3869SOL    HW112494   3.764   2.619   4.161
 3869SOL    HW212495   3.684   2.614   4.033
 3870SOL     OW12496   3.558   3.145   4.361
 3870SOL    HW112497   3.653   3.146   4.378
 3870SOL    HW212498   3.528   3.232   4.389
 3871SOL     OW12499   3.612   3.106   5.291
 3871SOL    HW112500   3.698   3.063   5.291
 3871SOL    HW212501   3.630   3.195   5.323
 3872SOL     OW12502   3.469   3.488   5.378
 3872SOL    HW112503   3.464   3.522   5.288
 3872SOL    HW212504   3.552   3.441   5.380
 3873SOL     OW12505   3.519   2.994   4.791
 3873SOL    HW112506   3.540   3.053   4.864
 3873SOL    HW212507   3.429   2.966   4.808
 3874SOL     OW12508   2.775   1.950   5.132
 3874SOL    HW112509   2.795   1.922   5.043
 3874SOL    HW212510   2.858   1.984   5.165
 3875SOL     OW12511   1.932   3.438   5.079
 3875SOL    HW112512   1.899   3.509   5.024
 3875SOL    HW212513   2.026   3.440   5.067
 3876SOL     OW12514   2.222   2.969   4.213
 3876SOL    HW112515   2.191   3.050   4.172
 3876SOL    HW212516   2.213   2.903   4.144
 3877SOL     OW12517   3.457   2.487   4.184
 3877SOL    HW112518   3.433   2.535   4.263
 3877SOL    HW212519   3.500   2.552   4.129
 3878SOL     OW12520   2.200   3.394   5.022
 3878SOL    HW112521   2.195   3.303   4.991
 3878SOL    HW212522   2.294   3.411   5.030
 3879SOL     OW12523   2.219   2.637   5.358
 3879SOL    HW112524   2.270   2.634   5.277
 3879SOL    HW212525   2.224   2.549   5.393
 3880SOL     OW12526   3.467   2.649   5.420
 3880SOL    HW112527   3.376   2.671   5.401
 3880SOL    HW212528   3.516   2.681   5.344
 3881SOL     OW12529   2.862   1.981   5.486
 3881SOL    HW112530   2.916   2.054   5.456
 3881SOL    HW212531   2.910   1.903   5.460
 3882SOL     OW12532   2.358   1.897   5.476
 3882SOL    HW112533   2.315   1.847   5.407
 3882SOL    HW212534   2.302   1.973   5.490
 3883SOL     OW12535   3.076   2.455   4.068
 3883SOL    HW112536   3.110   2.366   4.064
 3883SOL    HW212537   2.990   2.446   4.109
 3884SOL     OW12538   1.925   3.175   4.998
 3884SOL    HW112539   1.943   3.119   5.074
 3884SOL    HW212540   1.916   3.263   5.035
 3885SOL     OW12541   3.601   2.825   5.581
 3885SOL    HW112542   3.556   2.763   5.524
 3885SOL    HW212543   3.540   2.840   5.653
 3886SOL     OW12544   2.148   1.872   4.341
 3886SOL    HW112545   2.173   1.964   4.341
 3886SOL    HW212546   2.167   1.841   4.429
 3887SOL     OW12547   3.502   2.238   4.080
 3887SOL    HW112548   3.508   2.170   4.147
 3887SOL    HW212549   3.465   2.314   4.126
 3888SOL     OW12550   2.845   3.429   5.438
 3888SOL    HW112551   2.831   3.473   5.355
 3888SOL    HW212552   2.883   3.344   5.415
 3889SOL     OW12553   3.716   3.369   5.330
 3889SOL    HW112554   3.735   3.394   5.240
 3889SOL    HW212555   3.797   3.385   5.378
 3890SOL     OW12556   2.207   2.830   5.538
 3890SOL    HW112557   2.281   2.821   5.598
 3890SOL    HW212558   2.213   2.753   5.481
 3891SOL     OW12559   2.996   2.222   5.409
 3891SOL    HW112560   2.937   2.288   5.445
 3891SOL    HW212561   3.082   2.264   5.410
 3892SOL     OW12562   3.022   2.040   5.202
 3892SOL    HW112563   3.015   2.106   5.271
 3892SOL    HW212564   3.050   2.089   5.124
 3893SOL     OW12565   1.949   3.641   4.653
 3893SOL    HW112566   1.920   3.576   4.589
 3893SOL    HW212567   2.041   3.656   4.633
 3894SOL     OW12568   2.064   2.378   5.443
 3894SOL    HW112569   2.089   2.321   5.371
 3894SOL    HW212570   2.011   2.447   5.403
 3895SOL     OW12571   3.228   2.802   5.376
 3895SOL    HW112572   3.260   2.892   5.385
 3895SOL    HW212573   3.231   2.786   5.281
 3896SOL     OW12574   3.520   2.485   4.935
 3896SOL    HW112575   3.484   2.423   4.998
 3896SOL    HW212576   3.592   2.438   4.893
 3897SOL     OW12577   2.106   3.411   5.452
 3897SOL    HW112578   2.082   3.479   5.515
 3897SOL    HW212579   2.103   3.330   5.501
 3898SOL     OW12580   2.798   3.541   5.183
 3898SOL    HW112581   2.755   3.520   5.100
 3898SOL    HW212582   2.792   3.637   5.189
 3899SOL     OW12583   3.163   2.722   4.018
 3899SOL    HW112584   3.127   2.659   4.081
 3899SOL    HW212585   3.174   2.672   3.937
 3900SOL     OW12586   3.634   3.611   4.873
 3900SOL    HW112587   3.698   3.634   4.805
 3900SOL    HW212588   3.612   3.520   4.855
 3901SOL     OW12589   2.537   3.528   5.456
 3901SOL    HW112590   2.482   3.606   5.452
 3901SOL    HW212591   2.602   3.541   5.386
 3902SOL     OW12592   3.586   2.011   4.242
 3902SOL    HW112593   3.655   2.000   4.177
 3902SOL    HW212594   3.569   1.922   4.274
 3903SOL     OW12595   3.274   3.471   4.228
 3903SOL    HW112596   3.316   3.497   4.146
 3903SOL    HW212597   3.210   3.541   4.245
 3904SOL     OW12598   2.001   3.656   5.567
 3904SOL    HW112599   1.949   3.592   5.615
 3904SOL    HW212600   2.047   3.705   5.634
 3905SOL     OW12601   3.485   3.590   5.114
 3905SOL    HW112602   3.537   3.596   5.033
 3905SOL    HW212603   3.472   3.681   5.141
 3906SOL     OW12604   3.695   2.034   4.688
 3906SOL    HW112605   3.731   1.949   4.665
 3906SOL    HW212606   3.616   2.042   4.635
 3907SOL     OW12607   3.353   3.513   3.766
 3907SOL    HW112608   3.282   3.455   3.740
 3907SOL    HW212609   3.409   3.520   3.688
 3908SOL     OW12610   3.485   3.158   5.011
 3908SOL    HW112611   3.534   3.144   5.091
 3908SOL    HW212612   3.419   3.223   5.034
 3909SOL     OW12613   3.586   2.246   5.109
 3909SOL    HW112614   3.651   2.316   5.103
 3909SOL    HW212615   3.619   2.177   5.050
 3910SOL     OW12616   1.960   2.926   5.459
 3910SOL    HW112617   1.889   2.878   5.503
 3910SOL    HW212618   2.040   2.881   5.489
 3911SOL     OW12619   2.540   2.047   5.238
 3911SOL    HW112620   2.623   2.025   5.196
 3911SOL    HW212621   2.565   2.084   5.323
 3912SOL     OW12622   1.888   1.999   4.009
 3912SOL    HW112623   1.878   2.088   3.975
 3912SOL    HW212624   1.979   1.977   3.992
 3913SOL     OW12625   3.043   3.212   3.883
 3913SOL    HW112626   3.005   3.133   3.843
 3913SOL    HW212627   3.102   3.179   3.950
 3914SOL     OW12628   3.388   3.650   4.691
 3914SOL    HW112629   3.408   3.720   4.628
 3914SOL    HW212630   3.467   3.643   4.744
 3915SOL     OW12631   3.335   3.055   5.355
 3915SOL    HW112632   3.324   3.075   5.448
 3915SOL    HW212633   3.426   3.077   5.337
 3916SOL     OW12634   2.240   3.601   5.288
 3916SOL    HW112635   2.155   3.643   5.273
 3916SOL    HW212636   2.218   3.518   5.330
 3917SOL     OW12637   3.593   2.743   4.969
 3917SOL    HW112638   3.560   2.654   4.957
 3917SOL    HW212639   3.556   2.792   4.895
 3918SOL     OW12640   3.093   2.192   4.184
 3918SOL    HW112641   3.147   2.112   4.178
 3918SOL    HW212642   3.088   2.210   4.278
 3919SOL     OW12643   3.624   2.223   5.378
 3919SOL    HW112644   3.610   2.237   5.284
 3919SOL    HW212645   3.551   2.167   5.405
 3920SOL     OW12646   3.604   2.793   5.234
 3920SOL    HW112647   3.604   2.888   5.240
 3920SOL    HW212648   3.603   2.774   5.140
 3921SOL     OW12649   2.527   3.663   4.669
 3921SOL    HW112650   2.492   3.749   4.644
 3921SOL    HW212651   2.622   3.675   4.668
 3922SOL     OW12652   3.053   2.918   3.807
 3922SOL    HW112653   3.006   2.950   3.731
 3922SOL    HW212654   3.086   2.832   3.781
 3923SOL     OW12655   3.715   3.418   4.567
 3923SOL    HW112656   3.634   3.406   4.518
 3923SOL    HW212657   3.715   3.347   4.632
 3924SOL     OW12658   2.086   3.162   5.578
 3924SOL    HW112659   2.029   3.090   5.549
 3924SOL    HW212660   2.066   3.172   5.671
 3925SOL     OW12661   2.544   3.264   5.351
 3925SOL    HW112662   2.459   3.224   5.373
 3925SOL    HW212663   2.538   3.353   5.385
 3926SOL     OW12664   3.678   2.042   4.961
 3926SOL    HW112665   3.685   1.947   4.972
 3926SOL    HW212666   3.686   2.056   4.866
 3927SOL     OW12667   3.576   3.355   4.829
 3927SOL    HW112668   3.502   3.331   4.773
 3927SOL    HW212669   3.581   3.286   4.894
 3928SOL     OW12670   2.862   1.838   4.899
 3928SOL    HW112671   2.813   1.794   4.830
 3928SOL    HW212672   2.953   1.812   4.884
 3929SOL     OW12673   2.463   3.440   5.014
 3929SOL    HW112674   2.474   3.518   5.068
 3929SOL    HW212675   2.549   3.427   4.974
 3930SOL     OW12676   3.223   1.853   3.920
 3930SOL    HW112677   3.243   1.809   3.838
 3930SOL    HW212678   3.130   1.835   3.935
 3931SOL     OW12679   1.889   2.931   4.067
 3931SOL    HW112680   1.968   2.964   4.025
 3931SOL    HW212681   1.874   2.846   4.026
 3932SOL     OW12682   2.077   2.510   5.699
 3932SOL    HW112683   1.995   2.480   5.738
 3932SOL    HW212684   2.082   2.463   5.616
 3933SOL     OW12685   2.085   2.134   6.580
 3933SOL    HW112686   2.114   2.100   6.665
 3933SOL    HW212687   1.994   2.103   6.572
 3934SOL     OW12688   1.864   2.240   6.230
 3934SOL    HW112689   1.780   2.266   6.269
 3934SOL    HW212690   1.843   2.164   6.176
 3935SOL     OW12691   2.413   3.162   6.782
 3935SOL    HW112692   2.330   3.171   6.735
 3935SOL    HW212693   2.434   3.250   6.811
 3936SOL     OW12694   3.424   3.374   6.293
 3936SOL    HW112695   3.382   3.354   6.377
 3936SOL    HW212696   3.352   3.379   6.230
 3937SOL     OW12697   3.063   2.532   6.339
 3937SOL    HW112698   3.072   2.623   6.312
 3937SOL    HW212699   2.971   2.524   6.364
 3938SOL     OW12700   3.633   2.466   5.813
 3938SOL    HW112701   3.610   2.459   5.721
 3938SOL    HW212702   3.594   2.389   5.854
 3939SOL     OW12703   2.590   3.036   6.628
 3939SOL    HW112704   2.520   3.068   6.685
 3939SOL    HW212705   2.626   3.115   6.587
 3940SOL     OW12706   2.546   3.037   7.407
 3940SOL    HW112707   2.604   3.112   7.421
 3940SOL    HW212708   2.469   3.073   7.365
 3941SOL     OW12709   2.190   3.289   6.653
 3941SOL    HW112710   2.119   3.249   6.604
 3941SOL    HW212711   2.240   3.338   6.588
 3942SOL     OW12712   3.325   3.361   6.942
 3942SOL    HW112713   3.376   3.441   6.950
 3942SOL    HW212714   3.256   3.369   7.008
 3943SOL     OW12715   2.303   2.227   7.039
 3943SOL    HW112716   2.377   2.170   7.058
 3943SOL    HW212717   2.227   2.180   7.074
 3944SOL     OW12718   3.475   2.308   6.327
 3944SOL    HW112719   3.396   2.323   6.274
 3944SOL    HW212720   3.485   2.387   6.379
 3945SOL     OW12721   2.081   3.577   6.057
 3945SOL    HW112722   2.102   3.653   6.112
 3945SOL    HW212723   2.155   3.569   5.997
 3946SOL     OW12724   3.041   3.244   7.285
 3946SOL    HW112725   3.070   3.240   7.376
 3946SOL    HW212726   2.995   3.161   7.270
 3947SOL     OW12727   2.092   3.304   6.121
 3947SOL    HW112728   2.074   3.398   6.125
 3947SOL    HW212729   2.033   3.266   6.186
 3948SOL     OW12730   2.115   2.952   6.472
 3948SOL    HW112731   2.119   2.868   6.517
 3948SOL    HW212732   2.062   3.008   6.529
 3949SOL     OW12733   2.471   3.655   7.013
 3949SOL    HW112734   2.390   3.637   7.061
 3949SOL    HW212735   2.494   3.744   7.040
 3950SOL     OW12736   2.421   2.854   5.712
 3950SOL    HW112737   2.462   2.920   5.655
 3950SOL    HW212738   2.493   2.823   5.767
 3951SOL     OW12739   3.458   1.986   7.053
 3951SOL    HW112740   3.468   2.067   7.003
 3951SOL    HW212741   3.442   2.015   7.143
 3952SOL     OW12742   1.947   2.510   6.157
 3952SOL    HW112743   1.925   2.420   6.181
 3952SOL    HW212744   1.948   2.557   6.240
 3953SOL     OW12745   3.704   3.620   5.921
 3953SOL    HW112746   3.770   3.592   5.984
 3953SOL    HW212747   3.727   3.711   5.901
 3954SOL     OW12748   1.895   3.456   5.709
 3954SOL    HW112749   1.877   3.364   5.729
 3954SOL    HW212750   1.871   3.503   5.789
 3955SOL     OW12751   3.556   2.787   6.229
 3955SOL    HW112752   3.636   2.740   6.206
 3955SOL    HW212753   3.532   2.834   6.149
 3956SOL     OW12754   3.508   2.970   6.016
 3956SOL    HW112755   3.594   2.974   5.973
 3956SOL    HW212756   3.515   3.031   6.089
 3957SOL     OW12757   1.983   2.612   7.178
 3957SOL    HW112758   2.054   2.653   7.227
 3957SOL    HW212759   1.918   2.682   7.166
 3958SOL     OW12760   2.480   3.249   6.321
 3958SOL    HW112761   2.436   3.165   6.333
 3958SOL    HW212762   2.459   3.275   6.232
 3959SOL     OW12763   3.147   3.095   7.015
 3959SOL    HW112764   3.182   3.031   6.952
 3959SOL    HW212765   3.209   3.093   7.088
 3960SOL     OW12766   2.677   1.860   6.096
 3960SOL    HW112767   2.718   1.943   6.074
 3960SOL    HW212768   2.584   1.880   6.105
 3961SOL     OW12769   2.033   2.838   6.854
 3961SOL    HW112770   2.118   2.793   6.844
 3961SOL    HW212771   1.971   2.784   6.805
 3962SOL     OW12772   3.400   2.863   5.783
 3962SOL    HW112773   3.333   2.800   5.810
 3962SOL    HW212774   3.438   2.895   5.865
 3963SOL     OW12775   3.047   3.669   7.207
 3963SOL    HW112776   3.056   3.731   7.134
 3963SOL    HW212777   3.064   3.584   7.168
 3964SOL     OW12778   2.195   2.109   7.403
 3964SOL    HW112779   2.229   2.198   7.398
 3964SOL    HW212780   2.104   2.120   7.431
 3965SOL     OW12781   3.329   3.280   6.537
 3965SOL    HW112782   3.262   3.297   6.603
 3965SOL    HW212783   3.315   3.189   6.511
 3966SOL     OW12784   3.519   3.604   6.164
 3966SOL    HW112785   3.501   3.574   6.075
 3966SOL    HW212786   3.495   3.530   6.220
 3967SOL     OW12787   3.146   2.210   6.519
 3967SOL    HW112788   3.055   2.182   6.528
 3967SOL    HW212789   3.194   2.157   6.583
 3968SOL     OW12790   3.442   3.532   5.895
 3968SOL    HW112791   3.533   3.563   5.889
 3968SOL    HW212792   3.416   3.515   5.805
 3969SOL     OW12793   3.258   2.337   7.262
 3969SOL    HW112794   3.257   2.381   7.347
 3969SOL    HW212795   3.316   2.262   7.275
 3970SOL     OW12796   2.859   2.273   6.828
 3970SOL    HW112797   2.778   2.314   6.858
 3970SOL    HW212798   2.839   2.243   6.739
 3971SOL     OW12799   1.947   2.681   6.370
 3971SOL    HW112800   2.030   2.680   6.418
 3971SOL    HW212801   1.904   2.762   6.399
 3972SOL     OW12802   1.988   3.716   7.166
 3972SOL    HW112803   1.989   3.693   7.259
 3972SOL    HW212804   1.898   3.698   7.138
 3973SOL     OW12805   2.744   2.186   5.791
 3973SOL    HW112806   2.769   2.273   5.760
 3973SOL    HW212807   2.785   2.126   5.729
 3974SOL     OW12808   3.571   2.437   7.416
 3974SOL    HW112809   3.532   2.511   7.368
 3974SOL    HW212810   3.597   2.375   7.347
 3975SOL     OW12811   3.236   3.004   6.120
 3975SOL    HW112812   3.318   2.992   6.073
 3975SOL    HW212813   3.188   3.069   6.069
 3976SOL     OW12814   2.408   2.031   6.473
 3976SOL    HW112815   2.410   2.056   6.565
 3976SOL    HW212816   2.428   2.111   6.425
 3977SOL     OW12817   2.864   3.304   6.061
 3977SOL    HW112818   2.830   3.377   6.009
 3977SOL    HW212819   2.846   3.330   6.152
 3978SOL     OW12820   2.217   3.671   6.450
 3978SOL    HW112821   2.260   3.586   6.457
 3978SOL    HW212822   2.286   3.735   6.468
 3979SOL     OW12823   3.662   2.919   6.455
 3979SOL    HW112824   3.610   2.898   6.378
 3979SOL    HW212825   3.599   2.924   6.527
 3980SOL     OW12826   3.093   3.413   7.084
 3980SOL    HW112827   3.086   3.350   7.156
 3980SOL    HW212828   3.025   3.386   7.022
 3981SOL     OW12829   2.171   2.823   5.842
 3981SOL    HW112830   2.249   2.839   5.789
 3981SOL    HW212831   2.152   2.730   5.828
 3982SOL     OW12832   3.361   2.594   6.306
 3982SOL    HW112833   3.336   2.557   6.391
 3982SOL    HW212834   3.432   2.655   6.327
 3983SOL     OW12835   2.317   3.137   7.321
 3983SOL    HW112836   2.291   3.139   7.229
 3983SOL    HW212837   2.235   3.133   7.370
 3984SOL     OW12838   2.984   3.640   5.816
 3984SOL    HW112839   2.911   3.599   5.862
 3984SOL    HW212840   3.007   3.577   5.747
 3985SOL     OW12841   2.053   2.138   7.095
 3985SOL    HW112842   1.969   2.184   7.090
 3985SOL    HW212843   2.033   2.058   7.144
 3986SOL     OW12844   3.490   3.242   5.675
 3986SOL    HW112845   3.449   3.327   5.659
 3986SOL    HW212846   3.423   3.178   5.654
 3987SOL     OW12847   2.328   3.599   5.907
 3987SOL    HW112848   2.369   3.656   5.971
 3987SOL    HW212849   2.399   3.568   5.852
 3988SOL     OW12850   3.263   1.967   6.020
 3988SOL    HW112851   3.254   1.943   5.927
 3988SOL    HW212852   3.358   1.977   6.033
 3989SOL     OW12853   2.117   3.653   6.817
 3989SOL    HW112854   2.169   3.587   6.863
 3989SOL    HW212855   2.109   3.619   6.728
 3990SOL     OW12856   2.798   3.564   6.484
 3990SOL    HW112857   2.872   3.510   6.513
 3990SOL    HW212858   2.756   3.512   6.416
 3991SOL     OW12859   2.182   2.565   6.036
 3991SOL    HW112860   2.213   2.475   6.032
 3991SOL    HW212861   2.093   2.559   6.072
 3992SOL     OW12862   3.396   2.087   7.311
 3992SOL    HW112863   3.405   2.107   7.404
 3992SOL    HW212864   3.326   2.022   7.308
 3993SOL     OW12865   2.492   1.985   5.695
 3993SOL    HW112866   2.566   1.925   5.706
 3993SOL    HW212867   2.446   1.954   5.617
 3994SOL     OW12868   2.618   2.116   7.334
 3994SOL    HW112869   2.702   2.069   7.336
 3994SOL    HW212870   2.607   2.147   7.424
 3995SOL     OW12871   2.740   3.390   6.779
 3995SOL    HW112872   2.723   3.353   6.693
 3995SOL    HW212873   2.803   3.330   6.820
 3996SOL     OW12874   3.248   2.436   7.004
 3996SOL    HW112875   3.261   2.410   7.095
 3996SOL    HW212876   3.261   2.531   7.004
 3997SOL     OW12877   2.680   3.272   6.523
 3997SOL    HW112878   2.763   3.250   6.481
 3997SOL    HW212879   2.616   3.266   6.452
 3998SOL     OW12880   2.804   2.358   6.487
 3998SOL    HW112881   2.795   2.345   6.393
 3998SOL    HW212882   2.832   2.272   6.521
 3999SOL     OW12883   2.412   1.923   6.089
 3999SOL    HW112884   2.331   1.924   6.140
 3999SOL    HW212885   2.406   2.000   6.033
 4000SOL     OW12886   3.290   3.062   5.626
 4000SOL    HW112887   3.322   2.987   5.675
 4000SOL    HW212888   3.205   3.082   5.665
 4001SOL     OW12889   2.151   1.910   5.771
 4001SOL    HW112890   2.205   1.971   5.721
 4001SOL    HW212891   2.215   1.850   5.810
 4002SOL     OW12892   2.801   2.101   6.044
 4002SOL    HW112893   2.771   2.135   5.959
 4002SOL    HW212894   2.895   2.117   6.045
 4003SOL     OW12895   2.984   2.474   7.053
 4003SOL    HW112896   2.921   2.406   7.028
 4003SOL    HW212897   3.068   2.442   7.023
 4004SOL     OW12898   3.088   3.428   6.379
 4004SOL    HW112899   3.101   3.497   6.314
 4004SOL    HW212900   3.153   3.447   6.447
 4005SOL     OW12901   2.330   3.021   6.318
 4005SOL    HW112902   2.261   2.995   6.379
 4005SOL    HW212903   2.297   2.994   6.232
 4006SOL     OW12904   3.130   3.655   6.195
 4006SOL    HW112905   3.177   3.716   6.138
 4006SOL    HW212906   3.063   3.708   6.238
 4007SOL     OW12907   1.932   2.420   6.984
 4007SOL    HW112908   2.023   2.414   6.955
 4007SOL    HW212909   1.932   2.492   7.048
 4008SOL     OW12910   2.413   2.074   6.737
 4008SOL    HW112911   2.470   2.028   6.798
 4008SOL    HW212912   2.328   2.080   6.781
 4009SOL     OW12913   2.777   2.302   6.229
 4009SOL    HW112914   2.688   2.334   6.216
 4009SOL    HW212915   2.784   2.227   6.170
 4010SOL     OW12916   2.879   1.913   6.336
 4010SOL    HW112917   2.820   1.907   6.261
 4010SOL    HW212918   2.855   1.838   6.391
 4011SOL     OW12919   3.297   3.023   6.441
 4011SOL    HW112920   3.237   2.949   6.434
 4011SOL    HW212921   3.330   3.037   6.352
 4012SOL     OW12922   3.329   2.468   6.561
 4012SOL    HW112923   3.275   2.389   6.563
 4012SOL    HW212924   3.387   2.459   6.637
 4013SOL     OW12925   3.705   2.677   5.970
 4013SOL    HW112926   3.763   2.626   6.027
 4013SOL    HW212927   3.678   2.615   5.902
 4014SOL     OW12928   2.354   3.279   5.745
 4014SOL    HW112929   2.279   3.251   5.798
 4014SOL    HW212930   2.334   3.246   5.657
 4015SOL     OW12931   3.531   3.126   6.233
 4015SOL    HW112932   3.626   3.128   6.246
 4015SOL    HW212933   3.503   3.215   6.253
 4016SOL     OW12934   3.255   2.427   5.656
 4016SOL    HW112935   3.192   2.409   5.726
 4016SOL    HW212936   3.339   2.397   5.690
 4017SOL     OW12937   2.391   2.123   5.908
 4017SOL    HW112938   2.425   2.072   5.834
 4017SOL    HW212939   2.404   2.214   5.883
 4018SOL     OW12940   3.614   3.102   7.157
 4018SOL    HW112941   3.701   3.063   7.153
 4018SOL    HW212942   3.629   3.191   7.186
 4019SOL     OW12943   2.923   3.219   6.920
 4019SOL    HW112944   2.844   3.191   6.965
 4019SOL    HW212945   2.994   3.172   6.964
 4020SOL     OW12946   3.471   3.488   7.239
 4020SOL    HW112947   3.464   3.522   7.150
 4020SOL    HW212948   3.553   3.440   7.241
 4021SOL     OW12949   3.002   3.076   6.696
 4021SOL    HW112950   2.942   3.107   6.764
 4021SOL    HW212951   2.954   3.089   6.614
 4022SOL     OW12952   3.489   2.960   6.663
 4022SOL    HW112953   3.486   3.022   6.736
 4022SOL    HW212954   3.409   2.977   6.613
 4023SOL     OW12955   2.778   1.958   6.981
 4023SOL    HW112956   2.801   1.940   6.890
 4023SOL    HW212957   2.857   1.998   7.018
 4024SOL     OW12958   2.899   3.027   7.284
 4024SOL    HW112959   2.813   3.060   7.311
 4024SOL    HW212960   2.885   2.995   7.195
 4025SOL     OW12961   2.252   2.678   6.848
 4025SOL    HW112962   2.340   2.693   6.883
 4025SOL    HW212963   2.231   2.588   6.872
 4026SOL     OW12964   3.131   2.232   6.861
 4026SOL    HW112965   3.174   2.309   6.898
 4026SOL    HW212966   3.042   2.261   6.840
 4027SOL     OW12967   1.933   3.436   6.940
 4027SOL    HW112968   1.905   3.508   6.884
 4027SOL    HW212969   2.029   3.438   6.934
 4028SOL     OW12970   2.220   2.968   6.073
 4028SOL    HW112971   2.209   3.043   6.013
 4028SOL    HW212972   2.205   2.891   6.018
 4029SOL     OW12973   3.107   3.212   5.974
 4029SOL    HW112974   3.164   3.283   6.004
 4029SOL    HW212975   3.021   3.234   6.008
 4030SOL     OW12976   3.145   3.322   6.732
 4030SOL    HW112977   3.199   3.323   6.811
 4030SOL    HW212978   3.088   3.247   6.743
 4031SOL     OW12979   3.441   2.483   6.060
 4031SOL    HW112980   3.404   2.529   6.135
 4031SOL    HW212981   3.487   2.551   6.011
 4032SOL     OW12982   2.207   3.391   6.900
 4032SOL    HW112983   2.195   3.349   6.815
 4032SOL    HW212984   2.302   3.404   6.908
 4033SOL     OW12985   3.463   2.642   7.270
 4033SOL    HW112986   3.376   2.681   7.261
 4033SOL    HW212987   3.515   2.684   7.201
 4034SOL     OW12988   2.861   1.988   7.341
 4034SOL    HW112989   2.917   2.061   7.314
 4034SOL    HW212990   2.909   1.910   7.315
 4035SOL     OW12991   2.359   1.899   7.334
 4035SOL    HW112992   2.315   1.846   7.268
 4035SOL    HW212993   2.300   1.974   7.347
 4036SOL     OW12994   3.232   2.722   6.613
 4036SOL    HW112995   3.162   2.717   6.549
 4036SOL    HW212996   3.271   2.635   6.613
 4037SOL     OW12997   3.078   2.382   5.861
 4037SOL    HW112998   3.078   2.300   5.911
 4037SOL    HW212999   3.055   2.449   5.925
 4038SOL     OW13000   2.154   2.059   6.834
 4038SOL    HW113001   2.117   2.090   6.917
 4038SOL    HW213002   2.139   1.965   6.835
 4039SOL     OW13003   1.906   3.174   6.862
 4039SOL    HW113004   1.939   3.120   6.933
 4039SOL    HW213005   1.914   3.264   6.895
 4040SOL     OW13006   3.598   2.822   7.439
 4040SOL    HW113007   3.551   2.759   7.384
 4040SOL    HW213008   3.541   2.836   7.514
 4041SOL     OW13009   2.166   1.928   6.210
 4041SOL    HW113010   2.144   2.017   6.236
 4041SOL    HW213011   2.174   1.881   6.293
 4042SOL     OW13012   3.479   2.235   5.951
 4042SOL    HW113013   3.506   2.173   6.018
 4042SOL    HW213014   3.455   2.314   6.000
 4043SOL     OW13015   2.839   3.430   7.302
 4043SOL    HW113016   2.823   3.474   7.219
 4043SOL    HW213017   2.900   3.359   7.281
 4044SOL     OW13018   3.716   3.367   7.191
 4044SOL    HW113019   3.735   3.393   7.101
 4044SOL    HW213020   3.797   3.384   7.238
 4045SOL     OW13021   2.223   2.763   7.367
 4045SOL    HW113022   2.277   2.804   7.434
 4045SOL    HW213023   2.275   2.690   7.335
 4046SOL     OW13024   3.390   2.134   5.713
 4046SOL    HW113025   3.325   2.069   5.740
 4046SOL    HW213026   3.424   2.170   5.795
 4047SOL     OW13027   3.186   2.690   5.630
 4047SOL    HW113028   3.216   2.600   5.622
 4047SOL    HW213029   3.200   2.727   5.542
 4048SOL     OW13030   2.926   3.205   6.430
 4048SOL    HW113031   2.955   3.130   6.380
 4048SOL    HW213032   2.988   3.275   6.407
 4049SOL     OW13033   2.171   2.677   6.533
 4049SOL    HW113034   2.264   2.694   6.518
 4049SOL    HW213035   2.168   2.592   6.575
 4050SOL     OW13036   2.169   2.383   6.584
 4050SOL    HW113037   2.137   2.292   6.582
 4050SOL    HW213038   2.237   2.386   6.518
 4051SOL     OW13039   3.001   2.229   7.267
 4051SOL    HW113040   2.952   2.280   7.331
 4051SOL    HW213041   3.084   2.276   7.258
 4052SOL     OW13042   3.023   2.060   7.054
 4052SOL    HW113043   3.014   2.122   7.127
 4052SOL    HW213044   3.062   2.110   6.984
 4053SOL     OW13045   1.867   3.183   5.782
 4053SOL    HW113046   1.781   3.196   5.744
 4053SOL    HW213047   1.866   3.092   5.815
 4054SOL     OW13048   1.952   3.649   6.524
 4054SOL    HW113049   1.922   3.569   6.480
 4054SOL    HW213050   2.042   3.661   6.494
 4055SOL     OW13051   2.358   3.435   6.490
 4055SOL    HW113052   2.426   3.497   6.515
 4055SOL    HW213053   2.402   3.371   6.435
 4056SOL     OW13054   1.895   2.405   6.703
 4056SOL    HW113055   1.975   2.398   6.651
 4056SOL    HW213056   1.926   2.411   6.793
 4057SOL     OW13057   2.056   2.379   7.311
 4057SOL    HW113058   2.105   2.338   7.240
 4057SOL    HW213059   2.010   2.452   7.270
 4058SOL     OW13060   3.233   2.801   7.246
 4058SOL    HW113061   3.260   2.893   7.242
 4058SOL    HW213062   3.233   2.772   7.154
 4059SOL     OW13063   3.503   2.466   6.771
 4059SOL    HW113064   3.489   2.408   6.847
 4059SOL    HW213065   3.590   2.442   6.739
 4060SOL     OW13066   2.104   3.413   7.313
 4060SOL    HW113067   2.082   3.478   7.380
 4060SOL    HW213068   2.106   3.330   7.360
 4061SOL     OW13069   2.786   3.543   7.055
 4061SOL    HW113070   2.764   3.504   6.970
 4061SOL    HW213071   2.782   3.637   7.041
 4062SOL     OW13072   2.004   3.006   7.061
 4062SOL    HW113073   2.008   2.954   7.141
 4062SOL    HW213074   2.016   2.943   6.990
 4063SOL     OW13075   3.191   2.909   6.809
 4063SOL    HW113076   3.214   2.846   6.740
 4063SOL    HW213077   3.126   2.967   6.768
 4064SOL     OW13078   3.188   2.720   5.897
 4064SOL    HW113079   3.101   2.713   5.937
 4064SOL    HW213080   3.173   2.705   5.804
 4065SOL     OW13081   3.634   3.605   6.736
 4065SOL    HW113082   3.695   3.631   6.667
 4065SOL    HW213083   3.610   3.515   6.715
 4066SOL     OW13084   3.102   3.595   6.696
 4066SOL    HW113085   3.185   3.616   6.653
 4066SOL    HW213086   3.109   3.502   6.717
 4067SOL     OW13087   1.946   3.130   6.597
 4067SOL    HW113088   1.931   3.142   6.691
 4067SOL    HW213089   1.875   3.073   6.569
 4068SOL     OW13090   2.538   3.528   7.316
 4068SOL    HW113091   2.487   3.609   7.311
 4068SOL    HW213092   2.607   3.540   7.251
 4069SOL     OW13093   3.582   2.010   6.095
 4069SOL    HW113094   3.654   1.995   6.034
 4069SOL    HW213095   3.566   1.924   6.135
 4070SOL     OW13096   3.252   3.430   6.070
 4070SOL    HW113097   3.313   3.463   6.005
 4070SOL    HW213098   3.204   3.507   6.100
 4071SOL     OW13099   1.998   3.658   7.430
 4071SOL    HW113100   1.947   3.593   7.479
 4071SOL    HW213101   2.046   3.706   7.497
 4072SOL     OW13102   3.167   2.790   6.276
 4072SOL    HW113103   3.238   2.726   6.262
 4072SOL    HW213104   3.187   2.860   6.214
 4073SOL     OW13105   2.676   3.171   7.012
 4073SOL    HW113106   2.633   3.207   7.090
 4073SOL    HW213107   2.604   3.142   6.956
 4074SOL     OW13108   2.533   3.483   5.741
 4074SOL    HW113109   2.543   3.496   5.647
 4074SOL    HW213110   2.479   3.405   5.750
 4075SOL     OW13111   3.487   3.589   6.976
 4075SOL    HW113112   3.538   3.596   6.895
 4075SOL    HW213113   3.473   3.679   7.004
 4076SOL     OW13114   3.703   2.035   6.552
 4076SOL    HW113115   3.731   1.947   6.526
 4076SOL    HW213116   3.617   2.045   6.513
 4077SOL     OW13117   2.120   2.179   6.312
 4077SOL    HW113118   2.033   2.210   6.287
 4077SOL    HW213119   2.113   2.160   6.406
 4078SOL     OW13120   3.069   3.466   5.617
 4078SOL    HW113121   3.060   3.374   5.642
 4078SOL    HW213122   3.002   3.479   5.549
 4079SOL     OW13123   3.353   3.488   5.628
 4079SOL    HW113124   3.259   3.481   5.614
 4079SOL    HW213125   3.391   3.494   5.541
 4080SOL     OW13126   2.228   3.166   7.075
 4080SOL    HW113127   2.217   3.242   7.018
 4080SOL    HW213128   2.150   3.112   7.059
 4081SOL     OW13129   3.473   3.144   6.867
 4081SOL    HW113130   3.532   3.132   6.941
 4081SOL    HW213131   3.413   3.214   6.895
 4082SOL     OW13132   2.889   2.097   6.553
 4082SOL    HW113133   2.885   2.048   6.470
 4082SOL    HW213134   2.881   2.031   6.621
 4083SOL     OW13135   2.464   3.354   6.067
 4083SOL    HW113136   2.509   3.309   5.996
 4083SOL    HW213137   2.391   3.399   6.024
 4084SOL     OW13138   3.586   2.253   6.968
 4084SOL    HW113139   3.657   2.317   6.965
 4084SOL    HW213140   3.616   2.182   6.911
 4085SOL     OW13141   2.122   3.208   5.875
 4085SOL    HW113142   2.030   3.204   5.851
 4085SOL    HW213143   2.123   3.245   5.963
 4086SOL     OW13144   1.976   2.886   7.308
 4086SOL    HW113145   1.900   2.862   7.360
 4086SOL    HW213146   2.050   2.844   7.351
 4087SOL     OW13147   2.534   2.059   7.080
 4087SOL    HW113148   2.619   2.038   7.040
 4087SOL    HW213149   2.554   2.082   7.170
 4088SOL     OW13150   1.942   2.199   5.622
 4088SOL    HW113151   1.857   2.178   5.582
 4088SOL    HW213152   1.974   2.273   5.570
 4089SOL     OW13153   3.292   2.722   6.989
 4089SOL    HW113154   3.243   2.782   6.933
 4089SOL    HW213155   3.381   2.723   6.953
 4090SOL     OW13156   1.929   2.018   5.895
 4090SOL    HW113157   1.915   2.098   5.844
 4090SOL    HW213158   2.014   1.985   5.865
 4091SOL     OW13159   3.038   3.198   5.701
 4091SOL    HW113160   2.943   3.187   5.703
 4091SOL    HW213161   3.064   3.199   5.793
 4092SOL     OW13162   3.346   3.639   6.565
 4092SOL    HW113163   3.369   3.700   6.495
 4092SOL    HW213164   3.429   3.620   6.609
 4093SOL     OW13165   3.335   3.058   7.220
 4093SOL    HW113166   3.322   3.075   7.313
 4093SOL    HW213167   3.428   3.075   7.204
 4094SOL     OW13168   2.240   3.602   7.151
 4094SOL    HW113169   2.155   3.644   7.137
 4094SOL    HW213170   2.218   3.518   7.192
 4095SOL     OW13171   3.530   2.743   6.842
 4095SOL    HW113172   3.524   2.657   6.800
 4095SOL    HW213173   3.520   2.805   6.770
 4096SOL     OW13174   3.077   2.174   6.045
 4096SOL    HW113175   3.140   2.103   6.034
 4096SOL    HW213176   3.107   2.222   6.122
 4097SOL     OW13177   3.623   2.224   7.239
 4097SOL    HW113178   3.608   2.240   7.146
 4097SOL    HW213179   3.550   2.168   7.266
 4098SOL     OW13180   3.608   2.795   7.098
 4098SOL    HW113181   3.603   2.890   7.111
 4098SOL    HW213182   3.592   2.783   7.005
 4099SOL     OW13183   2.749   3.230   5.627
 4099SOL    HW113184   2.693   3.253   5.702
 4099SOL    HW213185   2.750   3.309   5.573
 4100SOL     OW13186   2.522   3.652   6.528
 4100SOL    HW113187   2.504   3.744   6.506
 4100SOL    HW213188   2.617   3.645   6.523
 4101SOL     OW13189   3.715   3.416   6.430
 4101SOL    HW113190   3.637   3.404   6.377
 4101SOL    HW213191   3.707   3.350   6.499
 4102SOL     OW13192   2.082   3.165   7.443
 4102SOL    HW113193   2.014   3.105   7.414
 4102SOL    HW213194   2.064   3.178   7.536
 4103SOL     OW13195   1.946   3.095   6.253
 4103SOL    HW113196   1.953   3.048   6.335
 4103SOL    HW213197   2.014   3.057   6.197
 4104SOL     OW13198   2.536   3.269   7.217
 4104SOL    HW113199   2.453   3.230   7.244
 4104SOL    HW213200   2.535   3.357   7.255
 4105SOL     OW13201   3.676   2.046   6.823
 4105SOL    HW113202   3.684   1.951   6.837
 4105SOL    HW213203   3.685   2.057   6.729
 4106SOL     OW13204   2.238   2.282   6.088
 4106SOL    HW113205   2.281   2.208   6.044
 4106SOL    HW213206   2.206   2.245   6.170
 4107SOL     OW13207   3.562   3.351   6.681
 4107SOL    HW113208   3.481   3.328   6.635
 4107SOL    HW213209   3.572   3.281   6.747
 4108SOL     OW13210   2.175   2.404   6.874
 4108SOL    HW113211   2.224   2.340   6.927
 4108SOL    HW213212   2.189   2.376   6.784
 4109SOL     OW13213   2.691   3.441   6.260
 4109SOL    HW113214   2.672   3.497   6.185
 4109SOL    HW213215   2.616   3.383   6.266
 4110SOL     OW13216   3.296   2.083   6.706
 4110SOL    HW113217   3.320   2.003   6.753
 4110SOL    HW213218   3.243   2.133   6.768
 4111SOL     OW13219   2.870   1.877   6.728
 4111SOL    HW113220   2.817   1.810   6.686
 4111SOL    HW213221   2.958   1.841   6.730
 4112SOL     OW13222   2.637   3.207   5.898
 4112SOL    HW113223   2.604   3.117   5.892
 4112SOL    HW213224   2.718   3.200   5.948
 4113SOL     OW13225   2.480   3.422   6.869
 4113SOL    HW113226   2.484   3.504   6.919
 4113SOL    HW213227   2.569   3.410   6.835
 4114SOL     OW13228   3.214   1.916   5.752
 4114SOL    HW113229   3.243   1.851   5.687
 4114SOL    HW213230   3.127   1.886   5.778
 4115SOL     OW13231   3.178   2.302   6.266
 4115SOL    HW113232   3.140   2.389   6.279
 4115SOL    HW213233   3.169   2.259   6.350
 4116SOL     OW13234   3.448   2.062   6.465
 4116SOL    HW113235   3.389   2.084   6.536
 4116SOL    HW213236   3.448   2.140   6.409
 4117SOL     OW13237   1.907   2.931   5.892
 4117SOL    HW113238   1.999   2.919   5.868
 4117SOL    HW213239   1.877   2.844   5.915
 4118SOL     OW13240   2.749   3.515   5.927
 4118SOL    HW113241   2.676   3.498   5.868
 4118SOL    HW213242   2.720   3.590   5.980
 4119SOL     OW13243   2.090   2.503   7.564
 4119SOL    HW113244   2.004   2.491   7.604
 4119SOL    HW213245   2.082   2.463   7.478
 4120SOL     OW13246   3.629   2.460   7.679
 4120SOL    HW113247   3.609   2.456   7.585
 4120SOL    HW213248   3.589   2.381   7.716
 4121SOL     OW13249   2.082   3.582   7.919
 4121SOL    HW113250   2.111   3.620   8.002
 4121SOL    HW213251   2.161   3.578   7.865
 4122SOL     OW13252   2.078   3.302   7.990
 4122SOL    HW113253   2.059   3.396   7.990
 4122SOL    HW213254   2.026   3.266   8.061
 4123SOL     OW13255   2.411   2.861   7.565
 4123SOL    HW113256   2.454   2.926   7.508
 4123SOL    HW213257   2.483   2.816   7.609
 4124SOL     OW13258   3.700   3.620   7.797
 4124SOL    HW113259   3.771   3.590   7.853
 4124SOL    HW213260   3.725   3.709   7.771
 4125SOL     OW13261   1.892   3.461   7.578
 4125SOL    HW113262   1.877   3.367   7.593
 4125SOL    HW213263   1.866   3.503   7.659
 4126SOL     OW13264   3.543   2.726   8.035
 4126SOL    HW113265   3.623   2.738   0.006
 4126SOL    HW213266   3.531   2.810   7.990
 4127SOL     OW13267   3.518   2.959   7.878
 4127SOL    HW113268   3.605   2.986   7.849
 4127SOL    HW213269   3.486   3.032   7.932
 4128SOL     OW13270   2.665   1.858   7.941
 4128SOL    HW113271   2.713   1.939   7.921
 4128SOL    HW213272   2.574   1.885   7.947
 4129SOL     OW13273   3.399   2.856   7.649
 4129SOL    HW113274   3.335   2.794   7.683
 4129SOL    HW213275   3.441   2.892   7.727
 4130SOL     OW13276   3.436   3.534   7.757
 4130SOL    HW113277   3.527   3.562   7.766
 4130SOL    HW213278   3.423   3.521   7.663
 4131SOL     OW13279   1.918   2.722   0.086
 4131SOL    HW113280   1.988   2.659   0.106
 4131SOL    HW213281   1.920   2.784   0.159
 4132SOL     OW13282   2.738   2.189   7.644
 4132SOL    HW113283   2.760   2.271   7.600
 4132SOL    HW213284   2.797   2.124   7.605
 4133SOL     OW13285   2.170   2.817   7.691
 4133SOL    HW113286   2.255   2.835   7.649
 4133SOL    HW213287   2.149   2.727   7.665
 4134SOL     OW13288   2.986   3.639   7.684
 4134SOL    HW113289   2.909   3.598   7.724
 4134SOL    HW213290   3.011   3.580   7.613
 4135SOL     OW13291   3.489   3.242   7.534
 4135SOL    HW113292   3.448   3.328   7.521
 4135SOL    HW213293   3.419   3.179   7.518
 4136SOL     OW13294   2.328   3.601   7.770
 4136SOL    HW113295   2.378   3.653   7.832
 4136SOL    HW213296   2.395   3.563   7.712
 4137SOL     OW13297   3.279   1.995   7.864
 4137SOL    HW113298   3.266   1.960   7.776
 4137SOL    HW213299   3.374   1.993   7.877
 4138SOL     OW13300   2.478   1.975   7.569
 4138SOL    HW113301   2.567   1.938   7.571
 4138SOL    HW213302   2.445   1.952   7.482
 4139SOL     OW13303   2.393   1.933   7.963
 4139SOL    HW113304   2.305   1.932   8.000
 4139SOL    HW213305   2.391   2.001   7.896
 4140SOL     OW13306   3.290   3.058   7.492
 4140SOL    HW113307   3.327   2.985   7.542
 4140SOL    HW213308   3.201   3.066   7.525
 4141SOL     OW13309   2.155   1.911   7.632
 4141SOL    HW113310   2.213   1.968   7.582
 4141SOL    HW213311   2.213   1.846   7.672
 4142SOL     OW13312   2.802   2.092   7.908
 4142SOL    HW113313   2.766   2.143   7.835
 4142SOL    HW213314   2.892   2.122   7.916
 4143SOL     OW13315   2.298   3.040   0.086
 4143SOL    HW113316   2.221   3.028   0.141
 4143SOL    HW213317   2.271   3.012   8.079
 4144SOL     OW13318   3.153   3.674   8.014
 4144SOL    HW113319   3.189   3.742   7.958
 4144SOL    HW213320   3.067   3.707   8.040
 4145SOL     OW13321   2.900   2.374   7.479
 4145SOL    HW113322   2.853   2.455   7.456
 4145SOL    HW213323   2.956   2.399   7.552
 4146SOL     OW13324   3.736   2.677   7.802
 4146SOL    HW113325   3.723   2.652   7.894
 4146SOL    HW213326   3.695   2.606   7.752
 4147SOL     OW13327   2.352   3.275   7.607
 4147SOL    HW113328   2.276   3.249   7.658
 4147SOL    HW213329   2.337   3.236   7.520
 4148SOL     OW13330   3.256   2.434   7.520
 4148SOL    HW113331   3.195   2.412   7.591
 4148SOL    HW213332   3.341   2.400   7.549
 4149SOL     OW13333   2.385   2.120   7.774
 4149SOL    HW113334   2.418   2.065   7.703
 4149SOL    HW213335   2.406   2.210   7.746
 4150SOL     OW13336   2.232   2.964   7.918
 4150SOL    HW113337   2.203   3.041   7.869
 4150SOL    HW213338   2.213   2.890   7.860
 4151SOL     OW13339   3.087   3.215   7.825
 4151SOL    HW113340   3.146   3.286   7.849
 4151SOL    HW213341   3.053   3.183   7.908
 4152SOL     OW13342   3.450   2.489   7.921
 4152SOL    HW113343   3.441   2.550   7.994
 4152SOL    HW213344   3.485   2.542   7.850
 4153SOL     OW13345   3.065   2.390   7.716
 4153SOL    HW113346   3.063   2.308   7.764
 4153SOL    HW213347   3.055   2.458   7.783
 4154SOL     OW13348   3.481   2.241   7.813
 4154SOL    HW113349   3.503   2.175   7.879
 4154SOL    HW213350   3.457   2.318   7.865
 4155SOL     OW13351   3.391   2.137   7.575
 4155SOL    HW113352   3.325   2.072   7.600
 4155SOL    HW213353   3.423   2.172   7.658
 4156SOL     OW13354   3.155   2.689   7.482
 4156SOL    HW113355   3.192   2.601   7.484
 4156SOL    HW213356   3.183   2.724   7.398
 4157SOL     OW13357   1.868   3.186   7.640
 4157SOL    HW113358   1.780   3.198   7.603
 4157SOL    HW213359   1.867   3.096   7.674
 4158SOL     OW13360   3.191   2.700   7.753
 4158SOL    HW113361   3.108   2.723   7.796
 4158SOL    HW213362   3.169   2.692   7.660
 4159SOL     OW13363   3.575   2.010   7.947
 4159SOL    HW113364   3.651   2.003   7.889
 4159SOL    HW213365   3.578   1.931   8.000
 4160SOL     OW13366   3.225   3.439   7.896
 4160SOL    HW113367   3.299   3.459   7.840
 4160SOL    HW213368   3.193   3.525   7.926
 4161SOL     OW13369   2.527   3.483   7.603
 4161SOL    HW113370   2.541   3.494   7.509
 4161SOL    HW213371   2.476   3.402   7.611
 4162SOL     OW13372   3.073   3.480   7.479
 4162SOL    HW113373   3.059   3.391   7.511
 4162SOL    HW213374   3.008   3.491   7.410
 4163SOL     OW13375   3.355   3.489   7.489
 4163SOL    HW113376   3.261   3.483   7.476
 4163SOL    HW213377   3.391   3.494   7.400
 4164SOL     OW13378   2.473   3.377   7.936
 4164SOL    HW113379   2.516   3.318   7.874
 4164SOL    HW213380   2.392   3.403   7.892
 4165SOL     OW13381   2.120   3.209   7.742
 4165SOL    HW113382   2.028   3.205   7.716
 4165SOL    HW213383   2.119   3.244   7.830
 4166SOL     OW13384   1.941   2.194   7.483
 4166SOL    HW113385   1.853   2.176   7.451
 4166SOL    HW213386   1.970   2.270   7.431
 4167SOL     OW13387   1.930   2.017   7.757
 4167SOL    HW113388   1.915   2.096   7.705
 4167SOL    HW213389   2.014   1.982   7.725
 4168SOL     OW13390   3.039   3.224   7.561
 4168SOL    HW113391   2.961   3.168   7.557
 4168SOL    HW213392   3.066   3.221   7.652
 4169SOL     OW13393   3.075   2.180   7.901
 4169SOL    HW113394   3.150   2.122   7.893
 4169SOL    HW213395   3.091   2.228   7.982
 4170SOL     OW13396   2.727   3.230   7.476
 4170SOL    HW113397   2.696   3.256   7.563
 4170SOL    HW213398   2.748   3.313   7.432
 4171SOL     OW13399   3.026   2.935   7.529
 4171SOL    HW113400   2.992   2.962   7.443
 4171SOL    HW213401   3.075   2.855   7.511
 4172SOL     OW13402   2.214   2.246   7.985
 4172SOL    HW113403   2.269   2.212   7.914
 4172SOL    HW213404   2.264   2.229   8.064
 4173SOL     OW13405   2.636   3.205   7.759
 4173SOL    HW113406   2.591   3.121   7.764
 4173SOL    HW213407   2.711   3.196   7.819
 4174SOL     OW13408   3.215   1.915   7.611
 4174SOL    HW113409   3.244   1.847   7.549
 4174SOL    HW213410   3.128   1.885   7.638
 4175SOL     OW13411   1.915   2.940   7.748
 4175SOL    HW113412   2.007   2.925   7.730
 4175SOL    HW213413   1.879   2.853   7.765
 4176SOL     OW13414   2.755   3.515   7.780
 4176SOL    HW113415   2.679   3.490   7.728
 4176SOL    HW213416   2.721   3.577   7.844
 4177SOL     OW13417   2.079   4.347   0.123
 4177SOL    HW113418   1.999   4.312   0.162
 4177SOL    HW213419   2.101   4.284   0.053
 4178SOL     OW13420   2.087   4.006   0.992
 4178SOL    HW113421   2.115   3.971   1.077
 4178SOL    HW213422   1.997   3.974   0.982
 4179SOL     OW13423   1.865   4.107   0.638
 4179SOL    HW113424   1.783   4.133   0.679
 4179SOL    HW213425   1.843   4.027   0.590
 4180SOL     OW13426   2.429   5.007   1.180
 4180SOL    HW113427   2.344   5.005   1.136
 4180SOL    HW213428   2.440   5.099   1.206
 4181SOL     OW13429   3.419   5.233   0.687
 4181SOL    HW113430   3.396   5.230   0.781
 4181SOL    HW213431   3.341   5.269   0.645
 4182SOL     OW13432   2.993   4.422   0.700
 4182SOL    HW113433   3.041   4.503   0.686
 4182SOL    HW213434   2.946   4.436   0.783
 4183SOL     OW13435   3.632   4.324   0.232
 4183SOL    HW113436   3.593   4.326   0.145
 4183SOL    HW213437   3.592   4.248   0.275
 4184SOL     OW13438   2.616   4.867   1.039
 4184SOL    HW113439   2.550   4.899   1.100
 4184SOL    HW213440   2.647   4.945   0.993
 4185SOL     OW13441   2.731   4.496   1.822
 4185SOL    HW113442   2.717   4.567   1.885
 4185SOL    HW213443   2.754   4.540   1.741
 4186SOL     OW13444   2.546   4.723   0.651
 4186SOL    HW113445   2.612   4.714   0.719
 4186SOL    HW213446   2.478   4.779   0.690
 4187SOL     OW13447   2.571   4.871   1.812
 4187SOL    HW113448   2.619   4.951   1.837
 4187SOL    HW213449   2.488   4.903   1.777
 4188SOL     OW13450   2.199   5.149   1.059
 4188SOL    HW113451   2.121   5.104   1.026
 4188SOL    HW213452   2.237   5.192   0.983
 4189SOL     OW13453   3.317   5.221   1.348
 4189SOL    HW113454   3.371   5.293   1.379
 4189SOL    HW213455   3.249   5.211   1.415
 4190SOL     OW13456   2.312   4.122   1.485
 4190SOL    HW113457   2.387   4.062   1.492
 4190SOL    HW213458   2.235   4.066   1.500
 4191SOL     OW13459   3.473   4.171   0.741
 4191SOL    HW113460   3.398   4.193   0.686
 4191SOL    HW213461   3.486   4.248   0.796
 4192SOL     OW13462   2.995   5.073   1.702
 4192SOL    HW113463   3.025   5.074   1.793
 4192SOL    HW213464   2.942   4.994   1.695
 4193SOL     OW13465   2.069   5.156   0.515
 4193SOL    HW113466   2.098   5.237   0.557
 4193SOL    HW213467   2.018   5.111   0.583
 4194SOL     OW13468   2.121   4.811   0.892
 4194SOL    HW113469   2.118   4.724   0.931
 4194SOL    HW213470   2.064   4.864   0.947
 4195SOL     OW13471   2.490   4.684   0.134
 4195SOL    HW113472   2.437   4.760   0.109
 4195SOL    HW213473   2.540   4.714   0.209
 4196SOL     OW13474   3.458   3.848   1.467
 4196SOL    HW113475   3.469   3.929   1.417
 4196SOL    HW213476   3.443   3.878   1.557
 4197SOL     OW13477   1.977   4.375   0.563
 4197SOL    HW113478   1.947   4.286   0.584
 4197SOL    HW213479   1.969   4.423   0.645
 4198SOL     OW13480   1.838   0.021   0.094
 4198SOL    HW113481   1.853   5.230   0.121
 4198SOL    HW213482   1.868   0.073   0.168
 4199SOL     OW13483   3.548   4.641   0.644
 4199SOL    HW113484   3.632   4.599   0.622
 4199SOL    HW213485   3.527   4.694   0.566
 4200SOL     OW13486   3.508   4.829   0.434
 4200SOL    HW113487   3.590   4.839   0.386
 4200SOL    HW213488   3.515   4.890   0.507
 4201SOL     OW13489   1.985   4.467   1.585
 4201SOL    HW113490   2.077   4.493   1.592
 4201SOL    HW213491   1.936   4.549   1.593
 4202SOL     OW13492   2.484   5.099   0.739
 4202SOL    HW113493   2.430   5.020   0.735
 4202SOL    HW213494   2.467   5.144   0.656
 4203SOL     OW13495   3.150   4.953   1.426
 4203SOL    HW113496   3.184   4.888   1.365
 4203SOL    HW213497   3.211   4.951   1.500
 4204SOL     OW13498   2.678   3.727   0.510
 4204SOL    HW113499   2.718   3.811   0.488
 4204SOL    HW213500   2.585   3.745   0.518
 4205SOL     OW13501   2.052   4.689   1.271
 4205SOL    HW113502   2.137   4.647   1.257
 4205SOL    HW213503   1.990   4.635   1.222
 4206SOL     OW13504   3.370   4.735   0.211
 4206SOL    HW113505   3.309   4.669   0.244
 4206SOL    HW213506   3.423   4.759   0.287
 4207SOL     OW13507   2.197   3.974   1.814
 4207SOL    HW113508   2.240   4.058   1.831
 4207SOL    HW213509   2.107   3.987   1.843
 4208SOL     OW13510   3.340   5.147   0.962
 4208SOL    HW113511   3.266   5.160   1.022
 4208SOL    HW213512   3.327   5.059   0.928
 4209SOL     OW13513   2.460   4.437   0.283
 4209SOL    HW113514   2.479   4.515   0.231
 4209SOL    HW213515   2.396   4.465   0.348
 4210SOL     OW13516   3.141   4.078   0.933
 4210SOL    HW113517   3.051   4.045   0.941
 4210SOL    HW213518   3.192   4.025   0.993
 4211SOL     OW13519   2.654   4.342   1.450
 4211SOL    HW113520   2.628   4.318   1.539
 4211SOL    HW213521   2.614   4.274   1.395
 4212SOL     OW13522   3.255   4.198   1.678
 4212SOL    HW113523   3.258   4.243   1.762
 4212SOL    HW213524   3.316   4.125   1.687
 4213SOL     OW13525   2.816   4.612   1.583
 4213SOL    HW113526   2.871   4.542   1.548
 4213SOL    HW213527   2.768   4.645   1.508
 4214SOL     OW13528   2.855   4.136   1.238
 4214SOL    HW113529   2.768   4.157   1.274
 4214SOL    HW213530   2.836   4.090   1.156
 4215SOL     OW13531   2.915   4.423   0.427
 4215SOL    HW113532   2.931   4.416   0.522
 4215SOL    HW213533   2.832   4.377   0.414
 4216SOL     OW13534   1.950   4.546   0.776
 4216SOL    HW113535   2.031   4.539   0.827
 4216SOL    HW213536   1.906   4.623   0.812
 4217SOL     OW13537   2.747   4.081   0.202
 4217SOL    HW113538   2.792   4.132   0.134
 4217SOL    HW213539   2.748   3.991   0.170
 4218SOL     OW13540   3.569   4.297   1.828
 4218SOL    HW113541   3.532   4.371   1.780
 4218SOL    HW213542   3.598   4.236   1.760
 4219SOL     OW13543   3.239   4.863   0.539
 4219SOL    HW113544   3.319   4.851   0.489
 4219SOL    HW213545   3.188   4.926   0.487
 4220SOL     OW13546   2.412   3.905   0.893
 4220SOL    HW113547   2.414   3.934   0.985
 4220SOL    HW213548   2.414   3.987   0.843
 4221SOL     OW13549   2.877   5.163   0.470
 4221SOL    HW113550   2.804   5.224   0.470
 4221SOL    HW213551   2.900   5.153   0.562
 4222SOL     OW13552   3.662   4.780   0.867
 4222SOL    HW113553   3.605   4.762   0.792
 4222SOL    HW213554   3.603   4.787   0.942
 4223SOL     OW13555   3.113   5.239   1.525
 4223SOL    HW113556   3.077   5.173   1.583
 4223SOL    HW213557   3.040   5.263   1.467
 4224SOL     OW13558   2.187   4.665   0.256
 4224SOL    HW113559   2.255   4.708   0.203
 4224SOL    HW213560   2.190   4.573   0.229
 4225SOL     OW13561   3.341   4.466   0.726
 4225SOL    HW113562   3.334   4.425   0.812
 4225SOL    HW213563   3.418   4.523   0.733
 4226SOL     OW13564   2.327   4.988   1.741
 4226SOL    HW113565   2.300   4.990   1.649
 4226SOL    HW213566   2.244   4.987   1.790
 4227SOL     OW13567   3.021   0.157   0.237
 4227SOL    HW113568   2.938   0.178   0.280
 4227SOL    HW213569   2.996   0.136   0.146
 4228SOL     OW13570   2.063   4.004   1.502
 4228SOL    HW113571   1.981   4.053   1.498
 4228SOL    HW213572   2.045   3.931   1.560
 4229SOL     OW13573   3.492   5.094   0.077
 4229SOL    HW113574   3.453   5.180   0.094
 4229SOL    HW213575   3.417   5.036   0.062
 4230SOL     OW13576   3.270   3.835   0.446
 4230SOL    HW113577   3.261   3.814   0.353
 4230SOL    HW213578   3.364   3.843   0.460
 4231SOL     OW13579   2.249   4.421   0.477
 4231SOL    HW113580   2.272   4.329   0.488
 4231SOL    HW213581   2.156   4.426   0.499
 4232SOL     OW13582   3.396   3.949   1.725
 4232SOL    HW113583   3.406   3.970   1.818
 4232SOL    HW213584   3.327   3.883   1.722
 4233SOL     OW13585   2.492   3.833   0.137
 4233SOL    HW113586   2.587   3.822   0.143
 4233SOL    HW213587   2.472   3.815   0.045
 4234SOL     OW13588   2.628   4.002   1.754
 4234SOL    HW113589   2.704   3.945   1.755
 4234SOL    HW213590   2.580   3.978   1.834
 4235SOL     OW13591   3.202   4.313   1.432
 4235SOL    HW113592   3.233   4.282   1.517
 4235SOL    HW213593   3.238   4.401   1.424
 4236SOL     OW13594   2.675   5.118   0.937
 4236SOL    HW113595   2.756   5.106   0.887
 4236SOL    HW213596   2.607   5.125   0.871
 4237SOL     OW13597   2.790   4.233   0.902
 4237SOL    HW113598   2.766   4.225   0.810
 4237SOL    HW213599   2.821   4.146   0.927
 4238SOL     OW13600   2.412   3.787   0.504
 4238SOL    HW113601   2.332   3.786   0.557
 4238SOL    HW213602   2.405   3.866   0.451
 4239SOL     OW13603   3.287   4.925   0.035
 4239SOL    HW113604   3.315   4.852   0.089
 4239SOL    HW213605   3.201   4.949   0.069
 4240SOL     OW13606   2.174   3.781   0.170
 4240SOL    HW113607   2.239   3.849   0.187
 4240SOL    HW213608   2.209   3.702   0.212
 4241SOL     OW13609   2.802   3.971   0.458
 4241SOL    HW113610   2.775   4.013   0.376
 4241SOL    HW213611   2.897   3.987   0.463
 4242SOL     OW13612   2.942   4.405   1.460
 4242SOL    HW113613   2.874   4.338   1.464
 4242SOL    HW213614   3.024   4.356   1.453
 4243SOL     OW13615   3.124   5.265   0.781
 4243SOL    HW113616   3.085   0.046   0.748
 4243SOL    HW213617   3.170   5.290   0.860
 4244SOL     OW13618   2.327   4.873   0.729
 4244SOL    HW113619   2.260   4.853   0.794
 4244SOL    HW213620   2.286   4.856   0.645
 4245SOL     OW13621   2.893   4.250   0.032
 4245SOL    HW113622   2.852   4.332   0.002
 4245SOL    HW213623   2.956   4.278   0.099
 4246SOL     OW13624   1.942   4.279   1.392
 4246SOL    HW113625   2.034   4.277   1.365
 4246SOL    HW213626   1.937   4.348   1.457
 4247SOL     OW13627   2.421   3.951   1.166
 4247SOL    HW113628   2.463   3.875   1.207
 4247SOL    HW213629   2.330   3.947   1.196
 4248SOL     OW13630   2.728   4.182   0.639
 4248SOL    HW113631   2.688   4.238   0.573
 4248SOL    HW213632   2.751   4.102   0.591
 4249SOL     OW13633   2.879   3.777   0.749
 4249SOL    HW113634   2.819   3.771   0.675
 4249SOL    HW213635   2.856   3.703   0.805
 4250SOL     OW13636   3.300   4.890   0.859
 4250SOL    HW113637   3.232   4.822   0.855
 4250SOL    HW213638   3.325   4.903   0.767
 4251SOL     OW13639   3.328   4.330   0.975
 4251SOL    HW113640   3.276   4.249   0.979
 4251SOL    HW213641   3.387   4.324   1.050
 4252SOL     OW13642   3.710   4.538   0.388
 4252SOL    HW113643   3.763   4.486   0.448
 4252SOL    HW213644   3.680   4.476   0.322
 4253SOL     OW13645   2.326   5.161   0.153
 4253SOL    HW113646   2.280   5.106   0.216
 4253SOL    HW213647   2.369   5.099   0.094
 4254SOL     OW13648   3.532   4.988   0.647
 4254SOL    HW113649   3.626   4.995   0.665
 4254SOL    HW213650   3.498   5.076   0.663
 4255SOL     OW13651   3.260   4.301   0.087
 4255SOL    HW113652   3.198   4.283   0.158
 4255SOL    HW213653   3.314   4.222   0.082
 4256SOL     OW13654   2.378   3.988   0.323
 4256SOL    HW113655   2.429   3.936   0.261
 4256SOL    HW213656   2.365   4.072   0.279
 4257SOL     OW13657   3.613   4.960   1.574
 4257SOL    HW113658   3.699   4.918   1.574
 4257SOL    HW213659   3.632   5.053   1.586
 4258SOL     OW13660   2.926   5.073   1.330
 4258SOL    HW113661   2.848   5.048   1.378
 4258SOL    HW213662   2.998   5.034   1.379
 4259SOL     OW13663   2.989   4.925   1.107
 4259SOL    HW113664   2.940   4.967   1.177
 4259SOL    HW213665   2.944   4.952   1.027
 4260SOL     OW13666   3.490   4.822   1.076
 4260SOL    HW113667   3.485   4.883   1.149
 4260SOL    HW213668   3.413   4.841   1.023
 4261SOL     OW13669   2.780   3.821   1.395
 4261SOL    HW113670   2.803   3.802   1.304
 4261SOL    HW213671   2.859   3.860   1.432
 4262SOL     OW13672   2.846   4.839   1.726
 4262SOL    HW113673   2.754   4.855   1.745
 4262SOL    HW213674   2.846   4.762   1.668
 4263SOL     OW13675   2.573   4.784   0.381
 4263SOL    HW113676   2.556   4.767   0.474
 4263SOL    HW213677   2.652   4.735   0.361
 4264SOL     OW13678   2.281   4.539   1.251
 4264SOL    HW113679   2.349   4.549   1.318
 4264SOL    HW213680   2.246   4.451   1.265
 4265SOL     OW13681   3.127   4.100   1.276
 4265SOL    HW113682   3.160   4.178   1.322
 4265SOL    HW213683   3.036   4.122   1.254
 4266SOL     OW13684   2.203   4.832   0.490
 4266SOL    HW113685   2.205   4.904   0.427
 4266SOL    HW213686   2.213   4.753   0.436
 4267SOL     OW13687   2.413   4.259   0.859
 4267SOL    HW113688   2.428   4.318   0.785
 4267SOL    HW213689   2.479   4.285   0.924
 4268SOL     OW13690   3.119   5.073   0.385
 4268SOL    HW113691   3.173   5.148   0.410
 4268SOL    HW213692   3.030   5.098   0.412
 4269SOL     OW13693   3.132   5.182   1.142
 4269SOL    HW113694   3.192   5.197   1.215
 4269SOL    HW213695   3.088   5.100   1.162
 4270SOL     OW13696   3.444   4.347   0.483
 4270SOL    HW113697   3.394   4.396   0.548
 4270SOL    HW213698   3.478   4.413   0.424
 4271SOL     OW13699   2.210   5.236   1.313
 4271SOL    HW113700   2.199   5.200   1.225
 4271SOL    HW213701   2.304   5.256   1.319
 4272SOL     OW13702   2.277   4.469   1.602
 4272SOL    HW113703   2.339   4.513   1.544
 4272SOL    HW213704   2.316   4.383   1.619
 4273SOL     OW13705   3.465   4.503   1.683
 4273SOL    HW113706   3.378   4.545   1.676
 4273SOL    HW213707   3.517   4.545   1.614
 4274SOL     OW13708   2.858   3.849   1.755
 4274SOL    HW113709   2.915   3.921   1.728
 4274SOL    HW213710   2.906   3.770   1.729
 4275SOL     OW13711   2.359   3.763   1.748
 4275SOL    HW113712   2.315   3.709   1.682
 4275SOL    HW213713   2.301   3.838   1.761
 4276SOL     OW13714   2.445   4.597   1.031
 4276SOL    HW113715   2.476   4.687   1.030
 4276SOL    HW213716   2.389   4.591   1.109
 4277SOL     OW13717   3.218   4.582   1.027
 4277SOL    HW113718   3.134   4.571   0.982
 4277SOL    HW213719   3.260   4.496   1.021
 4278SOL     OW13720   3.065   4.251   0.271
 4278SOL    HW113721   3.072   4.173   0.325
 4278SOL    HW213722   3.022   4.315   0.327
 4279SOL     OW13723   2.160   3.922   1.247
 4279SOL    HW113724   2.123   3.954   1.329
 4279SOL    HW213725   2.141   3.828   1.247
 4280SOL     OW13726   1.917   5.047   1.285
 4280SOL    HW113727   1.940   4.982   1.351
 4280SOL    HW213728   1.950   5.130   1.320
 4281SOL     OW13729   2.585   4.354   1.056
 4281SOL    HW113730   2.660   4.339   1.000
 4281SOL    HW213731   2.557   4.443   1.036
 4282SOL     OW13732   3.597   4.684   1.853
 4282SOL    HW113733   3.552   4.621   1.797
 4282SOL    HW213734   3.537   4.698   1.926
 4283SOL     OW13735   2.165   3.788   0.624
 4283SOL    HW113736   2.146   3.879   0.647
 4283SOL    HW213737   2.173   3.743   0.708
 4284SOL     OW13738   3.484   4.100   0.369
 4284SOL    HW113739   3.508   4.035   0.434
 4284SOL    HW213740   3.458   4.177   0.419
 4285SOL     OW13741   2.890   4.483   0.960
 4285SOL    HW113742   2.886   4.500   1.054
 4285SOL    HW213743   2.863   4.391   0.952
 4286SOL     OW13744   3.716   5.213   1.583
 4286SOL    HW113745   3.708   5.290   1.527
 4286SOL    HW213746   3.785   5.236   1.645
 4287SOL     OW13747   2.215   4.641   1.808
 4287SOL    HW113748   2.297   4.659   1.855
 4287SOL    HW213749   2.240   4.578   1.741
 4288SOL     OW13750   3.378   4.027   0.127
 4288SOL    HW113751   3.329   3.946   0.143
 4288SOL    HW213752   3.419   4.048   0.211
 4289SOL     OW13753   3.157   4.547   0.019
 4289SOL    HW113754   3.195   4.461   0.038
 4289SOL    HW213755   3.218   4.587   8.037
 4290SOL     OW13756   2.919   5.080   0.825
 4290SOL    HW113757   2.925   4.995   0.782
 4290SOL    HW213758   3.005   5.120   0.812
 4291SOL     OW13759   2.171   4.532   0.946
 4291SOL    HW113760   2.264   4.553   0.941
 4291SOL    HW213761   2.168   4.442   0.979
 4292SOL     OW13762   2.192   4.251   1.012
 4292SOL    HW113763   2.157   4.163   0.998
 4292SOL    HW213764   2.269   4.256   0.955
 4293SOL     OW13765   2.996   4.099   1.683
 4293SOL    HW113766   2.948   4.154   1.745
 4293SOL    HW213767   3.083   4.138   1.679
 4294SOL     OW13768   3.023   3.926   1.471
 4294SOL    HW113769   3.012   3.989   1.542
 4294SOL    HW213770   3.063   3.976   1.400
 4295SOL     OW13771   1.874   5.043   0.176
 4295SOL    HW113772   1.786   5.056   0.142
 4295SOL    HW213773   1.872   4.957   0.218
 4296SOL     OW13774   2.843   4.515   1.226
 4296SOL    HW113775   2.900   4.493   1.299
 4296SOL    HW213776   2.758   4.477   1.250
 4297SOL     OW13777   1.898   4.269   1.116
 4297SOL    HW113778   1.979   4.257   1.067
 4297SOL    HW213779   1.926   4.272   1.208
 4298SOL     OW13780   2.053   4.244   1.728
 4298SOL    HW113781   2.109   4.204   1.661
 4298SOL    HW213782   2.012   4.318   1.684
 4299SOL     OW13783   3.239   4.662   1.658
 4299SOL    HW113784   3.260   4.755   1.655
 4299SOL    HW213785   3.236   4.635   1.566
 4300SOL     OW13786   2.681   4.293   0.369
 4300SOL    HW113787   2.690   4.222   0.306
 4300SOL    HW213788   2.605   4.343   0.339
 4301SOL     OW13789   3.504   4.325   1.184
 4301SOL    HW113790   3.494   4.267   1.260
 4301SOL    HW213791   3.591   4.306   1.150
 4302SOL     OW13792   2.067   5.276   1.746
 4302SOL    HW113793   2.051   0.028   1.824
 4302SOL    HW213794   2.079   5.187   1.778
 4303SOL     OW13795   2.565   4.173   1.258
 4303SOL    HW113796   2.511   4.100   1.229
 4303SOL    HW213797   2.561   4.237   1.186
 4304SOL     OW13798   2.330   4.215   0.177
 4304SOL    HW113799   2.397   4.280   0.197
 4304SOL    HW213800   2.247   4.261   0.190
 4305SOL     OW13801   2.006   4.863   1.471
 4305SOL    HW113802   2.008   4.812   1.552
 4305SOL    HW213803   2.024   4.799   1.402
 4306SOL     OW13804   3.188   4.768   1.222
 4306SOL    HW113805   3.211   4.706   1.153
 4306SOL    HW213806   3.117   4.821   1.184
 4307SOL     OW13807   3.169   4.572   0.307
 4307SOL    HW113808   3.092   4.544   0.357
 4307SOL    HW213809   3.143   4.561   0.216
 4308SOL     OW13810   1.956   4.987   1.022
 4308SOL    HW113811   1.936   5.005   1.113
 4308SOL    HW213812   1.876   4.949   0.986
 4309SOL     OW13813   2.615   0.037   1.709
 4309SOL    HW113814   2.523   0.059   1.721
 4309SOL    HW213815   2.635   0.062   1.619
 4310SOL     OW13816   2.767   3.816   0.132
 4310SOL    HW113817   2.782   3.798   0.039
 4310SOL    HW213818   2.833   3.763   0.177
 4311SOL     OW13819   3.581   3.870   0.509
 4311SOL    HW113820   3.653   3.854   0.448
 4311SOL    HW213821   3.566   3.786   0.551
 4312SOL     OW13822   3.139   4.649   0.672
 4312SOL    HW113823   3.213   4.589   0.679
 4312SOL    HW213824   3.173   4.721   0.618
 4313SOL     OW13825   2.679   4.993   1.418
 4313SOL    HW113826   2.648   5.028   1.502
 4313SOL    HW213827   2.605   5.002   1.359
 4314SOL     OW13828   3.703   3.896   0.966
 4314SOL    HW113829   3.732   3.809   0.940
 4314SOL    HW213830   3.616   3.906   0.927
 4315SOL     OW13831   2.123   4.039   0.717
 4315SOL    HW113832   2.037   4.075   0.694
 4315SOL    HW213833   2.121   4.032   0.812
 4316SOL     OW13834   3.002   0.018   0.002
 4316SOL    HW113835   3.016   5.229   0.032
 4316SOL    HW213836   3.008   0.013   7.986
 4317SOL     OW13837   2.687   4.727   1.370
 4317SOL    HW113838   2.734   4.720   1.287
 4317SOL    HW213839   2.690   4.820   1.392
 4318SOL     OW13840   2.782   4.639   0.300
 4318SOL    HW113841   2.836   4.665   0.225
 4318SOL    HW213842   2.829   4.567   0.340
 4319SOL     OW13843   2.227   5.026   1.497
 4319SOL    HW113844   2.216   5.100   1.436
 4319SOL    HW213845   2.151   4.970   1.480
 4320SOL     OW13846   3.474   5.004   1.282
 4320SOL    HW113847   3.531   4.997   1.359
 4320SOL    HW213848   3.412   5.073   1.305
 4321SOL     OW13849   2.918   4.834   0.713
 4321SOL    HW113850   2.845   4.782   0.749
 4321SOL    HW213851   2.979   4.769   0.679
 4322SOL     OW13852   2.884   3.964   0.966
 4322SOL    HW113853   2.880   3.916   0.883
 4322SOL    HW213854   2.878   3.896   1.033
 4323SOL     OW13855   3.585   4.116   1.380
 4323SOL    HW113856   3.656   4.179   1.379
 4323SOL    HW213857   3.614   4.045   1.324
 4324SOL     OW13858   2.127   5.026   0.289
 4324SOL    HW113859   2.046   5.042   0.240
 4324SOL    HW213860   2.117   5.078   0.369
 4325SOL     OW13861   1.974   4.747   1.719
 4325SOL    HW113862   1.898   4.723   1.772
 4325SOL    HW213863   2.049   4.709   1.765
 4326SOL     OW13864   2.537   3.920   1.499
 4326SOL    HW113865   2.621   3.900   1.458
 4326SOL    HW213866   2.560   3.952   1.587
 4327SOL     OW13867   1.920   4.086   0.039
 4327SOL    HW113868   1.843   4.034   0.015
 4327SOL    HW213869   1.969   4.095   8.037
 4328SOL     OW13870   3.291   4.581   1.399
 4328SOL    HW113871   3.242   4.642   1.344
 4328SOL    HW213872   3.380   4.584   1.365
 4329SOL     OW13873   1.933   3.877   0.303
 4329SOL    HW113874   1.917   3.963   0.262
 4329SOL    HW213875   2.017   3.849   0.267
 4330SOL     OW13876   3.045   5.063   0.111
 4330SOL    HW113877   2.950   5.050   0.108
 4330SOL    HW213878   3.066   5.059   0.204
 4331SOL     OW13879   2.481   4.555   1.434
 4331SOL    HW113880   2.538   4.630   1.418
 4331SOL    HW213881   2.541   4.481   1.442
 4332SOL     OW13882   2.580   4.287   1.703
 4332SOL    HW113883   2.621   4.349   1.763
 4332SOL    HW213884   2.605   4.201   1.736
 4333SOL     OW13885   3.336   4.922   1.630
 4333SOL    HW113886   3.323   4.935   1.724
 4333SOL    HW213887   3.430   4.936   1.617
 4334SOL     OW13888   3.531   4.605   1.255
 4334SOL    HW113889   3.525   4.520   1.212
 4334SOL    HW213890   3.520   4.669   1.184
 4335SOL     OW13891   3.079   4.041   0.460
 4335SOL    HW113892   3.144   3.971   0.454
 4335SOL    HW213893   3.106   4.093   0.536
 4336SOL     OW13894   2.450   4.460   0.670
 4336SOL    HW113895   2.490   4.546   0.657
 4336SOL    HW213896   2.382   4.455   0.603
 4337SOL     OW13897   3.623   4.086   1.651
 4337SOL    HW113898   3.607   4.102   1.558
 4337SOL    HW213899   3.551   4.030   1.679
 4338SOL     OW13900   3.607   4.657   1.512
 4338SOL    HW113901   3.602   4.752   1.525
 4338SOL    HW213902   3.592   4.645   1.418
 4339SOL     OW13903   2.773   5.096   0.038
 4339SOL    HW113904   2.713   5.077   0.110
 4339SOL    HW213905   2.726   5.158   8.063
 4340SOL     OW13906   2.730   4.692   0.855
 4340SOL    HW113907   2.780   4.620   0.895
 4340SOL    HW213908   2.695   4.741   0.930
 4341SOL     OW13909   2.942   4.701   0.088
 4341SOL    HW113910   2.921   4.756   0.013
 4341SOL    HW213911   3.018   4.650   0.061
 4342SOL     OW13912   2.084   5.023   1.852
 4342SOL    HW113913   2.017   4.960   1.827
 4342SOL    HW213914   2.073   5.033   1.947
 4343SOL     OW13915   1.950   4.954   0.670
 4343SOL    HW113916   1.947   4.902   0.750
 4343SOL    HW213917   2.018   4.912   0.617
 4344SOL     OW13918   2.534   5.105   1.608
 4344SOL    HW113919   2.457   5.073   1.656
 4344SOL    HW213920   2.566   5.178   1.661
 4345SOL     OW13921   3.674   3.908   1.237
 4345SOL    HW113922   3.685   3.814   1.252
 4345SOL    HW213923   3.684   3.919   1.143
 4346SOL     OW13924   2.286   4.160   0.524
 4346SOL    HW113925   2.320   4.089   0.470
 4346SOL    HW213926   2.241   4.116   0.596
 4347SOL     OW13927   3.569   5.224   1.118
 4347SOL    HW113928   3.495   5.208   1.060
 4347SOL    HW213929   3.575   5.145   1.172
 4348SOL     OW13930   2.193   4.280   1.292
 4348SOL    HW113931   2.248   4.225   1.347
 4348SOL    HW213932   2.212   4.251   1.203
 4349SOL     OW13933   3.294   3.950   1.118
 4349SOL    HW113934   3.318   3.870   1.164
 4349SOL    HW213935   3.242   3.999   1.181
 4350SOL     OW13936   2.871   3.743   1.141
 4350SOL    HW113937   2.816   3.674   1.102
 4350SOL    HW213938   2.958   3.705   1.143
 4351SOL     OW13939   2.657   5.038   0.282
 4351SOL    HW113940   2.605   4.962   0.308
 4351SOL    HW213941   2.716   5.055   0.355
 4352SOL     OW13942   2.484   5.299   1.292
 4352SOL    HW113943   2.490   0.054   1.370
 4352SOL    HW213944   2.575   5.279   1.269
 4353SOL     OW13945   3.219   3.778   0.185
 4353SOL    HW113946   3.239   3.732   0.104
 4353SOL    HW213947   3.132   3.746   0.211
 4354SOL     OW13948   3.158   4.185   0.680
 4354SOL    HW113949   3.106   4.265   0.687
 4354SOL    HW213950   3.154   4.146   0.768
 4355SOL     OW13951   3.448   3.924   0.878
 4355SOL    HW113952   3.389   3.946   0.951
 4355SOL    HW213953   3.447   4.003   0.823
 4356SOL     OW13954   1.903   4.791   0.305
 4356SOL    HW113955   1.999   4.793   0.309
 4356SOL    HW213956   1.880   4.706   0.343
 4357SOL     OW13957   2.091   4.348   1.986
 4357SOL    HW113958   2.001   4.345   2.021
 4357SOL    HW213959   2.081   4.322   1.894
 4358SOL     OW13960   2.086   4.009   2.853
 4358SOL    HW113961   2.115   3.973   2.936
 4358SOL    HW213962   1.997   3.975   2.842
 4359SOL     OW13963   1.865   4.107   2.500
 4359SOL    HW113964   1.782   4.132   2.541
 4359SOL    HW213965   1.844   4.028   2.451
 4360SOL     OW13966   2.429   5.007   3.043
 4360SOL    HW113967   2.344   5.004   2.998
 4360SOL    HW213968   2.440   5.099   3.068
 4361SOL     OW13969   3.418   5.232   2.551
 4361SOL    HW113970   3.400   5.229   2.644
 4361SOL    HW213971   3.338   5.268   2.512
 4362SOL     OW13972   2.992   4.422   2.562
 4362SOL    HW113973   3.041   4.503   2.548
 4362SOL    HW213974   2.946   4.436   2.644
 4363SOL     OW13975   3.630   4.328   2.090
 4363SOL    HW113976   3.608   4.321   1.997
 4363SOL    HW213977   3.594   4.249   2.129
 4364SOL     OW13978   2.617   4.868   2.901
 4364SOL    HW113979   2.550   4.899   2.962
 4364SOL    HW213980   2.647   4.946   2.856
 4365SOL     OW13981   2.730   4.496   3.684
 4365SOL    HW113982   2.717   4.568   3.746
 4365SOL    HW213983   2.754   4.540   3.602
 4366SOL     OW13984   2.548   4.725   2.509
 4366SOL    HW113985   2.613   4.715   2.579
 4366SOL    HW213986   2.479   4.779   2.548
 4367SOL     OW13987   2.571   4.871   3.675
 4367SOL    HW113988   2.619   4.951   3.699
 4367SOL    HW213989   2.488   4.903   3.639
 4368SOL     OW13990   2.199   5.149   2.921
 4368SOL    HW113991   2.121   5.104   2.888
 4368SOL    HW213992   2.237   5.191   2.844
 4369SOL     OW13993   3.316   5.221   3.210
 4369SOL    HW113994   3.371   5.293   3.241
 4369SOL    HW213995   3.249   5.211   3.277
 4370SOL     OW13996   2.311   4.122   3.348
 4370SOL    HW113997   2.386   4.064   3.354
 4370SOL    HW213998   2.235   4.066   3.365
 4371SOL     OW13999   3.473   4.171   2.603
 4371SOL    HW114000   3.399   4.193   2.547
 4371SOL    HW214001   3.487   4.249   2.657
 4372SOL     OW14002   2.995   5.073   3.564
 4372SOL    HW114003   3.025   5.074   3.655
 4372SOL    HW214004   2.941   4.994   3.557
 4373SOL     OW14005   2.072   5.157   2.383
 4373SOL    HW114006   2.099   5.237   2.426
 4373SOL    HW214007   2.021   5.110   2.449
 4374SOL     OW14008   2.122   4.811   2.755
 4374SOL    HW114009   2.119   4.724   2.793
 4374SOL    HW214010   2.064   4.864   2.810
 4375SOL     OW14011   2.446   4.706   1.997
 4375SOL    HW114012   2.493   4.753   1.929
 4375SOL    HW214013   2.485   4.736   2.079
 4376SOL     OW14014   3.454   3.851   3.326
 4376SOL    HW114015   3.467   3.933   3.279
 4376SOL    HW214016   3.441   3.876   3.417
 4377SOL     OW14017   1.977   4.377   2.422
 4377SOL    HW114018   1.948   4.288   2.442
 4377SOL    HW214019   1.969   4.425   2.504
 4378SOL     OW14020   1.849   0.013   1.959
 4378SOL    HW114021   1.864   5.224   1.990
 4378SOL    HW214022   1.870   0.069   2.034
 4379SOL     OW14023   3.550   4.642   2.503
 4379SOL    HW114024   3.634   4.599   2.482
 4379SOL    HW214025   3.529   4.692   2.425
 4380SOL     OW14026   3.508   4.830   2.292
 4380SOL    HW114027   3.594   4.834   2.249
 4380SOL    HW214028   3.515   4.891   2.365
 4381SOL     OW14029   1.985   4.467   3.448
 4381SOL    HW114030   2.077   4.493   3.454
 4381SOL    HW214031   1.936   4.548   3.455
 4382SOL     OW14032   2.485   5.098   2.600
 4382SOL    HW114033   2.431   5.019   2.598
 4382SOL    HW214034   2.466   5.143   2.517
 4383SOL     OW14035   3.150   4.953   3.288
 4383SOL    HW114036   3.184   4.888   3.227
 4383SOL    HW214037   3.211   4.951   3.362
 4384SOL     OW14038   2.677   3.724   2.368
 4384SOL    HW114039   2.718   3.809   2.350
 4384SOL    HW214040   2.584   3.744   2.378
 4385SOL     OW14041   2.052   4.689   3.133
 4385SOL    HW114042   2.137   4.647   3.119
 4385SOL    HW214043   1.990   4.636   3.083
 4386SOL     OW14044   3.392   4.720   2.060
 4386SOL    HW114045   3.323   4.662   2.092
 4386SOL    HW214046   3.434   4.754   2.139
 4387SOL     OW14047   2.198   3.978   3.682
 4387SOL    HW114048   2.239   4.063   3.696
 4387SOL    HW214049   2.106   3.990   3.707
 4388SOL     OW14050   3.339   5.147   2.824
 4388SOL    HW114051   3.267   5.160   2.885
 4388SOL    HW214052   3.327   5.059   2.789
 4389SOL     OW14053   2.458   4.444   2.129
 4389SOL    HW114054   2.463   4.526   2.080
 4389SOL    HW214055   2.393   4.461   2.197
 4390SOL     OW14056   3.141   4.078   2.795
 4390SOL    HW114057   3.051   4.045   2.803
 4390SOL    HW214058   3.192   4.025   2.855
 4391SOL     OW14059   2.653   4.342   3.313
 4391SOL    HW114060   2.627   4.317   3.401
 4391SOL    HW214061   2.614   4.275   3.257
 4392SOL     OW14062   3.255   4.198   3.540
 4392SOL    HW114063   3.259   4.242   3.624
 4392SOL    HW214064   3.315   4.123   3.549
 4393SOL     OW14065   2.816   4.612   3.445
 4393SOL    HW114066   2.871   4.541   3.410
 4393SOL    HW214067   2.768   4.645   3.370
 4394SOL     OW14068   2.855   4.138   3.099
 4394SOL    HW114069   2.768   4.156   3.136
 4394SOL    HW214070   2.837   4.090   3.019
 4395SOL     OW14071   2.914   4.422   2.288
 4395SOL    HW114072   2.929   4.415   2.382
 4395SOL    HW214073   2.831   4.376   2.274
 4396SOL     OW14074   1.950   4.545   2.639
 4396SOL    HW114075   2.031   4.538   2.689
 4396SOL    HW214076   1.906   4.623   2.674
 4397SOL     OW14077   2.757   4.073   2.057
 4397SOL    HW114078   2.796   4.136   1.996
 4397SOL    HW214079   2.772   3.988   2.016
 4398SOL     OW14080   3.570   4.298   3.690
 4398SOL    HW114081   3.532   4.371   3.642
 4398SOL    HW214082   3.598   4.236   3.623
 4399SOL     OW14083   3.240   4.863   2.401
 4399SOL    HW114084   3.321   4.850   2.352
 4399SOL    HW214085   3.190   4.925   2.347
 4400SOL     OW14086   2.415   3.910   2.754
 4400SOL    HW114087   2.416   3.939   2.845
 4400SOL    HW214088   2.413   3.991   2.703
 4401SOL     OW14089   2.883   5.169   2.333
 4401SOL    HW114090   2.806   5.226   2.330
 4401SOL    HW214091   2.899   5.156   2.427
 4402SOL     OW14092   3.663   4.780   2.729
 4402SOL    HW114093   3.606   4.762   2.654
 4402SOL    HW214094   3.602   4.787   2.803
 4403SOL     OW14095   3.113   5.240   3.387
 4403SOL    HW114096   3.077   5.173   3.446
 4403SOL    HW214097   3.041   5.262   3.329
 4404SOL     OW14098   2.181   4.681   2.113
 4404SOL    HW114099   2.264   4.700   2.068
 4404SOL    HW214100   2.151   4.599   2.074
 4405SOL     OW14101   3.341   4.468   2.589
 4405SOL    HW114102   3.334   4.425   2.674
 4405SOL    HW214103   3.419   4.523   2.595
 4406SOL     OW14104   2.327   4.988   3.603
 4406SOL    HW114105   2.300   4.990   3.511
 4406SOL    HW214106   2.244   4.987   3.652
 4407SOL     OW14107   2.930   0.178   2.066
 4407SOL    HW114108   2.940   0.103   2.124
 4407SOL    HW214109   2.956   0.147   1.980
 4408SOL     OW14110   2.063   4.001   3.363
 4408SOL    HW114111   1.983   4.053   3.362
 4408SOL    HW214112   2.038   3.920   3.408
 4409SOL     OW14113   3.484   5.101   1.971
 4409SOL    HW114114   3.485   5.175   1.910
 4409SOL    HW214115   3.416   5.043   1.937
 4410SOL     OW14116   3.263   3.831   2.297
 4410SOL    HW114117   3.253   3.806   2.204
 4410SOL    HW214118   3.357   3.838   2.310
 4411SOL     OW14119   2.256   4.419   2.338
 4411SOL    HW114120   2.276   4.326   2.350
 4411SOL    HW214121   2.162   4.426   2.355
 4412SOL     OW14122   3.396   3.949   3.587
 4412SOL    HW114123   3.405   3.970   3.680
 4412SOL    HW214124   3.330   3.879   3.584
 4413SOL     OW14125   2.498   3.846   1.967
 4413SOL    HW114126   2.566   3.779   1.980
 4413SOL    HW214127   2.448   3.814   1.891
 4414SOL     OW14128   2.627   4.000   3.615
 4414SOL    HW114129   2.704   3.943   3.616
 4414SOL    HW214130   2.581   3.979   3.696
 4415SOL     OW14131   3.202   4.313   3.294
 4415SOL    HW114132   3.233   4.281   3.379
 4415SOL    HW214133   3.239   4.401   3.286
 4416SOL     OW14134   2.675   5.118   2.798
 4416SOL    HW114135   2.756   5.105   2.748
 4416SOL    HW214136   2.606   5.125   2.732
 4417SOL     OW14137   2.790   4.233   2.765
 4417SOL    HW114138   2.766   4.225   2.672
 4417SOL    HW214139   2.821   4.146   2.789
 4418SOL     OW14140   2.411   3.787   2.362
 4418SOL    HW114141   2.332   3.787   2.416
 4418SOL    HW214142   2.404   3.866   2.309
 4419SOL     OW14143   3.290   4.924   1.900
 4419SOL    HW114144   3.320   4.849   1.951
 4419SOL    HW214145   3.202   4.942   1.933
 4420SOL     OW14146   2.154   3.772   2.047
 4420SOL    HW114147   2.213   3.836   2.008
 4420SOL    HW214148   2.212   3.708   2.089
 4421SOL     OW14149   2.801   3.971   2.321
 4421SOL    HW114150   2.775   4.012   2.239
 4421SOL    HW214151   2.896   3.985   2.326
 4422SOL     OW14152   2.942   4.405   3.322
 4422SOL    HW114153   2.874   4.338   3.325
 4422SOL    HW214154   3.024   4.357   3.314
 4423SOL     OW14155   3.126   5.266   2.640
 4423SOL    HW114156   3.082   0.048   2.614
 4423SOL    HW214157   3.171   5.288   2.721
 4424SOL     OW14158   2.328   4.872   2.591
 4424SOL    HW114159   2.260   4.852   2.655
 4424SOL    HW214160   2.287   4.855   2.506
 4425SOL     OW14161   2.885   4.265   1.886
 4425SOL    HW114162   2.842   4.348   1.866
 4425SOL    HW214163   2.950   4.286   1.952
 4426SOL     OW14164   1.942   4.278   3.255
 4426SOL    HW114165   2.034   4.277   3.227
 4426SOL    HW214166   1.937   4.348   3.320
 4427SOL     OW14167   2.423   3.953   3.027
 4427SOL    HW114168   2.464   3.873   3.060
 4427SOL    HW214169   2.332   3.948   3.058
 4428SOL     OW14170   2.729   4.183   2.502
 4428SOL    HW114171   2.684   4.238   2.437
 4428SOL    HW214172   2.751   4.103   2.454
 4429SOL     OW14173   2.880   3.777   2.612
 4429SOL    HW114174   2.820   3.772   2.537
 4429SOL    HW214175   2.856   3.702   2.667
 4430SOL     OW14176   3.300   4.890   2.721
 4430SOL    HW114177   3.233   4.822   2.717
 4430SOL    HW214178   3.327   4.903   2.630
 4431SOL     OW14179   3.328   4.330   2.837
 4431SOL    HW114180   3.276   4.250   2.841
 4431SOL    HW214181   3.387   4.323   2.912
 4432SOL     OW14182   3.707   4.539   2.245
 4432SOL    HW114183   3.763   4.488   2.303
 4432SOL    HW214184   3.679   4.476   2.178
 4433SOL     OW14185   2.341   5.149   2.013
 4433SOL    HW114186   2.281   5.097   2.066
 4433SOL    HW214187   2.347   5.101   1.930
 4434SOL     OW14188   3.532   4.986   2.508
 4434SOL    HW114189   3.626   4.993   2.525
 4434SOL    HW214190   3.498   5.075   2.524
 4435SOL     OW14191   3.256   4.296   1.933
 4435SOL    HW114192   3.195   4.276   2.004
 4435SOL    HW214193   3.341   4.264   1.965
 4436SOL     OW14194   2.387   3.987   2.179
 4436SOL    HW114195   2.433   3.940   2.109
 4436SOL    HW214196   2.364   4.071   2.140
 4437SOL     OW14197   3.613   4.960   3.436
 4437SOL    HW114198   3.698   4.918   3.437
 4437SOL    HW214199   3.632   5.053   3.448
 4438SOL     OW14200   2.926   5.074   3.192
 4438SOL    HW114201   2.848   5.048   3.240
 4438SOL    HW214202   2.998   5.035   3.241
 4439SOL     OW14203   2.989   4.926   2.969
 4439SOL    HW114204   2.940   4.967   3.040
 4439SOL    HW214205   2.943   4.951   2.889
 4440SOL     OW14206   3.490   4.822   2.938
 4440SOL    HW114207   3.485   4.883   3.011
 4440SOL    HW214208   3.412   4.841   2.886
 4441SOL     OW14209   2.773   3.836   3.252
 4441SOL    HW114210   2.799   3.809   3.164
 4441SOL    HW214211   2.854   3.870   3.292
 4442SOL     OW14212   2.846   4.839   3.587
 4442SOL    HW114213   2.754   4.855   3.606
 4442SOL    HW214214   2.846   4.762   3.530
 4443SOL     OW14215   2.567   4.783   2.233
 4443SOL    HW114216   2.554   4.767   2.327
 4443SOL    HW214217   2.644   4.732   2.210
 4444SOL     OW14218   2.281   4.539   3.114
 4444SOL    HW114219   2.350   4.549   3.180
 4444SOL    HW214220   2.246   4.451   3.127
 4445SOL     OW14221   3.127   4.101   3.138
 4445SOL    HW114222   3.160   4.178   3.184
 4445SOL    HW214223   3.036   4.123   3.116
 4446SOL     OW14224   2.207   4.834   2.350
 4446SOL    HW114225   2.209   4.906   2.288
 4446SOL    HW214226   2.206   4.755   2.295
 4447SOL     OW14227   2.414   4.260   2.722
 4447SOL    HW114228   2.429   4.318   2.647
 4447SOL    HW214229   2.480   4.286   2.786
 4448SOL     OW14230   3.122   5.078   2.247
 4448SOL    HW114231   3.179   5.145   2.286
 4448SOL    HW214232   3.034   5.101   2.277
 4449SOL     OW14233   3.132   5.182   3.004
 4449SOL    HW114234   3.192   5.196   3.077
 4449SOL    HW214235   3.089   5.100   3.024
 4450SOL     OW14236   3.443   4.346   2.342
 4450SOL    HW114237   3.395   4.399   2.406
 4450SOL    HW214238   3.488   4.410   2.287
 4451SOL     OW14239   2.210   5.236   3.175
 4451SOL    HW114240   2.199   5.201   3.087
 4451SOL    HW214241   2.304   5.256   3.181
 4452SOL     OW14242   2.277   4.469   3.464
 4452SOL    HW114243   2.339   4.513   3.407
 4452SOL    HW214244   2.315   4.383   3.480
 4453SOL     OW14245   3.465   4.503   3.545
 4453SOL    HW114246   3.378   4.545   3.538
 4453SOL    HW214247   3.517   4.545   3.476
 4454SOL     OW14248   2.861   3.854   3.621
 4454SOL    HW114249   2.916   3.927   3.593
 4454SOL    HW214250   2.909   3.776   3.592
 4455SOL     OW14251   2.339   3.764   3.601
 4455SOL    HW114252   2.277   3.710   3.551
 4455SOL    HW214253   2.291   3.844   3.620
 4456SOL     OW14254   2.446   4.596   2.893
 4456SOL    HW114255   2.476   4.687   2.892
 4456SOL    HW214256   2.389   4.591   2.970
 4457SOL     OW14257   3.218   4.582   2.889
 4457SOL    HW114258   3.134   4.571   2.844
 4457SOL    HW214259   3.260   4.496   2.883
 4458SOL     OW14260   3.066   4.252   2.128
 4458SOL    HW114261   3.074   4.174   2.183
 4458SOL    HW214262   3.023   4.316   2.184
 4459SOL     OW14263   2.161   3.923   3.109
 4459SOL    HW114264   2.127   3.963   3.189
 4459SOL    HW214265   2.128   3.833   3.111
 4460SOL     OW14266   1.916   5.047   3.147
 4460SOL    HW114267   1.939   4.982   3.213
 4460SOL    HW214268   1.951   5.129   3.181
 4461SOL     OW14269   2.586   4.354   2.919
 4461SOL    HW114270   2.661   4.339   2.862
 4461SOL    HW214271   2.557   4.443   2.898
 4462SOL     OW14272   3.597   4.684   3.715
 4462SOL    HW114273   3.552   4.620   3.659
 4462SOL    HW214274   3.537   4.698   3.788
 4463SOL     OW14275   2.166   3.788   2.485
 4463SOL    HW114276   2.145   3.878   2.508
 4463SOL    HW214277   2.174   3.743   2.569
 4464SOL     OW14278   3.479   4.099   2.228
 4464SOL    HW114279   3.507   4.035   2.293
 4464SOL    HW214280   3.456   4.177   2.278
 4465SOL     OW14281   2.890   4.483   2.822
 4465SOL    HW114282   2.886   4.500   2.916
 4465SOL    HW214283   2.864   4.391   2.814
 4466SOL     OW14284   3.715   5.213   3.446
 4466SOL    HW114285   3.709   5.290   3.388
 4466SOL    HW214286   3.785   5.236   3.507
 4467SOL     OW14287   2.215   4.640   3.671
 4467SOL    HW114288   2.297   4.659   3.717
 4467SOL    HW214289   2.240   4.578   3.603
 4468SOL     OW14290   3.391   3.996   1.989
 4468SOL    HW114291   3.325   3.932   2.016
 4468SOL    HW214292   3.424   4.032   2.071
 4469SOL     OW14293   3.153   4.550   1.892
 4469SOL    HW114294   3.196   4.464   1.896
 4469SOL    HW214295   3.184   4.589   1.811
 4470SOL     OW14296   2.919   5.081   2.685
 4470SOL    HW114297   2.925   4.995   2.643
 4470SOL    HW214298   3.006   5.119   2.674
 4471SOL     OW14299   2.171   4.533   2.809
 4471SOL    HW114300   2.264   4.553   2.802
 4471SOL    HW214301   2.168   4.442   2.841
 4472SOL     OW14302   2.193   4.252   2.874
 4472SOL    HW114303   2.157   4.165   2.859
 4472SOL    HW214304   2.270   4.257   2.817
 4473SOL     OW14305   2.996   4.099   3.545
 4473SOL    HW114306   2.949   4.155   3.607
 4473SOL    HW214307   3.084   4.137   3.541
 4474SOL     OW14308   3.020   3.927   3.331
 4474SOL    HW114309   3.012   3.989   3.403
 4474SOL    HW214310   3.062   3.977   3.261
 4475SOL     OW14311   1.868   5.040   2.053
 4475SOL    HW114312   1.778   5.057   2.027
 4475SOL    HW214313   1.866   4.951   2.090
 4476SOL     OW14314   2.843   4.515   3.088
 4476SOL    HW114315   2.900   4.493   3.162
 4476SOL    HW214316   2.758   4.476   3.111
 4477SOL     OW14317   1.897   4.269   2.979
 4477SOL    HW114318   1.977   4.256   2.928
 4477SOL    HW214319   1.927   4.273   3.070
 4478SOL     OW14320   2.054   4.244   3.590
 4478SOL    HW114321   2.108   4.202   3.523
 4478SOL    HW214322   2.013   4.318   3.546
 4479SOL     OW14323   3.239   4.662   3.520
 4479SOL    HW114324   3.260   4.755   3.517
 4479SOL    HW214325   3.236   4.635   3.428
 4480SOL     OW14326   2.678   4.293   2.224
 4480SOL    HW114327   2.682   4.219   2.163
 4480SOL    HW214328   2.604   4.345   2.192
 4481SOL     OW14329   3.504   4.325   3.047
 4481SOL    HW114330   3.494   4.266   3.122
 4481SOL    HW214331   3.591   4.306   3.012
 4482SOL     OW14332   2.067   5.276   3.608
 4482SOL    HW114333   2.050   0.028   3.686
 4482SOL    HW214334   2.079   5.187   3.640
 4483SOL     OW14335   2.564   4.174   3.121
 4483SOL    HW114336   2.512   4.100   3.091
 4483SOL    HW214337   2.561   4.237   3.049
 4484SOL     OW14338   2.325   4.216   2.048
 4484SOL    HW114339   2.384   4.289   2.070
 4484SOL    HW214340   2.240   4.258   2.035
 4485SOL     OW14341   2.006   4.863   3.333
 4485SOL    HW114342   2.008   4.812   3.414
 4485SOL    HW214343   2.024   4.799   3.265
 4486SOL     OW14344   3.188   4.768   3.084
 4486SOL    HW114345   3.210   4.706   3.015
 4486SOL    HW214346   3.118   4.821   3.046
 4487SOL     OW14347   3.173   4.582   2.168
 4487SOL    HW114348   3.099   4.550   2.218
 4487SOL    HW214349   3.149   4.567   2.076
 4488SOL     OW14350   1.957   4.987   2.884
 4488SOL    HW114351   1.935   5.005   2.975
 4488SOL    HW214352   1.877   4.948   2.847
 4489SOL     OW14353   2.615   0.037   3.571
 4489SOL    HW114354   2.523   0.059   3.582
 4489SOL    HW214355   2.635   0.062   3.481
 4490SOL     OW14356   3.581   3.872   2.370
 4490SOL    HW114357   3.654   3.857   2.310
 4490SOL    HW214358   3.566   3.787   2.411
 4491SOL     OW14359   3.139   4.650   2.534
 4491SOL    HW114360   3.212   4.589   2.542
 4491SOL    HW214361   3.174   4.722   2.480
 4492SOL     OW14362   2.679   4.993   3.280
 4492SOL    HW114363   2.648   5.029   3.364
 4492SOL    HW214364   2.605   5.002   3.221
 4493SOL     OW14365   3.703   3.897   2.828
 4493SOL    HW114366   3.732   3.809   2.802
 4493SOL    HW214367   3.616   3.906   2.789
 4494SOL     OW14368   2.123   4.040   2.578
 4494SOL    HW114369   2.037   4.075   2.554
 4494SOL    HW214370   2.121   4.032   2.673
 4495SOL     OW14371   2.687   4.727   3.233
 4495SOL    HW114372   2.734   4.719   3.150
 4495SOL    HW214373   2.690   4.820   3.254
 4496SOL     OW14374   2.778   4.636   2.153
 4496SOL    HW114375   2.839   4.668   2.086
 4496SOL    HW214376   2.826   4.566   2.197
 4497SOL     OW14377   2.227   5.026   3.359
 4497SOL    HW114378   2.216   5.100   3.298
 4497SOL    HW214379   2.151   4.970   3.342
 4498SOL     OW14380   3.474   5.004   3.144
 4498SOL    HW114381   3.531   4.997   3.220
 4498SOL    HW214382   3.411   5.073   3.167
 4499SOL     OW14383   2.918   4.834   2.574
 4499SOL    HW114384   2.845   4.783   2.610
 4499SOL    HW214385   2.980   4.769   2.543
 4500SOL     OW14386   2.883   3.964   2.828
 4500SOL    HW114387   2.880   3.917   2.745
 4500SOL    HW214388   2.878   3.896   2.895
 4501SOL     OW14389   3.584   4.116   3.242
 4501SOL    HW114390   3.656   4.179   3.241
 4501SOL    HW214391   3.614   4.045   3.186
 4502SOL     OW14392   2.120   5.051   2.145
 4502SOL    HW114393   2.029   5.052   2.118
 4502SOL    HW214394   2.121   5.095   2.230
 4503SOL     OW14395   1.974   4.748   3.581
 4503SOL    HW114396   1.898   4.723   3.634
 4503SOL    HW214397   2.049   4.709   3.627
 4504SOL     OW14398   2.532   3.920   3.363
 4504SOL    HW114399   2.614   3.901   3.318
 4504SOL    HW214400   2.558   3.951   3.450
 4505SOL     OW14401   1.941   4.057   1.897
 4505SOL    HW114402   1.854   4.037   1.863
 4505SOL    HW214403   1.971   4.132   1.845
 4506SOL     OW14404   3.291   4.582   3.262
 4506SOL    HW114405   3.242   4.643   3.206
 4506SOL    HW214406   3.380   4.584   3.227
 4507SOL     OW14407   1.929   3.880   2.171
 4507SOL    HW114408   1.916   3.960   2.120
 4507SOL    HW214409   2.014   3.847   2.142
 4508SOL     OW14410   3.044   5.063   1.983
 4508SOL    HW114411   2.953   5.033   1.984
 4508SOL    HW214412   3.072   5.055   2.074
 4509SOL     OW14413   2.481   4.555   3.296
 4509SOL    HW114414   2.538   4.630   3.280
 4509SOL    HW214415   2.541   4.481   3.304
 4510SOL     OW14416   2.579   4.287   3.566
 4510SOL    HW114417   2.621   4.349   3.625
 4510SOL    HW214418   2.607   4.201   3.598
 4511SOL     OW14419   3.336   4.922   3.492
 4511SOL    HW114420   3.323   4.934   3.586
 4511SOL    HW214421   3.430   4.936   3.479
 4512SOL     OW14422   3.531   4.605   3.117
 4512SOL    HW114423   3.525   4.520   3.074
 4512SOL    HW214424   3.521   4.668   3.046
 4513SOL     OW14425   3.078   4.043   2.320
 4513SOL    HW114426   3.141   3.971   2.312
 4513SOL    HW214427   3.107   4.092   2.397
 4514SOL     OW14428   2.451   4.461   2.533
 4514SOL    HW114429   2.490   4.547   2.517
 4514SOL    HW214430   2.384   4.453   2.465
 4515SOL     OW14431   3.623   4.087   3.513
 4515SOL    HW114432   3.607   4.102   3.420
 4515SOL    HW214433   3.551   4.029   3.541
 4516SOL     OW14434   3.607   4.657   3.374
 4516SOL    HW114435   3.601   4.752   3.386
 4516SOL    HW214436   3.592   4.645   3.280
 4517SOL     OW14437   2.711   5.094   1.882
 4517SOL    HW114438   2.693   5.095   1.976
 4517SOL    HW214439   2.724   5.186   1.860
 4518SOL     OW14440   2.730   4.692   2.717
 4518SOL    HW114441   2.779   4.620   2.756
 4518SOL    HW214442   2.695   4.741   2.792
 4519SOL     OW14443   2.942   4.714   1.952
 4519SOL    HW114444   2.919   4.763   1.873
 4519SOL    HW214445   3.016   4.659   1.925
 4520SOL     OW14446   2.084   5.023   3.714
 4520SOL    HW114447   2.017   4.959   3.688
 4520SOL    HW214448   2.073   5.033   3.808
 4521SOL     OW14449   1.949   4.955   2.532
 4521SOL    HW114450   1.948   4.903   2.612
 4521SOL    HW214451   2.012   4.911   2.475
 4522SOL     OW14452   2.534   5.105   3.470
 4522SOL    HW114453   2.457   5.073   3.518
 4522SOL    HW214454   2.566   5.178   3.523
 4523SOL     OW14455   3.675   3.908   3.099
 4523SOL    HW114456   3.682   3.814   3.114
 4523SOL    HW214457   3.684   3.919   3.005
 4524SOL     OW14458   2.292   4.158   2.388
 4524SOL    HW114459   2.321   4.087   2.331
 4524SOL    HW214460   2.243   4.114   2.457
 4525SOL     OW14461   3.568   5.224   2.981
 4525SOL    HW114462   3.495   5.208   2.922
 4525SOL    HW214463   3.575   5.145   3.034
 4526SOL     OW14464   2.193   4.280   3.154
 4526SOL    HW114465   2.249   4.225   3.208
 4526SOL    HW214466   2.213   4.253   3.064
 4527SOL     OW14467   3.293   3.949   2.980
 4527SOL    HW114468   3.321   3.871   3.028
 4527SOL    HW214469   3.241   3.999   3.043
 4528SOL     OW14470   2.870   3.742   3.004
 4528SOL    HW114471   2.816   3.673   2.966
 4528SOL    HW214472   2.958   3.705   3.008
 4529SOL     OW14473   2.666   5.047   2.146
 4529SOL    HW114474   2.607   4.974   2.166
 4529SOL    HW214475   2.721   5.054   2.224
 4530SOL     OW14476   2.484   5.299   3.154
 4530SOL    HW114477   2.490   0.054   3.232
 4530SOL    HW214478   2.574   5.279   3.131
 4531SOL     OW14479   3.215   3.778   2.028
 4531SOL    HW114480   3.243   3.713   1.964
 4531SOL    HW214481   3.127   3.748   2.054
 4532SOL     OW14482   3.158   4.185   2.542
 4532SOL    HW114483   3.105   4.265   2.549
 4532SOL    HW214484   3.154   4.146   2.630
 4533SOL     OW14485   3.448   3.924   2.741
 4533SOL    HW114486   3.388   3.946   2.813
 4533SOL    HW214487   3.447   4.002   2.685
 4534SOL     OW14488   1.904   4.793   2.170
 4534SOL    HW114489   1.998   4.787   2.153
 4534SOL    HW214490   1.878   4.704   2.192
 4535SOL     OW14491   2.091   4.347   3.848
 4535SOL    HW114492   2.001   4.346   3.882
 4535SOL    HW214493   2.082   4.322   3.756
 4536SOL     OW14494   2.087   4.004   4.716
 4536SOL    HW114495   2.115   3.972   4.802
 4536SOL    HW214496   1.997   3.973   4.706
 4537SOL     OW14497   1.865   4.106   4.362
 4537SOL    HW114498   1.783   4.133   4.404
 4537SOL    HW214499   1.843   4.028   4.313
 4538SOL     OW14500   2.429   5.007   4.904
 4538SOL    HW114501   2.344   5.005   4.860
 4538SOL    HW214502   2.440   5.099   4.930
 4539SOL     OW14503   3.418   5.232   4.413
 4539SOL    HW114504   3.400   5.229   4.507
 4539SOL    HW214505   3.338   5.268   4.374
 4540SOL     OW14506   2.992   4.422   4.424
 4540SOL    HW114507   3.041   4.503   4.410
 4540SOL    HW214508   2.946   4.437   4.506
 4541SOL     OW14509   3.629   4.329   3.953
 4541SOL    HW114510   3.608   4.321   3.859
 4541SOL    HW214511   3.594   4.248   3.991
 4542SOL     OW14512   2.617   4.867   4.763
 4542SOL    HW114513   2.550   4.899   4.824
 4542SOL    HW214514   2.647   4.946   4.718
 4543SOL     OW14515   2.730   4.496   5.546
 4543SOL    HW114516   2.717   4.567   5.609
 4543SOL    HW214517   2.754   4.540   5.465
 4544SOL     OW14518   2.548   4.725   4.371
 4544SOL    HW114519   2.613   4.715   4.441
 4544SOL    HW214520   2.479   4.779   4.410
 4545SOL     OW14521   2.571   4.871   5.536
 4545SOL    HW114522   2.619   4.951   5.561
 4545SOL    HW214523   2.488   4.903   5.501
 4546SOL     OW14524   2.199   5.149   4.783
 4546SOL    HW114525   2.121   5.104   4.750
 4546SOL    HW214526   2.237   5.191   4.706
 4547SOL     OW14527   3.316   5.221   5.072
 4547SOL    HW114528   3.371   5.293   5.103
 4547SOL    HW214529   3.249   5.211   5.139
 4548SOL     OW14530   2.312   4.122   5.209
 4548SOL    HW114531   2.387   4.063   5.216
 4548SOL    HW214532   2.235   4.066   5.224
 4549SOL     OW14533   3.473   4.171   4.465
 4549SOL    HW114534   3.399   4.194   4.408
 4549SOL    HW214535   3.488   4.250   4.517
 4550SOL     OW14536   2.995   5.073   5.426
 4550SOL    HW114537   3.025   5.074   5.517
 4550SOL    HW214538   2.942   4.994   5.419
 4551SOL     OW14539   2.072   5.157   4.245
 4551SOL    HW114540   2.099   5.237   4.288
 4551SOL    HW214541   2.021   5.110   4.311
 4552SOL     OW14542   2.122   4.811   4.616
 4552SOL    HW114543   2.118   4.724   4.655
 4552SOL    HW214544   2.064   4.864   4.672
 4553SOL     OW14545   2.446   4.706   3.859
 4553SOL    HW114546   2.493   4.753   3.791
 4553SOL    HW214547   2.485   4.736   3.941
 4554SOL     OW14548   3.454   3.849   5.190
 4554SOL    HW114549   3.473   3.930   5.142
 4554SOL    HW214550   3.442   3.878   5.281
 4555SOL     OW14551   1.978   4.377   4.284
 4555SOL    HW114552   1.948   4.289   4.305
 4555SOL    HW214553   1.969   4.425   4.366
 4556SOL     OW14554   1.849   0.013   3.821
 4556SOL    HW114555   1.864   5.224   3.852
 4556SOL    HW214556   1.870   0.068   3.896
 4557SOL     OW14557   3.550   4.641   4.365
 4557SOL    HW114558   3.633   4.599   4.344
 4557SOL    HW214559   3.529   4.692   4.287
 4558SOL     OW14560   3.508   4.830   4.154
 4558SOL    HW114561   3.594   4.834   4.111
 4558SOL    HW214562   3.515   4.891   4.227
 4559SOL     OW14563   1.985   4.467   5.310
 4559SOL    HW114564   2.077   4.494   5.316
 4559SOL    HW214565   1.936   4.549   5.317
 4560SOL     OW14566   2.485   5.098   4.462
 4560SOL    HW114567   2.431   5.019   4.460
 4560SOL    HW214568   2.466   5.143   4.379
 4561SOL     OW14569   3.150   4.953   5.150
 4561SOL    HW114570   3.185   4.888   5.089
 4561SOL    HW214571   3.211   4.951   5.224
 4562SOL     OW14572   2.686   3.735   4.261
 4562SOL    HW114573   2.720   3.816   4.222
 4562SOL    HW214574   2.591   3.743   4.254
 4563SOL     OW14575   2.052   4.689   4.995
 4563SOL    HW114576   2.137   4.647   4.981
 4563SOL    HW214577   1.990   4.636   4.946
 4564SOL     OW14578   3.392   4.720   3.922
 4564SOL    HW114579   3.323   4.662   3.954
 4564SOL    HW214580   3.434   4.754   4.001
 4565SOL     OW14581   2.197   3.974   5.538
 4565SOL    HW114582   2.240   4.058   5.555
 4565SOL    HW214583   2.107   3.987   5.567
 4566SOL     OW14584   3.339   5.147   4.686
 4566SOL    HW114585   3.267   5.160   4.747
 4566SOL    HW214586   3.327   5.059   4.652
 4567SOL     OW14587   2.458   4.444   3.991
 4567SOL    HW114588   2.463   4.526   3.941
 4567SOL    HW214589   2.393   4.462   4.059
 4568SOL     OW14590   3.141   4.080   4.657
 4568SOL    HW114591   3.052   4.048   4.664
 4568SOL    HW214592   3.192   4.026   4.717
 4569SOL     OW14593   2.654   4.341   5.174
 4569SOL    HW114594   2.628   4.318   5.263
 4569SOL    HW214595   2.614   4.274   5.119
 4570SOL     OW14596   3.255   4.197   5.402
 4570SOL    HW114597   3.258   4.242   5.486
 4570SOL    HW214598   3.316   4.125   5.411
 4571SOL     OW14599   2.816   4.612   5.307
 4571SOL    HW114600   2.871   4.542   5.272
 4571SOL    HW214601   2.768   4.646   5.232
 4572SOL     OW14602   2.854   4.134   4.963
 4572SOL    HW114603   2.768   4.157   4.999
 4572SOL    HW214604   2.835   4.096   4.877
 4573SOL     OW14605   2.913   4.422   4.150
 4573SOL    HW114606   2.929   4.415   4.244
 4573SOL    HW214607   2.831   4.376   4.136
 4574SOL     OW14608   1.950   4.545   4.501
 4574SOL    HW114609   2.031   4.538   4.551
 4574SOL    HW214610   1.906   4.622   4.535
 4575SOL     OW14611   2.756   4.073   3.916
 4575SOL    HW114612   2.796   4.137   3.857
 4575SOL    HW214613   2.775   3.988   3.876
 4576SOL     OW14614   3.569   4.297   5.552
 4576SOL    HW114615   3.532   4.371   5.504
 4576SOL    HW214616   3.598   4.237   5.485
 4577SOL     OW14617   3.240   4.863   4.263
 4577SOL    HW114618   3.321   4.850   4.214
 4577SOL    HW214619   3.190   4.925   4.209
 4578SOL     OW14620   2.406   3.905   4.618
 4578SOL    HW114621   2.410   3.936   4.708
 4578SOL    HW214622   2.411   3.985   4.565
 4579SOL     OW14623   2.883   5.169   4.195
 4579SOL    HW114624   2.806   5.226   4.192
 4579SOL    HW214625   2.899   5.156   4.289
 4580SOL     OW14626   3.663   4.780   4.591
 4580SOL    HW114627   3.606   4.762   4.516
 4580SOL    HW214628   3.602   4.787   4.665
 4581SOL     OW14629   3.113   5.239   5.249
 4581SOL    HW114630   3.077   5.173   5.307
 4581SOL    HW214631   3.040   5.263   5.191
 4582SOL     OW14632   2.182   4.681   3.975
 4582SOL    HW114633   2.264   4.700   3.930
 4582SOL    HW214634   2.151   4.599   3.935
 4583SOL     OW14635   3.340   4.468   4.451
 4583SOL    HW114636   3.334   4.426   4.537
 4583SOL    HW214637   3.419   4.523   4.457
 4584SOL     OW14638   2.327   4.988   5.465
 4584SOL    HW114639   2.300   4.990   5.373
 4584SOL    HW214640   2.244   4.986   5.514
 4585SOL     OW14641   2.930   0.178   3.928
 4585SOL    HW114642   2.941   0.103   3.986
 4585SOL    HW214643   2.956   0.147   3.842
 4586SOL     OW14644   2.063   4.005   5.226
 4586SOL    HW114645   1.981   4.054   5.221
 4586SOL    HW214646   2.044   3.933   5.286
 4587SOL     OW14647   3.483   5.102   3.833
 4587SOL    HW114648   3.485   5.175   3.772
 4587SOL    HW214649   3.416   5.043   3.799
 4588SOL     OW14650   3.268   3.843   4.153
 4588SOL    HW114651   3.259   3.814   4.063
 4588SOL    HW214652   3.363   3.841   4.170
 4589SOL     OW14653   2.256   4.419   4.200
 4589SOL    HW114654   2.276   4.326   4.211
 4589SOL    HW214655   2.162   4.426   4.217
 4590SOL     OW14656   3.397   3.949   5.449
 4590SOL    HW114657   3.407   3.970   5.542
 4590SOL    HW214658   3.328   3.883   5.447
 4591SOL     OW14659   2.493   3.839   3.825
 4591SOL    HW114660   2.570   3.782   3.825
 4591SOL    HW214661   2.442   3.810   3.749
 4592SOL     OW14662   2.627   4.002   5.479
 4592SOL    HW114663   2.704   3.945   5.479
 4592SOL    HW214664   2.580   3.980   5.559
 4593SOL     OW14665   3.202   4.313   5.156
 4593SOL    HW114666   3.233   4.282   5.241
 4593SOL    HW214667   3.238   4.401   5.148
 4594SOL     OW14668   2.675   5.118   4.660
 4594SOL    HW114669   2.756   5.105   4.610
 4594SOL    HW214670   2.607   5.125   4.594
 4595SOL     OW14671   2.790   4.234   4.626
 4595SOL    HW114672   2.765   4.226   4.534
 4595SOL    HW214673   2.822   4.147   4.650
 4596SOL     OW14674   2.412   3.785   4.227
 4596SOL    HW114675   2.332   3.789   4.279
 4596SOL    HW214676   2.409   3.863   4.172
 4597SOL     OW14677   3.290   4.924   3.762
 4597SOL    HW114678   3.320   4.849   3.812
 4597SOL    HW214679   3.202   4.942   3.795
 4598SOL     OW14680   2.152   3.777   3.909
 4598SOL    HW114681   2.210   3.842   3.869
 4598SOL    HW214682   2.212   3.716   3.953
 4599SOL     OW14683   2.801   3.975   4.181
 4599SOL    HW114684   2.776   4.015   4.097
 4599SOL    HW214685   2.896   3.988   4.186
 4600SOL     OW14686   2.942   4.406   5.183
 4600SOL    HW114687   2.874   4.338   5.188
 4600SOL    HW214688   3.024   4.357   5.177
 4601SOL     OW14689   3.126   5.266   4.502
 4601SOL    HW114690   3.082   0.048   4.476
 4601SOL    HW214691   3.171   5.288   4.583
 4602SOL     OW14692   2.328   4.872   4.453
 4602SOL    HW114693   2.260   4.852   4.517
 4602SOL    HW214694   2.287   4.855   4.368
 4603SOL     OW14695   2.884   4.265   3.748
 4603SOL    HW114696   2.842   4.348   3.728
 4603SOL    HW214697   2.951   4.287   3.813
 4604SOL     OW14698   1.942   4.279   5.116
 4604SOL    HW114699   2.034   4.277   5.089
 4604SOL    HW214700   1.937   4.348   5.181
 4605SOL     OW14701   2.421   3.951   4.890
 4605SOL    HW114702   2.462   3.874   4.929
 4605SOL    HW214703   2.330   3.949   4.920
 4606SOL     OW14704   2.728   4.182   4.364
 4606SOL    HW114705   2.684   4.238   4.299
 4606SOL    HW214706   2.751   4.103   4.316
 4607SOL     OW14707   2.877   3.793   4.469
 4607SOL    HW114708   2.821   3.780   4.392
 4607SOL    HW214709   2.857   3.718   4.525
 4608SOL     OW14710   3.300   4.890   4.583
 4608SOL    HW114711   3.233   4.822   4.579
 4608SOL    HW214712   3.327   4.903   4.492
 4609SOL     OW14713   3.328   4.331   4.699
 4609SOL    HW114714   3.277   4.250   4.702
 4609SOL    HW214715   3.387   4.324   4.774
 4610SOL     OW14716   3.707   4.539   4.107
 4610SOL    HW114717   3.763   4.488   4.165
 4610SOL    HW214718   3.678   4.476   4.040
 4611SOL     OW14719   2.340   5.149   3.875
 4611SOL    HW114720   2.280   5.097   3.928
 4611SOL    HW214721   2.347   5.101   3.792
 4612SOL     OW14722   3.532   4.986   4.370
 4612SOL    HW114723   3.626   4.993   4.388
 4612SOL    HW214724   3.499   5.075   4.386
 4613SOL     OW14725   3.256   4.296   3.795
 4613SOL    HW114726   3.195   4.276   3.866
 4613SOL    HW214727   3.341   4.262   3.826
 4614SOL     OW14728   2.388   3.985   4.041
 4614SOL    HW114729   2.432   3.937   3.970
 4614SOL    HW214730   2.365   4.069   4.002
 4615SOL     OW14731   3.613   4.960   5.298
 4615SOL    HW114732   3.699   4.918   5.298
 4615SOL    HW214733   3.632   5.053   5.310
 4616SOL     OW14734   2.926   5.073   5.054
 4616SOL    HW114735   2.848   5.048   5.102
 4616SOL    HW214736   2.998   5.035   5.103
 4617SOL     OW14737   2.989   4.925   4.831
 4617SOL    HW114738   2.940   4.967   4.902
 4617SOL    HW214739   2.943   4.951   4.751
 4618SOL     OW14740   3.490   4.822   4.800
 4618SOL    HW114741   3.485   4.883   4.873
 4618SOL    HW214742   3.412   4.841   4.748
 4619SOL     OW14743   2.779   3.822   5.127
 4619SOL    HW114744   2.795   3.808   5.034
 4619SOL    HW214745   2.859   3.863   5.160
 4620SOL     OW14746   2.846   4.839   5.449
 4620SOL    HW114747   2.754   4.855   5.469
 4620SOL    HW214748   2.846   4.762   5.392
 4621SOL     OW14749   2.567   4.783   4.095
 4621SOL    HW114750   2.554   4.767   4.189
 4621SOL    HW214751   2.645   4.732   4.072
 4622SOL     OW14752   2.281   4.539   4.975
 4622SOL    HW114753   2.349   4.549   5.042
 4622SOL    HW214754   2.246   4.451   4.990
 4623SOL     OW14755   3.127   4.100   5.001
 4623SOL    HW114756   3.160   4.177   5.046
 4623SOL    HW214757   3.037   4.123   4.978
 4624SOL     OW14758   2.207   4.833   4.212
 4624SOL    HW114759   2.209   4.907   4.151
 4624SOL    HW214760   2.206   4.755   4.157
 4625SOL     OW14761   2.413   4.260   4.584
 4625SOL    HW114762   2.428   4.318   4.509
 4625SOL    HW214763   2.479   4.286   4.648
 4626SOL     OW14764   3.122   5.078   4.109
 4626SOL    HW114765   3.179   5.144   4.148
 4626SOL    HW214766   3.034   5.101   4.139
 4627SOL     OW14767   3.132   5.182   4.866
 4627SOL    HW114768   3.192   5.197   4.939
 4627SOL    HW214769   3.088   5.100   4.886
 4628SOL     OW14770   3.443   4.346   4.205
 4628SOL    HW114771   3.395   4.400   4.268
 4628SOL    HW214772   3.488   4.408   4.148
 4629SOL     OW14773   2.210   5.236   5.037
 4629SOL    HW114774   2.199   5.200   4.949
 4629SOL    HW214775   2.304   5.256   5.043
 4630SOL     OW14776   2.277   4.469   5.326
 4630SOL    HW114777   2.339   4.513   5.268
 4630SOL    HW214778   2.316   4.383   5.343
 4631SOL     OW14779   3.464   4.503   5.407
 4631SOL    HW114780   3.378   4.545   5.400
 4631SOL    HW214781   3.517   4.545   5.338
 4632SOL     OW14782   2.857   3.849   5.479
 4632SOL    HW114783   2.914   3.923   5.455
 4632SOL    HW214784   2.907   3.772   5.453
 4633SOL     OW14785   2.359   3.763   5.472
 4633SOL    HW114786   2.315   3.710   5.406
 4633SOL    HW214787   2.301   3.838   5.485
 4634SOL     OW14788   2.446   4.596   4.756
 4634SOL    HW114789   2.476   4.687   4.754
 4634SOL    HW214790   2.389   4.591   4.833
 4635SOL     OW14791   3.218   4.582   4.751
 4635SOL    HW114792   3.134   4.571   4.705
 4635SOL    HW214793   3.260   4.496   4.745
 4636SOL     OW14794   3.066   4.252   3.990
 4636SOL    HW114795   3.074   4.174   4.044
 4636SOL    HW214796   3.023   4.317   4.046
 4637SOL     OW14797   2.161   3.923   4.971
 4637SOL    HW114798   2.123   3.956   5.053
 4637SOL    HW214799   2.142   3.830   4.972
 4638SOL     OW14800   1.916   5.047   5.009
 4638SOL    HW114801   1.939   4.982   5.075
 4638SOL    HW214802   1.950   5.130   5.044
 4639SOL     OW14803   2.585   4.354   4.781
 4639SOL    HW114804   2.660   4.340   4.724
 4639SOL    HW214805   2.557   4.443   4.761
 4640SOL     OW14806   3.597   4.684   5.577
 4640SOL    HW114807   3.552   4.621   5.521
 4640SOL    HW214808   3.537   4.698   5.650
 4641SOL     OW14809   2.166   3.784   4.350
 4641SOL    HW114810   2.145   3.875   4.370
 4641SOL    HW214811   2.175   3.742   4.436
 4642SOL     OW14812   3.481   4.100   4.089
 4642SOL    HW114813   3.507   4.035   4.155
 4642SOL    HW214814   3.458   4.177   4.141
 4643SOL     OW14815   2.890   4.483   4.684
 4643SOL    HW114816   2.886   4.500   4.778
 4643SOL    HW214817   2.863   4.392   4.675
 4644SOL     OW14818   3.716   5.213   5.307
 4644SOL    HW114819   3.708   5.290   5.251
 4644SOL    HW214820   3.785   5.236   5.369
 4645SOL     OW14821   2.215   4.640   5.533
 4645SOL    HW114822   2.297   4.659   5.579
 4645SOL    HW214823   2.240   4.578   5.465
 4646SOL     OW14824   3.391   4.000   3.850
 4646SOL    HW114825   3.327   3.933   3.876
 4646SOL    HW214826   3.424   4.034   3.933
 4647SOL     OW14827   3.153   4.550   3.755
 4647SOL    HW114828   3.196   4.464   3.758
 4647SOL    HW214829   3.184   4.589   3.673
 4648SOL     OW14830   2.919   5.081   4.547
 4648SOL    HW114831   2.925   4.995   4.505
 4648SOL    HW214832   3.006   5.119   4.536
 4649SOL     OW14833   2.171   4.533   4.671
 4649SOL    HW114834   2.264   4.553   4.664
 4649SOL    HW214835   2.169   4.443   4.704
 4650SOL     OW14836   2.192   4.250   4.737
 4650SOL    HW114837   2.157   4.162   4.722
 4650SOL    HW214838   2.269   4.256   4.679
 4651SOL     OW14839   2.996   4.097   5.407
 4651SOL    HW114840   2.948   4.153   5.469
 4651SOL    HW214841   3.083   4.136   5.403
 4652SOL     OW14842   3.024   3.925   5.193
 4652SOL    HW114843   3.012   3.986   5.266
 4652SOL    HW214844   3.064   3.978   5.124
 4653SOL     OW14845   1.868   5.040   3.915
 4653SOL    HW114846   1.778   5.057   3.889
 4653SOL    HW214847   1.866   4.952   3.952
 4654SOL     OW14848   2.843   4.514   4.950
 4654SOL    HW114849   2.900   4.493   5.023
 4654SOL    HW214850   2.758   4.478   4.975
 4655SOL     OW14851   1.898   4.268   4.841
 4655SOL    HW114852   1.979   4.258   4.791
 4655SOL    HW214853   1.926   4.272   4.932
 4656SOL     OW14854   2.053   4.244   5.452
 4656SOL    HW114855   2.109   4.205   5.385
 4656SOL    HW214856   2.012   4.318   5.408
 4657SOL     OW14857   3.239   4.662   5.382
 4657SOL    HW114858   3.260   4.755   5.379
 4657SOL    HW214859   3.236   4.635   5.290
 4658SOL     OW14860   2.678   4.293   4.086
 4658SOL    HW114861   2.682   4.219   4.025
 4658SOL    HW214862   2.605   4.346   4.054
 4659SOL     OW14863   3.504   4.325   4.909
 4659SOL    HW114864   3.494   4.267   4.984
 4659SOL    HW214865   3.591   4.305   4.874
 4660SOL     OW14866   2.067   5.276   5.470
 4660SOL    HW114867   2.051   0.028   5.548
 4660SOL    HW214868   2.079   5.187   5.502
 4661SOL     OW14869   2.566   4.173   4.982
 4661SOL    HW114870   2.511   4.100   4.953
 4661SOL    HW214871   2.561   4.237   4.911
 4662SOL     OW14872   2.326   4.216   3.911
 4662SOL    HW114873   2.384   4.288   3.933
 4662SOL    HW214874   2.240   4.257   3.898
 4663SOL     OW14875   2.006   4.863   5.195
 4663SOL    HW114876   2.008   4.812   5.277
 4663SOL    HW214877   2.024   4.799   5.127
 4664SOL     OW14878   3.188   4.768   4.946
 4664SOL    HW114879   3.210   4.706   4.877
 4664SOL    HW214880   3.118   4.821   4.908
 4665SOL     OW14881   3.173   4.582   4.030
 4665SOL    HW114882   3.098   4.549   4.080
 4665SOL    HW214883   3.149   4.567   3.938
 4666SOL     OW14884   1.957   4.987   4.746
 4666SOL    HW114885   1.935   5.005   4.837
 4666SOL    HW214886   1.877   4.949   4.710
 4667SOL     OW14887   2.615   0.036   5.433
 4667SOL    HW114888   2.523   0.059   5.445
 4667SOL    HW214889   2.635   0.063   5.343
 4668SOL     OW14890   3.582   3.873   4.232
 4668SOL    HW114891   3.655   3.859   4.171
 4668SOL    HW214892   3.568   3.787   4.271
 4669SOL     OW14893   3.139   4.650   4.396
 4669SOL    HW114894   3.212   4.589   4.404
 4669SOL    HW214895   3.174   4.722   4.342
 4670SOL     OW14896   2.679   4.993   5.142
 4670SOL    HW114897   2.648   5.028   5.226
 4670SOL    HW214898   2.605   5.002   5.083
 4671SOL     OW14899   3.704   3.897   4.691
 4671SOL    HW114900   3.733   3.810   4.664
 4671SOL    HW214901   3.618   3.908   4.650
 4672SOL     OW14902   2.123   4.037   4.440
 4672SOL    HW114903   2.038   4.074   4.416
 4672SOL    HW214904   2.121   4.032   4.535
 4673SOL     OW14905   2.687   4.727   5.094
 4673SOL    HW114906   2.733   4.721   5.011
 4673SOL    HW214907   2.690   4.820   5.116
 4674SOL     OW14908   2.778   4.636   4.015
 4674SOL    HW114909   2.839   4.668   3.948
 4674SOL    HW214910   2.827   4.566   4.059
 4675SOL     OW14911   2.227   5.026   5.220
 4675SOL    HW114912   2.216   5.100   5.160
 4675SOL    HW214913   2.151   4.970   5.204
 4676SOL     OW14914   3.474   5.004   5.006
 4676SOL    HW114915   3.531   4.997   5.082
 4676SOL    HW214916   3.411   5.073   5.029
 4677SOL     OW14917   2.918   4.834   4.436
 4677SOL    HW114918   2.845   4.783   4.472
 4677SOL    HW214919   2.980   4.769   4.404
 4678SOL     OW14920   2.882   3.970   4.688
 4678SOL    HW114921   2.878   3.924   4.604
 4678SOL    HW214922   2.869   3.902   4.754
 4679SOL     OW14923   3.585   4.115   5.105
 4679SOL    HW114924   3.656   4.179   5.104
 4679SOL    HW214925   3.615   4.045   5.048
 4680SOL     OW14926   2.120   5.051   4.008
 4680SOL    HW114927   2.029   5.052   3.980
 4680SOL    HW214928   2.121   5.095   4.092
 4681SOL     OW14929   1.974   4.747   5.443
 4681SOL    HW114930   1.898   4.723   5.496
 4681SOL    HW214931   2.049   4.709   5.489
 4682SOL     OW14932   2.536   3.924   5.225
 4682SOL    HW114933   2.620   3.903   5.185
 4682SOL    HW214934   2.558   3.955   5.313
 4683SOL     OW14935   1.940   4.057   3.759
 4683SOL    HW114936   1.854   4.036   3.723
 4683SOL    HW214937   1.970   4.132   3.708
 4684SOL     OW14938   3.291   4.581   5.123
 4684SOL    HW114939   3.242   4.642   5.068
 4684SOL    HW214940   3.380   4.584   5.089
 4685SOL     OW14941   1.929   3.881   4.034
 4685SOL    HW114942   1.913   3.960   3.984
 4685SOL    HW214943   2.015   3.850   4.003
 4686SOL     OW14944   3.044   5.063   3.845
 4686SOL    HW114945   2.953   5.033   3.846
 4686SOL    HW214946   3.072   5.055   3.936
 4687SOL     OW14947   2.482   4.554   5.158
 4687SOL    HW114948   2.538   4.630   5.142
 4687SOL    HW214949   2.542   4.481   5.166
 4688SOL     OW14950   2.580   4.287   5.427
 4688SOL    HW114951   2.621   4.350   5.487
 4688SOL    HW214952   2.605   4.202   5.461
 4689SOL     OW14953   3.336   4.922   5.354
 4689SOL    HW114954   3.323   4.935   5.448
 4689SOL    HW214955   3.430   4.936   5.341
 4690SOL     OW14956   3.531   4.605   4.979
 4690SOL    HW114957   3.525   4.520   4.935
 4690SOL    HW214958   3.521   4.669   4.908
 4691SOL     OW14959   3.078   4.044   4.182
 4691SOL    HW114960   3.144   3.976   4.171
 4691SOL    HW214961   3.106   4.093   4.259
 4692SOL     OW14962   2.451   4.461   4.395
 4692SOL    HW114963   2.490   4.547   4.380
 4692SOL    HW214964   2.384   4.453   4.327
 4693SOL     OW14965   3.624   4.086   5.375
 4693SOL    HW114966   3.607   4.102   5.282
 4693SOL    HW214967   3.552   4.030   5.403
 4694SOL     OW14968   3.607   4.657   5.236
 4694SOL    HW114969   3.602   4.752   5.249
 4694SOL    HW214970   3.591   4.645   5.142
 4695SOL     OW14971   2.710   5.094   3.744
 4695SOL    HW114972   2.692   5.095   3.838
 4695SOL    HW214973   2.725   5.186   3.722
 4696SOL     OW14974   2.730   4.692   4.579
 4696SOL    HW114975   2.780   4.621   4.619
 4696SOL    HW214976   2.695   4.741   4.653
 4697SOL     OW14977   2.942   4.714   3.814
 4697SOL    HW114978   2.919   4.763   3.735
 4697SOL    HW214979   3.016   4.659   3.787
 4698SOL     OW14980   2.085   5.023   5.576
 4698SOL    HW114981   2.017   4.960   5.551
 4698SOL    HW214982   2.073   5.033   5.671
 4699SOL     OW14983   1.949   4.955   4.394
 4699SOL    HW114984   1.948   4.903   4.474
 4699SOL    HW214985   2.012   4.911   4.338
 4700SOL     OW14986   2.534   5.105   5.332
 4700SOL    HW114987   2.457   5.073   5.380
 4700SOL    HW214988   2.566   5.178   5.385
 4701SOL     OW14989   3.671   3.907   4.961
 4701SOL    HW114990   3.685   3.813   4.975
 4701SOL    HW214991   3.683   3.919   4.867
 4702SOL     OW14992   2.291   4.157   4.249
 4702SOL    HW114993   2.322   4.087   4.192
 4702SOL    HW214994   2.243   4.113   4.319
 4703SOL     OW14995   3.569   5.224   4.843
 4703SOL    HW114996   3.495   5.208   4.784
 4703SOL    HW214997   3.575   5.145   4.896
 4704SOL     OW14998   2.193   4.280   5.016
 4704SOL    HW114999   2.248   4.225   5.071
 4704SOL    HW215000   2.212   4.252   4.927
 4705SOL     OW15001   3.290   3.947   4.840
 4705SOL    HW115002   3.330   3.875   4.889
 4705SOL    HW215003   3.241   3.996   4.907
 4706SOL     OW15004   2.861   3.755   4.869
 4706SOL    HW115005   2.817   3.685   4.821
 4706SOL    HW215006   2.951   3.725   4.878
 4707SOL     OW15007   2.666   5.047   4.008
 4707SOL    HW115008   2.607   4.974   4.028
 4707SOL    HW215009   2.721   5.054   4.086
 4708SOL     OW15010   2.484   5.299   5.016
 4708SOL    HW115011   2.490   0.054   5.095
 4708SOL    HW215012   2.575   5.279   4.994
 4709SOL     OW15013   3.222   3.777   3.888
 4709SOL    HW115014   3.259   3.709   3.832
 4709SOL    HW215015   3.133   3.746   3.908
 4710SOL     OW15016   3.158   4.186   4.404
 4710SOL    HW115017   3.105   4.265   4.411
 4710SOL    HW215018   3.154   4.147   4.491
 4711SOL     OW15019   3.450   3.926   4.601
 4711SOL    HW115020   3.385   3.945   4.670
 4711SOL    HW215021   3.450   4.003   4.545
 4712SOL     OW15022   1.904   4.793   4.032
 4712SOL    HW115023   1.998   4.787   4.015
 4712SOL    HW215024   1.878   4.704   4.054
 4713SOL     OW15025   2.090   4.347   5.710
 4713SOL    HW115026   2.001   4.346   5.745
 4713SOL    HW215027   2.081   4.322   5.618
 4714SOL     OW15028   2.087   4.006   6.578
 4714SOL    HW115029   2.115   3.971   6.662
 4714SOL    HW215030   1.997   3.974   6.568
 4715SOL     OW15031   1.865   4.107   6.224
 4715SOL    HW115032   1.783   4.133   6.266
 4715SOL    HW215033   1.844   4.028   6.175
 4716SOL     OW15034   2.429   5.007   6.767
 4716SOL    HW115035   2.344   5.004   6.722
 4716SOL    HW215036   2.440   5.099   6.792
 4717SOL     OW15037   3.418   5.232   6.275
 4717SOL    HW115038   3.400   5.229   6.368
 4717SOL    HW215039   3.338   5.268   6.236
 4718SOL     OW15040   2.992   4.422   6.286
 4718SOL    HW115041   3.041   4.503   6.272
 4718SOL    HW215042   2.946   4.436   6.368
 4719SOL     OW15043   3.630   4.329   5.814
 4719SOL    HW115044   3.608   4.321   5.721
 4719SOL    HW215045   3.594   4.249   5.853
 4720SOL     OW15046   2.617   4.867   6.625
 4720SOL    HW115047   2.550   4.899   6.686
 4720SOL    HW215048   2.647   4.946   6.580
 4721SOL     OW15049   2.730   4.498   7.406
 4721SOL    HW115050   2.713   4.572   7.464
 4721SOL    HW215051   2.755   4.538   7.323
 4722SOL     OW15052   2.548   4.725   6.233
 4722SOL    HW115053   2.613   4.715   6.303
 4722SOL    HW215054   2.479   4.779   6.272
 4723SOL     OW15055   2.571   4.872   7.398
 4723SOL    HW115056   2.619   4.951   7.422
 4723SOL    HW215057   2.488   4.904   7.362
 4724SOL     OW15058   2.199   5.149   6.645
 4724SOL    HW115059   2.121   5.104   6.612
 4724SOL    HW215060   2.237   5.191   6.568
 4725SOL     OW15061   3.316   5.221   6.934
 4725SOL    HW115062   3.371   5.293   6.965
 4725SOL    HW215063   3.249   5.211   7.001
 4726SOL     OW15064   2.312   4.122   7.072
 4726SOL    HW115065   2.387   4.063   7.078
 4726SOL    HW215066   2.236   4.066   7.086
 4727SOL     OW15067   3.473   4.171   6.327
 4727SOL    HW115068   3.399   4.193   6.271
 4727SOL    HW215069   3.487   4.249   6.381
 4728SOL     OW15070   2.995   5.072   7.286
 4728SOL    HW115071   3.027   5.072   7.377
 4728SOL    HW215072   2.941   4.993   7.280
 4729SOL     OW15073   2.072   5.157   6.107
 4729SOL    HW115074   2.099   5.237   6.150
 4729SOL    HW215075   2.021   5.110   6.173
 4730SOL     OW15076   2.122   4.811   6.478
 4730SOL    HW115077   2.119   4.724   6.517
 4730SOL    HW215078   2.064   4.864   6.534
 4731SOL     OW15079   2.446   4.706   5.721
 4731SOL    HW115080   2.493   4.753   5.653
 4731SOL    HW215081   2.485   4.736   5.803
 4732SOL     OW15082   3.458   3.848   7.053
 4732SOL    HW115083   3.468   3.929   7.003
 4732SOL    HW215084   3.442   3.877   7.143
 4733SOL     OW15085   1.977   4.377   6.146
 4733SOL    HW115086   1.948   4.288   6.167
 4733SOL    HW215087   1.969   4.425   6.228
 4734SOL     OW15088   1.848   0.013   5.683
 4734SOL    HW115089   1.864   5.224   5.715
 4734SOL    HW215090   1.870   0.069   5.758
 4735SOL     OW15091   3.550   4.641   6.227
 4735SOL    HW115092   3.634   4.599   6.206
 4735SOL    HW215093   3.529   4.692   6.149
 4736SOL     OW15094   3.508   4.830   6.015
 4736SOL    HW115095   3.594   4.834   5.973
 4736SOL    HW215096   3.515   4.891   6.089
 4737SOL     OW15097   1.985   4.466   7.172
 4737SOL    HW115098   2.077   4.493   7.178
 4737SOL    HW215099   1.936   4.548   7.179
 4738SOL     OW15100   2.485   5.098   6.324
 4738SOL    HW115101   2.431   5.019   6.322
 4738SOL    HW215102   2.466   5.143   6.241
 4739SOL     OW15103   3.150   4.953   7.012
 4739SOL    HW115104   3.185   4.888   6.951
 4739SOL    HW215105   3.211   4.951   7.086
 4740SOL     OW15106   2.677   3.724   6.093
 4740SOL    HW115107   2.718   3.808   6.074
 4740SOL    HW215108   2.584   3.744   6.102
 4741SOL     OW15109   2.052   4.689   6.857
 4741SOL    HW115110   2.137   4.647   6.843
 4741SOL    HW215111   1.990   4.635   6.808
 4742SOL     OW15112   3.392   4.720   5.784
 4742SOL    HW115113   3.323   4.662   5.816
 4742SOL    HW215114   3.434   4.754   5.863
 4743SOL     OW15115   2.196   3.973   7.401
 4743SOL    HW115116   2.240   4.057   7.415
 4743SOL    HW215117   2.106   3.987   7.430
 4744SOL     OW15118   3.339   5.147   6.548
 4744SOL    HW115119   3.267   5.160   6.609
 4744SOL    HW215120   3.327   5.059   6.514
 4745SOL     OW15121   2.458   4.444   5.853
 4745SOL    HW115122   2.463   4.526   5.804
 4745SOL    HW215123   2.393   4.461   5.921
 4746SOL     OW15124   3.141   4.078   6.519
 4746SOL    HW115125   3.051   4.045   6.527
 4746SOL    HW215126   3.192   4.025   6.579
 4747SOL     OW15127   2.653   4.342   7.037
 4747SOL    HW115128   2.627   4.317   7.125
 4747SOL    HW215129   2.614   4.274   6.981
 4748SOL     OW15130   3.256   4.198   7.263
 4748SOL    HW115131   3.258   4.243   7.348
 4748SOL    HW215132   3.315   4.124   7.273
 4749SOL     OW15133   2.816   4.612   7.169
 4749SOL    HW115134   2.871   4.542   7.133
 4749SOL    HW215135   2.768   4.645   7.093
 4750SOL     OW15136   2.854   4.137   6.824
 4750SOL    HW115137   2.768   4.157   6.860
 4750SOL    HW215138   2.836   4.090   6.742
 4751SOL     OW15139   2.914   4.422   6.012
 4751SOL    HW115140   2.930   4.415   6.106
 4751SOL    HW215141   2.831   4.376   5.998
 4752SOL     OW15142   1.950   4.545   6.362
 4752SOL    HW115143   2.031   4.538   6.413
 4752SOL    HW215144   1.906   4.623   6.398
 4753SOL     OW15145   2.756   4.073   5.780
 4753SOL    HW115146   2.796   4.136   5.720
 4753SOL    HW215147   2.774   3.987   5.741
 4754SOL     OW15148   3.570   4.299   7.416
 4754SOL    HW115149   3.533   4.372   7.367
 4754SOL    HW215150   3.598   4.237   7.348
 4755SOL     OW15151   3.240   4.863   6.124
 4755SOL    HW115152   3.321   4.850   6.076
 4755SOL    HW215153   3.190   4.925   6.071
 4756SOL     OW15154   2.413   3.905   6.480
 4756SOL    HW115155   2.414   3.934   6.571
 4756SOL    HW215156   2.413   3.987   6.429
 4757SOL     OW15157   2.883   5.169   6.057
 4757SOL    HW115158   2.806   5.226   6.054
 4757SOL    HW215159   2.899   5.156   6.151
 4758SOL     OW15160   3.663   4.780   6.453
 4758SOL    HW115161   3.606   4.762   6.378
 4758SOL    HW215162   3.602   4.787   6.527
 4759SOL     OW15163   3.113   5.240   7.111
 4759SOL    HW115164   3.077   5.173   7.169
 4759SOL    HW215165   3.041   5.264   7.053
 4760SOL     OW15166   2.181   4.681   5.837
 4760SOL    HW115167   2.264   4.700   5.792
 4760SOL    HW215168   2.151   4.599   5.797
 4761SOL     OW15169   3.341   4.468   6.313
 4761SOL    HW115170   3.334   4.425   6.398
 4761SOL    HW215171   3.419   4.523   6.319
 4762SOL     OW15172   2.325   4.988   7.328
 4762SOL    HW115173   2.299   4.990   7.236
 4762SOL    HW215174   2.243   4.987   7.377
 4763SOL     OW15175   2.930   0.179   5.790
 4763SOL    HW115176   2.941   0.103   5.848
 4763SOL    HW215177   2.956   0.146   5.704
 4764SOL     OW15178   2.063   4.004   7.088
 4764SOL    HW115179   1.981   4.052   7.084
 4764SOL    HW215180   2.044   3.929   7.144
 4765SOL     OW15181   3.484   5.101   5.695
 4765SOL    HW115182   3.485   5.175   5.635
 4765SOL    HW215183   3.416   5.043   5.660
 4766SOL     OW15184   3.263   3.831   6.020
 4766SOL    HW115185   3.254   3.807   5.928
 4766SOL    HW215186   3.358   3.838   6.034
 4767SOL     OW15187   2.256   4.419   6.062
 4767SOL    HW115188   2.275   4.326   6.074
 4767SOL    HW215189   2.162   4.426   6.079
 4768SOL     OW15190   3.396   3.949   7.311
 4768SOL    HW115191   3.405   3.970   7.404
 4768SOL    HW215192   3.327   3.881   7.309
 4769SOL     OW15193   2.498   3.846   5.691
 4769SOL    HW115194   2.566   3.780   5.704
 4769SOL    HW215195   2.448   3.814   5.616
 4770SOL     OW15196   2.627   4.001   7.340
 4770SOL    HW115197   2.704   3.945   7.341
 4770SOL    HW215198   2.585   3.984   7.424
 4771SOL     OW15199   3.202   4.313   7.018
 4771SOL    HW115200   3.233   4.282   7.103
 4771SOL    HW215201   3.238   4.401   7.010
 4772SOL     OW15202   2.675   5.118   6.522
 4772SOL    HW115203   2.756   5.105   6.472
 4772SOL    HW215204   2.607   5.125   6.456
 4773SOL     OW15205   2.790   4.233   6.489
 4773SOL    HW115206   2.766   4.225   6.396
 4773SOL    HW215207   2.821   4.146   6.513
 4774SOL     OW15208   2.411   3.787   6.087
 4774SOL    HW115209   2.331   3.787   6.139
 4774SOL    HW215210   2.405   3.866   6.032
 4775SOL     OW15211   3.290   4.924   5.624
 4775SOL    HW115212   3.320   4.849   5.675
 4775SOL    HW215213   3.202   4.942   5.657
 4776SOL     OW15214   2.154   3.772   5.771
 4776SOL    HW115215   2.213   3.837   5.732
 4776SOL    HW215216   2.212   3.709   5.813
 4777SOL     OW15217   2.801   3.971   6.045
 4777SOL    HW115218   2.775   4.012   5.963
 4777SOL    HW215219   2.895   3.985   6.050
 4778SOL     OW15220   2.942   4.405   7.045
 4778SOL    HW115221   2.874   4.338   7.050
 4778SOL    HW215222   3.024   4.357   7.039
 4779SOL     OW15223   3.126   5.266   6.364
 4779SOL    HW115224   3.082   0.047   6.338
 4779SOL    HW215225   3.171   5.289   6.445
 4780SOL     OW15226   2.328   4.872   6.315
 4780SOL    HW115227   2.260   4.852   6.379
 4780SOL    HW215228   2.287   4.855   6.230
 4781SOL     OW15229   2.885   4.264   5.609
 4781SOL    HW115230   2.842   4.347   5.589
 4781SOL    HW215231   2.951   4.286   5.675
 4782SOL     OW15232   1.942   4.278   6.978
 4782SOL    HW115233   2.034   4.277   6.951
 4782SOL    HW215234   1.937   4.348   7.043
 4783SOL     OW15235   2.421   3.951   6.753
 4783SOL    HW115236   2.463   3.875   6.793
 4783SOL    HW215237   2.330   3.947   6.782
 4784SOL     OW15238   2.729   4.182   6.226
 4784SOL    HW115239   2.684   4.238   6.161
 4784SOL    HW215240   2.751   4.103   6.178
 4785SOL     OW15241   2.879   3.778   6.336
 4785SOL    HW115242   2.820   3.771   6.261
 4785SOL    HW215243   2.856   3.703   6.391
 4786SOL     OW15244   3.300   4.890   6.445
 4786SOL    HW115245   3.233   4.822   6.441
 4786SOL    HW215246   3.326   4.903   6.354
 4787SOL     OW15247   3.328   4.330   6.561
 4787SOL    HW115248   3.276   4.250   6.565
 4787SOL    HW215249   3.387   4.324   6.636
 4788SOL     OW15250   3.707   4.539   5.969
 4788SOL    HW115251   3.763   4.488   6.027
 4788SOL    HW215252   3.679   4.476   5.902
 4789SOL     OW15253   2.341   5.149   5.737
 4789SOL    HW115254   2.281   5.096   5.790
 4789SOL    HW215255   2.346   5.102   5.654
 4790SOL     OW15256   3.532   4.986   6.232
 4790SOL    HW115257   3.626   4.993   6.249
 4790SOL    HW215258   3.498   5.075   6.248
 4791SOL     OW15259   3.256   4.296   5.657
 4791SOL    HW115260   3.195   4.276   5.728
 4791SOL    HW215261   3.341   4.265   5.689
 4792SOL     OW15262   2.387   3.987   5.903
 4792SOL    HW115263   2.433   3.940   5.833
 4792SOL    HW215264   2.364   4.071   5.864
 4793SOL     OW15265   3.612   4.959   7.159
 4793SOL    HW115266   3.698   4.917   7.159
 4793SOL    HW215267   3.631   5.052   7.172
 4794SOL     OW15268   2.926   5.073   6.915
 4794SOL    HW115269   2.848   5.048   6.964
 4794SOL    HW215270   2.999   5.035   6.965
 4795SOL     OW15271   2.989   4.925   6.693
 4795SOL    HW115272   2.940   4.967   6.764
 4795SOL    HW215273   2.943   4.951   6.613
 4796SOL     OW15274   3.490   4.822   6.662
 4796SOL    HW115275   3.485   4.883   6.735
 4796SOL    HW215276   3.412   4.841   6.610
 4797SOL     OW15277   2.780   3.821   6.981
 4797SOL    HW115278   2.803   3.802   6.890
 4797SOL    HW215279   2.859   3.860   7.018
 4798SOL     OW15280   2.847   4.838   7.313
 4798SOL    HW115281   2.754   4.855   7.330
 4798SOL    HW215282   2.847   4.762   7.255
 4799SOL     OW15283   2.567   4.783   5.957
 4799SOL    HW115284   2.554   4.767   6.051
 4799SOL    HW215285   2.644   4.732   5.934
 4800SOL     OW15286   2.281   4.539   6.837
 4800SOL    HW115287   2.350   4.549   6.904
 4800SOL    HW215288   2.246   4.451   6.851
 4801SOL     OW15289   3.127   4.101   6.862
 4801SOL    HW115290   3.160   4.178   6.908
 4801SOL    HW215291   3.036   4.123   6.840
 4802SOL     OW15292   2.207   4.834   6.074
 4802SOL    HW115293   2.209   4.907   6.013
 4802SOL    HW215294   2.206   4.755   6.019
 4803SOL     OW15295   2.414   4.260   6.446
 4803SOL    HW115296   2.429   4.318   6.371
 4803SOL    HW215297   2.479   4.286   6.510
 4804SOL     OW15298   3.122   5.078   5.971
 4804SOL    HW115299   3.179   5.145   6.010
 4804SOL    HW215300   3.034   5.101   6.001
 4805SOL     OW15301   3.133   5.182   6.728
 4805SOL    HW115302   3.192   5.197   6.801
 4805SOL    HW215303   3.088   5.100   6.748
 4806SOL     OW15304   3.443   4.346   6.066
 4806SOL    HW115305   3.396   4.399   6.130
 4806SOL    HW215306   3.488   4.410   6.011
 4807SOL     OW15307   2.211   5.236   6.900
 4807SOL    HW115308   2.199   5.200   6.811
 4807SOL    HW215309   2.304   5.256   6.905
 4808SOL     OW15310   2.277   4.469   7.188
 4808SOL    HW115311   2.339   4.513   7.131
 4808SOL    HW215312   2.315   4.383   7.204
 4809SOL     OW15313   3.464   4.503   7.269
 4809SOL    HW115314   3.378   4.545   7.262
 4809SOL    HW215315   3.517   4.545   7.201
 4810SOL     OW15316   2.858   3.849   7.340
 4810SOL    HW115317   2.915   3.921   7.313
 4810SOL    HW215318   2.905   3.770   7.315
 4811SOL     OW15319   2.360   3.763   7.334
 4811SOL    HW115320   2.316   3.709   7.268
 4811SOL    HW215321   2.302   3.838   7.346
 4812SOL     OW15322   2.446   4.596   6.617
 4812SOL    HW115323   2.476   4.687   6.616
 4812SOL    HW215324   2.389   4.591   6.694
 4813SOL     OW15325   3.218   4.582   6.613
 4813SOL    HW115326   3.134   4.571   6.568
 4813SOL    HW215327   3.260   4.496   6.607
 4814SOL     OW15328   3.066   4.252   5.852
 4814SOL    HW115329   3.074   4.174   5.907
 4814SOL    HW215330   3.023   4.316   5.908
 4815SOL     OW15331   2.160   3.922   6.833
 4815SOL    HW115332   2.123   3.954   6.915
 4815SOL    HW215333   2.142   3.828   6.833
 4816SOL     OW15334   1.916   5.047   6.871
 4816SOL    HW115335   1.939   4.982   6.937
 4816SOL    HW215336   1.951   5.129   6.905
 4817SOL     OW15337   2.585   4.354   6.643
 4817SOL    HW115338   2.661   4.339   6.586
 4817SOL    HW215339   2.557   4.443   6.622
 4818SOL     OW15340   3.598   4.684   7.438
 4818SOL    HW115341   3.551   4.621   7.384
 4818SOL    HW215342   3.540   4.699   7.513
 4819SOL     OW15343   2.166   3.788   6.210
 4819SOL    HW115344   2.146   3.879   6.232
 4819SOL    HW215345   2.174   3.743   6.294
 4820SOL     OW15346   3.479   4.099   5.952
 4820SOL    HW115347   3.507   4.035   6.017
 4820SOL    HW215348   3.456   4.177   6.003
 4821SOL     OW15349   2.890   4.483   6.546
 4821SOL    HW115350   2.886   4.500   6.640
 4821SOL    HW215351   2.864   4.391   6.538
 4822SOL     OW15352   3.715   5.213   7.168
 4822SOL    HW115353   3.707   5.290   7.112
 4822SOL    HW215354   3.786   5.234   7.229
 4823SOL     OW15355   2.215   4.639   7.395
 4823SOL    HW115356   2.298   4.659   7.440
 4823SOL    HW215357   2.239   4.577   7.327
 4824SOL     OW15358   3.391   3.997   5.713
 4824SOL    HW115359   3.326   3.932   5.740
 4824SOL    HW215360   3.424   4.033   5.795
 4825SOL     OW15361   3.153   4.550   5.616
 4825SOL    HW115362   3.196   4.464   5.620
 4825SOL    HW215363   3.184   4.589   5.535
 4826SOL     OW15364   2.919   5.081   6.409
 4826SOL    HW115365   2.925   4.995   6.367
 4826SOL    HW215366   3.006   5.119   6.398
 4827SOL     OW15367   2.170   4.532   6.533
 4827SOL    HW115368   2.264   4.553   6.526
 4827SOL    HW215369   2.168   4.442   6.565
 4828SOL     OW15370   2.192   4.251   6.598
 4828SOL    HW115371   2.157   4.163   6.584
 4828SOL    HW215372   2.269   4.256   6.541
 4829SOL     OW15373   2.996   4.099   7.268
 4829SOL    HW115374   2.949   4.154   7.330
 4829SOL    HW215375   3.084   4.138   7.264
 4830SOL     OW15376   3.023   3.926   7.056
 4830SOL    HW115377   3.012   3.989   7.127
 4830SOL    HW215378   3.063   3.976   6.985
 4831SOL     OW15379   1.868   5.039   5.776
 4831SOL    HW115380   1.778   5.057   5.751
 4831SOL    HW215381   1.866   4.951   5.814
 4832SOL     OW15382   2.843   4.515   6.812
 4832SOL    HW115383   2.900   4.493   6.885
 4832SOL    HW215384   2.758   4.477   6.836
 4833SOL     OW15385   1.898   4.270   6.702
 4833SOL    HW115386   1.978   4.256   6.652
 4833SOL    HW215387   1.926   4.272   6.794
 4834SOL     OW15388   2.054   4.244   7.314
 4834SOL    HW115389   2.109   4.202   7.247
 4834SOL    HW215390   2.013   4.318   7.270
 4835SOL     OW15391   3.239   4.662   7.244
 4835SOL    HW115392   3.260   4.755   7.241
 4835SOL    HW215393   3.235   4.635   7.152
 4836SOL     OW15394   2.678   4.293   5.948
 4836SOL    HW115395   2.682   4.219   5.887
 4836SOL    HW215396   2.604   4.346   5.916
 4837SOL     OW15397   3.504   4.325   6.771
 4837SOL    HW115398   3.494   4.266   6.846
 4837SOL    HW215399   3.591   4.306   6.737
 4838SOL     OW15400   2.068   5.275   7.330
 4838SOL    HW115401   2.033   0.023   7.405
 4838SOL    HW215402   2.081   5.186   7.363
 4839SOL     OW15403   2.565   4.174   6.844
 4839SOL    HW115404   2.511   4.100   6.815
 4839SOL    HW215405   2.561   4.236   6.772
 4840SOL     OW15406   2.326   4.216   5.772
 4840SOL    HW115407   2.384   4.289   5.794
 4840SOL    HW215408   2.240   4.257   5.759
 4841SOL     OW15409   2.006   4.863   7.057
 4841SOL    HW115410   2.008   4.812   7.138
 4841SOL    HW215411   2.024   4.799   6.988
 4842SOL     OW15412   3.188   4.768   6.808
 4842SOL    HW115413   3.211   4.706   6.739
 4842SOL    HW215414   3.118   4.821   6.770
 4843SOL     OW15415   3.174   4.581   5.892
 4843SOL    HW115416   3.099   4.550   5.942
 4843SOL    HW215417   3.149   4.567   5.800
 4844SOL     OW15418   1.957   4.987   6.608
 4844SOL    HW115419   1.935   5.005   6.699
 4844SOL    HW215420   1.877   4.948   6.572
 4845SOL     OW15421   2.615   0.035   7.297
 4845SOL    HW115422   2.523   0.058   7.307
 4845SOL    HW215423   2.636   0.063   7.208
 4846SOL     OW15424   3.581   3.872   6.094
 4846SOL    HW115425   3.654   3.857   6.034
 4846SOL    HW215426   3.566   3.787   6.135
 4847SOL     OW15427   3.139   4.650   6.257
 4847SOL    HW115428   3.212   4.589   6.266
 4847SOL    HW215429   3.174   4.722   6.204
 4848SOL     OW15430   2.679   4.993   7.004
 4848SOL    HW115431   2.648   5.028   7.088
 4848SOL    HW215432   2.605   5.002   6.945
 4849SOL     OW15433   3.703   3.897   6.553
 4849SOL    HW115434   3.732   3.809   6.526
 4849SOL    HW215435   3.616   3.906   6.513
 4850SOL     OW15436   2.123   4.039   6.302
 4850SOL    HW115437   2.037   4.075   6.279
 4850SOL    HW215438   2.121   4.032   6.398
 4851SOL     OW15439   2.687   4.727   6.957
 4851SOL    HW115440   2.734   4.719   6.874
 4851SOL    HW215441   2.690   4.820   6.978
 4852SOL     OW15442   2.778   4.635   5.877
 4852SOL    HW115443   2.839   4.668   5.810
 4852SOL    HW215444   2.826   4.566   5.921
 4853SOL     OW15445   2.226   5.027   7.084
 4853SOL    HW115446   2.216   5.100   7.023
 4853SOL    HW215447   2.151   4.970   7.066
 4854SOL     OW15448   3.474   5.004   6.868
 4854SOL    HW115449   3.531   4.996   6.945
 4854SOL    HW215450   3.412   5.073   6.891
 4855SOL     OW15451   2.918   4.834   6.298
 4855SOL    HW115452   2.845   4.783   6.334
 4855SOL    HW215453   2.980   4.768   6.267
 4856SOL     OW15454   2.883   3.964   6.552
 4856SOL    HW115455   2.880   3.917   6.469
 4856SOL    HW215456   2.878   3.896   6.619
 4857SOL     OW15457   3.585   4.116   6.967
 4857SOL    HW115458   3.657   4.179   6.966
 4857SOL    HW215459   3.614   4.045   6.910
 4858SOL     OW15460   2.120   5.051   5.869
 4858SOL    HW115461   2.029   5.052   5.842
 4858SOL    HW215462   2.121   5.095   5.954
 4859SOL     OW15463   1.975   4.748   7.306
 4859SOL    HW115464   1.898   4.724   7.358
 4859SOL    HW215465   2.049   4.709   7.352
 4860SOL     OW15466   2.536   3.920   7.085
 4860SOL    HW115467   2.621   3.900   7.045
 4860SOL    HW215468   2.559   3.951   7.173
 4861SOL     OW15469   1.941   4.056   5.620
 4861SOL    HW115470   1.853   4.038   5.587
 4861SOL    HW215471   1.971   4.132   5.569
 4862SOL     OW15472   3.291   4.582   6.986
 4862SOL    HW115473   3.242   4.643   6.930
 4862SOL    HW215474   3.380   4.584   6.952
 4863SOL     OW15475   1.929   3.880   5.895
 4863SOL    HW115476   1.915   3.960   5.844
 4863SOL    HW215477   2.014   3.847   5.865
 4864SOL     OW15478   3.044   5.062   5.707
 4864SOL    HW115479   2.953   5.034   5.708
 4864SOL    HW215480   3.072   5.055   5.798
 4865SOL     OW15481   2.481   4.555   7.020
 4865SOL    HW115482   2.538   4.630   7.004
 4865SOL    HW215483   2.541   4.481   7.028
 4866SOL     OW15484   2.580   4.287   7.290
 4866SOL    HW115485   2.621   4.348   7.350
 4866SOL    HW215486   2.605   4.200   7.322
 4867SOL     OW15487   3.336   4.921   7.217
 4867SOL    HW115488   3.323   4.935   7.311
 4867SOL    HW215489   3.430   4.936   7.204
 4868SOL     OW15490   3.531   4.605   6.841
 4868SOL    HW115491   3.525   4.520   6.798
 4868SOL    HW215492   3.521   4.668   6.770
 4869SOL     OW15493   3.078   4.043   6.044
 4869SOL    HW115494   3.141   3.971   6.036
 4869SOL    HW215495   3.107   4.092   6.120
 4870SOL     OW15496   2.451   4.461   6.256
 4870SOL    HW115497   2.490   4.547   6.242
 4870SOL    HW215498   2.384   4.453   6.189
 4871SOL     OW15499   3.623   4.087   7.238
 4871SOL    HW115500   3.607   4.102   7.145
 4871SOL    HW215501   3.551   4.030   7.265
 4872SOL     OW15502   3.608   4.657   7.098
 4872SOL    HW115503   3.601   4.752   7.111
 4872SOL    HW215504   3.592   4.645   7.004
 4873SOL     OW15505   2.711   5.094   5.606
 4873SOL    HW115506   2.693   5.094   5.700
 4873SOL    HW215507   2.724   5.186   5.584
 4874SOL     OW15508   2.730   4.692   6.441
 4874SOL    HW115509   2.780   4.620   6.481
 4874SOL    HW215510   2.695   4.741   6.515
 4875SOL     OW15511   2.942   4.713   5.676
 4875SOL    HW115512   2.919   4.763   5.597
 4875SOL    HW215513   3.016   4.659   5.649
 4876SOL     OW15514   2.083   5.022   7.441
 4876SOL    HW115515   2.019   4.958   7.410
 4876SOL    HW215516   2.061   5.035   7.533
 4877SOL     OW15517   1.949   4.955   6.256
 4877SOL    HW115518   1.948   4.903   6.336
 4877SOL    HW215519   2.012   4.911   6.200
 4878SOL     OW15520   2.533   5.104   7.195
 4878SOL    HW115521   2.456   5.073   7.242
 4878SOL    HW215522   2.566   5.178   7.246
 4879SOL     OW15523   3.675   3.908   6.824
 4879SOL    HW115524   3.684   3.814   6.838
 4879SOL    HW215525   3.684   3.919   6.729
 4880SOL     OW15526   2.291   4.158   6.112
 4880SOL    HW115527   2.321   4.087   6.055
 4880SOL    HW215528   2.243   4.114   6.182
 4881SOL     OW15529   3.569   5.224   6.705
 4881SOL    HW115530   3.495   5.208   6.646
 4881SOL    HW215531   3.575   5.145   6.758
 4882SOL     OW15532   2.193   4.280   6.878
 4882SOL    HW115533   2.248   4.224   6.933
 4882SOL    HW215534   2.212   4.251   6.789
 4883SOL     OW15535   3.294   3.950   6.704
 4883SOL    HW115536   3.317   3.869   6.749
 4883SOL    HW215537   3.242   3.999   6.767
 4884SOL     OW15538   2.871   3.743   6.728
 4884SOL    HW115539   2.816   3.675   6.689
 4884SOL    HW215540   2.959   3.704   6.729
 4885SOL     OW15541   2.666   5.047   5.870
 4885SOL    HW115542   2.607   4.974   5.890
 4885SOL    HW215543   2.721   5.055   5.948
 4886SOL     OW15544   2.484   5.299   6.879
 4886SOL    HW115545   2.490   0.054   6.957
 4886SOL    HW215546   2.575   5.280   6.855
 4887SOL     OW15547   3.215   3.778   5.752
 4887SOL    HW115548   3.245   3.712   5.690
 4887SOL    HW215549   3.127   3.749   5.778
 4888SOL     OW15550   3.158   4.185   6.266
 4888SOL    HW115551   3.105   4.265   6.273
 4888SOL    HW215552   3.154   4.146   6.354
 4889SOL     OW15553   3.448   3.925   6.465
 4889SOL    HW115554   3.389   3.946   6.536
 4889SOL    HW215555   3.448   4.002   6.409
 4890SOL     OW15556   1.904   4.793   5.894
 4890SOL    HW115557   1.998   4.787   5.877
 4890SOL    HW215558   1.878   4.704   5.916
 4891SOL     OW15559   2.090   4.344   7.572
 4891SOL    HW115560   2.000   4.350   7.604
 4891SOL    HW215561   2.082   4.321   7.480
 4892SOL     OW15562   3.629   4.321   7.679
 4892SOL    HW115563   3.609   4.317   7.585
 4892SOL    HW215564   3.588   4.243   7.716
 4893SOL     OW15565   2.139   0.125   7.958
 4893SOL    HW115566   2.115   0.210   7.993
 4893SOL    HW215567   2.145   0.138   7.863
 4894SOL     OW15568   2.079   5.157   7.991
 4894SOL    HW115569   2.093   5.251   7.997
 4894SOL    HW215570   2.021   5.136   8.065
 4895SOL     OW15571   2.446   4.706   7.580
 4895SOL    HW115572   2.492   4.754   7.511
 4895SOL    HW215573   2.485   4.737   7.662
 4896SOL     OW15574   1.862   0.009   7.536
 4896SOL    HW115575   1.865   5.221   7.573
 4896SOL    HW215576   1.861   0.067   7.613
 4897SOL     OW15577   3.544   4.588   8.032
 4897SOL    HW115578   3.623   4.600   0.006
 4897SOL    HW215579   3.532   4.673   7.990
 4898SOL     OW15580   3.519   4.824   7.877
 4898SOL    HW115581   3.607   4.844   7.846
 4898SOL    HW215582   3.498   4.896   7.936
 4899SOL     OW15583   2.664   3.719   7.940
 4899SOL    HW115584   2.713   3.799   7.921
 4899SOL    HW215585   2.573   3.748   7.947
 4900SOL     OW15586   3.394   4.722   7.649
 4900SOL    HW115587   3.328   4.662   7.683
 4900SOL    HW215588   3.438   4.755   7.727
 4901SOL     OW15589   2.453   4.448   7.709
 4901SOL    HW115590   2.456   4.530   7.660
 4901SOL    HW215591   2.393   4.465   7.781
 4902SOL     OW15592   1.921   4.588   0.087
 4902SOL    HW115593   1.985   4.521   0.114
 4902SOL    HW215594   1.920   4.650   0.160
 4903SOL     OW15595   2.746   4.072   7.637
 4903SOL    HW115596   2.789   4.132   7.577
 4903SOL    HW215597   2.780   3.985   7.613
 4904SOL     OW15598   2.184   4.680   7.697
 4904SOL    HW115599   2.264   4.697   7.648
 4904SOL    HW215600   2.147   4.601   7.657
 4905SOL     OW15601   2.951   0.188   7.644
 4905SOL    HW115602   2.922   0.123   7.708
 4905SOL    HW215603   2.946   0.143   7.559
 4906SOL     OW15604   3.489   5.099   7.551
 4906SOL    HW115605   3.475   5.179   7.500
 4906SOL    HW215606   3.419   5.041   7.522
 4907SOL     OW15607   3.278   3.856   7.864
 4907SOL    HW115608   3.267   3.821   7.775
 4907SOL    HW215609   3.373   3.855   7.878
 4908SOL     OW15610   2.254   4.423   7.917
 4908SOL    HW115611   2.255   4.327   7.927
 4908SOL    HW215612   2.163   4.447   7.934
 4909SOL     OW15613   2.492   3.843   7.559
 4909SOL    HW115614   2.566   3.783   7.569
 4909SOL    HW215615   2.447   3.812   7.480
 4910SOL     OW15616   2.394   3.799   7.959
 4910SOL    HW115617   2.309   3.803   8.002
 4910SOL    HW215618   2.392   3.870   7.895
 4911SOL     OW15619   3.290   4.925   7.487
 4911SOL    HW115620   3.319   4.850   7.539
 4911SOL    HW215621   3.202   4.944   7.520
 4912SOL     OW15622   2.154   3.773   7.633
 4912SOL    HW115623   2.213   3.834   7.587
 4912SOL    HW215624   2.213   3.709   7.672
 4913SOL     OW15625   2.806   3.950   7.909
 4913SOL    HW115626   2.763   4.015   7.854
 4913SOL    HW215627   2.897   3.979   7.914
 4914SOL     OW15628   2.301   4.873   0.099
 4914SOL    HW115629   2.227   4.913   0.145
 4914SOL    HW215630   2.270   4.861   0.009
 4915SOL     OW15631   2.887   4.265   7.468
 4915SOL    HW115632   2.841   4.347   7.451
 4915SOL    HW215633   2.947   4.284   7.539
 4916SOL     OW15634   3.735   4.539   7.801
 4916SOL    HW115635   3.724   4.515   7.893
 4916SOL    HW215636   3.695   4.467   7.753
 4917SOL     OW15637   2.333   5.152   7.599
 4917SOL    HW115638   2.277   5.099   7.656
 4917SOL    HW215639   2.343   5.100   7.520
 4918SOL     OW15640   3.256   4.296   7.519
 4918SOL    HW115641   3.195   4.275   7.590
 4918SOL    HW215642   3.340   4.262   7.550
 4919SOL     OW15643   2.387   3.990   7.770
 4919SOL    HW115644   2.432   3.940   7.701
 4919SOL    HW215645   2.364   4.073   7.728
 4920SOL     OW15646   2.571   4.784   7.812
 4920SOL    HW115647   2.546   4.770   7.903
 4920SOL    HW215648   2.651   4.733   7.800
 4921SOL     OW15649   2.226   4.828   7.926
 4921SOL    HW115650   2.203   4.907   7.877
 4921SOL    HW215651   2.214   4.756   7.863
 4922SOL     OW15652   3.087   5.115   7.832
 4922SOL    HW115653   3.173   5.124   7.872
 4922SOL    HW215654   3.037   5.061   7.894
 4923SOL     OW15655   3.450   4.350   7.921
 4923SOL    HW115656   3.438   4.409   7.995
 4923SOL    HW215657   3.488   4.405   7.852
 4924SOL     OW15658   3.065   4.250   7.714
 4924SOL    HW115659   3.067   4.167   7.762
 4924SOL    HW215660   3.040   4.315   7.780
 4925SOL     OW15661   3.481   4.103   7.813
 4925SOL    HW115662   3.503   4.037   7.878
 4925SOL    HW215663   3.457   4.180   7.864
 4926SOL     OW15664   3.391   3.999   7.575
 4926SOL    HW115665   3.326   3.933   7.600
 4926SOL    HW215666   3.423   4.034   7.658
 4927SOL     OW15667   3.156   4.551   7.481
 4927SOL    HW115668   3.197   4.465   7.482
 4927SOL    HW215669   3.186   4.590   7.399
 4928SOL     OW15670   1.871   5.044   7.640
 4928SOL    HW115671   1.780   5.058   7.611
 4928SOL    HW215672   1.872   4.955   7.675
 4929SOL     OW15673   2.703   4.327   7.759
 4929SOL    HW115674   2.695   4.236   7.733
 4929SOL    HW215675   2.613   4.360   7.760
 4930SOL     OW15676   2.322   4.217   7.642
 4930SOL    HW115677   2.382   4.291   7.656
 4930SOL    HW215678   2.238   4.258   7.623
 4931SOL     OW15679   3.172   4.578   7.754
 4931SOL    HW115680   3.085   4.582   7.793
 4931SOL    HW215681   3.156   4.566   7.660
 4932SOL     OW15682   3.574   3.872   7.946
 4932SOL    HW115683   3.651   3.865   7.889
 4932SOL    HW215684   3.578   3.794   8.001
 4933SOL     OW15685   2.791   4.632   7.759
 4933SOL    HW115686   2.842   4.658   7.682
 4933SOL    HW215687   2.781   4.537   7.751
 4934SOL     OW15688   2.120   5.056   7.747
 4934SOL    HW115689   2.029   5.059   7.718
 4934SOL    HW215690   2.119   5.096   7.834
 4935SOL     OW15691   1.940   4.056   7.483
 4935SOL    HW115692   1.854   4.037   7.446
 4935SOL    HW215693   1.971   4.132   7.433
 4936SOL     OW15694   1.931   3.881   7.757
 4936SOL    HW115695   1.915   3.957   7.701
 4936SOL    HW215696   2.014   3.845   7.726
 4937SOL     OW15697   3.043   5.057   7.565
 4937SOL    HW115698   2.950   5.032   7.562
 4937SOL    HW215699   3.061   5.074   7.657
 4938SOL     OW15700   3.076   4.042   7.904
 4938SOL    HW115701   3.150   3.981   7.892
 4938SOL    HW215702   3.097   4.089   7.984
 4939SOL     OW15703   2.489   4.459   8.054
 4939SOL    HW115704   2.493   4.541   0.024
 4939SOL    HW215705   2.402   4.459   8.015
 4940SOL     OW15706   2.713   5.093   7.466
 4940SOL    HW115707   2.696   5.093   7.561
 4940SOL    HW215708   2.722   5.186   7.444
 4941SOL     OW15709   2.935   4.703   7.539
 4941SOL    HW115710   2.915   4.759   7.464
 4941SOL    HW215711   3.012   4.654   7.512
 4942SOL     OW15712   2.249   4.152   7.984
 4942SOL    HW115713   2.299   4.100   7.921
 4942SOL    HW215714   2.300   4.148   8.064
 4943SOL     OW15715   2.668   5.049   7.730
 4943SOL    HW115716   2.616   4.971   7.750
 4943SOL    HW215717   2.683   5.090   7.816
 4944SOL     OW15718   3.215   3.776   7.610
 4944SOL    HW115719   3.245   3.708   7.550
 4944SOL    HW215720   3.128   3.748   7.638
 4945SOL     OW15721   1.913   4.800   7.750
 4945SOL    HW115722   2.008   4.793   7.738
 4945SOL    HW215723   1.883   4.711   7.765
 4946SOL     OW15724   3.939   0.623   0.121
 4946SOL    HW115725   3.860   0.589   0.163
 4946SOL    HW215726   3.965   0.556   0.058
 4947SOL     OW15727   3.941   0.285   0.993
 4947SOL    HW115728   3.970   0.249   1.077
 4947SOL    HW215729   3.857   0.243   0.977
 4948SOL     OW15730   3.727   0.387   0.637
 4948SOL    HW115731   3.643   0.409   0.678
 4948SOL    HW215732   3.709   0.309   0.585
 4949SOL     OW15733   4.291   1.290   1.176
 4949SOL    HW115734   4.204   1.293   1.138
 4949SOL    HW215735   4.307   1.378   1.209
 4950SOL     OW15736   5.284   1.549   0.707
 4950SOL    HW115737   5.249   1.496   0.778
 4950SOL    HW215738   5.226   1.533   0.633
 4951SOL     OW15739   4.860   0.699   0.700
 4951SOL    HW115740   4.910   0.780   0.690
 4951SOL    HW215741   4.810   0.711   0.781
 4952SOL     OW15742   4.478   1.142   1.042
 4952SOL    HW115743   4.409   1.177   1.099
 4952SOL    HW215744   4.513   1.218   0.997
 4953SOL     OW15745   4.594   0.775   1.824
 4953SOL    HW115746   4.575   0.847   1.884
 4953SOL    HW215747   4.616   0.818   1.741
 4954SOL     OW15748   4.408   1.001   0.649
 4954SOL    HW115749   4.474   0.990   0.718
 4954SOL    HW215750   4.340   1.054   0.690
 4955SOL     OW15751   4.436   1.151   1.814
 4955SOL    HW115752   4.483   1.229   1.841
 4955SOL    HW215753   4.354   1.184   1.777
 4956SOL     OW15754   4.054   1.424   1.068
 4956SOL    HW115755   3.982   1.386   1.018
 4956SOL    HW215756   4.104   1.475   1.003
 4957SOL     OW15757   5.161   1.480   1.354
 4957SOL    HW115758   5.208   1.559   1.378
 4957SOL    HW215759   5.101   1.464   1.427
 4958SOL     OW15760   4.169   0.398   1.484
 4958SOL    HW115761   4.244   0.339   1.484
 4958SOL    HW215762   4.094   0.341   1.501
 4959SOL     OW15763   3.944   1.715   0.470
 4959SOL    HW115764   3.965   1.790   0.525
 4959SOL    HW215765   4.020   1.706   0.412
 4960SOL     OW15766   4.859   1.340   1.694
 4960SOL    HW115767   4.898   1.336   1.782
 4960SOL    HW215768   4.807   1.260   1.687
 4961SOL     OW15769   3.950   1.441   0.528
 4961SOL    HW115770   3.937   1.535   0.533
 4961SOL    HW215771   3.893   1.405   0.596
 4962SOL     OW15772   3.983   1.090   0.891
 4962SOL    HW115773   3.980   1.003   0.932
 4962SOL    HW215774   3.925   1.144   0.945
 4963SOL     OW15775   4.331   1.793   1.426
 4963SOL    HW115776   4.251   1.774   1.474
 4963SOL    HW215777   4.356   1.881   1.453
 4964SOL     OW15778   4.351   0.960   0.135
 4964SOL    HW115779   4.299   1.035   0.110
 4964SOL    HW215780   4.404   0.990   0.210
 4965SOL     OW15781   5.250   0.144   1.479
 4965SOL    HW115782   0.000   0.224   1.462
 4965SOL    HW215783   5.273   0.120   1.569
 4966SOL     OW15784   3.839   0.652   0.562
 4966SOL    HW115785   3.810   0.563   0.583
 4966SOL    HW215786   3.831   0.700   0.645
 4967SOL     OW15787   3.755   1.595   0.110
 4967SOL    HW115788   3.741   1.507   0.145
 4967SOL    HW215789   3.738   1.653   0.184
 4968SOL     OW15790   0.115   0.946   0.595
 4968SOL    HW115791   0.202   0.908   0.590
 4968SOL    HW215792   0.114   1.014   0.527
 4969SOL     OW15793   3.847   0.744   1.584
 4969SOL    HW115794   3.939   0.771   1.591
 4969SOL    HW215795   3.798   0.826   1.592
 4970SOL     OW15796   4.337   1.387   0.735
 4970SOL    HW115797   4.292   1.304   0.744
 4970SOL    HW215798   4.322   1.413   0.644
 4971SOL     OW15799   5.005   1.236   1.425
 4971SOL    HW115800   5.038   1.169   1.364
 4971SOL    HW215801   5.061   1.228   1.502
 4972SOL     OW15802   4.536   0.029   0.529
 4972SOL    HW115803   4.566   0.115   0.499
 4972SOL    HW215804   4.441   0.033   0.523
 4973SOL     OW15805   3.914   0.966   1.272
 4973SOL    HW115806   3.999   0.924   1.257
 4973SOL    HW215807   3.852   0.911   1.223
 4974SOL     OW15808   4.896   1.808   1.624
 4974SOL    HW115809   4.916   1.867   1.552
 4974SOL    HW215810   4.919   1.721   1.591
 4975SOL     OW15811   4.051   0.268   1.812
 4975SOL    HW115812   4.103   0.342   1.843
 4975SOL    HW215813   3.965   0.281   1.852
 4976SOL     OW15814   5.168   1.435   0.934
 4976SOL    HW115815   5.106   1.442   1.007
 4976SOL    HW215816   5.162   1.344   0.906
 4977SOL     OW15817   4.322   0.714   0.282
 4977SOL    HW115818   4.339   0.793   0.232
 4977SOL    HW215819   4.257   0.740   0.347
 4978SOL     OW15820   4.995   0.329   0.919
 4978SOL    HW115821   4.906   0.305   0.942
 4978SOL    HW215822   5.048   0.300   0.994
 4979SOL     OW15823   4.517   0.619   1.449
 4979SOL    HW115824   4.490   0.596   1.538
 4979SOL    HW215825   4.476   0.552   1.394
 4980SOL     OW15826   5.116   0.488   1.680
 4980SOL    HW115827   5.119   0.521   1.769
 4980SOL    HW215828   5.182   0.418   1.678
 4981SOL     OW15829   4.678   0.888   1.583
 4981SOL    HW115830   4.730   0.816   1.547
 4981SOL    HW215831   4.629   0.922   1.508
 4982SOL     OW15832   4.718   0.423   1.230
 4982SOL    HW115833   4.632   0.436   1.270
 4982SOL    HW215834   4.700   0.367   1.154
 4983SOL     OW15835   4.778   0.698   0.427
 4983SOL    HW115836   4.794   0.692   0.521
 4983SOL    HW215837   4.694   0.653   0.414
 4984SOL     OW15838   3.813   0.822   0.776
 4984SOL    HW115839   3.893   0.814   0.828
 4984SOL    HW215840   3.769   0.899   0.812
 4985SOL     OW15841   3.850   1.852   1.579
 4985SOL    HW115842   3.851   1.830   1.672
 4985SOL    HW215843   3.759   1.839   1.552
 4986SOL     OW15844   4.607   0.360   0.200
 4986SOL    HW115845   4.654   0.401   0.127
 4986SOL    HW215846   4.589   0.272   0.169
 4987SOL     OW15847   5.096   1.149   0.550
 4987SOL    HW115848   5.179   1.143   0.502
 4987SOL    HW215849   5.042   1.206   0.496
 4988SOL     OW15850   4.246   0.202   0.882
 4988SOL    HW115851   4.270   0.217   0.974
 4988SOL    HW215852   4.271   0.283   0.838
 4989SOL     OW15853   4.729   1.444   0.473
 4989SOL    HW115854   4.690   1.516   0.423
 4989SOL    HW215855   4.708   1.464   0.564
 4990SOL     OW15856   4.078   1.810   0.863
 4990SOL    HW115857   4.122   1.725   0.871
 4990SOL    HW215858   4.147   1.874   0.882
 4991SOL     OW15859   4.940   1.541   1.518
 4991SOL    HW115860   4.927   1.468   1.580
 4991SOL    HW215861   4.880   1.522   1.446
 4992SOL     OW15862   4.048   0.943   0.257
 4992SOL    HW115863   4.115   0.985   0.204
 4992SOL    HW215864   4.050   0.851   0.230
 4993SOL     OW15865   4.191   1.265   1.738
 4993SOL    HW115866   4.164   1.269   1.646
 4993SOL    HW215867   4.108   1.263   1.787
 4994SOL     OW15868   4.823   1.774   0.224
 4994SOL    HW115869   4.768   1.734   0.292
 4994SOL    HW215870   4.839   1.703   0.162
 4995SOL     OW15871   3.921   0.277   1.504
 4995SOL    HW115872   3.842   0.331   1.501
 4995SOL    HW215873   3.914   0.228   1.585
 4996SOL     OW15874   4.188   1.737   0.323
 4996SOL    HW115875   4.231   1.796   0.385
 4996SOL    HW215876   4.258   1.710   0.264
 4997SOL     OW15877   5.099   0.115   0.444
 4997SOL    HW115878   5.092   0.073   0.359
 4997SOL    HW215879   5.192   0.129   0.457
 4998SOL     OW15880   3.979   1.791   1.231
 4998SOL    HW115881   4.031   1.725   1.277
 4998SOL    HW215882   3.971   1.757   1.142
 4999SOL     OW15883   4.662   1.698   0.898
 4999SOL    HW115884   4.743   1.649   0.915
 4999SOL    HW215885   4.618   1.649   0.829
 5000SOL     OW15886   4.111   0.698   0.476
 5000SOL    HW115887   4.134   0.606   0.487
 5000SOL    HW215888   4.018   0.702   0.499
 5001SOL     OW15889   4.348   0.138   0.123
 5001SOL    HW115890   4.439   0.110   0.134
 5001SOL    HW215891   4.320   0.099   0.040
 5002SOL     OW15892   4.508   0.310   1.767
 5002SOL    HW115893   4.573   0.240   1.766
 5002SOL    HW215894   4.459   0.296   1.848
 5003SOL     OW15895   4.599   1.522   1.194
 5003SOL    HW115896   4.584   1.486   1.106
 5003SOL    HW215897   4.670   1.468   1.230
 5004SOL     OW15898   5.060   0.592   1.431
 5004SOL    HW115899   5.089   0.562   1.517
 5004SOL    HW215900   5.099   0.679   1.421
 5005SOL     OW15901   4.539   1.394   0.941
 5005SOL    HW115902   4.623   1.382   0.898
 5005SOL    HW215903   4.476   1.397   0.869
 5006SOL     OW15904   4.651   0.511   0.902
 5006SOL    HW115905   4.628   0.501   0.809
 5006SOL    HW215906   4.681   0.424   0.928
 5007SOL     OW15907   4.266   0.061   0.510
 5007SOL    HW115908   4.180   0.058   0.552
 5007SOL    HW215909   4.259   0.130   0.445
 5008SOL     OW15910   5.139   1.171   0.045
 5008SOL    HW115911   5.134   1.099   0.107
 5008SOL    HW215912   5.055   1.217   0.055
 5009SOL     OW15913   4.024   0.071   0.206
 5009SOL    HW115914   4.082   0.141   0.176
 5009SOL    HW215915   4.077   5.291   0.195
 5010SOL     OW15916   4.668   0.259   0.452
 5010SOL    HW115917   4.641   0.304   0.372
 5010SOL    HW215918   4.760   0.283   0.464
 5011SOL     OW15919   4.802   0.681   1.461
 5011SOL    HW115920   4.733   0.615   1.462
 5011SOL    HW215921   4.883   0.632   1.450
 5012SOL     OW15922   4.940   1.572   0.796
 5012SOL    HW115923   4.961   1.637   0.730
 5012SOL    HW215924   5.022   1.556   0.842
 5013SOL     OW15925   4.193   1.151   0.733
 5013SOL    HW115926   4.124   1.131   0.797
 5013SOL    HW215927   4.151   1.135   0.648
 5014SOL     OW15928   4.991   1.794   0.606
 5014SOL    HW115929   5.036   1.857   0.550
 5014SOL    HW215930   4.925   1.846   0.652
 5015SOL     OW15931   4.764   0.530   0.024
 5015SOL    HW115932   4.709   0.607   0.005
 5015SOL    HW215933   4.813   0.555   0.103
 5016SOL     OW15934   3.804   0.553   1.393
 5016SOL    HW115935   3.895   0.553   1.365
 5016SOL    HW215936   3.798   0.624   1.457
 5017SOL     OW15937   4.279   0.238   1.158
 5017SOL    HW115938   4.312   0.153   1.188
 5017SOL    HW215939   4.187   0.239   1.185
 5018SOL     OW15940   4.592   0.461   0.639
 5018SOL    HW115941   4.548   0.514   0.573
 5018SOL    HW215942   4.612   0.379   0.594
 5019SOL     OW15943   4.695   0.064   0.765
 5019SOL    HW115944   4.633   0.055   0.692
 5019SOL    HW215945   4.716   5.274   0.790
 5020SOL     OW15946   5.157   1.176   0.849
 5020SOL    HW115947   5.103   1.098   0.864
 5020SOL    HW215948   5.165   1.181   0.754
 5021SOL     OW15949   4.207   1.440   0.172
 5021SOL    HW115950   4.134   1.398   0.219
 5021SOL    HW215951   4.214   1.390   0.091
 5022SOL     OW15952   5.125   0.574   0.085
 5022SOL    HW115953   5.049   0.556   0.139
 5022SOL    HW215954   5.200   0.550   0.140
 5023SOL     OW15955   4.246   0.269   0.329
 5023SOL    HW115956   4.288   0.213   0.262
 5023SOL    HW215957   4.229   0.352   0.284
 5024SOL     OW15958   4.779   1.355   1.334
 5024SOL    HW115959   4.704   1.323   1.384
 5024SOL    HW215960   4.855   1.312   1.374
 5025SOL     OW15961   0.007   1.605   1.615
 5025SOL    HW115962   0.041   1.609   1.526
 5025SOL    HW215963   0.083   1.584   1.669
 5026SOL     OW15964   4.855   1.205   1.106
 5026SOL    HW115965   4.791   1.239   1.169
 5026SOL    HW215966   4.821   1.234   1.021
 5027SOL     OW15967   4.623   0.105   1.385
 5027SOL    HW115968   4.657   0.070   1.303
 5027SOL    HW215969   4.699   0.149   1.425
 5028SOL     OW15970   4.709   1.113   1.725
 5028SOL    HW115971   4.617   1.130   1.746
 5028SOL    HW215972   4.706   1.036   1.668
 5029SOL     OW15973   4.440   1.064   0.381
 5029SOL    HW115974   4.421   1.045   0.473
 5029SOL    HW215975   4.517   1.011   0.361
 5030SOL     OW15976   4.143   0.816   1.251
 5030SOL    HW115977   4.211   0.825   1.318
 5030SOL    HW215978   4.108   0.728   1.265
 5031SOL     OW15979   4.991   0.380   1.270
 5031SOL    HW115980   5.024   0.459   1.314
 5031SOL    HW215981   4.900   0.402   1.248
 5032SOL     OW15982   3.795   1.573   1.354
 5032SOL    HW115983   3.766   1.646   1.299
 5032SOL    HW215984   3.891   1.575   1.348
 5033SOL     OW15985   4.067   1.111   0.491
 5033SOL    HW115986   4.073   1.183   0.429
 5033SOL    HW215987   4.075   1.032   0.437
 5034SOL     OW15988   4.276   0.537   0.860
 5034SOL    HW115989   4.292   0.595   0.786
 5034SOL    HW215990   4.343   0.562   0.925
 5035SOL     OW15991   4.971   1.347   0.392
 5035SOL    HW115992   5.026   1.420   0.419
 5035SOL    HW215993   4.883   1.370   0.424
 5036SOL     OW15994   4.996   1.457   1.140
 5036SOL    HW115995   5.050   1.458   1.219
 5036SOL    HW215996   4.942   1.378   1.149
 5037SOL     OW15997   4.070   1.528   1.314
 5037SOL    HW115998   4.058   1.485   1.230
 5037SOL    HW215999   4.165   1.540   1.322
 5038SOL     OW16000   4.139   0.744   1.602
 5038SOL    HW116001   4.201   0.789   1.544
 5038SOL    HW216002   4.179   0.660   1.620
 5039SOL     OW16003   4.755   0.120   1.754
 5039SOL    HW116004   4.798   0.201   1.730
 5039SOL    HW216005   4.797   0.053   1.700
 5040SOL     OW16006   4.203   0.059   1.736
 5040SOL    HW116007   4.142   5.294   1.699
 5040SOL    HW216008   4.147   0.133   1.759
 5041SOL     OW16009   4.307   0.873   1.031
 5041SOL    HW116010   4.339   0.964   1.032
 5041SOL    HW216011   4.251   0.867   1.108
 5042SOL     OW16012   5.085   0.856   1.038
 5042SOL    HW116013   5.010   0.837   0.982
 5042SOL    HW216014   5.142   0.779   1.029
 5043SOL     OW16015   4.927   0.531   0.266
 5043SOL    HW116016   4.931   0.448   0.314
 5043SOL    HW216017   4.883   0.591   0.326
 5044SOL     OW16018   4.019   0.203   1.248
 5044SOL    HW116019   3.980   0.242   1.326
 5044SOL    HW216020   4.021   0.109   1.267
 5045SOL     OW16021   3.770   1.311   1.276
 5045SOL    HW116022   3.803   1.256   1.347
 5045SOL    HW216023   3.777   1.400   1.309
 5046SOL     OW16024   4.449   0.632   1.059
 5046SOL    HW116025   4.523   0.615   1.001
 5046SOL    HW216026   4.421   0.720   1.036
 5047SOL     OW16027   4.028   0.070   0.654
 5047SOL    HW116028   4.008   0.164   0.659
 5047SOL    HW216029   4.076   0.052   0.735
 5048SOL     OW16030   0.040   0.410   0.360
 5048SOL    HW116031   0.060   0.349   0.430
 5048SOL    HW216032   0.006   0.488   0.404
 5049SOL     OW16033   4.751   0.759   0.960
 5049SOL    HW116034   4.749   0.776   1.054
 5049SOL    HW216035   4.725   0.667   0.951
 5050SOL     OW16036   4.697   1.561   1.714
 5050SOL    HW116037   4.686   1.609   1.632
 5050SOL    HW216038   4.745   1.482   1.690
 5051SOL     OW16039   4.077   0.917   1.809
 5051SOL    HW116040   4.159   0.935   1.855
 5051SOL    HW216041   4.101   0.853   1.741
 5052SOL     OW16042   5.032   0.831   0.027
 5052SOL    HW116043   5.060   0.741   0.042
 5052SOL    HW216044   5.057   0.849   8.016
 5053SOL     OW16045   4.789   1.334   0.856
 5053SOL    HW116046   4.793   1.263   0.793
 5053SOL    HW216047   4.847   1.402   0.820
 5054SOL     OW16048   4.033   0.808   0.947
 5054SOL    HW116049   4.126   0.830   0.941
 5054SOL    HW216050   4.031   0.718   0.978
 5055SOL     OW16051   4.055   0.527   1.012
 5055SOL    HW116052   4.019   0.440   0.998
 5055SOL    HW216053   4.132   0.531   0.955
 5056SOL     OW16054   4.862   0.377   1.691
 5056SOL    HW116055   4.811   0.431   1.752
 5056SOL    HW216056   4.946   0.422   1.683
 5057SOL     OW16057   4.845   0.234   1.458
 5057SOL    HW116058   4.857   0.284   1.540
 5057SOL    HW216059   4.910   0.271   1.398
 5058SOL     OW16060   3.737   1.323   0.188
 5058SOL    HW116061   3.650   1.337   0.151
 5058SOL    HW216062   3.734   1.233   0.222
 5059SOL     OW16063   3.814   1.786   0.938
 5059SOL    HW116064   3.784   1.707   0.894
 5059SOL    HW216065   3.904   1.799   0.907
 5060SOL     OW16066   4.220   1.574   0.905
 5060SOL    HW116067   4.288   1.636   0.930
 5060SOL    HW216068   4.264   1.511   0.848
 5061SOL     OW16069   4.705   0.793   1.227
 5061SOL    HW116070   4.761   0.769   1.300
 5061SOL    HW216071   4.621   0.752   1.246
 5062SOL     OW16072   3.759   0.545   1.117
 5062SOL    HW116073   3.839   0.530   1.066
 5062SOL    HW216074   3.790   0.548   1.208
 5063SOL     OW16075   3.910   0.523   1.728
 5063SOL    HW116076   3.974   0.486   1.666
 5063SOL    HW216077   3.872   0.598   1.681
 5064SOL     OW16078   5.114   0.937   1.666
 5064SOL    HW116079   5.122   1.031   1.654
 5064SOL    HW216080   5.117   0.900   1.578
 5065SOL     OW16081   4.543   0.571   0.367
 5065SOL    HW116082   4.550   0.499   0.305
 5065SOL    HW216083   4.466   0.620   0.339
 5066SOL     OW16084   3.966   1.551   1.727
 5066SOL    HW116085   3.944   1.615   1.794
 5066SOL    HW216086   3.969   1.467   1.773
 5067SOL     OW16087   4.424   0.451   1.260
 5067SOL    HW116088   4.373   0.378   1.227
 5067SOL    HW216089   4.423   0.515   1.188
 5068SOL     OW16090   4.644   1.680   1.469
 5068SOL    HW116091   4.622   1.646   1.382
 5068SOL    HW216092   4.644   1.775   1.458
 5069SOL     OW16093   4.191   0.493   0.176
 5069SOL    HW116094   4.259   0.557   0.196
 5069SOL    HW216095   4.109   0.539   0.193
 5070SOL     OW16096   3.869   1.141   1.472
 5070SOL    HW116097   3.871   1.090   1.554
 5070SOL    HW216098   3.886   1.077   1.404
 5071SOL     OW16099   5.053   1.049   1.224
 5071SOL    HW116100   5.073   0.983   1.158
 5071SOL    HW216101   4.982   1.101   1.185
 5072SOL     OW16102   5.025   0.869   0.319
 5072SOL    HW116103   4.947   0.826   0.354
 5072SOL    HW216104   5.022   0.851   0.225
 5073SOL     OW16105   4.959   1.731   1.121
 5073SOL    HW116106   5.045   1.753   1.083
 5073SOL    HW216107   4.960   1.636   1.131
 5074SOL     OW16108   3.808   1.267   1.011
 5074SOL    HW116109   3.793   1.280   1.105
 5074SOL    HW216110   3.736   1.212   0.983
 5075SOL     OW16111   4.401   1.666   1.730
 5075SOL    HW116112   4.348   1.745   1.723
 5075SOL    HW216113   4.471   1.677   1.666
 5076SOL     OW16114   4.614   0.084   0.142
 5076SOL    HW116115   4.662   0.072   0.060
 5076SOL    HW216116   4.626   0.002   0.189
 5077SOL     OW16117   5.108   1.572   0.478
 5077SOL    HW116118   5.163   1.615   0.412
 5077SOL    HW216119   5.059   1.643   0.520
 5078SOL     OW16120   3.861   1.797   1.843
 5078SOL    HW116121   3.810   1.731   1.891
 5078SOL    HW216122   3.908   1.844   1.911
 5079SOL     OW16123   5.017   0.920   0.672
 5079SOL    HW116124   5.095   0.865   0.658
 5079SOL    HW216125   5.036   1.001   0.624
 5080SOL     OW16126   4.536   1.274   1.429
 5080SOL    HW116127   4.508   1.313   1.512
 5080SOL    HW216128   4.467   1.296   1.367
 5081SOL     OW16129   4.400   1.622   0.157
 5081SOL    HW116130   4.408   1.628   0.062
 5081SOL    HW216131   4.339   1.549   0.171
 5082SOL     OW16132   3.985   0.329   0.719
 5082SOL    HW116133   3.896   0.360   0.698
 5082SOL    HW216134   3.984   0.317   0.814
 5083SOL     OW16135   4.860   1.579   0.044
 5083SOL    HW116136   4.898   1.493   0.061
 5083SOL    HW216137   4.901   1.609   8.043
 5084SOL     OW16138   4.547   1.006   1.373
 5084SOL    HW116139   4.592   1.000   1.289
 5084SOL    HW216140   4.547   1.100   1.393
 5085SOL     OW16141   4.644   0.914   0.300
 5085SOL    HW116142   4.697   0.938   0.224
 5085SOL    HW216143   4.691   0.842   0.341
 5086SOL     OW16144   4.093   1.303   1.492
 5086SOL    HW116145   4.079   1.380   1.436
 5086SOL    HW216146   4.016   1.248   1.476
 5087SOL     OW16147   4.777   1.108   0.708
 5087SOL    HW116148   4.706   1.057   0.748
 5087SOL    HW216149   4.835   1.042   0.669
 5088SOL     OW16150   4.736   0.243   0.972
 5088SOL    HW116151   4.718   0.197   0.890
 5088SOL    HW216152   4.732   0.174   1.039
 5089SOL     OW16153   4.327   1.486   0.479
 5089SOL    HW116154   4.372   1.437   0.411
 5089SOL    HW216155   4.258   1.533   0.433
 5090SOL     OW16156   3.992   1.319   0.293
 5090SOL    HW116157   3.905   1.329   0.252
 5090SOL    HW216158   3.984   1.364   0.377
 5091SOL     OW16159   3.837   1.024   1.720
 5091SOL    HW116160   3.761   1.000   1.773
 5091SOL    HW216161   3.911   0.985   1.766
 5092SOL     OW16162   4.396   0.214   1.491
 5092SOL    HW116163   4.478   0.193   1.446
 5092SOL    HW216164   4.423   0.262   1.569
 5093SOL     OW16165   3.793   0.361   0.033
 5093SOL    HW116166   3.721   0.299   0.025
 5093SOL    HW216167   3.805   0.396   8.024
 5094SOL     OW16168   5.164   0.860   1.403
 5094SOL    HW116169   5.110   0.916   1.347
 5094SOL    HW216170   5.252   0.868   1.368
 5095SOL     OW16171   3.791   0.165   0.313
 5095SOL    HW116172   3.799   0.253   0.277
 5095SOL    HW216173   3.876   0.124   0.296
 5096SOL     OW16174   4.913   1.314   0.119
 5096SOL    HW116175   4.817   1.313   0.113
 5096SOL    HW216176   4.931   1.320   0.213
 5097SOL     OW16177   4.343   0.831   1.434
 5097SOL    HW116178   4.399   0.907   1.418
 5097SOL    HW216179   4.404   0.757   1.441
 5098SOL     OW16180   4.439   0.571   1.702
 5098SOL    HW116181   4.481   0.633   1.762
 5098SOL    HW216182   4.468   0.485   1.733
 5099SOL     OW16183   5.181   1.203   1.632
 5099SOL    HW116184   5.172   1.216   1.726
 5099SOL    HW216185   5.275   1.212   1.615
 5100SOL     OW16186   4.102   1.739   1.565
 5100SOL    HW116187   4.017   1.782   1.551
 5100SOL    HW216188   4.080   1.656   1.607
 5101SOL     OW16189   4.934   0.333   0.472
 5101SOL    HW116190   4.988   0.255   0.458
 5101SOL    HW216191   4.972   0.374   0.549
 5102SOL     OW16192   4.312   0.737   0.670
 5102SOL    HW116193   4.352   0.823   0.655
 5102SOL    HW216194   4.244   0.730   0.603
 5103SOL     OW16195   4.623   1.368   0.036
 5103SOL    HW116196   4.558   1.361   0.106
 5103SOL    HW216197   4.617   1.459   0.006
 5104SOL     OW16198   4.384   1.790   0.943
 5104SOL    HW116199   4.366   1.881   0.921
 5104SOL    HW216200   4.480   1.783   0.937
 5105SOL     OW16201   4.592   0.968   0.855
 5105SOL    HW116202   4.642   0.896   0.894
 5105SOL    HW216203   4.557   1.015   0.930
 5106SOL     OW16204   4.801   0.973   0.086
 5106SOL    HW116205   4.789   1.036   0.016
 5106SOL    HW216206   4.883   0.928   0.064
 5107SOL     OW16207   3.949   1.302   1.856
 5107SOL    HW116208   3.882   1.241   1.826
 5107SOL    HW216209   3.930   1.315   1.949
 5108SOL     OW16210   3.810   1.232   0.665
 5108SOL    HW116211   3.814   1.184   0.748
 5108SOL    HW216212   3.881   1.195   0.613
 5109SOL     OW16213   4.406   1.403   1.629
 5109SOL    HW116214   4.325   1.361   1.660
 5109SOL    HW216215   4.402   1.491   1.665
 5110SOL     OW16216   4.149   0.439   0.523
 5110SOL    HW116217   4.186   0.366   0.472
 5110SOL    HW216218   4.105   0.396   0.597
 5111SOL     OW16219   0.093   1.522   1.100
 5111SOL    HW116220   0.026   1.498   1.035
 5111SOL    HW216221   0.098   1.445   1.157
 5112SOL     OW16222   4.053   0.557   1.291
 5112SOL    HW116223   4.109   0.502   1.346
 5112SOL    HW216224   4.073   0.529   1.201
 5113SOL     OW16225   4.552   1.578   0.677
 5113SOL    HW116226   4.539   1.633   0.600
 5113SOL    HW216227   4.476   1.520   0.679
 5114SOL     OW16228   5.149   0.215   1.121
 5114SOL    HW116229   5.156   0.132   1.169
 5114SOL    HW216230   5.103   0.274   1.181
 5115SOL     OW16231   4.724   0.019   1.138
 5115SOL    HW116232   4.673   5.251   1.094
 5115SOL    HW216233   4.811   5.281   1.149
 5116SOL     OW16234   4.495   1.327   0.309
 5116SOL    HW116235   4.464   1.238   0.324
 5116SOL    HW216236   4.576   1.333   0.358
 5117SOL     OW16237   4.344   1.556   1.285
 5117SOL    HW116238   4.345   1.638   1.334
 5117SOL    HW216239   4.431   1.548   1.248
 5118SOL     OW16240   5.074   5.294   0.204
 5118SOL    HW116241   5.139   0.007   0.135
 5118SOL    HW216242   5.005   0.056   0.184
 5119SOL     OW16243   5.033   0.466   0.691
 5119SOL    HW116244   4.975   0.541   0.693
 5119SOL    HW216245   5.018   0.421   0.774
 5120SOL     OW16246   5.295   0.215   0.884
 5120SOL    HW116247   5.237   0.214   0.960
 5120SOL    HW216248   5.272   0.295   0.837
 5121SOL     OW16249   3.768   1.066   0.305
 5121SOL    HW116250   3.863   1.065   0.308
 5121SOL    HW216251   3.741   0.983   0.344
 5122SOL     OW16252   4.604   1.653   0.350
 5122SOL    HW116253   4.537   1.637   0.284
 5122SOL    HW216254   4.573   1.730   0.398
 5123SOL     OW16255   3.951   0.626   1.986
 5123SOL    HW116256   3.863   0.621   2.022
 5123SOL    HW216257   3.941   0.599   1.894
 5124SOL     OW16258   3.941   0.285   2.855
 5124SOL    HW116259   3.970   0.249   2.939
 5124SOL    HW216260   3.857   0.243   2.839
 5125SOL     OW16261   3.727   0.387   2.500
 5125SOL    HW116262   3.643   0.408   2.540
 5125SOL    HW216263   3.710   0.310   2.446
 5126SOL     OW16264   4.291   1.289   3.039
 5126SOL    HW116265   4.204   1.293   2.999
 5126SOL    HW216266   4.307   1.378   3.071
 5127SOL     OW16267   5.287   1.535   2.568
 5127SOL    HW116268   5.247   1.493   2.644
 5127SOL    HW216269   5.221   1.528   2.499
 5128SOL     OW16270   4.861   0.698   2.562
 5128SOL    HW116271   4.910   0.780   2.552
 5128SOL    HW216272   4.810   0.710   2.642
 5129SOL     OW16273   4.478   1.142   2.904
 5129SOL    HW116274   4.409   1.177   2.961
 5129SOL    HW216275   4.513   1.218   2.859
 5130SOL     OW16276   4.594   0.775   3.686
 5130SOL    HW116277   4.576   0.847   3.746
 5130SOL    HW216278   4.616   0.818   3.603
 5131SOL     OW16279   4.411   1.002   2.508
 5131SOL    HW116280   4.475   0.991   2.578
 5131SOL    HW216281   4.341   1.054   2.548
 5132SOL     OW16282   4.436   1.151   3.676
 5132SOL    HW116283   4.483   1.229   3.703
 5132SOL    HW216284   4.354   1.184   3.639
 5133SOL     OW16285   4.054   1.424   2.930
 5133SOL    HW116286   3.982   1.386   2.880
 5133SOL    HW216287   4.104   1.475   2.865
 5134SOL     OW16288   5.161   1.480   3.215
 5134SOL    HW116289   5.209   1.559   3.239
 5134SOL    HW216290   5.101   1.465   3.289
 5135SOL     OW16291   4.169   0.398   3.347
 5135SOL    HW116292   4.244   0.339   3.346
 5135SOL    HW216293   4.094   0.341   3.363
 5136SOL     OW16294   3.943   1.714   2.333
 5136SOL    HW116295   3.964   1.791   2.387
 5136SOL    HW216296   4.017   1.707   2.273
 5137SOL     OW16297   4.859   1.340   3.556
 5137SOL    HW116298   4.898   1.336   3.644
 5137SOL    HW216299   4.807   1.260   3.549
 5138SOL     OW16300   3.955   1.442   2.397
 5138SOL    HW116301   3.937   1.536   2.400
 5138SOL    HW216302   3.895   1.404   2.461
 5139SOL     OW16303   3.983   1.090   2.754
 5139SOL    HW116304   3.979   1.003   2.793
 5139SOL    HW216305   3.925   1.144   2.807
 5140SOL     OW16306   4.332   1.793   3.288
 5140SOL    HW116307   4.251   1.774   3.337
 5140SOL    HW216308   4.356   1.881   3.315
 5141SOL     OW16309   4.309   0.982   1.997
 5141SOL    HW116310   4.354   1.031   1.929
 5141SOL    HW216311   4.348   1.013   2.079
 5142SOL     OW16312   5.251   0.143   3.341
 5142SOL    HW116313   5.299   0.223   3.323
 5142SOL    HW216314   5.273   0.121   3.432
 5143SOL     OW16315   3.839   0.654   2.422
 5143SOL    HW116316   3.811   0.565   2.443
 5143SOL    HW216317   3.831   0.702   2.504
 5144SOL     OW16318   3.757   1.594   1.985
 5144SOL    HW116319   3.739   1.502   2.005
 5144SOL    HW216320   3.733   1.641   2.065
 5145SOL     OW16321   0.113   0.939   2.438
 5145SOL    HW116322   0.201   0.904   2.450
 5145SOL    HW216323   0.127   1.027   2.402
 5146SOL     OW16324   3.847   0.744   3.446
 5146SOL    HW116325   3.939   0.771   3.452
 5146SOL    HW216326   3.798   0.826   3.454
 5147SOL     OW16327   4.338   1.387   2.598
 5147SOL    HW116328   4.292   1.303   2.606
 5147SOL    HW216329   4.321   1.413   2.507
 5148SOL     OW16330   5.005   1.235   3.287
 5148SOL    HW116331   5.038   1.169   3.226
 5148SOL    HW216332   5.061   1.228   3.364
 5149SOL     OW16333   4.536   0.028   2.393
 5149SOL    HW116334   4.564   0.116   2.366
 5149SOL    HW216335   4.440   0.031   2.385
 5150SOL     OW16336   3.914   0.965   3.135
 5150SOL    HW116337   3.999   0.924   3.120
 5150SOL    HW216338   3.852   0.912   3.084
 5151SOL     OW16339   4.896   1.808   3.486
 5151SOL    HW116340   4.916   1.868   3.414
 5151SOL    HW216341   4.919   1.721   3.453
 5152SOL     OW16342   4.051   0.268   3.674
 5152SOL    HW116343   4.103   0.342   3.705
 5152SOL    HW216344   3.965   0.281   3.714
 5153SOL     OW16345   5.168   1.436   2.797
 5153SOL    HW116346   5.106   1.443   2.870
 5153SOL    HW216347   5.161   1.345   2.768
 5154SOL     OW16348   4.318   0.721   2.129
 5154SOL    HW116349   4.322   0.803   2.080
 5154SOL    HW216350   4.253   0.737   2.197
 5155SOL     OW16351   4.996   0.328   2.779
 5155SOL    HW116352   4.906   0.305   2.804
 5155SOL    HW216353   5.048   0.300   2.854
 5156SOL     OW16354   4.517   0.618   3.311
 5156SOL    HW116355   4.490   0.596   3.400
 5156SOL    HW216356   4.476   0.552   3.256
 5157SOL     OW16357   5.116   0.488   3.542
 5157SOL    HW116358   5.119   0.522   3.631
 5157SOL    HW216359   5.183   0.419   3.540
 5158SOL     OW16360   4.678   0.888   3.445
 5158SOL    HW116361   4.730   0.816   3.409
 5158SOL    HW216362   4.629   0.922   3.370
 5159SOL     OW16363   4.718   0.422   3.092
 5159SOL    HW116364   4.633   0.436   3.133
 5159SOL    HW216365   4.700   0.368   3.016
 5160SOL     OW16366   4.775   0.698   2.287
 5160SOL    HW116367   4.791   0.691   2.381
 5160SOL    HW216368   4.692   0.652   2.274
 5161SOL     OW16369   3.812   0.821   2.639
 5161SOL    HW116370   3.893   0.814   2.690
 5161SOL    HW216371   3.769   0.899   2.674
 5162SOL     OW16372   3.851   1.852   3.441
 5162SOL    HW116373   3.851   1.830   3.534
 5162SOL    HW216374   3.760   1.839   3.413
 5163SOL     OW16375   4.601   0.363   2.052
 5163SOL    HW116376   4.635   0.419   1.983
 5163SOL    HW216377   4.655   0.284   2.048
 5164SOL     OW16378   5.093   1.148   2.410
 5164SOL    HW116379   5.181   1.151   2.373
 5164SOL    HW216380   5.042   1.206   2.355
 5165SOL     OW16381   4.247   0.202   2.744
 5165SOL    HW116382   4.270   0.217   2.835
 5165SOL    HW216383   4.270   0.284   2.700
 5166SOL     OW16384   4.729   1.443   2.334
 5166SOL    HW116385   4.692   1.516   2.284
 5166SOL    HW216386   4.710   1.464   2.425
 5167SOL     OW16387   4.078   1.810   2.726
 5167SOL    HW116388   4.122   1.725   2.733
 5167SOL    HW216389   4.147   1.874   2.744
 5168SOL     OW16390   4.940   1.541   3.381
 5168SOL    HW116391   4.927   1.468   3.442
 5168SOL    HW216392   4.880   1.523   3.308
 5169SOL     OW16393   4.043   0.958   2.113
 5169SOL    HW116394   4.125   0.977   2.067
 5169SOL    HW216395   4.012   0.876   2.075
 5170SOL     OW16396   4.191   1.265   3.600
 5170SOL    HW116397   4.164   1.270   3.508
 5170SOL    HW216398   4.108   1.263   3.649
 5171SOL     OW16399   4.832   1.774   2.099
 5171SOL    HW116400   4.759   1.730   2.143
 5171SOL    HW216401   4.857   1.715   2.028
 5172SOL     OW16402   3.921   0.278   3.365
 5172SOL    HW116403   3.842   0.331   3.363
 5172SOL    HW216404   3.914   0.228   3.447
 5173SOL     OW16405   4.189   1.737   2.183
 5173SOL    HW116406   4.232   1.794   2.246
 5173SOL    HW216407   4.261   1.705   2.127
 5174SOL     OW16408   5.096   0.098   2.281
 5174SOL    HW116409   5.083   0.081   2.188
 5174SOL    HW216410   5.190   0.118   2.289
 5175SOL     OW16411   3.978   1.791   3.093
 5175SOL    HW116412   4.031   1.725   3.139
 5175SOL    HW216413   3.971   1.758   3.004
 5176SOL     OW16414   4.662   1.698   2.760
 5176SOL    HW116415   4.742   1.649   2.778
 5176SOL    HW216416   4.618   1.649   2.691
 5177SOL     OW16417   4.117   0.696   2.337
 5177SOL    HW116418   4.138   0.603   2.349
 5177SOL    HW216419   4.024   0.703   2.355
 5178SOL     OW16420   4.346   0.133   1.969
 5178SOL    HW116421   4.417   0.072   1.989
 5178SOL    HW216422   4.297   0.091   1.899
 5179SOL     OW16423   4.508   0.310   3.629
 5179SOL    HW116424   4.573   0.240   3.628
 5179SOL    HW216425   4.459   0.297   3.710
 5180SOL     OW16426   4.599   1.522   3.056
 5180SOL    HW116427   4.584   1.486   2.968
 5180SOL    HW216428   4.670   1.468   3.092
 5181SOL     OW16429   5.060   0.592   3.293
 5181SOL    HW116430   5.089   0.562   3.379
 5181SOL    HW216431   5.099   0.679   3.283
 5182SOL     OW16432   4.539   1.394   2.803
 5182SOL    HW116433   4.623   1.382   2.759
 5182SOL    HW216434   4.475   1.396   2.731
 5183SOL     OW16435   4.652   0.511   2.764
 5183SOL    HW116436   4.628   0.502   2.672
 5183SOL    HW216437   4.681   0.424   2.791
 5184SOL     OW16438   4.267   0.062   2.370
 5184SOL    HW116439   4.181   0.060   2.413
 5184SOL    HW216440   4.259   0.131   2.304
 5185SOL     OW16441   5.135   1.181   1.906
 5185SOL    HW116442   5.142   1.102   1.960
 5185SOL    HW216443   5.048   1.216   1.926
 5186SOL     OW16444   4.026   0.063   2.054
 5186SOL    HW116445   4.084   0.133   2.024
 5186SOL    HW216446   4.082   5.286   2.060
 5187SOL     OW16447   4.661   0.264   2.324
 5187SOL    HW116448   4.633   0.297   2.239
 5187SOL    HW216449   4.756   0.278   2.325
 5188SOL     OW16450   4.802   0.682   3.322
 5188SOL    HW116451   4.733   0.615   3.324
 5188SOL    HW216452   4.883   0.632   3.312
 5189SOL     OW16453   4.940   1.571   2.656
 5189SOL    HW116454   4.961   1.638   2.591
 5189SOL    HW216455   5.021   1.558   2.705
 5190SOL     OW16456   4.193   1.150   2.594
 5190SOL    HW116457   4.125   1.130   2.658
 5190SOL    HW216458   4.153   1.134   2.509
 5191SOL     OW16459   4.995   1.794   2.468
 5191SOL    HW116460   5.037   1.855   2.407
 5191SOL    HW216461   4.928   1.846   2.512
 5192SOL     OW16462   4.752   0.549   1.882
 5192SOL    HW116463   4.705   0.631   1.865
 5192SOL    HW216464   4.806   0.569   1.959
 5193SOL     OW16465   3.804   0.553   3.255
 5193SOL    HW116466   3.895   0.553   3.227
 5193SOL    HW216467   3.798   0.624   3.320
 5194SOL     OW16468   4.279   0.238   3.020
 5194SOL    HW116469   4.311   0.153   3.050
 5194SOL    HW216470   4.187   0.239   3.047
 5195SOL     OW16471   4.592   0.465   2.503
 5195SOL    HW116472   4.543   0.517   2.439
 5195SOL    HW216473   4.613   0.384   2.456
 5196SOL     OW16474   4.699   0.063   2.626
 5196SOL    HW116475   4.635   0.056   2.555
 5196SOL    HW216476   4.713   5.272   2.654
 5197SOL     OW16477   5.156   1.176   2.713
 5197SOL    HW116478   5.101   1.100   2.727
 5197SOL    HW216479   5.168   1.181   2.618
 5198SOL     OW16480   4.214   1.419   2.017
 5198SOL    HW116481   4.139   1.390   2.069
 5198SOL    HW216482   4.202   1.377   1.932
 5199SOL     OW16483   5.128   0.558   1.945
 5199SOL    HW116484   5.051   0.550   2.001
 5199SOL    HW216485   5.202   0.531   2.000
 5200SOL     OW16486   4.247   0.265   2.183
 5200SOL    HW116487   4.292   0.216   2.114
 5200SOL    HW216488   4.226   0.349   2.142
 5201SOL     OW16489   4.779   1.355   3.195
 5201SOL    HW116490   4.704   1.323   3.246
 5201SOL    HW216491   4.855   1.311   3.236
 5202SOL     OW16492   0.007   1.604   3.478
 5202SOL    HW116493   0.041   1.608   3.388
 5202SOL    HW216494   0.083   1.584   3.531
 5203SOL     OW16495   4.855   1.205   2.968
 5203SOL    HW116496   4.792   1.239   3.031
 5203SOL    HW216497   4.821   1.233   2.883
 5204SOL     OW16498   4.623   0.105   3.247
 5204SOL    HW116499   4.657   0.070   3.164
 5204SOL    HW216500   4.699   0.149   3.287
 5205SOL     OW16501   4.709   1.113   3.587
 5205SOL    HW116502   4.617   1.130   3.608
 5205SOL    HW216503   4.706   1.036   3.530
 5206SOL     OW16504   4.433   1.062   2.233
 5206SOL    HW116505   4.418   1.044   2.326
 5206SOL    HW216506   4.509   1.008   2.210
 5207SOL     OW16507   4.143   0.816   3.113
 5207SOL    HW116508   4.212   0.825   3.180
 5207SOL    HW216509   4.108   0.728   3.127
 5208SOL     OW16510   4.991   0.380   3.132
 5208SOL    HW116511   5.024   0.459   3.176
 5208SOL    HW216512   4.900   0.402   3.110
 5209SOL     OW16513   3.796   1.573   3.216
 5209SOL    HW116514   3.767   1.646   3.161
 5209SOL    HW216515   3.891   1.575   3.210
 5210SOL     OW16516   4.071   1.111   2.352
 5210SOL    HW116517   4.076   1.184   2.291
 5210SOL    HW216518   4.069   1.033   2.296
 5211SOL     OW16519   4.277   0.537   2.722
 5211SOL    HW116520   4.292   0.595   2.648
 5211SOL    HW216521   4.343   0.563   2.787
 5212SOL     OW16522   4.972   1.349   2.249
 5212SOL    HW116523   5.026   1.422   2.279
 5212SOL    HW216524   4.884   1.369   2.282
 5213SOL     OW16525   4.996   1.457   3.002
 5213SOL    HW116526   5.050   1.458   3.081
 5213SOL    HW216527   4.941   1.379   3.011
 5214SOL     OW16528   4.070   1.528   3.176
 5214SOL    HW116529   4.058   1.485   3.092
 5214SOL    HW216530   4.165   1.539   3.184
 5215SOL     OW16531   4.139   0.745   3.464
 5215SOL    HW116532   4.201   0.789   3.406
 5215SOL    HW216533   4.179   0.659   3.482
 5216SOL     OW16534   4.755   0.120   3.616
 5216SOL    HW116535   4.798   0.201   3.592
 5216SOL    HW216536   4.796   0.053   3.562
 5217SOL     OW16537   4.203   0.059   3.598
 5217SOL    HW116538   4.142   5.294   3.562
 5217SOL    HW216539   4.147   0.133   3.621
 5218SOL     OW16540   4.308   0.873   2.894
 5218SOL    HW116541   4.338   0.964   2.893
 5218SOL    HW216542   4.251   0.867   2.970
 5219SOL     OW16543   5.086   0.857   2.898
 5219SOL    HW116544   5.008   0.837   2.845
 5219SOL    HW216545   5.140   0.778   2.892
 5220SOL     OW16546   4.928   0.531   2.127
 5220SOL    HW116547   4.932   0.451   2.179
 5220SOL    HW216548   4.884   0.594   2.184
 5221SOL     OW16549   4.019   0.203   3.110
 5221SOL    HW116550   3.980   0.242   3.188
 5221SOL    HW216551   4.021   0.109   3.129
 5222SOL     OW16552   3.769   1.311   3.138
 5222SOL    HW116553   3.803   1.256   3.209
 5222SOL    HW216554   3.776   1.400   3.171
 5223SOL     OW16555   4.449   0.632   2.921
 5223SOL    HW116556   4.523   0.615   2.863
 5223SOL    HW216557   4.420   0.720   2.898
 5224SOL     OW16558   4.029   0.071   2.517
 5224SOL    HW116559   4.009   0.165   2.521
 5224SOL    HW216560   4.076   0.053   2.598
 5225SOL     OW16561   0.029   0.410   2.226
 5225SOL    HW116562   0.057   0.347   2.293
 5225SOL    HW216563   0.009   0.489   2.275
 5226SOL     OW16564   4.752   0.759   2.822
 5226SOL    HW116565   4.749   0.776   2.916
 5226SOL    HW216566   4.725   0.667   2.813
 5227SOL     OW16567   4.697   1.561   3.576
 5227SOL    HW116568   4.686   1.609   3.494
 5227SOL    HW216569   4.745   1.482   3.552
 5228SOL     OW16570   4.077   0.917   3.671
 5228SOL    HW116571   4.159   0.935   3.717
 5228SOL    HW216572   4.101   0.853   3.603
 5229SOL     OW16573   5.028   0.829   1.899
 5229SOL    HW116574   5.063   0.740   1.899
 5229SOL    HW216575   5.055   0.865   1.814
 5230SOL     OW16576   4.790   1.334   2.718
 5230SOL    HW116577   4.794   1.263   2.655
 5230SOL    HW216578   4.847   1.402   2.681
 5231SOL     OW16579   4.032   0.809   2.809
 5231SOL    HW116580   4.126   0.830   2.802
 5231SOL    HW216581   4.031   0.718   2.841
 5232SOL     OW16582   4.055   0.527   2.875
 5232SOL    HW116583   4.019   0.440   2.860
 5232SOL    HW216584   4.132   0.531   2.817
 5233SOL     OW16585   4.862   0.377   3.553
 5233SOL    HW116586   4.811   0.431   3.614
 5233SOL    HW216587   4.946   0.422   3.545
 5234SOL     OW16588   4.846   0.234   3.321
 5234SOL    HW116589   4.857   0.284   3.401
 5234SOL    HW216590   4.910   0.271   3.260
 5235SOL     OW16591   3.729   1.321   2.057
 5235SOL    HW116592   3.642   1.335   2.019
 5235SOL    HW216593   3.726   1.231   2.091
 5236SOL     OW16594   3.814   1.785   2.801
 5236SOL    HW116595   3.785   1.706   2.756
 5236SOL    HW216596   3.904   1.798   2.770
 5237SOL     OW16597   4.220   1.574   2.768
 5237SOL    HW116598   4.288   1.636   2.791
 5237SOL    HW216599   4.264   1.511   2.711
 5238SOL     OW16600   4.705   0.793   3.088
 5238SOL    HW116601   4.761   0.769   3.162
 5238SOL    HW216602   4.621   0.752   3.108
 5239SOL     OW16603   3.759   0.545   2.979
 5239SOL    HW116604   3.839   0.530   2.927
 5239SOL    HW216605   3.790   0.548   3.070
 5240SOL     OW16606   3.910   0.523   3.590
 5240SOL    HW116607   3.974   0.486   3.529
 5240SOL    HW216608   3.872   0.597   3.543
 5241SOL     OW16609   5.114   0.937   3.528
 5241SOL    HW116610   5.122   1.031   3.516
 5241SOL    HW216611   5.117   0.900   3.439
 5242SOL     OW16612   4.539   0.574   2.224
 5242SOL    HW116613   4.542   0.498   2.165
 5242SOL    HW216614   4.464   0.625   2.193
 5243SOL     OW16615   3.966   1.551   3.588
 5243SOL    HW116616   3.944   1.615   3.656
 5243SOL    HW216617   3.969   1.467   3.635
 5244SOL     OW16618   4.424   0.451   3.122
 5244SOL    HW116619   4.373   0.378   3.089
 5244SOL    HW216620   4.423   0.515   3.050
 5245SOL     OW16621   4.644   1.680   3.331
 5245SOL    HW116622   4.622   1.646   3.244
 5245SOL    HW216623   4.644   1.775   3.320
 5246SOL     OW16624   4.186   0.493   2.044
 5246SOL    HW116625   4.246   0.563   2.068
 5246SOL    HW216626   4.101   0.536   2.035
 5247SOL     OW16627   3.869   1.141   3.335
 5247SOL    HW116628   3.871   1.090   3.416
 5247SOL    HW216629   3.886   1.077   3.266
 5248SOL     OW16630   5.053   1.049   3.086
 5248SOL    HW116631   5.074   0.983   3.019
 5248SOL    HW216632   4.982   1.100   3.048
 5249SOL     OW16633   5.037   0.859   2.178
 5249SOL    HW116634   4.955   0.827   2.216
 5249SOL    HW216635   5.024   0.852   2.084
 5250SOL     OW16636   4.959   1.731   2.982
 5250SOL    HW116637   5.045   1.753   2.946
 5250SOL    HW216638   4.961   1.636   2.992
 5251SOL     OW16639   3.808   1.267   2.874
 5251SOL    HW116640   3.793   1.280   2.967
 5251SOL    HW216641   3.736   1.211   2.845
 5252SOL     OW16642   4.401   1.666   3.592
 5252SOL    HW116643   4.348   1.745   3.585
 5252SOL    HW216644   4.471   1.677   3.528
 5253SOL     OW16645   5.111   1.570   2.344
 5253SOL    HW116646   5.181   1.612   2.293
 5253SOL    HW216647   5.060   1.643   2.379
 5254SOL     OW16648   3.860   1.797   3.706
 5254SOL    HW116649   3.810   1.731   3.754
 5254SOL    HW216650   3.908   1.844   3.773
 5255SOL     OW16651   5.017   0.920   2.534
 5255SOL    HW116652   5.095   0.866   2.521
 5255SOL    HW216653   5.035   1.000   2.485
 5256SOL     OW16654   4.536   1.274   3.291
 5256SOL    HW116655   4.508   1.313   3.374
 5256SOL    HW216656   4.467   1.296   3.229
 5257SOL     OW16657   4.394   1.621   2.017
 5257SOL    HW116658   4.406   1.634   1.923
 5257SOL    HW216659   4.339   1.543   2.025
 5258SOL     OW16660   3.985   0.329   2.580
 5258SOL    HW116661   3.897   0.360   2.559
 5258SOL    HW216662   3.984   0.318   2.676
 5259SOL     OW16663   4.908   1.609   1.904
 5259SOL    HW116664   4.919   1.514   1.915
 5259SOL    HW216665   4.853   1.617   1.826
 5260SOL     OW16666   4.547   1.006   3.235
 5260SOL    HW116667   4.591   1.000   3.150
 5260SOL    HW216668   4.547   1.100   3.256
 5261SOL     OW16669   4.641   0.912   2.153
 5261SOL    HW116670   4.703   0.943   2.086
 5261SOL    HW216671   4.687   0.841   2.197
 5262SOL     OW16672   4.092   1.303   3.354
 5262SOL    HW116673   4.080   1.380   3.298
 5262SOL    HW216674   4.016   1.248   3.338
 5263SOL     OW16675   4.777   1.108   2.569
 5263SOL    HW116676   4.706   1.058   2.610
 5263SOL    HW216677   4.835   1.041   2.532
 5264SOL     OW16678   4.737   0.243   2.834
 5264SOL    HW116679   4.718   0.197   2.751
 5264SOL    HW216680   4.732   0.174   2.900
 5265SOL     OW16681   4.327   1.488   2.343
 5265SOL    HW116682   4.373   1.438   2.276
 5265SOL    HW216683   4.257   1.533   2.297
 5266SOL     OW16684   3.984   1.344   2.151
 5266SOL    HW116685   3.891   1.342   2.128
 5266SOL    HW216686   3.986   1.382   2.239
 5267SOL     OW16687   3.837   1.024   3.582
 5267SOL    HW116688   3.761   1.000   3.635
 5267SOL    HW216689   3.911   0.985   3.628
 5268SOL     OW16690   4.396   0.214   3.353
 5268SOL    HW116691   4.478   0.193   3.308
 5268SOL    HW216692   4.423   0.262   3.431
 5269SOL     OW16693   3.801   0.339   1.904
 5269SOL    HW116694   3.718   0.305   1.871
 5269SOL    HW216695   3.822   0.412   1.846
 5270SOL     OW16696   5.163   0.860   3.265
 5270SOL    HW116697   5.110   0.916   3.209
 5270SOL    HW216698   5.252   0.869   3.231
 5271SOL     OW16699   3.796   0.167   2.176
 5271SOL    HW116700   3.798   0.250   2.128
 5271SOL    HW216701   3.880   0.126   2.157
 5272SOL     OW16702   4.906   1.328   1.976
 5272SOL    HW116703   4.812   1.310   1.977
 5272SOL    HW216704   4.930   1.335   2.068
 5273SOL     OW16705   4.343   0.831   3.296
 5273SOL    HW116706   4.399   0.907   3.280
 5273SOL    HW216707   4.404   0.757   3.303
 5274SOL     OW16708   4.440   0.571   3.564
 5274SOL    HW116709   4.481   0.633   3.624
 5274SOL    HW216710   4.468   0.485   3.595
 5275SOL     OW16711   5.181   1.203   3.494
 5275SOL    HW116712   5.172   1.216   3.588
 5275SOL    HW216713   5.275   1.213   3.477
 5276SOL     OW16714   4.102   1.739   3.427
 5276SOL    HW116715   4.017   1.782   3.412
 5276SOL    HW216716   4.080   1.656   3.468
 5277SOL     OW16717   4.940   0.324   2.323
 5277SOL    HW116718   4.995   0.246   2.316
 5277SOL    HW216719   4.971   0.369   2.401
 5278SOL     OW16720   4.314   0.738   2.532
 5278SOL    HW116721   4.352   0.824   2.516
 5278SOL    HW216722   4.246   0.729   2.465
 5279SOL     OW16723   4.591   1.366   1.899
 5279SOL    HW116724   4.550   1.396   1.979
 5279SOL    HW216725   4.606   1.446   1.848
 5280SOL     OW16726   4.384   1.790   2.805
 5280SOL    HW116727   4.365   1.881   2.783
 5280SOL    HW216728   4.480   1.784   2.799
 5281SOL     OW16729   4.592   0.968   2.717
 5281SOL    HW116730   4.642   0.896   2.756
 5281SOL    HW216731   4.556   1.015   2.792
 5282SOL     OW16732   4.807   0.988   1.953
 5282SOL    HW116733   4.782   1.037   1.874
 5282SOL    HW216734   4.881   0.934   1.924
 5283SOL     OW16735   3.949   1.303   3.717
 5283SOL    HW116736   3.883   1.240   3.687
 5283SOL    HW216737   3.931   1.314   3.811
 5284SOL     OW16738   3.809   1.233   2.527
 5284SOL    HW116739   3.814   1.185   2.609
 5284SOL    HW216740   3.876   1.194   2.472
 5285SOL     OW16741   4.406   1.403   3.491
 5285SOL    HW116742   4.325   1.361   3.522
 5285SOL    HW216743   4.402   1.491   3.527
 5286SOL     OW16744   4.154   0.436   2.387
 5286SOL    HW116745   4.186   0.363   2.333
 5286SOL    HW216746   4.107   0.394   2.458
 5287SOL     OW16747   0.094   1.520   2.962
 5287SOL    HW116748   0.027   1.498   2.897
 5287SOL    HW216749   0.098   1.444   3.020
 5288SOL     OW16750   4.053   0.557   3.153
 5288SOL    HW116751   4.109   0.502   3.208
 5288SOL    HW216752   4.073   0.529   3.063
 5289SOL     OW16753   4.553   1.577   2.539
 5289SOL    HW116754   4.539   1.634   2.462
 5289SOL    HW216755   4.476   1.520   2.540
 5290SOL     OW16756   5.148   0.215   2.982
 5290SOL    HW116757   5.158   0.133   3.031
 5290SOL    HW216758   5.103   0.274   3.043
 5291SOL     OW16759   4.724   0.020   3.000
 5291SOL    HW116760   4.673   5.251   2.957
 5291SOL    HW216761   4.811   5.281   3.012
 5292SOL     OW16762   4.495   1.333   2.178
 5292SOL    HW116763   4.465   1.242   2.185
 5292SOL    HW216764   4.577   1.334   2.227
 5293SOL     OW16765   4.344   1.556   3.148
 5293SOL    HW116766   4.346   1.638   3.196
 5293SOL    HW216767   4.431   1.548   3.110
 5294SOL     OW16768   5.035   0.032   2.020
 5294SOL    HW116769   5.117   0.026   1.972
 5294SOL    HW216770   4.985   5.256   1.992
 5295SOL     OW16771   5.028   0.461   2.547
 5295SOL    HW116772   4.972   0.539   2.551
 5295SOL    HW216773   5.015   0.418   2.631
 5296SOL     OW16774   5.295   0.214   2.747
 5296SOL    HW116775   5.237   0.214   2.823
 5296SOL    HW216776   5.273   0.294   2.700
 5297SOL     OW16777   3.767   1.070   2.169
 5297SOL    HW116778   3.861   1.062   2.151
 5297SOL    HW216779   3.739   0.981   2.191
 5298SOL     OW16780   4.605   1.651   2.207
 5298SOL    HW116781   4.533   1.636   2.145
 5298SOL    HW216782   4.577   1.728   2.258
 5299SOL     OW16783   3.951   0.626   3.848
 5299SOL    HW116784   3.863   0.621   3.884
 5299SOL    HW216785   3.942   0.599   3.756
 5300SOL     OW16786   3.941   0.285   4.717
 5300SOL    HW116787   3.970   0.249   4.801
 5300SOL    HW216788   3.857   0.243   4.701
 5301SOL     OW16789   3.727   0.387   4.362
 5301SOL    HW116790   3.643   0.408   4.402
 5301SOL    HW216791   3.710   0.310   4.308
 5302SOL     OW16792   4.291   1.290   4.900
 5302SOL    HW116793   4.204   1.293   4.862
 5302SOL    HW216794   4.307   1.378   4.934
 5303SOL     OW16795   5.287   1.535   4.430
 5303SOL    HW116796   5.247   1.493   4.506
 5303SOL    HW216797   5.221   1.528   4.361
 5304SOL     OW16798   4.860   0.698   4.424
 5304SOL    HW116799   4.910   0.780   4.414
 5304SOL    HW216800   4.810   0.710   4.504
 5305SOL     OW16801   4.478   1.142   4.766
 5305SOL    HW116802   4.409   1.177   4.823
 5305SOL    HW216803   4.513   1.218   4.721
 5306SOL     OW16804   4.594   0.775   5.548
 5306SOL    HW116805   4.575   0.846   5.608
 5306SOL    HW216806   4.616   0.818   5.465
 5307SOL     OW16807   4.410   1.002   4.370
 5307SOL    HW116808   4.475   0.991   4.440
 5307SOL    HW216809   4.341   1.054   4.410
 5308SOL     OW16810   4.436   1.151   5.538
 5308SOL    HW116811   4.483   1.229   5.565
 5308SOL    HW216812   4.354   1.184   5.501
 5309SOL     OW16813   4.054   1.424   4.792
 5309SOL    HW116814   3.982   1.386   4.742
 5309SOL    HW216815   4.104   1.475   4.727
 5310SOL     OW16816   5.161   1.480   5.077
 5310SOL    HW116817   5.209   1.559   5.101
 5310SOL    HW216818   5.101   1.465   5.151
 5311SOL     OW16819   4.169   0.398   5.208
 5311SOL    HW116820   4.244   0.339   5.208
 5311SOL    HW216821   4.094   0.341   5.225
 5312SOL     OW16822   3.943   1.715   4.195
 5312SOL    HW116823   3.965   1.790   4.249
 5312SOL    HW216824   4.017   1.706   4.135
 5313SOL     OW16825   4.859   1.340   5.418
 5313SOL    HW116826   4.898   1.336   5.506
 5313SOL    HW216827   4.807   1.260   5.411
 5314SOL     OW16828   3.954   1.442   4.259
 5314SOL    HW116829   3.937   1.536   4.263
 5314SOL    HW216830   3.895   1.404   4.324
 5315SOL     OW16831   3.982   1.090   4.615
 5315SOL    HW116832   3.980   1.003   4.655
 5315SOL    HW216833   3.925   1.144   4.670
 5316SOL     OW16834   4.332   1.793   5.150
 5316SOL    HW116835   4.251   1.774   5.199
 5316SOL    HW216836   4.356   1.881   5.177
 5317SOL     OW16837   4.308   0.982   3.859
 5317SOL    HW116838   4.354   1.031   3.791
 5317SOL    HW216839   4.348   1.013   3.941
 5318SOL     OW16840   5.251   0.143   5.203
 5318SOL    HW116841   5.299   0.223   5.185
 5318SOL    HW216842   5.272   0.121   5.294
 5319SOL     OW16843   3.839   0.654   4.283
 5319SOL    HW116844   3.811   0.565   4.305
 5319SOL    HW216845   3.831   0.702   4.366
 5320SOL     OW16846   3.756   1.595   3.848
 5320SOL    HW116847   3.740   1.503   3.868
 5320SOL    HW216848   3.733   1.641   3.929
 5321SOL     OW16849   0.113   0.939   4.299
 5321SOL    HW116850   0.201   0.904   4.312
 5321SOL    HW216851   0.127   1.027   4.264
 5322SOL     OW16852   3.847   0.745   5.307
 5322SOL    HW116853   3.939   0.771   5.315
 5322SOL    HW216854   3.798   0.826   5.317
 5323SOL     OW16855   4.337   1.387   4.459
 5323SOL    HW116856   4.292   1.303   4.468
 5323SOL    HW216857   4.321   1.413   4.369
 5324SOL     OW16858   5.005   1.235   5.148
 5324SOL    HW116859   5.039   1.169   5.088
 5324SOL    HW216860   5.061   1.228   5.226
 5325SOL     OW16861   4.536   0.028   4.254
 5325SOL    HW116862   4.564   0.116   4.228
 5325SOL    HW216863   4.440   0.031   4.247
 5326SOL     OW16864   3.914   0.966   4.995
 5326SOL    HW116865   3.999   0.924   4.981
 5326SOL    HW216866   3.852   0.911   4.948
 5327SOL     OW16867   4.896   1.808   5.348
 5327SOL    HW116868   4.916   1.868   5.276
 5327SOL    HW216869   4.919   1.721   5.315
 5328SOL     OW16870   4.051   0.268   5.536
 5328SOL    HW116871   4.103   0.342   5.567
 5328SOL    HW216872   3.965   0.281   5.575
 5329SOL     OW16873   5.168   1.436   4.659
 5329SOL    HW116874   5.106   1.443   4.732
 5329SOL    HW216875   5.161   1.345   4.630
 5330SOL     OW16876   4.318   0.721   3.991
 5330SOL    HW116877   4.322   0.803   3.941
 5330SOL    HW216878   4.253   0.737   4.059
 5331SOL     OW16879   4.996   0.328   4.641
 5331SOL    HW116880   4.906   0.305   4.666
 5331SOL    HW216881   5.048   0.300   4.716
 5332SOL     OW16882   4.517   0.618   5.173
 5332SOL    HW116883   4.490   0.596   5.262
 5332SOL    HW216884   4.476   0.552   5.118
 5333SOL     OW16885   5.116   0.488   5.404
 5333SOL    HW116886   5.119   0.522   5.493
 5333SOL    HW216887   5.183   0.419   5.402
 5334SOL     OW16888   4.678   0.888   5.307
 5334SOL    HW116889   4.730   0.816   5.271
 5334SOL    HW216890   4.629   0.922   5.232
 5335SOL     OW16891   4.718   0.422   4.954
 5335SOL    HW116892   4.633   0.436   4.995
 5335SOL    HW216893   4.700   0.368   4.878
 5336SOL     OW16894   4.775   0.698   4.149
 5336SOL    HW116895   4.791   0.691   4.243
 5336SOL    HW216896   4.692   0.652   4.136
 5337SOL     OW16897   3.812   0.821   4.501
 5337SOL    HW116898   3.893   0.813   4.551
 5337SOL    HW216899   3.770   0.900   4.536
 5338SOL     OW16900   3.850   1.850   5.302
 5338SOL    HW116901   3.851   1.829   5.395
 5338SOL    HW216902   3.759   1.841   5.276
 5339SOL     OW16903   4.601   0.363   3.914
 5339SOL    HW116904   4.635   0.419   3.845
 5339SOL    HW216905   4.655   0.284   3.910
 5340SOL     OW16906   5.093   1.148   4.272
 5340SOL    HW116907   5.181   1.151   4.236
 5340SOL    HW216908   5.042   1.206   4.217
 5341SOL     OW16909   4.247   0.203   4.606
 5341SOL    HW116910   4.270   0.217   4.697
 5341SOL    HW216911   4.271   0.284   4.562
 5342SOL     OW16912   4.729   1.443   4.196
 5342SOL    HW116913   4.692   1.516   4.146
 5342SOL    HW216914   4.710   1.464   4.287
 5343SOL     OW16915   4.078   1.810   4.588
 5343SOL    HW116916   4.122   1.725   4.595
 5343SOL    HW216917   4.146   1.874   4.607
 5344SOL     OW16918   4.940   1.541   5.242
 5344SOL    HW116919   4.927   1.468   5.304
 5344SOL    HW216920   4.879   1.523   5.170
 5345SOL     OW16921   4.043   0.958   3.975
 5345SOL    HW116922   4.125   0.977   3.929
 5345SOL    HW216923   4.012   0.876   3.937
 5346SOL     OW16924   4.191   1.265   5.462
 5346SOL    HW116925   4.164   1.269   5.370
 5346SOL    HW216926   4.108   1.263   5.511
 5347SOL     OW16927   4.831   1.775   3.961
 5347SOL    HW116928   4.759   1.730   4.005
 5347SOL    HW216929   4.857   1.715   3.890
 5348SOL     OW16930   3.921   0.277   5.228
 5348SOL    HW116931   3.842   0.331   5.226
 5348SOL    HW216932   3.914   0.228   5.310
 5349SOL     OW16933   4.189   1.736   4.045
 5349SOL    HW116934   4.232   1.794   4.108
 5349SOL    HW216935   4.260   1.705   3.989
 5350SOL     OW16936   5.096   0.098   4.143
 5350SOL    HW116937   5.083   0.081   4.050
 5350SOL    HW216938   5.190   0.118   4.151
 5351SOL     OW16939   3.982   1.792   4.955
 5351SOL    HW116940   4.032   1.726   5.003
 5351SOL    HW216941   3.973   1.755   4.867
 5352SOL     OW16942   4.662   1.698   4.622
 5352SOL    HW116943   4.742   1.649   4.640
 5352SOL    HW216944   4.618   1.649   4.553
 5353SOL     OW16945   4.117   0.696   4.199
 5353SOL    HW116946   4.138   0.603   4.211
 5353SOL    HW216947   4.023   0.703   4.217
 5354SOL     OW16948   4.346   0.133   3.831
 5354SOL    HW116949   4.417   0.072   3.851
 5354SOL    HW216950   4.297   0.091   3.761
 5355SOL     OW16951   4.507   0.310   5.491
 5355SOL    HW116952   4.573   0.240   5.490
 5355SOL    HW216953   4.459   0.297   5.572
 5356SOL     OW16954   4.599   1.522   4.918
 5356SOL    HW116955   4.584   1.486   4.830
 5356SOL    HW216956   4.670   1.468   4.954
 5357SOL     OW16957   5.060   0.592   5.155
 5357SOL    HW116958   5.089   0.562   5.241
 5357SOL    HW216959   5.099   0.679   5.145
 5358SOL     OW16960   4.539   1.394   4.665
 5358SOL    HW116961   4.624   1.382   4.621
 5358SOL    HW216962   4.475   1.396   4.593
 5359SOL     OW16963   4.652   0.511   4.626
 5359SOL    HW116964   4.628   0.501   4.534
 5359SOL    HW216965   4.681   0.424   4.653
 5360SOL     OW16966   4.267   0.062   4.232
 5360SOL    HW116967   4.181   0.060   4.275
 5360SOL    HW216968   4.259   0.131   4.166
 5361SOL     OW16969   5.135   1.181   3.768
 5361SOL    HW116970   5.142   1.102   3.822
 5361SOL    HW216971   5.048   1.215   3.788
 5362SOL     OW16972   4.026   0.063   3.916
 5362SOL    HW116973   4.084   0.133   3.886
 5362SOL    HW216974   4.082   5.286   3.922
 5363SOL     OW16975   4.661   0.264   4.186
 5363SOL    HW116976   4.633   0.297   4.101
 5363SOL    HW216977   4.756   0.278   4.187
 5364SOL     OW16978   4.802   0.682   5.184
 5364SOL    HW116979   4.733   0.615   5.186
 5364SOL    HW216980   4.883   0.632   5.174
 5365SOL     OW16981   4.940   1.571   4.518
 5365SOL    HW116982   4.961   1.638   4.453
 5365SOL    HW216983   5.021   1.558   4.567
 5366SOL     OW16984   4.193   1.150   4.456
 5366SOL    HW116985   4.124   1.130   4.520
 5366SOL    HW216986   4.153   1.134   4.371
 5367SOL     OW16987   4.995   1.794   4.330
 5367SOL    HW116988   5.037   1.855   4.269
 5367SOL    HW216989   4.928   1.846   4.374
 5368SOL     OW16990   4.752   0.549   3.744
 5368SOL    HW116991   4.705   0.631   3.727
 5368SOL    HW216992   4.806   0.569   3.821
 5369SOL     OW16993   3.803   0.553   5.117
 5369SOL    HW116994   3.895   0.553   5.089
 5369SOL    HW216995   3.798   0.624   5.181
 5370SOL     OW16996   4.279   0.238   4.882
 5370SOL    HW116997   4.311   0.153   4.912
 5370SOL    HW216998   4.187   0.239   4.909
 5371SOL     OW16999   4.592   0.465   4.365
 5371SOL    HW117000   4.543   0.517   4.301
 5371SOL    HW217001   4.613   0.384   4.318
 5372SOL     OW17002   4.699   0.063   4.488
 5372SOL    HW117003   4.635   0.056   4.417
 5372SOL    HW217004   4.713   5.272   4.516
 5373SOL     OW17005   5.156   1.176   4.575
 5373SOL    HW117006   5.101   1.100   4.589
 5373SOL    HW217007   5.168   1.180   4.480
 5374SOL     OW17008   4.214   1.419   3.879
 5374SOL    HW117009   4.139   1.390   3.931
 5374SOL    HW217010   4.202   1.377   3.794
 5375SOL     OW17011   5.128   0.558   3.807
 5375SOL    HW117012   5.051   0.550   3.863
 5375SOL    HW217013   5.202   0.532   3.863
 5376SOL     OW17014   4.247   0.265   4.045
 5376SOL    HW117015   4.292   0.216   3.976
 5376SOL    HW217016   4.226   0.349   4.004
 5377SOL     OW17017   4.779   1.354   5.057
 5377SOL    HW117018   4.704   1.323   5.108
 5377SOL    HW217019   4.855   1.311   5.098
 5378SOL     OW17020   0.007   1.604   5.339
 5378SOL    HW117021   0.041   1.608   5.250
 5378SOL    HW217022   0.083   1.584   5.393
 5379SOL     OW17023   4.854   1.205   4.830
 5379SOL    HW117024   4.792   1.239   4.894
 5379SOL    HW217025   4.821   1.234   4.745
 5380SOL     OW17026   4.624   0.105   5.109
 5380SOL    HW117027   4.657   0.070   5.026
 5380SOL    HW217028   4.699   0.149   5.149
 5381SOL     OW17029   4.709   1.113   5.449
 5381SOL    HW117030   4.617   1.131   5.470
 5381SOL    HW217031   4.706   1.036   5.392
 5382SOL     OW17032   4.433   1.062   4.095
 5382SOL    HW117033   4.419   1.044   4.188
 5382SOL    HW217034   4.508   1.008   4.072
 5383SOL     OW17035   4.143   0.816   4.975
 5383SOL    HW117036   4.211   0.825   5.042
 5383SOL    HW217037   4.108   0.728   4.989
 5384SOL     OW17038   4.991   0.380   4.994
 5384SOL    HW117039   5.024   0.459   5.038
 5384SOL    HW217040   4.900   0.402   4.972
 5385SOL     OW17041   3.794   1.573   5.077
 5385SOL    HW117042   3.763   1.645   5.021
 5385SOL    HW217043   3.890   1.578   5.071
 5386SOL     OW17044   4.071   1.111   4.214
 5386SOL    HW117045   4.077   1.184   4.152
 5386SOL    HW217046   4.068   1.033   4.159
 5387SOL     OW17047   4.277   0.537   4.584
 5387SOL    HW117048   4.292   0.595   4.510
 5387SOL    HW217049   4.343   0.563   4.649
 5388SOL     OW17050   4.972   1.349   4.111
 5388SOL    HW117051   5.026   1.422   4.141
 5388SOL    HW217052   4.884   1.369   4.144
 5389SOL     OW17053   4.996   1.457   4.864
 5389SOL    HW117054   5.050   1.458   4.943
 5389SOL    HW217055   4.941   1.379   4.874
 5390SOL     OW17056   4.070   1.528   5.038
 5390SOL    HW117057   4.058   1.485   4.954
 5390SOL    HW217058   4.165   1.540   5.046
 5391SOL     OW17059   4.139   0.744   5.326
 5391SOL    HW117060   4.201   0.789   5.268
 5391SOL    HW217061   4.180   0.660   5.344
 5392SOL     OW17062   4.755   0.120   5.478
 5392SOL    HW117063   4.798   0.201   5.454
 5392SOL    HW217064   4.797   0.053   5.424
 5393SOL     OW17065   4.203   0.059   5.460
 5393SOL    HW117066   4.142   5.294   5.424
 5393SOL    HW217067   4.148   0.133   5.483
 5394SOL     OW17068   4.308   0.873   4.755
 5394SOL    HW117069   4.338   0.964   4.756
 5394SOL    HW217070   4.251   0.867   4.832
 5395SOL     OW17071   5.086   0.857   4.760
 5395SOL    HW117072   5.008   0.837   4.708
 5395SOL    HW217073   5.140   0.778   4.754
 5396SOL     OW17074   4.928   0.531   3.989
 5396SOL    HW117075   4.932   0.451   4.041
 5396SOL    HW217076   4.884   0.594   4.046
 5397SOL     OW17077   4.019   0.203   4.972
 5397SOL    HW117078   3.980   0.242   5.050
 5397SOL    HW217079   4.021   0.109   4.991
 5398SOL     OW17080   3.768   1.311   5.000
 5398SOL    HW117081   3.802   1.256   5.071
 5398SOL    HW217082   3.777   1.401   5.033
 5399SOL     OW17083   4.449   0.632   4.783
 5399SOL    HW117084   4.523   0.615   4.725
 5399SOL    HW217085   4.420   0.720   4.760
 5400SOL     OW17086   4.029   0.071   4.379
 5400SOL    HW117087   4.009   0.165   4.383
 5400SOL    HW217088   4.076   0.053   4.460
 5401SOL     OW17089   0.029   0.410   4.088
 5401SOL    HW117090   0.057   0.347   4.155
 5401SOL    HW217091   0.009   0.489   4.137
 5402SOL     OW17092   4.752   0.759   4.684
 5402SOL    HW117093   4.749   0.776   4.778
 5402SOL    HW217094   4.725   0.667   4.675
 5403SOL     OW17095   4.697   1.562   5.438
 5403SOL    HW117096   4.686   1.609   5.356
 5403SOL    HW217097   4.745   1.482   5.414
 5404SOL     OW17098   4.077   0.917   5.533
 5404SOL    HW117099   4.159   0.935   5.579
 5404SOL    HW217100   4.102   0.853   5.465
 5405SOL     OW17101   5.028   0.829   3.761
 5405SOL    HW117102   5.063   0.740   3.761
 5405SOL    HW217103   5.055   0.865   3.676
 5406SOL     OW17104   4.790   1.334   4.580
 5406SOL    HW117105   4.794   1.263   4.517
 5406SOL    HW217106   4.847   1.402   4.543
 5407SOL     OW17107   4.033   0.809   4.671
 5407SOL    HW117108   4.126   0.830   4.664
 5407SOL    HW217109   4.031   0.718   4.703
 5408SOL     OW17110   4.055   0.527   4.736
 5408SOL    HW117111   4.019   0.440   4.722
 5408SOL    HW217112   4.132   0.531   4.679
 5409SOL     OW17113   4.862   0.377   5.415
 5409SOL    HW117114   4.811   0.431   5.476
 5409SOL    HW217115   4.946   0.422   5.407
 5410SOL     OW17116   4.846   0.234   5.183
 5410SOL    HW117117   4.857   0.284   5.263
 5410SOL    HW217118   4.910   0.271   5.122
 5411SOL     OW17119   3.730   1.321   3.920
 5411SOL    HW117120   3.643   1.335   3.882
 5411SOL    HW217121   3.727   1.231   3.953
 5412SOL     OW17122   3.812   1.792   4.658
 5412SOL    HW117123   3.783   1.710   4.616
 5412SOL    HW217124   3.903   1.802   4.630
 5413SOL     OW17125   4.219   1.574   4.629
 5413SOL    HW117126   4.288   1.636   4.653
 5413SOL    HW217127   4.264   1.511   4.573
 5414SOL     OW17128   4.705   0.793   4.950
 5414SOL    HW117129   4.761   0.769   5.024
 5414SOL    HW217130   4.621   0.752   4.970
 5415SOL     OW17131   3.759   0.545   4.841
 5415SOL    HW117132   3.839   0.530   4.789
 5415SOL    HW217133   3.790   0.548   4.932
 5416SOL     OW17134   3.910   0.523   5.452
 5416SOL    HW117135   3.974   0.487   5.391
 5416SOL    HW217136   3.872   0.598   5.405
 5417SOL     OW17137   5.114   0.936   5.390
 5417SOL    HW117138   5.122   1.031   5.378
 5417SOL    HW217139   5.117   0.900   5.301
 5418SOL     OW17140   4.539   0.574   4.086
 5418SOL    HW117141   4.542   0.498   4.027
 5418SOL    HW217142   4.464   0.625   4.055
 5419SOL     OW17143   3.966   1.551   5.451
 5419SOL    HW117144   3.944   1.616   5.517
 5419SOL    HW217145   3.969   1.468   5.498
 5420SOL     OW17146   4.424   0.451   4.983
 5420SOL    HW117147   4.373   0.378   4.951
 5420SOL    HW217148   4.423   0.515   4.912
 5421SOL     OW17149   4.644   1.680   5.193
 5421SOL    HW117150   4.622   1.646   5.106
 5421SOL    HW217151   4.644   1.775   5.183
 5422SOL     OW17152   4.186   0.493   3.906
 5422SOL    HW117153   4.246   0.563   3.930
 5422SOL    HW217154   4.101   0.536   3.897
 5423SOL     OW17155   3.869   1.141   5.196
 5423SOL    HW117156   3.871   1.090   5.277
 5423SOL    HW217157   3.886   1.077   5.127
 5424SOL     OW17158   5.053   1.048   4.948
 5424SOL    HW117159   5.074   0.983   4.881
 5424SOL    HW217160   4.982   1.100   4.910
 5425SOL     OW17161   5.037   0.859   4.040
 5425SOL    HW117162   4.955   0.827   4.078
 5425SOL    HW217163   5.023   0.852   3.946
 5426SOL     OW17164   4.959   1.731   4.844
 5426SOL    HW117165   5.045   1.753   4.809
 5426SOL    HW217166   4.961   1.636   4.854
 5427SOL     OW17167   3.808   1.268   4.736
 5427SOL    HW117168   3.793   1.280   4.829
 5427SOL    HW217169   3.736   1.211   4.707
 5428SOL     OW17170   4.401   1.666   5.454
 5428SOL    HW117171   4.348   1.745   5.447
 5428SOL    HW217172   4.470   1.678   5.390
 5429SOL     OW17173   5.111   1.570   4.206
 5429SOL    HW117174   5.181   1.612   4.155
 5429SOL    HW217175   5.060   1.643   4.241
 5430SOL     OW17176   3.861   1.796   5.567
 5430SOL    HW117177   3.810   1.731   5.615
 5430SOL    HW217178   3.908   1.844   5.635
 5431SOL     OW17179   5.017   0.920   4.395
 5431SOL    HW117180   5.095   0.866   4.383
 5431SOL    HW217181   5.035   1.000   4.347
 5432SOL     OW17182   4.536   1.274   5.153
 5432SOL    HW117183   4.508   1.313   5.236
 5432SOL    HW217184   4.467   1.296   5.091
 5433SOL     OW17185   4.394   1.621   3.879
 5433SOL    HW117186   4.406   1.634   3.785
 5433SOL    HW217187   4.339   1.543   3.886
 5434SOL     OW17188   3.985   0.329   4.443
 5434SOL    HW117189   3.897   0.360   4.421
 5434SOL    HW217190   3.984   0.318   4.538
 5435SOL     OW17191   4.908   1.609   3.766
 5435SOL    HW117192   4.919   1.514   3.776
 5435SOL    HW217193   4.853   1.618   3.688
 5436SOL     OW17194   4.547   1.006   5.097
 5436SOL    HW117195   4.591   1.001   5.012
 5436SOL    HW217196   4.547   1.100   5.118
 5437SOL     OW17197   4.641   0.912   4.014
 5437SOL    HW117198   4.703   0.943   3.948
 5437SOL    HW217199   4.687   0.841   4.059
 5438SOL     OW17200   4.093   1.303   5.216
 5438SOL    HW117201   4.079   1.380   5.161
 5438SOL    HW217202   4.016   1.248   5.200
 5439SOL     OW17203   4.777   1.107   4.431
 5439SOL    HW117204   4.706   1.058   4.472
 5439SOL    HW217205   4.835   1.041   4.394
 5440SOL     OW17206   4.737   0.243   4.696
 5440SOL    HW117207   4.718   0.197   4.613
 5440SOL    HW217208   4.732   0.174   4.762
 5441SOL     OW17209   4.327   1.488   4.205
 5441SOL    HW117210   4.373   1.438   4.138
 5441SOL    HW217211   4.257   1.534   4.158
 5442SOL     OW17212   3.984   1.344   4.013
 5442SOL    HW117213   3.891   1.342   3.990
 5442SOL    HW217214   3.986   1.381   4.101
 5443SOL     OW17215   3.837   1.023   5.443
 5443SOL    HW117216   3.760   1.000   5.496
 5443SOL    HW217217   3.911   0.985   5.490
 5444SOL     OW17218   4.396   0.214   5.215
 5444SOL    HW117219   4.478   0.193   5.170
 5444SOL    HW217220   4.423   0.262   5.293
 5445SOL     OW17221   3.801   0.339   3.766
 5445SOL    HW117222   3.718   0.304   3.733
 5445SOL    HW217223   3.822   0.412   3.708
 5446SOL     OW17224   5.163   0.860   5.127
 5446SOL    HW117225   5.110   0.916   5.071
 5446SOL    HW217226   5.252   0.869   5.093
 5447SOL     OW17227   3.796   0.167   4.038
 5447SOL    HW117228   3.798   0.249   3.990
 5447SOL    HW217229   3.880   0.126   4.019
 5448SOL     OW17230   4.906   1.328   3.838
 5448SOL    HW117231   4.812   1.310   3.839
 5448SOL    HW217232   4.930   1.335   3.930
 5449SOL     OW17233   4.343   0.831   5.158
 5449SOL    HW117234   4.399   0.907   5.142
 5449SOL    HW217235   4.404   0.757   5.165
 5450SOL     OW17236   4.440   0.571   5.426
 5450SOL    HW117237   4.481   0.633   5.486
 5450SOL    HW217238   4.468   0.485   5.457
 5451SOL     OW17239   5.181   1.203   5.356
 5451SOL    HW117240   5.172   1.216   5.450
 5451SOL    HW217241   5.275   1.213   5.339
 5452SOL     OW17242   4.102   1.739   5.289
 5452SOL    HW117243   4.017   1.781   5.274
 5452SOL    HW217244   4.080   1.656   5.331
 5453SOL     OW17245   4.940   0.324   4.185
 5453SOL    HW117246   4.995   0.246   4.178
 5453SOL    HW217247   4.971   0.369   4.263
 5454SOL     OW17248   4.314   0.738   4.394
 5454SOL    HW117249   4.352   0.824   4.378
 5454SOL    HW217250   4.246   0.729   4.327
 5455SOL     OW17251   4.591   1.366   3.761
 5455SOL    HW117252   4.550   1.396   3.841
 5455SOL    HW217253   4.606   1.446   3.710
 5456SOL     OW17254   4.384   1.790   4.666
 5456SOL    HW117255   4.365   1.881   4.645
 5456SOL    HW217256   4.480   1.784   4.661
 5457SOL     OW17257   4.592   0.968   4.579
 5457SOL    HW117258   4.642   0.896   4.618
 5457SOL    HW217259   4.556   1.015   4.654
 5458SOL     OW17260   4.807   0.988   3.815
 5458SOL    HW117261   4.782   1.037   3.736
 5458SOL    HW217262   4.881   0.934   3.786
 5459SOL     OW17263   3.949   1.303   5.580
 5459SOL    HW117264   3.882   1.241   5.550
 5459SOL    HW217265   3.931   1.315   5.673
 5460SOL     OW17266   3.808   1.233   4.389
 5460SOL    HW117267   3.815   1.185   4.472
 5460SOL    HW217268   3.876   1.195   4.333
 5461SOL     OW17269   4.406   1.403   5.353
 5461SOL    HW117270   4.325   1.361   5.384
 5461SOL    HW217271   4.402   1.491   5.389
 5462SOL     OW17272   4.154   0.436   4.248
 5462SOL    HW117273   4.186   0.363   4.195
 5462SOL    HW217274   4.107   0.394   4.320
 5463SOL     OW17275   0.095   1.520   4.823
 5463SOL    HW117276   0.027   1.498   4.760
 5463SOL    HW217277   0.098   1.444   4.882
 5464SOL     OW17278   4.053   0.557   5.015
 5464SOL    HW117279   4.109   0.502   5.070
 5464SOL    HW217280   4.073   0.529   4.925
 5465SOL     OW17281   4.553   1.577   4.401
 5465SOL    HW117282   4.539   1.633   4.324
 5465SOL    HW217283   4.476   1.520   4.402
 5466SOL     OW17284   5.148   0.215   4.844
 5466SOL    HW117285   5.158   0.133   4.893
 5466SOL    HW217286   5.103   0.274   4.905
 5467SOL     OW17287   4.724   0.020   4.862
 5467SOL    HW117288   4.673   5.251   4.819
 5467SOL    HW217289   4.811   5.281   4.874
 5468SOL     OW17290   4.495   1.333   4.041
 5468SOL    HW117291   4.465   1.242   4.047
 5468SOL    HW217292   4.577   1.334   4.089
 5469SOL     OW17293   4.344   1.556   5.009
 5469SOL    HW117294   4.345   1.638   5.058
 5469SOL    HW217295   4.431   1.548   4.972
 5470SOL     OW17296   5.035   0.033   3.882
 5470SOL    HW117297   5.117   0.026   3.834
 5470SOL    HW217298   4.985   5.256   3.854
 5471SOL     OW17299   5.028   0.461   4.409
 5471SOL    HW117300   4.972   0.539   4.413
 5471SOL    HW217301   5.015   0.418   4.493
 5472SOL     OW17302   5.295   0.214   4.609
 5472SOL    HW117303   5.237   0.214   4.685
 5472SOL    HW217304   5.273   0.295   4.562
 5473SOL     OW17305   3.767   1.070   4.031
 5473SOL    HW117306   3.861   1.062   4.013
 5473SOL    HW217307   3.739   0.981   4.053
 5474SOL     OW17308   4.604   1.651   4.070
 5474SOL    HW117309   4.533   1.636   4.007
 5474SOL    HW217310   4.577   1.728   4.120
 5475SOL     OW17311   3.951   0.626   5.710
 5475SOL    HW117312   3.863   0.621   5.746
 5475SOL    HW217313   3.941   0.599   5.618
 5476SOL     OW17314   3.941   0.285   6.579
 5476SOL    HW117315   3.970   0.249   6.663
 5476SOL    HW217316   3.857   0.243   6.563
 5477SOL     OW17317   3.727   0.387   6.224
 5477SOL    HW117318   3.643   0.408   6.264
 5477SOL    HW217319   3.709   0.310   6.170
 5478SOL     OW17320   4.291   1.289   6.762
 5478SOL    HW117321   4.204   1.293   6.723
 5478SOL    HW217322   4.306   1.378   6.795
 5479SOL     OW17323   5.287   1.535   6.292
 5479SOL    HW117324   5.247   1.493   6.368
 5479SOL    HW217325   5.221   1.528   6.223
 5480SOL     OW17326   4.861   0.698   6.286
 5480SOL    HW117327   4.910   0.780   6.276
 5480SOL    HW217328   4.810   0.710   6.366
 5481SOL     OW17329   4.478   1.142   6.628
 5481SOL    HW117330   4.409   1.177   6.685
 5481SOL    HW217331   4.513   1.218   6.583
 5482SOL     OW17332   4.593   0.777   7.408
 5482SOL    HW117333   4.570   0.851   7.463
 5482SOL    HW217334   4.617   0.815   7.324
 5483SOL     OW17335   4.411   1.002   6.232
 5483SOL    HW117336   4.475   0.991   6.302
 5483SOL    HW217337   4.341   1.054   6.272
 5484SOL     OW17338   4.436   1.151   7.399
 5484SOL    HW117339   4.483   1.230   7.427
 5484SOL    HW217340   4.354   1.185   7.363
 5485SOL     OW17341   4.055   1.424   6.654
 5485SOL    HW117342   3.982   1.386   6.604
 5485SOL    HW217343   4.104   1.475   6.589
 5486SOL     OW17344   5.161   1.480   6.940
 5486SOL    HW117345   5.208   1.559   6.964
 5486SOL    HW217346   5.100   1.465   7.012
 5487SOL     OW17347   4.169   0.398   7.072
 5487SOL    HW117348   4.244   0.339   7.071
 5487SOL    HW217349   4.094   0.341   7.086
 5488SOL     OW17350   3.943   1.714   6.058
 5488SOL    HW117351   3.964   1.790   6.111
 5488SOL    HW217352   4.017   1.707   5.997
 5489SOL     OW17353   4.859   1.340   7.278
 5489SOL    HW117354   4.898   1.337   7.365
 5489SOL    HW217355   4.807   1.259   7.272
 5490SOL     OW17356   3.955   1.442   6.121
 5490SOL    HW117357   3.937   1.536   6.124
 5490SOL    HW217358   3.895   1.404   6.186
 5491SOL     OW17359   3.983   1.090   6.477
 5491SOL    HW117360   3.979   1.003   6.517
 5491SOL    HW217361   3.925   1.144   6.531
 5492SOL     OW17362   4.332   1.793   7.012
 5492SOL    HW117363   4.251   1.774   7.060
 5492SOL    HW217364   4.356   1.881   7.039
 5493SOL     OW17365   4.309   0.982   5.721
 5493SOL    HW117366   4.355   1.031   5.653
 5493SOL    HW217367   4.348   1.013   5.803
 5494SOL     OW17368   5.251   0.143   7.064
 5494SOL    HW117369   5.297   0.224   7.046
 5494SOL    HW217370   5.272   0.122   7.155
 5495SOL     OW17371   3.839   0.654   6.146
 5495SOL    HW117372   3.811   0.565   6.167
 5495SOL    HW217373   3.831   0.702   6.228
 5496SOL     OW17374   3.757   1.594   5.709
 5496SOL    HW117375   3.739   1.502   5.730
 5496SOL    HW217376   3.733   1.642   5.789
 5497SOL     OW17377   0.113   0.939   6.161
 5497SOL    HW117378   0.201   0.905   6.174
 5497SOL    HW217379   0.126   1.027   6.127
 5498SOL     OW17380   3.847   0.744   7.171
 5498SOL    HW117381   3.938   0.771   7.177
 5498SOL    HW217382   3.797   0.825   7.178
 5499SOL     OW17383   4.338   1.386   6.322
 5499SOL    HW117384   4.292   1.303   6.331
 5499SOL    HW217385   4.321   1.413   6.231
 5500SOL     OW17386   5.005   1.235   7.010
 5500SOL    HW117387   5.039   1.169   6.950
 5500SOL    HW217388   5.060   1.228   7.087
 5501SOL     OW17389   4.536   0.028   6.116
 5501SOL    HW117390   4.564   0.116   6.090
 5501SOL    HW217391   4.440   0.031   6.109
 5502SOL     OW17392   3.914   0.965   6.859
 5502SOL    HW117393   3.999   0.924   6.844
 5502SOL    HW217394   3.852   0.912   6.808
 5503SOL     OW17395   4.897   1.808   7.209
 5503SOL    HW117396   4.916   1.867   7.137
 5503SOL    HW217397   4.920   1.722   7.177
 5504SOL     OW17398   4.050   0.264   7.404
 5504SOL    HW117399   4.102   0.341   7.429
 5504SOL    HW217400   3.963   0.282   7.440
 5505SOL     OW17401   5.168   1.436   6.521
 5505SOL    HW117402   5.106   1.443   6.594
 5505SOL    HW217403   5.161   1.345   6.492
 5506SOL     OW17404   4.318   0.721   5.853
 5506SOL    HW117405   4.322   0.803   5.804
 5506SOL    HW217406   4.253   0.737   5.921
 5507SOL     OW17407   4.996   0.328   6.503
 5507SOL    HW117408   4.906   0.305   6.527
 5507SOL    HW217409   5.048   0.300   6.578
 5508SOL     OW17410   4.518   0.618   7.035
 5508SOL    HW117411   4.490   0.596   7.124
 5508SOL    HW217412   4.477   0.552   6.980
 5509SOL     OW17413   5.117   0.489   7.266
 5509SOL    HW117414   5.118   0.523   7.355
 5509SOL    HW217415   5.181   0.418   7.265
 5510SOL     OW17416   4.678   0.888   7.169
 5510SOL    HW117417   4.731   0.817   7.132
 5510SOL    HW217418   4.629   0.922   7.094
 5511SOL     OW17419   4.718   0.422   6.816
 5511SOL    HW117420   4.633   0.436   6.857
 5511SOL    HW217421   4.699   0.368   6.740
 5512SOL     OW17422   4.775   0.698   6.011
 5512SOL    HW117423   4.791   0.691   6.105
 5512SOL    HW217424   4.692   0.652   5.998
 5513SOL     OW17425   3.812   0.821   6.363
 5513SOL    HW117426   3.893   0.814   6.414
 5513SOL    HW217427   3.769   0.899   6.398
 5514SOL     OW17428   3.850   1.853   7.166
 5514SOL    HW117429   3.851   1.830   7.259
 5514SOL    HW217430   3.760   1.838   7.138
 5515SOL     OW17431   4.601   0.363   5.776
 5515SOL    HW117432   4.635   0.419   5.707
 5515SOL    HW217433   4.655   0.284   5.772
 5516SOL     OW17434   5.093   1.148   6.134
 5516SOL    HW117435   5.182   1.151   6.098
 5516SOL    HW217436   5.042   1.206   6.079
 5517SOL     OW17437   4.248   0.202   6.468
 5517SOL    HW117438   4.271   0.217   6.559
 5517SOL    HW217439   4.270   0.284   6.424
 5518SOL     OW17440   4.729   1.443   6.058
 5518SOL    HW117441   4.692   1.516   6.008
 5518SOL    HW217442   4.710   1.464   6.149
 5519SOL     OW17443   4.078   1.810   6.450
 5519SOL    HW117444   4.122   1.725   6.457
 5519SOL    HW217445   4.147   1.874   6.468
 5520SOL     OW17446   4.940   1.541   7.103
 5520SOL    HW117447   4.927   1.469   7.165
 5520SOL    HW217448   4.878   1.523   7.033
 5521SOL     OW17449   4.043   0.958   5.837
 5521SOL    HW117450   4.125   0.977   5.791
 5521SOL    HW217451   4.012   0.876   5.799
 5522SOL     OW17452   4.190   1.263   7.323
 5522SOL    HW117453   4.163   1.269   7.232
 5522SOL    HW217454   4.108   1.262   7.372
 5523SOL     OW17455   4.832   1.774   5.823
 5523SOL    HW117456   4.759   1.730   5.867
 5523SOL    HW217457   4.857   1.715   5.752
 5524SOL     OW17458   3.921   0.278   7.089
 5524SOL    HW117459   3.842   0.332   7.085
 5524SOL    HW217460   3.912   0.228   7.170
 5525SOL     OW17461   4.189   1.737   5.907
 5525SOL    HW117462   4.232   1.794   5.970
 5525SOL    HW217463   4.261   1.705   5.851
 5526SOL     OW17464   5.096   0.098   6.005
 5526SOL    HW117465   5.083   0.081   5.912
 5526SOL    HW217466   5.190   0.118   6.013
 5527SOL     OW17467   3.979   1.791   6.817
 5527SOL    HW117468   4.031   1.725   6.863
 5527SOL    HW217469   3.970   1.758   6.728
 5528SOL     OW17470   4.662   1.698   6.484
 5528SOL    HW117471   4.742   1.648   6.502
 5528SOL    HW217472   4.618   1.649   6.415
 5529SOL     OW17473   4.117   0.696   6.061
 5529SOL    HW117474   4.138   0.603   6.073
 5529SOL    HW217475   4.024   0.703   6.079
 5530SOL     OW17476   4.346   0.133   5.693
 5530SOL    HW117477   4.417   0.072   5.713
 5530SOL    HW217478   4.297   0.091   5.623
 5531SOL     OW17479   4.507   0.310   7.350
 5531SOL    HW117480   4.574   0.241   7.350
 5531SOL    HW217481   4.464   0.302   7.435
 5532SOL     OW17482   4.599   1.522   6.779
 5532SOL    HW117483   4.584   1.486   6.692
 5532SOL    HW217484   4.669   1.468   6.816
 5533SOL     OW17485   5.061   0.592   7.016
 5533SOL    HW117486   5.090   0.563   7.103
 5533SOL    HW217487   5.099   0.679   7.007
 5534SOL     OW17488   4.539   1.394   6.527
 5534SOL    HW117489   4.623   1.382   6.483
 5534SOL    HW217490   4.475   1.396   6.455
 5535SOL     OW17491   4.652   0.511   6.488
 5535SOL    HW117492   4.628   0.502   6.396
 5535SOL    HW217493   4.681   0.424   6.515
 5536SOL     OW17494   4.267   0.062   6.094
 5536SOL    HW117495   4.181   0.060   6.137
 5536SOL    HW217496   4.259   0.131   6.028
 5537SOL     OW17497   5.135   1.181   5.630
 5537SOL    HW117498   5.142   1.102   5.684
 5537SOL    HW217499   5.048   1.215   5.650
 5538SOL     OW17500   4.026   0.063   5.778
 5538SOL    HW117501   4.084   0.133   5.748
 5538SOL    HW217502   4.082   5.286   5.784
 5539SOL     OW17503   4.661   0.264   6.048
 5539SOL    HW117504   4.633   0.297   5.963
 5539SOL    HW217505   4.756   0.278   6.049
 5540SOL     OW17506   4.802   0.682   7.046
 5540SOL    HW117507   4.733   0.615   7.048
 5540SOL    HW217508   4.883   0.632   7.036
 5541SOL     OW17509   4.940   1.570   6.379
 5541SOL    HW117510   4.961   1.638   6.315
 5541SOL    HW217511   5.021   1.558   6.429
 5542SOL     OW17512   4.194   1.150   6.318
 5542SOL    HW117513   4.125   1.130   6.382
 5542SOL    HW217514   4.153   1.134   6.233
 5543SOL     OW17515   4.995   1.794   6.192
 5543SOL    HW117516   5.037   1.855   6.131
 5543SOL    HW217517   4.927   1.846   6.236
 5544SOL     OW17518   4.752   0.549   5.606
 5544SOL    HW117519   4.705   0.631   5.589
 5544SOL    HW217520   4.806   0.569   5.683
 5545SOL     OW17521   3.804   0.553   6.980
 5545SOL    HW117522   3.895   0.553   6.952
 5545SOL    HW217523   3.798   0.623   7.044
 5546SOL     OW17524   4.279   0.238   6.744
 5546SOL    HW117525   4.312   0.153   6.774
 5546SOL    HW217526   4.187   0.239   6.771
 5547SOL     OW17527   4.592   0.465   6.227
 5547SOL    HW117528   4.543   0.517   6.163
 5547SOL    HW217529   4.613   0.384   6.180
 5548SOL     OW17530   4.699   0.063   6.350
 5548SOL    HW117531   4.635   0.056   6.279
 5548SOL    HW217532   4.713   5.272   6.378
 5549SOL     OW17533   5.156   1.176   6.436
 5549SOL    HW117534   5.101   1.100   6.451
 5549SOL    HW217535   5.168   1.180   6.342
 5550SOL     OW17536   4.214   1.419   5.741
 5550SOL    HW117537   4.139   1.390   5.794
 5550SOL    HW217538   4.201   1.377   5.656
 5551SOL     OW17539   5.128   0.558   5.669
 5551SOL    HW117540   5.051   0.550   5.725
 5551SOL    HW217541   5.202   0.532   5.725
 5552SOL     OW17542   4.247   0.265   5.907
 5552SOL    HW117543   4.292   0.216   5.838
 5552SOL    HW217544   4.226   0.349   5.866
 5553SOL     OW17545   4.779   1.354   6.919
 5553SOL    HW117546   4.704   1.323   6.970
 5553SOL    HW217547   4.855   1.312   6.960
 5554SOL     OW17548   0.007   1.605   7.201
 5554SOL    HW117549   0.041   1.609   7.112
 5554SOL    HW217550   0.083   1.585   7.255
 5555SOL     OW17551   4.854   1.204   6.692
 5555SOL    HW117552   4.792   1.239   6.756
 5555SOL    HW217553   4.821   1.234   6.607
 5556SOL     OW17554   4.623   0.105   6.971
 5556SOL    HW117555   4.657   0.071   6.888
 5556SOL    HW217556   4.699   0.148   7.011
 5557SOL     OW17557   4.709   1.111   7.314
 5557SOL    HW117558   4.617   1.131   7.332
 5557SOL    HW217559   4.706   1.035   7.256
 5558SOL     OW17560   4.433   1.062   5.957
 5558SOL    HW117561   4.418   1.044   6.050
 5558SOL    HW217562   4.508   1.008   5.934
 5559SOL     OW17563   4.143   0.816   6.837
 5559SOL    HW117564   4.212   0.825   6.904
 5559SOL    HW217565   4.108   0.728   6.851
 5560SOL     OW17566   4.991   0.380   6.856
 5560SOL    HW117567   5.024   0.459   6.900
 5560SOL    HW217568   4.900   0.402   6.834
 5561SOL     OW17569   3.795   1.573   6.940
 5561SOL    HW117570   3.766   1.646   6.885
 5561SOL    HW217571   3.891   1.576   6.933
 5562SOL     OW17572   4.071   1.111   6.076
 5562SOL    HW117573   4.076   1.184   6.015
 5562SOL    HW217574   4.069   1.033   6.020
 5563SOL     OW17575   4.277   0.537   6.446
 5563SOL    HW117576   4.292   0.595   6.372
 5563SOL    HW217577   4.343   0.563   6.511
 5564SOL     OW17578   4.972   1.349   5.973
 5564SOL    HW117579   5.026   1.422   6.003
 5564SOL    HW217580   4.884   1.369   6.006
 5565SOL     OW17581   4.996   1.457   6.726
 5565SOL    HW117582   5.050   1.458   6.805
 5565SOL    HW217583   4.941   1.379   6.736
 5566SOL     OW17584   4.070   1.528   6.900
 5566SOL    HW117585   4.058   1.485   6.815
 5566SOL    HW217586   4.165   1.540   6.908
 5567SOL     OW17587   4.139   0.745   7.188
 5567SOL    HW117588   4.200   0.790   7.130
 5567SOL    HW217589   4.180   0.660   7.205
 5568SOL     OW17590   4.750   0.119   7.334
 5568SOL    HW117591   4.798   0.201   7.317
 5568SOL    HW217592   4.797   0.053   7.283
 5569SOL     OW17593   4.203   0.059   7.321
 5569SOL    HW117594   4.141   5.294   7.286
 5569SOL    HW217595   4.147   0.133   7.346
 5570SOL     OW17596   4.308   0.873   6.618
 5570SOL    HW117597   4.338   0.964   6.617
 5570SOL    HW217598   4.251   0.867   6.694
 5571SOL     OW17599   5.086   0.857   6.622
 5571SOL    HW117600   5.008   0.837   6.569
 5571SOL    HW217601   5.139   0.778   6.616
 5572SOL     OW17602   4.928   0.531   5.851
 5572SOL    HW117603   4.932   0.451   5.903
 5572SOL    HW217604   4.884   0.594   5.908
 5573SOL     OW17605   4.020   0.203   6.834
 5573SOL    HW117606   3.980   0.242   6.912
 5573SOL    HW217607   4.021   0.109   6.853
 5574SOL     OW17608   3.770   1.311   6.862
 5574SOL    HW117609   3.803   1.256   6.933
 5574SOL    HW217610   3.776   1.400   6.895
 5575SOL     OW17611   4.449   0.632   6.645
 5575SOL    HW117612   4.523   0.615   6.587
 5575SOL    HW217613   4.420   0.720   6.622
 5576SOL     OW17614   4.029   0.071   6.241
 5576SOL    HW117615   4.009   0.165   6.245
 5576SOL    HW217616   4.076   0.053   6.322
 5577SOL     OW17617   0.029   0.410   5.950
 5577SOL    HW117618   0.057   0.347   6.017
 5577SOL    HW217619   0.009   0.489   5.999
 5578SOL     OW17620   4.752   0.759   6.546
 5578SOL    HW117621   4.749   0.776   6.640
 5578SOL    HW217622   4.725   0.667   6.537
 5579SOL     OW17623   4.698   1.562   7.300
 5579SOL    HW117624   4.687   1.609   7.218
 5579SOL    HW217625   4.745   1.482   7.276
 5580SOL     OW17626   4.077   0.914   7.396
 5580SOL    HW117627   4.161   0.935   7.439
 5580SOL    HW217628   4.101   0.852   7.327
 5581SOL     OW17629   5.028   0.829   5.623
 5581SOL    HW117630   5.063   0.740   5.623
 5581SOL    HW217631   5.055   0.865   5.538
 5582SOL     OW17632   4.790   1.334   6.442
 5582SOL    HW117633   4.794   1.263   6.379
 5582SOL    HW217634   4.847   1.402   6.405
 5583SOL     OW17635   4.032   0.809   6.533
 5583SOL    HW117636   4.126   0.830   6.526
 5583SOL    HW217637   4.031   0.718   6.565
 5584SOL     OW17638   4.056   0.527   6.599
 5584SOL    HW117639   4.019   0.440   6.584
 5584SOL    HW217640   4.132   0.531   6.542
 5585SOL     OW17641   4.862   0.377   7.276
 5585SOL    HW117642   4.812   0.431   7.337
 5585SOL    HW217643   4.946   0.423   7.267
 5586SOL     OW17644   4.846   0.233   7.044
 5586SOL    HW117645   4.856   0.283   7.125
 5586SOL    HW217646   4.910   0.271   6.984
 5587SOL     OW17647   3.729   1.320   5.781
 5587SOL    HW117648   3.642   1.335   5.743
 5587SOL    HW217649   3.726   1.231   5.815
 5588SOL     OW17650   3.814   1.786   6.525
 5588SOL    HW117651   3.784   1.707   6.480
 5588SOL    HW217652   3.904   1.799   6.494
 5589SOL     OW17653   4.220   1.574   6.492
 5589SOL    HW117654   4.288   1.636   6.515
 5589SOL    HW217655   4.264   1.511   6.435
 5590SOL     OW17656   4.705   0.793   6.812
 5590SOL    HW117657   4.761   0.769   6.886
 5590SOL    HW217658   4.621   0.753   6.832
 5591SOL     OW17659   3.759   0.544   6.703
 5591SOL    HW117660   3.839   0.531   6.651
 5591SOL    HW217661   3.790   0.548   6.794
 5592SOL     OW17662   3.912   0.522   7.314
 5592SOL    HW117663   3.974   0.486   7.251
 5592SOL    HW217664   3.872   0.596   7.269
 5593SOL     OW17665   5.112   0.936   7.253
 5593SOL    HW117666   5.120   1.031   7.241
 5593SOL    HW217667   5.116   0.900   7.164
 5594SOL     OW17668   4.539   0.574   5.948
 5594SOL    HW117669   4.542   0.498   5.889
 5594SOL    HW217670   4.464   0.625   5.917
 5595SOL     OW17671   3.966   1.551   7.313
 5595SOL    HW117672   3.944   1.616   7.380
 5595SOL    HW217673   3.969   1.468   7.360
 5596SOL     OW17674   4.424   0.451   6.846
 5596SOL    HW117675   4.373   0.378   6.813
 5596SOL    HW217676   4.423   0.515   6.774
 5597SOL     OW17677   4.645   1.680   7.054
 5597SOL    HW117678   4.622   1.647   6.967
 5597SOL    HW217679   4.644   1.775   7.045
 5598SOL     OW17680   4.186   0.493   5.768
 5598SOL    HW117681   4.246   0.563   5.792
 5598SOL    HW217682   4.101   0.536   5.759
 5599SOL     OW17683   3.869   1.141   7.059
 5599SOL    HW117684   3.871   1.090   7.140
 5599SOL    HW217685   3.886   1.077   6.990
 5600SOL     OW17686   5.053   1.048   6.810
 5600SOL    HW117687   5.074   0.983   6.743
 5600SOL    HW217688   4.982   1.100   6.772
 5601SOL     OW17689   5.037   0.858   5.902
 5601SOL    HW117690   4.955   0.827   5.940
 5601SOL    HW217691   5.023   0.851   5.808
 5602SOL     OW17692   4.959   1.731   6.706
 5602SOL    HW117693   5.045   1.753   6.670
 5602SOL    HW217694   4.961   1.636   6.717
 5603SOL     OW17695   3.809   1.266   6.598
 5603SOL    HW117696   3.794   1.280   6.691
 5603SOL    HW217697   3.735   1.212   6.569
 5604SOL     OW17698   4.400   1.665   7.315
 5604SOL    HW117699   4.349   1.745   7.310
 5604SOL    HW217700   4.471   1.678   7.251
 5605SOL     OW17701   5.111   1.570   6.068
 5605SOL    HW117702   5.181   1.612   6.017
 5605SOL    HW217703   5.060   1.643   6.103
 5606SOL     OW17704   3.861   1.795   7.430
 5606SOL    HW117705   3.810   1.731   7.479
 5606SOL    HW217706   3.908   1.844   7.497
 5607SOL     OW17707   5.017   0.920   6.257
 5607SOL    HW117708   5.095   0.866   6.244
 5607SOL    HW217709   5.035   1.000   6.209
 5608SOL     OW17710   4.536   1.274   7.015
 5608SOL    HW117711   4.508   1.313   7.098
 5608SOL    HW217712   4.467   1.296   6.953
 5609SOL     OW17713   4.395   1.621   5.741
 5609SOL    HW117714   4.406   1.634   5.647
 5609SOL    HW217715   4.339   1.543   5.749
 5610SOL     OW17716   3.985   0.329   6.304
 5610SOL    HW117717   3.897   0.360   6.283
 5610SOL    HW217718   3.984   0.318   6.399
 5611SOL     OW17719   4.908   1.609   5.628
 5611SOL    HW117720   4.919   1.514   5.639
 5611SOL    HW217721   4.852   1.618   5.550
 5612SOL     OW17722   4.548   1.006   6.959
 5612SOL    HW117723   4.591   1.001   6.874
 5612SOL    HW217724   4.546   1.100   6.980
 5613SOL     OW17725   4.641   0.912   5.877
 5613SOL    HW117726   4.703   0.943   5.810
 5613SOL    HW217727   4.687   0.841   5.921
 5614SOL     OW17728   4.092   1.303   7.078
 5614SOL    HW117729   4.079   1.380   7.022
 5614SOL    HW217730   4.016   1.248   7.062
 5615SOL     OW17731   4.777   1.107   6.293
 5615SOL    HW117732   4.706   1.058   6.334
 5615SOL    HW217733   4.835   1.041   6.256
 5616SOL     OW17734   4.737   0.243   6.558
 5616SOL    HW117735   4.718   0.197   6.475
 5616SOL    HW217736   4.732   0.174   6.624
 5617SOL     OW17737   4.327   1.488   6.067
 5617SOL    HW117738   4.373   1.438   5.999
 5617SOL    HW217739   4.257   1.534   6.021
 5618SOL     OW17740   3.984   1.344   5.875
 5618SOL    HW117741   3.891   1.342   5.852
 5618SOL    HW217742   3.986   1.382   5.963
 5619SOL     OW17743   3.837   1.022   7.306
 5619SOL    HW117744   3.760   1.000   7.358
 5619SOL    HW217745   3.911   0.984   7.353
 5620SOL     OW17746   4.396   0.214   7.078
 5620SOL    HW117747   4.479   0.193   7.033
 5620SOL    HW217748   4.423   0.261   7.157
 5621SOL     OW17749   3.801   0.338   5.628
 5621SOL    HW117750   3.718   0.305   5.595
 5621SOL    HW217751   3.822   0.412   5.570
 5622SOL     OW17752   5.163   0.860   6.989
 5622SOL    HW117753   5.110   0.916   6.933
 5622SOL    HW217754   5.253   0.870   6.956
 5623SOL     OW17755   3.796   0.167   5.900
 5623SOL    HW117756   3.798   0.250   5.853
 5623SOL    HW217757   3.880   0.126   5.881
 5624SOL     OW17758   4.906   1.328   5.700
 5624SOL    HW117759   4.812   1.310   5.701
 5624SOL    HW217760   4.930   1.335   5.792
 5625SOL     OW17761   4.343   0.831   7.020
 5625SOL    HW117762   4.399   0.907   7.004
 5625SOL    HW217763   4.404   0.757   7.027
 5626SOL     OW17764   4.439   0.571   7.288
 5626SOL    HW117765   4.481   0.632   7.349
 5626SOL    HW217766   4.467   0.485   7.317
 5627SOL     OW17767   5.181   1.202   7.217
 5627SOL    HW117768   5.171   1.215   7.311
 5627SOL    HW217769   5.275   1.214   7.201
 5628SOL     OW17770   4.102   1.740   7.151
 5628SOL    HW117771   4.017   1.782   7.136
 5628SOL    HW217772   4.080   1.656   7.192
 5629SOL     OW17773   4.940   0.323   6.047
 5629SOL    HW117774   4.995   0.246   6.040
 5629SOL    HW217775   4.971   0.369   6.125
 5630SOL     OW17776   4.314   0.737   6.256
 5630SOL    HW117777   4.352   0.824   6.240
 5630SOL    HW217778   4.246   0.729   6.189
 5631SOL     OW17779   4.592   1.366   5.623
 5631SOL    HW117780   4.550   1.396   5.703
 5631SOL    HW217781   4.606   1.446   5.572
 5632SOL     OW17782   4.385   1.790   6.529
 5632SOL    HW117783   4.365   1.881   6.507
 5632SOL    HW217784   4.480   1.784   6.523
 5633SOL     OW17785   4.592   0.968   6.441
 5633SOL    HW117786   4.642   0.896   6.480
 5633SOL    HW217787   4.556   1.016   6.516
 5634SOL     OW17788   4.807   0.988   5.677
 5634SOL    HW117789   4.782   1.037   5.598
 5634SOL    HW217790   4.881   0.934   5.648
 5635SOL     OW17791   3.949   1.302   7.443
 5635SOL    HW117792   3.882   1.242   7.411
 5635SOL    HW217793   3.927   1.316   7.535
 5636SOL     OW17794   3.808   1.233   6.251
 5636SOL    HW117795   3.815   1.185   6.334
 5636SOL    HW217796   3.876   1.194   6.196
 5637SOL     OW17797   4.405   1.402   7.215
 5637SOL    HW117798   4.325   1.361   7.246
 5637SOL    HW217799   4.402   1.491   7.250
 5638SOL     OW17800   4.154   0.436   6.111
 5638SOL    HW117801   4.186   0.363   6.057
 5638SOL    HW217802   4.107   0.394   6.182
 5639SOL     OW17803   0.095   1.520   6.686
 5639SOL    HW117804   0.027   1.498   6.622
 5639SOL    HW217805   0.098   1.444   6.744
 5640SOL     OW17806   4.053   0.557   6.877
 5640SOL    HW117807   4.110   0.502   6.932
 5640SOL    HW217808   4.073   0.529   6.787
 5641SOL     OW17809   4.553   1.577   6.263
 5641SOL    HW117810   4.539   1.634   6.187
 5641SOL    HW217811   4.476   1.520   6.264
 5642SOL     OW17812   5.148   0.215   6.707
 5642SOL    HW117813   5.157   0.133   6.755
 5642SOL    HW217814   5.103   0.274   6.767
 5643SOL     OW17815   4.724   0.020   6.724
 5643SOL    HW117816   4.673   5.251   6.681
 5643SOL    HW217817   4.811   5.281   6.735
 5644SOL     OW17818   4.495   1.333   5.902
 5644SOL    HW117819   4.465   1.242   5.909
 5644SOL    HW217820   4.577   1.334   5.951
 5645SOL     OW17821   4.344   1.556   6.871
 5645SOL    HW117822   4.345   1.638   6.920
 5645SOL    HW217823   4.431   1.548   6.834
 5646SOL     OW17824   5.035   0.033   5.744
 5646SOL    HW117825   5.117   0.026   5.696
 5646SOL    HW217826   4.985   5.256   5.716
 5647SOL     OW17827   5.028   0.461   6.271
 5647SOL    HW117828   4.972   0.539   6.275
 5647SOL    HW217829   5.015   0.418   6.355
 5648SOL     OW17830   5.295   0.214   6.471
 5648SOL    HW117831   5.237   0.214   6.547
 5648SOL    HW217832   5.273   0.294   6.424
 5649SOL     OW17833   3.767   1.070   5.892
 5649SOL    HW117834   3.861   1.062   5.875
 5649SOL    HW217835   3.739   0.981   5.915
 5650SOL     OW17836   4.605   1.651   5.931
 5650SOL    HW117837   4.533   1.636   5.869
 5650SOL    HW217838   4.577   1.727   5.982
 5651SOL     OW17839   3.950   0.621   7.572
 5651SOL    HW117840   3.861   0.628   7.605
 5651SOL    HW217841   3.940   0.598   7.480
 5652SOL     OW17842   3.945   1.717   7.919
 5652SOL    HW117843   3.973   1.757   8.001
 5652SOL    HW217844   4.024   1.716   7.864
 5653SOL     OW17845   3.940   1.438   7.992
 5653SOL    HW117846   3.926   1.533   7.989
 5653SOL    HW217847   3.881   1.407   8.060
 5654SOL     OW17848   4.310   0.982   7.579
 5654SOL    HW117849   4.354   1.032   7.511
 5654SOL    HW217850   4.348   1.014   7.661
 5655SOL     OW17851   3.755   1.599   7.578
 5655SOL    HW117852   3.739   1.506   7.593
 5655SOL    HW217853   3.727   1.641   7.659
 5656SOL     OW17854   0.117   0.925   8.014
 5656SOL    HW117855   0.211   0.919   8.032
 5656SOL    HW217856   0.102   1.019   8.001
 5657SOL     OW17857   4.534   5.287   7.945
 5657SOL    HW117858   4.577   0.071   7.930
 5657SOL    HW217859   4.441   0.007   7.942
 5658SOL     OW17860   4.314   0.725   7.709
 5658SOL    HW117861   4.315   0.808   7.660
 5658SOL    HW217862   4.254   0.741   7.781
 5659SOL     OW17863   3.783   0.864   0.087
 5659SOL    HW117864   3.846   0.797   0.113
 5659SOL    HW217865   3.782   0.925   0.161
 5660SOL     OW17866   4.592   0.359   7.634
 5660SOL    HW117867   4.631   0.418   7.569
 5660SOL    HW217868   4.652   0.284   7.637
 5661SOL     OW17869   4.046   0.957   7.698
 5661SOL    HW117870   4.126   0.973   7.647
 5661SOL    HW217871   4.009   0.878   7.659
 5662SOL     OW17872   4.836   1.776   7.685
 5662SOL    HW117873   4.762   1.733   7.727
 5662SOL    HW217874   4.861   1.716   7.614
 5663SOL     OW17875   4.190   1.738   7.770
 5663SOL    HW117876   4.240   1.791   7.833
 5663SOL    HW217877   4.257   1.702   7.712
 5664SOL     OW17878   5.113   0.113   7.871
 5664SOL    HW117879   5.085   0.089   7.783
 5664SOL    HW217880   5.208   0.100   7.870
 5665SOL     OW17881   4.116   0.695   7.918
 5665SOL    HW117882   4.118   0.600   7.928
 5665SOL    HW217883   4.025   0.719   7.937
 5666SOL     OW17884   4.341   0.132   7.560
 5666SOL    HW117885   4.420   0.079   7.575
 5666SOL    HW217886   4.296   0.088   7.488
 5667SOL     OW17887   4.272   0.064   7.951
 5667SOL    HW117888   4.180   0.047   7.972
 5667SOL    HW217889   4.269   0.137   7.889
 5668SOL     OW17890   5.135   1.180   7.489
 5668SOL    HW117891   5.150   1.109   7.551
 5668SOL    HW217892   5.049   1.214   7.510
 5669SOL     OW17893   4.029   0.074   7.662
 5669SOL    HW117894   4.079   0.132   7.604
 5669SOL    HW217895   4.078   5.291   7.660
 5670SOL     OW17896   4.673   0.229   7.911
 5670SOL    HW117897   4.620   0.292   7.862
 5670SOL    HW217898   4.758   0.271   7.920
 5671SOL     OW17899   4.162   1.148   0.100
 5671SOL    HW117900   4.089   1.191   0.144
 5671SOL    HW217901   4.132   1.136   0.009
 5672SOL     OW17902   5.009   1.805   8.012
 5672SOL    HW117903   5.049   1.871   7.955
 5672SOL    HW217904   4.935   1.850   8.053
 5673SOL     OW17905   4.754   0.551   7.465
 5673SOL    HW117906   4.705   0.632   7.450
 5673SOL    HW217907   4.801   0.566   7.547
 5674SOL     OW17908   4.211   1.417   7.603
 5674SOL    HW117909   4.137   1.388   7.657
 5674SOL    HW217910   4.196   1.376   7.518
 5675SOL     OW17911   5.128   0.558   7.531
 5675SOL    HW117912   5.050   0.550   7.587
 5675SOL    HW217913   5.199   0.522   7.585
 5676SOL     OW17914   4.249   0.272   7.774
 5676SOL    HW117915   4.289   0.219   7.705
 5676SOL    HW217916   4.227   0.355   7.730
 5677SOL     OW17917   4.438   1.063   7.810
 5677SOL    HW117918   4.409   1.048   7.901
 5677SOL    HW217919   4.516   1.009   7.801
 5678SOL     OW17920   4.089   1.105   7.926
 5678SOL    HW117921   4.069   1.184   7.875
 5678SOL    HW217922   4.075   1.033   7.864
 5679SOL     OW17923   4.958   1.359   7.818
 5679SOL    HW117924   5.015   1.430   7.846
 5679SOL    HW217925   4.905   1.339   7.895
 5680SOL     OW17926   0.028   0.639   7.937
 5680SOL    HW117927   5.274   0.673   8.008
 5680SOL    HW217928   0.048   0.715   7.883
 5681SOL     OW17929   4.926   0.529   7.714
 5681SOL    HW117930   4.930   0.444   7.757
 5681SOL    HW217931   4.893   0.589   7.780
 5682SOL     OW17932   0.027   0.406   7.800
 5682SOL    HW117933   0.032   0.342   7.871
 5682SOL    HW217934   0.023   0.491   7.845
 5683SOL     OW17935   5.036   0.832   7.491
 5683SOL    HW117936   5.064   0.741   7.487
 5683SOL    HW217937   5.058   0.868   7.405
 5684SOL     OW17938   3.730   1.324   7.639
 5684SOL    HW117939   3.643   1.337   7.603
 5684SOL    HW217940   3.729   1.234   7.673
 5685SOL     OW17941   4.565   0.608   7.759
 5685SOL    HW117942   4.557   0.516   7.733
 5685SOL    HW217943   4.475   0.640   7.762
 5686SOL     OW17944   4.184   0.495   7.636
 5686SOL    HW117945   4.244   0.567   7.654
 5686SOL    HW217946   4.099   0.537   7.621
 5687SOL     OW17947   5.032   0.847   7.775
 5687SOL    HW117948   4.939   0.864   7.791
 5687SOL    HW217949   5.040   0.845   7.679
 5688SOL     OW17950   5.104   1.573   7.906
 5688SOL    HW117951   5.199   1.581   7.913
 5688SOL    HW217952   5.070   1.655   7.943
 5689SOL     OW17953   4.389   1.621   7.603
 5689SOL    HW117954   4.403   1.632   7.509
 5689SOL    HW217955   4.337   1.541   7.610
 5690SOL     OW17956   4.911   1.610   7.487
 5690SOL    HW117957   4.920   1.516   7.501
 5690SOL    HW217958   4.851   1.618   7.412
 5691SOL     OW17959   4.655   0.907   7.760
 5691SOL    HW117960   4.705   0.931   7.681
 5691SOL    HW217961   4.641   0.812   7.751
 5692SOL     OW17962   4.330   1.508   7.935
 5692SOL    HW117963   4.376   1.447   7.877
 5692SOL    HW217964   4.256   1.539   7.884
 5693SOL     OW17965   3.983   1.345   7.743
 5693SOL    HW117966   3.891   1.343   7.716
 5693SOL    HW217967   3.981   1.382   7.832
 5694SOL     OW17968   3.798   0.338   7.490
 5694SOL    HW117969   3.716   0.307   7.453
 5694SOL    HW217970   3.822   0.413   7.436
 5695SOL     OW17971   3.787   0.182   7.743
 5695SOL    HW117972   3.785   0.258   7.685
 5695SOL    HW217973   3.868   0.137   7.721
 5696SOL     OW17974   4.904   1.328   7.555
 5696SOL    HW117975   4.809   1.315   7.554
 5696SOL    HW217976   4.926   1.341   7.647
 5697SOL     OW17977   5.271   1.742   0.322
 5697SOL    HW117978   5.273   1.829   0.282
 5697SOL    HW217979   0.046   1.741   0.381
 5698SOL     OW17980   4.942   0.325   7.909
 5698SOL    HW117981   5.005   0.253   7.906
 5698SOL    HW217982   4.952   0.363   7.996
 5699SOL     OW17983   4.354   0.738   8.051
 5699SOL    HW117984   4.355   0.818   0.024
 5699SOL    HW217985   4.265   0.734   8.015
 5700SOL     OW17986   4.592   1.366   7.485
 5700SOL    HW117987   4.551   1.394   7.567
 5700SOL    HW217988   4.606   1.446   7.436
 5701SOL     OW17989   4.802   0.977   7.540
 5701SOL    HW117990   4.778   1.032   7.466
 5701SOL    HW217991   4.880   0.930   7.512
 5702SOL     OW17992   4.113   0.422   7.985
 5702SOL    HW117993   4.165   0.369   7.925
 5702SOL    HW217994   4.162   0.420   8.067
 5703SOL     OW17995   4.489   1.336   7.761
 5703SOL    HW117996   4.460   1.244   7.764
 5703SOL    HW217997   4.567   1.338   7.816
 5704SOL     OW17998   5.036   0.038   7.611
 5704SOL    HW117999   5.115   0.029   7.558
 5704SOL    HW218000   4.986   5.258   7.593
 5705SOL     OW18001   3.776   1.078   7.749
 5705SOL    HW118002   3.870   1.068   7.736
 5705SOL    HW218003   3.745   0.989   7.765
 5706SOL     OW18004   4.613   1.648   7.782
 5706SOL    HW118005   4.537   1.627   7.728
 5706SOL    HW218006   4.581   1.711   7.846
 5707SOL     OW18007   3.942   2.485   0.123
 5707SOL    HW118008   3.862   2.449   0.161
 5707SOL    HW218009   3.964   2.424   0.053
 5708SOL     OW18010   3.949   2.144   0.992
 5708SOL    HW118011   3.977   2.109   1.077
 5708SOL    HW218012   3.859   2.112   0.982
 5709SOL     OW18013   3.728   2.246   0.637
 5709SOL    HW118014   3.645   2.271   0.680
 5709SOL    HW218015   3.707   2.165   0.590
 5710SOL     OW18016   4.291   3.151   1.176
 5710SOL    HW118017   4.204   3.156   1.138
 5710SOL    HW218018   4.307   3.240   1.209
 5711SOL     OW18019   5.284   3.411   0.707
 5711SOL    HW118020   5.249   3.358   0.778
 5711SOL    HW218021   5.226   3.394   0.633
 5712SOL     OW18022   4.860   2.561   0.700
 5712SOL    HW118023   4.910   2.642   0.689
 5712SOL    HW218024   4.811   2.574   0.781
 5713SOL     OW18025   4.477   3.003   1.042
 5713SOL    HW118026   4.409   3.039   1.099
 5713SOL    HW218027   4.513   3.080   0.997
 5714SOL     OW18028   4.594   2.634   1.823
 5714SOL    HW118029   4.577   2.705   1.884
 5714SOL    HW218030   4.615   2.678   1.741
 5715SOL     OW18031   4.408   2.862   0.650
 5715SOL    HW118032   4.474   2.852   0.718
 5715SOL    HW218033   4.340   2.916   0.690
 5716SOL     OW18034   4.435   3.013   1.814
 5716SOL    HW118035   4.483   3.091   1.842
 5716SOL    HW218036   4.353   3.046   1.777
 5717SOL     OW18037   4.055   3.286   1.068
 5717SOL    HW118038   3.982   3.249   1.018
 5717SOL    HW218039   4.104   3.337   1.003
 5718SOL     OW18040   5.161   3.342   1.353
 5718SOL    HW118041   5.209   3.421   1.377
 5718SOL    HW218042   5.102   3.326   1.427
 5719SOL     OW18043   4.174   2.260   1.485
 5719SOL    HW118044   4.249   2.200   1.492
 5719SOL    HW218045   4.097   2.204   1.500
 5720SOL     OW18046   3.945   3.576   0.470
 5720SOL    HW118047   3.965   3.652   0.525
 5720SOL    HW218048   4.020   3.568   0.412
 5721SOL     OW18049   4.859   3.202   1.694
 5721SOL    HW118050   4.899   3.198   1.781
 5721SOL    HW218051   4.807   3.122   1.687
 5722SOL     OW18052   3.949   3.302   0.528
 5722SOL    HW118053   3.938   3.397   0.532
 5722SOL    HW218054   3.892   3.268   0.597
 5723SOL     OW18055   3.982   2.952   0.890
 5723SOL    HW118056   3.979   2.866   0.931
 5723SOL    HW218057   3.925   3.006   0.945
 5724SOL     OW18058   4.331   3.655   1.425
 5724SOL    HW118059   4.251   3.637   1.474
 5724SOL    HW218060   4.357   3.743   1.453
 5725SOL     OW18061   4.352   2.821   0.135
 5725SOL    HW118062   4.299   2.897   0.110
 5725SOL    HW218063   4.404   2.852   0.209
 5726SOL     OW18064   3.839   2.513   0.563
 5726SOL    HW118065   3.809   2.424   0.584
 5726SOL    HW218066   3.831   2.561   0.645
 5727SOL     OW18067   3.754   3.457   0.110
 5727SOL    HW118068   3.741   3.369   0.145
 5727SOL    HW218069   3.738   3.516   0.184
 5728SOL     OW18070   0.115   2.808   0.595
 5728SOL    HW118071   0.204   2.773   0.589
 5728SOL    HW218072   0.109   2.872   0.524
 5729SOL     OW18073   3.847   2.605   1.585
 5729SOL    HW118074   3.939   2.631   1.592
 5729SOL    HW218075   3.798   2.687   1.593
 5730SOL     OW18076   4.337   3.249   0.735
 5730SOL    HW118077   4.292   3.165   0.744
 5730SOL    HW218078   4.322   3.275   0.644
 5731SOL     OW18079   5.005   3.098   1.425
 5731SOL    HW118080   5.039   3.031   1.364
 5731SOL    HW218081   5.061   3.091   1.502
 5732SOL     OW18082   4.540   1.865   0.513
 5732SOL    HW118083   4.579   1.950   0.489
 5732SOL    HW218084   4.447   1.883   0.520
 5733SOL     OW18085   3.914   2.827   1.272
 5733SOL    HW118086   3.999   2.786   1.257
 5733SOL    HW218087   3.852   2.773   1.224
 5734SOL     OW18088   4.895   3.670   1.624
 5734SOL    HW118089   4.916   3.730   1.552
 5734SOL    HW218090   4.919   3.583   1.591
 5735SOL     OW18091   4.058   2.112   1.814
 5735SOL    HW118092   4.102   2.196   1.831
 5735SOL    HW218093   3.968   2.125   1.844
 5736SOL     OW18094   5.168   3.297   0.934
 5736SOL    HW118095   5.106   3.304   1.007
 5736SOL    HW218096   5.162   3.206   0.906
 5737SOL     OW18097   4.322   2.575   0.283
 5737SOL    HW118098   4.340   2.653   0.231
 5737SOL    HW218099   4.258   2.603   0.348
 5738SOL     OW18100   4.995   2.199   0.919
 5738SOL    HW118101   4.907   2.169   0.940
 5738SOL    HW218102   5.050   2.164   0.989
 5739SOL     OW18103   4.514   2.480   1.450
 5739SOL    HW118104   4.489   2.455   1.539
 5739SOL    HW218105   4.476   2.412   1.395
 5740SOL     OW18106   5.114   2.343   1.681
 5740SOL    HW118107   5.116   2.380   1.769
 5740SOL    HW218108   5.191   2.285   1.677
 5741SOL     OW18109   4.677   2.750   1.583
 5741SOL    HW118110   4.730   2.678   1.547
 5741SOL    HW218111   4.629   2.784   1.508
 5742SOL     OW18112   4.715   2.275   1.237
 5742SOL    HW118113   4.628   2.294   1.272
 5742SOL    HW218114   4.698   2.228   1.156
 5743SOL     OW18115   4.778   2.559   0.426
 5743SOL    HW118116   4.794   2.555   0.520
 5743SOL    HW218117   4.694   2.514   0.413
 5744SOL     OW18118   3.812   2.684   0.776
 5744SOL    HW118119   3.893   2.676   0.827
 5744SOL    HW218120   3.769   2.762   0.812
 5745SOL     OW18121   3.850   3.713   1.579
 5745SOL    HW118122   3.851   3.692   1.672
 5745SOL    HW218123   3.759   3.701   1.552
 5746SOL     OW18124   4.610   2.219   0.201
 5746SOL    HW118125   4.654   2.268   0.132
 5746SOL    HW218126   4.610   2.128   0.170
 5747SOL     OW18127   5.096   3.010   0.549
 5747SOL    HW118128   5.179   3.004   0.502
 5747SOL    HW218129   5.042   3.068   0.496
 5748SOL     OW18130   4.274   2.043   0.894
 5748SOL    HW118131   4.276   2.072   0.985
 5748SOL    HW218132   4.276   2.124   0.843
 5749SOL     OW18133   4.728   3.306   0.472
 5749SOL    HW118134   4.690   3.378   0.423
 5749SOL    HW218135   4.709   3.327   0.564
 5750SOL     OW18136   4.078   3.672   0.864
 5750SOL    HW118137   4.122   3.587   0.871
 5750SOL    HW218138   4.147   3.736   0.882
 5751SOL     OW18139   4.939   3.403   1.519
 5751SOL    HW118140   4.927   3.330   1.580
 5751SOL    HW218141   4.880   3.384   1.446
 5752SOL     OW18142   4.048   2.804   0.257
 5752SOL    HW118143   4.114   2.849   0.203
 5752SOL    HW218144   4.053   2.712   0.229
 5753SOL     OW18145   4.190   3.127   1.738
 5753SOL    HW118146   4.164   3.131   1.646
 5753SOL    HW218147   4.108   3.125   1.787
 5754SOL     OW18148   4.823   3.635   0.224
 5754SOL    HW118149   4.768   3.596   0.292
 5754SOL    HW218150   4.839   3.565   0.161
 5755SOL     OW18151   3.925   2.142   1.502
 5755SOL    HW118152   3.843   2.191   1.498
 5755SOL    HW218153   3.906   2.069   1.560
 5756SOL     OW18154   4.188   3.599   0.323
 5756SOL    HW118155   4.231   3.658   0.385
 5756SOL    HW218156   4.259   3.572   0.264
 5757SOL     OW18157   5.115   1.987   0.440
 5757SOL    HW118158   5.100   1.968   0.347
 5757SOL    HW218159   5.210   1.994   0.447
 5758SOL     OW18160   3.979   3.653   1.231
 5758SOL    HW118161   4.031   3.587   1.277
 5758SOL    HW218162   3.971   3.619   1.142
 5759SOL     OW18163   4.662   3.560   0.899
 5759SOL    HW118164   4.743   3.511   0.915
 5759SOL    HW218165   4.618   3.511   0.829
 5760SOL     OW18166   4.111   2.559   0.477
 5760SOL    HW118167   4.134   2.467   0.488
 5760SOL    HW218168   4.018   2.564   0.499
 5761SOL     OW18169   4.355   1.972   0.137
 5761SOL    HW118170   4.449   1.960   0.143
 5761SOL    HW218171   4.334   1.952   0.045
 5762SOL     OW18172   4.489   2.141   1.755
 5762SOL    HW118173   4.566   2.084   1.754
 5762SOL    HW218174   4.441   2.116   1.834
 5763SOL     OW18175   4.599   3.383   1.194
 5763SOL    HW118176   4.584   3.348   1.106
 5763SOL    HW218177   4.670   3.330   1.230
 5764SOL     OW18178   5.057   2.454   1.432
 5764SOL    HW118179   5.089   2.422   1.517
 5764SOL    HW218180   5.100   2.538   1.420
 5765SOL     OW18181   4.539   3.255   0.941
 5765SOL    HW118182   4.624   3.244   0.898
 5765SOL    HW218183   4.476   3.259   0.869
 5766SOL     OW18184   4.651   2.371   0.902
 5766SOL    HW118185   4.627   2.362   0.810
 5766SOL    HW218186   4.682   2.284   0.927
 5767SOL     OW18187   4.274   1.925   0.504
 5767SOL    HW118188   4.193   1.924   0.556
 5767SOL    HW218189   4.266   2.004   0.450
 5768SOL     OW18190   5.139   3.035   0.046
 5768SOL    HW118191   5.134   2.960   0.105
 5768SOL    HW218192   5.055   3.080   0.056
 5769SOL     OW18193   4.035   1.919   0.171
 5769SOL    HW118194   4.101   1.987   0.187
 5769SOL    HW218195   4.071   1.840   0.212
 5770SOL     OW18196   4.662   2.110   0.458
 5770SOL    HW118197   4.635   2.150   0.375
 5770SOL    HW218198   4.756   2.127   0.463
 5771SOL     OW18199   4.801   2.544   1.460
 5771SOL    HW118200   4.734   2.475   1.462
 5771SOL    HW218201   4.884   2.497   1.451
 5772SOL     OW18202   4.940   3.434   0.796
 5772SOL    HW118203   4.961   3.499   0.730
 5772SOL    HW218204   5.022   3.418   0.842
 5773SOL     OW18205   4.192   3.013   0.732
 5773SOL    HW118206   4.124   2.993   0.796
 5773SOL    HW218207   4.151   2.997   0.647
 5774SOL     OW18208   4.991   3.656   0.606
 5774SOL    HW118209   5.036   3.719   0.550
 5774SOL    HW218210   4.925   3.708   0.652
 5775SOL     OW18211   4.758   2.390   0.030
 5775SOL    HW118212   4.712   2.470   0.004
 5775SOL    HW218213   4.818   2.419   0.100
 5776SOL     OW18214   3.804   2.417   1.392
 5776SOL    HW118215   3.896   2.415   1.365
 5776SOL    HW218216   3.799   2.487   1.457
 5777SOL     OW18217   4.283   2.089   1.166
 5777SOL    HW118218   4.325   2.014   1.207
 5777SOL    HW218219   4.192   2.085   1.197
 5778SOL     OW18220   4.591   2.320   0.638
 5778SOL    HW118221   4.549   2.376   0.573
 5778SOL    HW218222   4.613   2.240   0.591
 5779SOL     OW18223   4.739   1.915   0.750
 5779SOL    HW118224   4.680   1.908   0.675
 5779SOL    HW218225   4.717   1.839   0.805
 5780SOL     OW18226   5.156   3.038   0.849
 5780SOL    HW118227   5.102   2.960   0.863
 5780SOL    HW218228   5.167   3.044   0.754
 5781SOL     OW18229   4.207   3.301   0.172
 5781SOL    HW118230   4.134   3.260   0.219
 5781SOL    HW218231   4.213   3.253   0.090
 5782SOL     OW18232   5.128   2.446   0.075
 5782SOL    HW118233   5.069   2.422   0.146
 5782SOL    HW218234   5.195   2.377   0.075
 5783SOL     OW18235   4.240   2.126   0.323
 5783SOL    HW118236   4.292   2.074   0.261
 5783SOL    HW218237   4.227   2.210   0.279
 5784SOL     OW18238   4.779   3.216   1.333
 5784SOL    HW118239   4.704   3.185   1.384
 5784SOL    HW218240   4.855   3.173   1.374
 5785SOL     OW18241   0.006   3.467   1.615
 5785SOL    HW118242   0.041   3.471   1.526
 5785SOL    HW218243   0.083   3.446   1.669
 5786SOL     OW18244   4.854   3.066   1.106
 5786SOL    HW118245   4.792   3.102   1.170
 5786SOL    HW218246   4.821   3.096   1.021
 5787SOL     OW18247   4.642   1.959   1.396
 5787SOL    HW118248   4.664   1.941   1.304
 5787SOL    HW218249   4.721   1.998   1.432
 5788SOL     OW18250   4.709   2.975   1.725
 5788SOL    HW118251   4.617   2.993   1.746
 5788SOL    HW218252   4.706   2.898   1.668
 5789SOL     OW18253   4.440   2.926   0.381
 5789SOL    HW118254   4.421   2.907   0.473
 5789SOL    HW218255   4.517   2.873   0.361
 5790SOL     OW18256   4.143   2.677   1.251
 5790SOL    HW118257   4.211   2.687   1.318
 5790SOL    HW218258   4.108   2.589   1.265
 5791SOL     OW18259   4.988   2.237   1.277
 5791SOL    HW118260   5.023   2.316   1.318
 5791SOL    HW218261   4.898   2.260   1.253
 5792SOL     OW18262   3.795   3.435   1.353
 5792SOL    HW118263   3.767   3.509   1.299
 5792SOL    HW218264   3.891   3.438   1.348
 5793SOL     OW18265   4.066   2.972   0.491
 5793SOL    HW118266   4.074   3.045   0.429
 5793SOL    HW218267   4.075   2.894   0.437
 5794SOL     OW18268   4.275   2.398   0.859
 5794SOL    HW118269   4.291   2.456   0.785
 5794SOL    HW218270   4.341   2.423   0.924
 5795SOL     OW18271   4.970   3.209   0.392
 5795SOL    HW118272   5.026   3.282   0.419
 5795SOL    HW218273   4.883   3.232   0.424
 5796SOL     OW18274   4.996   3.318   1.140
 5796SOL    HW118275   5.050   3.320   1.218
 5796SOL    HW218276   4.942   3.240   1.150
 5797SOL     OW18277   4.070   3.390   1.314
 5797SOL    HW118278   4.058   3.347   1.230
 5797SOL    HW218279   4.165   3.402   1.322
 5798SOL     OW18280   4.139   2.607   1.602
 5798SOL    HW118281   4.201   2.651   1.544
 5798SOL    HW218282   4.178   2.521   1.618
 5799SOL     OW18283   4.718   1.989   1.755
 5799SOL    HW118284   4.776   2.060   1.730
 5799SOL    HW218285   4.765   1.909   1.729
 5800SOL     OW18286   4.221   1.902   1.748
 5800SOL    HW118287   4.178   1.848   1.683
 5800SOL    HW218288   4.163   1.977   1.761
 5801SOL     OW18289   4.307   2.735   1.031
 5801SOL    HW118290   4.339   2.825   1.032
 5801SOL    HW218291   4.251   2.729   1.109
 5802SOL     OW18292   5.086   2.718   1.038
 5802SOL    HW118293   5.010   2.699   0.982
 5802SOL    HW218294   5.142   2.641   1.029
 5803SOL     OW18295   4.932   2.394   0.268
 5803SOL    HW118296   4.935   2.313   0.320
 5803SOL    HW218297   4.886   2.456   0.323
 5804SOL     OW18298   4.022   2.060   1.247
 5804SOL    HW118299   3.985   2.092   1.329
 5804SOL    HW218300   4.003   1.966   1.248
 5805SOL     OW18301   3.770   3.173   1.276
 5805SOL    HW118302   3.803   3.118   1.347
 5805SOL    HW218303   3.777   3.262   1.309
 5806SOL     OW18304   4.446   2.492   1.056
 5806SOL    HW118305   4.522   2.477   1.000
 5806SOL    HW218306   4.419   2.582   1.036
 5807SOL     OW18307   4.027   1.926   0.624
 5807SOL    HW118308   4.008   2.017   0.647
 5807SOL    HW218309   4.035   1.881   0.708
 5808SOL     OW18310   0.048   2.239   0.355
 5808SOL    HW118311   0.061   2.182   0.431
 5808SOL    HW218312   0.019   2.322   0.392
 5809SOL     OW18313   4.751   2.621   0.959
 5809SOL    HW118314   4.749   2.638   1.053
 5809SOL    HW218315   4.725   2.529   0.951
 5810SOL     OW18316   4.697   3.423   1.714
 5810SOL    HW118317   4.686   3.471   1.632
 5810SOL    HW218318   4.745   3.344   1.690
 5811SOL     OW18319   4.077   2.778   1.809
 5811SOL    HW118320   4.159   2.797   1.854
 5811SOL    HW218321   4.101   2.715   1.741
 5812SOL     OW18322   5.031   2.696   0.026
 5812SOL    HW118323   5.063   2.608   0.044
 5812SOL    HW218324   5.058   2.714   8.016
 5813SOL     OW18325   4.789   3.197   0.856
 5813SOL    HW118326   4.794   3.125   0.793
 5813SOL    HW218327   4.847   3.264   0.820
 5814SOL     OW18328   4.033   2.671   0.946
 5814SOL    HW118329   4.126   2.692   0.941
 5814SOL    HW218330   4.030   2.581   0.979
 5815SOL     OW18331   4.054   2.389   1.012
 5815SOL    HW118332   4.020   2.301   0.998
 5815SOL    HW218333   4.131   2.394   0.955
 5816SOL     OW18334   4.856   2.238   1.681
 5816SOL    HW118335   4.808   2.292   1.744
 5816SOL    HW218336   4.943   2.277   1.677
 5817SOL     OW18337   4.885   2.064   1.469
 5817SOL    HW118338   4.873   2.126   1.541
 5817SOL    HW218339   4.924   2.115   1.399
 5818SOL     OW18340   3.737   3.185   0.189
 5818SOL    HW118341   3.650   3.199   0.152
 5818SOL    HW218342   3.734   3.095   0.222
 5819SOL     OW18343   3.814   3.648   0.938
 5819SOL    HW118344   3.785   3.569   0.894
 5819SOL    HW218345   3.904   3.661   0.908
 5820SOL     OW18346   4.220   3.436   0.905
 5820SOL    HW118347   4.288   3.498   0.930
 5820SOL    HW218348   4.264   3.373   0.848
 5821SOL     OW18349   4.705   2.653   1.226
 5821SOL    HW118350   4.762   2.631   1.300
 5821SOL    HW218351   4.620   2.615   1.249
 5822SOL     OW18352   3.760   2.407   1.117
 5822SOL    HW118353   3.841   2.394   1.067
 5822SOL    HW218354   3.788   2.410   1.208
 5823SOL     OW18355   3.916   2.382   1.728
 5823SOL    HW118356   3.971   2.342   1.661
 5823SOL    HW218357   3.874   2.456   1.684
 5824SOL     OW18358   5.113   2.799   1.666
 5824SOL    HW118359   5.121   2.893   1.654
 5824SOL    HW218360   5.117   2.762   1.578
 5825SOL     OW18361   4.543   2.431   0.369
 5825SOL    HW118362   4.552   2.360   0.305
 5825SOL    HW218363   4.467   2.481   0.339
 5826SOL     OW18364   3.966   3.413   1.727
 5826SOL    HW118365   3.944   3.477   1.794
 5826SOL    HW218366   3.969   3.329   1.774
 5827SOL     OW18367   4.427   2.311   1.258
 5827SOL    HW118368   4.373   2.238   1.229
 5827SOL    HW218369   4.422   2.375   1.186
 5828SOL     OW18370   4.643   3.542   1.469
 5828SOL    HW118371   4.622   3.509   1.382
 5828SOL    HW218372   4.644   3.637   1.459
 5829SOL     OW18373   4.192   2.353   0.178
 5829SOL    HW118374   4.259   2.419   0.198
 5829SOL    HW218375   4.109   2.399   0.190
 5830SOL     OW18376   3.869   3.003   1.472
 5830SOL    HW118377   3.871   2.952   1.553
 5830SOL    HW218378   3.886   2.939   1.403
 5831SOL     OW18379   5.053   2.911   1.224
 5831SOL    HW118380   5.074   2.845   1.157
 5831SOL    HW218381   4.982   2.963   1.185
 5832SOL     OW18382   5.023   2.733   0.319
 5832SOL    HW118383   4.946   2.687   0.353
 5832SOL    HW218384   5.024   2.712   0.226
 5833SOL     OW18385   4.959   3.593   1.121
 5833SOL    HW118386   5.045   3.615   1.084
 5833SOL    HW218387   4.961   3.498   1.130
 5834SOL     OW18388   3.808   3.128   1.012
 5834SOL    HW118389   3.794   3.142   1.105
 5834SOL    HW218390   3.735   3.074   0.984
 5835SOL     OW18391   4.401   3.528   1.730
 5835SOL    HW118392   4.348   3.607   1.723
 5835SOL    HW218393   4.471   3.539   1.666
 5836SOL     OW18394   4.630   1.953   0.132
 5836SOL    HW118395   4.645   1.935   0.040
 5836SOL    HW218396   4.694   1.899   0.178
 5837SOL     OW18397   0.079   2.012   0.523
 5837SOL    HW118398   0.171   2.004   0.496
 5837SOL    HW218399   0.068   1.944   0.590
 5838SOL     OW18400   5.108   3.434   0.478
 5838SOL    HW118401   5.163   3.477   0.412
 5838SOL    HW218402   5.059   3.505   0.520
 5839SOL     OW18403   3.861   3.659   1.843
 5839SOL    HW118404   3.810   3.593   1.891
 5839SOL    HW218405   3.908   3.706   1.911
 5840SOL     OW18406   5.017   2.782   0.671
 5840SOL    HW118407   5.095   2.728   0.658
 5840SOL    HW218408   5.035   2.863   0.623
 5841SOL     OW18409   4.536   3.135   1.430
 5841SOL    HW118410   4.508   3.175   1.512
 5841SOL    HW218411   4.467   3.158   1.367
 5842SOL     OW18412   4.400   3.484   0.157
 5842SOL    HW118413   4.408   3.490   0.062
 5842SOL    HW218414   4.339   3.411   0.171
 5843SOL     OW18415   3.985   2.177   0.717
 5843SOL    HW118416   3.899   2.213   0.694
 5843SOL    HW218417   3.983   2.170   0.812
 5844SOL     OW18418   4.859   3.441   0.044
 5844SOL    HW118419   4.899   3.355   0.060
 5844SOL    HW218420   4.901   3.472   8.044
 5845SOL     OW18421   4.548   2.868   1.373
 5845SOL    HW118422   4.592   2.863   1.288
 5845SOL    HW218423   4.547   2.961   1.394
 5846SOL     OW18424   4.644   2.776   0.300
 5846SOL    HW118425   4.696   2.800   0.223
 5846SOL    HW218426   4.692   2.704   0.341
 5847SOL     OW18427   4.092   3.165   1.492
 5847SOL    HW118428   4.080   3.242   1.436
 5847SOL    HW218429   4.016   3.111   1.476
 5848SOL     OW18430   4.777   2.970   0.708
 5848SOL    HW118431   4.706   2.919   0.748
 5848SOL    HW218432   4.835   2.904   0.668
 5849SOL     OW18433   4.739   2.101   0.968
 5849SOL    HW118434   4.737   2.054   0.885
 5849SOL    HW218435   4.735   2.032   1.035
 5850SOL     OW18436   4.326   3.348   0.479
 5850SOL    HW118437   4.372   3.299   0.411
 5850SOL    HW218438   4.258   3.396   0.433
 5851SOL     OW18439   3.992   3.180   0.292
 5851SOL    HW118440   3.906   3.191   0.252
 5851SOL    HW218441   3.985   3.226   0.376
 5852SOL     OW18442   3.837   2.885   1.720
 5852SOL    HW118443   3.761   2.862   1.772
 5852SOL    HW218444   3.911   2.847   1.766
 5853SOL     OW18445   4.399   2.058   1.500
 5853SOL    HW118446   4.483   2.038   1.459
 5853SOL    HW218447   4.422   2.090   1.587
 5854SOL     OW18448   3.780   2.224   0.039
 5854SOL    HW118449   3.705   2.171   0.014
 5854SOL    HW218450   3.831   2.233   8.038
 5855SOL     OW18451   5.163   2.722   1.403
 5855SOL    HW118452   5.111   2.779   1.347
 5855SOL    HW218453   5.252   2.728   1.369
 5856SOL     OW18454   3.795   2.015   0.303
 5856SOL    HW118455   3.780   2.100   0.262
 5856SOL    HW218456   3.879   1.986   0.268
 5857SOL     OW18457   4.912   3.176   0.119
 5857SOL    HW118458   4.817   3.175   0.114
 5857SOL    HW218459   4.931   3.182   0.213
 5858SOL     OW18460   4.343   2.693   1.433
 5858SOL    HW118461   4.400   2.769   1.418
 5858SOL    HW218462   4.403   2.619   1.442
 5859SOL     OW18463   4.442   2.425   1.703
 5859SOL    HW118464   4.483   2.486   1.764
 5859SOL    HW218465   4.466   2.338   1.736
 5860SOL     OW18466   5.181   3.065   1.632
 5860SOL    HW118467   5.172   3.078   1.726
 5860SOL    HW218468   5.275   3.073   1.615
 5861SOL     OW18469   4.102   3.601   1.565
 5861SOL    HW118470   4.017   3.643   1.551
 5861SOL    HW218471   4.080   3.518   1.607
 5862SOL     OW18472   4.932   2.188   0.461
 5862SOL    HW118473   4.994   2.115   0.450
 5862SOL    HW218474   4.962   2.234   0.539
 5863SOL     OW18475   4.312   2.598   0.670
 5863SOL    HW118476   4.352   2.684   0.656
 5863SOL    HW218477   4.244   2.593   0.603
 5864SOL     OW18478   4.622   3.230   0.035
 5864SOL    HW118479   4.557   3.224   0.106
 5864SOL    HW218480   4.618   3.321   0.007
 5865SOL     OW18481   4.384   3.652   0.943
 5865SOL    HW118482   4.365   3.743   0.921
 5865SOL    HW218483   4.480   3.645   0.937
 5866SOL     OW18484   4.592   2.829   0.855
 5866SOL    HW118485   4.642   2.758   0.894
 5866SOL    HW218486   4.557   2.877   0.930
 5867SOL     OW18487   4.800   2.834   0.085
 5867SOL    HW118488   4.790   2.900   0.016
 5867SOL    HW218489   4.882   2.790   0.065
 5868SOL     OW18490   3.949   3.164   1.856
 5868SOL    HW118491   3.882   3.103   1.826
 5868SOL    HW218492   3.931   3.177   1.949
 5869SOL     OW18493   3.809   3.092   0.665
 5869SOL    HW118494   3.816   3.045   0.748
 5869SOL    HW218495   3.881   3.058   0.612
 5870SOL     OW18496   4.405   3.265   1.629
 5870SOL    HW118497   4.325   3.223   1.661
 5870SOL    HW218498   4.402   3.353   1.665
 5871SOL     OW18499   4.148   2.298   0.523
 5871SOL    HW118500   4.182   2.227   0.469
 5871SOL    HW218501   4.104   2.254   0.596
 5872SOL     OW18502   0.093   3.384   1.100
 5872SOL    HW118503   0.027   3.360   1.035
 5872SOL    HW218504   0.098   3.307   1.157
 5873SOL     OW18505   4.055   2.418   1.292
 5873SOL    HW118506   4.110   2.363   1.347
 5873SOL    HW218507   4.074   2.389   1.203
 5874SOL     OW18508   4.552   3.440   0.677
 5874SOL    HW118509   4.539   3.495   0.600
 5874SOL    HW218510   4.475   3.382   0.678
 5875SOL     OW18511   5.147   2.081   1.115
 5875SOL    HW118512   5.191   2.015   1.169
 5875SOL    HW218513   5.101   2.136   1.177
 5876SOL     OW18514   4.729   1.880   1.141
 5876SOL    HW118515   4.677   1.812   1.100
 5876SOL    HW218516   4.817   1.842   1.146
 5877SOL     OW18517   4.494   3.189   0.309
 5877SOL    HW118518   4.464   3.100   0.324
 5877SOL    HW218519   4.576   3.196   0.358
 5878SOL     OW18520   4.344   3.418   1.285
 5878SOL    HW118521   4.345   3.500   1.334
 5878SOL    HW218522   4.431   3.410   1.248
 5879SOL     OW18523   5.050   1.922   0.188
 5879SOL    HW118524   5.091   1.874   0.116
 5879SOL    HW218525   4.971   1.872   0.208
 5880SOL     OW18526   5.028   2.323   0.683
 5880SOL    HW118527   4.973   2.402   0.687
 5880SOL    HW218528   5.015   2.281   0.768
 5881SOL     OW18529   5.300   2.089   0.878
 5881SOL    HW118530   5.238   2.072   0.949
 5881SOL    HW218531   5.272   2.172   0.841
 5882SOL     OW18532   3.767   2.928   0.304
 5882SOL    HW118533   3.863   2.928   0.308
 5882SOL    HW218534   3.742   2.844   0.343
 5883SOL     OW18535   4.604   3.515   0.350
 5883SOL    HW118536   4.537   3.500   0.284
 5883SOL    HW218537   4.573   3.592   0.398
 5884SOL     OW18538   3.952   2.485   1.986
 5884SOL    HW118539   3.863   2.483   2.021
 5884SOL    HW218540   3.943   2.460   1.894
 5885SOL     OW18541   3.951   2.143   2.853
 5885SOL    HW118542   3.977   2.109   2.939
 5885SOL    HW218543   3.861   2.113   2.842
 5886SOL     OW18544   3.729   2.244   2.498
 5886SOL    HW118545   3.647   2.269   2.540
 5886SOL    HW218546   3.708   2.165   2.449
 5887SOL     OW18547   4.291   3.151   3.039
 5887SOL    HW118548   4.204   3.154   3.000
 5887SOL    HW218549   4.306   3.240   3.071
 5888SOL     OW18550   5.287   3.398   2.568
 5888SOL    HW118551   5.247   3.355   2.644
 5888SOL    HW218552   5.221   3.390   2.499
 5889SOL     OW18553   4.859   2.561   2.561
 5889SOL    HW118554   4.910   2.642   2.551
 5889SOL    HW218555   4.810   2.573   2.642
 5890SOL     OW18556   4.478   3.004   2.904
 5890SOL    HW118557   4.409   3.039   2.961
 5890SOL    HW218558   4.514   3.081   2.859
 5891SOL     OW18559   4.594   2.634   3.685
 5891SOL    HW118560   4.577   2.705   3.746
 5891SOL    HW218561   4.615   2.677   3.602
 5892SOL     OW18562   4.410   2.863   2.508
 5892SOL    HW118563   4.475   2.853   2.578
 5892SOL    HW218564   4.341   2.916   2.548
 5893SOL     OW18565   4.435   3.012   3.676
 5893SOL    HW118566   4.483   3.091   3.704
 5893SOL    HW218567   4.354   3.046   3.639
 5894SOL     OW18568   4.055   3.286   2.930
 5894SOL    HW118569   3.982   3.248   2.880
 5894SOL    HW218570   4.104   3.337   2.865
 5895SOL     OW18571   5.161   3.342   3.215
 5895SOL    HW118572   5.209   3.421   3.239
 5895SOL    HW218573   5.102   3.326   3.289
 5896SOL     OW18574   4.173   2.260   3.350
 5896SOL    HW118575   4.247   2.199   3.354
 5896SOL    HW218576   4.096   2.204   3.362
 5897SOL     OW18577   3.943   3.576   2.333
 5897SOL    HW118578   3.964   3.652   2.387
 5897SOL    HW218579   4.017   3.569   2.273
 5898SOL     OW18580   4.859   3.202   3.556
 5898SOL    HW118581   4.899   3.198   3.643
 5898SOL    HW218582   4.807   3.122   3.549
 5899SOL     OW18583   3.954   3.304   2.397
 5899SOL    HW118584   3.937   3.398   2.400
 5899SOL    HW218585   3.894   3.266   2.462
 5900SOL     OW18586   3.984   2.953   2.754
 5900SOL    HW118587   3.979   2.866   2.793
 5900SOL    HW218588   3.925   3.006   2.807
 5901SOL     OW18589   4.332   3.655   3.288
 5901SOL    HW118590   4.251   3.637   3.336
 5901SOL    HW218591   4.357   3.743   3.315
 5902SOL     OW18592   4.309   2.844   1.997
 5902SOL    HW118593   4.355   2.893   1.929
 5902SOL    HW218594   4.348   2.875   2.079
 5903SOL     OW18595   3.839   2.516   2.421
 5903SOL    HW118596   3.811   2.427   2.443
 5903SOL    HW218597   3.832   2.564   2.504
 5904SOL     OW18598   3.757   3.456   1.985
 5904SOL    HW118599   3.739   3.364   2.006
 5904SOL    HW218600   3.733   3.504   2.065
 5905SOL     OW18601   0.112   2.802   2.437
 5905SOL    HW118602   0.199   2.764   2.450
 5905SOL    HW218603   0.128   2.888   2.400
 5906SOL     OW18604   3.864   2.606   3.444
 5906SOL    HW118605   3.959   2.614   3.447
 5906SOL    HW218606   3.833   2.697   3.445
 5907SOL     OW18607   4.338   3.248   2.597
 5907SOL    HW118608   4.292   3.165   2.607
 5907SOL    HW218609   4.321   3.275   2.507
 5908SOL     OW18610   5.005   3.097   3.287
 5908SOL    HW118611   5.039   3.031   3.226
 5908SOL    HW218612   5.061   3.090   3.364
 5909SOL     OW18613   4.539   1.863   2.372
 5909SOL    HW118614   4.580   1.947   2.351
 5909SOL    HW218615   4.446   1.883   2.380
 5910SOL     OW18616   3.910   2.825   3.138
 5910SOL    HW118617   3.991   2.779   3.115
 5910SOL    HW218618   3.842   2.776   3.092
 5911SOL     OW18619   4.896   3.670   3.486
 5911SOL    HW118620   4.916   3.730   3.414
 5911SOL    HW218621   4.919   3.583   3.453
 5912SOL     OW18622   4.059   2.111   3.678
 5912SOL    HW118623   4.102   2.195   3.692
 5912SOL    HW218624   3.968   2.126   3.707
 5913SOL     OW18625   5.167   3.298   2.797
 5913SOL    HW118626   5.106   3.305   2.870
 5913SOL    HW218627   5.161   3.207   2.768
 5914SOL     OW18628   4.320   2.583   2.129
 5914SOL    HW118629   4.324   2.664   2.079
 5914SOL    HW218630   4.254   2.599   2.197
 5915SOL     OW18631   4.995   2.199   2.781
 5915SOL    HW118632   4.907   2.170   2.802
 5915SOL    HW218633   5.050   2.164   2.851
 5916SOL     OW18634   4.514   2.480   3.312
 5916SOL    HW118635   4.488   2.455   3.401
 5916SOL    HW218636   4.476   2.412   3.257
 5917SOL     OW18637   5.114   2.343   3.543
 5917SOL    HW118638   5.116   2.380   3.631
 5917SOL    HW218639   5.191   2.286   3.539
 5918SOL     OW18640   4.677   2.749   3.445
 5918SOL    HW118641   4.730   2.678   3.409
 5918SOL    HW218642   4.629   2.784   3.370
 5919SOL     OW18643   4.715   2.275   3.100
 5919SOL    HW118644   4.628   2.294   3.134
 5919SOL    HW218645   4.698   2.229   3.017
 5920SOL     OW18646   4.775   2.560   2.287
 5920SOL    HW118647   4.792   2.554   2.381
 5920SOL    HW218648   4.692   2.514   2.274
 5921SOL     OW18649   3.812   2.684   2.637
 5921SOL    HW118650   3.893   2.675   2.689
 5921SOL    HW218651   3.768   2.761   2.675
 5922SOL     OW18652   3.849   3.715   3.441
 5922SOL    HW118653   3.851   3.693   3.534
 5922SOL    HW218654   3.759   3.697   3.414
 5923SOL     OW18655   4.619   2.210   2.056
 5923SOL    HW118656   4.658   2.272   1.994
 5923SOL    HW218657   4.633   2.124   2.017
 5924SOL     OW18658   5.093   3.010   2.411
 5924SOL    HW118659   5.181   3.012   2.374
 5924SOL    HW218660   5.042   3.068   2.355
 5925SOL     OW18661   4.275   2.043   2.756
 5925SOL    HW118662   4.276   2.072   2.847
 5925SOL    HW218663   4.274   2.123   2.704
 5926SOL     OW18664   4.729   3.305   2.334
 5926SOL    HW118665   4.692   3.378   2.284
 5926SOL    HW218666   4.710   3.326   2.425
 5927SOL     OW18667   4.079   3.672   2.726
 5927SOL    HW118668   4.122   3.587   2.733
 5927SOL    HW218669   4.147   3.736   2.744
 5928SOL     OW18670   4.940   3.403   3.381
 5928SOL    HW118671   4.927   3.330   3.442
 5928SOL    HW218672   4.880   3.385   3.308
 5929SOL     OW18673   4.043   2.820   2.113
 5929SOL    HW118674   4.125   2.839   2.068
 5929SOL    HW218675   4.013   2.738   2.074
 5930SOL     OW18676   4.191   3.126   3.599
 5930SOL    HW118677   4.165   3.132   3.507
 5930SOL    HW218678   4.109   3.127   3.648
 5931SOL     OW18679   4.831   3.637   2.099
 5931SOL    HW118680   4.759   3.592   2.143
 5931SOL    HW218681   4.857   3.577   2.028
 5932SOL     OW18682   3.922   2.145   3.364
 5932SOL    HW118683   3.837   2.186   3.347
 5932SOL    HW218684   3.903   2.071   3.421
 5933SOL     OW18685   4.189   3.598   2.183
 5933SOL    HW118686   4.232   3.656   2.246
 5933SOL    HW218687   4.261   3.567   2.127
 5934SOL     OW18688   5.119   1.969   2.286
 5934SOL    HW118689   5.100   1.951   2.194
 5934SOL    HW218690   5.214   1.985   2.288
 5935SOL     OW18691   3.979   3.653   3.094
 5935SOL    HW118692   4.031   3.586   3.139
 5935SOL    HW218693   3.970   3.620   3.004
 5936SOL     OW18694   4.662   3.560   2.761
 5936SOL    HW118695   4.742   3.511   2.778
 5936SOL    HW218696   4.618   3.511   2.691
 5937SOL     OW18697   4.118   2.557   2.337
 5937SOL    HW118698   4.137   2.464   2.349
 5937SOL    HW218699   4.024   2.564   2.355
 5938SOL     OW18700   4.361   1.984   1.966
 5938SOL    HW118701   4.429   1.917   1.979
 5938SOL    HW218702   4.311   1.952   1.891
 5939SOL     OW18703   4.489   2.141   3.617
 5939SOL    HW118704   4.566   2.084   3.616
 5939SOL    HW218705   4.441   2.116   3.696
 5940SOL     OW18706   4.599   3.384   3.056
 5940SOL    HW118707   4.584   3.348   2.968
 5940SOL    HW218708   4.670   3.330   3.092
 5941SOL     OW18709   5.057   2.454   3.294
 5941SOL    HW118710   5.089   2.422   3.379
 5941SOL    HW218711   5.100   2.538   3.283
 5942SOL     OW18712   4.539   3.256   2.803
 5942SOL    HW118713   4.624   3.244   2.759
 5942SOL    HW218714   4.475   3.258   2.731
 5943SOL     OW18715   4.652   2.371   2.764
 5943SOL    HW118716   4.628   2.362   2.672
 5943SOL    HW218717   4.682   2.284   2.790
 5944SOL     OW18718   4.273   1.925   2.363
 5944SOL    HW118719   4.193   1.926   2.415
 5944SOL    HW218720   4.267   2.003   2.308
 5945SOL     OW18721   5.135   3.043   1.906
 5945SOL    HW118722   5.143   2.964   1.960
 5945SOL    HW218723   5.048   3.077   1.926
 5946SOL     OW18724   4.015   1.910   2.047
 5946SOL    HW118725   4.074   1.974   2.007
 5946SOL    HW218726   4.074   1.847   2.089
 5947SOL     OW18727   4.662   2.109   2.321
 5947SOL    HW118728   4.636   2.149   2.238
 5947SOL    HW218729   4.757   2.122   2.325
 5948SOL     OW18730   4.801   2.544   3.322
 5948SOL    HW118731   4.734   2.475   3.324
 5948SOL    HW218732   4.884   2.497   3.313
 5949SOL     OW18733   4.940   3.433   2.656
 5949SOL    HW118734   4.961   3.500   2.591
 5949SOL    HW218735   5.021   3.420   2.705
 5950SOL     OW18736   4.194   3.012   2.594
 5950SOL    HW118737   4.125   2.992   2.658
 5950SOL    HW218738   4.152   2.996   2.509
 5951SOL     OW18739   4.995   3.656   2.468
 5951SOL    HW118740   5.037   3.717   2.407
 5951SOL    HW218741   4.928   3.708   2.512
 5952SOL     OW18742   4.748   2.404   1.885
 5952SOL    HW118743   4.703   2.486   1.865
 5952SOL    HW218744   4.809   2.426   1.955
 5953SOL     OW18745   3.802   2.427   3.243
 5953SOL    HW118746   3.893   2.422   3.216
 5953SOL    HW218747   3.801   2.495   3.311
 5954SOL     OW18748   4.283   2.089   3.029
 5954SOL    HW118749   4.324   2.013   3.069
 5954SOL    HW218750   4.192   2.085   3.058
 5955SOL     OW18751   4.592   2.321   2.501
 5955SOL    HW118752   4.546   2.376   2.438
 5955SOL    HW218753   4.613   2.241   2.453
 5956SOL     OW18754   4.739   1.915   2.613
 5956SOL    HW118755   4.681   1.909   2.537
 5956SOL    HW218756   4.717   1.840   2.667
 5957SOL     OW18757   5.156   3.038   2.713
 5957SOL    HW118758   5.101   2.961   2.727
 5957SOL    HW218759   5.168   3.043   2.618
 5958SOL     OW18760   4.214   3.281   2.017
 5958SOL    HW118761   4.139   3.252   2.069
 5958SOL    HW218762   4.202   3.239   1.932
 5959SOL     OW18763   5.128   2.423   1.943
 5959SOL    HW118764   5.054   2.414   2.003
 5959SOL    HW218765   5.202   2.386   1.989
 5960SOL     OW18766   4.250   2.125   2.179
 5960SOL    HW118767   4.295   2.078   2.109
 5960SOL    HW218768   4.226   2.209   2.140
 5961SOL     OW18769   4.779   3.216   3.195
 5961SOL    HW118770   4.704   3.185   3.246
 5961SOL    HW218771   4.855   3.173   3.236
 5962SOL     OW18772   0.007   3.467   3.478
 5962SOL    HW118773   0.041   3.471   3.388
 5962SOL    HW218774   0.083   3.446   3.531
 5963SOL     OW18775   4.854   3.066   2.968
 5963SOL    HW118776   4.792   3.101   3.032
 5963SOL    HW218777   4.821   3.096   2.883
 5964SOL     OW18778   4.642   1.959   3.258
 5964SOL    HW118779   4.664   1.941   3.166
 5964SOL    HW218780   4.721   1.998   3.294
 5965SOL     OW18781   4.709   2.975   3.587
 5965SOL    HW118782   4.617   2.993   3.608
 5965SOL    HW218783   4.706   2.898   3.530
 5966SOL     OW18784   4.433   2.924   2.233
 5966SOL    HW118785   4.419   2.906   2.326
 5966SOL    HW218786   4.509   2.870   2.210
 5967SOL     OW18787   4.143   2.677   3.112
 5967SOL    HW118788   4.211   2.687   3.179
 5967SOL    HW218789   4.109   2.589   3.126
 5968SOL     OW18790   4.988   2.237   3.139
 5968SOL    HW118791   5.023   2.316   3.180
 5968SOL    HW218792   4.898   2.260   3.115
 5969SOL     OW18793   3.795   3.434   3.218
 5969SOL    HW118794   3.765   3.509   3.166
 5969SOL    HW218795   3.891   3.437   3.210
 5970SOL     OW18796   4.071   2.973   2.352
 5970SOL    HW118797   4.076   3.046   2.291
 5970SOL    HW218798   4.069   2.895   2.296
 5971SOL     OW18799   4.276   2.397   2.722
 5971SOL    HW118800   4.291   2.456   2.647
 5971SOL    HW218801   4.341   2.424   2.786
 5972SOL     OW18802   4.972   3.211   2.249
 5972SOL    HW118803   5.026   3.284   2.279
 5972SOL    HW218804   4.884   3.231   2.283
 5973SOL     OW18805   4.996   3.319   3.002
 5973SOL    HW118806   5.050   3.320   3.081
 5973SOL    HW218807   4.941   3.241   3.012
 5974SOL     OW18808   4.071   3.391   3.176
 5974SOL    HW118809   4.058   3.347   3.092
 5974SOL    HW218810   4.165   3.403   3.183
 5975SOL     OW18811   4.141   2.605   3.464
 5975SOL    HW118812   4.203   2.649   3.406
 5975SOL    HW218813   4.180   2.518   3.479
 5976SOL     OW18814   4.718   1.989   3.617
 5976SOL    HW118815   4.776   2.060   3.592
 5976SOL    HW218816   4.765   1.909   3.591
 5977SOL     OW18817   4.221   1.902   3.610
 5977SOL    HW118818   4.178   1.848   3.544
 5977SOL    HW218819   4.163   1.976   3.623
 5978SOL     OW18820   4.308   2.735   2.894
 5978SOL    HW118821   4.337   2.826   2.893
 5978SOL    HW218822   4.251   2.728   2.970
 5979SOL     OW18823   5.086   2.718   2.898
 5979SOL    HW118824   5.009   2.699   2.845
 5979SOL    HW218825   5.140   2.640   2.892
 5980SOL     OW18826   4.927   2.393   2.126
 5980SOL    HW118827   4.934   2.313   2.178
 5980SOL    HW218828   4.883   2.456   2.183
 5981SOL     OW18829   4.023   2.060   3.109
 5981SOL    HW118830   3.985   2.093   3.190
 5981SOL    HW218831   4.002   1.966   3.110
 5982SOL     OW18832   3.777   3.174   3.132
 5982SOL    HW118833   3.801   3.117   3.206
 5982SOL    HW218834   3.777   3.262   3.170
 5983SOL     OW18835   4.447   2.493   2.919
 5983SOL    HW118836   4.522   2.478   2.862
 5983SOL    HW218837   4.419   2.582   2.899
 5984SOL     OW18838   4.028   1.926   2.485
 5984SOL    HW118839   4.008   2.017   2.508
 5984SOL    HW218840   4.035   1.881   2.570
 5985SOL     OW18841   0.034   2.258   2.220
 5985SOL    HW118842   0.052   2.182   2.276
 5985SOL    HW218843   0.021   2.330   2.281
 5986SOL     OW18844   4.751   2.621   2.821
 5986SOL    HW118845   4.749   2.638   2.915
 5986SOL    HW218846   4.725   2.529   2.813
 5987SOL     OW18847   4.697   3.423   3.576
 5987SOL    HW118848   4.686   3.471   3.494
 5987SOL    HW218849   4.745   3.344   3.552
 5988SOL     OW18850   4.080   2.778   3.670
 5988SOL    HW118851   4.162   2.797   3.717
 5988SOL    HW218852   4.105   2.713   3.604
 5989SOL     OW18853   5.027   2.691   1.899
 5989SOL    HW118854   5.065   2.603   1.901
 5989SOL    HW218855   5.055   2.726   1.814
 5990SOL     OW18856   4.790   3.196   2.718
 5990SOL    HW118857   4.794   3.125   2.655
 5990SOL    HW218858   4.847   3.264   2.681
 5991SOL     OW18859   4.033   2.671   2.808
 5991SOL    HW118860   4.126   2.691   2.802
 5991SOL    HW218861   4.030   2.581   2.842
 5992SOL     OW18862   4.055   2.389   2.876
 5992SOL    HW118863   4.019   2.302   2.861
 5992SOL    HW218864   4.131   2.393   2.818
 5993SOL     OW18865   4.856   2.238   3.544
 5993SOL    HW118866   4.808   2.292   3.606
 5993SOL    HW218867   4.943   2.277   3.539
 5994SOL     OW18868   4.885   2.063   3.331
 5994SOL    HW118869   4.873   2.126   3.403
 5994SOL    HW218870   4.924   2.115   3.261
 5995SOL     OW18871   3.729   3.183   2.057
 5995SOL    HW118872   3.642   3.197   2.020
 5995SOL    HW218873   3.726   3.093   2.091
 5996SOL     OW18874   3.814   3.649   2.800
 5996SOL    HW118875   3.785   3.569   2.756
 5996SOL    HW218876   3.904   3.661   2.769
 5997SOL     OW18877   4.220   3.436   2.767
 5997SOL    HW118878   4.288   3.498   2.791
 5997SOL    HW218879   4.264   3.373   2.711
 5998SOL     OW18880   4.705   2.653   3.088
 5998SOL    HW118881   4.761   2.631   3.162
 5998SOL    HW218882   4.620   2.616   3.110
 5999SOL     OW18883   3.751   2.396   2.969
 5999SOL    HW118884   3.840   2.397   2.933
 5999SOL    HW218885   3.763   2.419   3.062
 6000SOL     OW18886   3.921   2.383   3.592
 6000SOL    HW118887   3.969   2.334   3.524
 6000SOL    HW218888   3.879   2.454   3.545
 6001SOL     OW18889   5.113   2.799   3.528
 6001SOL    HW118890   5.121   2.893   3.516
 6001SOL    HW218891   5.117   2.762   3.440
 6002SOL     OW18892   4.540   2.432   2.222
 6002SOL    HW118893   4.544   2.357   2.163
 6002SOL    HW218894   4.466   2.484   2.191
 6003SOL     OW18895   3.969   3.414   3.589
 6003SOL    HW118896   3.946   3.480   3.655
 6003SOL    HW218897   3.971   3.331   3.637
 6004SOL     OW18898   4.427   2.311   3.120
 6004SOL    HW118899   4.373   2.238   3.091
 6004SOL    HW218900   4.422   2.375   3.049
 6005SOL     OW18901   4.644   3.542   3.331
 6005SOL    HW118902   4.622   3.508   3.244
 6005SOL    HW218903   4.644   3.637   3.321
 6006SOL     OW18904   4.187   2.354   2.048
 6006SOL    HW118905   4.246   2.427   2.070
 6006SOL    HW218906   4.102   2.395   2.036
 6007SOL     OW18907   3.876   3.004   3.333
 6007SOL    HW118908   3.879   2.954   3.415
 6007SOL    HW218909   3.890   2.939   3.264
 6008SOL     OW18910   5.053   2.911   3.086
 6008SOL    HW118911   5.074   2.845   3.019
 6008SOL    HW218912   4.982   2.962   3.047
 6009SOL     OW18913   5.035   2.722   2.178
 6009SOL    HW118914   4.954   2.689   2.216
 6009SOL    HW218915   5.024   2.713   2.084
 6010SOL     OW18916   4.959   3.593   2.982
 6010SOL    HW118917   5.045   3.615   2.947
 6010SOL    HW218918   4.961   3.498   2.992
 6011SOL     OW18919   3.806   3.132   2.869
 6011SOL    HW118920   3.795   3.143   2.964
 6011SOL    HW218921   3.736   3.072   2.844
 6012SOL     OW18922   4.401   3.528   3.592
 6012SOL    HW118923   4.348   3.607   3.585
 6012SOL    HW218924   4.471   3.539   3.528
 6013SOL     OW18925   0.078   2.024   2.394
 6013SOL    HW118926   0.161   2.008   2.348
 6013SOL    HW218927   0.065   1.945   2.446
 6014SOL     OW18928   5.111   3.432   2.344
 6014SOL    HW118929   5.181   3.474   2.294
 6014SOL    HW218930   5.060   3.505   2.378
 6015SOL     OW18931   3.862   3.656   3.705
 6015SOL    HW118932   3.810   3.592   3.753
 6015SOL    HW218933   3.909   3.705   3.773
 6016SOL     OW18934   5.017   2.781   2.533
 6016SOL    HW118935   5.095   2.728   2.521
 6016SOL    HW218936   5.035   2.862   2.485
 6017SOL     OW18937   4.536   3.136   3.291
 6017SOL    HW118938   4.508   3.175   3.374
 6017SOL    HW218939   4.467   3.158   3.229
 6018SOL     OW18940   4.394   3.483   2.017
 6018SOL    HW118941   4.406   3.496   1.923
 6018SOL    HW218942   4.339   3.405   2.025
 6019SOL     OW18943   3.986   2.177   2.578
 6019SOL    HW118944   3.900   2.213   2.555
 6019SOL    HW218945   3.984   2.170   2.674
 6020SOL     OW18946   4.908   3.471   1.904
 6020SOL    HW118947   4.920   3.376   1.914
 6020SOL    HW218948   4.853   3.480   1.826
 6021SOL     OW18949   4.548   2.868   3.235
 6021SOL    HW118950   4.591   2.863   3.150
 6021SOL    HW218951   4.546   2.961   3.256
 6022SOL     OW18952   4.640   2.773   2.152
 6022SOL    HW118953   4.702   2.805   2.086
 6022SOL    HW218954   4.688   2.703   2.197
 6023SOL     OW18955   4.095   3.168   3.354
 6023SOL    HW118956   4.081   3.245   3.298
 6023SOL    HW218957   4.019   3.112   3.336
 6024SOL     OW18958   4.777   2.969   2.569
 6024SOL    HW118959   4.706   2.919   2.609
 6024SOL    HW218960   4.836   2.903   2.532
 6025SOL     OW18961   4.739   2.101   2.831
 6025SOL    HW118962   4.737   2.054   2.747
 6025SOL    HW218963   4.735   2.032   2.897
 6026SOL     OW18964   4.327   3.350   2.343
 6026SOL    HW118965   4.373   3.300   2.276
 6026SOL    HW218966   4.257   3.396   2.297
 6027SOL     OW18967   3.984   3.206   2.151
 6027SOL    HW118968   3.891   3.204   2.128
 6027SOL    HW218969   3.986   3.243   2.239
 6028SOL     OW18970   3.850   2.889   3.583
 6028SOL    HW118971   3.781   2.866   3.645
 6028SOL    HW218972   3.930   2.854   3.622
 6029SOL     OW18973   4.399   2.057   3.362
 6029SOL    HW118974   4.483   2.038   3.321
 6029SOL    HW218975   4.422   2.090   3.449
 6030SOL     OW18976   3.803   2.195   1.896
 6030SOL    HW118977   3.715   2.176   1.862
 6030SOL    HW218978   3.833   2.270   1.846
 6031SOL     OW18979   5.163   2.722   3.266
 6031SOL    HW118980   5.111   2.779   3.209
 6031SOL    HW218981   5.252   2.728   3.231
 6032SOL     OW18982   3.791   2.018   2.171
 6032SOL    HW118983   3.777   2.098   2.120
 6032SOL    HW218984   3.876   1.985   2.141
 6033SOL     OW18985   4.906   3.190   1.976
 6033SOL    HW118986   4.812   3.172   1.977
 6033SOL    HW218987   4.930   3.197   2.068
 6034SOL     OW18988   4.343   2.693   3.296
 6034SOL    HW118989   4.399   2.769   3.280
 6034SOL    HW218990   4.403   2.619   3.303
 6035SOL     OW18991   4.441   2.425   3.566
 6035SOL    HW118992   4.483   2.486   3.626
 6035SOL    HW218993   4.466   2.338   3.598
 6036SOL     OW18994   5.181   3.065   3.494
 6036SOL    HW118995   5.172   3.078   3.588
 6036SOL    HW218996   5.275   3.073   3.477
 6037SOL     OW18997   4.102   3.603   3.426
 6037SOL    HW118998   4.017   3.645   3.412
 6037SOL    HW218999   4.080   3.519   3.468
 6038SOL     OW19000   4.939   2.182   2.317
 6038SOL    HW119001   5.001   2.110   2.305
 6038SOL    HW219002   4.969   2.226   2.397
 6039SOL     OW19003   4.314   2.599   2.532
 6039SOL    HW119004   4.353   2.685   2.517
 6039SOL    HW219005   4.246   2.591   2.465
 6040SOL     OW19006   4.591   3.228   1.898
 6040SOL    HW119007   4.550   3.258   1.979
 6040SOL    HW219008   4.606   3.308   1.848
 6041SOL     OW19009   4.385   3.652   2.805
 6041SOL    HW119010   4.365   3.743   2.783
 6041SOL    HW219011   4.480   3.646   2.799
 6042SOL     OW19012   4.592   2.830   2.717
 6042SOL    HW119013   4.642   2.758   2.756
 6042SOL    HW219014   4.556   2.878   2.792
 6043SOL     OW19015   4.806   2.849   1.952
 6043SOL    HW119016   4.782   2.899   1.874
 6043SOL    HW219017   4.881   2.796   1.925
 6044SOL     OW19018   3.952   3.167   3.719
 6044SOL    HW119019   3.883   3.108   3.690
 6044SOL    HW219020   3.939   3.175   3.813
 6045SOL     OW19021   3.806   3.095   2.527
 6045SOL    HW119022   3.812   3.047   2.610
 6045SOL    HW219023   3.875   3.056   2.473
 6046SOL     OW19024   4.406   3.264   3.492
 6046SOL    HW119025   4.325   3.223   3.522
 6046SOL    HW219026   4.402   3.353   3.527
 6047SOL     OW19027   4.153   2.296   2.388
 6047SOL    HW119028   4.183   2.225   2.331
 6047SOL    HW219029   4.105   2.252   2.457
 6048SOL     OW19030   0.094   3.382   2.962
 6048SOL    HW119031   0.027   3.360   2.898
 6048SOL    HW219032   0.098   3.306   3.020
 6049SOL     OW19033   4.057   2.419   3.154
 6049SOL    HW119034   4.111   2.362   3.209
 6049SOL    HW219035   4.074   2.389   3.065
 6050SOL     OW19036   4.552   3.439   2.539
 6050SOL    HW119037   4.539   3.495   2.462
 6050SOL    HW219038   4.476   3.382   2.540
 6051SOL     OW19039   5.146   2.081   2.977
 6051SOL    HW119040   5.192   2.016   3.031
 6051SOL    HW219041   5.100   2.136   3.040
 6052SOL     OW19042   4.729   1.880   3.003
 6052SOL    HW119043   4.676   1.812   2.962
 6052SOL    HW219044   4.817   1.842   3.008
 6053SOL     OW19045   4.495   3.195   2.179
 6053SOL    HW119046   4.465   3.104   2.185
 6053SOL    HW219047   4.577   3.196   2.227
 6054SOL     OW19048   4.344   3.418   3.148
 6054SOL    HW119049   4.346   3.500   3.196
 6054SOL    HW219050   4.431   3.410   3.110
 6055SOL     OW19051   5.056   1.907   2.029
 6055SOL    HW119052   5.079   1.867   1.946
 6055SOL    HW219053   4.972   1.870   2.052
 6056SOL     OW19054   5.027   2.320   2.543
 6056SOL    HW119055   4.973   2.399   2.547
 6056SOL    HW219056   5.016   2.279   2.629
 6057SOL     OW19057   0.002   2.088   2.743
 6057SOL    HW119058   5.236   2.075   2.812
 6057SOL    HW219059   5.274   2.167   2.698
 6058SOL     OW19060   3.767   2.932   2.169
 6058SOL    HW119061   3.860   2.924   2.151
 6058SOL    HW219062   3.739   2.843   2.191
 6059SOL     OW19063   4.604   3.513   2.208
 6059SOL    HW119064   4.533   3.498   2.145
 6059SOL    HW219065   4.577   3.590   2.258
 6060SOL     OW19066   3.950   2.489   3.849
 6060SOL    HW119067   3.862   2.474   3.883
 6060SOL    HW219068   3.945   2.462   3.757
 6061SOL     OW19069   3.947   2.141   4.714
 6061SOL    HW119070   3.975   2.109   4.800
 6061SOL    HW219071   3.856   2.114   4.708
 6062SOL     OW19072   3.732   2.248   4.367
 6062SOL    HW119073   3.655   2.277   4.415
 6062SOL    HW219074   3.702   2.174   4.315
 6063SOL     OW19075   4.292   3.151   4.900
 6063SOL    HW119076   4.204   3.153   4.862
 6063SOL    HW219077   4.305   3.240   4.932
 6064SOL     OW19078   5.287   3.398   4.430
 6064SOL    HW119079   5.247   3.355   4.506
 6064SOL    HW219080   5.221   3.390   4.361
 6065SOL     OW19081   4.859   2.561   4.423
 6065SOL    HW119082   4.910   2.642   4.413
 6065SOL    HW219083   4.810   2.573   4.504
 6066SOL     OW19084   4.479   3.004   4.766
 6066SOL    HW119085   4.410   3.038   4.823
 6066SOL    HW219086   4.514   3.081   4.721
 6067SOL     OW19087   4.594   2.634   5.547
 6067SOL    HW119088   4.576   2.705   5.608
 6067SOL    HW219089   4.615   2.678   5.465
 6068SOL     OW19090   4.410   2.863   4.370
 6068SOL    HW119091   4.475   2.853   4.440
 6068SOL    HW219092   4.341   2.916   4.409
 6069SOL     OW19093   4.435   3.013   5.538
 6069SOL    HW119094   4.483   3.091   5.565
 6069SOL    HW219095   4.354   3.046   5.501
 6070SOL     OW19096   4.055   3.287   4.792
 6070SOL    HW119097   3.981   3.247   4.746
 6070SOL    HW219098   4.102   3.337   4.725
 6071SOL     OW19099   5.161   3.342   5.077
 6071SOL    HW119100   5.209   3.421   5.102
 6071SOL    HW219101   5.102   3.326   5.151
 6072SOL     OW19102   4.174   2.259   5.209
 6072SOL    HW119103   4.248   2.199   5.216
 6072SOL    HW219104   4.097   2.204   5.223
 6073SOL     OW19105   3.944   3.578   4.196
 6073SOL    HW119106   3.965   3.654   4.250
 6073SOL    HW219107   4.018   3.570   4.136
 6074SOL     OW19108   4.859   3.202   5.418
 6074SOL    HW119109   4.898   3.198   5.505
 6074SOL    HW219110   4.807   3.122   5.411
 6075SOL     OW19111   3.959   3.304   4.253
 6075SOL    HW119112   3.938   3.397   4.263
 6075SOL    HW219113   3.907   3.261   4.321
 6076SOL     OW19114   3.996   2.955   4.628
 6076SOL    HW119115   3.984   2.869   4.667
 6076SOL    HW219116   3.930   3.010   4.669
 6077SOL     OW19117   4.332   3.655   5.150
 6077SOL    HW119118   4.251   3.637   5.198
 6077SOL    HW219119   4.356   3.743   5.177
 6078SOL     OW19120   4.308   2.845   3.860
 6078SOL    HW119121   4.354   2.893   3.791
 6078SOL    HW219122   4.347   2.875   3.941
 6079SOL     OW19123   3.842   2.514   4.277
 6079SOL    HW119124   3.816   2.427   4.308
 6079SOL    HW219125   3.851   2.566   4.357
 6080SOL     OW19126   3.756   3.452   3.846
 6080SOL    HW119127   3.742   3.361   3.872
 6080SOL    HW219128   3.736   3.502   3.925
 6081SOL     OW19129   0.112   2.802   4.299
 6081SOL    HW119130   0.199   2.764   4.312
 6081SOL    HW219131   0.128   2.888   4.262
 6082SOL     OW19132   3.848   2.604   5.310
 6082SOL    HW119133   3.939   2.631   5.315
 6082SOL    HW219134   3.798   2.686   5.317
 6083SOL     OW19135   4.338   3.249   4.460
 6083SOL    HW119136   4.292   3.165   4.469
 6083SOL    HW219137   4.322   3.275   4.369
 6084SOL     OW19138   5.005   3.098   5.149
 6084SOL    HW119139   5.039   3.031   5.088
 6084SOL    HW219140   5.061   3.091   5.226
 6085SOL     OW19141   4.539   1.863   4.233
 6085SOL    HW119142   4.580   1.947   4.213
 6085SOL    HW219143   4.446   1.883   4.242
 6086SOL     OW19144   3.912   2.829   4.998
 6086SOL    HW119145   3.993   2.782   4.977
 6086SOL    HW219146   3.843   2.776   4.956
 6087SOL     OW19147   4.896   3.670   5.348
 6087SOL    HW119148   4.916   3.730   5.276
 6087SOL    HW219149   4.919   3.583   5.315
 6088SOL     OW19150   4.059   2.111   5.539
 6088SOL    HW119151   4.101   2.196   5.554
 6088SOL    HW219152   3.968   2.125   5.568
 6089SOL     OW19153   5.168   3.298   4.659
 6089SOL    HW119154   5.106   3.305   4.732
 6089SOL    HW219155   5.161   3.207   4.630
 6090SOL     OW19156   4.320   2.582   3.990
 6090SOL    HW119157   4.325   2.665   3.942
 6090SOL    HW219158   4.256   2.599   4.059
 6091SOL     OW19159   4.995   2.199   4.643
 6091SOL    HW119160   4.907   2.170   4.664
 6091SOL    HW219161   5.050   2.164   4.713
 6092SOL     OW19162   4.515   2.480   5.174
 6092SOL    HW119163   4.489   2.455   5.263
 6092SOL    HW219164   4.476   2.412   5.119
 6093SOL     OW19165   5.114   2.343   5.405
 6093SOL    HW119166   5.116   2.380   5.493
 6093SOL    HW219167   5.191   2.285   5.401
 6094SOL     OW19168   4.677   2.750   5.307
 6094SOL    HW119169   4.730   2.678   5.271
 6094SOL    HW219170   4.629   2.784   5.232
 6095SOL     OW19171   4.715   2.274   4.962
 6095SOL    HW119172   4.628   2.295   4.996
 6095SOL    HW219173   4.698   2.229   4.879
 6096SOL     OW19174   4.775   2.560   4.149
 6096SOL    HW119175   4.792   2.554   4.243
 6096SOL    HW219176   4.692   2.514   4.136
 6097SOL     OW19177   3.864   2.687   4.482
 6097SOL    HW119178   3.931   2.684   4.551
 6097SOL    HW219179   3.813   2.765   4.503
 6098SOL     OW19180   3.851   3.716   5.303
 6098SOL    HW119181   3.852   3.693   5.396
 6098SOL    HW219182   3.761   3.698   5.276
 6099SOL     OW19183   4.619   2.210   3.918
 6099SOL    HW119184   4.658   2.272   3.856
 6099SOL    HW219185   4.633   2.124   3.879
 6100SOL     OW19186   5.093   3.010   4.273
 6100SOL    HW119187   5.181   3.012   4.236
 6100SOL    HW219188   5.042   3.068   4.217
 6101SOL     OW19189   4.274   2.043   4.618
 6101SOL    HW119190   4.276   2.072   4.709
 6101SOL    HW219191   4.275   2.124   4.567
 6102SOL     OW19192   4.729   3.305   4.196
 6102SOL    HW119193   4.692   3.378   4.146
 6102SOL    HW219194   4.710   3.326   4.287
 6103SOL     OW19195   4.078   3.672   4.588
 6103SOL    HW119196   4.122   3.587   4.595
 6103SOL    HW219197   4.148   3.736   4.606
 6104SOL     OW19198   4.940   3.403   5.242
 6104SOL    HW119199   4.927   3.330   5.304
 6104SOL    HW219200   4.880   3.384   5.170
 6105SOL     OW19201   4.042   2.819   3.973
 6105SOL    HW119202   4.125   2.839   3.930
 6105SOL    HW219203   4.016   2.734   3.938
 6106SOL     OW19204   4.190   3.127   5.462
 6106SOL    HW119205   4.164   3.132   5.370
 6106SOL    HW219206   4.108   3.125   5.511
 6107SOL     OW19207   4.832   3.637   3.961
 6107SOL    HW119208   4.759   3.592   4.005
 6107SOL    HW219209   4.857   3.577   3.890
 6108SOL     OW19210   3.925   2.144   5.225
 6108SOL    HW119211   3.844   2.194   5.217
 6108SOL    HW219212   3.904   2.073   5.285
 6109SOL     OW19213   4.190   3.598   4.045
 6109SOL    HW119214   4.232   3.656   4.108
 6109SOL    HW219215   4.261   3.567   3.989
 6110SOL     OW19216   5.119   1.969   4.148
 6110SOL    HW119217   5.100   1.951   4.056
 6110SOL    HW219218   5.214   1.985   4.150
 6111SOL     OW19219   3.979   3.653   4.955
 6111SOL    HW119220   4.031   3.587   5.001
 6111SOL    HW219221   3.971   3.620   4.865
 6112SOL     OW19222   4.662   3.560   4.622
 6112SOL    HW119223   4.742   3.511   4.640
 6112SOL    HW219224   4.618   3.511   4.553
 6113SOL     OW19225   4.119   2.558   4.197
 6113SOL    HW119226   4.138   2.465   4.210
 6113SOL    HW219227   4.026   2.566   4.215
 6114SOL     OW19228   4.361   1.984   3.829
 6114SOL    HW119229   4.429   1.917   3.841
 6114SOL    HW219230   4.311   1.952   3.753
 6115SOL     OW19231   4.489   2.141   5.479
 6115SOL    HW119232   4.566   2.084   5.478
 6115SOL    HW219233   4.441   2.115   5.558
 6116SOL     OW19234   4.599   3.384   4.918
 6116SOL    HW119235   4.584   3.348   4.830
 6116SOL    HW219236   4.669   3.330   4.954
 6117SOL     OW19237   5.057   2.454   5.156
 6117SOL    HW119238   5.089   2.422   5.241
 6117SOL    HW219239   5.100   2.538   5.145
 6118SOL     OW19240   4.539   3.256   4.665
 6118SOL    HW119241   4.623   3.244   4.621
 6118SOL    HW219242   4.475   3.258   4.593
 6119SOL     OW19243   4.652   2.371   4.626
 6119SOL    HW119244   4.628   2.362   4.534
 6119SOL    HW219245   4.683   2.284   4.652
 6120SOL     OW19246   4.273   1.925   4.225
 6120SOL    HW119247   4.193   1.925   4.277
 6120SOL    HW219248   4.267   2.003   4.170
 6121SOL     OW19249   5.135   3.043   3.768
 6121SOL    HW119250   5.142   2.964   3.822
 6121SOL    HW219251   5.048   3.077   3.788
 6122SOL     OW19252   4.014   1.910   3.910
 6122SOL    HW119253   4.073   1.974   3.868
 6122SOL    HW219254   4.073   1.847   3.951
 6123SOL     OW19255   4.662   2.109   4.183
 6123SOL    HW119256   4.636   2.149   4.100
 6123SOL    HW219257   4.757   2.122   4.187
 6124SOL     OW19258   4.801   2.544   5.184
 6124SOL    HW119259   4.734   2.476   5.186
 6124SOL    HW219260   4.883   2.496   5.175
 6125SOL     OW19261   4.940   3.433   4.518
 6125SOL    HW119262   4.961   3.500   4.453
 6125SOL    HW219263   5.021   3.420   4.567
 6126SOL     OW19264   4.196   3.012   4.456
 6126SOL    HW119265   4.129   2.993   4.523
 6126SOL    HW219266   4.151   2.996   4.373
 6127SOL     OW19267   4.995   3.656   4.330
 6127SOL    HW119268   5.037   3.717   4.269
 6127SOL    HW219269   4.928   3.708   4.374
 6128SOL     OW19270   4.747   2.404   3.747
 6128SOL    HW119271   4.703   2.486   3.727
 6128SOL    HW219272   4.809   2.426   3.817
 6129SOL     OW19273   3.803   2.416   5.114
 6129SOL    HW119274   3.895   2.416   5.088
 6129SOL    HW219275   3.796   2.486   5.179
 6130SOL     OW19276   4.283   2.089   4.890
 6130SOL    HW119277   4.324   2.014   4.933
 6130SOL    HW219278   4.192   2.086   4.920
 6131SOL     OW19279   4.592   2.321   4.363
 6131SOL    HW119280   4.546   2.376   4.300
 6131SOL    HW219281   4.613   2.241   4.315
 6132SOL     OW19282   4.739   1.915   4.475
 6132SOL    HW119283   4.681   1.908   4.399
 6132SOL    HW219284   4.717   1.840   4.529
 6133SOL     OW19285   5.156   3.038   4.575
 6133SOL    HW119286   5.101   2.961   4.589
 6133SOL    HW219287   5.168   3.043   4.480
 6134SOL     OW19288   4.213   3.280   3.880
 6134SOL    HW119289   4.137   3.252   3.931
 6134SOL    HW219290   4.202   3.240   3.794
 6135SOL     OW19291   5.128   2.423   3.805
 6135SOL    HW119292   5.054   2.414   3.866
 6135SOL    HW219293   5.202   2.386   3.851
 6136SOL     OW19294   4.250   2.125   4.041
 6136SOL    HW119295   4.295   2.078   3.971
 6136SOL    HW219296   4.226   2.209   4.002
 6137SOL     OW19297   4.779   3.216   5.057
 6137SOL    HW119298   4.704   3.185   5.108
 6137SOL    HW219299   4.855   3.173   5.098
 6138SOL     OW19300   0.007   3.467   5.339
 6138SOL    HW119301   0.041   3.471   5.250
 6138SOL    HW219302   0.083   3.446   5.393
 6139SOL     OW19303   4.854   3.066   4.830
 6139SOL    HW119304   4.792   3.101   4.894
 6139SOL    HW219305   4.821   3.096   4.745
 6140SOL     OW19306   4.642   1.959   5.120
 6140SOL    HW119307   4.664   1.941   5.028
 6140SOL    HW219308   4.721   1.998   5.156
 6141SOL     OW19309   4.709   2.975   5.449
 6141SOL    HW119310   4.617   2.993   5.470
 6141SOL    HW219311   4.706   2.898   5.392
 6142SOL     OW19312   4.432   2.923   4.095
 6142SOL    HW119313   4.419   2.906   4.188
 6142SOL    HW219314   4.508   2.870   4.072
 6143SOL     OW19315   4.143   2.677   4.976
 6143SOL    HW119316   4.211   2.687   5.043
 6143SOL    HW219317   4.108   2.589   4.991
 6144SOL     OW19318   4.988   2.237   5.001
 6144SOL    HW119319   5.023   2.316   5.042
 6144SOL    HW219320   4.898   2.260   4.977
 6145SOL     OW19321   3.796   3.436   5.079
 6145SOL    HW119322   3.768   3.506   5.020
 6145SOL    HW219323   3.892   3.436   5.072
 6146SOL     OW19324   4.070   2.972   4.215
 6146SOL    HW119325   4.077   3.045   4.154
 6146SOL    HW219326   4.069   2.894   4.159
 6147SOL     OW19327   4.275   2.398   4.583
 6147SOL    HW119328   4.291   2.456   4.509
 6147SOL    HW219329   4.341   2.424   4.648
 6148SOL     OW19330   4.972   3.211   4.111
 6148SOL    HW119331   5.026   3.284   4.141
 6148SOL    HW219332   4.884   3.231   4.145
 6149SOL     OW19333   4.996   3.319   4.864
 6149SOL    HW119334   5.050   3.320   4.943
 6149SOL    HW219335   4.941   3.241   4.874
 6150SOL     OW19336   4.070   3.390   5.038
 6150SOL    HW119337   4.058   3.347   4.954
 6150SOL    HW219338   4.165   3.402   5.046
 6151SOL     OW19339   4.138   2.607   5.326
 6151SOL    HW119340   4.201   2.651   5.269
 6151SOL    HW219341   4.176   2.521   5.341
 6152SOL     OW19342   4.718   1.989   5.479
 6152SOL    HW119343   4.776   2.060   5.454
 6152SOL    HW219344   4.765   1.909   5.453
 6153SOL     OW19345   4.221   1.902   5.472
 6153SOL    HW119346   4.177   1.848   5.406
 6153SOL    HW219347   4.163   1.976   5.485
 6154SOL     OW19348   4.311   2.735   4.759
 6154SOL    HW119349   4.338   2.827   4.755
 6154SOL    HW219350   4.254   2.730   4.835
 6155SOL     OW19351   5.086   2.718   4.760
 6155SOL    HW119352   5.009   2.699   4.707
 6155SOL    HW219353   5.140   2.639   4.754
 6156SOL     OW19354   4.927   2.393   3.988
 6156SOL    HW119355   4.934   2.313   4.040
 6156SOL    HW219356   4.883   2.456   4.045
 6157SOL     OW19357   4.022   2.061   4.970
 6157SOL    HW119358   3.984   2.093   5.052
 6157SOL    HW219359   4.004   1.967   4.971
 6158SOL     OW19360   3.776   3.173   5.000
 6158SOL    HW119361   3.805   3.117   5.072
 6158SOL    HW219362   3.779   3.262   5.035
 6159SOL     OW19363   4.446   2.492   4.780
 6159SOL    HW119364   4.523   2.478   4.724
 6159SOL    HW219365   4.419   2.581   4.762
 6160SOL     OW19366   4.027   1.925   4.348
 6160SOL    HW119367   4.009   2.016   4.370
 6160SOL    HW219368   4.036   1.881   4.432
 6161SOL     OW19369   0.034   2.258   4.082
 6161SOL    HW119370   0.052   2.182   4.138
 6161SOL    HW219371   0.021   2.330   4.144
 6162SOL     OW19372   4.752   2.620   4.683
 6162SOL    HW119373   4.749   2.638   4.777
 6162SOL    HW219374   4.726   2.529   4.675
 6163SOL     OW19375   4.697   3.423   5.438
 6163SOL    HW119376   4.686   3.471   5.356
 6163SOL    HW219377   4.745   3.344   5.414
 6164SOL     OW19378   4.077   2.778   5.533
 6164SOL    HW119379   4.159   2.797   5.578
 6164SOL    HW219380   4.101   2.716   5.465
 6165SOL     OW19381   5.027   2.691   3.761
 6165SOL    HW119382   5.065   2.603   3.763
 6165SOL    HW219383   5.055   2.726   3.676
 6166SOL     OW19384   4.790   3.196   4.580
 6166SOL    HW119385   4.794   3.125   4.516
 6166SOL    HW219386   4.847   3.264   4.543
 6167SOL     OW19387   4.043   2.671   4.681
 6167SOL    HW119388   4.136   2.691   4.677
 6167SOL    HW219389   4.039   2.580   4.712
 6168SOL     OW19390   4.055   2.387   4.737
 6168SOL    HW119391   4.019   2.299   4.722
 6168SOL    HW219392   4.131   2.392   4.679
 6169SOL     OW19393   4.856   2.237   5.406
 6169SOL    HW119394   4.808   2.292   5.468
 6169SOL    HW219395   4.943   2.277   5.401
 6170SOL     OW19396   4.885   2.063   5.193
 6170SOL    HW119397   4.873   2.126   5.265
 6170SOL    HW219398   4.924   2.115   5.123
 6171SOL     OW19399   3.714   3.179   3.918
 6171SOL    HW119400   3.621   3.183   3.900
 6171SOL    HW219401   3.728   3.090   3.952
 6172SOL     OW19402   3.814   3.649   4.663
 6172SOL    HW119403   3.784   3.570   4.619
 6172SOL    HW219404   3.904   3.661   4.631
 6173SOL     OW19405   4.220   3.436   4.629
 6173SOL    HW119406   4.288   3.498   4.653
 6173SOL    HW219407   4.264   3.373   4.572
 6174SOL     OW19408   4.705   2.653   4.950
 6174SOL    HW119409   4.761   2.631   5.024
 6174SOL    HW219410   4.620   2.616   4.972
 6175SOL     OW19411   3.762   2.391   4.839
 6175SOL    HW119412   3.845   2.395   4.793
 6175SOL    HW219413   3.784   2.407   4.931
 6176SOL     OW19414   3.916   2.382   5.452
 6176SOL    HW119415   3.970   2.341   5.384
 6176SOL    HW219416   3.875   2.456   5.408
 6177SOL     OW19417   5.113   2.799   5.390
 6177SOL    HW119418   5.121   2.893   5.378
 6177SOL    HW219419   5.117   2.762   5.302
 6178SOL     OW19420   4.540   2.431   4.085
 6178SOL    HW119421   4.544   2.357   4.025
 6178SOL    HW219422   4.467   2.483   4.053
 6179SOL     OW19423   3.966   3.413   5.451
 6179SOL    HW119424   3.944   3.477   5.519
 6179SOL    HW219425   3.969   3.329   5.497
 6180SOL     OW19426   4.427   2.311   4.982
 6180SOL    HW119427   4.373   2.238   4.953
 6180SOL    HW219428   4.423   2.374   4.910
 6181SOL     OW19429   4.644   3.542   5.193
 6181SOL    HW119430   4.622   3.508   5.106
 6181SOL    HW219431   4.644   3.637   5.182
 6182SOL     OW19432   4.186   2.355   3.910
 6182SOL    HW119433   4.246   2.426   3.932
 6182SOL    HW219434   4.101   2.397   3.899
 6183SOL     OW19435   3.869   3.003   5.197
 6183SOL    HW119436   3.871   2.952   5.278
 6183SOL    HW219437   3.886   2.939   5.128
 6184SOL     OW19438   5.053   2.911   4.948
 6184SOL    HW119439   5.074   2.846   4.881
 6184SOL    HW219440   4.982   2.962   4.909
 6185SOL     OW19441   5.035   2.722   4.040
 6185SOL    HW119442   4.954   2.689   4.078
 6185SOL    HW219443   5.024   2.713   3.946
 6186SOL     OW19444   4.959   3.593   4.844
 6186SOL    HW119445   5.045   3.615   4.809
 6186SOL    HW219446   4.961   3.498   4.854
 6187SOL     OW19447   3.814   3.140   4.735
 6187SOL    HW119448   3.798   3.147   4.829
 6187SOL    HW219449   3.748   3.078   4.704
 6188SOL     OW19450   4.401   3.528   5.454
 6188SOL    HW119451   4.348   3.607   5.447
 6188SOL    HW219452   4.471   3.539   5.390
 6189SOL     OW19453   0.078   2.024   4.256
 6189SOL    HW119454   0.161   2.008   4.210
 6189SOL    HW219455   0.065   1.945   4.309
 6190SOL     OW19456   5.111   3.432   4.206
 6190SOL    HW119457   5.181   3.474   4.155
 6190SOL    HW219458   5.060   3.505   4.241
 6191SOL     OW19459   3.860   3.659   5.567
 6191SOL    HW119460   3.810   3.593   5.615
 6191SOL    HW219461   3.908   3.706   5.635
 6192SOL     OW19462   5.017   2.781   4.395
 6192SOL    HW119463   5.095   2.728   4.383
 6192SOL    HW219464   5.035   2.862   4.347
 6193SOL     OW19465   4.536   3.136   5.153
 6193SOL    HW119466   4.508   3.175   5.236
 6193SOL    HW219467   4.467   3.158   5.091
 6194SOL     OW19468   4.394   3.483   3.879
 6194SOL    HW119469   4.406   3.495   3.785
 6194SOL    HW219470   4.339   3.405   3.887
 6195SOL     OW19471   3.988   2.176   4.441
 6195SOL    HW119472   3.903   2.213   4.417
 6195SOL    HW219473   3.985   2.169   4.536
 6196SOL     OW19474   4.908   3.471   3.766
 6196SOL    HW119475   4.920   3.376   3.776
 6196SOL    HW219476   4.853   3.480   3.688
 6197SOL     OW19477   4.548   2.868   5.097
 6197SOL    HW119478   4.590   2.864   5.011
 6197SOL    HW219479   4.546   2.961   5.118
 6198SOL     OW19480   4.640   2.773   4.014
 6198SOL    HW119481   4.702   2.805   3.948
 6198SOL    HW219482   4.688   2.703   4.059
 6199SOL     OW19483   4.092   3.166   5.216
 6199SOL    HW119484   4.079   3.242   5.160
 6199SOL    HW219485   4.016   3.110   5.200
 6200SOL     OW19486   4.777   2.969   4.431
 6200SOL    HW119487   4.706   2.920   4.472
 6200SOL    HW219488   4.836   2.903   4.395
 6201SOL     OW19489   4.739   2.101   4.692
 6201SOL    HW119490   4.738   2.054   4.609
 6201SOL    HW219491   4.735   2.033   4.759
 6202SOL     OW19492   4.327   3.350   4.205
 6202SOL    HW119493   4.373   3.301   4.137
 6202SOL    HW219494   4.257   3.396   4.159
 6203SOL     OW19495   3.976   3.207   4.006
 6203SOL    HW119496   3.882   3.205   3.989
 6203SOL    HW219497   3.984   3.244   4.094
 6204SOL     OW19498   3.837   2.886   5.444
 6204SOL    HW119499   3.760   2.863   5.496
 6204SOL    HW219500   3.911   2.847   5.490
 6205SOL     OW19501   4.399   2.057   5.224
 6205SOL    HW119502   4.483   2.038   5.183
 6205SOL    HW219503   4.422   2.090   5.311
 6206SOL     OW19504   3.803   2.199   3.757
 6206SOL    HW119505   3.725   2.177   3.705
 6206SOL    HW219506   3.841   2.275   3.713
 6207SOL     OW19507   5.163   2.722   5.127
 6207SOL    HW119508   5.111   2.779   5.071
 6207SOL    HW219509   5.252   2.728   5.093
 6208SOL     OW19510   3.789   2.019   4.034
 6208SOL    HW119511   3.773   2.099   3.984
 6208SOL    HW219512   3.874   1.988   4.004
 6209SOL     OW19513   4.906   3.190   3.838
 6209SOL    HW119514   4.812   3.172   3.839
 6209SOL    HW219515   4.930   3.197   3.930
 6210SOL     OW19516   4.343   2.693   5.158
 6210SOL    HW119517   4.400   2.769   5.143
 6210SOL    HW219518   4.404   2.619   5.166
 6211SOL     OW19519   4.442   2.424   5.427
 6211SOL    HW119520   4.483   2.486   5.488
 6211SOL    HW219521   4.466   2.338   5.460
 6212SOL     OW19522   5.181   3.065   5.356
 6212SOL    HW119523   5.172   3.078   5.450
 6212SOL    HW219524   5.275   3.073   5.339
 6213SOL     OW19525   4.102   3.602   5.289
 6213SOL    HW119526   4.017   3.644   5.275
 6213SOL    HW219527   4.080   3.518   5.330
 6214SOL     OW19528   4.939   2.182   4.179
 6214SOL    HW119529   5.000   2.110   4.167
 6214SOL    HW219530   4.969   2.226   4.259
 6215SOL     OW19531   4.314   2.598   4.393
 6215SOL    HW119532   4.353   2.685   4.380
 6215SOL    HW219533   4.246   2.592   4.326
 6216SOL     OW19534   4.591   3.228   3.761
 6216SOL    HW119535   4.550   3.258   3.842
 6216SOL    HW219536   4.606   3.307   3.710
 6217SOL     OW19537   4.385   3.652   4.667
 6217SOL    HW119538   4.366   3.743   4.645
 6217SOL    HW219539   4.480   3.646   4.661
 6218SOL     OW19540   4.592   2.830   4.579
 6218SOL    HW119541   4.642   2.758   4.618
 6218SOL    HW219542   4.556   2.878   4.654
 6219SOL     OW19543   4.806   2.849   3.814
 6219SOL    HW119544   4.782   2.899   3.736
 6219SOL    HW219545   4.881   2.796   3.787
 6220SOL     OW19546   3.949   3.164   5.579
 6220SOL    HW119547   3.883   3.102   5.549
 6220SOL    HW219548   3.930   3.176   5.672
 6221SOL     OW19549   3.827   3.103   4.394
 6221SOL    HW119550   3.808   3.047   4.470
 6221SOL    HW219551   3.887   3.051   4.341
 6222SOL     OW19552   4.406   3.264   5.353
 6222SOL    HW119553   4.325   3.223   5.384
 6222SOL    HW219554   4.402   3.353   5.389
 6223SOL     OW19555   4.152   2.296   4.248
 6223SOL    HW119556   4.184   2.226   4.192
 6223SOL    HW219557   4.106   2.252   4.320
 6224SOL     OW19558   0.094   3.382   4.824
 6224SOL    HW119559   0.027   3.360   4.760
 6224SOL    HW219560   0.098   3.306   4.882
 6225SOL     OW19561   4.056   2.418   5.017
 6225SOL    HW119562   4.111   2.363   5.072
 6225SOL    HW219563   4.074   2.389   4.927
 6226SOL     OW19564   4.553   3.439   4.401
 6226SOL    HW119565   4.539   3.495   4.324
 6226SOL    HW219566   4.476   3.382   4.403
 6227SOL     OW19567   5.146   2.081   4.839
 6227SOL    HW119568   5.192   2.017   4.893
 6227SOL    HW219569   5.100   2.136   4.902
 6228SOL     OW19570   4.729   1.880   4.865
 6228SOL    HW119571   4.676   1.812   4.824
 6228SOL    HW219572   4.817   1.842   4.870
 6229SOL     OW19573   4.495   3.195   4.040
 6229SOL    HW119574   4.465   3.104   4.047
 6229SOL    HW219575   4.577   3.197   4.089
 6230SOL     OW19576   4.344   3.418   5.010
 6230SOL    HW119577   4.346   3.500   5.058
 6230SOL    HW219578   4.431   3.410   4.972
 6231SOL     OW19579   5.056   1.907   3.891
 6231SOL    HW119580   5.079   1.867   3.807
 6231SOL    HW219581   4.972   1.870   3.914
 6232SOL     OW19582   5.027   2.320   4.405
 6232SOL    HW119583   4.973   2.399   4.409
 6232SOL    HW219584   5.016   2.279   4.491
 6233SOL     OW19585   0.002   2.088   4.605
 6233SOL    HW119586   5.237   2.075   4.674
 6233SOL    HW219587   5.274   2.168   4.560
 6234SOL     OW19588   3.775   2.932   4.022
 6234SOL    HW119589   3.869   2.917   4.013
 6234SOL    HW219590   3.740   2.847   4.046
 6235SOL     OW19591   4.604   3.513   4.070
 6235SOL    HW119592   4.533   3.498   4.007
 6235SOL    HW219593   4.577   3.590   4.120
 6236SOL     OW19594   3.953   2.485   5.710
 6236SOL    HW119595   3.863   2.483   5.744
 6236SOL    HW219596   3.943   2.461   5.618
 6237SOL     OW19597   3.949   2.144   6.578
 6237SOL    HW119598   3.977   2.109   6.663
 6237SOL    HW219599   3.859   2.112   6.568
 6238SOL     OW19600   3.727   2.245   6.224
 6238SOL    HW119601   3.645   2.271   6.266
 6238SOL    HW219602   3.705   2.166   6.175
 6239SOL     OW19603   4.291   3.151   6.763
 6239SOL    HW119604   4.204   3.155   6.724
 6239SOL    HW219605   4.307   3.240   6.795
 6240SOL     OW19606   5.286   3.398   6.292
 6240SOL    HW119607   5.247   3.356   6.368
 6240SOL    HW219608   5.221   3.390   6.223
 6241SOL     OW19609   4.859   2.561   6.285
 6241SOL    HW119610   4.910   2.642   6.275
 6241SOL    HW219611   4.810   2.572   6.366
 6242SOL     OW19612   4.478   3.004   6.628
 6242SOL    HW119613   4.409   3.039   6.685
 6242SOL    HW219614   4.513   3.080   6.583
 6243SOL     OW19615   4.593   2.636   7.407
 6243SOL    HW119616   4.571   2.710   7.463
 6243SOL    HW219617   4.617   2.675   7.323
 6244SOL     OW19618   4.410   2.863   6.232
 6244SOL    HW119619   4.475   2.853   6.302
 6244SOL    HW219620   4.341   2.916   6.272
 6245SOL     OW19621   4.435   3.013   7.399
 6245SOL    HW119622   4.483   3.092   7.427
 6245SOL    HW219623   4.354   3.047   7.363
 6246SOL     OW19624   4.054   3.286   6.654
 6246SOL    HW119625   3.982   3.248   6.604
 6246SOL    HW219626   4.104   3.337   6.589
 6247SOL     OW19627   5.161   3.342   6.940
 6247SOL    HW119628   5.208   3.421   6.964
 6247SOL    HW219629   5.101   3.326   7.013
 6248SOL     OW19630   4.174   2.260   7.073
 6248SOL    HW119631   4.249   2.200   7.078
 6248SOL    HW219632   4.097   2.204   7.086
 6249SOL     OW19633   3.943   3.577   6.057
 6249SOL    HW119634   3.964   3.653   6.111
 6249SOL    HW219635   4.017   3.568   5.997
 6250SOL     OW19636   4.859   3.202   7.278
 6250SOL    HW119637   4.899   3.199   7.365
 6250SOL    HW219638   4.807   3.121   7.272
 6251SOL     OW19639   3.954   3.304   6.121
 6251SOL    HW119640   3.937   3.398   6.124
 6251SOL    HW219641   3.894   3.266   6.186
 6252SOL     OW19642   3.983   2.952   6.478
 6252SOL    HW119643   3.979   2.865   6.517
 6252SOL    HW219644   3.925   3.006   6.531
 6253SOL     OW19645   4.331   3.655   7.011
 6253SOL    HW119646   4.251   3.636   7.060
 6253SOL    HW219647   4.356   3.743   7.039
 6254SOL     OW19648   4.309   2.844   5.721
 6254SOL    HW119649   4.355   2.893   5.653
 6254SOL    HW219650   4.348   2.875   5.803
 6255SOL     OW19651   3.840   2.515   6.146
 6255SOL    HW119652   3.810   2.427   6.166
 6255SOL    HW219653   3.831   2.563   6.228
 6256SOL     OW19654   3.756   3.456   5.709
 6256SOL    HW119655   3.739   3.364   5.730
 6256SOL    HW219656   3.733   3.503   5.789
 6257SOL     OW19657   0.112   2.802   6.162
 6257SOL    HW119658   0.199   2.764   6.174
 6257SOL    HW219659   0.128   2.888   6.123
 6258SOL     OW19660   3.847   2.604   7.172
 6258SOL    HW119661   3.938   2.632   7.178
 6258SOL    HW219662   3.797   2.686   7.179
 6259SOL     OW19663   4.338   3.248   6.321
 6259SOL    HW119664   4.292   3.165   6.330
 6259SOL    HW219665   4.321   3.275   6.231
 6260SOL     OW19666   5.005   3.097   7.010
 6260SOL    HW119667   5.039   3.031   6.950
 6260SOL    HW219668   5.061   3.091   7.087
 6261SOL     OW19669   4.539   1.863   6.096
 6261SOL    HW119670   4.580   1.947   6.075
 6261SOL    HW219671   4.446   1.882   6.104
 6262SOL     OW19672   3.914   2.827   6.859
 6262SOL    HW119673   3.999   2.785   6.843
 6262SOL    HW219674   3.851   2.773   6.810
 6263SOL     OW19675   4.896   3.670   7.209
 6263SOL    HW119676   4.916   3.729   7.137
 6263SOL    HW219677   4.920   3.583   7.177
 6264SOL     OW19678   4.058   2.110   7.402
 6264SOL    HW119679   4.101   2.195   7.414
 6264SOL    HW219680   3.968   2.125   7.430
 6265SOL     OW19681   5.167   3.298   6.521
 6265SOL    HW119682   5.106   3.305   6.594
 6265SOL    HW219683   5.161   3.207   6.492
 6266SOL     OW19684   4.320   2.583   5.853
 6266SOL    HW119685   4.324   2.664   5.803
 6266SOL    HW219686   4.254   2.599   5.921
 6267SOL     OW19687   4.995   2.199   6.505
 6267SOL    HW119688   4.907   2.170   6.526
 6267SOL    HW219689   5.050   2.164   6.575
 6268SOL     OW19690   4.514   2.480   7.037
 6268SOL    HW119691   4.489   2.455   7.125
 6268SOL    HW219692   4.476   2.412   6.981
 6269SOL     OW19693   5.115   2.344   7.267
 6269SOL    HW119694   5.117   2.380   7.355
 6269SOL    HW219695   5.191   2.287   7.262
 6270SOL     OW19696   4.677   2.750   7.169
 6270SOL    HW119697   4.730   2.679   7.132
 6270SOL    HW219698   4.629   2.785   7.094
 6271SOL     OW19699   4.715   2.275   6.823
 6271SOL    HW119700   4.628   2.294   6.858
 6271SOL    HW219701   4.698   2.228   6.742
 6272SOL     OW19702   4.775   2.560   6.011
 6272SOL    HW119703   4.791   2.554   6.105
 6272SOL    HW219704   4.692   2.514   5.998
 6273SOL     OW19705   3.812   2.683   6.363
 6273SOL    HW119706   3.893   2.676   6.413
 6273SOL    HW219707   3.769   2.761   6.397
 6274SOL     OW19708   3.850   3.715   7.166
 6274SOL    HW119709   3.851   3.693   7.259
 6274SOL    HW219710   3.760   3.698   7.138
 6275SOL     OW19711   4.619   2.210   5.781
 6275SOL    HW119712   4.658   2.271   5.718
 6275SOL    HW219713   4.632   2.124   5.741
 6276SOL     OW19714   5.093   3.010   6.135
 6276SOL    HW119715   5.181   3.012   6.097
 6276SOL    HW219716   5.042   3.068   6.079
 6277SOL     OW19717   4.275   2.042   6.480
 6277SOL    HW119718   4.276   2.072   6.571
 6277SOL    HW219719   4.275   2.123   6.428
 6278SOL     OW19720   4.729   3.305   6.058
 6278SOL    HW119721   4.692   3.378   6.008
 6278SOL    HW219722   4.710   3.326   6.149
 6279SOL     OW19723   4.078   3.672   6.450
 6279SOL    HW119724   4.122   3.587   6.457
 6279SOL    HW219725   4.147   3.736   6.468
 6280SOL     OW19726   4.940   3.403   7.104
 6280SOL    HW119727   4.927   3.331   7.165
 6280SOL    HW219728   4.879   3.385   7.032
 6281SOL     OW19729   4.043   2.820   5.837
 6281SOL    HW119730   4.125   2.839   5.791
 6281SOL    HW219731   4.012   2.738   5.798
 6282SOL     OW19732   4.190   3.125   7.323
 6282SOL    HW119733   4.163   3.131   7.232
 6282SOL    HW219734   4.108   3.124   7.372
 6283SOL     OW19735   4.831   3.637   5.823
 6283SOL    HW119736   4.759   3.592   5.867
 6283SOL    HW219737   4.857   3.577   5.752
 6284SOL     OW19738   3.925   2.142   7.088
 6284SOL    HW119739   3.843   2.191   7.082
 6284SOL    HW219740   3.905   2.068   7.145
 6285SOL     OW19741   4.189   3.598   5.907
 6285SOL    HW119742   4.232   3.656   5.970
 6285SOL    HW219743   4.260   3.567   5.851
 6286SOL     OW19744   5.119   1.969   6.010
 6286SOL    HW119745   5.100   1.951   5.918
 6286SOL    HW219746   5.214   1.985   6.012
 6287SOL     OW19747   3.979   3.653   6.817
 6287SOL    HW119748   4.031   3.587   6.863
 6287SOL    HW219749   3.971   3.620   6.728
 6288SOL     OW19750   4.662   3.560   6.484
 6288SOL    HW119751   4.742   3.511   6.502
 6288SOL    HW219752   4.618   3.511   6.415
 6289SOL     OW19753   4.118   2.557   6.062
 6289SOL    HW119754   4.138   2.464   6.074
 6289SOL    HW219755   4.024   2.564   6.078
 6290SOL     OW19756   4.362   1.984   5.690
 6290SOL    HW119757   4.429   1.917   5.703
 6290SOL    HW219758   4.311   1.953   5.615
 6291SOL     OW19759   4.488   2.140   7.341
 6291SOL    HW119760   4.566   2.084   7.340
 6291SOL    HW219761   4.445   2.120   7.424
 6292SOL     OW19762   4.599   3.384   6.780
 6292SOL    HW119763   4.584   3.348   6.692
 6292SOL    HW219764   4.670   3.330   6.816
 6293SOL     OW19765   5.057   2.454   7.018
 6293SOL    HW119766   5.089   2.422   7.103
 6293SOL    HW219767   5.100   2.539   7.006
 6294SOL     OW19768   4.539   3.256   6.527
 6294SOL    HW119769   4.623   3.244   6.483
 6294SOL    HW219770   4.475   3.258   6.455
 6295SOL     OW19771   4.652   2.371   6.488
 6295SOL    HW119772   4.628   2.362   6.396
 6295SOL    HW219773   4.682   2.284   6.514
 6296SOL     OW19774   4.273   1.925   6.087
 6296SOL    HW119775   4.193   1.925   6.139
 6296SOL    HW219776   4.267   2.003   6.032
 6297SOL     OW19777   5.135   3.043   5.630
 6297SOL    HW119778   5.142   2.964   5.683
 6297SOL    HW219779   5.048   3.077   5.650
 6298SOL     OW19780   4.015   1.910   5.771
 6298SOL    HW119781   4.073   1.974   5.730
 6298SOL    HW219782   4.074   1.847   5.813
 6299SOL     OW19783   4.662   2.109   6.045
 6299SOL    HW119784   4.636   2.149   5.962
 6299SOL    HW219785   4.757   2.122   6.049
 6300SOL     OW19786   4.801   2.544   7.046
 6300SOL    HW119787   4.734   2.475   7.048
 6300SOL    HW219788   4.884   2.496   7.037
 6301SOL     OW19789   4.940   3.433   6.380
 6301SOL    HW119790   4.961   3.500   6.315
 6301SOL    HW219791   5.021   3.420   6.429
 6302SOL     OW19792   4.194   3.012   6.318
 6302SOL    HW119793   4.125   2.992   6.382
 6302SOL    HW219794   4.153   2.996   6.233
 6303SOL     OW19795   4.995   3.656   6.192
 6303SOL    HW119796   5.037   3.717   6.131
 6303SOL    HW219797   4.928   3.708   6.236
 6304SOL     OW19798   4.748   2.404   5.609
 6304SOL    HW119799   4.703   2.486   5.589
 6304SOL    HW219800   4.808   2.426   5.679
 6305SOL     OW19801   3.804   2.417   6.978
 6305SOL    HW119802   3.896   2.416   6.951
 6305SOL    HW219803   3.799   2.486   7.043
 6306SOL     OW19804   4.283   2.089   6.753
 6306SOL    HW119805   4.325   2.013   6.794
 6306SOL    HW219806   4.192   2.085   6.782
 6307SOL     OW19807   4.592   2.321   6.225
 6307SOL    HW119808   4.545   2.376   6.162
 6307SOL    HW219809   4.613   2.241   6.177
 6308SOL     OW19810   4.739   1.915   6.337
 6308SOL    HW119811   4.681   1.909   6.261
 6308SOL    HW219812   4.717   1.840   6.391
 6309SOL     OW19813   5.156   3.038   6.437
 6309SOL    HW119814   5.101   2.961   6.451
 6309SOL    HW219815   5.168   3.043   6.342
 6310SOL     OW19816   4.214   3.281   5.741
 6310SOL    HW119817   4.139   3.252   5.793
 6310SOL    HW219818   4.202   3.239   5.656
 6311SOL     OW19819   5.128   2.423   5.667
 6311SOL    HW119820   5.054   2.414   5.727
 6311SOL    HW219821   5.202   2.386   5.714
 6312SOL     OW19822   4.250   2.125   5.903
 6312SOL    HW119823   4.295   2.078   5.833
 6312SOL    HW219824   4.226   2.209   5.864
 6313SOL     OW19825   4.779   3.216   6.919
 6313SOL    HW119826   4.704   3.185   6.970
 6313SOL    HW219827   4.855   3.174   6.960
 6314SOL     OW19828   0.007   3.468   7.201
 6314SOL    HW119829   0.041   3.471   7.112
 6314SOL    HW219830   0.083   3.447   7.255
 6315SOL     OW19831   4.854   3.066   6.692
 6315SOL    HW119832   4.792   3.101   6.756
 6315SOL    HW219833   4.821   3.096   6.607
 6316SOL     OW19834   4.642   1.959   6.982
 6316SOL    HW119835   4.664   1.941   6.890
 6316SOL    HW219836   4.721   1.998   7.018
 6317SOL     OW19837   4.709   2.973   7.314
 6317SOL    HW119838   4.617   2.993   7.332
 6317SOL    HW219839   4.706   2.897   7.256
 6318SOL     OW19840   4.433   2.924   5.957
 6318SOL    HW119841   4.419   2.906   6.050
 6318SOL    HW219842   4.509   2.870   5.934
 6319SOL     OW19843   4.143   2.677   6.837
 6319SOL    HW119844   4.211   2.687   6.904
 6319SOL    HW219845   4.108   2.589   6.851
 6320SOL     OW19846   4.988   2.237   6.863
 6320SOL    HW119847   5.023   2.316   6.904
 6320SOL    HW219848   4.898   2.260   6.839
 6321SOL     OW19849   3.795   3.435   6.940
 6321SOL    HW119850   3.766   3.508   6.885
 6321SOL    HW219851   3.891   3.437   6.934
 6322SOL     OW19852   4.071   2.972   6.076
 6322SOL    HW119853   4.076   3.046   6.015
 6322SOL    HW219854   4.069   2.895   6.020
 6323SOL     OW19855   4.276   2.398   6.446
 6323SOL    HW119856   4.291   2.456   6.371
 6323SOL    HW219857   4.341   2.424   6.510
 6324SOL     OW19858   4.972   3.211   5.973
 6324SOL    HW119859   5.026   3.284   6.003
 6324SOL    HW219860   4.884   3.231   6.007
 6325SOL     OW19861   4.996   3.319   6.726
 6325SOL    HW119862   5.050   3.320   6.805
 6325SOL    HW219863   4.941   3.241   6.736
 6326SOL     OW19864   4.070   3.390   6.900
 6326SOL    HW119865   4.058   3.347   6.816
 6326SOL    HW219866   4.165   3.402   6.908
 6327SOL     OW19867   4.139   2.607   7.188
 6327SOL    HW119868   4.201   2.651   7.130
 6327SOL    HW219869   4.176   2.521   7.203
 6328SOL     OW19870   4.718   1.989   7.340
 6328SOL    HW119871   4.776   2.060   7.315
 6328SOL    HW219872   4.765   1.909   7.316
 6329SOL     OW19873   4.222   1.901   7.334
 6329SOL    HW119874   4.178   1.847   7.268
 6329SOL    HW219875   4.164   1.976   7.347
 6330SOL     OW19876   4.308   2.735   6.618
 6330SOL    HW119877   4.338   2.826   6.617
 6330SOL    HW219878   4.251   2.729   6.694
 6331SOL     OW19879   5.086   2.718   6.622
 6331SOL    HW119880   5.009   2.699   6.569
 6331SOL    HW219881   5.140   2.639   6.616
 6332SOL     OW19882   4.927   2.393   5.850
 6332SOL    HW119883   4.934   2.313   5.902
 6332SOL    HW219884   4.883   2.456   5.907
 6333SOL     OW19885   4.022   2.060   6.833
 6333SOL    HW119886   3.985   2.093   6.915
 6333SOL    HW219887   4.003   1.966   6.833
 6334SOL     OW19888   3.771   3.173   6.862
 6334SOL    HW119889   3.803   3.118   6.933
 6334SOL    HW219890   3.777   3.262   6.896
 6335SOL     OW19891   4.447   2.493   6.643
 6335SOL    HW119892   4.522   2.477   6.586
 6335SOL    HW219893   4.419   2.582   6.622
 6336SOL     OW19894   4.028   1.926   6.209
 6336SOL    HW119895   4.007   2.017   6.232
 6336SOL    HW219896   4.035   1.881   6.294
 6337SOL     OW19897   0.034   2.258   5.944
 6337SOL    HW119898   0.052   2.182   6.000
 6337SOL    HW219899   0.020   2.330   6.006
 6338SOL     OW19900   4.751   2.621   6.545
 6338SOL    HW119901   4.749   2.638   6.639
 6338SOL    HW219902   4.725   2.529   6.537
 6339SOL     OW19903   4.698   3.423   7.300
 6339SOL    HW119904   4.687   3.471   7.218
 6339SOL    HW219905   4.745   3.344   7.276
 6340SOL     OW19906   4.077   2.776   7.397
 6340SOL    HW119907   4.161   2.797   7.439
 6340SOL    HW219908   4.100   2.714   7.327
 6341SOL     OW19909   5.028   2.691   5.623
 6341SOL    HW119910   5.065   2.602   5.625
 6341SOL    HW219911   5.055   2.726   5.538
 6342SOL     OW19912   4.789   3.196   6.442
 6342SOL    HW119913   4.794   3.125   6.379
 6342SOL    HW219914   4.847   3.264   6.405
 6343SOL     OW19915   4.032   2.671   6.533
 6343SOL    HW119916   4.126   2.692   6.526
 6343SOL    HW219917   4.030   2.581   6.565
 6344SOL     OW19918   4.055   2.389   6.599
 6344SOL    HW119919   4.019   2.301   6.584
 6344SOL    HW219920   4.131   2.394   6.541
 6345SOL     OW19921   4.857   2.238   7.266
 6345SOL    HW119922   4.809   2.293   7.328
 6345SOL    HW219923   4.944   2.277   7.262
 6346SOL     OW19924   4.885   2.063   7.055
 6346SOL    HW119925   4.873   2.125   7.127
 6346SOL    HW219926   4.924   2.115   6.984
 6347SOL     OW19927   3.729   3.183   5.781
 6347SOL    HW119928   3.643   3.197   5.744
 6347SOL    HW219929   3.726   3.093   5.815
 6348SOL     OW19930   3.814   3.648   6.524
 6348SOL    HW119931   3.784   3.569   6.480
 6348SOL    HW219932   3.904   3.661   6.494
 6349SOL     OW19933   4.220   3.436   6.491
 6349SOL    HW119934   4.288   3.498   6.515
 6349SOL    HW219935   4.264   3.373   6.435
 6350SOL     OW19936   4.705   2.654   6.812
 6350SOL    HW119937   4.761   2.631   6.886
 6350SOL    HW219938   4.620   2.616   6.834
 6351SOL     OW19939   3.759   2.406   6.703
 6351SOL    HW119940   3.840   2.394   6.653
 6351SOL    HW219941   3.788   2.410   6.794
 6352SOL     OW19942   3.917   2.382   7.314
 6352SOL    HW119943   3.970   2.340   7.246
 6352SOL    HW219944   3.875   2.456   7.270
 6353SOL     OW19945   5.112   2.798   7.253
 6353SOL    HW119946   5.120   2.893   7.241
 6353SOL    HW219947   5.116   2.762   7.164
 6354SOL     OW19948   4.541   2.432   5.946
 6354SOL    HW119949   4.544   2.357   5.887
 6354SOL    HW219950   4.466   2.484   5.915
 6355SOL     OW19951   3.965   3.413   7.313
 6355SOL    HW119952   3.944   3.477   7.380
 6355SOL    HW219953   3.969   3.330   7.360
 6356SOL     OW19954   4.427   2.311   6.844
 6356SOL    HW119955   4.373   2.238   6.815
 6356SOL    HW219956   4.422   2.375   6.772
 6357SOL     OW19957   4.644   3.542   7.055
 6357SOL    HW119958   4.622   3.509   6.967
 6357SOL    HW219959   4.644   3.637   7.045
 6358SOL     OW19960   4.188   2.354   5.773
 6358SOL    HW119961   4.246   2.427   5.795
 6358SOL    HW219962   4.102   2.395   5.760
 6359SOL     OW19963   3.869   3.003   7.059
 6359SOL    HW119964   3.871   2.952   7.140
 6359SOL    HW219965   3.886   2.939   6.990
 6360SOL     OW19966   5.053   2.910   6.810
 6360SOL    HW119967   5.074   2.845   6.743
 6360SOL    HW219968   4.982   2.962   6.771
 6361SOL     OW19969   5.035   2.722   5.902
 6361SOL    HW119970   4.954   2.689   5.940
 6361SOL    HW219971   5.024   2.713   5.808
 6362SOL     OW19972   4.959   3.593   6.706
 6362SOL    HW119973   5.045   3.615   6.670
 6362SOL    HW219974   4.961   3.498   6.717
 6363SOL     OW19975   3.808   3.129   6.597
 6363SOL    HW119976   3.794   3.142   6.691
 6363SOL    HW219977   3.736   3.074   6.569
 6364SOL     OW19978   4.400   3.527   7.315
 6364SOL    HW119979   4.349   3.607   7.310
 6364SOL    HW219980   4.471   3.539   7.252
 6365SOL     OW19981   0.078   2.024   6.118
 6365SOL    HW119982   0.161   2.008   6.072
 6365SOL    HW219983   0.065   1.945   6.170
 6366SOL     OW19984   5.111   3.432   6.068
 6366SOL    HW119985   5.181   3.474   6.017
 6366SOL    HW219986   5.060   3.505   6.103
 6367SOL     OW19987   3.861   3.658   7.430
 6367SOL    HW119988   3.810   3.593   7.479
 6367SOL    HW219989   3.909   3.706   7.497
 6368SOL     OW19990   5.017   2.782   6.257
 6368SOL    HW119991   5.095   2.728   6.245
 6368SOL    HW219992   5.035   2.862   6.209
 6369SOL     OW19993   4.536   3.136   7.015
 6369SOL    HW119994   4.508   3.175   7.098
 6369SOL    HW219995   4.467   3.158   6.953
 6370SOL     OW19996   4.394   3.483   5.741
 6370SOL    HW119997   4.406   3.496   5.647
 6370SOL    HW219998   4.339   3.405   5.748
 6371SOL     OW19999   3.985   2.177   6.302
 6371SOL    HW120000   3.899   2.213   6.278
 6371SOL    HW220001   3.982   2.170   6.398
 6372SOL     OW20002   4.908   3.471   5.628
 6372SOL    HW120003   4.919   3.376   5.639
 6372SOL    HW220004   4.853   3.479   5.550
 6373SOL     OW20005   4.548   2.868   6.959
 6373SOL    HW120006   4.591   2.863   6.874
 6373SOL    HW220007   4.546   2.961   6.980
 6374SOL     OW20008   4.641   2.773   5.876
 6374SOL    HW120009   4.702   2.805   5.810
 6374SOL    HW220010   4.688   2.703   5.921
 6375SOL     OW20011   4.092   3.165   7.078
 6375SOL    HW120012   4.079   3.242   7.022
 6375SOL    HW220013   4.016   3.110   7.062
 6376SOL     OW20014   4.777   2.969   6.293
 6376SOL    HW120015   4.706   2.919   6.333
 6376SOL    HW220016   4.836   2.903   6.256
 6377SOL     OW20017   4.739   2.101   6.554
 6377SOL    HW120018   4.737   2.054   6.471
 6377SOL    HW220019   4.735   2.032   6.621
 6378SOL     OW20020   4.327   3.350   6.067
 6378SOL    HW120021   4.373   3.300   6.000
 6378SOL    HW220022   4.257   3.395   6.021
 6379SOL     OW20023   3.984   3.206   5.875
 6379SOL    HW120024   3.891   3.204   5.852
 6379SOL    HW220025   3.986   3.243   5.963
 6380SOL     OW20026   3.838   2.886   7.306
 6380SOL    HW120027   3.761   2.862   7.358
 6380SOL    HW220028   3.911   2.846   7.353
 6381SOL     OW20029   4.398   2.058   7.086
 6381SOL    HW120030   4.483   2.038   7.045
 6381SOL    HW220031   4.421   2.089   7.173
 6382SOL     OW20032   3.803   2.194   5.620
 6382SOL    HW120033   3.716   2.176   5.585
 6382SOL    HW220034   3.833   2.270   5.570
 6383SOL     OW20035   5.163   2.722   6.990
 6383SOL    HW120036   5.111   2.779   6.933
 6383SOL    HW220037   5.252   2.729   6.956
 6384SOL     OW20038   3.791   2.018   5.895
 6384SOL    HW120039   3.777   2.098   5.844
 6384SOL    HW220040   3.876   1.985   5.865
 6385SOL     OW20041   4.906   3.190   5.700
 6385SOL    HW120042   4.812   3.172   5.701
 6385SOL    HW220043   4.930   3.197   5.792
 6386SOL     OW20044   4.343   2.693   7.020
 6386SOL    HW120045   4.400   2.768   7.004
 6386SOL    HW220046   4.403   2.619   7.028
 6387SOL     OW20047   4.442   2.424   7.290
 6387SOL    HW120048   4.483   2.485   7.351
 6387SOL    HW220049   4.466   2.337   7.322
 6388SOL     OW20050   5.181   3.065   7.217
 6388SOL    HW120051   5.171   3.077   7.311
 6388SOL    HW220052   5.275   3.074   7.201
 6389SOL     OW20053   4.102   3.602   7.151
 6389SOL    HW120054   4.017   3.644   7.137
 6389SOL    HW220055   4.080   3.518   7.192
 6390SOL     OW20056   4.939   2.182   6.041
 6390SOL    HW120057   5.001   2.110   6.029
 6390SOL    HW220058   4.969   2.226   6.121
 6391SOL     OW20059   4.314   2.599   6.256
 6391SOL    HW120060   4.353   2.685   6.241
 6391SOL    HW220061   4.246   2.591   6.189
 6392SOL     OW20062   4.591   3.228   5.623
 6392SOL    HW120063   4.550   3.258   5.703
 6392SOL    HW220064   4.606   3.308   5.572
 6393SOL     OW20065   4.384   3.652   6.529
 6393SOL    HW120066   4.365   3.743   6.507
 6393SOL    HW220067   4.480   3.645   6.523
 6394SOL     OW20068   4.592   2.830   6.441
 6394SOL    HW120069   4.642   2.758   6.480
 6394SOL    HW220070   4.556   2.878   6.516
 6395SOL     OW20071   4.807   2.849   5.676
 6395SOL    HW120072   4.782   2.899   5.598
 6395SOL    HW220073   4.881   2.796   5.649
 6396SOL     OW20074   3.949   3.164   7.442
 6396SOL    HW120075   3.883   3.103   7.410
 6396SOL    HW220076   3.927   3.178   7.534
 6397SOL     OW20077   3.807   3.095   6.251
 6397SOL    HW120078   3.813   3.047   6.334
 6397SOL    HW220079   3.875   3.056   6.196
 6398SOL     OW20080   4.405   3.264   7.215
 6398SOL    HW120081   4.325   3.223   7.246
 6398SOL    HW220082   4.402   3.353   7.250
 6399SOL     OW20083   4.154   2.296   6.112
 6399SOL    HW120084   4.183   2.225   6.055
 6399SOL    HW220085   4.105   2.252   6.181
 6400SOL     OW20086   0.094   3.382   6.686
 6400SOL    HW120087   0.027   3.360   6.622
 6400SOL    HW220088   0.098   3.306   6.744
 6401SOL     OW20089   4.056   2.418   6.878
 6401SOL    HW120090   4.111   2.362   6.933
 6401SOL    HW220091   4.074   2.390   6.789
 6402SOL     OW20092   4.552   3.439   6.263
 6402SOL    HW120093   4.539   3.495   6.186
 6402SOL    HW220094   4.476   3.382   6.264
 6403SOL     OW20095   5.146   2.081   6.701
 6403SOL    HW120096   5.191   2.016   6.755
 6403SOL    HW220097   5.100   2.136   6.764
 6404SOL     OW20098   4.729   1.880   6.727
 6404SOL    HW120099   4.676   1.812   6.686
 6404SOL    HW220100   4.817   1.842   6.732
 6405SOL     OW20101   4.495   3.195   5.903
 6405SOL    HW120102   4.465   3.104   5.909
 6405SOL    HW220103   4.577   3.196   5.951
 6406SOL     OW20104   4.344   3.418   6.871
 6406SOL    HW120105   4.345   3.500   6.920
 6406SOL    HW220106   4.431   3.410   6.834
 6407SOL     OW20107   5.057   1.907   5.753
 6407SOL    HW120108   5.079   1.867   5.669
 6407SOL    HW220109   4.972   1.870   5.776
 6408SOL     OW20110   5.027   2.320   6.267
 6408SOL    HW120111   4.973   2.399   6.271
 6408SOL    HW220112   5.016   2.279   6.353
 6409SOL     OW20113   0.002   2.088   6.467
 6409SOL    HW120114   5.237   2.075   6.536
 6409SOL    HW220115   5.274   2.167   6.422
 6410SOL     OW20116   3.767   2.932   5.894
 6410SOL    HW120117   3.861   2.924   5.875
 6410SOL    HW220118   3.739   2.843   5.915
 6411SOL     OW20119   4.604   3.513   5.932
 6411SOL    HW120120   4.533   3.498   5.869
 6411SOL    HW220121   4.577   3.590   5.982
 6412SOL     OW20122   3.952   2.481   7.573
 6412SOL    HW120123   3.862   2.489   7.603
 6412SOL    HW220124   3.944   2.459   7.480
 6413SOL     OW20125   3.945   3.578   7.919
 6413SOL    HW120126   3.973   3.620   8.001
 6413SOL    HW220127   4.024   3.578   7.864
 6414SOL     OW20128   3.940   3.300   7.992
 6414SOL    HW120129   3.927   3.395   7.989
 6414SOL    HW220130   3.880   3.270   8.060
 6415SOL     OW20131   4.310   2.844   7.579
 6415SOL    HW120132   4.354   2.894   7.511
 6415SOL    HW220133   4.348   2.876   7.661
 6416SOL     OW20134   3.755   3.461   7.578
 6416SOL    HW120135   3.739   3.368   7.593
 6416SOL    HW220136   3.728   3.503   7.659
 6417SOL     OW20137   0.116   2.790   8.014
 6417SOL    HW120138   0.210   2.780   8.033
 6417SOL    HW220139   0.104   2.884   8.001
 6418SOL     OW20140   4.525   1.857   7.938
 6418SOL    HW120141   4.575   1.937   7.921
 6418SOL    HW220142   4.434   1.886   7.946
 6419SOL     OW20143   4.315   2.587   7.709
 6419SOL    HW120144   4.316   2.669   7.660
 6419SOL    HW220145   4.254   2.603   7.781
 6420SOL     OW20146   3.783   2.725   0.088
 6420SOL    HW120147   3.848   2.660   0.115
 6420SOL    HW220148   3.782   2.788   0.160
 6421SOL     OW20149   4.609   2.208   7.640
 6421SOL    HW120150   4.651   2.267   7.576
 6421SOL    HW220151   4.639   2.121   7.615
 6422SOL     OW20152   4.047   2.818   7.698
 6422SOL    HW120153   4.126   2.836   7.647
 6422SOL    HW220154   4.009   2.740   7.657
 6423SOL     OW20155   4.836   3.638   7.685
 6423SOL    HW120156   4.762   3.595   7.728
 6423SOL    HW220157   4.861   3.578   7.614
 6424SOL     OW20158   4.190   3.600   7.770
 6424SOL    HW120159   4.240   3.653   7.833
 6424SOL    HW220160   4.257   3.564   7.712
 6425SOL     OW20161   5.132   1.988   7.855
 6425SOL    HW120162   5.096   1.964   7.770
 6425SOL    HW220163   5.227   1.989   7.841
 6426SOL     OW20164   4.116   2.560   7.917
 6426SOL    HW120165   4.117   2.465   7.927
 6426SOL    HW220166   4.025   2.585   7.930
 6427SOL     OW20167   4.355   1.981   7.558
 6427SOL    HW120168   4.428   1.920   7.570
 6427SOL    HW220169   4.310   1.951   7.480
 6428SOL     OW20170   4.256   1.937   7.959
 6428SOL    HW120171   4.171   1.941   8.002
 6428SOL    HW220172   4.254   2.008   7.895
 6429SOL     OW20173   5.135   3.042   7.489
 6429SOL    HW120174   5.150   2.971   7.551
 6429SOL    HW220175   5.049   3.076   7.511
 6430SOL     OW20176   4.016   1.911   7.633
 6430SOL    HW120177   4.074   1.972   7.587
 6430SOL    HW220178   4.075   1.847   7.672
 6431SOL     OW20179   4.667   2.089   7.909
 6431SOL    HW120180   4.624   2.151   7.851
 6431SOL    HW220181   4.758   2.116   7.913
 6432SOL     OW20182   4.161   3.008   0.100
 6432SOL    HW120183   4.089   3.054   0.144
 6432SOL    HW220184   4.132   2.998   0.010
 6433SOL     OW20185   5.009   3.667   8.012
 6433SOL    HW120186   5.049   3.732   7.954
 6433SOL    HW220187   4.936   3.712   8.054
 6434SOL     OW20188   4.750   2.405   7.467
 6434SOL    HW120189   4.703   2.486   7.450
 6434SOL    HW220190   4.804   2.424   7.544
 6435SOL     OW20191   4.211   3.279   7.603
 6435SOL    HW120192   4.137   3.250   7.657
 6435SOL    HW220193   4.197   3.237   7.518
 6436SOL     OW20194   5.128   2.422   7.531
 6436SOL    HW120195   5.053   2.413   7.588
 6436SOL    HW220196   5.201   2.383   7.580
 6437SOL     OW20197   4.249   2.128   7.770
 6437SOL    HW120198   4.294   2.078   7.701
 6437SOL    HW220199   4.226   2.211   7.728
 6438SOL     OW20200   4.437   2.924   7.811
 6438SOL    HW120201   4.410   2.911   7.901
 6438SOL    HW220202   4.516   2.871   7.801
 6439SOL     OW20203   4.088   2.967   7.926
 6439SOL    HW120204   4.069   3.046   7.875
 6439SOL    HW220205   4.075   2.895   7.864
 6440SOL     OW20206   4.957   3.221   7.818
 6440SOL    HW120207   5.015   3.292   7.845
 6440SOL    HW220208   4.906   3.201   7.896
 6441SOL     OW20209   0.039   2.512   7.924
 6441SOL    HW120210   5.280   2.523   7.999
 6441SOL    HW220211   0.037   2.596   7.879
 6442SOL     OW20212   4.925   2.391   7.712
 6442SOL    HW120213   4.929   2.307   7.758
 6442SOL    HW220214   4.896   2.454   7.778
 6443SOL     OW20215   0.023   2.267   7.804
 6443SOL    HW120216   0.035   2.199   7.870
 6443SOL    HW220217   0.024   2.349   7.854
 6444SOL     OW20218   5.035   2.694   7.491
 6444SOL    HW120219   5.066   2.603   7.488
 6444SOL    HW220220   5.058   2.730   7.405
 6445SOL     OW20221   3.730   3.186   7.639
 6445SOL    HW120222   3.643   3.199   7.602
 6445SOL    HW220223   3.729   3.096   7.673
 6446SOL     OW20224   4.566   2.467   7.756
 6446SOL    HW120225   4.559   2.374   7.733
 6446SOL    HW220226   4.476   2.499   7.759
 6447SOL     OW20227   4.185   2.355   7.642
 6447SOL    HW120228   4.244   2.429   7.657
 6447SOL    HW220229   4.100   2.396   7.623
 6448SOL     OW20230   5.031   2.710   7.774
 6448SOL    HW120231   4.939   2.728   7.790
 6448SOL    HW220232   5.039   2.707   7.679
 6449SOL     OW20233   0.183   2.004   7.991
 6449SOL    HW120234   0.156   1.989   7.900
 6449SOL    HW220235   0.138   1.937   8.041
 6450SOL     OW20236   5.104   3.435   7.906
 6450SOL    HW120237   5.199   3.443   7.913
 6450SOL    HW220238   5.070   3.517   7.943
 6451SOL     OW20239   4.389   3.483   7.603
 6451SOL    HW120240   4.403   3.494   7.509
 6451SOL    HW220241   4.337   3.403   7.610
 6452SOL     OW20242   4.911   3.472   7.487
 6452SOL    HW120243   4.920   3.378   7.501
 6452SOL    HW220244   4.851   3.480   7.412
 6453SOL     OW20245   4.654   2.769   7.759
 6453SOL    HW120246   4.705   2.793   7.681
 6453SOL    HW220247   4.642   2.674   7.750
 6454SOL     OW20248   4.329   3.369   7.936
 6454SOL    HW120249   4.376   3.309   7.877
 6454SOL    HW220250   4.256   3.401   7.884
 6455SOL     OW20251   3.982   3.207   7.743
 6455SOL    HW120252   3.890   3.206   7.716
 6455SOL    HW220253   3.981   3.243   7.832
 6456SOL     OW20254   3.802   2.194   7.483
 6456SOL    HW120255   3.716   2.175   7.445
 6456SOL    HW220256   3.833   2.270   7.434
 6457SOL     OW20257   3.793   2.019   7.757
 6457SOL    HW120258   3.776   2.095   7.701
 6457SOL    HW220259   3.876   1.983   7.726
 6458SOL     OW20260   4.904   3.190   7.555
 6458SOL    HW120261   4.809   3.177   7.554
 6458SOL    HW220262   4.926   3.203   7.647
 6459SOL     OW20263   5.271   3.605   0.322
 6459SOL    HW120264   5.273   3.691   0.282
 6459SOL    HW220265   0.046   3.603   0.381
 6460SOL     OW20266   4.937   2.182   7.900
 6460SOL    HW120267   5.009   2.120   7.890
 6460SOL    HW220268   4.955   2.224   7.985
 6461SOL     OW20269   4.352   2.596   8.055
 6461SOL    HW120270   4.356   2.679   0.024
 6461SOL    HW220271   4.265   2.596   8.015
 6462SOL     OW20272   4.591   3.228   7.485
 6462SOL    HW120273   4.551   3.257   7.567
 6462SOL    HW220274   4.606   3.308   7.435
 6463SOL     OW20275   4.801   2.839   7.540
 6463SOL    HW120276   4.778   2.894   7.466
 6463SOL    HW220277   4.880   2.792   7.512
 6464SOL     OW20278   4.110   2.290   7.984
 6464SOL    HW120279   4.161   2.238   7.921
 6464SOL    HW220280   4.162   2.286   8.064
 6465SOL     OW20281   4.489   3.198   7.761
 6465SOL    HW120282   4.460   3.107   7.764
 6465SOL    HW220283   4.567   3.200   7.816
 6466SOL     OW20284   5.060   1.906   7.609
 6466SOL    HW120285   5.079   1.861   7.527
 6466SOL    HW220286   4.976   1.869   7.638
 6467SOL     OW20287   3.776   2.940   7.749
 6467SOL    HW120288   3.870   2.931   7.736
 6467SOL    HW220289   3.745   2.851   7.765
 6468SOL     OW20290   4.613   3.509   7.782
 6468SOL    HW120291   4.537   3.490   7.728
 6468SOL    HW220292   4.582   3.573   7.846
 6469SOL     OW20293   3.941   4.347   0.123
 6469SOL    HW120294   3.861   4.312   0.162
 6469SOL    HW220295   3.963   4.284   0.053
 6470SOL     OW20296   3.949   4.005   0.992
 6470SOL    HW120297   3.977   3.971   1.077
 6470SOL    HW220298   3.859   3.974   0.982
 6471SOL     OW20299   3.727   4.107   0.638
 6471SOL    HW120300   3.645   4.133   0.680
 6471SOL    HW220301   3.706   4.027   0.590
 6472SOL     OW20302   4.290   5.007   1.181
 6472SOL    HW120303   4.205   5.006   1.136
 6472SOL    HW220304   4.304   5.098   1.205
 6473SOL     OW20305   5.276   5.233   0.691
 6473SOL    HW120306   5.267   5.216   0.785
 6473SOL    HW220307   5.186   5.229   0.657
 6474SOL     OW20308   4.859   4.423   0.699
 6474SOL    HW120309   4.910   4.503   0.689
 6474SOL    HW220310   4.811   4.436   0.781
 6475SOL     OW20311   4.477   4.866   1.039
 6475SOL    HW120312   4.411   4.899   1.099
 6475SOL    HW220313   4.509   4.944   0.993
 6476SOL     OW20314   4.594   4.496   1.823
 6476SOL    HW120315   4.576   4.568   1.884
 6476SOL    HW220316   4.615   4.540   1.740
 6477SOL     OW20317   4.408   4.723   0.651
 6477SOL    HW120318   4.474   4.714   0.719
 6477SOL    HW220319   4.340   4.779   0.690
 6478SOL     OW20320   4.433   4.873   1.814
 6478SOL    HW120321   4.482   4.952   1.837
 6478SOL    HW220322   4.351   4.905   1.777
 6479SOL     OW20323   4.061   5.149   1.059
 6479SOL    HW120324   3.983   5.104   1.025
 6479SOL    HW220325   4.100   5.192   0.983
 6480SOL     OW20326   5.125   5.240   1.341
 6480SOL    HW120327   5.146   0.009   1.403
 6480SOL    HW220328   5.106   5.163   1.395
 6481SOL     OW20329   4.174   4.122   1.486
 6481SOL    HW120330   4.249   4.063   1.492
 6481SOL    HW220331   4.097   4.066   1.500
 6482SOL     OW20332   4.866   5.049   1.701
 6482SOL    HW120333   4.886   5.065   1.794
 6482SOL    HW220334   4.804   4.976   1.702
 6483SOL     OW20335   3.931   5.156   0.515
 6483SOL    HW120336   3.960   5.237   0.557
 6483SOL    HW220337   3.880   5.111   0.583
 6484SOL     OW20338   3.982   4.811   0.891
 6484SOL    HW120339   3.981   4.724   0.931
 6484SOL    HW220340   3.926   4.864   0.947
 6485SOL     OW20341   4.352   4.684   0.134
 6485SOL    HW120342   4.299   4.760   0.109
 6485SOL    HW220343   4.403   4.713   0.209
 6486SOL     OW20344   3.839   4.375   0.563
 6486SOL    HW120345   3.809   4.286   0.584
 6486SOL    HW220346   3.831   4.423   0.645
 6487SOL     OW20347   3.700   0.021   0.094
 6487SOL    HW120348   3.715   5.230   0.121
 6487SOL    HW220349   3.730   0.073   0.168
 6488SOL     OW20350   0.116   4.654   0.584
 6488SOL    HW120351   0.210   4.636   0.586
 6488SOL    HW220352   0.109   4.744   0.552
 6489SOL     OW20353   3.848   4.467   1.586
 6489SOL    HW120354   3.939   4.493   1.592
 6489SOL    HW220355   3.798   4.549   1.593
 6490SOL     OW20356   4.346   5.099   0.738
 6490SOL    HW120357   4.292   5.020   0.735
 6490SOL    HW220358   4.329   5.144   0.655
 6491SOL     OW20359   5.021   4.973   1.420
 6491SOL    HW120360   5.048   4.901   1.363
 6491SOL    HW220361   5.068   4.956   1.502
 6492SOL     OW20362   4.540   3.727   0.512
 6492SOL    HW120363   4.580   3.811   0.489
 6492SOL    HW220364   4.447   3.746   0.519
 6493SOL     OW20365   3.914   4.689   1.271
 6493SOL    HW120366   3.999   4.647   1.257
 6493SOL    HW220367   3.852   4.635   1.222
 6494SOL     OW20368   4.058   3.974   1.814
 6494SOL    HW120369   4.102   4.057   1.831
 6494SOL    HW220370   3.968   3.987   1.844
 6495SOL     OW20371   5.178   5.154   0.950
 6495SOL    HW120372   5.110   5.164   1.016
 6495SOL    HW220373   5.164   5.067   0.913
 6496SOL     OW20374   0.049   0.164   0.562
 6496SOL    HW120375   0.091   0.123   0.486
 6496SOL    HW220376   0.037   0.092   0.625
 6497SOL     OW20377   4.322   4.437   0.282
 6497SOL    HW120378   4.341   4.516   0.232
 6497SOL    HW220379   4.258   4.465   0.348
 6498SOL     OW20380   4.995   4.060   0.918
 6498SOL    HW120381   4.907   4.031   0.941
 6498SOL    HW220382   5.050   4.026   0.989
 6499SOL     OW20383   4.514   4.342   1.450
 6499SOL    HW120384   4.488   4.317   1.539
 6499SOL    HW220385   4.475   4.274   1.395
 6500SOL     OW20386   5.114   4.205   1.681
 6500SOL    HW120387   5.116   4.242   1.769
 6500SOL    HW220388   5.191   4.148   1.677
 6501SOL     OW20389   4.676   4.611   1.582
 6501SOL    HW120390   4.730   4.540   1.547
 6501SOL    HW220391   4.629   4.646   1.507
 6502SOL     OW20392   4.715   4.136   1.238
 6502SOL    HW120393   4.628   4.157   1.272
 6502SOL    HW220394   4.698   4.091   1.155
 6503SOL     OW20395   4.777   4.422   0.426
 6503SOL    HW120396   4.794   4.417   0.520
 6503SOL    HW220397   4.694   4.376   0.414
 6504SOL     OW20398   3.812   4.546   0.776
 6504SOL    HW120399   3.893   4.539   0.827
 6504SOL    HW220400   3.768   4.623   0.811
 6505SOL     OW20401   4.609   4.081   0.201
 6505SOL    HW120402   4.654   4.130   0.132
 6505SOL    HW220403   4.610   3.990   0.170
 6506SOL     OW20404   5.093   4.870   0.548
 6506SOL    HW120405   5.181   4.867   0.511
 6506SOL    HW220406   5.044   4.928   0.489
 6507SOL     OW20407   4.273   3.905   0.894
 6507SOL    HW120408   4.276   3.934   0.985
 6507SOL    HW220409   4.276   3.986   0.843
 6508SOL     OW20410   4.740   5.164   0.469
 6508SOL    HW120411   4.665   5.223   0.471
 6508SOL    HW220412   4.767   5.154   0.560
 6509SOL     OW20413   4.936   5.263   1.560
 6509SOL    HW120414   4.914   5.179   1.600
 6509SOL    HW220415   4.901   5.256   1.471
 6510SOL     OW20416   4.049   4.665   0.256
 6510SOL    HW120417   4.116   4.708   0.203
 6510SOL    HW220418   4.053   4.573   0.229
 6511SOL     OW20419   4.188   4.987   1.741
 6511SOL    HW120420   4.162   4.990   1.649
 6511SOL    HW220421   4.105   4.987   1.790
 6512SOL     OW20422   4.877   0.190   0.215
 6512SOL    HW120423   4.802   0.183   0.274
 6512SOL    HW220424   4.846   0.148   0.134
 6513SOL     OW20425   3.925   4.004   1.501
 6513SOL    HW120426   3.843   4.054   1.499
 6513SOL    HW220427   3.907   3.931   1.561
 6514SOL     OW20428   5.115   3.849   0.440
 6514SOL    HW120429   5.100   3.831   0.347
 6514SOL    HW220430   5.210   3.857   0.447
 6515SOL     OW20431   4.111   4.421   0.476
 6515SOL    HW120432   4.134   4.329   0.488
 6515SOL    HW220433   4.018   4.426   0.499
 6516SOL     OW20434   4.355   3.834   0.137
 6516SOL    HW120435   4.449   3.822   0.143
 6516SOL    HW220436   4.334   3.814   0.045
 6517SOL     OW20437   4.489   4.003   1.755
 6517SOL    HW120438   4.566   3.946   1.754
 6517SOL    HW220439   4.442   3.978   1.834
 6518SOL     OW20440   5.057   4.316   1.432
 6518SOL    HW120441   5.090   4.285   1.517
 6518SOL    HW220442   5.100   4.400   1.420
 6519SOL     OW20443   4.536   5.117   0.938
 6519SOL    HW120444   4.618   5.107   0.888
 6519SOL    HW220445   4.468   5.125   0.871
 6520SOL     OW20446   4.651   4.233   0.902
 6520SOL    HW120447   4.627   4.224   0.810
 6520SOL    HW220448   4.683   4.146   0.927
 6521SOL     OW20449   4.274   3.787   0.504
 6521SOL    HW120450   4.193   3.786   0.556
 6521SOL    HW220451   4.266   3.866   0.450
 6522SOL     OW20452   5.127   4.895   0.032
 6522SOL    HW120453   5.142   4.830   0.101
 6522SOL    HW220454   5.045   4.938   0.057
 6523SOL     OW20455   4.036   3.781   0.170
 6523SOL    HW120456   4.101   3.849   0.187
 6523SOL    HW220457   4.072   3.702   0.212
 6524SOL     OW20458   4.662   3.971   0.458
 6524SOL    HW120459   4.635   4.012   0.376
 6524SOL    HW220460   4.756   3.989   0.463
 6525SOL     OW20461   4.801   4.406   1.461
 6525SOL    HW120462   4.735   4.337   1.462
 6525SOL    HW220463   4.884   4.359   1.451
 6526SOL     OW20464   4.981   5.264   0.772
 6526SOL    HW120465   4.952   0.052   0.746
 6526SOL    HW220466   5.038   5.279   0.847
 6527SOL     OW20467   4.189   4.873   0.729
 6527SOL    HW120468   4.122   4.853   0.794
 6527SOL    HW220469   4.147   4.856   0.645
 6528SOL     OW20470   4.758   4.252   0.031
 6528SOL    HW120471   4.712   4.332   0.005
 6528SOL    HW220472   4.818   4.280   0.099
 6529SOL     OW20473   3.804   4.278   1.392
 6529SOL    HW120474   3.895   4.277   1.365
 6529SOL    HW220475   3.799   4.348   1.457
 6530SOL     OW20476   4.283   3.951   1.166
 6530SOL    HW120477   4.325   3.876   1.208
 6530SOL    HW220478   4.192   3.947   1.196
 6531SOL     OW20479   4.591   4.182   0.639
 6531SOL    HW120480   4.550   4.238   0.573
 6531SOL    HW220481   4.613   4.102   0.591
 6532SOL     OW20482   4.739   3.777   0.750
 6532SOL    HW120483   4.680   3.770   0.675
 6532SOL    HW220484   4.717   3.701   0.805
 6533SOL     OW20485   5.152   4.903   0.849
 6533SOL    HW120486   5.100   4.822   0.859
 6533SOL    HW220487   5.171   4.907   0.755
 6534SOL     OW20488   4.188   5.161   0.153
 6534SOL    HW120489   4.142   5.105   0.216
 6534SOL    HW220490   4.231   5.099   0.094
 6535SOL     OW20491   5.127   4.307   0.074
 6535SOL    HW120492   5.068   4.284   0.146
 6535SOL    HW220493   5.195   4.239   0.076
 6536SOL     OW20494   4.240   3.988   0.323
 6536SOL    HW120495   4.292   3.936   0.261
 6536SOL    HW220496   4.227   4.072   0.279
 6537SOL     OW20497   4.786   5.073   1.329
 6537SOL    HW120498   4.708   5.049   1.379
 6537SOL    HW220499   4.859   5.036   1.379
 6538SOL     OW20500   4.848   4.923   1.108
 6538SOL    HW120501   4.798   4.966   1.177
 6538SOL    HW220502   4.806   4.950   1.027
 6539SOL     OW20503   4.642   3.821   1.396
 6539SOL    HW120504   4.664   3.803   1.304
 6539SOL    HW220505   4.721   3.860   1.432
 6540SOL     OW20506   4.705   4.832   1.731
 6540SOL    HW120507   4.613   4.852   1.748
 6540SOL    HW220508   4.703   4.758   1.670
 6541SOL     OW20509   4.435   4.785   0.381
 6541SOL    HW120510   4.418   4.767   0.474
 6541SOL    HW220511   4.514   4.735   0.361
 6542SOL     OW20512   4.143   4.539   1.252
 6542SOL    HW120513   4.211   4.549   1.318
 6542SOL    HW220514   4.108   4.451   1.266
 6543SOL     OW20515   4.988   4.099   1.277
 6543SOL    HW120516   5.023   4.178   1.318
 6543SOL    HW220517   4.898   4.122   1.253
 6544SOL     OW20518   4.064   4.832   0.490
 6544SOL    HW120519   4.067   4.904   0.427
 6544SOL    HW220520   4.074   4.753   0.436
 6545SOL     OW20521   4.275   4.260   0.859
 6545SOL    HW120522   4.290   4.318   0.785
 6545SOL    HW220523   4.341   4.285   0.924
 6546SOL     OW20524   4.981   5.069   0.383
 6546SOL    HW120525   5.031   5.150   0.382
 6546SOL    HW220526   4.893   5.096   0.412
 6547SOL     OW20527   4.977   5.182   1.129
 6547SOL    HW120528   5.031   5.206   1.205
 6547SOL    HW220529   4.940   5.097   1.152
 6548SOL     OW20530   4.073   5.236   1.313
 6548SOL    HW120531   4.062   5.201   1.225
 6548SOL    HW220532   4.166   5.256   1.320
 6549SOL     OW20533   4.139   4.469   1.602
 6549SOL    HW120534   4.201   4.513   1.544
 6549SOL    HW220535   4.178   4.383   1.618
 6550SOL     OW20536   4.718   3.851   1.755
 6550SOL    HW120537   4.776   3.923   1.730
 6550SOL    HW220538   4.765   3.772   1.729
 6551SOL     OW20539   4.221   3.764   1.748
 6551SOL    HW120540   4.178   3.710   1.683
 6551SOL    HW220541   4.163   3.839   1.760
 6552SOL     OW20542   4.306   4.597   1.031
 6552SOL    HW120543   4.339   4.687   1.030
 6552SOL    HW220544   4.251   4.592   1.109
 6553SOL     OW20545   5.085   4.579   1.038
 6553SOL    HW120546   5.010   4.561   0.981
 6553SOL    HW220547   5.142   4.502   1.028
 6554SOL     OW20548   4.932   4.255   0.268
 6554SOL    HW120549   4.934   4.175   0.320
 6554SOL    HW220550   4.886   4.318   0.323
 6555SOL     OW20551   4.022   3.922   1.247
 6555SOL    HW120552   3.985   3.955   1.329
 6555SOL    HW220553   4.003   3.828   1.248
 6556SOL     OW20554   3.778   5.047   1.285
 6556SOL    HW120555   3.801   4.982   1.351
 6556SOL    HW220556   3.813   5.129   1.319
 6557SOL     OW20557   4.446   4.354   1.056
 6557SOL    HW120558   4.523   4.339   1.000
 6557SOL    HW220559   4.419   4.444   1.036
 6558SOL     OW20560   4.026   3.788   0.624
 6558SOL    HW120561   4.007   3.879   0.646
 6558SOL    HW220562   4.035   3.743   0.708
 6559SOL     OW20563   0.047   4.100   0.355
 6559SOL    HW120564   0.061   4.045   0.432
 6559SOL    HW220565   0.021   4.185   0.392
 6560SOL     OW20566   4.750   4.482   0.959
 6560SOL    HW120567   4.749   4.500   1.053
 6560SOL    HW220568   4.725   4.390   0.952
 6561SOL     OW20569   4.077   4.640   1.809
 6561SOL    HW120570   4.159   4.660   1.855
 6561SOL    HW220571   4.102   4.577   1.741
 6562SOL     OW20572   5.028   4.557   0.026
 6562SOL    HW120573   5.061   4.469   0.044
 6562SOL    HW220574   5.059   4.576   8.017
 6563SOL     OW20575   4.780   5.080   0.826
 6563SOL    HW120576   4.787   4.995   0.783
 6563SOL    HW220577   4.865   5.121   0.812
 6564SOL     OW20578   4.033   4.532   0.946
 6564SOL    HW120579   4.126   4.554   0.941
 6564SOL    HW220580   4.031   4.442   0.979
 6565SOL     OW20581   4.054   4.251   1.012
 6565SOL    HW120582   4.020   4.163   0.998
 6565SOL    HW220583   4.131   4.256   0.955
 6566SOL     OW20584   4.856   4.099   1.682
 6566SOL    HW120585   4.808   4.154   1.744
 6566SOL    HW220586   4.943   4.139   1.677
 6567SOL     OW20587   4.885   3.925   1.469
 6567SOL    HW120588   4.873   3.988   1.541
 6567SOL    HW220589   4.924   3.977   1.399
 6568SOL     OW20590   3.736   5.043   0.176
 6568SOL    HW120591   3.648   5.056   0.142
 6568SOL    HW220592   3.734   4.957   0.218
 6569SOL     OW20593   4.704   4.515   1.226
 6569SOL    HW120594   4.762   4.494   1.299
 6569SOL    HW220595   4.620   4.477   1.250
 6570SOL     OW20596   3.760   4.269   1.117
 6570SOL    HW120597   3.841   4.257   1.067
 6570SOL    HW220598   3.788   4.272   1.208
 6571SOL     OW20599   3.915   4.244   1.728
 6571SOL    HW120600   3.972   4.205   1.662
 6571SOL    HW220601   3.874   4.318   1.684
 6572SOL     OW20602   5.114   4.661   1.666
 6572SOL    HW120603   5.120   4.755   1.653
 6572SOL    HW220604   5.117   4.624   1.577
 6573SOL     OW20605   4.543   4.293   0.369
 6573SOL    HW120606   4.552   4.222   0.305
 6573SOL    HW220607   4.467   4.343   0.338
 6574SOL     OW20608   3.928   5.276   1.745
 6574SOL    HW120609   3.913   0.028   1.824
 6574SOL    HW220610   3.941   5.187   1.778
 6575SOL     OW20611   4.426   4.173   1.258
 6575SOL    HW120612   4.373   4.100   1.228
 6575SOL    HW220613   4.422   4.237   1.186
 6576SOL     OW20614   4.192   4.215   0.177
 6576SOL    HW120615   4.259   4.281   0.198
 6576SOL    HW220616   4.109   4.261   0.190
 6577SOL     OW20617   3.868   4.863   1.471
 6577SOL    HW120618   3.870   4.812   1.552
 6577SOL    HW220619   3.886   4.799   1.402
 6578SOL     OW20620   5.048   4.769   1.227
 6578SOL    HW120621   5.073   4.707   1.159
 6578SOL    HW220622   4.979   4.822   1.188
 6579SOL     OW20623   5.022   4.596   0.319
 6579SOL    HW120624   4.945   4.549   0.353
 6579SOL    HW220625   5.024   4.574   0.226
 6580SOL     OW20626   3.818   4.987   1.022
 6580SOL    HW120627   3.797   5.005   1.113
 6580SOL    HW220628   3.738   4.949   0.986
 6581SOL     OW20629   4.470   0.030   1.714
 6581SOL    HW120630   4.378   0.058   1.715
 6581SOL    HW220631   4.504   0.065   1.632
 6582SOL     OW20632   4.630   3.815   0.132
 6582SOL    HW120633   4.646   3.797   0.040
 6582SOL    HW220634   4.694   3.761   0.178
 6583SOL     OW20635   0.079   3.874   0.523
 6583SOL    HW120636   0.171   3.866   0.496
 6583SOL    HW220637   0.068   3.806   0.590
 6584SOL     OW20638   5.018   4.643   0.672
 6584SOL    HW120639   5.096   4.589   0.658
 6584SOL    HW220640   5.035   4.723   0.623
 6585SOL     OW20641   4.541   4.992   1.419
 6585SOL    HW120642   4.510   5.028   1.502
 6585SOL    HW220643   4.467   5.003   1.359
 6586SOL     OW20644   3.985   4.039   0.717
 6586SOL    HW120645   3.899   4.075   0.694
 6586SOL    HW220646   3.983   4.032   0.812
 6587SOL     OW20647   4.855   0.018   0.004
 6587SOL    HW120648   4.881   5.231   0.033
 6587SOL    HW220649   4.869   0.017   7.989
 6588SOL     OW20650   4.549   4.727   1.370
 6588SOL    HW120651   4.596   4.720   1.287
 6588SOL    HW220652   4.551   4.820   1.391
 6589SOL     OW20653   4.643   4.638   0.300
 6589SOL    HW120654   4.696   4.664   0.225
 6589SOL    HW220655   4.692   4.567   0.341
 6590SOL     OW20656   4.088   5.026   1.497
 6590SOL    HW120657   4.078   5.100   1.437
 6590SOL    HW220658   4.012   4.970   1.480
 6591SOL     OW20659   4.778   4.834   0.713
 6591SOL    HW120660   4.707   4.782   0.750
 6591SOL    HW220661   4.836   4.770   0.672
 6592SOL     OW20662   4.739   3.963   0.968
 6592SOL    HW120663   4.738   3.916   0.885
 6592SOL    HW220664   4.736   3.894   1.035
 6593SOL     OW20665   3.989   5.026   0.289
 6593SOL    HW120666   3.908   5.042   0.240
 6593SOL    HW220667   3.979   5.078   0.369
 6594SOL     OW20668   3.836   4.747   1.719
 6594SOL    HW120669   3.760   4.723   1.772
 6594SOL    HW220670   3.911   4.709   1.765
 6595SOL     OW20671   4.399   3.920   1.500
 6595SOL    HW120672   4.483   3.900   1.459
 6595SOL    HW220673   4.422   3.952   1.587
 6596SOL     OW20674   3.782   4.086   0.039
 6596SOL    HW120675   3.705   4.034   0.015
 6596SOL    HW220676   3.831   4.095   8.037
 6597SOL     OW20677   5.164   4.584   1.403
 6597SOL    HW120678   5.111   4.641   1.348
 6597SOL    HW220679   5.253   4.591   1.368
 6598SOL     OW20680   3.795   3.877   0.303
 6598SOL    HW120681   3.780   3.963   0.262
 6598SOL    HW220682   3.879   3.848   0.268
 6599SOL     OW20683   4.906   5.051   0.106
 6599SOL    HW120684   4.811   5.047   0.103
 6599SOL    HW220685   4.927   5.059   0.199
 6600SOL     OW20686   4.343   4.555   1.434
 6600SOL    HW120687   4.400   4.630   1.418
 6600SOL    HW220688   4.403   4.481   1.442
 6601SOL     OW20689   4.441   4.287   1.703
 6601SOL    HW120690   4.483   4.348   1.764
 6601SOL    HW220691   4.466   4.200   1.736
 6602SOL     OW20692   5.184   4.927   1.633
 6602SOL    HW120693   5.173   4.939   1.727
 6602SOL    HW220694   5.278   4.931   1.619
 6603SOL     OW20695   4.932   4.049   0.461
 6603SOL    HW120696   4.994   3.977   0.450
 6603SOL    HW220697   4.962   4.096   0.539
 6604SOL     OW20698   4.312   4.460   0.670
 6604SOL    HW120699   4.352   4.546   0.658
 6604SOL    HW220700   4.244   4.455   0.603
 6605SOL     OW20701   4.637   5.095   0.039
 6605SOL    HW120702   4.576   5.076   0.110
 6605SOL    HW220703   4.590   5.157   8.063
 6606SOL     OW20704   4.592   4.691   0.855
 6606SOL    HW120705   4.642   4.620   0.895
 6606SOL    HW220706   4.557   4.740   0.930
 6607SOL     OW20707   4.801   4.699   0.087
 6607SOL    HW120708   4.787   4.757   0.012
 6607SOL    HW220709   4.883   4.654   0.067
 6608SOL     OW20710   3.946   5.023   1.852
 6608SOL    HW120711   3.878   4.960   1.827
 6608SOL    HW220712   3.935   5.033   1.947
 6609SOL     OW20713   3.812   4.953   0.669
 6609SOL    HW120714   3.810   4.902   0.750
 6609SOL    HW220715   3.880   4.912   0.617
 6610SOL     OW20716   4.395   5.102   1.609
 6610SOL    HW120717   4.318   5.072   1.657
 6610SOL    HW220718   4.427   5.178   1.658
 6611SOL     OW20719   4.148   4.160   0.523
 6611SOL    HW120720   4.182   4.089   0.470
 6611SOL    HW220721   4.104   4.116   0.596
 6612SOL     OW20722   0.123   5.230   1.051
 6612SOL    HW120723   0.039   5.205   1.012
 6612SOL    HW220724   0.105   5.238   1.144
 6613SOL     OW20725   4.055   4.280   1.292
 6613SOL    HW120726   4.110   4.225   1.347
 6613SOL    HW220727   4.074   4.252   1.203
 6614SOL     OW20728   5.147   3.942   1.115
 6614SOL    HW120729   5.192   3.878   1.169
 6614SOL    HW220730   5.101   3.998   1.177
 6615SOL     OW20731   4.729   3.742   1.141
 6615SOL    HW120732   4.677   3.674   1.099
 6615SOL    HW220733   4.817   3.704   1.146
 6616SOL     OW20734   4.519   5.039   0.282
 6616SOL    HW120735   4.468   4.963   0.309
 6616SOL    HW220736   4.578   5.055   0.355
 6617SOL     OW20737   4.346   5.299   1.293
 6617SOL    HW120738   4.353   0.053   1.372
 6617SOL    HW220739   4.437   5.280   1.269
 6618SOL     OW20740   5.050   3.784   0.188
 6618SOL    HW120741   5.091   3.736   0.117
 6618SOL    HW220742   4.971   3.734   0.208
 6619SOL     OW20743   5.027   4.185   0.683
 6619SOL    HW120744   4.973   4.264   0.687
 6619SOL    HW220745   5.015   4.143   0.768
 6620SOL     OW20746   5.300   3.950   0.878
 6620SOL    HW120747   5.238   3.934   0.950
 6620SOL    HW220748   5.273   4.034   0.841
 6621SOL     OW20749   3.765   4.791   0.305
 6621SOL    HW120750   3.861   4.793   0.309
 6621SOL    HW220751   3.742   4.706   0.343
 6622SOL     OW20752   3.953   4.347   1.986
 6622SOL    HW120753   3.863   4.346   2.021
 6622SOL    HW220754   3.943   4.322   1.894
 6623SOL     OW20755   3.949   4.006   2.854
 6623SOL    HW120756   3.977   3.971   2.939
 6623SOL    HW220757   3.859   3.974   2.844
 6624SOL     OW20758   3.727   4.107   2.500
 6624SOL    HW120759   3.645   4.132   2.542
 6624SOL    HW220760   3.706   4.028   2.451
 6625SOL     OW20761   4.291   5.007   3.043
 6625SOL    HW120762   4.206   5.005   2.998
 6625SOL    HW220763   4.303   5.098   3.068
 6626SOL     OW20764   5.275   5.231   2.554
 6626SOL    HW120765   5.268   5.216   2.648
 6626SOL    HW220766   5.184   5.231   2.523
 6627SOL     OW20767   4.859   4.423   2.561
 6627SOL    HW120768   4.909   4.504   2.551
 6627SOL    HW220769   4.810   4.435   2.642
 6628SOL     OW20770   4.478   4.867   2.901
 6628SOL    HW120771   4.411   4.899   2.962
 6628SOL    HW220772   4.509   4.945   2.855
 6629SOL     OW20773   4.594   4.496   3.685
 6629SOL    HW120774   4.576   4.568   3.746
 6629SOL    HW220775   4.615   4.540   3.602
 6630SOL     OW20776   4.410   4.725   2.509
 6630SOL    HW120777   4.475   4.715   2.579
 6630SOL    HW220778   4.341   4.779   2.548
 6631SOL     OW20779   4.434   4.873   3.676
 6631SOL    HW120780   4.482   4.952   3.699
 6631SOL    HW220781   4.351   4.905   3.639
 6632SOL     OW20782   4.061   5.149   2.921
 6632SOL    HW120783   3.983   5.104   2.888
 6632SOL    HW220784   4.099   5.191   2.845
 6633SOL     OW20785   5.126   5.238   3.203
 6633SOL    HW120786   5.146   0.008   3.265
 6633SOL    HW220787   5.105   5.162   3.257
 6634SOL     OW20788   4.174   4.122   3.348
 6634SOL    HW120789   4.248   4.063   3.354
 6634SOL    HW220790   4.097   4.066   3.362
 6635SOL     OW20791   4.865   5.050   3.563
 6635SOL    HW120792   4.886   5.065   3.656
 6635SOL    HW220793   4.804   4.977   3.564
 6636SOL     OW20794   3.933   5.157   2.383
 6636SOL    HW120795   3.961   5.237   2.426
 6636SOL    HW220796   3.883   5.110   2.449
 6637SOL     OW20797   3.983   4.811   2.754
 6637SOL    HW120798   3.981   4.724   2.793
 6637SOL    HW220799   3.926   4.864   2.810
 6638SOL     OW20800   4.308   4.706   1.997
 6638SOL    HW120801   4.355   4.754   1.929
 6638SOL    HW220802   4.347   4.736   2.079
 6639SOL     OW20803   3.839   4.377   2.422
 6639SOL    HW120804   3.810   4.288   2.443
 6639SOL    HW220805   3.831   4.425   2.504
 6640SOL     OW20806   3.710   0.013   1.960
 6640SOL    HW120807   3.725   5.224   1.990
 6640SOL    HW220808   3.732   0.069   2.034
 6641SOL     OW20809   0.112   4.657   2.427
 6641SOL    HW120810   0.200   4.625   2.448
 6641SOL    HW220811   0.124   4.750   2.408
 6642SOL     OW20812   3.847   4.467   3.448
 6642SOL    HW120813   3.939   4.493   3.454
 6642SOL    HW220814   3.798   4.549   3.455
 6643SOL     OW20815   4.346   5.098   2.600
 6643SOL    HW120816   4.292   5.019   2.597
 6643SOL    HW220817   4.328   5.143   2.517
 6644SOL     OW20818   5.021   4.973   3.281
 6644SOL    HW120819   5.048   4.900   3.225
 6644SOL    HW220820   5.068   4.957   3.364
 6645SOL     OW20821   4.539   3.725   2.371
 6645SOL    HW120822   4.580   3.809   2.351
 6645SOL    HW220823   4.446   3.745   2.380
 6646SOL     OW20824   3.914   4.689   3.133
 6646SOL    HW120825   3.999   4.647   3.119
 6646SOL    HW220826   3.852   4.635   3.084
 6647SOL     OW20827   4.059   3.974   3.677
 6647SOL    HW120828   4.102   4.058   3.693
 6647SOL    HW220829   3.968   3.987   3.706
 6648SOL     OW20830   5.178   5.154   2.813
 6648SOL    HW120831   5.110   5.163   2.879
 6648SOL    HW220832   5.164   5.066   2.776
 6649SOL     OW20833   0.043   0.164   2.426
 6649SOL    HW120834   0.086   0.126   2.350
 6649SOL    HW220835   0.033   0.091   2.487
 6650SOL     OW20836   4.320   4.444   2.129
 6650SOL    HW120837   4.325   4.526   2.080
 6650SOL    HW220838   4.255   4.462   2.197
 6651SOL     OW20839   4.995   4.061   2.781
 6651SOL    HW120840   4.907   4.032   2.802
 6651SOL    HW220841   5.050   4.026   2.851
 6652SOL     OW20842   4.514   4.342   3.312
 6652SOL    HW120843   4.489   4.317   3.401
 6652SOL    HW220844   4.475   4.274   3.257
 6653SOL     OW20845   5.114   4.205   3.543
 6653SOL    HW120846   5.116   4.242   3.631
 6653SOL    HW220847   5.191   4.148   3.539
 6654SOL     OW20848   4.676   4.611   3.445
 6654SOL    HW120849   4.730   4.540   3.409
 6654SOL    HW220850   4.629   4.646   3.369
 6655SOL     OW20851   4.715   4.137   3.100
 6655SOL    HW120852   4.628   4.156   3.134
 6655SOL    HW220853   4.698   4.091   3.017
 6656SOL     OW20854   4.775   4.422   2.287
 6656SOL    HW120855   4.792   4.416   2.381
 6656SOL    HW220856   4.692   4.376   2.274
 6657SOL     OW20857   3.812   4.545   2.638
 6657SOL    HW120858   3.893   4.538   2.689
 6657SOL    HW220859   3.768   4.623   2.674
 6658SOL     OW20860   4.619   4.072   2.056
 6658SOL    HW120861   4.658   4.134   1.994
 6658SOL    HW220862   4.634   3.986   2.017
 6659SOL     OW20863   5.093   4.869   2.409
 6659SOL    HW120864   5.183   4.870   2.378
 6659SOL    HW220865   5.047   4.929   2.350
 6660SOL     OW20866   4.274   3.905   2.756
 6660SOL    HW120867   4.276   3.934   2.847
 6660SOL    HW220868   4.275   3.985   2.704
 6661SOL     OW20869   4.744   5.167   2.333
 6661SOL    HW120870   4.668   5.224   2.328
 6661SOL    HW220871   4.761   5.157   2.427
 6662SOL     OW20872   4.937   5.262   3.421
 6662SOL    HW120873   4.915   5.179   3.462
 6662SOL    HW220874   4.900   5.256   3.333
 6663SOL     OW20875   4.044   4.680   2.113
 6663SOL    HW120876   4.126   4.700   2.068
 6663SOL    HW220877   4.013   4.599   2.073
 6664SOL     OW20878   4.188   4.987   3.603
 6664SOL    HW120879   4.162   4.990   3.511
 6664SOL    HW220880   4.106   4.987   3.652
 6665SOL     OW20881   4.789   0.172   2.073
 6665SOL    HW120882   4.803   0.116   2.150
 6665SOL    HW220883   4.865   0.154   2.017
 6666SOL     OW20884   3.925   4.004   3.364
 6666SOL    HW120885   3.843   4.053   3.360
 6666SOL    HW220886   3.906   3.929   3.420
 6667SOL     OW20887   5.119   3.831   2.286
 6667SOL    HW120888   5.100   3.813   2.194
 6667SOL    HW220889   5.214   3.847   2.288
 6668SOL     OW20890   4.118   4.419   2.338
 6668SOL    HW120891   4.137   4.326   2.350
 6668SOL    HW220892   4.024   4.426   2.355
 6669SOL     OW20893   4.361   3.846   1.967
 6669SOL    HW120894   4.429   3.780   1.979
 6669SOL    HW220895   4.311   3.814   1.891
 6670SOL     OW20896   4.489   4.003   3.617
 6670SOL    HW120897   4.566   3.946   3.616
 6670SOL    HW220898   4.441   3.978   3.696
 6671SOL     OW20899   5.057   4.316   3.294
 6671SOL    HW120900   5.090   4.284   3.379
 6671SOL    HW220901   5.100   4.401   3.282
 6672SOL     OW20902   4.537   5.118   2.799
 6672SOL    HW120903   4.617   5.106   2.749
 6672SOL    HW220904   4.468   5.125   2.732
 6673SOL     OW20905   4.652   4.233   2.764
 6673SOL    HW120906   4.628   4.224   2.672
 6673SOL    HW220907   4.683   4.146   2.790
 6674SOL     OW20908   4.273   3.787   2.363
 6674SOL    HW120909   4.193   3.788   2.415
 6674SOL    HW220910   4.267   3.865   2.308
 6675SOL     OW20911   5.134   4.905   1.905
 6675SOL    HW120912   5.140   4.825   1.958
 6675SOL    HW220913   5.046   4.938   1.921
 6676SOL     OW20914   4.015   3.772   2.047
 6676SOL    HW120915   4.074   3.836   2.007
 6676SOL    HW220916   4.074   3.709   2.089
 6677SOL     OW20917   4.662   3.971   2.321
 6677SOL    HW120918   4.636   4.011   2.238
 6677SOL    HW220919   4.757   3.984   2.325
 6678SOL     OW20920   4.801   4.406   3.322
 6678SOL    HW120921   4.735   4.337   3.324
 6678SOL    HW220922   4.884   4.359   3.313
 6679SOL     OW20923   4.985   5.265   2.631
 6679SOL    HW120924   4.946   0.051   2.613
 6679SOL    HW220925   5.039   5.278   2.709
 6680SOL     OW20926   4.190   4.872   2.591
 6680SOL    HW120927   4.122   4.852   2.655
 6680SOL    HW220928   4.149   4.855   2.506
 6681SOL     OW20929   4.747   4.266   1.885
 6681SOL    HW120930   4.703   4.349   1.865
 6681SOL    HW220931   4.809   4.288   1.955
 6682SOL     OW20932   3.804   4.278   3.254
 6682SOL    HW120933   3.896   4.277   3.227
 6682SOL    HW220934   3.799   4.348   3.319
 6683SOL     OW20935   4.283   3.951   3.029
 6683SOL    HW120936   4.325   3.875   3.070
 6683SOL    HW220937   4.192   3.947   3.058
 6684SOL     OW20938   4.592   4.183   2.501
 6684SOL    HW120939   4.546   4.238   2.437
 6684SOL    HW220940   4.613   4.103   2.453
 6685SOL     OW20941   4.739   3.777   2.613
 6685SOL    HW120942   4.681   3.771   2.537
 6685SOL    HW220943   4.717   3.702   2.667
 6686SOL     OW20944   5.152   4.902   2.711
 6686SOL    HW120945   5.100   4.822   2.723
 6686SOL    HW220946   5.169   4.906   2.617
 6687SOL     OW20947   4.202   5.148   2.013
 6687SOL    HW120948   4.141   5.095   2.065
 6687SOL    HW220949   4.209   5.101   1.930
 6688SOL     OW20950   5.128   4.285   1.943
 6688SOL    HW120951   5.054   4.276   2.003
 6688SOL    HW220952   5.203   4.248   1.990
 6689SOL     OW20953   4.249   3.987   2.179
 6689SOL    HW120954   4.295   3.940   2.109
 6689SOL    HW220955   4.226   4.071   2.140
 6690SOL     OW20956   4.786   5.073   3.191
 6690SOL    HW120957   4.708   5.049   3.241
 6690SOL    HW220958   4.859   5.036   3.241
 6691SOL     OW20959   4.849   4.923   2.970
 6691SOL    HW120960   4.799   4.966   3.040
 6691SOL    HW220961   4.805   4.949   2.889
 6692SOL     OW20962   4.642   3.821   3.258
 6692SOL    HW120963   4.664   3.803   3.166
 6692SOL    HW220964   4.721   3.860   3.294
 6693SOL     OW20965   4.705   4.832   3.593
 6693SOL    HW120966   4.613   4.852   3.610
 6693SOL    HW220967   4.703   4.758   3.532
 6694SOL     OW20968   4.428   4.782   2.234
 6694SOL    HW120969   4.416   4.766   2.327
 6694SOL    HW220970   4.506   4.732   2.210
 6695SOL     OW20971   4.143   4.539   3.113
 6695SOL    HW120972   4.211   4.549   3.180
 6695SOL    HW220973   4.108   4.451   3.127
 6696SOL     OW20974   4.988   4.099   3.139
 6696SOL    HW120975   5.023   4.178   3.180
 6696SOL    HW220976   4.898   4.122   3.115
 6697SOL     OW20977   4.068   4.834   2.350
 6697SOL    HW120978   4.071   4.907   2.289
 6697SOL    HW220979   4.068   4.755   2.295
 6698SOL     OW20980   4.276   4.260   2.722
 6698SOL    HW120981   4.291   4.318   2.647
 6698SOL    HW220982   4.341   4.286   2.786
 6699SOL     OW20983   4.985   5.078   2.249
 6699SOL    HW120984   5.037   5.154   2.275
 6699SOL    HW220985   4.896   5.100   2.277
 6700SOL     OW20986   4.977   5.182   2.992
 6700SOL    HW120987   5.032   5.205   3.067
 6700SOL    HW220988   4.940   5.097   3.014
 6701SOL     OW20989   4.073   5.236   3.175
 6701SOL    HW120990   4.061   5.201   3.087
 6701SOL    HW220991   4.166   5.256   3.182
 6702SOL     OW20992   4.139   4.469   3.464
 6702SOL    HW120993   4.201   4.513   3.407
 6702SOL    HW220994   4.177   4.383   3.480
 6703SOL     OW20995   4.718   3.851   3.617
 6703SOL    HW120996   4.776   3.922   3.592
 6703SOL    HW220997   4.765   3.771   3.591
 6704SOL     OW20998   4.221   3.764   3.610
 6704SOL    HW120999   4.178   3.710   3.544
 6704SOL    HW221000   4.163   3.839   3.623
 6705SOL     OW21001   4.307   4.597   2.893
 6705SOL    HW121002   4.338   4.687   2.892
 6705SOL    HW221003   4.251   4.591   2.971
 6706SOL     OW21004   5.086   4.580   2.897
 6706SOL    HW121005   5.009   4.560   2.845
 6706SOL    HW221006   5.140   4.501   2.892
 6707SOL     OW21007   4.927   4.255   2.125
 6707SOL    HW121008   4.934   4.175   2.178
 6707SOL    HW221009   4.883   4.318   2.183
 6708SOL     OW21010   4.022   3.922   3.109
 6708SOL    HW121011   3.985   3.954   3.191
 6708SOL    HW221012   4.003   3.828   3.110
 6709SOL     OW21013   3.777   5.047   3.147
 6709SOL    HW121014   3.801   4.982   3.213
 6709SOL    HW221015   3.814   5.129   3.181
 6710SOL     OW21016   4.447   4.354   2.919
 6710SOL    HW121017   4.523   4.339   2.862
 6710SOL    HW221018   4.419   4.443   2.898
 6711SOL     OW21019   4.027   3.788   2.485
 6711SOL    HW121020   4.007   3.878   2.508
 6711SOL    HW221021   4.035   3.743   2.570
 6712SOL     OW21022   0.034   4.120   2.220
 6712SOL    HW121023   0.052   4.044   2.276
 6712SOL    HW221024   0.022   4.193   2.281
 6713SOL     OW21025   4.751   4.483   2.821
 6713SOL    HW121026   4.748   4.500   2.915
 6713SOL    HW221027   4.725   4.391   2.813
 6714SOL     OW21028   4.077   4.640   3.671
 6714SOL    HW121029   4.159   4.659   3.717
 6714SOL    HW221030   4.101   4.578   3.603
 6715SOL     OW21031   5.028   4.552   1.898
 6715SOL    HW121032   5.065   4.464   1.901
 6715SOL    HW221033   5.055   4.588   1.814
 6716SOL     OW21034   4.780   5.081   2.686
 6716SOL    HW121035   4.787   4.995   2.644
 6716SOL    HW221036   4.866   5.121   2.672
 6717SOL     OW21037   4.033   4.533   2.809
 6717SOL    HW121038   4.126   4.553   2.803
 6717SOL    HW221039   4.030   4.442   2.841
 6718SOL     OW21040   4.054   4.251   2.874
 6718SOL    HW121041   4.020   4.163   2.860
 6718SOL    HW221042   4.131   4.256   2.817
 6719SOL     OW21043   4.856   4.099   3.544
 6719SOL    HW121044   4.808   4.154   3.606
 6719SOL    HW221045   4.943   4.139   3.539
 6720SOL     OW21046   4.885   3.925   3.331
 6720SOL    HW121047   4.873   3.988   3.403
 6720SOL    HW221048   4.924   3.977   3.261
 6721SOL     OW21049   3.730   5.040   2.053
 6721SOL    HW121050   3.639   5.057   2.027
 6721SOL    HW221051   3.728   4.952   2.090
 6722SOL     OW21052   4.704   4.515   3.088
 6722SOL    HW121053   4.762   4.494   3.161
 6722SOL    HW221054   4.620   4.477   3.111
 6723SOL     OW21055   3.760   4.270   2.978
 6723SOL    HW121056   3.840   4.257   2.928
 6723SOL    HW221057   3.788   4.272   3.070
 6724SOL     OW21058   3.916   4.244   3.590
 6724SOL    HW121059   3.970   4.203   3.523
 6724SOL    HW221060   3.875   4.318   3.546
 6725SOL     OW21061   5.114   4.661   3.528
 6725SOL    HW121062   5.120   4.755   3.515
 6725SOL    HW221063   5.117   4.624   3.439
 6726SOL     OW21064   4.540   4.293   2.223
 6726SOL    HW121065   4.544   4.219   2.163
 6726SOL    HW221066   4.466   4.346   2.192
 6727SOL     OW21067   3.928   5.276   3.607
 6727SOL    HW121068   3.913   0.028   3.686
 6727SOL    HW221069   3.941   5.187   3.640
 6728SOL     OW21070   4.427   4.173   3.120
 6728SOL    HW121071   4.373   4.100   3.091
 6728SOL    HW221072   4.422   4.236   3.048
 6729SOL     OW21073   4.187   4.216   2.048
 6729SOL    HW121074   4.246   4.289   2.070
 6729SOL    HW221075   4.102   4.257   2.036
 6730SOL     OW21076   3.868   4.863   3.333
 6730SOL    HW121077   3.870   4.812   3.414
 6730SOL    HW221078   3.886   4.799   3.264
 6731SOL     OW21079   5.049   4.769   3.089
 6731SOL    HW121080   5.073   4.707   3.020
 6731SOL    HW221081   4.979   4.822   3.050
 6732SOL     OW21082   5.034   4.585   2.178
 6732SOL    HW121083   4.953   4.550   2.215
 6732SOL    HW221084   5.023   4.575   2.084
 6733SOL     OW21085   3.818   4.987   2.884
 6733SOL    HW121086   3.797   5.005   2.975
 6733SOL    HW221087   3.739   4.948   2.848
 6734SOL     OW21088   4.470   0.031   3.576
 6734SOL    HW121089   4.378   0.058   3.577
 6734SOL    HW221090   4.504   0.065   3.493
 6735SOL     OW21091   0.078   3.885   2.394
 6735SOL    HW121092   0.161   3.870   2.348
 6735SOL    HW221093   0.065   3.807   2.446
 6736SOL     OW21094   5.017   4.643   2.534
 6736SOL    HW121095   5.095   4.589   2.521
 6736SOL    HW221096   5.035   4.723   2.485
 6737SOL     OW21097   4.541   4.992   3.281
 6737SOL    HW121098   4.510   5.028   3.364
 6737SOL    HW221099   4.467   5.003   3.221
 6738SOL     OW21100   3.985   4.039   2.578
 6738SOL    HW121101   3.899   4.075   2.555
 6738SOL    HW221102   3.983   4.032   2.674
 6739SOL     OW21103   4.549   4.727   3.232
 6739SOL    HW121104   4.595   4.720   3.149
 6739SOL    HW221105   4.551   4.820   3.253
 6740SOL     OW21106   4.640   4.636   2.153
 6740SOL    HW121107   4.702   4.668   2.087
 6740SOL    HW221108   4.688   4.566   2.197
 6741SOL     OW21109   4.088   5.026   3.359
 6741SOL    HW121110   4.078   5.100   3.299
 6741SOL    HW221111   4.013   4.970   3.342
 6742SOL     OW21112   4.779   4.834   2.575
 6742SOL    HW121113   4.707   4.783   2.612
 6742SOL    HW221114   4.837   4.769   2.536
 6743SOL     OW21115   4.739   3.963   2.831
 6743SOL    HW121116   4.737   3.916   2.747
 6743SOL    HW221117   4.735   3.894   2.897
 6744SOL     OW21118   3.982   5.050   2.146
 6744SOL    HW121119   3.890   5.052   2.118
 6744SOL    HW221120   3.983   5.095   2.230
 6745SOL     OW21121   3.836   4.747   3.581
 6745SOL    HW121122   3.760   4.723   3.634
 6745SOL    HW221123   3.911   4.709   3.627
 6746SOL     OW21124   4.399   3.920   3.362
 6746SOL    HW121125   4.483   3.900   3.321
 6746SOL    HW221126   4.422   3.952   3.449
 6747SOL     OW21127   3.803   4.057   1.897
 6747SOL    HW121128   3.715   4.038   1.862
 6747SOL    HW221129   3.833   4.132   1.846
 6748SOL     OW21130   5.164   4.584   3.265
 6748SOL    HW121131   5.111   4.641   3.210
 6748SOL    HW221132   5.253   4.591   3.230
 6749SOL     OW21133   3.791   3.880   2.171
 6749SOL    HW121134   3.777   3.960   2.120
 6749SOL    HW221135   3.876   3.847   2.141
 6750SOL     OW21136   4.908   5.058   1.983
 6750SOL    HW121137   4.814   5.041   1.982
 6750SOL    HW221138   4.933   5.055   2.075
 6751SOL     OW21139   4.343   4.555   3.296
 6751SOL    HW121140   4.400   4.630   3.280
 6751SOL    HW221141   4.403   4.481   3.304
 6752SOL     OW21142   4.442   4.287   3.565
 6752SOL    HW121143   4.483   4.348   3.626
 6752SOL    HW221144   4.466   4.200   3.598
 6753SOL     OW21145   5.184   4.927   3.495
 6753SOL    HW121146   5.172   4.939   3.589
 6753SOL    HW221147   5.278   4.931   3.481
 6754SOL     OW21148   4.939   4.044   2.317
 6754SOL    HW121149   5.001   3.972   2.305
 6754SOL    HW221150   4.969   4.088   2.397
 6755SOL     OW21151   4.314   4.461   2.532
 6755SOL    HW121152   4.352   4.547   2.518
 6755SOL    HW221153   4.246   4.453   2.464
 6756SOL     OW21154   4.581   5.094   1.882
 6756SOL    HW121155   4.558   5.097   1.975
 6756SOL    HW221156   4.586   5.186   1.856
 6757SOL     OW21157   4.593   4.692   2.717
 6757SOL    HW121158   4.642   4.620   2.757
 6757SOL    HW221159   4.557   4.741   2.791
 6758SOL     OW21160   4.809   4.712   1.955
 6758SOL    HW121161   4.781   4.760   1.876
 6758SOL    HW221162   4.882   4.658   1.925
 6759SOL     OW21163   3.946   5.023   3.714
 6759SOL    HW121164   3.879   4.959   3.689
 6759SOL    HW221165   3.935   5.033   3.809
 6760SOL     OW21166   3.811   4.955   2.532
 6760SOL    HW121167   3.810   4.903   2.612
 6760SOL    HW221168   3.874   4.911   2.475
 6761SOL     OW21169   4.396   5.102   3.471
 6761SOL    HW121170   4.318   5.072   3.519
 6761SOL    HW221171   4.427   5.178   3.520
 6762SOL     OW21172   4.153   4.158   2.388
 6762SOL    HW121173   4.183   4.087   2.331
 6762SOL    HW221174   4.105   4.113   2.457
 6763SOL     OW21175   0.123   5.230   2.912
 6763SOL    HW121176   0.039   5.205   2.874
 6763SOL    HW221177   0.106   5.241   3.005
 6764SOL     OW21178   4.055   4.280   3.154
 6764SOL    HW121179   4.110   4.225   3.209
 6764SOL    HW221180   4.074   4.252   3.065
 6765SOL     OW21181   5.146   3.943   2.977
 6765SOL    HW121182   5.192   3.879   3.031
 6765SOL    HW221183   5.100   3.998   3.040
 6766SOL     OW21184   4.729   3.742   3.003
 6766SOL    HW121185   4.676   3.674   2.962
 6766SOL    HW221186   4.817   3.704   3.008
 6767SOL     OW21187   4.527   5.046   2.146
 6767SOL    HW121188   4.469   4.973   2.166
 6767SOL    HW221189   4.583   5.055   2.224
 6768SOL     OW21190   4.346   5.299   3.155
 6768SOL    HW121191   4.352   0.053   3.234
 6768SOL    HW221192   4.437   5.280   3.132
 6769SOL     OW21193   5.056   3.770   2.029
 6769SOL    HW121194   5.079   3.729   1.946
 6769SOL    HW221195   4.971   3.732   2.052
 6770SOL     OW21196   5.027   4.182   2.543
 6770SOL    HW121197   4.973   4.261   2.547
 6770SOL    HW221198   5.016   4.141   2.629
 6771SOL     OW21199   0.002   3.950   2.744
 6771SOL    HW121200   5.236   3.938   2.812
 6771SOL    HW221201   5.274   4.029   2.698
 6772SOL     OW21202   3.766   4.793   2.170
 6772SOL    HW121203   3.860   4.787   2.153
 6772SOL    HW221204   3.740   4.704   2.192
 6773SOL     OW21205   3.953   4.347   3.848
 6773SOL    HW121206   3.863   4.345   3.882
 6773SOL    HW221207   3.944   4.322   3.756
 6774SOL     OW21208   3.949   4.006   4.716
 6774SOL    HW121209   3.978   3.971   4.800
 6774SOL    HW221210   3.860   3.974   4.706
 6775SOL     OW21211   3.727   4.107   4.362
 6775SOL    HW121212   3.644   4.132   4.403
 6775SOL    HW221213   3.707   4.028   4.312
 6776SOL     OW21214   4.290   5.007   4.904
 6776SOL    HW121215   4.206   5.005   4.860
 6776SOL    HW221216   4.303   5.098   4.930
 6777SOL     OW21217   5.275   5.231   4.416
 6777SOL    HW121218   5.269   5.216   4.510
 6777SOL    HW221219   5.184   5.231   4.386
 6778SOL     OW21220   4.859   4.423   4.423
 6778SOL    HW121221   4.909   4.504   4.413
 6778SOL    HW221222   4.810   4.435   4.504
 6779SOL     OW21223   4.478   4.867   4.763
 6779SOL    HW121224   4.411   4.899   4.824
 6779SOL    HW221225   4.509   4.945   4.717
 6780SOL     OW21226   4.594   4.496   5.547
 6780SOL    HW121227   4.576   4.568   5.608
 6780SOL    HW221228   4.615   4.540   5.464
 6781SOL     OW21229   4.410   4.725   4.371
 6781SOL    HW121230   4.475   4.715   4.441
 6781SOL    HW221231   4.341   4.779   4.410
 6782SOL     OW21232   4.434   4.873   5.538
 6782SOL    HW121233   4.482   4.952   5.561
 6782SOL    HW221234   4.351   4.905   5.501
 6783SOL     OW21235   4.061   5.149   4.783
 6783SOL    HW121236   3.983   5.104   4.749
 6783SOL    HW221237   4.099   5.191   4.707
 6784SOL     OW21238   5.127   5.238   5.065
 6784SOL    HW121239   5.146   0.008   5.127
 6784SOL    HW221240   5.105   5.162   5.119
 6785SOL     OW21241   4.173   4.122   5.210
 6785SOL    HW121242   4.249   4.063   5.216
 6785SOL    HW221243   4.097   4.066   5.224
 6786SOL     OW21244   4.865   5.050   5.425
 6786SOL    HW121245   4.886   5.065   5.518
 6786SOL    HW221246   4.804   4.977   5.426
 6787SOL     OW21247   3.933   5.157   4.244
 6787SOL    HW121248   3.961   5.238   4.288
 6787SOL    HW221249   3.883   5.110   4.311
 6788SOL     OW21250   3.983   4.811   4.616
 6788SOL    HW121251   3.981   4.724   4.655
 6788SOL    HW221252   3.926   4.864   4.672
 6789SOL     OW21253   4.308   4.706   3.859
 6789SOL    HW121254   4.355   4.754   3.791
 6789SOL    HW221255   4.347   4.736   3.941
 6790SOL     OW21256   3.839   4.377   4.284
 6790SOL    HW121257   3.810   4.288   4.305
 6790SOL    HW221258   3.831   4.425   4.366
 6791SOL     OW21259   3.710   0.013   3.822
 6791SOL    HW121260   3.725   5.224   3.852
 6791SOL    HW221261   3.732   0.069   3.897
 6792SOL     OW21262   0.112   4.657   4.289
 6792SOL    HW121263   0.199   4.625   4.310
 6792SOL    HW221264   0.124   4.750   4.269
 6793SOL     OW21265   3.848   4.467   5.310
 6793SOL    HW121266   3.940   4.493   5.316
 6793SOL    HW221267   3.799   4.549   5.318
 6794SOL     OW21268   4.346   5.098   4.462
 6794SOL    HW121269   4.292   5.019   4.459
 6794SOL    HW221270   4.328   5.143   4.379
 6795SOL     OW21271   5.021   4.973   5.143
 6795SOL    HW121272   5.048   4.900   5.087
 6795SOL    HW221273   5.068   4.957   5.226
 6796SOL     OW21274   4.539   3.725   4.234
 6796SOL    HW121275   4.580   3.809   4.213
 6796SOL    HW221276   4.446   3.745   4.242
 6797SOL     OW21277   3.914   4.689   4.995
 6797SOL    HW121278   3.999   4.647   4.981
 6797SOL    HW221279   3.852   4.635   4.945
 6798SOL     OW21280   4.058   3.974   5.538
 6798SOL    HW121281   4.102   4.057   5.555
 6798SOL    HW221282   3.968   3.987   5.568
 6799SOL     OW21283   5.178   5.154   4.675
 6799SOL    HW121284   5.110   5.163   4.741
 6799SOL    HW221285   5.164   5.066   4.638
 6800SOL     OW21286   0.043   0.164   4.288
 6800SOL    HW121287   0.086   0.125   4.212
 6800SOL    HW221288   0.033   0.091   4.349
 6801SOL     OW21289   4.320   4.445   3.991
 6801SOL    HW121290   4.325   4.526   3.941
 6801SOL    HW221291   4.255   4.462   4.059
 6802SOL     OW21292   4.995   4.061   4.643
 6802SOL    HW121293   4.907   4.031   4.664
 6802SOL    HW221294   5.050   4.026   4.713
 6803SOL     OW21295   4.514   4.342   5.174
 6803SOL    HW121296   4.488   4.317   5.263
 6803SOL    HW221297   4.475   4.274   5.119
 6804SOL     OW21298   5.114   4.205   5.405
 6804SOL    HW121299   5.116   4.242   5.493
 6804SOL    HW221300   5.191   4.148   5.401
 6805SOL     OW21301   4.676   4.611   5.307
 6805SOL    HW121302   4.730   4.540   5.271
 6805SOL    HW221303   4.629   4.646   5.231
 6806SOL     OW21304   4.715   4.137   4.962
 6806SOL    HW121305   4.628   4.156   4.996
 6806SOL    HW221306   4.698   4.090   4.879
 6807SOL     OW21307   4.775   4.422   4.149
 6807SOL    HW121308   4.792   4.416   4.243
 6807SOL    HW221309   4.692   4.376   4.136
 6808SOL     OW21310   3.812   4.545   4.501
 6808SOL    HW121311   3.893   4.538   4.551
 6808SOL    HW221312   3.768   4.623   4.536
 6809SOL     OW21313   4.619   4.072   3.918
 6809SOL    HW121314   4.658   4.134   3.856
 6809SOL    HW221315   4.633   3.986   3.879
 6810SOL     OW21316   5.093   4.870   4.271
 6810SOL    HW121317   5.183   4.870   4.240
 6810SOL    HW221318   5.047   4.929   4.212
 6811SOL     OW21319   4.274   3.905   4.618
 6811SOL    HW121320   4.276   3.934   4.709
 6811SOL    HW221321   4.275   3.985   4.566
 6812SOL     OW21322   4.744   5.167   4.195
 6812SOL    HW121323   4.668   5.224   4.190
 6812SOL    HW221324   4.761   5.157   4.289
 6813SOL     OW21325   4.937   5.262   5.283
 6813SOL    HW121326   4.915   5.179   5.324
 6813SOL    HW221327   4.900   5.256   5.195
 6814SOL     OW21328   4.043   4.680   3.975
 6814SOL    HW121329   4.126   4.700   3.930
 6814SOL    HW221330   4.013   4.599   3.935
 6815SOL     OW21331   4.188   4.987   5.465
 6815SOL    HW121332   4.162   4.990   5.373
 6815SOL    HW221333   4.106   4.987   5.514
 6816SOL     OW21334   4.789   0.172   3.935
 6816SOL    HW121335   4.803   0.116   4.012
 6816SOL    HW221336   4.865   0.154   3.879
 6817SOL     OW21337   3.925   4.004   5.225
 6817SOL    HW121338   3.844   4.054   5.224
 6817SOL    HW221339   3.907   3.930   5.284
 6818SOL     OW21340   5.119   3.831   4.148
 6818SOL    HW121341   5.100   3.813   4.056
 6818SOL    HW221342   5.214   3.847   4.150
 6819SOL     OW21343   4.118   4.419   4.200
 6819SOL    HW121344   4.138   4.326   4.212
 6819SOL    HW221345   4.024   4.426   4.217
 6820SOL     OW21346   4.361   3.846   3.828
 6820SOL    HW121347   4.429   3.779   3.841
 6820SOL    HW221348   4.311   3.815   3.753
 6821SOL     OW21349   4.489   4.003   5.479
 6821SOL    HW121350   4.566   3.946   5.478
 6821SOL    HW221351   4.441   3.978   5.558
 6822SOL     OW21352   5.057   4.316   5.156
 6822SOL    HW121353   5.090   4.284   5.241
 6822SOL    HW221354   5.100   4.401   5.144
 6823SOL     OW21355   4.537   5.118   4.661
 6823SOL    HW121356   4.617   5.106   4.611
 6823SOL    HW221357   4.468   5.125   4.594
 6824SOL     OW21358   4.651   4.233   4.626
 6824SOL    HW121359   4.628   4.224   4.534
 6824SOL    HW221360   4.683   4.146   4.652
 6825SOL     OW21361   4.273   3.787   4.225
 6825SOL    HW121362   4.193   3.788   4.277
 6825SOL    HW221363   4.267   3.865   4.170
 6826SOL     OW21364   5.134   4.904   3.767
 6826SOL    HW121365   5.140   4.824   3.820
 6826SOL    HW221366   5.046   4.937   3.783
 6827SOL     OW21367   4.015   3.772   3.909
 6827SOL    HW121368   4.073   3.836   3.868
 6827SOL    HW221369   4.074   3.709   3.951
 6828SOL     OW21370   4.662   3.971   4.183
 6828SOL    HW121371   4.636   4.011   4.100
 6828SOL    HW221372   4.757   3.984   4.187
 6829SOL     OW21373   4.801   4.406   5.184
 6829SOL    HW121374   4.735   4.337   5.186
 6829SOL    HW221375   4.884   4.359   5.175
 6830SOL     OW21376   4.985   5.265   4.493
 6830SOL    HW121377   4.946   0.051   4.475
 6830SOL    HW221378   5.039   5.278   4.571
 6831SOL     OW21379   4.190   4.872   4.453
 6831SOL    HW121380   4.122   4.852   4.517
 6831SOL    HW221381   4.149   4.855   4.368
 6832SOL     OW21382   4.747   4.266   3.747
 6832SOL    HW121383   4.703   4.349   3.727
 6832SOL    HW221384   4.809   4.288   3.817
 6833SOL     OW21385   3.803   4.278   5.117
 6833SOL    HW121386   3.895   4.276   5.090
 6833SOL    HW221387   3.799   4.348   5.182
 6834SOL     OW21388   4.283   3.951   4.891
 6834SOL    HW121389   4.325   3.875   4.931
 6834SOL    HW221390   4.192   3.947   4.920
 6835SOL     OW21391   4.592   4.183   4.363
 6835SOL    HW121392   4.546   4.238   4.299
 6835SOL    HW221393   4.613   4.103   4.315
 6836SOL     OW21394   4.739   3.777   4.475
 6836SOL    HW121395   4.681   3.770   4.399
 6836SOL    HW221396   4.717   3.702   4.529
 6837SOL     OW21397   5.152   4.902   4.573
 6837SOL    HW121398   5.100   4.822   4.585
 6837SOL    HW221399   5.168   4.906   4.479
 6838SOL     OW21400   4.201   5.148   3.875
 6838SOL    HW121401   4.141   5.095   3.927
 6838SOL    HW221402   4.209   5.101   3.792
 6839SOL     OW21403   5.128   4.285   3.805
 6839SOL    HW121404   5.054   4.276   3.865
 6839SOL    HW221405   5.203   4.248   3.852
 6840SOL     OW21406   4.250   3.987   4.041
 6840SOL    HW121407   4.295   3.940   3.971
 6840SOL    HW221408   4.226   4.071   4.002
 6841SOL     OW21409   4.786   5.073   5.053
 6841SOL    HW121410   4.708   5.049   5.103
 6841SOL    HW221411   4.859   5.036   5.103
 6842SOL     OW21412   4.849   4.923   4.832
 6842SOL    HW121413   4.799   4.966   4.902
 6842SOL    HW221414   4.805   4.949   4.751
 6843SOL     OW21415   4.642   3.821   5.120
 6843SOL    HW121416   4.664   3.803   5.028
 6843SOL    HW221417   4.721   3.860   5.156
 6844SOL     OW21418   4.705   4.832   5.455
 6844SOL    HW121419   4.613   4.852   5.472
 6844SOL    HW221420   4.703   4.758   5.394
 6845SOL     OW21421   4.428   4.783   4.095
 6845SOL    HW121422   4.416   4.766   4.189
 6845SOL    HW221423   4.506   4.732   4.072
 6846SOL     OW21424   4.143   4.539   4.976
 6846SOL    HW121425   4.211   4.549   5.042
 6846SOL    HW221426   4.108   4.451   4.989
 6847SOL     OW21427   4.988   4.099   5.001
 6847SOL    HW121428   5.023   4.178   5.042
 6847SOL    HW221429   4.898   4.122   4.977
 6848SOL     OW21430   4.068   4.833   4.212
 6848SOL    HW121431   4.071   4.907   4.151
 6848SOL    HW221432   4.068   4.755   4.157
 6849SOL     OW21433   4.275   4.260   4.584
 6849SOL    HW121434   4.290   4.318   4.509
 6849SOL    HW221435   4.341   4.286   4.648
 6850SOL     OW21436   4.985   5.078   4.111
 6850SOL    HW121437   5.037   5.154   4.137
 6850SOL    HW221438   4.896   5.100   4.139
 6851SOL     OW21439   4.977   5.182   4.854
 6851SOL    HW121440   5.032   5.205   4.929
 6851SOL    HW221441   4.940   5.097   4.876
 6852SOL     OW21442   4.073   5.236   5.037
 6852SOL    HW121443   4.062   5.201   4.949
 6852SOL    HW221444   4.166   5.256   5.044
 6853SOL     OW21445   4.139   4.468   5.326
 6853SOL    HW121446   4.201   4.513   5.268
 6853SOL    HW221447   4.178   4.383   5.342
 6854SOL     OW21448   4.718   3.851   5.479
 6854SOL    HW121449   4.776   3.922   5.454
 6854SOL    HW221450   4.765   3.771   5.453
 6855SOL     OW21451   4.221   3.764   5.472
 6855SOL    HW121452   4.178   3.710   5.407
 6855SOL    HW221453   4.163   3.839   5.484
 6856SOL     OW21454   4.307   4.597   4.755
 6856SOL    HW121455   4.338   4.687   4.754
 6856SOL    HW221456   4.251   4.591   4.833
 6857SOL     OW21457   5.086   4.580   4.759
 6857SOL    HW121458   5.009   4.560   4.707
 6857SOL    HW221459   5.140   4.501   4.754
 6858SOL     OW21460   4.927   4.255   3.988
 6858SOL    HW121461   4.934   4.175   4.040
 6858SOL    HW221462   4.883   4.318   4.045
 6859SOL     OW21463   4.022   3.922   4.971
 6859SOL    HW121464   3.985   3.954   5.053
 6859SOL    HW221465   4.003   3.828   4.971
 6860SOL     OW21466   3.777   5.047   5.009
 6860SOL    HW121467   3.801   4.982   5.075
 6860SOL    HW221468   3.813   5.129   5.043
 6861SOL     OW21469   4.447   4.354   4.781
 6861SOL    HW121470   4.523   4.339   4.724
 6861SOL    HW221471   4.419   4.443   4.760
 6862SOL     OW21472   4.028   3.788   4.348
 6862SOL    HW121473   4.008   3.879   4.370
 6862SOL    HW221474   4.036   3.744   4.432
 6863SOL     OW21475   0.034   4.120   4.082
 6863SOL    HW121476   0.052   4.044   4.138
 6863SOL    HW221477   0.022   4.193   4.144
 6864SOL     OW21478   4.751   4.483   4.683
 6864SOL    HW121479   4.748   4.500   4.777
 6864SOL    HW221480   4.725   4.391   4.675
 6865SOL     OW21481   4.077   4.640   5.533
 6865SOL    HW121482   4.159   4.659   5.579
 6865SOL    HW221483   4.102   4.577   5.465
 6866SOL     OW21484   5.028   4.552   3.760
 6866SOL    HW121485   5.065   4.464   3.763
 6866SOL    HW221486   5.055   4.588   3.676
 6867SOL     OW21487   4.780   5.081   4.548
 6867SOL    HW121488   4.787   4.995   4.506
 6867SOL    HW221489   4.866   5.121   4.534
 6868SOL     OW21490   4.033   4.533   4.671
 6868SOL    HW121491   4.126   4.554   4.664
 6868SOL    HW221492   4.030   4.442   4.703
 6869SOL     OW21493   4.054   4.251   4.736
 6869SOL    HW121494   4.020   4.164   4.722
 6869SOL    HW221495   4.131   4.257   4.679
 6870SOL     OW21496   4.856   4.100   5.406
 6870SOL    HW121497   4.808   4.154   5.468
 6870SOL    HW221498   4.943   4.139   5.401
 6871SOL     OW21499   4.885   3.925   5.193
 6871SOL    HW121500   4.873   3.988   5.265
 6871SOL    HW221501   4.924   3.977   5.123
 6872SOL     OW21502   3.730   5.040   3.915
 6872SOL    HW121503   3.639   5.057   3.889
 6872SOL    HW221504   3.728   4.952   3.952
 6873SOL     OW21505   4.704   4.515   4.950
 6873SOL    HW121506   4.762   4.494   5.023
 6873SOL    HW221507   4.620   4.477   4.973
 6874SOL     OW21508   3.760   4.269   4.841
 6874SOL    HW121509   3.840   4.257   4.790
 6874SOL    HW221510   3.789   4.272   4.932
 6875SOL     OW21511   3.915   4.244   5.452
 6875SOL    HW121512   3.972   4.205   5.386
 6875SOL    HW221513   3.875   4.318   5.408
 6876SOL     OW21514   5.114   4.661   5.390
 6876SOL    HW121515   5.120   4.755   5.377
 6876SOL    HW221516   5.117   4.624   5.301
 6877SOL     OW21517   4.540   4.294   4.085
 6877SOL    HW121518   4.544   4.219   4.025
 6877SOL    HW221519   4.466   4.346   4.053
 6878SOL     OW21520   3.928   5.276   5.469
 6878SOL    HW121521   3.913   0.028   5.548
 6878SOL    HW221522   3.941   5.187   5.502
 6879SOL     OW21523   4.426   4.173   4.982
 6879SOL    HW121524   4.373   4.100   4.953
 6879SOL    HW221525   4.422   4.237   4.910
 6880SOL     OW21526   4.187   4.216   3.911
 6880SOL    HW121527   4.246   4.289   3.933
 6880SOL    HW221528   4.102   4.258   3.898
 6881SOL     OW21529   3.868   4.863   5.195
 6881SOL    HW121530   3.870   4.812   5.276
 6881SOL    HW221531   3.886   4.799   5.126
 6882SOL     OW21532   5.049   4.769   4.951
 6882SOL    HW121533   5.073   4.707   4.882
 6882SOL    HW221534   4.979   4.822   4.912
 6883SOL     OW21535   5.034   4.585   4.040
 6883SOL    HW121536   4.953   4.550   4.077
 6883SOL    HW221537   5.023   4.575   3.946
 6884SOL     OW21538   3.819   4.987   4.746
 6884SOL    HW121539   3.797   5.005   4.837
 6884SOL    HW221540   3.739   4.948   4.710
 6885SOL     OW21541   4.470   0.030   5.438
 6885SOL    HW121542   4.378   0.058   5.440
 6885SOL    HW221543   4.504   0.065   5.356
 6886SOL     OW21544   0.078   3.885   4.256
 6886SOL    HW121545   0.161   3.870   4.210
 6886SOL    HW221546   0.065   3.807   4.308
 6887SOL     OW21547   5.017   4.643   4.396
 6887SOL    HW121548   5.095   4.589   4.383
 6887SOL    HW221549   5.035   4.723   4.347
 6888SOL     OW21550   4.541   4.992   5.143
 6888SOL    HW121551   4.510   5.028   5.226
 6888SOL    HW221552   4.467   5.003   5.083
 6889SOL     OW21553   3.985   4.039   4.441
 6889SOL    HW121554   3.899   4.075   4.417
 6889SOL    HW221555   3.983   4.032   4.536
 6890SOL     OW21556   4.549   4.727   5.094
 6890SOL    HW121557   4.596   4.720   5.011
 6890SOL    HW221558   4.551   4.820   5.115
 6891SOL     OW21559   4.640   4.636   4.015
 6891SOL    HW121560   4.702   4.669   3.949
 6891SOL    HW221561   4.688   4.566   4.059
 6892SOL     OW21562   4.088   5.026   5.221
 6892SOL    HW121563   4.078   5.100   5.161
 6892SOL    HW221564   4.012   4.970   5.204
 6893SOL     OW21565   4.779   4.834   4.437
 6893SOL    HW121566   4.707   4.783   4.474
 6893SOL    HW221567   4.837   4.769   4.398
 6894SOL     OW21568   4.739   3.963   4.693
 6894SOL    HW121569   4.737   3.916   4.609
 6894SOL    HW221570   4.735   3.894   4.759
 6895SOL     OW21571   3.982   5.050   4.008
 6895SOL    HW121572   3.890   5.052   3.980
 6895SOL    HW221573   3.983   5.095   4.092
 6896SOL     OW21574   3.836   4.747   5.443
 6896SOL    HW121575   3.760   4.723   5.496
 6896SOL    HW221576   3.911   4.709   5.489
 6897SOL     OW21577   4.399   3.920   5.224
 6897SOL    HW121578   4.483   3.900   5.183
 6897SOL    HW221579   4.422   3.952   5.311
 6898SOL     OW21580   3.803   4.057   3.759
 6898SOL    HW121581   3.716   4.037   3.724
 6898SOL    HW221582   3.832   4.132   3.708
 6899SOL     OW21583   5.164   4.584   5.127
 6899SOL    HW121584   5.111   4.641   5.072
 6899SOL    HW221585   5.253   4.591   5.092
 6900SOL     OW21586   3.792   3.881   4.033
 6900SOL    HW121587   3.778   3.960   3.981
 6900SOL    HW221588   3.877   3.848   4.004
 6901SOL     OW21589   4.908   5.059   3.845
 6901SOL    HW121590   4.814   5.040   3.844
 6901SOL    HW221591   4.933   5.055   3.937
 6902SOL     OW21592   4.343   4.555   5.158
 6902SOL    HW121593   4.400   4.630   5.142
 6902SOL    HW221594   4.403   4.481   5.166
 6903SOL     OW21595   4.441   4.287   5.427
 6903SOL    HW121596   4.483   4.348   5.488
 6903SOL    HW221597   4.466   4.200   5.460
 6904SOL     OW21598   5.184   4.927   5.357
 6904SOL    HW121599   5.172   4.939   5.451
 6904SOL    HW221600   5.278   4.931   5.343
 6905SOL     OW21601   4.939   4.044   4.179
 6905SOL    HW121602   5.001   3.972   4.167
 6905SOL    HW221603   4.969   4.088   4.259
 6906SOL     OW21604   4.314   4.461   4.394
 6906SOL    HW121605   4.352   4.547   4.380
 6906SOL    HW221606   4.246   4.453   4.326
 6907SOL     OW21607   4.581   5.094   3.744
 6907SOL    HW121608   4.558   5.097   3.837
 6907SOL    HW221609   4.586   5.186   3.718
 6908SOL     OW21610   4.593   4.692   4.579
 6908SOL    HW121611   4.642   4.620   4.619
 6908SOL    HW221612   4.557   4.741   4.653
 6909SOL     OW21613   4.809   4.713   3.817
 6909SOL    HW121614   4.781   4.760   3.738
 6909SOL    HW221615   4.882   4.658   3.787
 6910SOL     OW21616   3.946   5.023   5.576
 6910SOL    HW121617   3.878   4.960   5.551
 6910SOL    HW221618   3.935   5.033   5.671
 6911SOL     OW21619   3.811   4.954   4.394
 6911SOL    HW121620   3.811   4.903   4.474
 6911SOL    HW221621   3.874   4.911   4.337
 6912SOL     OW21622   4.395   5.102   5.333
 6912SOL    HW121623   4.318   5.072   5.381
 6912SOL    HW221624   4.427   5.178   5.382
 6913SOL     OW21625   4.153   4.158   4.250
 6913SOL    HW121626   4.183   4.087   4.193
 6913SOL    HW221627   4.105   4.113   4.319
 6914SOL     OW21628   0.123   5.230   4.773
 6914SOL    HW121629   0.039   5.205   4.736
 6914SOL    HW221630   0.106   5.241   4.867
 6915SOL     OW21631   4.054   4.280   5.016
 6915SOL    HW121632   4.110   4.225   5.071
 6915SOL    HW221633   4.074   4.252   4.926
 6916SOL     OW21634   5.146   3.943   4.839
 6916SOL    HW121635   5.192   3.878   4.893
 6916SOL    HW221636   5.100   3.998   4.902
 6917SOL     OW21637   4.729   3.742   4.865
 6917SOL    HW121638   4.676   3.674   4.824
 6917SOL    HW221639   4.817   3.704   4.870
 6918SOL     OW21640   4.527   5.046   4.008
 6918SOL    HW121641   4.469   4.973   4.029
 6918SOL    HW221642   4.583   5.055   4.086
 6919SOL     OW21643   4.346   5.300   5.017
 6919SOL    HW121644   4.352   0.053   5.096
 6919SOL    HW221645   4.437   5.280   4.994
 6920SOL     OW21646   5.057   3.769   3.891
 6920SOL    HW121647   5.079   3.729   3.807
 6920SOL    HW221648   4.972   3.732   3.914
 6921SOL     OW21649   5.027   4.182   4.405
 6921SOL    HW121650   4.973   4.261   4.409
 6921SOL    HW221651   5.016   4.141   4.491
 6922SOL     OW21652   0.002   3.950   4.606
 6922SOL    HW121653   5.237   3.938   4.674
 6922SOL    HW221654   5.274   4.029   4.560
 6923SOL     OW21655   3.766   4.793   4.032
 6923SOL    HW121656   3.860   4.787   4.015
 6923SOL    HW221657   3.740   4.704   4.054
 6924SOL     OW21658   3.953   4.347   5.710
 6924SOL    HW121659   3.863   4.346   5.745
 6924SOL    HW221660   3.943   4.322   5.618
 6925SOL     OW21661   3.949   4.006   6.578
 6925SOL    HW121662   3.977   3.971   6.662
 6925SOL    HW221663   3.859   3.974   6.568
 6926SOL     OW21664   3.727   4.107   6.224
 6926SOL    HW121665   3.645   4.132   6.266
 6926SOL    HW221666   3.706   4.028   6.175
 6927SOL     OW21667   4.291   5.007   6.767
 6927SOL    HW121668   4.206   5.005   6.722
 6927SOL    HW221669   4.303   5.098   6.792
 6928SOL     OW21670   5.275   5.231   6.278
 6928SOL    HW121671   5.268   5.216   6.372
 6928SOL    HW221672   5.184   5.231   6.248
 6929SOL     OW21673   4.859   4.423   6.285
 6929SOL    HW121674   4.909   4.504   6.275
 6929SOL    HW221675   4.810   4.435   6.366
 6930SOL     OW21676   4.478   4.867   6.625
 6930SOL    HW121677   4.411   4.899   6.686
 6930SOL    HW221678   4.509   4.945   6.579
 6931SOL     OW21679   4.593   4.498   7.407
 6931SOL    HW121680   4.570   4.572   7.463
 6931SOL    HW221681   4.617   4.537   7.323
 6932SOL     OW21682   4.410   4.725   6.233
 6932SOL    HW121683   4.475   4.715   6.303
 6932SOL    HW221684   4.341   4.779   6.272
 6933SOL     OW21685   4.433   4.874   7.400
 6933SOL    HW121686   4.482   4.953   7.422
 6933SOL    HW221687   4.351   4.906   7.362
 6934SOL     OW21688   4.061   5.149   6.645
 6934SOL    HW121689   3.983   5.104   6.612
 6934SOL    HW221690   4.099   5.191   6.569
 6935SOL     OW21691   5.127   5.237   6.926
 6935SOL    HW121692   5.146   0.007   6.989
 6935SOL    HW221693   5.105   5.162   6.981
 6936SOL     OW21694   4.174   4.122   7.073
 6936SOL    HW121695   4.249   4.063   7.078
 6936SOL    HW221696   4.098   4.066   7.086
 6937SOL     OW21697   4.865   5.049   7.285
 6937SOL    HW121698   4.887   5.064   7.377
 6937SOL    HW221699   4.803   4.976   7.287
 6938SOL     OW21700   3.933   5.157   6.107
 6938SOL    HW121701   3.961   5.237   6.150
 6938SOL    HW221702   3.883   5.110   6.173
 6939SOL     OW21703   3.983   4.811   6.478
 6939SOL    HW121704   3.981   4.724   6.517
 6939SOL    HW221705   3.926   4.864   6.534
 6940SOL     OW21706   4.308   4.706   5.721
 6940SOL    HW121707   4.355   4.754   5.653
 6940SOL    HW221708   4.347   4.736   5.803
 6941SOL     OW21709   3.839   4.377   6.146
 6941SOL    HW121710   3.810   4.288   6.167
 6941SOL    HW221711   3.831   4.425   6.228
 6942SOL     OW21712   3.710   0.013   5.683
 6942SOL    HW121713   3.726   5.224   5.715
 6942SOL    HW221714   3.732   0.069   5.758
 6943SOL     OW21715   0.112   4.657   6.152
 6943SOL    HW121716   0.200   4.625   6.172
 6943SOL    HW221717   0.124   4.750   6.132
 6944SOL     OW21718   3.847   4.467   7.172
 6944SOL    HW121719   3.939   4.493   7.178
 6944SOL    HW221720   3.798   4.548   7.179
 6945SOL     OW21721   4.346   5.098   6.324
 6945SOL    HW121722   4.292   5.019   6.321
 6945SOL    HW221723   4.328   5.143   6.241
 6946SOL     OW21724   5.021   4.973   7.005
 6946SOL    HW121725   5.048   4.900   6.948
 6946SOL    HW221726   5.067   4.956   7.087
 6947SOL     OW21727   4.539   3.725   6.096
 6947SOL    HW121728   4.580   3.809   6.075
 6947SOL    HW221729   4.446   3.745   6.104
 6948SOL     OW21730   3.914   4.689   6.857
 6948SOL    HW121731   3.999   4.647   6.843
 6948SOL    HW221732   3.852   4.635   6.808
 6949SOL     OW21733   4.058   3.972   7.401
 6949SOL    HW121734   4.102   4.057   7.415
 6949SOL    HW221735   3.968   3.987   7.430
 6950SOL     OW21736   5.178   5.153   6.537
 6950SOL    HW121737   5.110   5.163   6.603
 6950SOL    HW221738   5.164   5.066   6.500
 6951SOL     OW21739   0.043   0.164   6.150
 6951SOL    HW121740   0.086   0.125   6.074
 6951SOL    HW221741   0.033   0.091   6.211
 6952SOL     OW21742   4.320   4.444   5.853
 6952SOL    HW121743   4.325   4.526   5.804
 6952SOL    HW221744   4.255   4.462   5.921
 6953SOL     OW21745   4.995   4.061   6.505
 6953SOL    HW121746   4.907   4.031   6.526
 6953SOL    HW221747   5.050   4.026   6.575
 6954SOL     OW21748   4.514   4.342   7.036
 6954SOL    HW121749   4.489   4.317   7.125
 6954SOL    HW221750   4.475   4.274   6.981
 6955SOL     OW21751   5.115   4.206   7.267
 6955SOL    HW121752   5.117   4.242   7.355
 6955SOL    HW221753   5.191   4.148   7.262
 6956SOL     OW21754   4.677   4.611   7.168
 6956SOL    HW121755   4.730   4.540   7.132
 6956SOL    HW221756   4.629   4.646   7.093
 6957SOL     OW21757   4.715   4.137   6.823
 6957SOL    HW121758   4.628   4.156   6.858
 6957SOL    HW221759   4.698   4.090   6.742
 6958SOL     OW21760   4.775   4.422   6.011
 6958SOL    HW121761   4.792   4.416   6.105
 6958SOL    HW221762   4.692   4.376   5.998
 6959SOL     OW21763   3.812   4.545   6.362
 6959SOL    HW121764   3.893   4.538   6.413
 6959SOL    HW221765   3.768   4.623   6.398
 6960SOL     OW21766   4.619   4.072   5.780
 6960SOL    HW121767   4.658   4.134   5.718
 6960SOL    HW221768   4.633   3.986   5.741
 6961SOL     OW21769   5.093   4.869   6.133
 6961SOL    HW121770   5.183   4.870   6.102
 6961SOL    HW221771   5.047   4.929   6.074
 6962SOL     OW21772   4.274   3.905   6.480
 6962SOL    HW121773   4.276   3.934   6.571
 6962SOL    HW221774   4.275   3.985   6.428
 6963SOL     OW21775   4.744   5.167   6.057
 6963SOL    HW121776   4.668   5.224   6.052
 6963SOL    HW221777   4.761   5.157   6.151
 6964SOL     OW21778   4.939   5.262   7.145
 6964SOL    HW121779   4.915   5.178   7.186
 6964SOL    HW221780   4.900   5.257   7.058
 6965SOL     OW21781   4.044   4.680   5.837
 6965SOL    HW121782   4.126   4.700   5.792
 6965SOL    HW221783   4.013   4.599   5.797
 6966SOL     OW21784   4.187   4.987   7.329
 6966SOL    HW121785   4.160   4.990   7.237
 6966SOL    HW221786   4.104   4.987   7.377
 6967SOL     OW21787   4.790   0.172   5.797
 6967SOL    HW121788   4.803   0.117   5.874
 6967SOL    HW221789   4.865   0.154   5.741
 6968SOL     OW21790   3.925   4.004   7.088
 6968SOL    HW121791   3.843   4.052   7.084
 6968SOL    HW221792   3.906   3.929   7.145
 6969SOL     OW21793   5.119   3.831   6.010
 6969SOL    HW121794   5.100   3.813   5.918
 6969SOL    HW221795   5.214   3.847   6.012
 6970SOL     OW21796   4.118   4.419   6.062
 6970SOL    HW121797   4.137   4.326   6.074
 6970SOL    HW221798   4.024   4.426   6.079
 6971SOL     OW21799   4.361   3.846   5.691
 6971SOL    HW121800   4.429   3.779   5.703
 6971SOL    HW221801   4.311   3.814   5.615
 6972SOL     OW21802   4.488   4.002   7.341
 6972SOL    HW121803   4.566   3.946   7.340
 6972SOL    HW221804   4.445   3.983   7.424
 6973SOL     OW21805   5.057   4.316   7.018
 6973SOL    HW121806   5.090   4.285   7.102
 6973SOL    HW221807   5.100   4.401   7.006
 6974SOL     OW21808   4.537   5.118   6.523
 6974SOL    HW121809   4.618   5.106   6.473
 6974SOL    HW221810   4.468   5.125   6.456
 6975SOL     OW21811   4.651   4.233   6.488
 6975SOL    HW121812   4.628   4.224   6.396
 6975SOL    HW221813   4.683   4.146   6.514
 6976SOL     OW21814   4.273   3.787   6.087
 6976SOL    HW121815   4.193   3.788   6.139
 6976SOL    HW221816   4.267   3.865   6.032
 6977SOL     OW21817   5.134   4.904   5.629
 6977SOL    HW121818   5.140   4.824   5.682
 6977SOL    HW221819   5.046   4.938   5.645
 6978SOL     OW21820   4.015   3.772   5.771
 6978SOL    HW121821   4.074   3.836   5.731
 6978SOL    HW221822   4.074   3.708   5.813
 6979SOL     OW21823   4.662   3.971   6.045
 6979SOL    HW121824   4.636   4.011   5.962
 6979SOL    HW221825   4.757   3.984   6.049
 6980SOL     OW21826   4.801   4.406   7.046
 6980SOL    HW121827   4.735   4.337   7.048
 6980SOL    HW221828   4.884   4.359   7.037
 6981SOL     OW21829   4.985   5.265   6.355
 6981SOL    HW121830   4.946   0.051   6.337
 6981SOL    HW221831   5.038   5.278   6.433
 6982SOL     OW21832   4.190   4.872   6.315
 6982SOL    HW121833   4.122   4.852   6.379
 6982SOL    HW221834   4.149   4.855   6.230
 6983SOL     OW21835   4.747   4.266   5.609
 6983SOL    HW121836   4.703   4.349   5.589
 6983SOL    HW221837   4.809   4.288   5.679
 6984SOL     OW21838   3.804   4.278   6.978
 6984SOL    HW121839   3.896   4.277   6.951
 6984SOL    HW221840   3.799   4.348   7.043
 6985SOL     OW21841   4.283   3.951   6.753
 6985SOL    HW121842   4.325   3.876   6.794
 6985SOL    HW221843   4.192   3.947   6.782
 6986SOL     OW21844   4.592   4.183   6.225
 6986SOL    HW121845   4.546   4.238   6.161
 6986SOL    HW221846   4.613   4.103   6.177
 6987SOL     OW21847   4.739   3.777   6.337
 6987SOL    HW121848   4.681   3.770   6.261
 6987SOL    HW221849   4.717   3.702   6.391
 6988SOL     OW21850   5.152   4.902   6.435
 6988SOL    HW121851   5.100   4.822   6.447
 6988SOL    HW221852   5.169   4.906   6.341
 6989SOL     OW21853   4.202   5.148   5.737
 6989SOL    HW121854   4.142   5.095   5.790
 6989SOL    HW221855   4.209   5.101   5.654
 6990SOL     OW21856   5.128   4.285   5.667
 6990SOL    HW121857   5.054   4.276   5.728
 6990SOL    HW221858   5.203   4.247   5.713
 6991SOL     OW21859   4.249   3.987   5.903
 6991SOL    HW121860   4.295   3.940   5.833
 6991SOL    HW221861   4.226   4.071   5.864
 6992SOL     OW21862   4.786   5.073   6.915
 6992SOL    HW121863   4.708   5.049   6.965
 6992SOL    HW221864   4.859   5.036   6.965
 6993SOL     OW21865   4.849   4.923   6.694
 6993SOL    HW121866   4.799   4.966   6.764
 6993SOL    HW221867   4.805   4.949   6.613
 6994SOL     OW21868   4.641   3.821   6.981
 6994SOL    HW121869   4.664   3.803   6.890
 6994SOL    HW221870   4.721   3.860   7.018
 6995SOL     OW21871   4.706   4.831   7.319
 6995SOL    HW121872   4.614   4.852   7.334
 6995SOL    HW221873   4.704   4.757   7.258
 6996SOL     OW21874   4.428   4.782   5.957
 6996SOL    HW121875   4.416   4.766   6.051
 6996SOL    HW221876   4.506   4.732   5.934
 6997SOL     OW21877   4.143   4.539   6.837
 6997SOL    HW121878   4.211   4.549   6.904
 6997SOL    HW221879   4.108   4.451   6.851
 6998SOL     OW21880   4.988   4.099   6.863
 6998SOL    HW121881   5.023   4.179   6.904
 6998SOL    HW221882   4.898   4.122   6.839
 6999SOL     OW21883   4.068   4.833   6.074
 6999SOL    HW121884   4.071   4.907   6.013
 6999SOL    HW221885   4.068   4.755   6.019
 7000SOL     OW21886   4.275   4.260   6.446
 7000SOL    HW121887   4.291   4.318   6.371
 7000SOL    HW221888   4.341   4.286   6.510
 7001SOL     OW21889   4.985   5.078   5.973
 7001SOL    HW121890   5.037   5.154   5.999
 7001SOL    HW221891   4.896   5.100   6.001
 7002SOL     OW21892   4.977   5.182   6.716
 7002SOL    HW121893   5.032   5.205   6.791
 7002SOL    HW221894   4.940   5.097   6.738
 7003SOL     OW21895   4.073   5.236   6.900
 7003SOL    HW121896   4.062   5.200   6.811
 7003SOL    HW221897   4.166   5.256   6.905
 7004SOL     OW21898   4.139   4.469   7.188
 7004SOL    HW121899   4.201   4.513   7.130
 7004SOL    HW221900   4.177   4.383   7.203
 7005SOL     OW21901   4.718   3.851   7.340
 7005SOL    HW121902   4.776   3.922   7.314
 7005SOL    HW221903   4.765   3.771   7.315
 7006SOL     OW21904   4.222   3.763   7.334
 7006SOL    HW121905   4.179   3.709   7.268
 7006SOL    HW221906   4.164   3.838   7.346
 7007SOL     OW21907   4.307   4.597   6.617
 7007SOL    HW121908   4.338   4.687   6.616
 7007SOL    HW221909   4.251   4.591   6.694
 7008SOL     OW21910   5.086   4.580   6.621
 7008SOL    HW121911   5.009   4.560   6.568
 7008SOL    HW221912   5.140   4.501   6.616
 7009SOL     OW21913   4.927   4.255   5.850
 7009SOL    HW121914   4.934   4.175   5.902
 7009SOL    HW221915   4.883   4.318   5.907
 7010SOL     OW21916   4.022   3.922   6.833
 7010SOL    HW121917   3.985   3.954   6.915
 7010SOL    HW221918   4.003   3.828   6.833
 7011SOL     OW21919   3.778   5.047   6.871
 7011SOL    HW121920   3.801   4.982   6.937
 7011SOL    HW221921   3.813   5.129   6.905
 7012SOL     OW21922   4.447   4.354   6.643
 7012SOL    HW121923   4.523   4.339   6.586
 7012SOL    HW221924   4.419   4.443   6.622
 7013SOL     OW21925   4.027   3.788   6.209
 7013SOL    HW121926   4.008   3.878   6.232
 7013SOL    HW221927   4.035   3.743   6.294
 7014SOL     OW21928   0.034   4.120   5.944
 7014SOL    HW121929   0.052   4.044   6.000
 7014SOL    HW221930   0.022   4.192   6.006
 7015SOL     OW21931   4.751   4.483   6.545
 7015SOL    HW121932   4.748   4.500   6.639
 7015SOL    HW221933   4.725   4.391   6.537
 7016SOL     OW21934   4.077   4.639   7.396
 7016SOL    HW121935   4.160   4.659   7.439
 7016SOL    HW221936   4.101   4.577   7.327
 7017SOL     OW21937   5.028   4.552   5.622
 7017SOL    HW121938   5.065   4.464   5.625
 7017SOL    HW221939   5.055   4.588   5.538
 7018SOL     OW21940   4.780   5.081   6.410
 7018SOL    HW121941   4.787   4.995   6.368
 7018SOL    HW221942   4.866   5.121   6.396
 7019SOL     OW21943   4.033   4.532   6.533
 7019SOL    HW121944   4.126   4.553   6.526
 7019SOL    HW221945   4.030   4.442   6.565
 7020SOL     OW21946   4.054   4.251   6.599
 7020SOL    HW121947   4.019   4.163   6.584
 7020SOL    HW221948   4.131   4.256   6.541
 7021SOL     OW21949   4.857   4.100   7.266
 7021SOL    HW121950   4.809   4.155   7.328
 7021SOL    HW221951   4.944   4.139   7.261
 7022SOL     OW21952   4.885   3.925   7.055
 7022SOL    HW121953   4.873   3.987   7.126
 7022SOL    HW221954   4.924   3.977   6.984
 7023SOL     OW21955   3.730   5.039   5.777
 7023SOL    HW121956   3.639   5.057   5.751
 7023SOL    HW221957   3.728   4.951   5.814
 7024SOL     OW21958   4.704   4.515   6.812
 7024SOL    HW121959   4.761   4.493   6.885
 7024SOL    HW221960   4.620   4.476   6.835
 7025SOL     OW21961   3.760   4.269   6.703
 7025SOL    HW121962   3.840   4.257   6.652
 7025SOL    HW221963   3.788   4.272   6.794
 7026SOL     OW21964   3.916   4.243   7.314
 7026SOL    HW121965   3.971   4.203   7.247
 7026SOL    HW221966   3.875   4.318   7.270
 7027SOL     OW21967   5.113   4.661   7.253
 7027SOL    HW121968   5.119   4.755   7.240
 7027SOL    HW221969   5.116   4.624   7.164
 7028SOL     OW21970   4.540   4.293   5.947
 7028SOL    HW121971   4.544   4.219   5.887
 7028SOL    HW221972   4.466   4.346   5.915
 7029SOL     OW21973   3.928   5.275   7.330
 7029SOL    HW121974   3.895   0.023   7.405
 7029SOL    HW221975   3.943   5.186   7.363
 7030SOL     OW21976   4.427   4.173   6.844
 7030SOL    HW121977   4.373   4.100   6.815
 7030SOL    HW221978   4.422   4.237   6.772
 7031SOL     OW21979   4.187   4.216   5.772
 7031SOL    HW121980   4.246   4.289   5.794
 7031SOL    HW221981   4.102   4.258   5.760
 7032SOL     OW21982   3.868   4.863   7.057
 7032SOL    HW121983   3.870   4.812   7.138
 7032SOL    HW221984   3.886   4.799   6.988
 7033SOL     OW21985   5.049   4.769   6.813
 7033SOL    HW121986   5.073   4.707   6.744
 7033SOL    HW221987   4.979   4.822   6.774
 7034SOL     OW21988   5.034   4.585   5.902
 7034SOL    HW121989   4.953   4.550   5.939
 7034SOL    HW221990   5.023   4.575   5.808
 7035SOL     OW21991   3.819   4.987   6.608
 7035SOL    HW121992   3.797   5.005   6.699
 7035SOL    HW221993   3.739   4.948   6.572
 7036SOL     OW21994   4.469   0.028   7.302
 7036SOL    HW121995   4.377   0.057   7.302
 7036SOL    HW221996   4.506   0.066   7.223
 7037SOL     OW21997   0.078   3.885   6.118
 7037SOL    HW121998   0.161   3.870   6.072
 7037SOL    HW221999   0.065   3.807   6.170
 7038SOL     OW22000   5.017   4.643   6.258
 7038SOL    HW122001   5.095   4.589   6.245
 7038SOL    HW222002   5.035   4.723   6.209
 7039SOL     OW22003   4.541   4.992   7.005
 7039SOL    HW122004   4.510   5.028   7.088
 7039SOL    HW222005   4.467   5.003   6.945
 7040SOL     OW22006   3.985   4.039   6.302
 7040SOL    HW122007   3.899   4.075   6.279
 7040SOL    HW222008   3.983   4.032   6.398
 7041SOL     OW22009   4.549   4.727   6.957
 7041SOL    HW122010   4.595   4.720   6.873
 7041SOL    HW222011   4.551   4.820   6.977
 7042SOL     OW22012   4.640   4.636   5.877
 7042SOL    HW122013   4.702   4.669   5.811
 7042SOL    HW222014   4.688   4.566   5.921
 7043SOL     OW22015   4.088   5.027   7.084
 7043SOL    HW122016   4.078   5.100   7.023
 7043SOL    HW222017   4.013   4.970   7.066
 7044SOL     OW22018   4.779   4.834   6.299
 7044SOL    HW122019   4.707   4.783   6.336
 7044SOL    HW222020   4.837   4.768   6.260
 7045SOL     OW22021   4.739   3.963   6.555
 7045SOL    HW122022   4.737   3.916   6.471
 7045SOL    HW222023   4.735   3.894   6.621
 7046SOL     OW22024   3.982   5.050   5.870
 7046SOL    HW122025   3.890   5.052   5.842
 7046SOL    HW222026   3.983   5.095   5.954
 7047SOL     OW22027   3.837   4.748   7.306
 7047SOL    HW122028   3.760   4.724   7.358
 7047SOL    HW222029   3.911   4.709   7.352
 7048SOL     OW22030   4.398   3.920   7.086
 7048SOL    HW122031   4.483   3.900   7.045
 7048SOL    HW222032   4.421   3.951   7.173
 7049SOL     OW22033   3.803   4.057   5.621
 7049SOL    HW122034   3.716   4.038   5.586
 7049SOL    HW222035   3.833   4.132   5.570
 7050SOL     OW22036   5.164   4.584   6.990
 7050SOL    HW122037   5.111   4.641   6.934
 7050SOL    HW222038   5.253   4.591   6.954
 7051SOL     OW22039   3.791   3.880   5.894
 7051SOL    HW122040   3.778   3.960   5.844
 7051SOL    HW222041   3.876   3.847   5.865
 7052SOL     OW22042   4.908   5.058   5.707
 7052SOL    HW122043   4.814   5.041   5.706
 7052SOL    HW222044   4.933   5.055   5.799
 7053SOL     OW22045   4.343   4.555   7.020
 7053SOL    HW122046   4.400   4.630   7.004
 7053SOL    HW222047   4.403   4.481   7.028
 7054SOL     OW22048   4.442   4.286   7.290
 7054SOL    HW122049   4.483   4.347   7.352
 7054SOL    HW222050   4.466   4.199   7.322
 7055SOL     OW22051   5.184   4.926   7.218
 7055SOL    HW122052   5.172   4.939   7.312
 7055SOL    HW222053   5.278   4.931   7.205
 7056SOL     OW22054   4.939   4.044   6.041
 7056SOL    HW122055   5.001   3.972   6.029
 7056SOL    HW222056   4.969   4.088   6.121
 7057SOL     OW22057   4.314   4.461   6.256
 7057SOL    HW122058   4.352   4.547   6.242
 7057SOL    HW222059   4.246   4.453   6.188
 7058SOL     OW22060   4.581   5.094   5.606
 7058SOL    HW122061   4.558   5.097   5.699
 7058SOL    HW222062   4.586   5.186   5.580
 7059SOL     OW22063   4.593   4.692   6.441
 7059SOL    HW122064   4.642   4.620   6.481
 7059SOL    HW222065   4.557   4.741   6.516
 7060SOL     OW22066   4.809   4.712   5.679
 7060SOL    HW122067   4.781   4.760   5.600
 7060SOL    HW222068   4.882   4.658   5.649
 7061SOL     OW22069   3.945   5.022   7.441
 7061SOL    HW122070   3.880   4.958   7.410
 7061SOL    HW222071   3.923   5.035   7.534
 7062SOL     OW22072   3.810   4.954   6.256
 7062SOL    HW122073   3.810   4.903   6.336
 7062SOL    HW222074   3.874   4.911   6.199
 7063SOL     OW22075   4.395   5.101   7.195
 7063SOL    HW122076   4.317   5.072   7.243
 7063SOL    HW222077   4.426   5.177   7.243
 7064SOL     OW22078   4.153   4.158   6.112
 7064SOL    HW122079   4.183   4.087   6.055
 7064SOL    HW222080   4.105   4.113   6.181
 7065SOL     OW22081   0.123   5.230   6.635
 7065SOL    HW122082   0.039   5.205   6.598
 7065SOL    HW222083   0.106   5.241   6.729
 7066SOL     OW22084   4.055   4.280   6.878
 7066SOL    HW122085   4.111   4.224   6.933
 7066SOL    HW222086   4.074   4.252   6.789
 7067SOL     OW22087   5.146   3.943   6.701
 7067SOL    HW122088   5.192   3.878   6.755
 7067SOL    HW222089   5.100   3.998   6.764
 7068SOL     OW22090   4.729   3.742   6.727
 7068SOL    HW122091   4.676   3.674   6.686
 7068SOL    HW222092   4.817   3.704   6.732
 7069SOL     OW22093   4.527   5.046   5.870
 7069SOL    HW122094   4.469   4.973   5.890
 7069SOL    HW222095   4.582   5.055   5.948
 7070SOL     OW22096   4.346   5.300   6.879
 7070SOL    HW122097   4.352   0.053   6.958
 7070SOL    HW222098   4.437   5.280   6.856
 7071SOL     OW22099   5.056   3.770   5.753
 7071SOL    HW122100   5.079   3.729   5.670
 7071SOL    HW222101   4.971   3.732   5.776
 7072SOL     OW22102   5.027   4.182   6.267
 7072SOL    HW122103   4.973   4.261   6.271
 7072SOL    HW222104   5.016   4.141   6.353
 7073SOL     OW22105   0.002   3.950   6.467
 7073SOL    HW122106   5.237   3.937   6.536
 7073SOL    HW222107   5.274   4.029   6.422
 7074SOL     OW22108   3.766   4.793   5.894
 7074SOL    HW122109   3.860   4.787   5.877
 7074SOL    HW222110   3.740   4.704   5.916
 7075SOL     OW22111   3.952   4.343   7.572
 7075SOL    HW122112   3.862   4.351   7.604
 7075SOL    HW222113   3.944   4.321   7.480
 7076SOL     OW22114   4.002   0.125   7.958
 7076SOL    HW122115   3.976   0.210   7.993
 7076SOL    HW222116   4.007   0.138   7.863
 7077SOL     OW22117   3.941   5.157   7.991
 7077SOL    HW122118   3.955   5.251   7.997
 7077SOL    HW222119   3.883   5.137   8.065
 7078SOL     OW22120   4.309   4.705   7.579
 7078SOL    HW122121   4.354   4.756   7.511
 7078SOL    HW222122   4.347   4.737   7.662
 7079SOL     OW22123   3.724   0.010   7.537
 7079SOL    HW122124   3.727   5.221   7.573
 7079SOL    HW222125   3.723   0.067   7.613
 7080SOL     OW22126   0.118   4.651   8.013
 7080SOL    HW122127   0.209   4.640   8.037
 7080SOL    HW222128   0.107   4.745   7.999
 7081SOL     OW22129   4.525   3.719   7.938
 7081SOL    HW122130   4.575   3.799   7.921
 7081SOL    HW222131   4.434   3.748   7.946
 7082SOL     OW22132   4.315   4.448   7.709
 7082SOL    HW122133   4.317   4.531   7.660
 7082SOL    HW222134   4.255   4.465   7.782
 7083SOL     OW22135   3.783   4.587   0.088
 7083SOL    HW122136   3.847   4.522   0.114
 7083SOL    HW222137   3.782   4.651   0.159
 7084SOL     OW22138   4.609   4.070   7.639
 7084SOL    HW122139   4.651   4.129   7.576
 7084SOL    HW222140   4.640   3.983   7.615
 7085SOL     OW22141   4.046   4.680   7.698
 7085SOL    HW122142   4.126   4.697   7.648
 7085SOL    HW222143   4.009   4.601   7.657
 7086SOL     OW22144   4.795   0.182   7.647
 7086SOL    HW122145   4.791   0.141   7.734
 7086SOL    HW222146   4.877   0.150   7.610
 7087SOL     OW22147   5.132   3.850   7.855
 7087SOL    HW122148   5.096   3.826   7.770
 7087SOL    HW222149   5.227   3.851   7.841
 7088SOL     OW22150   4.116   4.422   7.918
 7088SOL    HW122151   4.117   4.327   7.927
 7088SOL    HW222152   4.025   4.447   7.934
 7089SOL     OW22153   4.355   3.843   7.559
 7089SOL    HW122154   4.428   3.782   7.570
 7089SOL    HW222155   4.310   3.813   7.480
 7090SOL     OW22156   4.256   3.799   7.959
 7090SOL    HW122157   4.171   3.803   8.002
 7090SOL    HW222158   4.254   3.870   7.895
 7091SOL     OW22159   5.136   4.907   7.490
 7091SOL    HW122160   5.145   4.829   7.545
 7091SOL    HW222161   5.047   4.938   7.508
 7092SOL     OW22162   4.016   3.773   7.633
 7092SOL    HW122163   4.074   3.834   7.587
 7092SOL    HW222164   4.075   3.709   7.672
 7093SOL     OW22165   4.667   3.950   7.909
 7093SOL    HW122166   4.625   4.014   7.851
 7093SOL    HW222167   4.758   3.978   7.913
 7094SOL     OW22168   4.163   4.873   0.099
 7094SOL    HW122169   4.089   4.913   0.145
 7094SOL    HW222170   4.132   4.861   0.009
 7095SOL     OW22171   4.750   4.267   7.467
 7095SOL    HW122172   4.703   4.349   7.450
 7095SOL    HW222173   4.804   4.286   7.544
 7096SOL     OW22174   4.194   5.152   7.600
 7096SOL    HW122175   4.138   5.097   7.655
 7096SOL    HW222176   4.205   5.100   7.520
 7097SOL     OW22177   5.128   4.284   7.531
 7097SOL    HW122178   5.053   4.275   7.589
 7097SOL    HW222179   5.201   4.245   7.579
 7098SOL     OW22180   4.249   3.990   7.769
 7098SOL    HW122181   4.294   3.941   7.701
 7098SOL    HW222182   4.226   4.073   7.728
 7099SOL     OW22183   4.433   4.783   7.812
 7099SOL    HW122184   4.408   4.769   7.903
 7099SOL    HW222185   4.514   4.733   7.801
 7100SOL     OW22186   4.088   4.828   7.926
 7100SOL    HW122187   4.065   4.907   7.877
 7100SOL    HW222188   4.076   4.756   7.863
 7101SOL     OW22189   4.954   5.103   7.833
 7101SOL    HW122190   5.035   5.127   7.878
 7101SOL    HW222191   4.902   5.058   7.900
 7102SOL     OW22192   0.038   4.374   7.924
 7102SOL    HW122193   5.280   4.385   7.999
 7102SOL    HW222194   0.039   4.460   7.882
 7103SOL     OW22195   4.925   4.253   7.712
 7103SOL    HW122196   4.930   4.169   7.758
 7103SOL    HW222197   4.894   4.315   7.779
 7104SOL     OW22198   0.024   4.129   7.804
 7104SOL    HW122199   0.035   4.061   7.871
 7104SOL    HW222200   0.024   4.211   7.854
 7105SOL     OW22201   5.036   4.556   7.490
 7105SOL    HW122202   5.066   4.465   7.488
 7105SOL    HW222203   5.058   4.591   7.404
 7106SOL     OW22204   3.733   5.044   7.640
 7106SOL    HW122205   3.643   5.058   7.611
 7106SOL    HW222206   3.734   4.955   7.675
 7107SOL     OW22207   4.567   4.329   7.755
 7107SOL    HW122208   4.559   4.236   7.733
 7107SOL    HW222209   4.476   4.361   7.759
 7108SOL     OW22210   4.185   4.217   7.642
 7108SOL    HW122211   4.244   4.291   7.657
 7108SOL    HW222212   4.100   4.258   7.623
 7109SOL     OW22213   5.032   4.575   7.773
 7109SOL    HW122214   4.939   4.588   7.791
 7109SOL    HW222215   5.038   4.571   7.677
 7110SOL     OW22216   0.183   3.867   7.990
 7110SOL    HW122217   0.155   3.851   7.900
 7110SOL    HW222218   0.139   3.799   8.042
 7111SOL     OW22219   4.655   4.632   7.760
 7111SOL    HW122220   4.705   4.657   7.683
 7111SOL    HW222221   4.642   4.537   7.751
 7112SOL     OW22222   3.982   5.055   7.748
 7112SOL    HW122223   3.891   5.059   7.718
 7112SOL    HW222224   3.981   5.096   7.835
 7113SOL     OW22225   3.802   4.056   7.483
 7113SOL    HW122226   3.715   4.037   7.446
 7113SOL    HW222227   3.833   4.132   7.434
 7114SOL     OW22228   3.793   3.881   7.757
 7114SOL    HW122229   3.777   3.957   7.701
 7114SOL    HW222230   3.876   3.845   7.726
 7115SOL     OW22231   4.906   5.055   7.568
 7115SOL    HW122232   4.812   5.040   7.561
 7115SOL    HW222233   4.922   5.067   7.661
 7116SOL     OW22234   4.938   4.044   7.901
 7116SOL    HW122235   5.009   3.982   7.890
 7116SOL    HW222236   4.955   4.087   7.984
 7117SOL     OW22237   4.352   4.459   8.053
 7117SOL    HW122238   4.356   4.541   0.024
 7117SOL    HW222239   4.265   4.459   8.015
 7118SOL     OW22240   4.584   5.094   7.467
 7118SOL    HW122241   4.561   5.096   7.560
 7118SOL    HW222242   4.585   5.186   7.440
 7119SOL     OW22243   4.804   4.702   7.543
 7119SOL    HW122244   4.777   4.755   7.467
 7119SOL    HW222245   4.881   4.654   7.512
 7120SOL     OW22246   4.111   4.151   7.984
 7120SOL    HW122247   4.161   4.100   7.921
 7120SOL    HW222248   4.162   4.148   8.064
 7121SOL     OW22249   4.530   5.048   7.730
 7121SOL    HW122250   4.477   4.971   7.751
 7121SOL    HW222251   4.544   5.091   7.814
 7122SOL     OW22252   5.060   3.768   7.609
 7122SOL    HW122253   5.080   3.723   7.527
 7122SOL    HW222254   4.976   3.732   7.637
 7123SOL     OW22255   3.775   4.800   7.750
 7123SOL    HW122256   3.869   4.793   7.739
 7123SOL    HW222257   3.745   4.710   7.765
   5.30000   5.30000   8.08000
