Built with Packmol
22233
    1LIG      O    1   2.162   2.086   0.066
    1LIG      C    2   2.090   2.124   0.217
    1LIG     C1    3   2.167   2.082   0.377
    1LIG     O1    4   2.096   2.119   0.530
    1LIG     C2    5   2.167   2.081   0.681
    1LIG     C3    6   2.087   2.123   0.838
    1LIG     O2    7   2.158   2.084   0.990
    1LIG     C4    8   2.086   2.121   1.142
    1LIG     C5    9   2.166   2.078   1.300
    1LIG     O3   10   2.094   2.115   1.452
    1LIG     C6   11   2.165   2.076   1.603
    1LIG     C7   12   2.085   2.118   1.760
    1LIG     O4   13   2.155   2.080   1.913
    1LIG     C8   14   2.084   2.117   2.065
    1LIG     C9   15   2.164   2.074   2.221
    1LIG     O5   16   2.093   2.111   2.373
    1LIG    C10   17   2.164   2.073   2.525
    1LIG    C11   18   2.083   2.116   2.682
    1LIG     O6   19   2.154   2.078   2.833
    1LIG    C12   20   2.083   2.115   2.985
    1LIG    C13   21   2.164   2.072   3.142
    1LIG     O7   22   2.092   2.110   3.294
    1LIG    C14   23   2.163   2.072   3.446
    1LIG    C15   24   2.083   2.114   3.604
    1LIG     O8   25   2.154   2.076   3.757
    1LIG    C16   26   2.082   2.114   3.908
    1LIG    C17   27   2.162   2.071   4.066
    1LIG     O9   28   2.091   2.109   4.219
    1LIG    C18   29   2.163   2.070   4.369
    1LIG    C19   30   2.083   2.113   4.526
    1LIG    O10   31   2.154   2.075   4.678
    1LIG    C20   32   2.082   2.113   4.830
    1LIG    C21   33   2.163   2.070   4.986
    1LIG    O11   34   2.091   2.108   5.138
    1LIG    C22   35   2.163   2.070   5.290
    1LIG    C23   36   2.082   2.113   5.447
    1LIG    O12   37   2.153   2.075   5.598
    1LIG    C24   38   2.082   2.112   5.751
    1LIG    C25   39   2.162   2.069   5.909
    1LIG    O13   40   2.091   2.107   6.061
    1LIG    C26   41   2.163   2.069   6.212
    1LIG    C27   42   2.082   2.112   6.369
    1LIG    O14   43   2.154   2.074   6.521
    1LIG    C28   44   2.082   2.112   6.673
    1LIG    C29   45   2.163   2.070   6.831
    1LIG    O15   46   2.091   2.108   6.983
    1LIG    C30   47   2.163   2.070   7.134
    1LIG    C31   48   2.083   2.113   7.291
    1LIG    O16   49   2.154   2.075   7.442
    1LIG    C32   50   2.083   2.113   7.594
    1LIG    C33   51   2.163   2.071   7.752
    1LIG    O17   52   2.092   2.108   7.904
    1LIG    C34   53   2.164   2.071   8.056
    1LIG    C35   54   2.084   2.112   8.213
    1LIG    O18   55   2.155   2.075   8.365
    1LIG    C36   56   2.083   2.113   8.516
    1LIG    C37   57   2.163   2.071   8.674
    1LIG    O19   58   2.092   2.109   8.827
    1LIG    C38   59   2.164   2.072   8.978
    1LIG    C39   60   2.085   2.114   9.136
    1LIG    O20   61   2.156   2.076   9.288
    1LIG    C40   62   2.084   2.114   9.439
    1LIG    C41   63   2.164   2.073   9.597
    1LIG    O21   64   2.093   2.110   9.749
    1LIG    C42   65   2.165   2.073   9.900
    1LIG    C43   66   2.085   2.115  10.057
    1LIG    O22   67   2.156   2.078  10.209
    1LIG    C44   68   2.085   2.116  10.361
    1LIG    C45   69   2.166   2.074  10.518
    1LIG    O23   70   2.095   2.111  10.670
    1LIG    C46   71   2.166   2.074  10.822
    1LIG    C47   72   2.085   2.116  10.979
    1LIG    O24   73   2.157   2.079  11.130
    1LIG    C48   74   2.086   2.116  11.282
    1LIG    C49   75   2.167   2.074  11.439
    1LIG    O25   76   2.096   2.112  11.591
    1LIG    C50   77   2.166   2.075  11.743
    1LIG    C51   78   2.086   2.117  11.900
    1LIG    O26   79   2.157   2.080  12.051
    1LIG    C52   80   2.087   2.118  12.204
    1LIG    C53   81   2.168   2.076  12.360
    1LIG    O27   82   2.096   2.113  12.512
    1LIG    C54   83   2.167   2.077  12.664
    1LIG    C55   84   2.087   2.119  12.822
    1LIG    O28   85   2.159   2.082  12.974
    1LIG    C56   86   2.088   2.119  13.127
    1LIG    C57   87   2.168   2.078  13.285
    1LIG    O29   88   2.097   2.116  13.438
    1LIG    C58   89   2.169   2.078  13.589
    1LIG    C59   90   2.090   2.120  13.747
    1LIG      H   91   1.991   2.076   0.214
    1LIG     H1   92   2.074   2.233   0.215
    1LIG     H2   93   2.266   2.130   0.377
    1LIG     H3   94   2.183   1.974   0.375
    1LIG     H4   95   2.266   2.129   0.683
    1LIG     H5   96   2.183   1.972   0.682
    1LIG     H6   97   1.988   2.075   0.836
    1LIG     H7   98   2.071   2.231   0.837
    1LIG     H8   99   1.987   2.073   1.143
    1LIG     H9  100   2.071   2.229   1.145
    1LIG    H10  101   2.264   2.126   1.299
    1LIG    H11  102   2.181   1.969   1.297
    1LIG    H12  103   2.264   2.124   1.606
    1LIG    H13  104   2.181   1.968   1.604
    1LIG    H14  105   1.986   2.070   1.758
    1LIG    H15  106   2.069   2.226   1.759
    1LIG    H16  107   1.985   2.069   2.066
    1LIG    H17  108   2.068   2.226   2.067
    1LIG    H18  109   2.263   2.122   2.219
    1LIG    H19  110   2.180   1.965   2.219
    1LIG    H20  111   2.262   2.121   2.527
    1LIG    H21  112   2.179   1.965   2.527
    1LIG    H22  113   1.985   2.068   2.679
    1LIG    H23  114   2.068   2.224   2.680
    1LIG    H24  115   1.985   2.067   2.987
    1LIG    H25  116   2.068   2.223   2.988
    1LIG    H26  117   2.262   2.120   3.141
    1LIG    H27  118   2.179   1.963   3.140
    1LIG    H28  119   2.262   2.120   3.448
    1LIG    H29  120   2.179   1.963   3.448
    1LIG    H30  121   1.985   2.065   3.602
    1LIG    H31  122   2.068   2.222   3.603
    1LIG    H32  123   1.984   2.066   3.909
    1LIG    H33  124   2.067   2.222   3.910
    1LIG    H34  125   2.260   2.120   4.064
    1LIG    H35  126   2.178   1.963   4.064
    1LIG    H36  127   2.262   2.119   4.371
    1LIG    H37  128   2.179   1.962   4.371
    1LIG    H38  129   1.984   2.065   4.524
    1LIG    H39  130   2.067   2.221   4.524
    1LIG    H40  131   1.984   2.065   4.832
    1LIG    H41  132   2.067   2.221   4.832
    1LIG    H42  133   2.261   2.119   4.985
    1LIG    H43  134   2.178   1.962   4.984
    1LIG    H44  135   2.261   2.118   5.292
    1LIG    H45  136   2.178   1.962   5.292
    1LIG    H46  137   1.984   2.064   5.445
    1LIG    H47  138   2.066   2.221   5.445
    1LIG    H48  139   1.984   2.064   5.753
    1LIG    H49  140   2.067   2.220   5.753
    1LIG    H50  141   2.261   2.118   5.907
    1LIG    H51  142   2.178   1.961   5.907
    1LIG    H52  143   2.261   2.117   6.214
    1LIG    H53  144   2.178   1.960   6.214
    1LIG    H54  145   1.984   2.063   6.368
    1LIG    H55  146   2.067   2.220   6.367
    1LIG    H56  147   1.984   2.064   6.675
    1LIG    H57  148   2.067   2.221   6.675
    1LIG    H58  149   2.261   2.118   6.829
    1LIG    H59  150   2.178   1.961   6.830
    1LIG    H60  151   2.261   2.118   7.136
    1LIG    H61  152   2.179   1.962   7.136
    1LIG    H62  153   1.984   2.064   7.289
    1LIG    H63  154   2.067   2.221   7.289
    1LIG    H64  155   1.985   2.064   7.596
    1LIG    H65  156   2.067   2.221   7.596
    1LIG    H66  157   2.262   2.119   7.750
    1LIG    H67  158   2.179   1.962   7.751
    1LIG    H68  159   2.262   2.119   8.057
    1LIG    H69  160   2.179   1.962   8.057
    1LIG    H70  161   1.985   2.064   8.212
    1LIG    H71  162   2.068   2.221   8.211
    1LIG    H72  163   1.985   2.065   8.518
    1LIG    H73  164   2.068   2.222   8.518
    1LIG    H74  165   2.262   2.120   8.673
    1LIG    H75  166   2.179   1.963   8.673
    1LIG    H76  167   2.263   2.120   8.979
    1LIG    H77  168   2.180   1.963   8.979
    1LIG    H78  169   1.986   2.066   9.134
    1LIG    H79  170   2.069   2.222   9.134
    1LIG    H80  171   1.986   2.066   9.441
    1LIG    H81  172   2.068   2.223   9.440
    1LIG    H82  173   2.263   2.121   9.595
    1LIG    H83  174   2.180   1.964   9.595
    1LIG    H84  175   2.264   2.121   9.902
    1LIG    H85  176   2.181   1.964   9.902
    1LIG    H86  177   1.987   2.066  10.055
    1LIG    H87  178   2.069   2.223  10.055
    1LIG    H88  179   1.986   2.067  10.363
    1LIG    H89  180   2.069   2.224  10.363
    1LIG    H90  181   2.264   2.122  10.516
    1LIG    H91  182   2.182   1.965  10.516
    1LIG    H92  183   2.264   2.122  10.824
    1LIG    H93  184   2.182   1.965  10.824
    1LIG    H94  185   1.987   2.068  10.977
    1LIG    H95  186   2.069   2.225  10.977
    1LIG    H96  187   1.988   2.068  11.285
    1LIG    H97  188   2.070   2.225  11.284
    1LIG    H98  189   2.265   2.123  11.437
    1LIG    H99  190   2.183   1.966  11.438
    1LIG   H100  191   2.265   2.123  11.745
    1LIG   H101  192   2.183   1.967  11.746
    1LIG   H102  193   1.988   2.069  11.898
    1LIG   H103  194   2.070   2.226  11.898
    1LIG   H104  195   1.988   2.069  12.206
    1LIG   H105  196   2.071   2.226  12.206
    1LIG   H106  197   2.266   2.124  12.358
    1LIG   H107  198   2.184   1.967  12.359
    1LIG   H108  199   2.265   2.125  12.666
    1LIG   H109  200   2.183   1.968  12.666
    1LIG   H110  201   1.989   2.070  12.821
    1LIG   H111  202   2.071   2.227  12.820
    1LIG   H112  203   1.989   2.071  13.128
    1LIG   H113  204   2.071   2.228  13.128
    1LIG   H114  205   2.266   2.127  13.283
    1LIG   H115  206   2.184   1.970  13.284
    1LIG   H116  207   2.267   2.128  13.589
    1LIG   H117  208   2.184   1.970  13.590
    1LIG   H118  209   2.073   2.228  13.747
    1LIG   H119  210   2.143   2.093  13.866
    1LIG      O  211   1.862   1.865   0.066
    1LIG      C  212   1.927   1.915   0.217
    1LIG     C1  213   1.857   1.862   0.377
    1LIG     O1  214   1.920   1.911   0.530
    1LIG     C2  215   1.855   1.863   0.681
    1LIG     C3  216   1.927   1.918   0.838
    1LIG     O2  217   1.862   1.870   0.990
    1LIG     C4  218   1.926   1.919   1.142
    1LIG     C5  219   1.853   1.865   1.300
    1LIG     O3  220   1.916   1.915   1.452
    1LIG     C6  221   1.852   1.866   1.603
    1LIG     C7  222   1.923   1.922   1.760
    1LIG     O4  223   1.860   1.874   1.913
    1LIG     C8  224   1.923   1.923   2.065
    1LIG     C9  225   1.850   1.868   2.221
    1LIG     O5  226   1.914   1.917   2.373
    1LIG    C10  227   1.850   1.869   2.525
    1LIG    C11  228   1.922   1.924   2.682
    1LIG     O6  229   1.858   1.875   2.833
    1LIG    C12  230   1.921   1.924   2.985
    1LIG    C13  231   1.849   1.869   3.142
    1LIG     O7  232   1.913   1.919   3.294
    1LIG    C14  233   1.849   1.870   3.446
    1LIG    C15  234   1.920   1.925   3.604
    1LIG     O8  235   1.856   1.876   3.757
    1LIG    C16  236   1.921   1.926   3.908
    1LIG    C17  237   1.849   1.871   4.066
    1LIG     O9  238   1.912   1.920   4.219
    1LIG    C18  239   1.847   1.870   4.369
    1LIG    C19  240   1.919   1.926   4.526
    1LIG    O10  241   1.856   1.877   4.678
    1LIG    C20  242   1.920   1.926   4.830
    1LIG    C21  243   1.848   1.871   4.986
    1LIG    O11  244   1.911   1.920   5.138
    1LIG    C22  245   1.848   1.871   5.290
    1LIG    C23  246   1.920   1.927   5.447
    1LIG    O12  247   1.855   1.878   5.598
    1LIG    C24  248   1.919   1.927   5.751
    1LIG    C25  249   1.847   1.872   5.909
    1LIG    O13  250   1.911   1.921   6.061
    1LIG    C26  251   1.846   1.871   6.212
    1LIG    C27  252   1.919   1.927   6.369
    1LIG    O14  253   1.855   1.877   6.521
    1LIG    C28  254   1.919   1.926   6.673
    1LIG    C29  255   1.847   1.871   6.831
    1LIG    O15  256   1.911   1.920   6.983
    1LIG    C30  257   1.847   1.871   7.134
    1LIG    C31  258   1.920   1.926   7.291
    1LIG    O16  259   1.855   1.877   7.442
    1LIG    C32  260   1.919   1.926   7.594
    1LIG    C33  261   1.848   1.870   7.752
    1LIG    O17  262   1.912   1.920   7.904
    1LIG    C34  263   1.848   1.870   8.056
    1LIG    C35  264   1.919   1.925   8.213
    1LIG    O18  265   1.855   1.876   8.365
    1LIG    C36  266   1.920   1.925   8.516
    1LIG    C37  267   1.848   1.870   8.674
    1LIG    O19  268   1.912   1.919   8.827
    1LIG    C38  269   1.848   1.869   8.978
    1LIG    C39  270   1.919   1.924   9.136
    1LIG    O20  271   1.856   1.874   9.288
    1LIG    C40  272   1.920   1.924   9.439
    1LIG    C41  273   1.849   1.868   9.597
    1LIG    O21  274   1.913   1.918   9.749
    1LIG    C42  275   1.849   1.868   9.900
    1LIG    C43  276   1.921   1.923  10.057
    1LIG    O22  277   1.857   1.874  10.209
    1LIG    C44  278   1.921   1.923  10.361
    1LIG    C45  279   1.849   1.867  10.518
    1LIG    O23  280   1.913   1.916  10.670
    1LIG    C46  281   1.850   1.866  10.822
    1LIG    C47  282   1.922   1.922  10.979
    1LIG    O24  283   1.858   1.873  11.130
    1LIG    C48  284   1.921   1.922  11.282
    1LIG    C49  285   1.849   1.865  11.439
    1LIG    O25  286   1.913   1.915  11.591
    1LIG    C50  287   1.850   1.866  11.743
    1LIG    C51  288   1.922   1.921  11.900
    1LIG    O26  289   1.859   1.871  12.051
    1LIG    C52  290   1.922   1.920  12.204
    1LIG    C53  291   1.850   1.864  12.360
    1LIG    O27  292   1.915   1.914  12.512
    1LIG    C54  293   1.851   1.864  12.664
    1LIG    C55  294   1.923   1.919  12.822
    1LIG    O28  295   1.859   1.869  12.974
    1LIG    C56  296   1.924   1.919  13.127
    1LIG    C57  297   1.853   1.863  13.285
    1LIG    O29  298   1.916   1.912  13.438
    1LIG    C58  299   1.852   1.862  13.589
    1LIG    C59  300   1.923   1.916  13.747
    1LIG      H  301   1.924   2.024   0.214
    1LIG     H1  302   2.032   1.884   0.215
    1LIG     H2  303   1.859   1.752   0.377
    1LIG     H3  304   1.751   1.893   0.375
    1LIG     H4  305   1.858   1.753   0.683
    1LIG     H5  306   1.750   1.894   0.682
    1LIG     H6  307   1.924   2.028   0.836
    1LIG     H7  308   2.032   1.887   0.837
    1LIG     H8  309   1.923   2.029   1.143
    1LIG     H9  310   2.031   1.888   1.145
    1LIG    H10  311   1.856   1.756   1.299
    1LIG    H11  312   1.748   1.896   1.297
    1LIG    H12  313   1.855   1.756   1.606
    1LIG    H13  314   1.747   1.897   1.604
    1LIG    H14  315   1.921   2.032   1.758
    1LIG    H15  316   2.029   1.891   1.759
    1LIG    H16  317   1.920   2.033   2.066
    1LIG    H17  318   2.028   1.892   2.067
    1LIG    H18  319   1.853   1.758   2.219
    1LIG    H19  320   1.745   1.899   2.219
    1LIG    H20  321   1.852   1.759   2.527
    1LIG    H21  322   1.745   1.900   2.527
    1LIG    H22  323   1.919   2.034   2.679
    1LIG    H23  324   2.027   1.893   2.680
    1LIG    H24  325   1.919   2.034   2.987
    1LIG    H25  326   2.026   1.893   2.988
    1LIG    H26  327   1.852   1.760   3.141
    1LIG    H27  328   1.744   1.900   3.140
    1LIG    H28  329   1.852   1.760   3.448
    1LIG    H29  330   1.744   1.901   3.448
    1LIG    H30  331   1.917   2.035   3.602
    1LIG    H31  332   2.025   1.894   3.603
    1LIG    H32  333   1.918   2.036   3.909
    1LIG    H33  334   2.026   1.895   3.910
    1LIG    H34  335   1.852   1.761   4.064
    1LIG    H35  336   1.744   1.902   4.064
    1LIG    H36  337   1.850   1.761   4.371
    1LIG    H37  338   1.742   1.901   4.371
    1LIG    H38  339   1.917   2.035   4.524
    1LIG    H39  340   2.025   1.895   4.524
    1LIG    H40  341   1.917   2.036   4.832
    1LIG    H41  342   2.025   1.895   4.832
    1LIG    H42  343   1.851   1.761   4.985
    1LIG    H43  344   1.742   1.902   4.984
    1LIG    H44  345   1.850   1.761   5.292
    1LIG    H45  346   1.742   1.902   5.292
    1LIG    H46  347   1.917   2.036   5.445
    1LIG    H47  348   2.025   1.896   5.445
    1LIG    H48  349   1.916   2.036   5.753
    1LIG    H49  350   2.024   1.896   5.753
    1LIG    H50  351   1.850   1.762   5.907
    1LIG    H51  352   1.742   1.903   5.907
    1LIG    H52  353   1.849   1.762   6.214
    1LIG    H53  354   1.741   1.902   6.214
    1LIG    H54  355   1.916   2.036   6.368
    1LIG    H55  356   2.024   1.896   6.367
    1LIG    H56  357   1.916   2.036   6.675
    1LIG    H57  358   2.024   1.896   6.675
    1LIG    H58  359   1.850   1.762   6.829
    1LIG    H59  360   1.742   1.902   6.830
    1LIG    H60  361   1.850   1.761   7.136
    1LIG    H61  362   1.742   1.902   7.136
    1LIG    H62  363   1.917   2.036   7.289
    1LIG    H63  364   2.025   1.895   7.289
    1LIG    H64  365   1.916   2.035   7.596
    1LIG    H65  366   2.024   1.895   7.596
    1LIG    H66  367   1.851   1.761   7.750
    1LIG    H67  368   1.742   1.901   7.751
    1LIG    H68  369   1.851   1.760   8.057
    1LIG    H69  370   1.742   1.901   8.057
    1LIG    H70  371   1.916   2.035   8.212
    1LIG    H71  372   2.024   1.895   8.211
    1LIG    H72  373   1.917   2.035   8.518
    1LIG    H73  374   2.025   1.894   8.518
    1LIG    H74  375   1.851   1.760   8.673
    1LIG    H75  376   1.743   1.901   8.673
    1LIG    H76  377   1.851   1.759   8.979
    1LIG    H77  378   1.743   1.900   8.979
    1LIG    H78  379   1.917   2.033   9.134
    1LIG    H79  380   2.025   1.893   9.134
    1LIG    H80  381   1.917   2.034   9.441
    1LIG    H81  382   2.026   1.893   9.440
    1LIG    H82  383   1.852   1.759   9.595
    1LIG    H83  384   1.744   1.899   9.595
    1LIG    H84  385   1.852   1.758   9.902
    1LIG    H85  386   1.743   1.898   9.902
    1LIG    H86  387   1.917   2.033  10.055
    1LIG    H87  388   2.026   1.893  10.055
    1LIG    H88  389   1.918   2.033  10.363
    1LIG    H89  390   2.027   1.892  10.363
    1LIG    H90  391   1.853   1.757  10.516
    1LIG    H91  392   1.744   1.897  10.516
    1LIG    H92  393   1.853   1.757  10.824
    1LIG    H93  394   1.744   1.897  10.824
    1LIG    H94  395   1.919   2.032  10.977
    1LIG    H95  396   2.027   1.892  10.977
    1LIG    H96  397   1.918   2.031  11.285
    1LIG    H97  398   2.027   1.891  11.284
    1LIG    H98  399   1.853   1.756  11.437
    1LIG    H99  400   1.744   1.896  11.438
    1LIG   H100  401   1.853   1.756  11.745
    1LIG   H101  402   1.745   1.896  11.746
    1LIG   H102  403   1.919   2.031  11.898
    1LIG   H103  404   2.028   1.891  11.898
    1LIG   H104  405   1.919   2.030  12.206
    1LIG   H105  406   2.028   1.890  12.206
    1LIG   H106  407   1.854   1.755  12.358
    1LIG   H107  408   1.745   1.895  12.359
    1LIG   H108  409   1.855   1.755  12.666
    1LIG   H109  410   1.746   1.895  12.666
    1LIG   H110  411   1.919   2.029  12.821
    1LIG   H111  412   2.028   1.889  12.820
    1LIG   H112  413   1.920   2.028  13.128
    1LIG   H113  414   2.029   1.888  13.128
    1LIG   H114  415   1.856   1.753  13.283
    1LIG   H115  416   1.747   1.893  13.284
    1LIG   H116  417   1.857   1.752  13.589
    1LIG   H117  418   1.747   1.893  13.590
    1LIG   H118  419   2.029   1.887  13.747
    1LIG   H119  420   1.876   1.879  13.866
    1MOL     C1  421   1.474   1.552   6.276
    1MOL     H1  422   1.453   1.445   6.266
    1MOL     O1  423   1.429   1.585   6.406
    1MOL     C2  424   1.448   1.723   6.442
    1MOL     H2  425   1.554   1.749   6.428
    1MOL     C3  426   1.417   1.736   6.590
    1MOL     H3  427   1.450   1.835   6.625
    1MOL     H4  428   1.473   1.659   6.645
    1MOL     O2  429   1.278   1.721   6.612
    1MOL     C4  430   1.242   1.737   6.748
    1MOL     C5  431   1.393   1.633   6.173
    1MOL     H5  432   1.289   1.597   6.181
    1MOL     O3  433   1.438   1.618   6.040
    1MOL     C6  434   1.408   1.493   5.980
    1MOL     C7  435   1.391   1.783   6.203
    1MOL     H6  436   1.489   1.825   6.179
    1MOL     O4  437   1.289   1.844   6.125
    1MOL     C8  438   1.336   1.935   6.027
    1MOL     C9  439   1.362   1.811   6.351
    1MOL     H7  440   1.256   1.788   6.370
    1MOL     O5  441   1.386   1.951   6.373
    1MOL    C10  442   1.301   2.020   6.462
    1MOL     H8  443   1.222   1.952   6.497
    1MOL     O6  444   1.369   2.060   6.579
    1MOL    C11  445   1.480   2.148   6.555
    1MOL     H9  446   1.550   2.100   6.485
    1MOL    C12  447   1.553   2.167   6.687
    1MOL    H10  448   1.650   2.215   6.668
    1MOL    H11  449   1.571   2.068   6.732
    1MOL     O7  450   1.475   2.247   6.774
    1MOL    C13  451   1.542   2.275   6.895
    1MOL    C14  452   1.240   2.144   6.393
    1MOL    H12  453   1.165   2.185   6.462
    1MOL     O8  454   1.180   2.116   6.268
    1MOL    C15  455   1.056   2.048   6.275
    1MOL    C16  456   1.345   2.253   6.368
    1MOL    H13  457   1.411   2.221   6.287
    1MOL     O9  458   1.278   2.374   6.334
    1MOL    C17  459   1.293   2.414   6.199
    1MOL    C18  460   1.430   2.279   6.492
    1MOL    H14  461   1.369   2.332   6.566
    1MOL    O10  462   1.540   2.362   6.451
    1MOL    C19  463   1.581   2.466   6.536
    1MOL    H15  464   1.513   2.474   6.622
    1MOL    O11  465   1.708   2.441   6.593
    1MOL    C20  466   1.814   2.426   6.498
    1MOL    H16  467   1.787   2.348   6.425
    1MOL    C21  468   1.937   2.378   6.573
    1MOL    H17  469   2.013   2.346   6.500
    1MOL    H18  470   1.908   2.290   6.633
    1MOL    O12  471   1.987   2.480   6.657
    1MOL    C22  472   2.087   2.435   6.744
    1MOL    C23  473   1.587   2.600   6.458
    1MOL    H19  474   1.608   2.679   6.532
    1MOL    O13  475   1.467   2.629   6.389
    1MOL    C24  476   1.359   2.671   6.472
    1MOL    C25  477   1.701   2.600   6.356
    1MOL    H20  478   1.678   2.528   6.276
    1MOL    O14  479   1.715   2.730   6.301
    1MOL    C26  480   1.658   2.747   6.171
    1MOL    C27  481   1.833   2.558   6.421
    1MOL    H21  482   1.867   2.636   6.491
    1MOL    O15  483   1.934   2.535   6.321
    1MOL    C28  484   2.006   2.649   6.278
    1MOL    H22  485   1.940   2.735   6.274
    1MOL    O16  486   2.108   2.685   6.368
    1MOL    C29  487   2.209   2.586   6.391
    1MOL    H23  488   2.162   2.496   6.434
    1MOL    C30  489   2.303   2.643   6.496
    1MOL    H24  490   2.366   2.563   6.537
    1MOL    H25  491   2.241   2.684   6.577
    1MOL    O17  492   2.383   2.745   6.438
    1MOL    C31  493   2.467   2.807   6.533
    1MOL    C32  494   2.066   2.618   6.140
    1MOL    H26  495   2.114   2.711   6.106
    1MOL    O18  496   1.962   2.582   6.051
    1MOL    C33  497   1.976   2.634   5.920
    1MOL    C34  498   2.173   2.509   6.151
    1MOL    H27  499   2.124   2.415   6.179
    1MOL    O19  500   2.236   2.496   6.024
    1MOL    C35  501   2.251   2.363   5.978
    1MOL    C36  502   2.277   2.547   6.258
    1MOL    H28  503   2.334   2.633   6.221
    1MOL    O20  504   2.364   2.434   6.274
    1MOL    C37  505   2.498   2.460   6.309
    1MOL    H29  506   2.516   2.568   6.311
    1MOL    O21  507   2.528   2.417   6.441
    1MOL    C38  508   2.510   2.276   6.462
    1MOL    H30  509   2.408   2.247   6.433
    1MOL    C39  510   2.524   2.251   6.612
    1MOL    H31  511   2.490   2.149   6.634
    1MOL    H32  512   2.458   2.321   6.666
    1MOL    O22  513   2.659   2.268   6.651
    1MOL    C40  514   2.679   2.235   6.787
    1MOL    C41  515   2.595   2.390   6.211
    1MOL    H33  516   2.696   2.428   6.234
    1MOL    O23  517   2.564   2.414   6.075
    1MOL    C42  518   2.596   2.544   6.028
    1MOL    C43  519   2.599   2.238   6.229
    1MOL    H34  520   2.506   2.195   6.189
    1MOL    O24  521   2.711   2.186   6.159
    1MOL    C44  522   2.680   2.107   6.046
    1MOL    C45  523   2.611   2.199   6.376
    1MOL    H35  524   2.712   2.224   6.411
    1MOL    O25  525   2.591   2.057   6.384
    1MOL    C46  526   2.672   1.984   6.474
    1MOL    H36  527   2.747   2.050   6.518
    1MOL    O26  528   2.599   1.935   6.584
    1MOL    C47  529   2.492   1.844   6.551
    1MOL    H37  530   2.424   1.893   6.480
    1MOL    C48  531   2.414   1.816   6.679
    1MOL    H38  532   2.319   1.768   6.654
    1MOL    H39  533   2.392   1.912   6.728
    1MOL    O27  534   2.491   1.734   6.764
    1MOL    C49  535   2.419   1.693   6.879
    1MOL    C50  536   2.739   1.865   6.401
    1MOL    H40  537   2.811   1.822   6.471
    1MOL    O28  538   2.804   1.902   6.281
    1MOL    C51  539   2.927   1.971   6.299
    1MOL    C52  540   2.638   1.755   6.365
    1MOL    H41  541   2.573   1.791   6.284
    1MOL    O29  542   2.709   1.639   6.324
    1MOL    C53  543   2.705   1.612   6.185
    1MOL    C54  544   2.551   1.718   6.485
    1MOL    H42  545   2.614   1.667   6.560
    1MOL    O30  546   2.448   1.630   6.440
    1MOL    C55  547   2.424   1.512   6.514
    1MOL    H43  548   2.504   1.498   6.587
    1MOL    O31  549   2.306   1.520   6.591
    1MOL    C56  550   2.184   1.538   6.517
    1MOL    H44  551   2.188   1.633   6.462
    1MOL    C57  552   2.073   1.544   6.620
    1MOL    H45  553   2.088   1.462   6.693
    1MOL    H46  554   1.976   1.528   6.572
    1MOL    O32  555   2.076   1.670   6.686
    1MOL    C58  556   1.975   1.681   6.784
    1MOL    C59  557   2.414   1.391   6.419
    1MOL    H47  558   2.403   1.302   6.484
    1MOL    O33  559   2.526   1.374   6.335
    1MOL    C60  560   2.643   1.327   6.400
    1MOL    C61  561   2.289   1.399   6.331
    1MOL    H48  562   2.300   1.483   6.261
    1MOL    O34  563   2.269   1.277   6.261
    1MOL    C62  564   2.321   1.274   6.129
    1MOL    C63  565   2.164   1.424   6.416
    1MOL    H49  566   2.140   1.332   6.471
    1MOL    O35  567   2.053   1.459   6.331
    1MOL    C64  568   1.971   1.351   6.292
    1MOL    H50  569   2.028   1.258   6.293
    1MOL    O36  570   1.864   1.330   6.384
    1MOL    C65  571   1.769   1.437   6.396
    1MOL    H51  572   1.819   1.530   6.425
    1MOL    C66  573   1.675   1.395   6.508
    1MOL    H52  574   1.650   1.289   6.495
    1MOL    H53  575   1.582   1.454   6.505
    1MOL    O37  576   1.741   1.416   6.632
    1MOL    C67  577   1.668   1.364   6.741
    1MOL    C68  578   1.913   1.376   6.152
    1MOL    H54  579   1.862   1.282   6.124
    1MOL    O38  580   2.017   1.405   6.060
    1MOL    C69  581   2.006   1.337   5.936
    1MOL    C70  582   1.807   1.488   6.153
    1MOL    H55  583   1.857   1.582   6.176
    1MOL    O39  584   1.747   1.493   6.024
    1MOL    C71  585   1.754   1.621   5.962
    1MOL    C72  586   1.700   1.461   6.260
    1MOL    H56  587   1.644   1.371   6.231
    1MOL    O40  588   1.613   1.575   6.261
    1MOL    H57  589   1.134   1.724   6.754
    1MOL    H58  590   1.291   1.662   6.812
    1MOL    H59  591   1.269   1.838   6.784
    1MOL    H60  592   1.726   1.385   6.831
    1MOL    H61  593   1.569   1.412   6.751
    1MOL    H62  594   1.653   1.255   6.733
    1MOL    H63  595   1.980   1.783   6.824
    1MOL    H64  596   1.875   1.663   6.741
    1MOL    H65  597   1.991   1.609   6.866
    1MOL    H66  598   2.484   1.627   6.936
    1MOL    H67  599   2.392   1.780   6.942
    1MOL    H68  600   2.327   1.640   6.851
    1MOL    H69  601   2.785   2.251   6.809
    1MOL    H70  602   2.619   2.299   6.854
    1MOL    H71  603   2.654   2.129   6.807
    1MOL    H72  604   2.525   2.883   6.480
    1MOL    H73  605   2.409   2.856   6.613
    1MOL    H74  606   2.536   2.735   6.580
    1MOL    H75  607   2.119   2.520   6.804
    1MOL    H76  608   2.050   2.356   6.811
    1MOL    H77  609   2.174   2.395   6.690
    1MOL    H78  610   1.475   2.337   6.955
    1MOL    H79  611   1.565   2.183   6.951
    1MOL    H80  612   1.635   2.330   6.878
    1MOL    H81  613   1.235   2.506   6.187
    1MOL    H82  614   1.398   2.436   6.175
    1MOL    H83  615   1.254   2.338   6.130
    1MOL    H84  616   1.015   2.047   6.174
    1MOL    H85  617   1.066   1.944   6.309
    1MOL    H86  618   0.986   2.101   6.341
    1MOL    H87  619   1.247   1.972   5.974
    1MOL    H88  620   1.388   2.020   6.073
    1MOL    H89  621   1.402   1.886   5.954
    1MOL    H90  622   1.430   1.504   5.874
    1MOL    H91  623   1.471   1.412   6.020
    1MOL    H92  624   1.302   1.467   5.993
    1MOL    H93  625   1.707   1.610   5.863
    1MOL    H94  626   1.699   1.696   6.019
    1MOL    H95  627   1.858   1.653   5.948
    1MOL    H96  628   2.090   1.369   5.875
    1MOL    H97  629   2.011   1.228   5.949
    1MOL    H98  630   1.912   1.362   5.885
    1MOL    H99  631   2.292   1.177   6.087
    1MOL   H100  632   2.278   1.354   6.068
    1MOL   H101  633   2.430   1.282   6.129
    1MOL   H102  634   2.713   1.298   6.322
    1MOL   H103  635   2.690   1.405   6.462
    1MOL   H104  636   2.621   1.239   6.462
    1MOL   H105  637   2.767   1.524   6.168
    1MOL   H106  638   2.602   1.590   6.152
    1MOL   H107  639   2.745   1.697   6.127
    1MOL   H108  640   2.974   1.978   6.201
    1MOL   H109  641   2.911   2.073   6.337
    1MOL   H110  642   2.994   1.917   6.368
    1MOL   H111  643   2.775   2.077   6.002
    1MOL   H112  644   2.625   2.017   6.075
    1MOL   H113  645   2.622   2.164   5.972
    1MOL   H114  646   2.581   2.543   5.920
    1MOL   H115  647   2.531   2.621   6.071
    1MOL   H116  648   2.701   2.570   6.050
    1MOL   H117  649   2.299   2.368   5.880
    1MOL   H118  650   2.315   2.304   6.045
    1MOL   H119  651   2.153   2.313   5.967
    1MOL   H120  652   1.890   2.598   5.863
    1MOL   H121  653   1.974   2.744   5.920
    1MOL   H122  654   2.068   2.600   5.872
    1MOL   H123  655   1.674   2.851   6.143
    1MOL   H124  656   1.708   2.682   6.098
    1MOL   H125  657   1.551   2.726   6.172
    1MOL   H126  658   1.281   2.707   6.405
    1MOL   H127  659   1.318   2.588   6.531
    1MOL   H128  660   1.389   2.752   6.539
    1MOL     C1  661   2.516   1.552   7.624
    1MOL     H1  662   2.538   1.445   7.634
    1MOL     O1  663   2.562   1.585   7.494
    1MOL     C2  664   2.542   1.723   7.458
    1MOL     H2  665   2.437   1.749   7.472
    1MOL     C3  666   2.574   1.736   7.310
    1MOL     H3  667   2.541   1.835   7.275
    1MOL     H4  668   2.518   1.659   7.255
    1MOL     O2  669   2.713   1.721   7.288
    1MOL     C4  670   2.749   1.737   7.152
    1MOL     C5  671   2.598   1.633   7.727
    1MOL     H5  672   2.702   1.597   7.718
    1MOL     O3  673   2.553   1.618   7.860
    1MOL     C6  674   2.583   1.493   7.920
    1MOL     C7  675   2.600   1.783   7.697
    1MOL     H6  676   2.501   1.825   7.721
    1MOL     O4  677   2.701   1.844   7.775
    1MOL     C8  678   2.655   1.935   7.873
    1MOL     C9  679   2.629   1.811   7.549
    1MOL     H7  680   2.734   1.788   7.530
    1MOL     O5  681   2.605   1.951   7.527
    1MOL    C10  682   2.690   2.020   7.438
    1MOL     H8  683   2.769   1.952   7.403
    1MOL     O6  684   2.622   2.060   7.321
    1MOL    C11  685   2.510   2.148   7.345
    1MOL     H9  686   2.441   2.100   7.415
    1MOL    C12  687   2.438   2.167   7.213
    1MOL    H10  688   2.341   2.215   7.232
    1MOL    H11  689   2.420   2.068   7.168
    1MOL     O7  690   2.516   2.247   7.126
    1MOL    C13  691   2.449   2.275   7.005
    1MOL    C14  692   2.751   2.144   7.507
    1MOL    H12  693   2.826   2.185   7.438
    1MOL     O8  694   2.811   2.116   7.632
    1MOL    C15  695   2.935   2.048   7.625
    1MOL    C16  696   2.646   2.253   7.532
    1MOL    H13  697   2.580   2.221   7.613
    1MOL     O9  698   2.713   2.374   7.566
    1MOL    C17  699   2.698   2.414   7.701
    1MOL    C18  700   2.560   2.279   7.408
    1MOL    H14  701   2.622   2.332   7.334
    1MOL    O10  702   2.451   2.362   7.449
    1MOL    C19  703   2.410   2.466   7.364
    1MOL    H15  704   2.478   2.474   7.278
    1MOL    O11  705   2.283   2.441   7.306
    1MOL    C20  706   2.177   2.426   7.402
    1MOL    H16  707   2.204   2.348   7.475
    1MOL    C21  708   2.054   2.378   7.327
    1MOL    H17  709   1.978   2.346   7.399
    1MOL    H18  710   2.083   2.290   7.267
    1MOL    O12  711   2.004   2.480   7.243
    1MOL    C22  712   1.903   2.435   7.156
    1MOL    C23  713   2.404   2.600   7.442
    1MOL    H19  714   2.383   2.679   7.368
    1MOL    O13  715   2.524   2.629   7.511
    1MOL    C24  716   2.632   2.671   7.428
    1MOL    C25  717   2.290   2.600   7.544
    1MOL    H20  718   2.313   2.528   7.624
    1MOL    O14  719   2.276   2.730   7.599
    1MOL    C26  720   2.333   2.747   7.729
    1MOL    C27  721   2.157   2.558   7.479
    1MOL    H21  722   2.124   2.636   7.409
    1MOL    O15  723   2.057   2.535   7.579
    1MOL    C28  724   1.985   2.649   7.622
    1MOL    H22  725   2.051   2.735   7.626
    1MOL    O16  726   1.882   2.685   7.532
    1MOL    C29  727   1.782   2.586   7.509
    1MOL    H23  728   1.828   2.496   7.466
    1MOL    C30  729   1.688   2.643   7.404
    1MOL    H24  730   1.625   2.563   7.363
    1MOL    H25  731   1.750   2.684   7.323
    1MOL    O17  732   1.608   2.745   7.462
    1MOL    C31  733   1.524   2.807   7.367
    1MOL    C32  734   1.925   2.618   7.759
    1MOL    H26  735   1.877   2.711   7.794
    1MOL    O18  736   2.029   2.582   7.849
    1MOL    C33  737   2.015   2.634   7.980
    1MOL    C34  738   1.818   2.509   7.749
    1MOL    H27  739   1.867   2.415   7.721
    1MOL    O19  740   1.755   2.496   7.876
    1MOL    C35  741   1.740   2.363   7.922
    1MOL    C36  742   1.714   2.547   7.642
    1MOL    H28  743   1.657   2.633   7.679
    1MOL    O20  744   1.626   2.434   7.626
    1MOL    C37  745   1.492   2.460   7.591
    1MOL    H29  746   1.475   2.568   7.589
    1MOL    O21  747   1.463   2.417   7.459
    1MOL    C38  748   1.481   2.276   7.438
    1MOL    H30  749   1.583   2.247   7.467
    1MOL    C39  750   1.467   2.251   7.288
    1MOL    H31  751   1.500   2.149   7.266
    1MOL    H32  752   1.532   2.321   7.234
    1MOL    O22  753   1.332   2.268   7.248
    1MOL    C40  754   1.312   2.235   7.113
    1MOL    C41  755   1.395   2.390   7.689
    1MOL    H33  756   1.295   2.428   7.666
    1MOL    O23  757   1.426   2.414   7.825
    1MOL    C42  758   1.395   2.544   7.872
    1MOL    C43  759   1.392   2.238   7.671
    1MOL    H34  760   1.485   2.195   7.711
    1MOL    O24  761   1.279   2.186   7.741
    1MOL    C44  762   1.311   2.107   7.854
    1MOL    C45  763   1.379   2.199   7.524
    1MOL    H35  764   1.279   2.224   7.489
    1MOL    O25  765   1.400   2.057   7.515
    1MOL    C46  766   1.319   1.984   7.426
    1MOL    H36  767   1.243   2.050   7.382
    1MOL    O26  768   1.392   1.935   7.316
    1MOL    C47  769   1.499   1.844   7.349
    1MOL    H37  770   1.567   1.893   7.420
    1MOL    C48  771   1.576   1.816   7.221
    1MOL    H38  772   1.672   1.768   7.246
    1MOL    H39  773   1.599   1.912   7.172
    1MOL    O27  774   1.499   1.734   7.136
    1MOL    C49  775   1.572   1.693   7.021
    1MOL    C50  776   1.252   1.865   7.499
    1MOL    H40  777   1.180   1.822   7.429
    1MOL    O28  778   1.186   1.902   7.619
    1MOL    C51  779   1.064   1.971   7.601
    1MOL    C52  780   1.353   1.755   7.535
    1MOL    H41  781   1.418   1.791   7.616
    1MOL    O29  782   1.282   1.639   7.576
    1MOL    C53  783   1.286   1.612   7.715
    1MOL    C54  784   1.439   1.718   7.414
    1MOL    H42  785   1.377   1.667   7.340
    1MOL    O30  786   1.543   1.630   7.460
    1MOL    C55  787   1.566   1.512   7.386
    1MOL    H43  788   1.487   1.498   7.312
    1MOL    O31  789   1.685   1.520   7.309
    1MOL    C56  790   1.806   1.538   7.383
    1MOL    H44  791   1.803   1.633   7.438
    1MOL    C57  792   1.918   1.544   7.280
    1MOL    H45  793   1.902   1.462   7.207
    1MOL    H46  794   2.015   1.528   7.328
    1MOL    O32  795   1.914   1.670   7.214
    1MOL    C58  796   2.015   1.681   7.116
    1MOL    C59  797   1.577   1.391   7.480
    1MOL    H47  798   1.587   1.302   7.416
    1MOL    O33  799   1.464   1.374   7.565
    1MOL    C60  800   1.348   1.327   7.500
    1MOL    C61  801   1.702   1.399   7.569
    1MOL    H48  802   1.691   1.483   7.639
    1MOL    O34  803   1.722   1.277   7.639
    1MOL    C62  804   1.669   1.274   7.771
    1MOL    C63  805   1.827   1.424   7.484
    1MOL    H49  806   1.851   1.332   7.429
    1MOL    O35  807   1.937   1.459   7.569
    1MOL    C64  808   2.020   1.351   7.607
    1MOL    H50  809   1.963   1.258   7.607
    1MOL    O36  810   2.126   1.330   7.516
    1MOL    C65  811   2.222   1.437   7.504
    1MOL    H51  812   2.171   1.530   7.475
    1MOL    C66  813   2.316   1.395   7.392
    1MOL    H52  814   2.341   1.289   7.405
    1MOL    H53  815   2.409   1.454   7.395
    1MOL    O37  816   2.249   1.416   7.268
    1MOL    C67  817   2.323   1.364   7.159
    1MOL    C68  818   2.078   1.376   7.748
    1MOL    H54  819   2.129   1.282   7.776
    1MOL    O38  820   1.974   1.405   7.839
    1MOL    C69  821   1.985   1.337   7.964
    1MOL    C70  822   2.183   1.488   7.747
    1MOL    H55  823   2.133   1.582   7.724
    1MOL    O39  824   2.243   1.493   7.876
    1MOL    C71  825   2.237   1.621   7.938
    1MOL    C72  826   2.290   1.461   7.640
    1MOL    H56  827   2.347   1.371   7.669
    1MOL    O40  828   2.378   1.575   7.639
    1MOL    H57  829   2.857   1.724   7.146
    1MOL    H58  830   2.700   1.662   7.088
    1MOL    H59  831   2.722   1.838   7.116
    1MOL    H60  832   2.264   1.385   7.068
    1MOL    H61  833   2.422   1.412   7.149
    1MOL    H62  834   2.337   1.255   7.167
    1MOL    H63  835   2.011   1.783   7.076
    1MOL    H64  836   2.115   1.663   7.159
    1MOL    H65  837   2.000   1.609   7.034
    1MOL    H66  838   1.507   1.627   6.964
    1MOL    H67  839   1.599   1.780   6.958
    1MOL    H68  840   1.664   1.640   7.049
    1MOL    H69  841   1.206   2.251   7.091
    1MOL    H70  842   1.372   2.299   7.046
    1MOL    H71  843   1.337   2.129   7.093
    1MOL    H72  844   1.465   2.883   7.420
    1MOL    H73  845   1.582   2.856   7.287
    1MOL    H74  846   1.454   2.735   7.320
    1MOL    H75  847   1.872   2.520   7.096
    1MOL    H76  848   1.941   2.356   7.088
    1MOL    H77  849   1.816   2.395   7.210
    1MOL    H78  850   2.516   2.337   6.945
    1MOL    H79  851   2.426   2.183   6.949
    1MOL    H80  852   2.355   2.330   7.022
    1MOL    H81  853   2.756   2.506   7.713
    1MOL    H82  854   2.593   2.436   7.725
    1MOL    H83  855   2.737   2.338   7.770
    1MOL    H84  856   2.976   2.047   7.726
    1MOL    H85  857   2.924   1.944   7.591
    1MOL    H86  858   3.005   2.101   7.559
    1MOL    H87  859   2.743   1.972   7.926
    1MOL    H88  860   2.603   2.020   7.827
    1MOL    H89  861   2.588   1.886   7.945
    1MOL    H90  862   2.561   1.504   8.026
    1MOL    H91  863   2.520   1.412   7.880
    1MOL    H92  864   2.689   1.467   7.907
    1MOL    H93  865   2.283   1.610   8.037
    1MOL    H94  866   2.292   1.696   7.881
    1MOL    H95  867   2.132   1.653   7.952
    1MOL    H96  868   1.900   1.369   8.025
    1MOL    H97  869   1.979   1.228   7.951
    1MOL    H98  870   2.079   1.362   8.015
    1MOL    H99  871   1.699   1.177   7.813
    1MOL   H100  872   1.713   1.354   7.832
    1MOL   H101  873   1.560   1.282   7.771
    1MOL   H102  874   1.277   1.298   7.578
    1MOL   H103  875   1.301   1.405   7.438
    1MOL   H104  876   1.369   1.239   7.438
    1MOL   H105  877   1.224   1.524   7.732
    1MOL   H106  878   1.388   1.590   7.748
    1MOL   H107  879   1.246   1.697   7.773
    1MOL   H108  880   1.017   1.978   7.699
    1MOL   H109  881   1.079   2.073   7.563
    1MOL   H110  882   0.997   1.917   7.532
    1MOL   H111  883   1.215   2.077   7.898
    1MOL   H112  884   1.366   2.017   7.825
    1MOL   H113  885   1.368   2.164   7.928
    1MOL   H114  886   1.410   2.543   7.980
    1MOL   H115  887   1.460   2.621   7.828
    1MOL   H116  888   1.290   2.570   7.850
    1MOL   H117  889   1.692   2.368   8.020
    1MOL   H118  890   1.676   2.304   7.855
    1MOL   H119  891   1.838   2.313   7.932
    1MOL   H120  892   2.101   2.598   8.037
    1MOL   H121  893   2.017   2.744   7.980
    1MOL   H122  894   1.922   2.600   8.028
    1MOL   H123  895   2.316   2.851   7.756
    1MOL   H124  896   2.282   2.682   7.802
    1MOL   H125  897   2.440   2.726   7.728
    1MOL   H126  898   2.710   2.707   7.495
    1MOL   H127  899   2.673   2.588   7.369
    1MOL   H128  900   2.601   2.752   7.361
    2SOL     OW  901   0.230   0.628   0.113
    2SOL    HW1  902   0.137   0.626   0.150
    2SOL    HW2  903   0.231   0.589   0.021
    3SOL     OW  904   0.225   0.275   0.996
    3SOL    HW1  905   0.260   0.258   1.088
    3SOL    HW2  906   0.137   0.230   0.984
    4SOL     OW  907   0.019   0.368   0.647
    4SOL    HW1  908  -0.063   0.411   0.686
    4SOL    HW2  909  -0.009   0.295   0.584
    5SOL     OW  910   0.569   1.275   1.165
    5SOL    HW1  911   0.476   1.268   1.128
    5SOL    HW2  912   0.580   1.364   1.209
    6SOL     OW  913   1.555   1.511   0.703
    6SOL    HW1  914   1.498   1.495   0.784
    6SOL    HW2  915   1.496   1.521   0.623
    7SOL     OW  916   1.135   0.703   0.717
    7SOL    HW1  917   1.192   0.781   0.692
    7SOL    HW2  918   1.075   0.729   0.793
    8SOL     OW  919   1.755   0.607   0.231
    8SOL    HW1  920   1.743   0.594   0.132
    8SOL    HW2  921   1.725   0.526   0.280
    9SOL     OW  922   0.768   1.144   1.023
    9SOL    HW1  923   0.690   1.161   1.083
    9SOL    HW2  924   0.802   1.231   0.987
   10SOL     OW  925   0.850   0.798   1.823
   10SOL    HW1  926   0.846   0.874   1.888
   10SOL    HW2  927   0.872   0.834   1.732
   11SOL     OW  928   0.685   1.012   0.665
   11SOL    HW1  929   0.754   0.996   0.735
   11SOL    HW2  930   0.612   1.069   0.703
   12SOL     OW  931   0.686   1.161   1.803
   12SOL    HW1  932   0.746   1.240   1.817
   12SOL    HW2  933   0.600   1.192   1.762
   13SOL     OW  934   0.335   1.435   1.061
   13SOL    HW1  935   0.257   1.404   1.008
   13SOL    HW2  936   0.393   1.493   1.004
   14SOL     OW  937   1.460   1.505   1.339
   14SOL    HW1  938   1.484   1.599   1.365
   14SOL    HW2  939   1.444   1.451   1.421
   15SOL     OW  940   0.438   0.392   1.499
   15SOL    HW1  941   0.520   0.336   1.508
   15SOL    HW2  942   0.357   0.334   1.503
   16SOL     OW  943   1.603   0.447   0.737
   16SOL    HW1  944   1.529   0.493   0.687
   16SOL    HW2  945   1.654   0.515   0.790
   17SOL     OW  946   0.231   1.713   0.483
   17SOL    HW1  947   0.265   1.790   0.537
   17SOL    HW2  948   0.275   1.713   0.393
   18SOL     OW  949   1.127   1.341   1.690
   18SOL    HW1  950   1.174   1.341   1.778
   18SOL    HW2  951   1.079   1.254   1.679
   19SOL     OW  952   0.230   1.434   0.538
   19SOL    HW1  953   0.204   1.530   0.538
   19SOL    HW2  954   0.159   1.380   0.583
   20SOL     OW  955   0.240   1.091   0.886
   20SOL    HW1  956   0.254   1.007   0.938
   20SOL    HW2  957   0.185   1.155   0.941
   21SOL     OW  958   0.620   1.786   1.439
   21SOL    HW1  959   0.528   1.769   1.474
   21SOL    HW2  960   0.648   1.878   1.465
   22SOL     OW  961   0.606   0.964   0.123
   22SOL    HW1  962   0.613   1.048   0.069
   22SOL    HW2  963   0.652   0.977   0.211
   23SOL     OW  964   1.594   0.114   1.480
   23SOL    HW1  965   1.576   0.181   1.408
   23SOL    HW2  966   1.591   0.160   1.569
   24SOL     OW  967   0.122   0.643   0.563
   24SOL    HW1  968   0.077   0.555   0.580
   24SOL    HW2  969   0.121   0.697   0.647
   25SOL     OW  970   0.027   1.596   0.117
   25SOL    HW1  971   0.008   1.500   0.138
   25SOL    HW2  972  -0.006   1.654   0.192
   26SOL     OW  973   1.689   0.922   0.612
   26SOL    HW1  974   1.784   0.893   0.620
   26SOL    HW2  975   1.681   0.987   0.537
   27SOL     OW  976   1.641   1.108   0.432
   27SOL    HW1  977   1.727   1.110   0.380
   27SOL    HW2  978   1.655   1.155   0.520
   28SOL     OW  979   0.113   0.737   1.597
   28SOL    HW1  980   0.201   0.724   1.642
   28SOL    HW2  981   0.100   0.834   1.575
   29SOL     OW  982   0.613   1.365   0.726
   29SOL    HW1  983   0.564   1.278   0.735
   29SOL    HW2  984   0.590   1.408   0.639
   30SOL     OW  985   1.293   1.228   1.423
   30SOL    HW1  986   1.330   1.155   1.365
   30SOL    HW2  987   1.345   1.233   1.508
   31SOL     OW  988   0.809   0.004   0.502
   31SOL    HW1  989   0.849   0.095   0.493
   31SOL    HW2  990   0.709   0.012   0.508
   32SOL     OW  991   0.197   0.976   1.264
   32SOL    HW1  992   0.286   0.931   1.250
   32SOL    HW2  993   0.124   0.911   1.245
   33SOL     OW  994   1.525   0.999   0.190
   33SOL    HW1  995   1.462   0.923   0.203
   33SOL    HW2  996   1.573   1.017   0.276
   34SOL     OW  997   1.187   1.792   1.616
   34SOL    HW1  998   1.211   1.852   1.540
   34SOL    HW2  999   1.194   1.697   1.586
   35SOL     OW 1000   0.317   0.251   1.801
   35SOL    HW1 1001   0.388   0.322   1.807
   35SOL    HW2 1002   0.229   0.290   1.829
   36SOL     OW 1003   1.466   1.417   0.953
   36SOL    HW1 1004   1.407   1.423   1.033
   36SOL    HW2 1005   1.451   1.329   0.907
   37SOL     OW 1006   1.667   1.714   0.572
   37SOL    HW1 1007   1.626   1.691   0.484
   37SOL    HW2 1008   1.649   1.640   0.637
   38SOL     OW 1009   0.598   0.729   0.270
   38SOL    HW1 1010   0.622   0.798   0.202
   38SOL    HW2 1011   0.520   0.762   0.324
   39SOL     OW 1012   1.281   0.345   0.944
   39SOL    HW1 1013   1.195   0.295   0.931
   39SOL    HW2 1014   1.343   0.291   1.000
   40SOL     OW 1015   1.576   1.662   0.307
   40SOL    HW1 1016   1.665   1.708   0.310
   40SOL    HW2 1017   1.555   1.638   0.212
   41SOL     OW 1018   0.807   0.605   1.465
   41SOL    HW1 1019   0.760   0.602   1.554
   41SOL    HW2 1020   0.756   0.550   1.399
   42SOL     OW 1021   1.394   0.469   1.674
   42SOL    HW1 1022   1.374   0.512   1.762
   42SOL    HW2 1023   1.472   0.407   1.683
   43SOL     OW 1024   0.973   0.890   1.572
   43SOL    HW1 1025   1.019   0.806   1.543
   43SOL    HW2 1026   0.917   0.924   1.497
   44SOL     OW 1027   0.991   0.410   1.242
   44SOL    HW1 1028   0.914   0.444   1.296
   44SOL    HW2 1029   0.957   0.359   1.163
   45SOL     OW 1030   1.041   0.701   0.429
   45SOL    HW1 1031   1.067   0.697   0.525
   45SOL    HW2 1032   0.956   0.650   0.415
   46SOL     OW 1033   0.076   0.811   0.789
   46SOL    HW1 1034   0.175   0.799   0.798
   46SOL    HW2 1035   0.052   0.906   0.810
   47SOL     OW 1036   0.130   1.821   1.571
   47SOL    HW1 1037   0.120   1.806   1.670
   47SOL    HW2 1038   0.044   1.857   1.535
   48SOL     OW 1039   0.865   0.348   0.195
   48SOL    HW1 1040   0.924   0.411   0.146
   48SOL    HW2 1041   0.884   0.254   0.166
   49SOL     OW 1042   1.719   0.585   1.831
   49SOL    HW1 1043   1.693   0.674   1.795
   49SOL    HW2 1044   1.717   0.517   1.758
   50SOL     OW 1045   1.362   1.144   0.545
   50SOL    HW1 1046   1.445   1.115   0.497
   50SOL    HW2 1047   1.313   1.211   0.489
   51SOL     OW 1048   0.550   0.196   0.885
   51SOL    HW1 1049   0.545   0.191   0.985
   51SOL    HW2 1050   0.552   0.292   0.856
   52SOL     OW 1051   1.008   1.456   0.477
   52SOL    HW1 1052   0.962   1.528   0.425
   52SOL    HW2 1053   1.004   1.476   0.575
   53SOL     OW 1054   0.351   1.801   0.853
   53SOL    HW1 1055   0.401   1.715   0.859
   53SOL    HW2 1056   0.416   1.878   0.850
   54SOL     OW 1057   1.795   1.066   0.873
   54SOL    HW1 1058   1.733   1.051   0.797
   54SOL    HW2 1059   1.743   1.077   0.958
   55SOL     OW 1060   1.227   1.550   1.506
   55SOL    HW1 1061   1.233   1.473   1.570
   55SOL    HW2 1062   1.175   1.524   1.426
   56SOL     OW 1063   0.321   0.943   0.242
   56SOL    HW1 1064   0.403   0.982   0.200
   56SOL    HW2 1065   0.294   0.861   0.193
   57SOL     OW 1066   1.458   0.735   0.728
   57SOL    HW1 1067   1.453   0.670   0.803
   57SOL    HW2 1068   1.538   0.794   0.741
   58SOL     OW 1069   0.461   1.266   1.727
   58SOL    HW1 1070   0.411   1.267   1.641
   58SOL    HW2 1071   0.398   1.248   1.803
   59SOL     OW 1072   1.111   1.776   0.237
   59SOL    HW1 1073   1.051   1.714   0.287
   59SOL    HW2 1074   1.142   1.732   0.152
   60SOL     OW 1075   0.202   0.285   1.498
   60SOL    HW1 1076   0.122   0.345   1.485
   60SOL    HW2 1077   0.192   0.236   1.584
   61SOL     OW 1078   1.632   1.377   0.081
   61SOL    HW1 1079   1.600   1.471   0.071
   61SOL    HW2 1080   1.556   1.314   0.069
   62SOL     OW 1081   0.464   1.743   0.323
   62SOL    HW1 1082   0.497   1.782   0.409
   62SOL    HW2 1083   0.540   1.736   0.258
   63SOL     OW 1084   1.400   0.107   0.426
   63SOL    HW1 1085   1.376   0.070   0.336
   63SOL    HW2 1086   1.499   0.123   0.430
   64SOL     OW 1087   0.249   1.785   1.241
   64SOL    HW1 1088   0.306   1.720   1.291
   64SOL    HW2 1089   0.233   1.752   1.148
   65SOL     OW 1090   0.940   1.698   0.904
   65SOL    HW1 1091   1.020   1.641   0.925
   65SOL    HW2 1092   0.891   1.658   0.827
   66SOL     OW 1093   0.382   0.700   0.480
   66SOL    HW1 1094   0.427   0.610   0.477
   66SOL    HW2 1095   0.288   0.689   0.513
   67SOL     OW 1096   1.547   0.222   1.729
   67SOL    HW1 1097   1.542   0.259   1.821
   67SOL    HW2 1098   1.475   0.153   1.717
   68SOL     OW 1099   0.614   0.122   0.117
   68SOL    HW1 1100   0.712   0.100   0.124
   68SOL    HW2 1101   0.583   0.105   0.024
   69SOL     OW 1102   0.781   0.264   1.749
   69SOL    HW1 1103   0.848   0.203   1.792
   69SOL    HW2 1104   0.708   0.283   1.814
   70SOL     OW 1105   0.888   1.514   1.195
   70SOL    HW1 1106   0.865   1.489   1.101
   70SOL    HW2 1107   0.949   1.445   1.234
   71SOL     OW 1108   1.351   0.590   1.433
   71SOL    HW1 1109   1.379   0.547   1.518
   71SOL    HW2 1110   1.376   0.686   1.434
   72SOL     OW 1111   0.803   1.402   0.924
   72SOL    HW1 1112   0.893   1.416   0.882
   72SOL    HW2 1113   0.732   1.404   0.853
   73SOL     OW 1114   0.922   0.503   0.899
   73SOL    HW1 1115   0.897   0.494   0.803
   73SOL    HW2 1116   0.970   0.421   0.930
   74SOL     OW 1117   0.539   0.064   0.512
   74SOL    HW1 1118   0.458   0.065   0.570
   74SOL    HW2 1119   0.542   0.147   0.457
   75SOL     OW 1120   1.434   1.188   0.041
   75SOL    HW1 1121   1.466   1.112   0.098
   75SOL    HW2 1122   1.342   1.215   0.071
   76SOL     OW 1123   0.297   0.035   0.171
   76SOL    HW1 1124   0.346   0.119   0.150
   76SOL    HW2 1125   0.359  -0.030   0.216
   77SOL     OW 1126   0.935   0.236   0.480
   77SOL    HW1 1127   0.887   0.277   0.402
   77SOL    HW2 1128   1.034   0.234   0.461
   78SOL     OW 1129   1.076   0.683   1.464
   78SOL    HW1 1130   0.996   0.622   1.467
   78SOL    HW2 1131   1.157   0.630   1.440
   79SOL     OW 1132   1.227   1.570   0.793
   79SOL    HW1 1133   1.248   1.644   0.728
   79SOL    HW2 1134   1.295   1.570   0.866
   80SOL     OW 1135   0.459   1.152   0.741
   80SOL    HW1 1136   0.388   1.125   0.806
   80SOL    HW2 1137   0.433   1.124   0.648
   81SOL     OW 1138   1.271   1.797   0.591
   81SOL    HW1 1139   1.315   1.861   0.527
   81SOL    HW2 1140   1.221   1.849   0.661
   82SOL     OW 1141   1.032   0.549   0.016
   82SOL    HW1 1142   0.991   0.631  -0.023
   82SOL    HW2 1143   1.096   0.575   0.089
   83SOL     OW 1144   0.078   0.556   1.386
   83SOL    HW1 1145   0.170   0.555   1.345
   83SOL    HW2 1146   0.072   0.630   1.453
   84SOL     OW 1147   0.561   0.222   1.147
   84SOL    HW1 1148   0.599   0.138   1.184
   84SOL    HW2 1149   0.473   0.241   1.191
   85SOL     OW 1150   0.866   0.454   0.642
   85SOL    HW1 1151   0.834   0.526   0.580
   85SOL    HW2 1152   0.890   0.373   0.589
   86SOL     OW 1153   1.017   0.039   0.753
   86SOL    HW1 1154   0.945   0.044   0.684
   86SOL    HW2 1155   0.993  -0.030   0.822
   87SOL     OW 1156   1.429   1.173   0.867
   87SOL    HW1 1157   1.374   1.089   0.860
   87SOL    HW2 1158   1.455   1.202   0.775
   88SOL     OW 1159   1.466   0.590   0.992
   88SOL    HW1 1160   1.436   0.495   0.999
   88SOL    HW2 1161   1.539   0.606   1.058
   89SOL     OW 1162   1.857   0.833   0.377
   89SOL    HW1 1163   1.899   0.769   0.441
   89SOL    HW2 1164   1.819   0.782   0.299
   90SOL     OW 1165   0.488   1.385   0.174
   90SOL    HW1 1166   0.401   1.370   0.221
   90SOL    HW2 1167   0.471   1.411   0.079
   91SOL     OW 1168   1.664   1.280   0.657
   91SOL    HW1 1169   1.763   1.288   0.671
   91SOL    HW2 1170   1.619   1.364   0.688
   92SOL     OW 1171   1.390   0.575   0.078
   92SOL    HW1 1172   1.336   0.554   0.159
   92SOL    HW2 1173   1.481   0.534   0.087
   93SOL     OW 1174   0.527   0.256   0.328
   93SOL    HW1 1175   0.554   0.197   0.253
   93SOL    HW2 1176   0.527   0.351   0.297
   94SOL     OW 1177   1.754   1.223   1.588
   94SOL    HW1 1178   1.845   1.184   1.575
   94SOL    HW2 1179   1.762   1.319   1.612
   95SOL     OW 1180   1.064   1.347   1.340
   95SOL    HW1 1181   0.984   1.324   1.395
   95SOL    HW2 1182   1.147   1.321   1.389
   96SOL     OW 1183   1.592   1.629   1.625
   96SOL    HW1 1184   1.619   1.663   1.535
   96SOL    HW2 1185   1.671   1.591   1.671
   97SOL     OW 1186   1.111   1.195   1.100
   97SOL    HW1 1187   1.071   1.239   1.181
   97SOL    HW2 1188   1.070   1.232   1.017
   98SOL     OW 1189   1.638   1.099   1.079
   98SOL    HW1 1190   1.643   1.180   1.138
   98SOL    HW2 1191   1.552   1.101   1.028
   99SOL     OW 1192   0.915   0.089   1.402
   99SOL    HW1 1193   0.940   0.069   1.307
   99SOL    HW2 1194   0.987   0.145   1.444
  100SOL     OW 1195   0.980   1.116   1.719
  100SOL    HW1 1196   0.881   1.122   1.729
  100SOL    HW2 1197   1.003   1.036   1.663
  101SOL     OW 1198   0.705   1.050   0.368
  101SOL    HW1 1199   0.691   1.057   0.467
  101SOL    HW2 1200   0.789   0.999   0.350
  102SOL     OW 1201   0.410   0.813   1.251
  102SOL    HW1 1202   0.496   0.825   1.301
  102SOL    HW2 1203   0.368   0.726   1.278
  103SOL     OW 1204   1.274   0.386   1.262
  103SOL    HW1 1205   1.295   0.460   1.326
  103SOL    HW2 1206   1.185   0.403   1.219
  104SOL     OW 1207   0.064   1.564   1.331
  104SOL    HW1 1208   0.018   1.646   1.297
  104SOL    HW2 1209   0.162   1.583   1.340
  105SOL     OW 1210   0.367   1.100   0.501
  105SOL    HW1 1211   0.360   1.183   0.445
  105SOL    HW2 1212   0.371   1.020   0.441
  106SOL     OW 1213   0.566   0.537   0.865
  106SOL    HW1 1214   0.578   0.603   0.791
  106SOL    HW2 1215   0.612   0.571   0.948
  107SOL     OW 1216   1.252   1.348   0.388
  107SOL    HW1 1217   1.302   1.425   0.428
  107SOL    HW2 1218   1.157   1.350   0.420
  108SOL     OW 1219   1.272   1.445   1.142
  108SOL    HW1 1220   1.319   1.458   1.229
  108SOL    HW2 1221   1.206   1.371   1.151
  109SOL     OW 1222   1.582   0.639   0.472
  109SOL    HW1 1223   1.551   0.700   0.545
  109SOL    HW2 1224   1.632   0.691   0.403
  110SOL     OW 1225   0.354   1.510   1.329
  110SOL    HW1 1226   0.333   1.466   1.242
  110SOL    HW2 1227   0.451   1.536   1.332
  111SOL     OW 1228   0.402   0.751   1.598
  111SOL    HW1 1229   0.470   0.806   1.551
  111SOL    HW2 1230   0.442   0.663   1.625
  112SOL     OW 1231   1.587   0.779   1.670
  112SOL    HW1 1232   1.495   0.817   1.665
  112SOL    HW2 1233   1.647   0.826   1.605
  113SOL     OW 1234   1.013   0.105   1.770
  113SOL    HW1 1235   1.019   0.190   1.718
  113SOL    HW2 1236   1.045   0.029   1.713
  114SOL     OW 1237   0.504   0.050   1.740
  114SOL    HW1 1238   0.462  -0.007   1.670
  114SOL    HW2 1239   0.438   0.119   1.772
  115SOL     OW 1240   0.573   0.870   1.029
  115SOL    HW1 1241   0.617   0.959   1.020
  115SOL    HW2 1242   0.510   0.870   1.106
  116SOL     OW 1243   1.360   0.862   1.045
  116SOL    HW1 1244   1.285   0.862   0.979
  116SOL    HW2 1245   1.397   0.770   1.054
  117SOL     OW 1246   1.209   0.525   0.275
  117SOL    HW1 1247   1.222   0.441   0.329
  117SOL    HW2 1248   1.180   0.599   0.335
  118SOL     OW 1249   0.307   0.213   1.231
  118SOL    HW1 1250   0.284   0.250   1.321
  118SOL    HW2 1251   0.277   0.118   1.225
  119SOL     OW 1252   0.037   1.310   1.282
  119SOL    HW1 1253   0.090   1.261   1.350
  119SOL    HW2 1254   0.059   1.408   1.287
  120SOL     OW 1255   0.732   0.634   1.064
  120SOL    HW1 1256   0.791   0.608   0.988
  120SOL    HW2 1257   0.704   0.730   1.053
  121SOL     OW 1258   1.728   0.935   1.854
  121SOL    HW1 1259   1.682   0.928   1.765
  121SOL    HW2 1260   1.666   0.979   1.920
  122SOL     OW 1261   0.307   0.063   0.618
  122SOL    HW1 1262   0.296   0.157   0.651
  122SOL    HW2 1263   0.302   0.000   0.695
  123SOL     OW 1264   1.622   0.367   0.374
  123SOL    HW1 1265   1.624   0.291   0.438
  123SOL    HW2 1266   1.574   0.444   0.414
  124SOL     OW 1267   1.023   0.766   0.966
  124SOL    HW1 1268   1.038   0.787   1.062
  124SOL    HW2 1269   0.993   0.671   0.957
  125SOL     OW 1270   0.980   1.573   1.700
  125SOL    HW1 1271   0.960   1.617   1.612
  125SOL    HW2 1272   1.019   1.482   1.684
  126SOL     OW 1273   1.859   1.518   1.605
  126SOL    HW1 1274   1.873   1.545   1.510
  126SOL    HW2 1275   1.942   1.540   1.658
  127SOL     OW 1276   0.350   0.898   1.804
  127SOL    HW1 1277   0.426   0.942   1.852
  127SOL    HW2 1278   0.385   0.851   1.722
  128SOL     OW 1279   1.540   0.274   0.125
  128SOL    HW1 1280   1.479   0.199   0.148
  128SOL    HW2 1281   1.562   0.326   0.208
  129SOL     OW 1282   1.303   0.838   0.042
  129SOL    HW1 1283   1.337   0.745   0.057
  129SOL    HW2 1284   1.321   0.865  -0.053
  130SOL     OW 1285   1.068   1.333   0.849
  130SOL    HW1 1286   1.075   1.249   0.794
  130SOL    HW2 1287   1.130   1.402   0.813
  131SOL     OW 1288   0.319   0.810   0.949
  131SOL    HW1 1289   0.412   0.846   0.954
  131SOL    HW2 1290   0.313   0.725   1.001
  132SOL     OW 1291   0.339   0.509   1.006
  132SOL    HW1 1292   0.287   0.426   0.989
  132SOL    HW2 1293   0.416   0.514   0.942
  133SOL     OW 1294   1.138   0.380   1.678
  133SOL    HW1 1295   1.093   0.443   1.742
  133SOL    HW2 1296   1.231   0.411   1.661
  134SOL     OW 1297   1.160   0.207   1.477
  134SOL    HW1 1298   1.160   0.271   1.554
  134SOL    HW2 1299   1.188   0.255   1.394
  135SOL     OW 1300   0.008   1.326   0.200
  135SOL    HW1 1301  -0.085   1.347   0.169
  135SOL    HW2 1302   0.018   1.227   0.213
  136SOL     OW 1303   0.088   1.801   0.927
  136SOL    HW1 1304   0.046   1.715   0.900
  136SOL    HW2 1305   0.182   1.804   0.893
  137SOL     OW 1306   0.504   1.568   0.910
  137SOL    HW1 1307   0.570   1.642   0.919
  137SOL    HW2 1308   0.548   1.489   0.868
  138SOL     OW 1309   1.002   0.796   1.238
  138SOL    HW1 1310   1.043   0.764   1.324
  138SOL    HW2 1311   0.906   0.769   1.235
  139SOL     OW 1312   0.040   0.544   1.114
  139SOL    HW1 1313   0.125   0.511   1.073
  139SOL    HW2 1314   0.053   0.559   1.212
  140SOL     OW 1315   0.189   0.520   1.722
  140SOL    HW1 1316   0.248   0.480   1.652
  140SOL    HW2 1317   0.131   0.591   1.681
  141SOL     OW 1318   1.369   0.950   1.660
  141SOL    HW1 1319   1.408   1.039   1.680
  141SOL    HW2 1320   1.379   0.930   1.563
  142SOL     OW 1321   0.815   0.572   0.325
  142SOL    HW1 1322   0.822   0.483   0.279
  142SOL    HW2 1323   0.721   0.606   0.317
  143SOL     OW 1324   1.657   0.604   1.206
  143SOL    HW1 1325   1.619   0.535   1.268
  143SOL    HW2 1326   1.739   0.568   1.162
  144SOL     OW 1327   0.252   1.564   1.744
  144SOL    HW1 1328   0.222   1.621   1.820
  144SOL    HW2 1329   0.245   1.467   1.770
  145SOL     OW 1330   0.671   0.464   1.269
  145SOL    HW1 1331   0.637   0.375   1.239
  145SOL    HW2 1332   0.697   0.518   1.189
  146SOL     OW 1333   0.930   1.678   1.465
  146SOL    HW1 1334   0.906   1.660   1.370
  146SOL    HW2 1335   0.960   1.772   1.475
  147SOL     OW 1336   0.473   0.500   0.191
  147SOL    HW1 1337   0.534   0.580   0.195
  147SOL    HW2 1338   0.378   0.531   0.198
  148SOL     OW 1339   0.159   1.137   1.466
  148SOL    HW1 1340   0.181   1.076   1.542
  148SOL    HW2 1341   0.169   1.088   1.380
  149SOL     OW 1342   1.347   1.059   1.234
  149SOL    HW1 1343   1.371   0.996   1.160
  149SOL    HW2 1344   1.257   1.099   1.216
  150SOL     OW 1345   1.302   0.855   0.309
  150SOL    HW1 1346   1.216   0.824   0.351
  150SOL    HW2 1347   1.298   0.841   0.210
  151SOL     OW 1348   1.252   1.731   1.128
  151SOL    HW1 1349   1.336   1.736   1.074
  151SOL    HW2 1350   1.229   1.635   1.146
  152SOL     OW 1351   0.083   1.258   1.022
  152SOL    HW1 1352   0.078   1.257   1.122
  152SOL    HW2 1353   0.000   1.217   0.984
  153SOL     OW 1354   0.688   1.662   1.716
  153SOL    HW1 1355   0.632   1.743   1.725
  153SOL    HW2 1356   0.740   1.666   1.630
  154SOL     OW 1357   0.903   0.086   0.133
  154SOL    HW1 1358   0.954   0.087   0.047
  154SOL    HW2 1359   0.959   0.044   0.204
  155SOL     OW 1360   1.726   0.135   0.523
  155SOL    HW1 1361   1.799   0.118   0.456
  155SOL    HW2 1362   1.695   0.048   0.561
  156SOL     OW 1363   1.388   1.573   0.477
  156SOL    HW1 1364   1.455   1.585   0.403
  156SOL    HW2 1365   1.348   1.662   0.500
  157SOL     OW 1366   0.130   1.794   1.851
  157SOL    HW1 1367   0.089   1.720   1.904
  157SOL    HW2 1368   0.194   1.845   1.909
  158SOL     OW 1369   1.280   0.927   0.672
  158SOL    HW1 1370   1.340   0.846   0.674
  158SOL    HW2 1371   1.320   0.996   0.612
  159SOL     OW 1372   0.830   1.273   1.422
  159SOL    HW1 1373   0.825   1.306   1.517
  159SOL    HW2 1374   0.744   1.292   1.376
  160SOL     OW 1375   0.672   1.616   0.154
  160SOL    HW1 1376   0.681   1.626   0.055
  160SOL    HW2 1377   0.632   1.527   0.175
  161SOL     OW 1378   1.650   1.720   1.394
  161SOL    HW1 1379   1.703   1.730   1.310
  161SOL    HW2 1380   1.623   1.810   1.428
  162SOL     OW 1381   1.841   0.175   0.963
  162SOL    HW1 1382   1.880   0.090   0.927
  162SOL    HW2 1383   1.743   0.177   0.944
  163SOL     OW 1384   0.263   0.326   0.720
  163SOL    HW1 1385   0.184   0.377   0.686
  163SOL    HW2 1386   0.254   0.311   0.818
  164SOL     OW 1387   1.194   1.612   0.031
  164SOL    HW1 1388   1.200   1.519   0.068
  164SOL    HW2 1389   1.135   1.612  -0.049
  165SOL     OW 1390   0.822   1.002   1.372
  165SOL    HW1 1391   0.862   1.001   1.280
  165SOL    HW2 1392   0.832   1.094   1.412
  166SOL     OW 1393   0.916   0.910   0.291
  166SOL    HW1 1394   0.979   0.948   0.223
  166SOL    HW2 1395   0.956   0.827   0.330
  167SOL     OW 1396   1.504   1.607   0.044
  167SOL    HW1 1397   1.412   1.644   0.051
  167SOL    HW2 1398   1.542   1.627  -0.046
  168SOL     OW 1399   0.372   1.288   1.490
  168SOL    HW1 1400   0.359   1.381   1.456
  168SOL    HW2 1401   0.288   1.236   1.477
  169SOL     OW 1402   1.614   1.292   1.289
  169SOL    HW1 1403   1.674   1.295   1.369
  169SOL    HW2 1404   1.539   1.356   1.302
  170SOL     OW 1405   1.039   1.098   0.696
  170SOL    HW1 1406   0.969   1.051   0.750
  170SOL    HW2 1407   1.098   1.030   0.653
  171SOL     OW 1408   1.014   0.236   0.971
  171SOL    HW1 1409   1.006   0.200   0.878
  171SOL    HW2 1410   1.012   0.160   1.036
  172SOL     OW 1411   0.590   1.487   0.491
  172SOL    HW1 1412   0.632   1.429   0.421
  172SOL    HW2 1413   0.546   1.566   0.447
  173SOL     OW 1414   1.709   0.385   1.381
  173SOL    HW1 1415   1.782   0.454   1.385
  173SOL    HW2 1416   1.737   0.310   1.322
  174SOL     OW 1417   0.255   1.348   0.290
  174SOL    HW1 1418   0.159   1.349   0.263
  174SOL    HW2 1419   0.267   1.401   0.374
  175SOL     OW 1420   0.105   1.013   1.726
  175SOL    HW1 1421   0.028   0.980   1.780
  175SOL    HW2 1422   0.190   0.983   1.768
  176SOL     OW 1423   0.672   0.203   1.489
  176SOL    HW1 1424   0.762   0.187   1.449
  176SOL    HW2 1425   0.680   0.208   1.588
  177SOL     OW 1426   0.075   0.345   0.033
  177SOL    HW1 1427  -0.017   0.317   0.004
  177SOL    HW2 1428   0.106   0.422  -0.023
  178SOL     OW 1429   1.440   0.856   1.398
  178SOL    HW1 1430   1.383   0.908   1.335
  178SOL    HW2 1431   1.536   0.868   1.374
  179SOL     OW 1432   0.072   0.166   0.318
  179SOL    HW1 1433   0.055   0.249   0.264
  179SOL    HW2 1434   0.162   0.129   0.296
  180SOL     OW 1435   1.183   1.335   0.119
  180SOL    HW1 1436   1.084   1.324   0.121
  180SOL    HW2 1437   1.217   1.350   0.212
  181SOL     OW 1438   0.613   0.842   1.431
  181SOL    HW1 1439   0.669   0.923   1.414
  181SOL    HW2 1440   0.672   0.762   1.434
  182SOL     OW 1441   1.493   1.767   0.959
  182SOL    HW1 1442   1.526   1.831   0.890
  182SOL    HW2 1443   1.559   1.761   1.034
  183SOL     OW 1444   0.716   0.565   1.708
  183SOL    HW1 1445   0.735   0.630   1.782
  183SOL    HW2 1446   0.776   0.485   1.717
  184SOL     OW 1447   1.450   1.220   1.633
  184SOL    HW1 1448   1.441   1.210   1.732
  184SOL    HW2 1449   1.546   1.213   1.607
  185SOL     OW 1450   0.390   1.741   1.560
  185SOL    HW1 1451   0.299   1.782   1.558
  185SOL    HW2 1452   0.383   1.647   1.592
  186SOL     OW 1453   1.674   0.883   1.254
  186SOL    HW1 1454   1.647   0.794   1.217
  186SOL    HW2 1455   1.675   0.951   1.181
  187SOL     OW 1456   1.225   0.325   0.449
  187SOL    HW1 1457   1.290   0.251   0.438
  187SOL    HW2 1458   1.245   0.375   0.533
  188SOL     OW 1459   0.594   0.745   0.652
  188SOL    HW1 1460   0.644   0.830   0.633
  188SOL    HW2 1461   0.506   0.747   0.604
  189SOL     OW 1462   1.777   0.342   1.642
  189SOL    HW1 1463   1.760   0.373   1.548
  189SOL    HW2 1464   1.693   0.305   1.680
  190SOL     OW 1465   1.730   0.934   1.517
  190SOL    HW1 1466   1.768   1.025   1.532
  190SOL    HW2 1467   1.722   0.917   1.418
  191SOL     OW 1468   0.859   1.374   0.016
  191SOL    HW1 1469   0.813   1.389   0.104
  191SOL    HW2 1470   0.903   1.459  -0.014
  192SOL     OW 1471   0.661   1.790   0.953
  192SOL    HW1 1472   0.615   1.878   0.940
  192SOL    HW2 1473   0.760   1.802   0.946
  193SOL     OW 1474   0.859   0.956   0.861
  193SOL    HW1 1475   0.913   0.887   0.909
  193SOL    HW2 1476   0.827   1.025   0.927
  194SOL     OW 1477   1.083   0.984   0.087
  194SOL    HW1 1478   1.060   1.037   0.005
  194SOL    HW2 1479   1.164   0.928   0.068
  195SOL     OW 1480   1.861   1.569   0.851
  195SOL    HW1 1481   1.790   1.557   0.781
  195SOL    HW2 1482   1.862   1.490   0.911
  196SOL     OW 1483   0.221   1.314   1.844
  196SOL    HW1 1484   0.156   1.241   1.823
  196SOL    HW2 1485   0.225   1.328   1.942
  197SOL     OW 1486   0.079   1.240   0.653
  197SOL    HW1 1487   0.078   1.193   0.741
  197SOL    HW2 1488   0.161   1.212   0.602
  198SOL     OW 1489   0.672   1.391   1.624
  198SOL    HW1 1490   0.594   1.341   1.662
  198SOL    HW2 1491   0.669   1.486   1.655
  199SOL     OW 1492   1.824   0.192   1.227
  199SOL    HW1 1493   1.820   0.102   1.271
  199SOL    HW2 1494   1.827   0.181   1.128
  200SOL     OW 1495   0.428   0.424   0.520
  200SOL    HW1 1496   0.458   0.352   0.458
  200SOL    HW2 1497   0.389   0.384   0.603
  201SOL     OW 1498   1.705   1.487   1.104
  201SOL    HW1 1499   1.612   1.462   1.077
  201SOL    HW2 1500   1.731   1.437   1.186
  202SOL     OW 1501   0.317   0.547   1.280
  202SOL    HW1 1502   0.355   0.488   1.352
  202SOL    HW2 1503   0.357   0.521   1.192
  203SOL     OW 1504   0.812   1.586   0.687
  203SOL    HW1 1505   0.844   1.596   0.593
  203SOL    HW2 1506   0.733   1.524   0.689
  204SOL     OW 1507   1.424   0.214   1.112
  204SOL    HW1 1508   1.476   0.149   1.167
  204SOL    HW2 1509   1.375   0.277   1.173
  205SOL     OW 1510   1.001   0.034   1.154
  205SOL    HW1 1511   0.938  -0.038   1.123
  205SOL    HW2 1512   1.094  -0.002   1.154
  206SOL     OW 1513   0.770   1.330   0.301
  206SOL    HW1 1514   0.724   1.243   0.318
  206SOL    HW2 1515   0.861   1.327   0.342
  207SOL     OW 1516   0.618   1.567   1.284
  207SOL    HW1 1517   0.613   1.649   1.341
  207SOL    HW2 1518   0.707   1.564   1.239
  208SOL     OW 1519   1.352   0.052   0.168
  208SOL    HW1 1520   1.387   0.011   0.084
  208SOL    HW2 1521   1.262   0.014   0.188
  209SOL     OW 1522   1.300   0.453   0.691
  209SOL    HW1 1523   1.241   0.533   0.695
  209SOL    HW2 1524   1.315   0.418   0.784
  210SOL     OW 1525   1.593   0.221   0.882
  210SOL    HW1 1526   1.509   0.220   0.936
  210SOL    HW2 1527   1.595   0.304   0.826
  211SOL     OW 1528   0.039   1.077   0.300
  211SOL    HW1 1529   0.138   1.066   0.291
  211SOL    HW2 1530  -0.001   0.991   0.332
  212SOL     OW 1531   0.875   1.646   0.337
  212SOL    HW1 1532   0.798   1.611   0.283
  212SOL    HW2 1533   0.843   1.717   0.399
  213SOL     OW 1534   0.230   0.628   1.975
  213SOL    HW1 1535   0.137   0.626   2.012
  213SOL    HW2 1536   0.231   0.589   1.883
  214SOL     OW 1537   0.225   0.275   2.858
  214SOL    HW1 1538   0.260   0.258   2.950
  214SOL    HW2 1539   0.137   0.230   2.846
  215SOL     OW 1540   0.019   0.368   2.509
  215SOL    HW1 1541  -0.063   0.411   2.548
  215SOL    HW2 1542  -0.009   0.295   2.446
  216SOL     OW 1543   0.569   1.275   3.027
  216SOL    HW1 1544   0.476   1.268   2.990
  216SOL    HW2 1545   0.580   1.364   3.071
  217SOL     OW 1546   1.555   1.511   2.565
  217SOL    HW1 1547   1.498   1.495   2.646
  217SOL    HW2 1548   1.496   1.521   2.485
  218SOL     OW 1549   1.135   0.703   2.579
  218SOL    HW1 1550   1.192   0.781   2.554
  218SOL    HW2 1551   1.075   0.729   2.655
  219SOL     OW 1552   1.755   0.607   2.093
  219SOL    HW1 1553   1.743   0.594   1.994
  219SOL    HW2 1554   1.725   0.526   2.142
  220SOL     OW 1555   0.768   1.144   2.885
  220SOL    HW1 1556   0.690   1.161   2.945
  220SOL    HW2 1557   0.802   1.231   2.849
  221SOL     OW 1558   0.850   0.798   3.685
  221SOL    HW1 1559   0.846   0.874   3.750
  221SOL    HW2 1560   0.872   0.834   3.594
  222SOL     OW 1561   0.685   1.012   2.527
  222SOL    HW1 1562   0.754   0.996   2.597
  222SOL    HW2 1563   0.612   1.069   2.565
  223SOL     OW 1564   0.686   1.161   3.665
  223SOL    HW1 1565   0.746   1.240   3.679
  223SOL    HW2 1566   0.600   1.192   3.624
  224SOL     OW 1567   0.335   1.435   2.923
  224SOL    HW1 1568   0.257   1.404   2.870
  224SOL    HW2 1569   0.393   1.493   2.866
  225SOL     OW 1570   1.460   1.505   3.201
  225SOL    HW1 1571   1.484   1.599   3.227
  225SOL    HW2 1572   1.444   1.451   3.283
  226SOL     OW 1573   0.438   0.392   3.361
  226SOL    HW1 1574   0.520   0.336   3.370
  226SOL    HW2 1575   0.357   0.334   3.365
  227SOL     OW 1576   1.603   0.447   2.599
  227SOL    HW1 1577   1.529   0.493   2.549
  227SOL    HW2 1578   1.654   0.515   2.652
  228SOL     OW 1579   0.231   1.713   2.345
  228SOL    HW1 1580   0.265   1.790   2.399
  228SOL    HW2 1581   0.275   1.713   2.255
  229SOL     OW 1582   1.127   1.341   3.552
  229SOL    HW1 1583   1.174   1.341   3.640
  229SOL    HW2 1584   1.079   1.254   3.541
  230SOL     OW 1585   0.230   1.434   2.400
  230SOL    HW1 1586   0.204   1.530   2.400
  230SOL    HW2 1587   0.159   1.380   2.445
  231SOL     OW 1588   0.240   1.091   2.748
  231SOL    HW1 1589   0.254   1.007   2.800
  231SOL    HW2 1590   0.185   1.155   2.803
  232SOL     OW 1591   0.620   1.786   3.301
  232SOL    HW1 1592   0.528   1.769   3.336
  232SOL    HW2 1593   0.648   1.878   3.327
  233SOL     OW 1594   0.606   0.964   1.985
  233SOL    HW1 1595   0.613   1.048   1.931
  233SOL    HW2 1596   0.652   0.977   2.073
  234SOL     OW 1597   1.594   0.114   3.342
  234SOL    HW1 1598   1.576   0.181   3.270
  234SOL    HW2 1599   1.591   0.160   3.431
  235SOL     OW 1600   0.122   0.643   2.425
  235SOL    HW1 1601   0.077   0.555   2.442
  235SOL    HW2 1602   0.121   0.697   2.509
  236SOL     OW 1603   0.027   1.596   1.979
  236SOL    HW1 1604   0.008   1.500   2.000
  236SOL    HW2 1605  -0.006   1.654   2.054
  237SOL     OW 1606   1.689   0.922   2.474
  237SOL    HW1 1607   1.784   0.893   2.482
  237SOL    HW2 1608   1.681   0.987   2.399
  238SOL     OW 1609   1.641   1.108   2.294
  238SOL    HW1 1610   1.727   1.110   2.242
  238SOL    HW2 1611   1.655   1.155   2.382
  239SOL     OW 1612   0.113   0.737   3.459
  239SOL    HW1 1613   0.201   0.724   3.504
  239SOL    HW2 1614   0.100   0.834   3.437
  240SOL     OW 1615   0.613   1.365   2.588
  240SOL    HW1 1616   0.564   1.278   2.597
  240SOL    HW2 1617   0.590   1.408   2.501
  241SOL     OW 1618   1.293   1.228   3.285
  241SOL    HW1 1619   1.330   1.155   3.227
  241SOL    HW2 1620   1.345   1.233   3.370
  242SOL     OW 1621   0.809   0.004   2.364
  242SOL    HW1 1622   0.849   0.095   2.355
  242SOL    HW2 1623   0.709   0.012   2.370
  243SOL     OW 1624   0.197   0.976   3.126
  243SOL    HW1 1625   0.286   0.931   3.112
  243SOL    HW2 1626   0.124   0.911   3.107
  244SOL     OW 1627   1.525   0.999   2.052
  244SOL    HW1 1628   1.462   0.923   2.065
  244SOL    HW2 1629   1.573   1.017   2.138
  245SOL     OW 1630   1.187   1.792   3.478
  245SOL    HW1 1631   1.211   1.852   3.402
  245SOL    HW2 1632   1.194   1.697   3.448
  246SOL     OW 1633   0.317   0.251   3.663
  246SOL    HW1 1634   0.388   0.322   3.669
  246SOL    HW2 1635   0.229   0.290   3.691
  247SOL     OW 1636   1.466   1.417   2.815
  247SOL    HW1 1637   1.407   1.423   2.895
  247SOL    HW2 1638   1.451   1.329   2.769
  248SOL     OW 1639   1.667   1.714   2.434
  248SOL    HW1 1640   1.626   1.691   2.346
  248SOL    HW2 1641   1.649   1.640   2.499
  249SOL     OW 1642   0.598   0.729   2.132
  249SOL    HW1 1643   0.622   0.798   2.064
  249SOL    HW2 1644   0.520   0.762   2.186
  250SOL     OW 1645   1.281   0.345   2.806
  250SOL    HW1 1646   1.195   0.295   2.793
  250SOL    HW2 1647   1.343   0.291   2.862
  251SOL     OW 1648   1.576   1.662   2.169
  251SOL    HW1 1649   1.665   1.708   2.172
  251SOL    HW2 1650   1.555   1.638   2.074
  252SOL     OW 1651   0.807   0.605   3.327
  252SOL    HW1 1652   0.760   0.602   3.416
  252SOL    HW2 1653   0.756   0.550   3.261
  253SOL     OW 1654   1.394   0.469   3.536
  253SOL    HW1 1655   1.374   0.512   3.624
  253SOL    HW2 1656   1.472   0.407   3.545
  254SOL     OW 1657   0.973   0.890   3.434
  254SOL    HW1 1658   1.019   0.806   3.405
  254SOL    HW2 1659   0.917   0.924   3.359
  255SOL     OW 1660   0.991   0.410   3.104
  255SOL    HW1 1661   0.914   0.444   3.158
  255SOL    HW2 1662   0.957   0.359   3.025
  256SOL     OW 1663   1.041   0.701   2.291
  256SOL    HW1 1664   1.067   0.697   2.387
  256SOL    HW2 1665   0.956   0.650   2.277
  257SOL     OW 1666   0.076   0.811   2.651
  257SOL    HW1 1667   0.175   0.799   2.660
  257SOL    HW2 1668   0.052   0.906   2.672
  258SOL     OW 1669   0.130   1.821   3.433
  258SOL    HW1 1670   0.120   1.806   3.532
  258SOL    HW2 1671   0.044   1.857   3.397
  259SOL     OW 1672   0.865   0.348   2.057
  259SOL    HW1 1673   0.924   0.411   2.008
  259SOL    HW2 1674   0.884   0.254   2.028
  260SOL     OW 1675   1.719   0.585   3.693
  260SOL    HW1 1676   1.693   0.674   3.657
  260SOL    HW2 1677   1.717   0.517   3.620
  261SOL     OW 1678   1.362   1.144   2.407
  261SOL    HW1 1679   1.445   1.115   2.359
  261SOL    HW2 1680   1.313   1.211   2.351
  262SOL     OW 1681   0.550   0.196   2.747
  262SOL    HW1 1682   0.545   0.191   2.847
  262SOL    HW2 1683   0.552   0.292   2.718
  263SOL     OW 1684   1.008   1.456   2.339
  263SOL    HW1 1685   0.962   1.528   2.287
  263SOL    HW2 1686   1.004   1.476   2.437
  264SOL     OW 1687   0.351   1.801   2.715
  264SOL    HW1 1688   0.401   1.715   2.721
  264SOL    HW2 1689   0.416   1.878   2.712
  265SOL     OW 1690   1.795   1.066   2.735
  265SOL    HW1 1691   1.733   1.051   2.659
  265SOL    HW2 1692   1.743   1.077   2.820
  266SOL     OW 1693   1.227   1.550   3.368
  266SOL    HW1 1694   1.233   1.473   3.432
  266SOL    HW2 1695   1.175   1.524   3.288
  267SOL     OW 1696   0.321   0.943   2.104
  267SOL    HW1 1697   0.403   0.982   2.062
  267SOL    HW2 1698   0.294   0.861   2.055
  268SOL     OW 1699   1.458   0.735   2.590
  268SOL    HW1 1700   1.453   0.670   2.665
  268SOL    HW2 1701   1.538   0.794   2.603
  269SOL     OW 1702   0.461   1.266   3.589
  269SOL    HW1 1703   0.411   1.267   3.503
  269SOL    HW2 1704   0.398   1.248   3.665
  270SOL     OW 1705   1.111   1.776   2.099
  270SOL    HW1 1706   1.051   1.714   2.149
  270SOL    HW2 1707   1.142   1.732   2.014
  271SOL     OW 1708   0.202   0.285   3.360
  271SOL    HW1 1709   0.122   0.345   3.347
  271SOL    HW2 1710   0.192   0.236   3.446
  272SOL     OW 1711   1.632   1.377   1.943
  272SOL    HW1 1712   1.600   1.471   1.933
  272SOL    HW2 1713   1.556   1.314   1.931
  273SOL     OW 1714   0.464   1.743   2.185
  273SOL    HW1 1715   0.497   1.782   2.271
  273SOL    HW2 1716   0.540   1.736   2.120
  274SOL     OW 1717   1.400   0.107   2.288
  274SOL    HW1 1718   1.376   0.070   2.198
  274SOL    HW2 1719   1.499   0.123   2.292
  275SOL     OW 1720   0.249   1.785   3.103
  275SOL    HW1 1721   0.306   1.720   3.153
  275SOL    HW2 1722   0.233   1.752   3.010
  276SOL     OW 1723   0.940   1.698   2.766
  276SOL    HW1 1724   1.020   1.641   2.787
  276SOL    HW2 1725   0.891   1.658   2.689
  277SOL     OW 1726   0.382   0.700   2.342
  277SOL    HW1 1727   0.427   0.610   2.339
  277SOL    HW2 1728   0.288   0.689   2.375
  278SOL     OW 1729   1.547   0.222   3.591
  278SOL    HW1 1730   1.542   0.259   3.683
  278SOL    HW2 1731   1.475   0.153   3.579
  279SOL     OW 1732   0.614   0.122   1.979
  279SOL    HW1 1733   0.712   0.100   1.986
  279SOL    HW2 1734   0.583   0.105   1.886
  280SOL     OW 1735   0.781   0.264   3.611
  280SOL    HW1 1736   0.848   0.203   3.654
  280SOL    HW2 1737   0.708   0.283   3.676
  281SOL     OW 1738   0.888   1.514   3.057
  281SOL    HW1 1739   0.865   1.489   2.963
  281SOL    HW2 1740   0.949   1.445   3.096
  282SOL     OW 1741   1.351   0.590   3.295
  282SOL    HW1 1742   1.379   0.547   3.380
  282SOL    HW2 1743   1.376   0.686   3.296
  283SOL     OW 1744   0.803   1.402   2.786
  283SOL    HW1 1745   0.893   1.416   2.744
  283SOL    HW2 1746   0.732   1.404   2.715
  284SOL     OW 1747   0.922   0.503   2.761
  284SOL    HW1 1748   0.897   0.494   2.665
  284SOL    HW2 1749   0.970   0.421   2.792
  285SOL     OW 1750   0.539   0.064   2.374
  285SOL    HW1 1751   0.458   0.065   2.432
  285SOL    HW2 1752   0.542   0.147   2.319
  286SOL     OW 1753   1.434   1.188   1.903
  286SOL    HW1 1754   1.466   1.112   1.960
  286SOL    HW2 1755   1.342   1.215   1.933
  287SOL     OW 1756   0.297   0.035   2.033
  287SOL    HW1 1757   0.346   0.119   2.012
  287SOL    HW2 1758   0.359  -0.030   2.078
  288SOL     OW 1759   0.935   0.236   2.342
  288SOL    HW1 1760   0.887   0.277   2.264
  288SOL    HW2 1761   1.034   0.234   2.323
  289SOL     OW 1762   1.076   0.683   3.326
  289SOL    HW1 1763   0.996   0.622   3.329
  289SOL    HW2 1764   1.157   0.630   3.302
  290SOL     OW 1765   1.227   1.570   2.655
  290SOL    HW1 1766   1.248   1.644   2.590
  290SOL    HW2 1767   1.295   1.570   2.728
  291SOL     OW 1768   0.459   1.152   2.603
  291SOL    HW1 1769   0.388   1.125   2.668
  291SOL    HW2 1770   0.433   1.124   2.510
  292SOL     OW 1771   1.271   1.797   2.453
  292SOL    HW1 1772   1.315   1.861   2.389
  292SOL    HW2 1773   1.221   1.849   2.523
  293SOL     OW 1774   1.032   0.549   1.878
  293SOL    HW1 1775   0.991   0.631   1.839
  293SOL    HW2 1776   1.096   0.575   1.951
  294SOL     OW 1777   0.078   0.556   3.248
  294SOL    HW1 1778   0.170   0.555   3.207
  294SOL    HW2 1779   0.072   0.630   3.315
  295SOL     OW 1780   0.561   0.222   3.009
  295SOL    HW1 1781   0.599   0.138   3.046
  295SOL    HW2 1782   0.473   0.241   3.053
  296SOL     OW 1783   0.866   0.454   2.504
  296SOL    HW1 1784   0.834   0.526   2.442
  296SOL    HW2 1785   0.890   0.373   2.451
  297SOL     OW 1786   1.017   0.039   2.615
  297SOL    HW1 1787   0.945   0.044   2.546
  297SOL    HW2 1788   0.993  -0.030   2.684
  298SOL     OW 1789   1.429   1.173   2.729
  298SOL    HW1 1790   1.374   1.089   2.722
  298SOL    HW2 1791   1.455   1.202   2.637
  299SOL     OW 1792   1.466   0.590   2.854
  299SOL    HW1 1793   1.436   0.495   2.861
  299SOL    HW2 1794   1.539   0.606   2.920
  300SOL     OW 1795   1.857   0.833   2.239
  300SOL    HW1 1796   1.899   0.769   2.303
  300SOL    HW2 1797   1.819   0.782   2.161
  301SOL     OW 1798   0.488   1.385   2.036
  301SOL    HW1 1799   0.401   1.370   2.083
  301SOL    HW2 1800   0.471   1.411   1.941
  302SOL     OW 1801   1.664   1.280   2.519
  302SOL    HW1 1802   1.763   1.288   2.533
  302SOL    HW2 1803   1.619   1.364   2.550
  303SOL     OW 1804   1.390   0.575   1.940
  303SOL    HW1 1805   1.336   0.554   2.021
  303SOL    HW2 1806   1.481   0.534   1.949
  304SOL     OW 1807   0.527   0.256   2.190
  304SOL    HW1 1808   0.554   0.197   2.115
  304SOL    HW2 1809   0.527   0.351   2.159
  305SOL     OW 1810   1.754   1.223   3.450
  305SOL    HW1 1811   1.845   1.184   3.437
  305SOL    HW2 1812   1.762   1.319   3.474
  306SOL     OW 1813   1.064   1.347   3.202
  306SOL    HW1 1814   0.984   1.324   3.257
  306SOL    HW2 1815   1.147   1.321   3.251
  307SOL     OW 1816   1.592   1.629   3.487
  307SOL    HW1 1817   1.619   1.663   3.397
  307SOL    HW2 1818   1.671   1.591   3.533
  308SOL     OW 1819   1.111   1.195   2.962
  308SOL    HW1 1820   1.071   1.239   3.043
  308SOL    HW2 1821   1.070   1.232   2.879
  309SOL     OW 1822   1.638   1.099   2.941
  309SOL    HW1 1823   1.643   1.180   3.000
  309SOL    HW2 1824   1.552   1.101   2.890
  310SOL     OW 1825   0.915   0.089   3.264
  310SOL    HW1 1826   0.940   0.069   3.169
  310SOL    HW2 1827   0.987   0.145   3.306
  311SOL     OW 1828   0.980   1.116   3.581
  311SOL    HW1 1829   0.881   1.122   3.591
  311SOL    HW2 1830   1.003   1.036   3.525
  312SOL     OW 1831   0.705   1.050   2.230
  312SOL    HW1 1832   0.691   1.057   2.329
  312SOL    HW2 1833   0.789   0.999   2.212
  313SOL     OW 1834   0.410   0.813   3.113
  313SOL    HW1 1835   0.496   0.825   3.163
  313SOL    HW2 1836   0.368   0.726   3.140
  314SOL     OW 1837   1.274   0.386   3.124
  314SOL    HW1 1838   1.295   0.460   3.188
  314SOL    HW2 1839   1.185   0.403   3.081
  315SOL     OW 1840   0.064   1.564   3.193
  315SOL    HW1 1841   0.018   1.646   3.159
  315SOL    HW2 1842   0.162   1.583   3.202
  316SOL     OW 1843   0.367   1.100   2.363
  316SOL    HW1 1844   0.360   1.183   2.307
  316SOL    HW2 1845   0.371   1.020   2.303
  317SOL     OW 1846   0.566   0.537   2.727
  317SOL    HW1 1847   0.578   0.603   2.653
  317SOL    HW2 1848   0.612   0.571   2.810
  318SOL     OW 1849   1.252   1.348   2.250
  318SOL    HW1 1850   1.302   1.425   2.290
  318SOL    HW2 1851   1.157   1.350   2.282
  319SOL     OW 1852   1.272   1.445   3.004
  319SOL    HW1 1853   1.319   1.458   3.091
  319SOL    HW2 1854   1.206   1.371   3.013
  320SOL     OW 1855   1.582   0.639   2.334
  320SOL    HW1 1856   1.551   0.700   2.407
  320SOL    HW2 1857   1.632   0.691   2.265
  321SOL     OW 1858   0.354   1.510   3.191
  321SOL    HW1 1859   0.333   1.466   3.104
  321SOL    HW2 1860   0.451   1.536   3.194
  322SOL     OW 1861   0.402   0.751   3.460
  322SOL    HW1 1862   0.470   0.806   3.413
  322SOL    HW2 1863   0.442   0.663   3.487
  323SOL     OW 1864   1.587   0.779   3.532
  323SOL    HW1 1865   1.495   0.817   3.527
  323SOL    HW2 1866   1.647   0.826   3.467
  324SOL     OW 1867   1.013   0.105   3.632
  324SOL    HW1 1868   1.019   0.190   3.580
  324SOL    HW2 1869   1.045   0.029   3.575
  325SOL     OW 1870   0.504   0.050   3.602
  325SOL    HW1 1871   0.462  -0.007   3.532
  325SOL    HW2 1872   0.438   0.119   3.634
  326SOL     OW 1873   0.573   0.870   2.891
  326SOL    HW1 1874   0.617   0.959   2.882
  326SOL    HW2 1875   0.510   0.870   2.968
  327SOL     OW 1876   1.360   0.862   2.907
  327SOL    HW1 1877   1.285   0.862   2.841
  327SOL    HW2 1878   1.397   0.770   2.916
  328SOL     OW 1879   1.209   0.525   2.137
  328SOL    HW1 1880   1.222   0.441   2.191
  328SOL    HW2 1881   1.180   0.599   2.197
  329SOL     OW 1882   0.307   0.213   3.093
  329SOL    HW1 1883   0.284   0.250   3.183
  329SOL    HW2 1884   0.277   0.118   3.087
  330SOL     OW 1885   0.037   1.310   3.144
  330SOL    HW1 1886   0.090   1.261   3.212
  330SOL    HW2 1887   0.059   1.408   3.149
  331SOL     OW 1888   0.732   0.634   2.926
  331SOL    HW1 1889   0.791   0.608   2.850
  331SOL    HW2 1890   0.704   0.730   2.915
  332SOL     OW 1891   1.728   0.935   3.716
  332SOL    HW1 1892   1.682   0.928   3.627
  332SOL    HW2 1893   1.666   0.979   3.782
  333SOL     OW 1894   0.307   0.063   2.480
  333SOL    HW1 1895   0.296   0.157   2.513
  333SOL    HW2 1896   0.302   0.000   2.557
  334SOL     OW 1897   1.622   0.367   2.236
  334SOL    HW1 1898   1.624   0.291   2.300
  334SOL    HW2 1899   1.574   0.444   2.276
  335SOL     OW 1900   1.023   0.766   2.828
  335SOL    HW1 1901   1.038   0.787   2.924
  335SOL    HW2 1902   0.993   0.671   2.819
  336SOL     OW 1903   0.980   1.573   3.562
  336SOL    HW1 1904   0.960   1.617   3.474
  336SOL    HW2 1905   1.019   1.482   3.546
  337SOL     OW 1906   1.859   1.518   3.467
  337SOL    HW1 1907   1.873   1.545   3.372
  337SOL    HW2 1908   1.942   1.540   3.520
  338SOL     OW 1909   0.350   0.898   3.666
  338SOL    HW1 1910   0.426   0.942   3.714
  338SOL    HW2 1911   0.385   0.851   3.584
  339SOL     OW 1912   1.540   0.274   1.987
  339SOL    HW1 1913   1.479   0.199   2.010
  339SOL    HW2 1914   1.562   0.326   2.070
  340SOL     OW 1915   1.303   0.838   1.904
  340SOL    HW1 1916   1.337   0.745   1.919
  340SOL    HW2 1917   1.321   0.865   1.809
  341SOL     OW 1918   1.068   1.333   2.711
  341SOL    HW1 1919   1.075   1.249   2.656
  341SOL    HW2 1920   1.130   1.402   2.675
  342SOL     OW 1921   0.319   0.810   2.811
  342SOL    HW1 1922   0.412   0.846   2.816
  342SOL    HW2 1923   0.313   0.725   2.863
  343SOL     OW 1924   0.339   0.509   2.868
  343SOL    HW1 1925   0.287   0.426   2.851
  343SOL    HW2 1926   0.416   0.514   2.804
  344SOL     OW 1927   1.138   0.380   3.540
  344SOL    HW1 1928   1.093   0.443   3.604
  344SOL    HW2 1929   1.231   0.411   3.523
  345SOL     OW 1930   1.160   0.207   3.339
  345SOL    HW1 1931   1.160   0.271   3.416
  345SOL    HW2 1932   1.188   0.255   3.256
  346SOL     OW 1933   0.008   1.326   2.062
  346SOL    HW1 1934  -0.085   1.347   2.031
  346SOL    HW2 1935   0.018   1.227   2.075
  347SOL     OW 1936   0.088   1.801   2.789
  347SOL    HW1 1937   0.046   1.715   2.762
  347SOL    HW2 1938   0.182   1.804   2.755
  348SOL     OW 1939   0.504   1.568   2.772
  348SOL    HW1 1940   0.570   1.642   2.781
  348SOL    HW2 1941   0.548   1.489   2.730
  349SOL     OW 1942   1.002   0.796   3.100
  349SOL    HW1 1943   1.043   0.764   3.186
  349SOL    HW2 1944   0.906   0.769   3.097
  350SOL     OW 1945   0.040   0.544   2.976
  350SOL    HW1 1946   0.125   0.511   2.935
  350SOL    HW2 1947   0.053   0.559   3.074
  351SOL     OW 1948   0.189   0.520   3.584
  351SOL    HW1 1949   0.248   0.480   3.514
  351SOL    HW2 1950   0.131   0.591   3.543
  352SOL     OW 1951   1.369   0.950   3.522
  352SOL    HW1 1952   1.408   1.039   3.542
  352SOL    HW2 1953   1.379   0.930   3.425
  353SOL     OW 1954   0.815   0.572   2.187
  353SOL    HW1 1955   0.822   0.483   2.141
  353SOL    HW2 1956   0.721   0.606   2.179
  354SOL     OW 1957   1.657   0.604   3.068
  354SOL    HW1 1958   1.619   0.535   3.130
  354SOL    HW2 1959   1.739   0.568   3.024
  355SOL     OW 1960   0.252   1.564   3.606
  355SOL    HW1 1961   0.222   1.621   3.682
  355SOL    HW2 1962   0.245   1.467   3.632
  356SOL     OW 1963   0.671   0.464   3.131
  356SOL    HW1 1964   0.637   0.375   3.101
  356SOL    HW2 1965   0.697   0.518   3.051
  357SOL     OW 1966   0.930   1.678   3.327
  357SOL    HW1 1967   0.906   1.660   3.232
  357SOL    HW2 1968   0.960   1.772   3.337
  358SOL     OW 1969   0.473   0.500   2.053
  358SOL    HW1 1970   0.534   0.580   2.057
  358SOL    HW2 1971   0.378   0.531   2.060
  359SOL     OW 1972   0.159   1.137   3.328
  359SOL    HW1 1973   0.181   1.076   3.404
  359SOL    HW2 1974   0.169   1.088   3.242
  360SOL     OW 1975   1.347   1.059   3.096
  360SOL    HW1 1976   1.371   0.996   3.022
  360SOL    HW2 1977   1.257   1.099   3.078
  361SOL     OW 1978   1.302   0.855   2.171
  361SOL    HW1 1979   1.216   0.824   2.213
  361SOL    HW2 1980   1.298   0.841   2.072
  362SOL     OW 1981   1.252   1.731   2.990
  362SOL    HW1 1982   1.336   1.736   2.936
  362SOL    HW2 1983   1.229   1.635   3.008
  363SOL     OW 1984   0.083   1.258   2.884
  363SOL    HW1 1985   0.078   1.257   2.984
  363SOL    HW2 1986   0.000   1.217   2.846
  364SOL     OW 1987   0.688   1.662   3.578
  364SOL    HW1 1988   0.632   1.743   3.587
  364SOL    HW2 1989   0.740   1.666   3.492
  365SOL     OW 1990   1.726   0.135   2.385
  365SOL    HW1 1991   1.799   0.118   2.318
  365SOL    HW2 1992   1.695   0.048   2.423
  366SOL     OW 1993   1.388   1.573   2.339
  366SOL    HW1 1994   1.455   1.585   2.265
  366SOL    HW2 1995   1.348   1.662   2.362
  367SOL     OW 1996   0.130   1.794   3.713
  367SOL    HW1 1997   0.089   1.720   3.766
  367SOL    HW2 1998   0.194   1.845   3.771
  368SOL     OW 1999   1.280   0.927   2.534
  368SOL    HW1 2000   1.340   0.846   2.536
  368SOL    HW2 2001   1.320   0.996   2.474
  369SOL     OW 2002   0.830   1.273   3.284
  369SOL    HW1 2003   0.825   1.306   3.379
  369SOL    HW2 2004   0.744   1.292   3.238
  370SOL     OW 2005   0.672   1.616   2.016
  370SOL    HW1 2006   0.681   1.626   1.917
  370SOL    HW2 2007   0.632   1.527   2.037
  371SOL     OW 2008   1.650   1.720   3.256
  371SOL    HW1 2009   1.703   1.730   3.172
  371SOL    HW2 2010   1.623   1.810   3.290
  372SOL     OW 2011   1.841   0.175   2.825
  372SOL    HW1 2012   1.880   0.090   2.789
  372SOL    HW2 2013   1.743   0.177   2.806
  373SOL     OW 2014   0.263   0.326   2.582
  373SOL    HW1 2015   0.184   0.377   2.548
  373SOL    HW2 2016   0.254   0.311   2.680
  374SOL     OW 2017   1.194   1.612   1.893
  374SOL    HW1 2018   1.200   1.519   1.930
  374SOL    HW2 2019   1.135   1.612   1.813
  375SOL     OW 2020   0.822   1.002   3.234
  375SOL    HW1 2021   0.862   1.001   3.142
  375SOL    HW2 2022   0.832   1.094   3.274
  376SOL     OW 2023   0.916   0.910   2.153
  376SOL    HW1 2024   0.979   0.948   2.085
  376SOL    HW2 2025   0.956   0.827   2.192
  377SOL     OW 2026   1.504   1.607   1.906
  377SOL    HW1 2027   1.412   1.644   1.913
  377SOL    HW2 2028   1.542   1.627   1.816
  378SOL     OW 2029   0.372   1.288   3.352
  378SOL    HW1 2030   0.359   1.381   3.318
  378SOL    HW2 2031   0.288   1.236   3.339
  379SOL     OW 2032   1.614   1.292   3.151
  379SOL    HW1 2033   1.674   1.295   3.231
  379SOL    HW2 2034   1.539   1.356   3.164
  380SOL     OW 2035   1.039   1.098   2.558
  380SOL    HW1 2036   0.969   1.051   2.612
  380SOL    HW2 2037   1.098   1.030   2.515
  381SOL     OW 2038   1.014   0.236   2.833
  381SOL    HW1 2039   1.006   0.200   2.740
  381SOL    HW2 2040   1.012   0.160   2.898
  382SOL     OW 2041   0.590   1.487   2.353
  382SOL    HW1 2042   0.632   1.429   2.283
  382SOL    HW2 2043   0.546   1.566   2.309
  383SOL     OW 2044   1.709   0.385   3.243
  383SOL    HW1 2045   1.782   0.454   3.247
  383SOL    HW2 2046   1.737   0.310   3.184
  384SOL     OW 2047   0.255   1.348   2.152
  384SOL    HW1 2048   0.159   1.349   2.125
  384SOL    HW2 2049   0.267   1.401   2.236
  385SOL     OW 2050   0.105   1.013   3.588
  385SOL    HW1 2051   0.028   0.980   3.642
  385SOL    HW2 2052   0.190   0.983   3.630
  386SOL     OW 2053   0.672   0.203   3.351
  386SOL    HW1 2054   0.762   0.187   3.311
  386SOL    HW2 2055   0.680   0.208   3.450
  387SOL     OW 2056   0.075   0.345   1.895
  387SOL    HW1 2057  -0.017   0.317   1.866
  387SOL    HW2 2058   0.106   0.422   1.839
  388SOL     OW 2059   1.440   0.856   3.260
  388SOL    HW1 2060   1.383   0.908   3.197
  388SOL    HW2 2061   1.536   0.868   3.236
  389SOL     OW 2062   0.072   0.166   2.180
  389SOL    HW1 2063   0.055   0.249   2.126
  389SOL    HW2 2064   0.162   0.129   2.158
  390SOL     OW 2065   1.183   1.335   1.981
  390SOL    HW1 2066   1.084   1.324   1.983
  390SOL    HW2 2067   1.217   1.350   2.074
  391SOL     OW 2068   0.613   0.842   3.293
  391SOL    HW1 2069   0.669   0.923   3.276
  391SOL    HW2 2070   0.672   0.762   3.296
  392SOL     OW 2071   1.493   1.767   2.821
  392SOL    HW1 2072   1.526   1.831   2.752
  392SOL    HW2 2073   1.559   1.761   2.896
  393SOL     OW 2074   0.716   0.565   3.570
  393SOL    HW1 2075   0.735   0.630   3.644
  393SOL    HW2 2076   0.776   0.485   3.579
  394SOL     OW 2077   1.450   1.220   3.495
  394SOL    HW1 2078   1.441   1.210   3.594
  394SOL    HW2 2079   1.546   1.213   3.469
  395SOL     OW 2080   0.390   1.741   3.422
  395SOL    HW1 2081   0.299   1.782   3.420
  395SOL    HW2 2082   0.383   1.647   3.454
  396SOL     OW 2083   1.674   0.883   3.116
  396SOL    HW1 2084   1.647   0.794   3.079
  396SOL    HW2 2085   1.675   0.951   3.043
  397SOL     OW 2086   1.225   0.325   2.311
  397SOL    HW1 2087   1.290   0.251   2.300
  397SOL    HW2 2088   1.245   0.375   2.395
  398SOL     OW 2089   0.594   0.745   2.514
  398SOL    HW1 2090   0.644   0.830   2.495
  398SOL    HW2 2091   0.506   0.747   2.466
  399SOL     OW 2092   1.777   0.342   3.504
  399SOL    HW1 2093   1.760   0.373   3.410
  399SOL    HW2 2094   1.693   0.305   3.542
  400SOL     OW 2095   1.730   0.934   3.379
  400SOL    HW1 2096   1.768   1.025   3.394
  400SOL    HW2 2097   1.722   0.917   3.280
  401SOL     OW 2098   0.859   1.374   1.878
  401SOL    HW1 2099   0.813   1.389   1.966
  401SOL    HW2 2100   0.903   1.459   1.848
  402SOL     OW 2101   0.661   1.790   2.815
  402SOL    HW1 2102   0.615   1.878   2.802
  402SOL    HW2 2103   0.760   1.802   2.808
  403SOL     OW 2104   0.859   0.956   2.723
  403SOL    HW1 2105   0.913   0.887   2.771
  403SOL    HW2 2106   0.827   1.025   2.789
  404SOL     OW 2107   1.083   0.984   1.949
  404SOL    HW1 2108   1.060   1.037   1.867
  404SOL    HW2 2109   1.164   0.928   1.930
  405SOL     OW 2110   1.861   1.569   2.713
  405SOL    HW1 2111   1.790   1.557   2.643
  405SOL    HW2 2112   1.862   1.490   2.773
  406SOL     OW 2113   0.221   1.314   3.706
  406SOL    HW1 2114   0.156   1.241   3.685
  406SOL    HW2 2115   0.225   1.328   3.804
  407SOL     OW 2116   0.079   1.240   2.515
  407SOL    HW1 2117   0.078   1.193   2.603
  407SOL    HW2 2118   0.161   1.212   2.464
  408SOL     OW 2119   0.672   1.391   3.486
  408SOL    HW1 2120   0.594   1.341   3.524
  408SOL    HW2 2121   0.669   1.486   3.517
  409SOL     OW 2122   1.824   0.192   3.089
  409SOL    HW1 2123   1.820   0.102   3.133
  409SOL    HW2 2124   1.827   0.181   2.990
  410SOL     OW 2125   0.428   0.424   2.382
  410SOL    HW1 2126   0.458   0.352   2.320
  410SOL    HW2 2127   0.389   0.384   2.465
  411SOL     OW 2128   1.705   1.487   2.966
  411SOL    HW1 2129   1.612   1.462   2.939
  411SOL    HW2 2130   1.731   1.437   3.048
  412SOL     OW 2131   0.317   0.547   3.142
  412SOL    HW1 2132   0.355   0.488   3.214
  412SOL    HW2 2133   0.357   0.521   3.054
  413SOL     OW 2134   0.812   1.586   2.549
  413SOL    HW1 2135   0.844   1.596   2.455
  413SOL    HW2 2136   0.733   1.524   2.551
  414SOL     OW 2137   1.424   0.214   2.974
  414SOL    HW1 2138   1.476   0.149   3.029
  414SOL    HW2 2139   1.375   0.277   3.035
  415SOL     OW 2140   1.001   0.034   3.016
  415SOL    HW1 2141   0.938  -0.038   2.985
  415SOL    HW2 2142   1.094  -0.002   3.016
  416SOL     OW 2143   0.770   1.330   2.163
  416SOL    HW1 2144   0.724   1.243   2.180
  416SOL    HW2 2145   0.861   1.327   2.204
  417SOL     OW 2146   0.618   1.567   3.146
  417SOL    HW1 2147   0.613   1.649   3.203
  417SOL    HW2 2148   0.707   1.564   3.101
  418SOL     OW 2149   1.352   0.052   2.030
  418SOL    HW1 2150   1.387   0.011   1.946
  418SOL    HW2 2151   1.262   0.014   2.050
  419SOL     OW 2152   1.300   0.453   2.553
  419SOL    HW1 2153   1.241   0.533   2.557
  419SOL    HW2 2154   1.315   0.418   2.646
  420SOL     OW 2155   1.593   0.221   2.744
  420SOL    HW1 2156   1.509   0.220   2.798
  420SOL    HW2 2157   1.595   0.304   2.688
  421SOL     OW 2158   0.039   1.077   2.162
  421SOL    HW1 2159   0.138   1.066   2.153
  421SOL    HW2 2160  -0.001   0.991   2.194
  422SOL     OW 2161   0.875   1.646   2.199
  422SOL    HW1 2162   0.798   1.611   2.145
  422SOL    HW2 2163   0.843   1.717   2.261
  423SOL     OW 2164   0.230   0.628   3.837
  423SOL    HW1 2165   0.137   0.626   3.874
  423SOL    HW2 2166   0.231   0.589   3.745
  424SOL     OW 2167   0.225   0.275   4.720
  424SOL    HW1 2168   0.260   0.258   4.812
  424SOL    HW2 2169   0.137   0.230   4.708
  425SOL     OW 2170   0.019   0.368   4.371
  425SOL    HW1 2171  -0.063   0.411   4.410
  425SOL    HW2 2172  -0.009   0.295   4.308
  426SOL     OW 2173   0.569   1.275   4.889
  426SOL    HW1 2174   0.476   1.268   4.852
  426SOL    HW2 2175   0.580   1.364   4.933
  427SOL     OW 2176   1.555   1.511   4.427
  427SOL    HW1 2177   1.498   1.495   4.508
  427SOL    HW2 2178   1.496   1.521   4.347
  428SOL     OW 2179   1.135   0.703   4.441
  428SOL    HW1 2180   1.192   0.781   4.416
  428SOL    HW2 2181   1.075   0.729   4.517
  429SOL     OW 2182   1.755   0.607   3.955
  429SOL    HW1 2183   1.743   0.594   3.856
  429SOL    HW2 2184   1.725   0.526   4.004
  430SOL     OW 2185   0.768   1.144   4.747
  430SOL    HW1 2186   0.690   1.161   4.807
  430SOL    HW2 2187   0.802   1.231   4.711
  431SOL     OW 2188   0.850   0.798   5.547
  431SOL    HW1 2189   0.846   0.874   5.612
  431SOL    HW2 2190   0.872   0.834   5.456
  432SOL     OW 2191   0.685   1.012   4.389
  432SOL    HW1 2192   0.754   0.996   4.459
  432SOL    HW2 2193   0.612   1.069   4.427
  433SOL     OW 2194   0.686   1.161   5.527
  433SOL    HW1 2195   0.746   1.240   5.541
  433SOL    HW2 2196   0.600   1.192   5.486
  434SOL     OW 2197   0.335   1.435   4.785
  434SOL    HW1 2198   0.257   1.404   4.732
  434SOL    HW2 2199   0.393   1.493   4.728
  435SOL     OW 2200   1.460   1.505   5.063
  435SOL    HW1 2201   1.484   1.599   5.089
  435SOL    HW2 2202   1.444   1.451   5.145
  436SOL     OW 2203   0.438   0.392   5.223
  436SOL    HW1 2204   0.520   0.336   5.232
  436SOL    HW2 2205   0.357   0.334   5.227
  437SOL     OW 2206   1.603   0.447   4.461
  437SOL    HW1 2207   1.529   0.493   4.411
  437SOL    HW2 2208   1.654   0.515   4.514
  438SOL     OW 2209   0.231   1.713   4.207
  438SOL    HW1 2210   0.265   1.790   4.261
  438SOL    HW2 2211   0.275   1.713   4.117
  439SOL     OW 2212   1.127   1.341   5.414
  439SOL    HW1 2213   1.174   1.341   5.502
  439SOL    HW2 2214   1.079   1.254   5.403
  440SOL     OW 2215   0.230   1.434   4.262
  440SOL    HW1 2216   0.204   1.530   4.262
  440SOL    HW2 2217   0.159   1.380   4.307
  441SOL     OW 2218   0.240   1.091   4.610
  441SOL    HW1 2219   0.254   1.007   4.662
  441SOL    HW2 2220   0.185   1.155   4.665
  442SOL     OW 2221   0.620   1.786   5.163
  442SOL    HW1 2222   0.528   1.769   5.198
  442SOL    HW2 2223   0.648   1.878   5.189
  443SOL     OW 2224   0.606   0.964   3.847
  443SOL    HW1 2225   0.613   1.048   3.793
  443SOL    HW2 2226   0.652   0.977   3.935
  444SOL     OW 2227   1.594   0.114   5.204
  444SOL    HW1 2228   1.576   0.181   5.132
  444SOL    HW2 2229   1.591   0.160   5.293
  445SOL     OW 2230   0.122   0.643   4.287
  445SOL    HW1 2231   0.077   0.555   4.304
  445SOL    HW2 2232   0.121   0.697   4.371
  446SOL     OW 2233   0.027   1.596   3.841
  446SOL    HW1 2234   0.008   1.500   3.862
  446SOL    HW2 2235  -0.006   1.654   3.916
  447SOL     OW 2236   1.689   0.922   4.336
  447SOL    HW1 2237   1.784   0.893   4.344
  447SOL    HW2 2238   1.681   0.987   4.261
  448SOL     OW 2239   1.641   1.108   4.156
  448SOL    HW1 2240   1.727   1.110   4.104
  448SOL    HW2 2241   1.655   1.155   4.244
  449SOL     OW 2242   0.113   0.737   5.321
  449SOL    HW1 2243   0.201   0.724   5.366
  449SOL    HW2 2244   0.100   0.834   5.299
  450SOL     OW 2245   0.613   1.365   4.450
  450SOL    HW1 2246   0.564   1.278   4.459
  450SOL    HW2 2247   0.590   1.408   4.363
  451SOL     OW 2248   1.293   1.228   5.147
  451SOL    HW1 2249   1.330   1.155   5.089
  451SOL    HW2 2250   1.345   1.233   5.232
  452SOL     OW 2251   0.809   0.004   4.226
  452SOL    HW1 2252   0.849   0.095   4.217
  452SOL    HW2 2253   0.709   0.012   4.232
  453SOL     OW 2254   0.197   0.976   4.988
  453SOL    HW1 2255   0.286   0.931   4.974
  453SOL    HW2 2256   0.124   0.911   4.969
  454SOL     OW 2257   1.525   0.999   3.914
  454SOL    HW1 2258   1.462   0.923   3.927
  454SOL    HW2 2259   1.573   1.017   4.000
  455SOL     OW 2260   1.187   1.792   5.340
  455SOL    HW1 2261   1.211   1.852   5.264
  455SOL    HW2 2262   1.194   1.697   5.310
  456SOL     OW 2263   0.317   0.251   5.525
  456SOL    HW1 2264   0.388   0.322   5.531
  456SOL    HW2 2265   0.229   0.290   5.553
  457SOL     OW 2266   1.466   1.417   4.677
  457SOL    HW1 2267   1.407   1.423   4.757
  457SOL    HW2 2268   1.451   1.329   4.631
  458SOL     OW 2269   1.667   1.714   4.296
  458SOL    HW1 2270   1.626   1.691   4.208
  458SOL    HW2 2271   1.649   1.640   4.361
  459SOL     OW 2272   0.598   0.729   3.994
  459SOL    HW1 2273   0.622   0.798   3.926
  459SOL    HW2 2274   0.520   0.762   4.048
  460SOL     OW 2275   1.281   0.345   4.668
  460SOL    HW1 2276   1.195   0.295   4.655
  460SOL    HW2 2277   1.343   0.291   4.724
  461SOL     OW 2278   1.576   1.662   4.031
  461SOL    HW1 2279   1.665   1.708   4.034
  461SOL    HW2 2280   1.555   1.638   3.936
  462SOL     OW 2281   0.807   0.605   5.189
  462SOL    HW1 2282   0.760   0.602   5.278
  462SOL    HW2 2283   0.756   0.550   5.123
  463SOL     OW 2284   1.394   0.469   5.398
  463SOL    HW1 2285   1.374   0.512   5.486
  463SOL    HW2 2286   1.472   0.407   5.407
  464SOL     OW 2287   0.973   0.890   5.296
  464SOL    HW1 2288   1.019   0.806   5.267
  464SOL    HW2 2289   0.917   0.924   5.221
  465SOL     OW 2290   0.991   0.410   4.966
  465SOL    HW1 2291   0.914   0.444   5.020
  465SOL    HW2 2292   0.957   0.359   4.887
  466SOL     OW 2293   1.041   0.701   4.153
  466SOL    HW1 2294   1.067   0.697   4.249
  466SOL    HW2 2295   0.956   0.650   4.139
  467SOL     OW 2296   0.076   0.811   4.513
  467SOL    HW1 2297   0.175   0.799   4.522
  467SOL    HW2 2298   0.052   0.906   4.534
  468SOL     OW 2299   0.130   1.821   5.295
  468SOL    HW1 2300   0.120   1.806   5.394
  468SOL    HW2 2301   0.044   1.857   5.259
  469SOL     OW 2302   0.865   0.348   3.919
  469SOL    HW1 2303   0.924   0.411   3.870
  469SOL    HW2 2304   0.884   0.254   3.890
  470SOL     OW 2305   1.719   0.585   5.555
  470SOL    HW1 2306   1.693   0.674   5.519
  470SOL    HW2 2307   1.717   0.517   5.482
  471SOL     OW 2308   1.362   1.144   4.269
  471SOL    HW1 2309   1.445   1.115   4.221
  471SOL    HW2 2310   1.313   1.211   4.213
  472SOL     OW 2311   0.550   0.196   4.609
  472SOL    HW1 2312   0.545   0.191   4.709
  472SOL    HW2 2313   0.552   0.292   4.580
  473SOL     OW 2314   1.008   1.456   4.201
  473SOL    HW1 2315   0.962   1.528   4.149
  473SOL    HW2 2316   1.004   1.476   4.299
  474SOL     OW 2317   0.351   1.801   4.577
  474SOL    HW1 2318   0.401   1.715   4.583
  474SOL    HW2 2319   0.416   1.878   4.574
  475SOL     OW 2320   1.795   1.066   4.597
  475SOL    HW1 2321   1.733   1.051   4.521
  475SOL    HW2 2322   1.743   1.077   4.682
  476SOL     OW 2323   1.227   1.550   5.230
  476SOL    HW1 2324   1.233   1.473   5.294
  476SOL    HW2 2325   1.175   1.524   5.150
  477SOL     OW 2326   0.321   0.943   3.966
  477SOL    HW1 2327   0.403   0.982   3.924
  477SOL    HW2 2328   0.294   0.861   3.917
  478SOL     OW 2329   1.458   0.735   4.452
  478SOL    HW1 2330   1.453   0.670   4.527
  478SOL    HW2 2331   1.538   0.794   4.465
  479SOL     OW 2332   0.461   1.266   5.451
  479SOL    HW1 2333   0.411   1.267   5.365
  479SOL    HW2 2334   0.398   1.248   5.527
  480SOL     OW 2335   1.111   1.776   3.961
  480SOL    HW1 2336   1.051   1.714   4.011
  480SOL    HW2 2337   1.142   1.732   3.876
  481SOL     OW 2338   0.202   0.285   5.222
  481SOL    HW1 2339   0.122   0.345   5.209
  481SOL    HW2 2340   0.192   0.236   5.308
  482SOL     OW 2341   1.632   1.377   3.805
  482SOL    HW1 2342   1.600   1.471   3.795
  482SOL    HW2 2343   1.556   1.314   3.793
  483SOL     OW 2344   0.464   1.743   4.047
  483SOL    HW1 2345   0.497   1.782   4.133
  483SOL    HW2 2346   0.540   1.736   3.982
  484SOL     OW 2347   1.400   0.107   4.150
  484SOL    HW1 2348   1.376   0.070   4.060
  484SOL    HW2 2349   1.499   0.123   4.154
  485SOL     OW 2350   0.249   1.785   4.965
  485SOL    HW1 2351   0.306   1.720   5.015
  485SOL    HW2 2352   0.233   1.752   4.872
  486SOL     OW 2353   0.940   1.698   4.628
  486SOL    HW1 2354   1.020   1.641   4.649
  486SOL    HW2 2355   0.891   1.658   4.551
  487SOL     OW 2356   0.382   0.700   4.204
  487SOL    HW1 2357   0.427   0.610   4.201
  487SOL    HW2 2358   0.288   0.689   4.237
  488SOL     OW 2359   1.547   0.222   5.453
  488SOL    HW1 2360   1.542   0.259   5.545
  488SOL    HW2 2361   1.475   0.153   5.441
  489SOL     OW 2362   0.614   0.122   3.841
  489SOL    HW1 2363   0.712   0.100   3.848
  489SOL    HW2 2364   0.583   0.105   3.748
  490SOL     OW 2365   0.781   0.264   5.473
  490SOL    HW1 2366   0.848   0.203   5.516
  490SOL    HW2 2367   0.708   0.283   5.538
  491SOL     OW 2368   0.888   1.514   4.919
  491SOL    HW1 2369   0.865   1.489   4.825
  491SOL    HW2 2370   0.949   1.445   4.958
  492SOL     OW 2371   1.351   0.590   5.157
  492SOL    HW1 2372   1.379   0.547   5.242
  492SOL    HW2 2373   1.376   0.686   5.158
  493SOL     OW 2374   0.803   1.402   4.648
  493SOL    HW1 2375   0.893   1.416   4.606
  493SOL    HW2 2376   0.732   1.404   4.577
  494SOL     OW 2377   0.922   0.503   4.623
  494SOL    HW1 2378   0.897   0.494   4.527
  494SOL    HW2 2379   0.970   0.421   4.654
  495SOL     OW 2380   0.539   0.064   4.236
  495SOL    HW1 2381   0.458   0.065   4.294
  495SOL    HW2 2382   0.542   0.147   4.181
  496SOL     OW 2383   1.434   1.188   3.765
  496SOL    HW1 2384   1.466   1.112   3.822
  496SOL    HW2 2385   1.342   1.215   3.795
  497SOL     OW 2386   0.297   0.035   3.895
  497SOL    HW1 2387   0.346   0.119   3.874
  497SOL    HW2 2388   0.359  -0.030   3.940
  498SOL     OW 2389   0.935   0.236   4.204
  498SOL    HW1 2390   0.887   0.277   4.126
  498SOL    HW2 2391   1.034   0.234   4.185
  499SOL     OW 2392   1.076   0.683   5.188
  499SOL    HW1 2393   0.996   0.622   5.191
  499SOL    HW2 2394   1.157   0.630   5.164
  500SOL     OW 2395   1.227   1.570   4.517
  500SOL    HW1 2396   1.248   1.644   4.452
  500SOL    HW2 2397   1.295   1.570   4.590
  501SOL     OW 2398   0.459   1.152   4.465
  501SOL    HW1 2399   0.388   1.125   4.530
  501SOL    HW2 2400   0.433   1.124   4.372
  502SOL     OW 2401   1.271   1.797   4.315
  502SOL    HW1 2402   1.315   1.861   4.251
  502SOL    HW2 2403   1.221   1.849   4.385
  503SOL     OW 2404   1.032   0.549   3.740
  503SOL    HW1 2405   0.991   0.631   3.701
  503SOL    HW2 2406   1.096   0.575   3.813
  504SOL     OW 2407   0.078   0.556   5.110
  504SOL    HW1 2408   0.170   0.555   5.069
  504SOL    HW2 2409   0.072   0.630   5.177
  505SOL     OW 2410   0.561   0.222   4.871
  505SOL    HW1 2411   0.599   0.138   4.908
  505SOL    HW2 2412   0.473   0.241   4.915
  506SOL     OW 2413   0.866   0.454   4.366
  506SOL    HW1 2414   0.834   0.526   4.304
  506SOL    HW2 2415   0.890   0.373   4.313
  507SOL     OW 2416   1.017   0.039   4.477
  507SOL    HW1 2417   0.945   0.044   4.408
  507SOL    HW2 2418   0.993  -0.030   4.546
  508SOL     OW 2419   1.429   1.173   4.591
  508SOL    HW1 2420   1.374   1.089   4.584
  508SOL    HW2 2421   1.455   1.202   4.499
  509SOL     OW 2422   1.466   0.590   4.716
  509SOL    HW1 2423   1.436   0.495   4.723
  509SOL    HW2 2424   1.539   0.606   4.782
  510SOL     OW 2425   1.857   0.833   4.101
  510SOL    HW1 2426   1.899   0.769   4.165
  510SOL    HW2 2427   1.819   0.782   4.023
  511SOL     OW 2428   0.488   1.385   3.898
  511SOL    HW1 2429   0.401   1.370   3.945
  511SOL    HW2 2430   0.471   1.411   3.803
  512SOL     OW 2431   1.664   1.280   4.381
  512SOL    HW1 2432   1.763   1.288   4.395
  512SOL    HW2 2433   1.619   1.364   4.412
  513SOL     OW 2434   1.390   0.575   3.802
  513SOL    HW1 2435   1.336   0.554   3.883
  513SOL    HW2 2436   1.481   0.534   3.811
  514SOL     OW 2437   0.527   0.256   4.052
  514SOL    HW1 2438   0.554   0.197   3.977
  514SOL    HW2 2439   0.527   0.351   4.021
  515SOL     OW 2440   1.754   1.223   5.312
  515SOL    HW1 2441   1.845   1.184   5.299
  515SOL    HW2 2442   1.762   1.319   5.336
  516SOL     OW 2443   1.064   1.347   5.064
  516SOL    HW1 2444   0.984   1.324   5.119
  516SOL    HW2 2445   1.147   1.321   5.113
  517SOL     OW 2446   1.592   1.629   5.349
  517SOL    HW1 2447   1.619   1.663   5.259
  517SOL    HW2 2448   1.671   1.591   5.395
  518SOL     OW 2449   1.111   1.195   4.824
  518SOL    HW1 2450   1.071   1.239   4.905
  518SOL    HW2 2451   1.070   1.232   4.741
  519SOL     OW 2452   1.638   1.099   4.803
  519SOL    HW1 2453   1.643   1.180   4.862
  519SOL    HW2 2454   1.552   1.101   4.752
  520SOL     OW 2455   0.915   0.089   5.126
  520SOL    HW1 2456   0.940   0.069   5.031
  520SOL    HW2 2457   0.987   0.145   5.168
  521SOL     OW 2458   0.980   1.116   5.443
  521SOL    HW1 2459   0.881   1.122   5.453
  521SOL    HW2 2460   1.003   1.036   5.387
  522SOL     OW 2461   0.705   1.050   4.092
  522SOL    HW1 2462   0.691   1.057   4.191
  522SOL    HW2 2463   0.789   0.999   4.074
  523SOL     OW 2464   0.410   0.813   4.975
  523SOL    HW1 2465   0.496   0.825   5.025
  523SOL    HW2 2466   0.368   0.726   5.002
  524SOL     OW 2467   1.274   0.386   4.986
  524SOL    HW1 2468   1.295   0.460   5.050
  524SOL    HW2 2469   1.185   0.403   4.943
  525SOL     OW 2470   0.064   1.564   5.055
  525SOL    HW1 2471   0.018   1.646   5.021
  525SOL    HW2 2472   0.162   1.583   5.064
  526SOL     OW 2473   0.367   1.100   4.225
  526SOL    HW1 2474   0.360   1.183   4.169
  526SOL    HW2 2475   0.371   1.020   4.165
  527SOL     OW 2476   0.566   0.537   4.589
  527SOL    HW1 2477   0.578   0.603   4.515
  527SOL    HW2 2478   0.612   0.571   4.672
  528SOL     OW 2479   1.252   1.348   4.112
  528SOL    HW1 2480   1.302   1.425   4.152
  528SOL    HW2 2481   1.157   1.350   4.144
  529SOL     OW 2482   1.272   1.445   4.866
  529SOL    HW1 2483   1.319   1.458   4.953
  529SOL    HW2 2484   1.206   1.371   4.875
  530SOL     OW 2485   1.582   0.639   4.196
  530SOL    HW1 2486   1.551   0.700   4.269
  530SOL    HW2 2487   1.632   0.691   4.127
  531SOL     OW 2488   0.354   1.510   5.053
  531SOL    HW1 2489   0.333   1.466   4.966
  531SOL    HW2 2490   0.451   1.536   5.056
  532SOL     OW 2491   0.402   0.751   5.322
  532SOL    HW1 2492   0.470   0.806   5.275
  532SOL    HW2 2493   0.442   0.663   5.349
  533SOL     OW 2494   1.587   0.779   5.394
  533SOL    HW1 2495   1.495   0.817   5.389
  533SOL    HW2 2496   1.647   0.826   5.329
  534SOL     OW 2497   1.013   0.105   5.494
  534SOL    HW1 2498   1.019   0.190   5.442
  534SOL    HW2 2499   1.045   0.029   5.437
  535SOL     OW 2500   0.504   0.050   5.464
  535SOL    HW1 2501   0.462  -0.007   5.394
  535SOL    HW2 2502   0.438   0.119   5.496
  536SOL     OW 2503   0.573   0.870   4.753
  536SOL    HW1 2504   0.617   0.959   4.744
  536SOL    HW2 2505   0.510   0.870   4.830
  537SOL     OW 2506   1.360   0.862   4.769
  537SOL    HW1 2507   1.285   0.862   4.703
  537SOL    HW2 2508   1.397   0.770   4.778
  538SOL     OW 2509   1.209   0.525   3.999
  538SOL    HW1 2510   1.222   0.441   4.053
  538SOL    HW2 2511   1.180   0.599   4.059
  539SOL     OW 2512   0.307   0.213   4.955
  539SOL    HW1 2513   0.284   0.250   5.045
  539SOL    HW2 2514   0.277   0.118   4.949
  540SOL     OW 2515   0.037   1.310   5.006
  540SOL    HW1 2516   0.090   1.261   5.074
  540SOL    HW2 2517   0.059   1.408   5.011
  541SOL     OW 2518   0.732   0.634   4.788
  541SOL    HW1 2519   0.791   0.608   4.712
  541SOL    HW2 2520   0.704   0.730   4.777
  542SOL     OW 2521   1.728   0.935   5.578
  542SOL    HW1 2522   1.682   0.928   5.489
  542SOL    HW2 2523   1.666   0.979   5.644
  543SOL     OW 2524   0.307   0.063   4.342
  543SOL    HW1 2525   0.296   0.157   4.375
  543SOL    HW2 2526   0.302   0.000   4.419
  544SOL     OW 2527   1.622   0.367   4.098
  544SOL    HW1 2528   1.624   0.291   4.162
  544SOL    HW2 2529   1.574   0.444   4.138
  545SOL     OW 2530   1.023   0.766   4.690
  545SOL    HW1 2531   1.038   0.787   4.786
  545SOL    HW2 2532   0.993   0.671   4.681
  546SOL     OW 2533   0.980   1.573   5.424
  546SOL    HW1 2534   0.960   1.617   5.336
  546SOL    HW2 2535   1.019   1.482   5.408
  547SOL     OW 2536   1.859   1.518   5.329
  547SOL    HW1 2537   1.873   1.545   5.234
  547SOL    HW2 2538   1.942   1.540   5.382
  548SOL     OW 2539   0.350   0.898   5.528
  548SOL    HW1 2540   0.426   0.942   5.576
  548SOL    HW2 2541   0.385   0.851   5.446
  549SOL     OW 2542   1.540   0.274   3.849
  549SOL    HW1 2543   1.479   0.199   3.872
  549SOL    HW2 2544   1.562   0.326   3.932
  550SOL     OW 2545   1.303   0.838   3.766
  550SOL    HW1 2546   1.337   0.745   3.781
  550SOL    HW2 2547   1.321   0.865   3.671
  551SOL     OW 2548   1.068   1.333   4.573
  551SOL    HW1 2549   1.075   1.249   4.518
  551SOL    HW2 2550   1.130   1.402   4.537
  552SOL     OW 2551   0.319   0.810   4.673
  552SOL    HW1 2552   0.412   0.846   4.678
  552SOL    HW2 2553   0.313   0.725   4.725
  553SOL     OW 2554   0.339   0.509   4.730
  553SOL    HW1 2555   0.287   0.426   4.713
  553SOL    HW2 2556   0.416   0.514   4.666
  554SOL     OW 2557   1.138   0.380   5.402
  554SOL    HW1 2558   1.093   0.443   5.466
  554SOL    HW2 2559   1.231   0.411   5.385
  555SOL     OW 2560   1.160   0.207   5.201
  555SOL    HW1 2561   1.160   0.271   5.278
  555SOL    HW2 2562   1.188   0.255   5.118
  556SOL     OW 2563   0.008   1.326   3.924
  556SOL    HW1 2564  -0.085   1.347   3.893
  556SOL    HW2 2565   0.018   1.227   3.937
  557SOL     OW 2566   0.088   1.801   4.651
  557SOL    HW1 2567   0.046   1.715   4.624
  557SOL    HW2 2568   0.182   1.804   4.617
  558SOL     OW 2569   0.504   1.568   4.634
  558SOL    HW1 2570   0.570   1.642   4.643
  558SOL    HW2 2571   0.548   1.489   4.592
  559SOL     OW 2572   1.002   0.796   4.962
  559SOL    HW1 2573   1.043   0.764   5.048
  559SOL    HW2 2574   0.906   0.769   4.959
  560SOL     OW 2575   0.040   0.544   4.838
  560SOL    HW1 2576   0.125   0.511   4.797
  560SOL    HW2 2577   0.053   0.559   4.936
  561SOL     OW 2578   0.189   0.520   5.446
  561SOL    HW1 2579   0.248   0.480   5.376
  561SOL    HW2 2580   0.131   0.591   5.405
  562SOL     OW 2581   1.369   0.950   5.384
  562SOL    HW1 2582   1.408   1.039   5.404
  562SOL    HW2 2583   1.379   0.930   5.287
  563SOL     OW 2584   0.815   0.572   4.049
  563SOL    HW1 2585   0.822   0.483   4.003
  563SOL    HW2 2586   0.721   0.606   4.041
  564SOL     OW 2587   1.657   0.604   4.930
  564SOL    HW1 2588   1.619   0.535   4.992
  564SOL    HW2 2589   1.739   0.568   4.886
  565SOL     OW 2590   0.252   1.564   5.468
  565SOL    HW1 2591   0.222   1.621   5.544
  565SOL    HW2 2592   0.245   1.467   5.494
  566SOL     OW 2593   0.671   0.464   4.993
  566SOL    HW1 2594   0.637   0.375   4.963
  566SOL    HW2 2595   0.697   0.518   4.913
  567SOL     OW 2596   0.930   1.678   5.189
  567SOL    HW1 2597   0.906   1.660   5.094
  567SOL    HW2 2598   0.960   1.772   5.199
  568SOL     OW 2599   0.473   0.500   3.915
  568SOL    HW1 2600   0.534   0.580   3.919
  568SOL    HW2 2601   0.378   0.531   3.922
  569SOL     OW 2602   0.159   1.137   5.190
  569SOL    HW1 2603   0.181   1.076   5.266
  569SOL    HW2 2604   0.169   1.088   5.104
  570SOL     OW 2605   1.347   1.059   4.958
  570SOL    HW1 2606   1.371   0.996   4.884
  570SOL    HW2 2607   1.257   1.099   4.940
  571SOL     OW 2608   1.302   0.855   4.033
  571SOL    HW1 2609   1.216   0.824   4.075
  571SOL    HW2 2610   1.298   0.841   3.934
  572SOL     OW 2611   1.252   1.731   4.852
  572SOL    HW1 2612   1.336   1.736   4.798
  572SOL    HW2 2613   1.229   1.635   4.870
  573SOL     OW 2614   0.083   1.258   4.746
  573SOL    HW1 2615   0.078   1.257   4.846
  573SOL    HW2 2616   0.000   1.217   4.708
  574SOL     OW 2617   0.688   1.662   5.440
  574SOL    HW1 2618   0.632   1.743   5.449
  574SOL    HW2 2619   0.740   1.666   5.354
  575SOL     OW 2620   1.726   0.135   4.247
  575SOL    HW1 2621   1.799   0.118   4.180
  575SOL    HW2 2622   1.695   0.048   4.285
  576SOL     OW 2623   1.388   1.573   4.201
  576SOL    HW1 2624   1.455   1.585   4.127
  576SOL    HW2 2625   1.348   1.662   4.224
  577SOL     OW 2626   0.130   1.794   5.575
  577SOL    HW1 2627   0.089   1.720   5.628
  577SOL    HW2 2628   0.194   1.845   5.633
  578SOL     OW 2629   1.280   0.927   4.396
  578SOL    HW1 2630   1.340   0.846   4.398
  578SOL    HW2 2631   1.320   0.996   4.336
  579SOL     OW 2632   0.830   1.273   5.146
  579SOL    HW1 2633   0.825   1.306   5.241
  579SOL    HW2 2634   0.744   1.292   5.100
  580SOL     OW 2635   0.672   1.616   3.878
  580SOL    HW1 2636   0.681   1.626   3.779
  580SOL    HW2 2637   0.632   1.527   3.899
  581SOL     OW 2638   1.650   1.720   5.118
  581SOL    HW1 2639   1.703   1.730   5.034
  581SOL    HW2 2640   1.623   1.810   5.152
  582SOL     OW 2641   1.841   0.175   4.687
  582SOL    HW1 2642   1.880   0.090   4.651
  582SOL    HW2 2643   1.743   0.177   4.668
  583SOL     OW 2644   0.263   0.326   4.444
  583SOL    HW1 2645   0.184   0.377   4.410
  583SOL    HW2 2646   0.254   0.311   4.542
  584SOL     OW 2647   1.194   1.612   3.755
  584SOL    HW1 2648   1.200   1.519   3.792
  584SOL    HW2 2649   1.135   1.612   3.675
  585SOL     OW 2650   0.822   1.002   5.096
  585SOL    HW1 2651   0.862   1.001   5.004
  585SOL    HW2 2652   0.832   1.094   5.136
  586SOL     OW 2653   0.916   0.910   4.015
  586SOL    HW1 2654   0.979   0.948   3.947
  586SOL    HW2 2655   0.956   0.827   4.054
  587SOL     OW 2656   1.504   1.607   3.768
  587SOL    HW1 2657   1.412   1.644   3.775
  587SOL    HW2 2658   1.542   1.627   3.678
  588SOL     OW 2659   0.372   1.288   5.214
  588SOL    HW1 2660   0.359   1.381   5.180
  588SOL    HW2 2661   0.288   1.236   5.201
  589SOL     OW 2662   1.614   1.292   5.013
  589SOL    HW1 2663   1.674   1.295   5.093
  589SOL    HW2 2664   1.539   1.356   5.026
  590SOL     OW 2665   1.039   1.098   4.420
  590SOL    HW1 2666   0.969   1.051   4.474
  590SOL    HW2 2667   1.098   1.030   4.377
  591SOL     OW 2668   1.014   0.236   4.695
  591SOL    HW1 2669   1.006   0.200   4.602
  591SOL    HW2 2670   1.012   0.160   4.760
  592SOL     OW 2671   0.590   1.487   4.215
  592SOL    HW1 2672   0.632   1.429   4.145
  592SOL    HW2 2673   0.546   1.566   4.171
  593SOL     OW 2674   1.709   0.385   5.105
  593SOL    HW1 2675   1.782   0.454   5.109
  593SOL    HW2 2676   1.737   0.310   5.046
  594SOL     OW 2677   0.255   1.348   4.014
  594SOL    HW1 2678   0.159   1.349   3.987
  594SOL    HW2 2679   0.267   1.401   4.098
  595SOL     OW 2680   0.105   1.013   5.450
  595SOL    HW1 2681   0.028   0.980   5.504
  595SOL    HW2 2682   0.190   0.983   5.492
  596SOL     OW 2683   0.672   0.203   5.213
  596SOL    HW1 2684   0.762   0.187   5.173
  596SOL    HW2 2685   0.680   0.208   5.312
  597SOL     OW 2686   0.075   0.345   3.757
  597SOL    HW1 2687  -0.017   0.317   3.728
  597SOL    HW2 2688   0.106   0.422   3.701
  598SOL     OW 2689   1.440   0.856   5.122
  598SOL    HW1 2690   1.383   0.908   5.059
  598SOL    HW2 2691   1.536   0.868   5.098
  599SOL     OW 2692   0.072   0.166   4.042
  599SOL    HW1 2693   0.055   0.249   3.988
  599SOL    HW2 2694   0.162   0.129   4.020
  600SOL     OW 2695   1.183   1.335   3.843
  600SOL    HW1 2696   1.084   1.324   3.845
  600SOL    HW2 2697   1.217   1.350   3.936
  601SOL     OW 2698   0.613   0.842   5.155
  601SOL    HW1 2699   0.669   0.923   5.138
  601SOL    HW2 2700   0.672   0.762   5.158
  602SOL     OW 2701   1.493   1.767   4.683
  602SOL    HW1 2702   1.526   1.831   4.614
  602SOL    HW2 2703   1.559   1.761   4.758
  603SOL     OW 2704   0.716   0.565   5.432
  603SOL    HW1 2705   0.735   0.630   5.506
  603SOL    HW2 2706   0.776   0.485   5.441
  604SOL     OW 2707   1.450   1.220   5.357
  604SOL    HW1 2708   1.441   1.210   5.456
  604SOL    HW2 2709   1.546   1.213   5.331
  605SOL     OW 2710   0.390   1.741   5.284
  605SOL    HW1 2711   0.299   1.782   5.282
  605SOL    HW2 2712   0.383   1.647   5.316
  606SOL     OW 2713   1.674   0.883   4.978
  606SOL    HW1 2714   1.647   0.794   4.941
  606SOL    HW2 2715   1.675   0.951   4.905
  607SOL     OW 2716   1.225   0.325   4.173
  607SOL    HW1 2717   1.290   0.251   4.162
  607SOL    HW2 2718   1.245   0.375   4.257
  608SOL     OW 2719   0.594   0.745   4.376
  608SOL    HW1 2720   0.644   0.830   4.357
  608SOL    HW2 2721   0.506   0.747   4.328
  609SOL     OW 2722   1.777   0.342   5.366
  609SOL    HW1 2723   1.760   0.373   5.272
  609SOL    HW2 2724   1.693   0.305   5.404
  610SOL     OW 2725   1.730   0.934   5.241
  610SOL    HW1 2726   1.768   1.025   5.256
  610SOL    HW2 2727   1.722   0.917   5.142
  611SOL     OW 2728   0.859   1.374   3.740
  611SOL    HW1 2729   0.813   1.389   3.828
  611SOL    HW2 2730   0.903   1.459   3.710
  612SOL     OW 2731   0.661   1.790   4.677
  612SOL    HW1 2732   0.615   1.878   4.664
  612SOL    HW2 2733   0.760   1.802   4.670
  613SOL     OW 2734   0.859   0.956   4.585
  613SOL    HW1 2735   0.913   0.887   4.633
  613SOL    HW2 2736   0.827   1.025   4.651
  614SOL     OW 2737   1.083   0.984   3.811
  614SOL    HW1 2738   1.060   1.037   3.729
  614SOL    HW2 2739   1.164   0.928   3.792
  615SOL     OW 2740   1.861   1.569   4.575
  615SOL    HW1 2741   1.790   1.557   4.505
  615SOL    HW2 2742   1.862   1.490   4.635
  616SOL     OW 2743   0.221   1.314   5.568
  616SOL    HW1 2744   0.156   1.241   5.547
  616SOL    HW2 2745   0.225   1.328   5.666
  617SOL     OW 2746   0.079   1.240   4.377
  617SOL    HW1 2747   0.078   1.193   4.465
  617SOL    HW2 2748   0.161   1.212   4.326
  618SOL     OW 2749   0.672   1.391   5.348
  618SOL    HW1 2750   0.594   1.341   5.386
  618SOL    HW2 2751   0.669   1.486   5.379
  619SOL     OW 2752   1.824   0.192   4.951
  619SOL    HW1 2753   1.820   0.102   4.995
  619SOL    HW2 2754   1.827   0.181   4.852
  620SOL     OW 2755   0.428   0.424   4.244
  620SOL    HW1 2756   0.458   0.352   4.182
  620SOL    HW2 2757   0.389   0.384   4.327
  621SOL     OW 2758   1.705   1.487   4.828
  621SOL    HW1 2759   1.612   1.462   4.801
  621SOL    HW2 2760   1.731   1.437   4.910
  622SOL     OW 2761   0.317   0.547   5.004
  622SOL    HW1 2762   0.355   0.488   5.076
  622SOL    HW2 2763   0.357   0.521   4.916
  623SOL     OW 2764   0.812   1.586   4.411
  623SOL    HW1 2765   0.844   1.596   4.317
  623SOL    HW2 2766   0.733   1.524   4.413
  624SOL     OW 2767   1.424   0.214   4.836
  624SOL    HW1 2768   1.476   0.149   4.891
  624SOL    HW2 2769   1.375   0.277   4.897
  625SOL     OW 2770   1.001   0.034   4.878
  625SOL    HW1 2771   0.938  -0.038   4.847
  625SOL    HW2 2772   1.094  -0.002   4.878
  626SOL     OW 2773   0.770   1.330   4.025
  626SOL    HW1 2774   0.724   1.243   4.042
  626SOL    HW2 2775   0.861   1.327   4.066
  627SOL     OW 2776   0.618   1.567   5.008
  627SOL    HW1 2777   0.613   1.649   5.065
  627SOL    HW2 2778   0.707   1.564   4.963
  628SOL     OW 2779   1.352   0.052   3.892
  628SOL    HW1 2780   1.387   0.011   3.808
  628SOL    HW2 2781   1.262   0.014   3.912
  629SOL     OW 2782   1.300   0.453   4.415
  629SOL    HW1 2783   1.241   0.533   4.419
  629SOL    HW2 2784   1.315   0.418   4.508
  630SOL     OW 2785   1.593   0.221   4.606
  630SOL    HW1 2786   1.509   0.220   4.660
  630SOL    HW2 2787   1.595   0.304   4.550
  631SOL     OW 2788   0.039   1.077   4.024
  631SOL    HW1 2789   0.138   1.066   4.015
  631SOL    HW2 2790  -0.001   0.991   4.056
  632SOL     OW 2791   0.875   1.646   4.061
  632SOL    HW1 2792   0.798   1.611   4.007
  632SOL    HW2 2793   0.843   1.717   4.123
  633SOL     OW 2794   0.230   0.628   5.699
  633SOL    HW1 2795   0.137   0.626   5.736
  633SOL    HW2 2796   0.231   0.589   5.607
  634SOL     OW 2797   0.225   0.275   6.582
  634SOL    HW1 2798   0.260   0.258   6.674
  634SOL    HW2 2799   0.137   0.230   6.570
  635SOL     OW 2800   0.019   0.368   6.233
  635SOL    HW1 2801  -0.063   0.411   6.272
  635SOL    HW2 2802  -0.009   0.295   6.170
  636SOL     OW 2803   0.569   1.275   6.751
  636SOL    HW1 2804   0.476   1.268   6.714
  636SOL    HW2 2805   0.580   1.364   6.795
  637SOL     OW 2806   1.135   0.703   6.303
  637SOL    HW1 2807   1.192   0.781   6.278
  637SOL    HW2 2808   1.075   0.729   6.379
  638SOL     OW 2809   1.755   0.607   5.817
  638SOL    HW1 2810   1.743   0.594   5.718
  638SOL    HW2 2811   1.725   0.526   5.866
  639SOL     OW 2812   0.768   1.144   6.609
  639SOL    HW1 2813   0.690   1.161   6.669
  639SOL    HW2 2814   0.802   1.231   6.573
  640SOL     OW 2815   0.850   0.798   7.409
  640SOL    HW1 2816   0.846   0.874   7.474
  640SOL    HW2 2817   0.872   0.834   7.318
  641SOL     OW 2818   0.685   1.012   6.251
  641SOL    HW1 2819   0.754   0.996   6.321
  641SOL    HW2 2820   0.612   1.069   6.289
  642SOL     OW 2821   0.686   1.161   7.389
  642SOL    HW1 2822   0.746   1.240   7.403
  642SOL    HW2 2823   0.600   1.192   7.348
  643SOL     OW 2824   0.335   1.435   6.647
  643SOL    HW1 2825   0.257   1.404   6.594
  643SOL    HW2 2826   0.393   1.493   6.590
  644SOL     OW 2827   0.438   0.392   7.085
  644SOL    HW1 2828   0.520   0.336   7.094
  644SOL    HW2 2829   0.357   0.334   7.089
  645SOL     OW 2830   1.603   0.447   6.323
  645SOL    HW1 2831   1.529   0.493   6.273
  645SOL    HW2 2832   1.654   0.515   6.376
  646SOL     OW 2833   0.231   1.713   6.069
  646SOL    HW1 2834   0.265   1.790   6.123
  646SOL    HW2 2835   0.275   1.713   5.979
  647SOL     OW 2836   1.127   1.341   7.276
  647SOL    HW1 2837   1.174   1.341   7.364
  647SOL    HW2 2838   1.079   1.254   7.265
  648SOL     OW 2839   0.230   1.434   6.124
  648SOL    HW1 2840   0.204   1.530   6.124
  648SOL    HW2 2841   0.159   1.380   6.169
  649SOL     OW 2842   0.240   1.091   6.472
  649SOL    HW1 2843   0.254   1.007   6.524
  649SOL    HW2 2844   0.185   1.155   6.527
  650SOL     OW 2845   0.620   1.786   7.025
  650SOL    HW1 2846   0.528   1.769   7.060
  650SOL    HW2 2847   0.648   1.878   7.051
  651SOL     OW 2848   0.606   0.964   5.709
  651SOL    HW1 2849   0.613   1.048   5.655
  651SOL    HW2 2850   0.652   0.977   5.797
  652SOL     OW 2851   1.594   0.114   7.066
  652SOL    HW1 2852   1.576   0.181   6.994
  652SOL    HW2 2853   1.591   0.160   7.155
  653SOL     OW 2854   0.122   0.643   6.149
  653SOL    HW1 2855   0.077   0.555   6.166
  653SOL    HW2 2856   0.121   0.697   6.233
  654SOL     OW 2857   0.027   1.596   5.703
  654SOL    HW1 2858   0.008   1.500   5.724
  654SOL    HW2 2859  -0.006   1.654   5.778
  655SOL     OW 2860   1.689   0.922   6.198
  655SOL    HW1 2861   1.784   0.893   6.206
  655SOL    HW2 2862   1.681   0.987   6.123
  656SOL     OW 2863   1.641   1.108   6.018
  656SOL    HW1 2864   1.727   1.110   5.966
  656SOL    HW2 2865   1.655   1.155   6.106
  657SOL     OW 2866   0.113   0.737   7.183
  657SOL    HW1 2867   0.201   0.724   7.228
  657SOL    HW2 2868   0.100   0.834   7.161
  658SOL     OW 2869   0.613   1.365   6.312
  658SOL    HW1 2870   0.564   1.278   6.321
  658SOL    HW2 2871   0.590   1.408   6.225
  659SOL     OW 2872   1.293   1.228   7.009
  659SOL    HW1 2873   1.330   1.155   6.951
  659SOL    HW2 2874   1.345   1.233   7.094
  660SOL     OW 2875   0.809   0.004   6.088
  660SOL    HW1 2876   0.849   0.095   6.079
  660SOL    HW2 2877   0.709   0.012   6.094
  661SOL     OW 2878   0.197   0.976   6.850
  661SOL    HW1 2879   0.286   0.931   6.836
  661SOL    HW2 2880   0.124   0.911   6.831
  662SOL     OW 2881   1.525   0.999   5.776
  662SOL    HW1 2882   1.462   0.923   5.789
  662SOL    HW2 2883   1.573   1.017   5.862
  663SOL     OW 2884   1.187   1.792   7.202
  663SOL    HW1 2885   1.211   1.852   7.126
  663SOL    HW2 2886   1.194   1.697   7.172
  664SOL     OW 2887   0.317   0.251   7.387
  664SOL    HW1 2888   0.388   0.322   7.393
  664SOL    HW2 2889   0.229   0.290   7.415
  665SOL     OW 2890   0.598   0.729   5.856
  665SOL    HW1 2891   0.622   0.798   5.788
  665SOL    HW2 2892   0.520   0.762   5.910
  666SOL     OW 2893   1.281   0.345   6.530
  666SOL    HW1 2894   1.195   0.295   6.517
  666SOL    HW2 2895   1.343   0.291   6.586
  667SOL     OW 2896   0.807   0.605   7.051
  667SOL    HW1 2897   0.760   0.602   7.140
  667SOL    HW2 2898   0.756   0.550   6.985
  668SOL     OW 2899   1.394   0.469   7.260
  668SOL    HW1 2900   1.374   0.512   7.348
  668SOL    HW2 2901   1.472   0.407   7.269
  669SOL     OW 2902   0.973   0.890   7.158
  669SOL    HW1 2903   1.019   0.806   7.129
  669SOL    HW2 2904   0.917   0.924   7.083
  670SOL     OW 2905   0.991   0.410   6.828
  670SOL    HW1 2906   0.914   0.444   6.882
  670SOL    HW2 2907   0.957   0.359   6.749
  671SOL     OW 2908   1.041   0.701   6.015
  671SOL    HW1 2909   1.067   0.697   6.111
  671SOL    HW2 2910   0.956   0.650   6.001
  672SOL     OW 2911   0.076   0.811   6.375
  672SOL    HW1 2912   0.175   0.799   6.384
  672SOL    HW2 2913   0.052   0.906   6.396
  673SOL     OW 2914   0.130   1.821   7.157
  673SOL    HW1 2915   0.120   1.806   7.256
  673SOL    HW2 2916   0.044   1.857   7.121
  674SOL     OW 2917   0.865   0.348   5.781
  674SOL    HW1 2918   0.924   0.411   5.732
  674SOL    HW2 2919   0.884   0.254   5.752
  675SOL     OW 2920   1.719   0.585   7.417
  675SOL    HW1 2921   1.693   0.674   7.381
  675SOL    HW2 2922   1.717   0.517   7.344
  676SOL     OW 2923   1.362   1.144   6.131
  676SOL    HW1 2924   1.445   1.115   6.083
  676SOL    HW2 2925   1.313   1.211   6.075
  677SOL     OW 2926   0.550   0.196   6.471
  677SOL    HW1 2927   0.545   0.191   6.571
  677SOL    HW2 2928   0.552   0.292   6.442
  678SOL     OW 2929   1.008   1.456   6.063
  678SOL    HW1 2930   0.962   1.528   6.011
  678SOL    HW2 2931   1.004   1.476   6.161
  679SOL     OW 2932   0.351   1.801   6.439
  679SOL    HW1 2933   0.401   1.715   6.445
  679SOL    HW2 2934   0.416   1.878   6.436
  680SOL     OW 2935   1.795   1.066   6.459
  680SOL    HW1 2936   1.733   1.051   6.383
  680SOL    HW2 2937   1.743   1.077   6.544
  681SOL     OW 2938   1.227   1.550   7.092
  681SOL    HW1 2939   1.233   1.473   7.156
  681SOL    HW2 2940   1.175   1.524   7.012
  682SOL     OW 2941   0.321   0.943   5.828
  682SOL    HW1 2942   0.403   0.982   5.786
  682SOL    HW2 2943   0.294   0.861   5.779
  683SOL     OW 2944   1.458   0.735   6.314
  683SOL    HW1 2945   1.453   0.670   6.389
  683SOL    HW2 2946   1.538   0.794   6.327
  684SOL     OW 2947   0.461   1.266   7.313
  684SOL    HW1 2948   0.411   1.267   7.227
  684SOL    HW2 2949   0.398   1.248   7.389
  685SOL     OW 2950   1.111   1.776   5.823
  685SOL    HW1 2951   1.051   1.714   5.873
  685SOL    HW2 2952   1.142   1.732   5.738
  686SOL     OW 2953   0.202   0.285   7.084
  686SOL    HW1 2954   0.122   0.345   7.071
  686SOL    HW2 2955   0.192   0.236   7.170
  687SOL     OW 2956   1.632   1.377   5.667
  687SOL    HW1 2957   1.600   1.471   5.657
  687SOL    HW2 2958   1.556   1.314   5.655
  688SOL     OW 2959   0.464   1.743   5.909
  688SOL    HW1 2960   0.497   1.782   5.995
  688SOL    HW2 2961   0.540   1.736   5.844
  689SOL     OW 2962   1.400   0.107   6.012
  689SOL    HW1 2963   1.376   0.070   5.922
  689SOL    HW2 2964   1.499   0.123   6.016
  690SOL     OW 2965   0.249   1.785   6.827
  690SOL    HW1 2966   0.306   1.720   6.877
  690SOL    HW2 2967   0.233   1.752   6.734
  691SOL     OW 2968   0.940   1.698   6.490
  691SOL    HW1 2969   1.020   1.641   6.511
  691SOL    HW2 2970   0.891   1.658   6.413
  692SOL     OW 2971   0.382   0.700   6.066
  692SOL    HW1 2972   0.427   0.610   6.063
  692SOL    HW2 2973   0.288   0.689   6.099
  693SOL     OW 2974   1.547   0.222   7.315
  693SOL    HW1 2975   1.542   0.259   7.407
  693SOL    HW2 2976   1.475   0.153   7.303
  694SOL     OW 2977   0.614   0.122   5.703
  694SOL    HW1 2978   0.712   0.100   5.710
  694SOL    HW2 2979   0.583   0.105   5.610
  695SOL     OW 2980   0.781   0.264   7.335
  695SOL    HW1 2981   0.848   0.203   7.378
  695SOL    HW2 2982   0.708   0.283   7.400
  696SOL     OW 2983   0.888   1.514   6.781
  696SOL    HW1 2984   0.865   1.489   6.687
  696SOL    HW2 2985   0.949   1.445   6.820
  697SOL     OW 2986   1.351   0.590   7.019
  697SOL    HW1 2987   1.379   0.547   7.104
  697SOL    HW2 2988   1.376   0.686   7.020
  698SOL     OW 2989   0.803   1.402   6.510
  698SOL    HW1 2990   0.893   1.416   6.468
  698SOL    HW2 2991   0.732   1.404   6.439
  699SOL     OW 2992   0.922   0.503   6.485
  699SOL    HW1 2993   0.897   0.494   6.389
  699SOL    HW2 2994   0.970   0.421   6.516
  700SOL     OW 2995   0.539   0.064   6.098
  700SOL    HW1 2996   0.458   0.065   6.156
  700SOL    HW2 2997   0.542   0.147   6.043
  701SOL     OW 2998   1.434   1.188   5.627
  701SOL    HW1 2999   1.466   1.112   5.684
  701SOL    HW2 3000   1.342   1.215   5.657
  702SOL     OW 3001   0.297   0.035   5.757
  702SOL    HW1 3002   0.346   0.119   5.736
  702SOL    HW2 3003   0.359  -0.030   5.802
  703SOL     OW 3004   0.935   0.236   6.066
  703SOL    HW1 3005   0.887   0.277   5.988
  703SOL    HW2 3006   1.034   0.234   6.047
  704SOL     OW 3007   1.076   0.683   7.050
  704SOL    HW1 3008   0.996   0.622   7.053
  704SOL    HW2 3009   1.157   0.630   7.026
  705SOL     OW 3010   0.459   1.152   6.327
  705SOL    HW1 3011   0.388   1.125   6.392
  705SOL    HW2 3012   0.433   1.124   6.234
  706SOL     OW 3013   1.032   0.549   5.602
  706SOL    HW1 3014   0.991   0.631   5.563
  706SOL    HW2 3015   1.096   0.575   5.675
  707SOL     OW 3016   0.078   0.556   6.972
  707SOL    HW1 3017   0.170   0.555   6.931
  707SOL    HW2 3018   0.072   0.630   7.039
  708SOL     OW 3019   0.561   0.222   6.733
  708SOL    HW1 3020   0.599   0.138   6.770
  708SOL    HW2 3021   0.473   0.241   6.777
  709SOL     OW 3022   0.866   0.454   6.228
  709SOL    HW1 3023   0.834   0.526   6.166
  709SOL    HW2 3024   0.890   0.373   6.175
  710SOL     OW 3025   1.017   0.039   6.339
  710SOL    HW1 3026   0.945   0.044   6.270
  710SOL    HW2 3027   0.993  -0.030   6.408
  711SOL     OW 3028   1.429   1.173   6.453
  711SOL    HW1 3029   1.374   1.089   6.446
  711SOL    HW2 3030   1.455   1.202   6.361
  712SOL     OW 3031   1.466   0.590   6.578
  712SOL    HW1 3032   1.436   0.495   6.585
  712SOL    HW2 3033   1.539   0.606   6.644
  713SOL     OW 3034   1.857   0.833   5.963
  713SOL    HW1 3035   1.899   0.769   6.027
  713SOL    HW2 3036   1.819   0.782   5.885
  714SOL     OW 3037   0.488   1.385   5.760
  714SOL    HW1 3038   0.401   1.370   5.807
  714SOL    HW2 3039   0.471   1.411   5.665
  715SOL     OW 3040   1.390   0.575   5.664
  715SOL    HW1 3041   1.336   0.554   5.745
  715SOL    HW2 3042   1.481   0.534   5.673
  716SOL     OW 3043   0.527   0.256   5.914
  716SOL    HW1 3044   0.554   0.197   5.839
  716SOL    HW2 3045   0.527   0.351   5.883
  717SOL     OW 3046   1.754   1.223   7.174
  717SOL    HW1 3047   1.845   1.184   7.161
  717SOL    HW2 3048   1.762   1.319   7.198
  718SOL     OW 3049   1.064   1.347   6.926
  718SOL    HW1 3050   0.984   1.324   6.981
  718SOL    HW2 3051   1.147   1.321   6.975
  719SOL     OW 3052   1.111   1.195   6.686
  719SOL    HW1 3053   1.071   1.239   6.767
  719SOL    HW2 3054   1.070   1.232   6.603
  720SOL     OW 3055   0.915   0.089   6.988
  720SOL    HW1 3056   0.940   0.069   6.893
  720SOL    HW2 3057   0.987   0.145   7.030
  721SOL     OW 3058   0.980   1.116   7.305
  721SOL    HW1 3059   0.881   1.122   7.315
  721SOL    HW2 3060   1.003   1.036   7.249
  722SOL     OW 3061   0.705   1.050   5.954
  722SOL    HW1 3062   0.691   1.057   6.053
  722SOL    HW2 3063   0.789   0.999   5.936
  723SOL     OW 3064   0.410   0.813   6.837
  723SOL    HW1 3065   0.496   0.825   6.887
  723SOL    HW2 3066   0.368   0.726   6.864
  724SOL     OW 3067   1.274   0.386   6.848
  724SOL    HW1 3068   1.295   0.460   6.912
  724SOL    HW2 3069   1.185   0.403   6.805
  725SOL     OW 3070   0.064   1.564   6.917
  725SOL    HW1 3071   0.018   1.646   6.883
  725SOL    HW2 3072   0.162   1.583   6.926
  726SOL     OW 3073   0.367   1.100   6.087
  726SOL    HW1 3074   0.360   1.183   6.031
  726SOL    HW2 3075   0.371   1.020   6.027
  727SOL     OW 3076   0.566   0.537   6.451
  727SOL    HW1 3077   0.578   0.603   6.377
  727SOL    HW2 3078   0.612   0.571   6.534
  728SOL     OW 3079   1.272   1.445   6.728
  728SOL    HW1 3080   1.319   1.458   6.815
  728SOL    HW2 3081   1.206   1.371   6.737
  729SOL     OW 3082   1.582   0.639   6.058
  729SOL    HW1 3083   1.551   0.700   6.131
  729SOL    HW2 3084   1.632   0.691   5.989
  730SOL     OW 3085   0.354   1.510   6.915
  730SOL    HW1 3086   0.333   1.466   6.828
  730SOL    HW2 3087   0.451   1.536   6.918
  731SOL     OW 3088   0.402   0.751   7.184
  731SOL    HW1 3089   0.470   0.806   7.137
  731SOL    HW2 3090   0.442   0.663   7.211
  732SOL     OW 3091   1.587   0.779   7.256
  732SOL    HW1 3092   1.495   0.817   7.251
  732SOL    HW2 3093   1.647   0.826   7.191
  733SOL     OW 3094   1.013   0.105   7.356
  733SOL    HW1 3095   1.019   0.190   7.304
  733SOL    HW2 3096   1.045   0.029   7.299
  734SOL     OW 3097   0.504   0.050   7.326
  734SOL    HW1 3098   0.462  -0.007   7.256
  734SOL    HW2 3099   0.438   0.119   7.358
  735SOL     OW 3100   0.573   0.870   6.615
  735SOL    HW1 3101   0.617   0.959   6.606
  735SOL    HW2 3102   0.510   0.870   6.692
  736SOL     OW 3103   1.360   0.862   6.631
  736SOL    HW1 3104   1.285   0.862   6.565
  736SOL    HW2 3105   1.397   0.770   6.640
  737SOL     OW 3106   1.209   0.525   5.861
  737SOL    HW1 3107   1.222   0.441   5.915
  737SOL    HW2 3108   1.180   0.599   5.921
  738SOL     OW 3109   0.307   0.213   6.817
  738SOL    HW1 3110   0.284   0.250   6.907
  738SOL    HW2 3111   0.277   0.118   6.811
  739SOL     OW 3112   0.037   1.310   6.868
  739SOL    HW1 3113   0.090   1.261   6.936
  739SOL    HW2 3114   0.059   1.408   6.873
  740SOL     OW 3115   0.732   0.634   6.650
  740SOL    HW1 3116   0.791   0.608   6.574
  740SOL    HW2 3117   0.704   0.730   6.639
  741SOL     OW 3118   1.728   0.935   7.440
  741SOL    HW1 3119   1.682   0.928   7.351
  741SOL    HW2 3120   1.666   0.979   7.506
  742SOL     OW 3121   0.307   0.063   6.204
  742SOL    HW1 3122   0.296   0.157   6.237
  742SOL    HW2 3123   0.302   0.000   6.281
  743SOL     OW 3124   1.622   0.367   5.960
  743SOL    HW1 3125   1.624   0.291   6.024
  743SOL    HW2 3126   1.574   0.444   6.000
  744SOL     OW 3127   1.023   0.766   6.552
  744SOL    HW1 3128   1.038   0.787   6.648
  744SOL    HW2 3129   0.993   0.671   6.543
  745SOL     OW 3130   0.980   1.573   7.286
  745SOL    HW1 3131   0.960   1.617   7.198
  745SOL    HW2 3132   1.019   1.482   7.270
  746SOL     OW 3133   0.350   0.898   7.390
  746SOL    HW1 3134   0.426   0.942   7.438
  746SOL    HW2 3135   0.385   0.851   7.308
  747SOL     OW 3136   1.540   0.274   5.711
  747SOL    HW1 3137   1.479   0.199   5.734
  747SOL    HW2 3138   1.562   0.326   5.794
  748SOL     OW 3139   1.303   0.838   5.628
  748SOL    HW1 3140   1.337   0.745   5.643
  748SOL    HW2 3141   1.321   0.865   5.533
  749SOL     OW 3142   1.068   1.333   6.435
  749SOL    HW1 3143   1.075   1.249   6.380
  749SOL    HW2 3144   1.130   1.402   6.399
  750SOL     OW 3145   0.319   0.810   6.535
  750SOL    HW1 3146   0.412   0.846   6.540
  750SOL    HW2 3147   0.313   0.725   6.587
  751SOL     OW 3148   0.339   0.509   6.592
  751SOL    HW1 3149   0.287   0.426   6.575
  751SOL    HW2 3150   0.416   0.514   6.528
  752SOL     OW 3151   1.138   0.380   7.264
  752SOL    HW1 3152   1.093   0.443   7.328
  752SOL    HW2 3153   1.231   0.411   7.247
  753SOL     OW 3154   1.160   0.207   7.063
  753SOL    HW1 3155   1.160   0.271   7.140
  753SOL    HW2 3156   1.188   0.255   6.980
  754SOL     OW 3157   0.008   1.326   5.786
  754SOL    HW1 3158  -0.085   1.347   5.755
  754SOL    HW2 3159   0.018   1.227   5.799
  755SOL     OW 3160   0.088   1.801   6.513
  755SOL    HW1 3161   0.046   1.715   6.486
  755SOL    HW2 3162   0.182   1.804   6.479
  756SOL     OW 3163   0.504   1.568   6.496
  756SOL    HW1 3164   0.570   1.642   6.505
  756SOL    HW2 3165   0.548   1.489   6.454
  757SOL     OW 3166   1.002   0.796   6.824
  757SOL    HW1 3167   1.043   0.764   6.910
  757SOL    HW2 3168   0.906   0.769   6.821
  758SOL     OW 3169   0.040   0.544   6.700
  758SOL    HW1 3170   0.125   0.511   6.659
  758SOL    HW2 3171   0.053   0.559   6.798
  759SOL     OW 3172   0.189   0.520   7.308
  759SOL    HW1 3173   0.248   0.480   7.238
  759SOL    HW2 3174   0.131   0.591   7.267
  760SOL     OW 3175   1.369   0.950   7.246
  760SOL    HW1 3176   1.408   1.039   7.266
  760SOL    HW2 3177   1.379   0.930   7.149
  761SOL     OW 3178   0.815   0.572   5.911
  761SOL    HW1 3179   0.822   0.483   5.865
  761SOL    HW2 3180   0.721   0.606   5.903
  762SOL     OW 3181   1.657   0.604   6.792
  762SOL    HW1 3182   1.619   0.535   6.854
  762SOL    HW2 3183   1.739   0.568   6.748
  763SOL     OW 3184   0.252   1.564   7.330
  763SOL    HW1 3185   0.222   1.621   7.406
  763SOL    HW2 3186   0.245   1.467   7.356
  764SOL     OW 3187   0.671   0.464   6.855
  764SOL    HW1 3188   0.637   0.375   6.825
  764SOL    HW2 3189   0.697   0.518   6.775
  765SOL     OW 3190   0.930   1.678   7.051
  765SOL    HW1 3191   0.906   1.660   6.956
  765SOL    HW2 3192   0.960   1.772   7.061
  766SOL     OW 3193   0.473   0.500   5.777
  766SOL    HW1 3194   0.534   0.580   5.781
  766SOL    HW2 3195   0.378   0.531   5.784
  767SOL     OW 3196   0.159   1.137   7.052
  767SOL    HW1 3197   0.181   1.076   7.128
  767SOL    HW2 3198   0.169   1.088   6.966
  768SOL     OW 3199   1.347   1.059   6.820
  768SOL    HW1 3200   1.371   0.996   6.746
  768SOL    HW2 3201   1.257   1.099   6.802
  769SOL     OW 3202   1.302   0.855   5.895
  769SOL    HW1 3203   1.216   0.824   5.937
  769SOL    HW2 3204   1.298   0.841   5.796
  770SOL     OW 3205   0.083   1.258   6.608
  770SOL    HW1 3206   0.078   1.257   6.708
  770SOL    HW2 3207   0.000   1.217   6.570
  771SOL     OW 3208   0.688   1.662   7.302
  771SOL    HW1 3209   0.632   1.743   7.311
  771SOL    HW2 3210   0.740   1.666   7.216
  772SOL     OW 3211   1.726   0.135   6.109
  772SOL    HW1 3212   1.799   0.118   6.042
  772SOL    HW2 3213   1.695   0.048   6.147
  773SOL     OW 3214   0.130   1.794   7.437
  773SOL    HW1 3215   0.089   1.720   7.490
  773SOL    HW2 3216   0.194   1.845   7.495
  774SOL     OW 3217   1.280   0.927   6.258
  774SOL    HW1 3218   1.340   0.846   6.260
  774SOL    HW2 3219   1.320   0.996   6.198
  775SOL     OW 3220   0.830   1.273   7.008
  775SOL    HW1 3221   0.825   1.306   7.103
  775SOL    HW2 3222   0.744   1.292   6.962
  776SOL     OW 3223   0.672   1.616   5.740
  776SOL    HW1 3224   0.681   1.626   5.641
  776SOL    HW2 3225   0.632   1.527   5.761
  777SOL     OW 3226   1.841   0.175   6.549
  777SOL    HW1 3227   1.880   0.090   6.513
  777SOL    HW2 3228   1.743   0.177   6.530
  778SOL     OW 3229   0.263   0.326   6.306
  778SOL    HW1 3230   0.184   0.377   6.272
  778SOL    HW2 3231   0.254   0.311   6.404
  779SOL     OW 3232   1.194   1.612   5.617
  779SOL    HW1 3233   1.200   1.519   5.654
  779SOL    HW2 3234   1.135   1.612   5.537
  780SOL     OW 3235   0.822   1.002   6.958
  780SOL    HW1 3236   0.862   1.001   6.866
  780SOL    HW2 3237   0.832   1.094   6.998
  781SOL     OW 3238   0.916   0.910   5.877
  781SOL    HW1 3239   0.979   0.948   5.809
  781SOL    HW2 3240   0.956   0.827   5.916
  782SOL     OW 3241   1.504   1.607   5.630
  782SOL    HW1 3242   1.412   1.644   5.637
  782SOL    HW2 3243   1.542   1.627   5.540
  783SOL     OW 3244   0.372   1.288   7.076
  783SOL    HW1 3245   0.359   1.381   7.042
  783SOL    HW2 3246   0.288   1.236   7.063
  784SOL     OW 3247   1.039   1.098   6.282
  784SOL    HW1 3248   0.969   1.051   6.336
  784SOL    HW2 3249   1.098   1.030   6.239
  785SOL     OW 3250   1.014   0.236   6.557
  785SOL    HW1 3251   1.006   0.200   6.464
  785SOL    HW2 3252   1.012   0.160   6.622
  786SOL     OW 3253   0.590   1.487   6.077
  786SOL    HW1 3254   0.632   1.429   6.007
  786SOL    HW2 3255   0.546   1.566   6.033
  787SOL     OW 3256   1.709   0.385   6.967
  787SOL    HW1 3257   1.782   0.454   6.971
  787SOL    HW2 3258   1.737   0.310   6.908
  788SOL     OW 3259   0.255   1.348   5.876
  788SOL    HW1 3260   0.159   1.349   5.849
  788SOL    HW2 3261   0.267   1.401   5.960
  789SOL     OW 3262   0.105   1.013   7.312
  789SOL    HW1 3263   0.028   0.980   7.366
  789SOL    HW2 3264   0.190   0.983   7.354
  790SOL     OW 3265   0.672   0.203   7.075
  790SOL    HW1 3266   0.762   0.187   7.035
  790SOL    HW2 3267   0.680   0.208   7.174
  791SOL     OW 3268   0.075   0.345   5.619
  791SOL    HW1 3269  -0.017   0.317   5.590
  791SOL    HW2 3270   0.106   0.422   5.563
  792SOL     OW 3271   1.440   0.856   6.984
  792SOL    HW1 3272   1.383   0.908   6.921
  792SOL    HW2 3273   1.536   0.868   6.960
  793SOL     OW 3274   0.072   0.166   5.904
  793SOL    HW1 3275   0.055   0.249   5.850
  793SOL    HW2 3276   0.162   0.129   5.882
  794SOL     OW 3277   1.183   1.335   5.705
  794SOL    HW1 3278   1.084   1.324   5.707
  794SOL    HW2 3279   1.217   1.350   5.798
  795SOL     OW 3280   0.613   0.842   7.017
  795SOL    HW1 3281   0.669   0.923   7.000
  795SOL    HW2 3282   0.672   0.762   7.020
  796SOL     OW 3283   0.716   0.565   7.294
  796SOL    HW1 3284   0.735   0.630   7.368
  796SOL    HW2 3285   0.776   0.485   7.303
  797SOL     OW 3286   1.450   1.220   7.219
  797SOL    HW1 3287   1.441   1.210   7.318
  797SOL    HW2 3288   1.546   1.213   7.193
  798SOL     OW 3289   0.390   1.741   7.146
  798SOL    HW1 3290   0.299   1.782   7.144
  798SOL    HW2 3291   0.383   1.647   7.178
  799SOL     OW 3292   1.674   0.883   6.840
  799SOL    HW1 3293   1.647   0.794   6.803
  799SOL    HW2 3294   1.675   0.951   6.767
  800SOL     OW 3295   1.225   0.325   6.035
  800SOL    HW1 3296   1.290   0.251   6.024
  800SOL    HW2 3297   1.245   0.375   6.119
  801SOL     OW 3298   0.594   0.745   6.238
  801SOL    HW1 3299   0.644   0.830   6.219
  801SOL    HW2 3300   0.506   0.747   6.190
  802SOL     OW 3301   1.777   0.342   7.228
  802SOL    HW1 3302   1.760   0.373   7.134
  802SOL    HW2 3303   1.693   0.305   7.266
  803SOL     OW 3304   1.730   0.934   7.103
  803SOL    HW1 3305   1.768   1.025   7.118
  803SOL    HW2 3306   1.722   0.917   7.004
  804SOL     OW 3307   0.859   1.374   5.602
  804SOL    HW1 3308   0.813   1.389   5.690
  804SOL    HW2 3309   0.903   1.459   5.572
  805SOL     OW 3310   0.661   1.790   6.539
  805SOL    HW1 3311   0.615   1.878   6.526
  805SOL    HW2 3312   0.760   1.802   6.532
  806SOL     OW 3313   0.859   0.956   6.447
  806SOL    HW1 3314   0.913   0.887   6.495
  806SOL    HW2 3315   0.827   1.025   6.513
  807SOL     OW 3316   1.083   0.984   5.673
  807SOL    HW1 3317   1.060   1.037   5.591
  807SOL    HW2 3318   1.164   0.928   5.654
  808SOL     OW 3319   0.221   1.314   7.430
  808SOL    HW1 3320   0.156   1.241   7.409
  808SOL    HW2 3321   0.225   1.328   7.528
  809SOL     OW 3322   0.079   1.240   6.239
  809SOL    HW1 3323   0.078   1.193   6.327
  809SOL    HW2 3324   0.161   1.212   6.188
  810SOL     OW 3325   0.672   1.391   7.210
  810SOL    HW1 3326   0.594   1.341   7.248
  810SOL    HW2 3327   0.669   1.486   7.241
  811SOL     OW 3328   1.824   0.192   6.813
  811SOL    HW1 3329   1.820   0.102   6.857
  811SOL    HW2 3330   1.827   0.181   6.714
  812SOL     OW 3331   0.428   0.424   6.106
  812SOL    HW1 3332   0.458   0.352   6.044
  812SOL    HW2 3333   0.389   0.384   6.189
  813SOL     OW 3334   0.317   0.547   6.866
  813SOL    HW1 3335   0.355   0.488   6.938
  813SOL    HW2 3336   0.357   0.521   6.778
  814SOL     OW 3337   0.812   1.586   6.273
  814SOL    HW1 3338   0.844   1.596   6.179
  814SOL    HW2 3339   0.733   1.524   6.275
  815SOL     OW 3340   1.424   0.214   6.698
  815SOL    HW1 3341   1.476   0.149   6.753
  815SOL    HW2 3342   1.375   0.277   6.759
  816SOL     OW 3343   1.001   0.034   6.740
  816SOL    HW1 3344   0.938  -0.038   6.709
  816SOL    HW2 3345   1.094  -0.002   6.740
  817SOL     OW 3346   0.770   1.330   5.887
  817SOL    HW1 3347   0.724   1.243   5.904
  817SOL    HW2 3348   0.861   1.327   5.928
  818SOL     OW 3349   0.618   1.567   6.870
  818SOL    HW1 3350   0.613   1.649   6.927
  818SOL    HW2 3351   0.707   1.564   6.825
  819SOL     OW 3352   1.352   0.052   5.754
  819SOL    HW1 3353   1.387   0.011   5.670
  819SOL    HW2 3354   1.262   0.014   5.774
  820SOL     OW 3355   1.300   0.453   6.277
  820SOL    HW1 3356   1.241   0.533   6.281
  820SOL    HW2 3357   1.315   0.418   6.370
  821SOL     OW 3358   1.593   0.221   6.468
  821SOL    HW1 3359   1.509   0.220   6.522
  821SOL    HW2 3360   1.595   0.304   6.412
  822SOL     OW 3361   0.039   1.077   5.886
  822SOL    HW1 3362   0.138   1.066   5.877
  822SOL    HW2 3363  -0.001   0.991   5.918
  823SOL     OW 3364   0.875   1.646   5.923
  823SOL    HW1 3365   0.798   1.611   5.869
  823SOL    HW2 3366   0.843   1.717   5.985
  824SOL     OW 3367   0.230   0.628   7.561
  824SOL    HW1 3368   0.137   0.626   7.598
  824SOL    HW2 3369   0.231   0.589   7.469
  825SOL     OW 3370   0.225   0.275   8.444
  825SOL    HW1 3371   0.260   0.258   8.536
  825SOL    HW2 3372   0.137   0.230   8.432
  826SOL     OW 3373   0.019   0.368   8.095
  826SOL    HW1 3374  -0.063   0.411   8.134
  826SOL    HW2 3375  -0.009   0.295   8.032
  827SOL     OW 3376   0.569   1.275   8.613
  827SOL    HW1 3377   0.476   1.268   8.576
  827SOL    HW2 3378   0.580   1.364   8.657
  828SOL     OW 3379   1.555   1.511   8.151
  828SOL    HW1 3380   1.498   1.495   8.232
  828SOL    HW2 3381   1.496   1.521   8.071
  829SOL     OW 3382   1.135   0.703   8.165
  829SOL    HW1 3383   1.192   0.781   8.140
  829SOL    HW2 3384   1.075   0.729   8.241
  830SOL     OW 3385   1.755   0.607   7.679
  830SOL    HW1 3386   1.743   0.594   7.580
  830SOL    HW2 3387   1.725   0.526   7.728
  831SOL     OW 3388   0.768   1.144   8.471
  831SOL    HW1 3389   0.690   1.161   8.531
  831SOL    HW2 3390   0.802   1.231   8.435
  832SOL     OW 3391   0.850   0.798   9.271
  832SOL    HW1 3392   0.846   0.874   9.336
  832SOL    HW2 3393   0.872   0.834   9.180
  833SOL     OW 3394   0.685   1.012   8.113
  833SOL    HW1 3395   0.754   0.996   8.183
  833SOL    HW2 3396   0.612   1.069   8.151
  834SOL     OW 3397   0.686   1.161   9.251
  834SOL    HW1 3398   0.746   1.240   9.265
  834SOL    HW2 3399   0.600   1.192   9.210
  835SOL     OW 3400   0.335   1.435   8.509
  835SOL    HW1 3401   0.257   1.404   8.456
  835SOL    HW2 3402   0.393   1.493   8.452
  836SOL     OW 3403   1.460   1.505   8.787
  836SOL    HW1 3404   1.484   1.599   8.813
  836SOL    HW2 3405   1.444   1.451   8.869
  837SOL     OW 3406   0.438   0.392   8.947
  837SOL    HW1 3407   0.520   0.336   8.956
  837SOL    HW2 3408   0.357   0.334   8.951
  838SOL     OW 3409   1.603   0.447   8.185
  838SOL    HW1 3410   1.529   0.493   8.135
  838SOL    HW2 3411   1.654   0.515   8.238
  839SOL     OW 3412   0.231   1.713   7.931
  839SOL    HW1 3413   0.265   1.790   7.985
  839SOL    HW2 3414   0.275   1.713   7.841
  840SOL     OW 3415   1.127   1.341   9.138
  840SOL    HW1 3416   1.174   1.341   9.226
  840SOL    HW2 3417   1.079   1.254   9.127
  841SOL     OW 3418   0.230   1.434   7.986
  841SOL    HW1 3419   0.204   1.530   7.986
  841SOL    HW2 3420   0.159   1.380   8.031
  842SOL     OW 3421   0.240   1.091   8.334
  842SOL    HW1 3422   0.254   1.007   8.386
  842SOL    HW2 3423   0.185   1.155   8.389
  843SOL     OW 3424   0.620   1.786   8.887
  843SOL    HW1 3425   0.528   1.769   8.922
  843SOL    HW2 3426   0.648   1.878   8.913
  844SOL     OW 3427   0.606   0.964   7.571
  844SOL    HW1 3428   0.613   1.048   7.517
  844SOL    HW2 3429   0.652   0.977   7.659
  845SOL     OW 3430   1.594   0.114   8.928
  845SOL    HW1 3431   1.576   0.181   8.856
  845SOL    HW2 3432   1.591   0.160   9.017
  846SOL     OW 3433   0.122   0.643   8.011
  846SOL    HW1 3434   0.077   0.555   8.028
  846SOL    HW2 3435   0.121   0.697   8.095
  847SOL     OW 3436   0.027   1.596   7.565
  847SOL    HW1 3437   0.008   1.500   7.586
  847SOL    HW2 3438  -0.006   1.654   7.640
  848SOL     OW 3439   1.689   0.922   8.060
  848SOL    HW1 3440   1.784   0.893   8.068
  848SOL    HW2 3441   1.681   0.987   7.985
  849SOL     OW 3442   0.113   0.737   9.045
  849SOL    HW1 3443   0.201   0.724   9.090
  849SOL    HW2 3444   0.100   0.834   9.023
  850SOL     OW 3445   0.613   1.365   8.174
  850SOL    HW1 3446   0.564   1.278   8.183
  850SOL    HW2 3447   0.590   1.408   8.087
  851SOL     OW 3448   1.293   1.228   8.871
  851SOL    HW1 3449   1.330   1.155   8.813
  851SOL    HW2 3450   1.345   1.233   8.956
  852SOL     OW 3451   0.809   0.004   7.950
  852SOL    HW1 3452   0.849   0.095   7.941
  852SOL    HW2 3453   0.709   0.012   7.956
  853SOL     OW 3454   0.197   0.976   8.712
  853SOL    HW1 3455   0.286   0.931   8.698
  853SOL    HW2 3456   0.124   0.911   8.693
  854SOL     OW 3457   1.525   0.999   7.638
  854SOL    HW1 3458   1.462   0.923   7.651
  854SOL    HW2 3459   1.573   1.017   7.724
  855SOL     OW 3460   1.187   1.792   9.064
  855SOL    HW1 3461   1.211   1.852   8.988
  855SOL    HW2 3462   1.194   1.697   9.034
  856SOL     OW 3463   0.317   0.251   9.249
  856SOL    HW1 3464   0.388   0.322   9.255
  856SOL    HW2 3465   0.229   0.290   9.277
  857SOL     OW 3466   1.466   1.417   8.401
  857SOL    HW1 3467   1.407   1.423   8.481
  857SOL    HW2 3468   1.451   1.329   8.355
  858SOL     OW 3469   1.667   1.714   8.020
  858SOL    HW1 3470   1.626   1.691   7.932
  858SOL    HW2 3471   1.649   1.640   8.085
  859SOL     OW 3472   0.598   0.729   7.718
  859SOL    HW1 3473   0.622   0.798   7.650
  859SOL    HW2 3474   0.520   0.762   7.772
  860SOL     OW 3475   1.281   0.345   8.392
  860SOL    HW1 3476   1.195   0.295   8.379
  860SOL    HW2 3477   1.343   0.291   8.448
  861SOL     OW 3478   1.576   1.662   7.755
  861SOL    HW1 3479   1.665   1.708   7.758
  861SOL    HW2 3480   1.555   1.638   7.660
  862SOL     OW 3481   0.807   0.605   8.913
  862SOL    HW1 3482   0.760   0.602   9.002
  862SOL    HW2 3483   0.756   0.550   8.847
  863SOL     OW 3484   1.394   0.469   9.122
  863SOL    HW1 3485   1.374   0.512   9.210
  863SOL    HW2 3486   1.472   0.407   9.131
  864SOL     OW 3487   0.973   0.890   9.020
  864SOL    HW1 3488   1.019   0.806   8.991
  864SOL    HW2 3489   0.917   0.924   8.945
  865SOL     OW 3490   0.991   0.410   8.690
  865SOL    HW1 3491   0.914   0.444   8.744
  865SOL    HW2 3492   0.957   0.359   8.611
  866SOL     OW 3493   1.041   0.701   7.877
  866SOL    HW1 3494   1.067   0.697   7.973
  866SOL    HW2 3495   0.956   0.650   7.863
  867SOL     OW 3496   0.076   0.811   8.237
  867SOL    HW1 3497   0.175   0.799   8.246
  867SOL    HW2 3498   0.052   0.906   8.258
  868SOL     OW 3499   0.130   1.821   9.019
  868SOL    HW1 3500   0.120   1.806   9.118
  868SOL    HW2 3501   0.044   1.857   8.983
  869SOL     OW 3502   0.865   0.348   7.643
  869SOL    HW1 3503   0.924   0.411   7.594
  869SOL    HW2 3504   0.884   0.254   7.614
  870SOL     OW 3505   1.719   0.585   9.279
  870SOL    HW1 3506   1.693   0.674   9.243
  870SOL    HW2 3507   1.717   0.517   9.206
  871SOL     OW 3508   1.362   1.144   7.993
  871SOL    HW1 3509   1.445   1.115   7.945
  871SOL    HW2 3510   1.313   1.211   7.937
  872SOL     OW 3511   0.550   0.196   8.333
  872SOL    HW1 3512   0.545   0.191   8.433
  872SOL    HW2 3513   0.552   0.292   8.304
  873SOL     OW 3514   1.008   1.456   7.925
  873SOL    HW1 3515   0.962   1.528   7.873
  873SOL    HW2 3516   1.004   1.476   8.023
  874SOL     OW 3517   0.351   1.801   8.301
  874SOL    HW1 3518   0.401   1.715   8.307
  874SOL    HW2 3519   0.416   1.878   8.298
  875SOL     OW 3520   1.795   1.066   8.321
  875SOL    HW1 3521   1.733   1.051   8.245
  875SOL    HW2 3522   1.743   1.077   8.406
  876SOL     OW 3523   1.227   1.550   8.954
  876SOL    HW1 3524   1.233   1.473   9.018
  876SOL    HW2 3525   1.175   1.524   8.874
  877SOL     OW 3526   0.321   0.943   7.690
  877SOL    HW1 3527   0.403   0.982   7.648
  877SOL    HW2 3528   0.294   0.861   7.641
  878SOL     OW 3529   1.458   0.735   8.176
  878SOL    HW1 3530   1.453   0.670   8.251
  878SOL    HW2 3531   1.538   0.794   8.189
  879SOL     OW 3532   0.461   1.266   9.175
  879SOL    HW1 3533   0.411   1.267   9.089
  879SOL    HW2 3534   0.398   1.248   9.251
  880SOL     OW 3535   0.202   0.285   8.946
  880SOL    HW1 3536   0.122   0.345   8.933
  880SOL    HW2 3537   0.192   0.236   9.032
  881SOL     OW 3538   0.464   1.743   7.771
  881SOL    HW1 3539   0.497   1.782   7.857
  881SOL    HW2 3540   0.540   1.736   7.706
  882SOL     OW 3541   1.400   0.107   7.874
  882SOL    HW1 3542   1.376   0.070   7.784
  882SOL    HW2 3543   1.499   0.123   7.878
  883SOL     OW 3544   0.249   1.785   8.689
  883SOL    HW1 3545   0.306   1.720   8.739
  883SOL    HW2 3546   0.233   1.752   8.596
  884SOL     OW 3547   0.940   1.698   8.352
  884SOL    HW1 3548   1.020   1.641   8.373
  884SOL    HW2 3549   0.891   1.658   8.275
  885SOL     OW 3550   0.382   0.700   7.928
  885SOL    HW1 3551   0.427   0.610   7.925
  885SOL    HW2 3552   0.288   0.689   7.961
  886SOL     OW 3553   1.547   0.222   9.177
  886SOL    HW1 3554   1.542   0.259   9.269
  886SOL    HW2 3555   1.475   0.153   9.165
  887SOL     OW 3556   0.614   0.122   7.565
  887SOL    HW1 3557   0.712   0.100   7.572
  887SOL    HW2 3558   0.583   0.105   7.472
  888SOL     OW 3559   0.781   0.264   9.197
  888SOL    HW1 3560   0.848   0.203   9.240
  888SOL    HW2 3561   0.708   0.283   9.262
  889SOL     OW 3562   0.888   1.514   8.643
  889SOL    HW1 3563   0.865   1.489   8.549
  889SOL    HW2 3564   0.949   1.445   8.682
  890SOL     OW 3565   1.351   0.590   8.881
  890SOL    HW1 3566   1.379   0.547   8.966
  890SOL    HW2 3567   1.376   0.686   8.882
  891SOL     OW 3568   0.803   1.402   8.372
  891SOL    HW1 3569   0.893   1.416   8.330
  891SOL    HW2 3570   0.732   1.404   8.301
  892SOL     OW 3571   0.922   0.503   8.347
  892SOL    HW1 3572   0.897   0.494   8.251
  892SOL    HW2 3573   0.970   0.421   8.378
  893SOL     OW 3574   0.539   0.064   7.960
  893SOL    HW1 3575   0.458   0.065   8.018
  893SOL    HW2 3576   0.542   0.147   7.905
  894SOL     OW 3577   0.297   0.035   7.619
  894SOL    HW1 3578   0.346   0.119   7.598
  894SOL    HW2 3579   0.359  -0.030   7.664
  895SOL     OW 3580   0.935   0.236   7.928
  895SOL    HW1 3581   0.887   0.277   7.850
  895SOL    HW2 3582   1.034   0.234   7.909
  896SOL     OW 3583   1.076   0.683   8.912
  896SOL    HW1 3584   0.996   0.622   8.915
  896SOL    HW2 3585   1.157   0.630   8.888
  897SOL     OW 3586   1.227   1.570   8.241
  897SOL    HW1 3587   1.248   1.644   8.176
  897SOL    HW2 3588   1.295   1.570   8.314
  898SOL     OW 3589   0.459   1.152   8.189
  898SOL    HW1 3590   0.388   1.125   8.254
  898SOL    HW2 3591   0.433   1.124   8.096
  899SOL     OW 3592   1.271   1.797   8.039
  899SOL    HW1 3593   1.315   1.861   7.975
  899SOL    HW2 3594   1.221   1.849   8.109
  900SOL     OW 3595   1.032   0.549   7.464
  900SOL    HW1 3596   0.991   0.631   7.425
  900SOL    HW2 3597   1.096   0.575   7.537
  901SOL     OW 3598   0.078   0.556   8.834
  901SOL    HW1 3599   0.170   0.555   8.793
  901SOL    HW2 3600   0.072   0.630   8.901
  902SOL     OW 3601   0.561   0.222   8.595
  902SOL    HW1 3602   0.599   0.138   8.632
  902SOL    HW2 3603   0.473   0.241   8.639
  903SOL     OW 3604   0.866   0.454   8.090
  903SOL    HW1 3605   0.834   0.526   8.028
  903SOL    HW2 3606   0.890   0.373   8.037
  904SOL     OW 3607   1.017   0.039   8.201
  904SOL    HW1 3608   0.945   0.044   8.132
  904SOL    HW2 3609   0.993  -0.030   8.270
  905SOL     OW 3610   1.429   1.173   8.315
  905SOL    HW1 3611   1.374   1.089   8.308
  905SOL    HW2 3612   1.455   1.202   8.223
  906SOL     OW 3613   1.466   0.590   8.440
  906SOL    HW1 3614   1.436   0.495   8.447
  906SOL    HW2 3615   1.539   0.606   8.506
  907SOL     OW 3616   1.857   0.833   7.825
  907SOL    HW1 3617   1.899   0.769   7.889
  907SOL    HW2 3618   1.819   0.782   7.747
  908SOL     OW 3619   0.488   1.385   7.622
  908SOL    HW1 3620   0.401   1.370   7.669
  908SOL    HW2 3621   0.471   1.411   7.527
  909SOL     OW 3622   1.664   1.280   8.105
  909SOL    HW1 3623   1.763   1.288   8.119
  909SOL    HW2 3624   1.619   1.364   8.136
  910SOL     OW 3625   1.390   0.575   7.526
  910SOL    HW1 3626   1.336   0.554   7.607
  910SOL    HW2 3627   1.481   0.534   7.535
  911SOL     OW 3628   0.527   0.256   7.776
  911SOL    HW1 3629   0.554   0.197   7.701
  911SOL    HW2 3630   0.527   0.351   7.745
  912SOL     OW 3631   1.754   1.223   9.036
  912SOL    HW1 3632   1.845   1.184   9.023
  912SOL    HW2 3633   1.762   1.319   9.060
  913SOL     OW 3634   1.064   1.347   8.788
  913SOL    HW1 3635   0.984   1.324   8.843
  913SOL    HW2 3636   1.147   1.321   8.837
  914SOL     OW 3637   1.592   1.629   9.073
  914SOL    HW1 3638   1.619   1.663   8.983
  914SOL    HW2 3639   1.671   1.591   9.119
  915SOL     OW 3640   1.111   1.195   8.548
  915SOL    HW1 3641   1.071   1.239   8.629
  915SOL    HW2 3642   1.070   1.232   8.465
  916SOL     OW 3643   1.638   1.099   8.527
  916SOL    HW1 3644   1.643   1.180   8.586
  916SOL    HW2 3645   1.552   1.101   8.476
  917SOL     OW 3646   0.915   0.089   8.850
  917SOL    HW1 3647   0.940   0.069   8.755
  917SOL    HW2 3648   0.987   0.145   8.892
  918SOL     OW 3649   0.980   1.116   9.167
  918SOL    HW1 3650   0.881   1.122   9.177
  918SOL    HW2 3651   1.003   1.036   9.111
  919SOL     OW 3652   0.705   1.050   7.816
  919SOL    HW1 3653   0.691   1.057   7.915
  919SOL    HW2 3654   0.789   0.999   7.798
  920SOL     OW 3655   0.410   0.813   8.699
  920SOL    HW1 3656   0.496   0.825   8.749
  920SOL    HW2 3657   0.368   0.726   8.726
  921SOL     OW 3658   1.274   0.386   8.710
  921SOL    HW1 3659   1.295   0.460   8.774
  921SOL    HW2 3660   1.185   0.403   8.667
  922SOL     OW 3661   0.064   1.564   8.779
  922SOL    HW1 3662   0.018   1.646   8.745
  922SOL    HW2 3663   0.162   1.583   8.788
  923SOL     OW 3664   0.367   1.100   7.949
  923SOL    HW1 3665   0.360   1.183   7.893
  923SOL    HW2 3666   0.371   1.020   7.889
  924SOL     OW 3667   0.566   0.537   8.313
  924SOL    HW1 3668   0.578   0.603   8.239
  924SOL    HW2 3669   0.612   0.571   8.396
  925SOL     OW 3670   1.252   1.348   7.836
  925SOL    HW1 3671   1.302   1.425   7.876
  925SOL    HW2 3672   1.157   1.350   7.868
  926SOL     OW 3673   1.272   1.445   8.590
  926SOL    HW1 3674   1.319   1.458   8.677
  926SOL    HW2 3675   1.206   1.371   8.599
  927SOL     OW 3676   1.582   0.639   7.920
  927SOL    HW1 3677   1.551   0.700   7.993
  927SOL    HW2 3678   1.632   0.691   7.851
  928SOL     OW 3679   0.354   1.510   8.777
  928SOL    HW1 3680   0.333   1.466   8.690
  928SOL    HW2 3681   0.451   1.536   8.780
  929SOL     OW 3682   0.402   0.751   9.046
  929SOL    HW1 3683   0.470   0.806   8.999
  929SOL    HW2 3684   0.442   0.663   9.073
  930SOL     OW 3685   1.587   0.779   9.118
  930SOL    HW1 3686   1.495   0.817   9.113
  930SOL    HW2 3687   1.647   0.826   9.053
  931SOL     OW 3688   1.013   0.105   9.218
  931SOL    HW1 3689   1.019   0.190   9.166
  931SOL    HW2 3690   1.045   0.029   9.161
  932SOL     OW 3691   0.504   0.050   9.188
  932SOL    HW1 3692   0.462  -0.007   9.118
  932SOL    HW2 3693   0.438   0.119   9.220
  933SOL     OW 3694   0.573   0.870   8.477
  933SOL    HW1 3695   0.617   0.959   8.468
  933SOL    HW2 3696   0.510   0.870   8.554
  934SOL     OW 3697   1.360   0.862   8.493
  934SOL    HW1 3698   1.285   0.862   8.427
  934SOL    HW2 3699   1.397   0.770   8.502
  935SOL     OW 3700   1.209   0.525   7.723
  935SOL    HW1 3701   1.222   0.441   7.777
  935SOL    HW2 3702   1.180   0.599   7.783
  936SOL     OW 3703   0.307   0.213   8.679
  936SOL    HW1 3704   0.284   0.250   8.769
  936SOL    HW2 3705   0.277   0.118   8.673
  937SOL     OW 3706   0.037   1.310   8.730
  937SOL    HW1 3707   0.090   1.261   8.798
  937SOL    HW2 3708   0.059   1.408   8.735
  938SOL     OW 3709   0.732   0.634   8.512
  938SOL    HW1 3710   0.791   0.608   8.436
  938SOL    HW2 3711   0.704   0.730   8.501
  939SOL     OW 3712   1.728   0.935   9.302
  939SOL    HW1 3713   1.682   0.928   9.213
  939SOL    HW2 3714   1.666   0.979   9.368
  940SOL     OW 3715   0.307   0.063   8.066
  940SOL    HW1 3716   0.296   0.157   8.099
  940SOL    HW2 3717   0.302   0.000   8.143
  941SOL     OW 3718   1.622   0.367   7.822
  941SOL    HW1 3719   1.624   0.291   7.886
  941SOL    HW2 3720   1.574   0.444   7.862
  942SOL     OW 3721   1.023   0.766   8.414
  942SOL    HW1 3722   1.038   0.787   8.510
  942SOL    HW2 3723   0.993   0.671   8.405
  943SOL     OW 3724   0.980   1.573   9.148
  943SOL    HW1 3725   0.960   1.617   9.060
  943SOL    HW2 3726   1.019   1.482   9.132
  944SOL     OW 3727   1.859   1.518   9.053
  944SOL    HW1 3728   1.873   1.545   8.958
  944SOL    HW2 3729   1.942   1.540   9.106
  945SOL     OW 3730   0.350   0.898   9.252
  945SOL    HW1 3731   0.426   0.942   9.300
  945SOL    HW2 3732   0.385   0.851   9.170
  946SOL     OW 3733   1.540   0.274   7.573
  946SOL    HW1 3734   1.479   0.199   7.596
  946SOL    HW2 3735   1.562   0.326   7.656
  947SOL     OW 3736   1.303   0.838   7.490
  947SOL    HW1 3737   1.337   0.745   7.505
  947SOL    HW2 3738   1.321   0.865   7.395
  948SOL     OW 3739   1.068   1.333   8.297
  948SOL    HW1 3740   1.075   1.249   8.242
  948SOL    HW2 3741   1.130   1.402   8.261
  949SOL     OW 3742   0.319   0.810   8.397
  949SOL    HW1 3743   0.412   0.846   8.402
  949SOL    HW2 3744   0.313   0.725   8.449
  950SOL     OW 3745   0.339   0.509   8.454
  950SOL    HW1 3746   0.287   0.426   8.437
  950SOL    HW2 3747   0.416   0.514   8.390
  951SOL     OW 3748   1.138   0.380   9.126
  951SOL    HW1 3749   1.093   0.443   9.190
  951SOL    HW2 3750   1.231   0.411   9.109
  952SOL     OW 3751   1.160   0.207   8.925
  952SOL    HW1 3752   1.160   0.271   9.002
  952SOL    HW2 3753   1.188   0.255   8.842
  953SOL     OW 3754   0.008   1.326   7.648
  953SOL    HW1 3755  -0.085   1.347   7.617
  953SOL    HW2 3756   0.018   1.227   7.661
  954SOL     OW 3757   0.088   1.801   8.375
  954SOL    HW1 3758   0.046   1.715   8.348
  954SOL    HW2 3759   0.182   1.804   8.341
  955SOL     OW 3760   0.504   1.568   8.358
  955SOL    HW1 3761   0.570   1.642   8.367
  955SOL    HW2 3762   0.548   1.489   8.316
  956SOL     OW 3763   1.002   0.796   8.686
  956SOL    HW1 3764   1.043   0.764   8.772
  956SOL    HW2 3765   0.906   0.769   8.683
  957SOL     OW 3766   0.040   0.544   8.562
  957SOL    HW1 3767   0.125   0.511   8.521
  957SOL    HW2 3768   0.053   0.559   8.660
  958SOL     OW 3769   0.189   0.520   9.170
  958SOL    HW1 3770   0.248   0.480   9.100
  958SOL    HW2 3771   0.131   0.591   9.129
  959SOL     OW 3772   1.369   0.950   9.108
  959SOL    HW1 3773   1.408   1.039   9.128
  959SOL    HW2 3774   1.379   0.930   9.011
  960SOL     OW 3775   0.815   0.572   7.773
  960SOL    HW1 3776   0.822   0.483   7.727
  960SOL    HW2 3777   0.721   0.606   7.765
  961SOL     OW 3778   1.657   0.604   8.654
  961SOL    HW1 3779   1.619   0.535   8.716
  961SOL    HW2 3780   1.739   0.568   8.610
  962SOL     OW 3781   0.252   1.564   9.192
  962SOL    HW1 3782   0.222   1.621   9.268
  962SOL    HW2 3783   0.245   1.467   9.218
  963SOL     OW 3784   0.671   0.464   8.717
  963SOL    HW1 3785   0.637   0.375   8.687
  963SOL    HW2 3786   0.697   0.518   8.637
  964SOL     OW 3787   0.930   1.678   8.913
  964SOL    HW1 3788   0.906   1.660   8.818
  964SOL    HW2 3789   0.960   1.772   8.923
  965SOL     OW 3790   0.473   0.500   7.639
  965SOL    HW1 3791   0.534   0.580   7.643
  965SOL    HW2 3792   0.378   0.531   7.646
  966SOL     OW 3793   0.159   1.137   8.914
  966SOL    HW1 3794   0.181   1.076   8.990
  966SOL    HW2 3795   0.169   1.088   8.828
  967SOL     OW 3796   1.347   1.059   8.682
  967SOL    HW1 3797   1.371   0.996   8.608
  967SOL    HW2 3798   1.257   1.099   8.664
  968SOL     OW 3799   1.302   0.855   7.757
  968SOL    HW1 3800   1.216   0.824   7.799
  968SOL    HW2 3801   1.298   0.841   7.658
  969SOL     OW 3802   1.252   1.731   8.576
  969SOL    HW1 3803   1.336   1.736   8.522
  969SOL    HW2 3804   1.229   1.635   8.594
  970SOL     OW 3805   0.083   1.258   8.470
  970SOL    HW1 3806   0.078   1.257   8.570
  970SOL    HW2 3807   0.000   1.217   8.432
  971SOL     OW 3808   0.688   1.662   9.164
  971SOL    HW1 3809   0.632   1.743   9.173
  971SOL    HW2 3810   0.740   1.666   9.078
  972SOL     OW 3811   1.726   0.135   7.971
  972SOL    HW1 3812   1.799   0.118   7.904
  972SOL    HW2 3813   1.695   0.048   8.009
  973SOL     OW 3814   0.130   1.794   9.299
  973SOL    HW1 3815   0.089   1.720   9.352
  973SOL    HW2 3816   0.194   1.845   9.357
  974SOL     OW 3817   1.280   0.927   8.120
  974SOL    HW1 3818   1.340   0.846   8.122
  974SOL    HW2 3819   1.320   0.996   8.060
  975SOL     OW 3820   0.830   1.273   8.870
  975SOL    HW1 3821   0.825   1.306   8.965
  975SOL    HW2 3822   0.744   1.292   8.824
  976SOL     OW 3823   0.672   1.616   7.602
  976SOL    HW1 3824   0.681   1.626   7.503
  976SOL    HW2 3825   0.632   1.527   7.623
  977SOL     OW 3826   1.650   1.720   8.842
  977SOL    HW1 3827   1.703   1.730   8.758
  977SOL    HW2 3828   1.623   1.810   8.876
  978SOL     OW 3829   1.841   0.175   8.411
  978SOL    HW1 3830   1.880   0.090   8.375
  978SOL    HW2 3831   1.743   0.177   8.392
  979SOL     OW 3832   0.263   0.326   8.168
  979SOL    HW1 3833   0.184   0.377   8.134
  979SOL    HW2 3834   0.254   0.311   8.266
  980SOL     OW 3835   0.822   1.002   8.820
  980SOL    HW1 3836   0.862   1.001   8.728
  980SOL    HW2 3837   0.832   1.094   8.860
  981SOL     OW 3838   0.916   0.910   7.739
  981SOL    HW1 3839   0.979   0.948   7.671
  981SOL    HW2 3840   0.956   0.827   7.778
  982SOL     OW 3841   0.372   1.288   8.938
  982SOL    HW1 3842   0.359   1.381   8.904
  982SOL    HW2 3843   0.288   1.236   8.925
  983SOL     OW 3844   1.614   1.292   8.737
  983SOL    HW1 3845   1.674   1.295   8.817
  983SOL    HW2 3846   1.539   1.356   8.750
  984SOL     OW 3847   1.039   1.098   8.144
  984SOL    HW1 3848   0.969   1.051   8.198
  984SOL    HW2 3849   1.098   1.030   8.101
  985SOL     OW 3850   1.014   0.236   8.419
  985SOL    HW1 3851   1.006   0.200   8.326
  985SOL    HW2 3852   1.012   0.160   8.484
  986SOL     OW 3853   0.590   1.487   7.939
  986SOL    HW1 3854   0.632   1.429   7.869
  986SOL    HW2 3855   0.546   1.566   7.895
  987SOL     OW 3856   1.709   0.385   8.829
  987SOL    HW1 3857   1.782   0.454   8.833
  987SOL    HW2 3858   1.737   0.310   8.770
  988SOL     OW 3859   0.255   1.348   7.738
  988SOL    HW1 3860   0.159   1.349   7.711
  988SOL    HW2 3861   0.267   1.401   7.822
  989SOL     OW 3862   0.105   1.013   9.174
  989SOL    HW1 3863   0.028   0.980   9.228
  989SOL    HW2 3864   0.190   0.983   9.216
  990SOL     OW 3865   0.672   0.203   8.937
  990SOL    HW1 3866   0.762   0.187   8.897
  990SOL    HW2 3867   0.680   0.208   9.036
  991SOL     OW 3868   0.075   0.345   7.481
  991SOL    HW1 3869  -0.017   0.317   7.452
  991SOL    HW2 3870   0.106   0.422   7.425
  992SOL     OW 3871   1.440   0.856   8.846
  992SOL    HW1 3872   1.383   0.908   8.783
  992SOL    HW2 3873   1.536   0.868   8.822
  993SOL     OW 3874   0.072   0.166   7.766
  993SOL    HW1 3875   0.055   0.249   7.712
  993SOL    HW2 3876   0.162   0.129   7.744
  994SOL     OW 3877   0.613   0.842   8.879
  994SOL    HW1 3878   0.669   0.923   8.862
  994SOL    HW2 3879   0.672   0.762   8.882
  995SOL     OW 3880   1.493   1.767   8.407
  995SOL    HW1 3881   1.526   1.831   8.338
  995SOL    HW2 3882   1.559   1.761   8.482
  996SOL     OW 3883   0.716   0.565   9.156
  996SOL    HW1 3884   0.735   0.630   9.230
  996SOL    HW2 3885   0.776   0.485   9.165
  997SOL     OW 3886   1.450   1.220   9.081
  997SOL    HW1 3887   1.441   1.210   9.180
  997SOL    HW2 3888   1.546   1.213   9.055
  998SOL     OW 3889   0.390   1.741   9.008
  998SOL    HW1 3890   0.299   1.782   9.006
  998SOL    HW2 3891   0.383   1.647   9.040
  999SOL     OW 3892   1.674   0.883   8.702
  999SOL    HW1 3893   1.647   0.794   8.665
  999SOL    HW2 3894   1.675   0.951   8.629
 1000SOL     OW 3895   1.225   0.325   7.897
 1000SOL    HW1 3896   1.290   0.251   7.886
 1000SOL    HW2 3897   1.245   0.375   7.981
 1001SOL     OW 3898   0.594   0.745   8.100
 1001SOL    HW1 3899   0.644   0.830   8.081
 1001SOL    HW2 3900   0.506   0.747   8.052
 1002SOL     OW 3901   1.777   0.342   9.090
 1002SOL    HW1 3902   1.760   0.373   8.996
 1002SOL    HW2 3903   1.693   0.305   9.128
 1003SOL     OW 3904   1.730   0.934   8.965
 1003SOL    HW1 3905   1.768   1.025   8.980
 1003SOL    HW2 3906   1.722   0.917   8.866
 1004SOL     OW 3907   0.859   1.374   7.464
 1004SOL    HW1 3908   0.813   1.389   7.552
 1004SOL    HW2 3909   0.903   1.459   7.434
 1005SOL     OW 3910   0.661   1.790   8.401
 1005SOL    HW1 3911   0.615   1.878   8.388
 1005SOL    HW2 3912   0.760   1.802   8.394
 1006SOL     OW 3913   0.859   0.956   8.309
 1006SOL    HW1 3914   0.913   0.887   8.357
 1006SOL    HW2 3915   0.827   1.025   8.375
 1007SOL     OW 3916   1.083   0.984   7.535
 1007SOL    HW1 3917   1.060   1.037   7.453
 1007SOL    HW2 3918   1.164   0.928   7.516
 1008SOL     OW 3919   1.861   1.569   8.299
 1008SOL    HW1 3920   1.790   1.557   8.229
 1008SOL    HW2 3921   1.862   1.490   8.359
 1009SOL     OW 3922   0.221   1.314   9.292
 1009SOL    HW1 3923   0.156   1.241   9.271
 1009SOL    HW2 3924   0.225   1.328   9.390
 1010SOL     OW 3925   0.079   1.240   8.101
 1010SOL    HW1 3926   0.078   1.193   8.189
 1010SOL    HW2 3927   0.161   1.212   8.050
 1011SOL     OW 3928   0.672   1.391   9.072
 1011SOL    HW1 3929   0.594   1.341   9.110
 1011SOL    HW2 3930   0.669   1.486   9.103
 1012SOL     OW 3931   1.824   0.192   8.675
 1012SOL    HW1 3932   1.820   0.102   8.719
 1012SOL    HW2 3933   1.827   0.181   8.576
 1013SOL     OW 3934   0.428   0.424   7.968
 1013SOL    HW1 3935   0.458   0.352   7.906
 1013SOL    HW2 3936   0.389   0.384   8.051
 1014SOL     OW 3937   1.705   1.487   8.552
 1014SOL    HW1 3938   1.612   1.462   8.525
 1014SOL    HW2 3939   1.731   1.437   8.634
 1015SOL     OW 3940   0.317   0.547   8.728
 1015SOL    HW1 3941   0.355   0.488   8.800
 1015SOL    HW2 3942   0.357   0.521   8.640
 1016SOL     OW 3943   0.812   1.586   8.135
 1016SOL    HW1 3944   0.844   1.596   8.041
 1016SOL    HW2 3945   0.733   1.524   8.137
 1017SOL     OW 3946   1.424   0.214   8.560
 1017SOL    HW1 3947   1.476   0.149   8.615
 1017SOL    HW2 3948   1.375   0.277   8.621
 1018SOL     OW 3949   1.001   0.034   8.602
 1018SOL    HW1 3950   0.938  -0.038   8.571
 1018SOL    HW2 3951   1.094  -0.002   8.602
 1019SOL     OW 3952   0.770   1.330   7.749
 1019SOL    HW1 3953   0.724   1.243   7.766
 1019SOL    HW2 3954   0.861   1.327   7.790
 1020SOL     OW 3955   0.618   1.567   8.732
 1020SOL    HW1 3956   0.613   1.649   8.789
 1020SOL    HW2 3957   0.707   1.564   8.687
 1021SOL     OW 3958   1.352   0.052   7.616
 1021SOL    HW1 3959   1.387   0.011   7.532
 1021SOL    HW2 3960   1.262   0.014   7.636
 1022SOL     OW 3961   1.300   0.453   8.139
 1022SOL    HW1 3962   1.241   0.533   8.143
 1022SOL    HW2 3963   1.315   0.418   8.232
 1023SOL     OW 3964   1.593   0.221   8.330
 1023SOL    HW1 3965   1.509   0.220   8.384
 1023SOL    HW2 3966   1.595   0.304   8.274
 1024SOL     OW 3967   0.039   1.077   7.748
 1024SOL    HW1 3968   0.138   1.066   7.739
 1024SOL    HW2 3969  -0.001   0.991   7.780
 1025SOL     OW 3970   0.875   1.646   7.785
 1025SOL    HW1 3971   0.798   1.611   7.731
 1025SOL    HW2 3972   0.843   1.717   7.847
 1026SOL     OW 3973   0.230   0.628   9.423
 1026SOL    HW1 3974   0.137   0.626   9.460
 1026SOL    HW2 3975   0.231   0.589   9.331
 1027SOL     OW 3976   0.225   0.275  10.306
 1027SOL    HW1 3977   0.260   0.258  10.398
 1027SOL    HW2 3978   0.137   0.230  10.294
 1028SOL     OW 3979   0.019   0.368   9.957
 1028SOL    HW1 3980  -0.063   0.411   9.996
 1028SOL    HW2 3981  -0.009   0.295   9.894
 1029SOL     OW 3982   0.569   1.275  10.475
 1029SOL    HW1 3983   0.476   1.268  10.438
 1029SOL    HW2 3984   0.580   1.364  10.519
 1030SOL     OW 3985   1.555   1.511  10.013
 1030SOL    HW1 3986   1.498   1.495  10.094
 1030SOL    HW2 3987   1.496   1.521   9.933
 1031SOL     OW 3988   1.135   0.703  10.027
 1031SOL    HW1 3989   1.192   0.781  10.002
 1031SOL    HW2 3990   1.075   0.729  10.103
 1032SOL     OW 3991   1.755   0.607   9.541
 1032SOL    HW1 3992   1.743   0.594   9.442
 1032SOL    HW2 3993   1.725   0.526   9.590
 1033SOL     OW 3994   0.768   1.144  10.333
 1033SOL    HW1 3995   0.690   1.161  10.393
 1033SOL    HW2 3996   0.802   1.231  10.297
 1034SOL     OW 3997   0.850   0.798  11.133
 1034SOL    HW1 3998   0.846   0.874  11.198
 1034SOL    HW2 3999   0.872   0.834  11.042
 1035SOL     OW 4000   0.685   1.012   9.975
 1035SOL    HW1 4001   0.754   0.996  10.045
 1035SOL    HW2 4002   0.612   1.069  10.013
 1036SOL     OW 4003   0.686   1.161  11.113
 1036SOL    HW1 4004   0.746   1.240  11.127
 1036SOL    HW2 4005   0.600   1.192  11.072
 1037SOL     OW 4006   0.335   1.435  10.371
 1037SOL    HW1 4007   0.257   1.404  10.318
 1037SOL    HW2 4008   0.393   1.493  10.314
 1038SOL     OW 4009   1.460   1.505  10.649
 1038SOL    HW1 4010   1.484   1.599  10.675
 1038SOL    HW2 4011   1.444   1.451  10.731
 1039SOL     OW 4012   0.438   0.392  10.809
 1039SOL    HW1 4013   0.520   0.336  10.818
 1039SOL    HW2 4014   0.357   0.334  10.813
 1040SOL     OW 4015   1.603   0.447  10.047
 1040SOL    HW1 4016   1.529   0.493   9.997
 1040SOL    HW2 4017   1.654   0.515  10.100
 1041SOL     OW 4018   0.231   1.713   9.793
 1041SOL    HW1 4019   0.265   1.790   9.847
 1041SOL    HW2 4020   0.275   1.713   9.703
 1042SOL     OW 4021   1.127   1.341  11.000
 1042SOL    HW1 4022   1.174   1.341  11.088
 1042SOL    HW2 4023   1.079   1.254  10.989
 1043SOL     OW 4024   0.230   1.434   9.848
 1043SOL    HW1 4025   0.204   1.530   9.848
 1043SOL    HW2 4026   0.159   1.380   9.893
 1044SOL     OW 4027   0.240   1.091  10.196
 1044SOL    HW1 4028   0.254   1.007  10.248
 1044SOL    HW2 4029   0.185   1.155  10.251
 1045SOL     OW 4030   0.620   1.786  10.749
 1045SOL    HW1 4031   0.528   1.769  10.784
 1045SOL    HW2 4032   0.648   1.878  10.775
 1046SOL     OW 4033   0.606   0.964   9.433
 1046SOL    HW1 4034   0.613   1.048   9.379
 1046SOL    HW2 4035   0.652   0.977   9.521
 1047SOL     OW 4036   1.594   0.114  10.790
 1047SOL    HW1 4037   1.576   0.181  10.718
 1047SOL    HW2 4038   1.591   0.160  10.879
 1048SOL     OW 4039   0.122   0.643   9.873
 1048SOL    HW1 4040   0.077   0.555   9.890
 1048SOL    HW2 4041   0.121   0.697   9.957
 1049SOL     OW 4042   0.027   1.596   9.427
 1049SOL    HW1 4043   0.008   1.500   9.448
 1049SOL    HW2 4044  -0.006   1.654   9.502
 1050SOL     OW 4045   1.689   0.922   9.922
 1050SOL    HW1 4046   1.784   0.893   9.930
 1050SOL    HW2 4047   1.681   0.987   9.847
 1051SOL     OW 4048   1.641   1.108   9.742
 1051SOL    HW1 4049   1.727   1.110   9.690
 1051SOL    HW2 4050   1.655   1.155   9.830
 1052SOL     OW 4051   0.113   0.737  10.907
 1052SOL    HW1 4052   0.201   0.724  10.952
 1052SOL    HW2 4053   0.100   0.834  10.885
 1053SOL     OW 4054   0.613   1.365  10.036
 1053SOL    HW1 4055   0.564   1.278  10.045
 1053SOL    HW2 4056   0.590   1.408   9.949
 1054SOL     OW 4057   1.293   1.228  10.733
 1054SOL    HW1 4058   1.330   1.155  10.675
 1054SOL    HW2 4059   1.345   1.233  10.818
 1055SOL     OW 4060   0.809   0.004   9.812
 1055SOL    HW1 4061   0.849   0.095   9.803
 1055SOL    HW2 4062   0.709   0.012   9.818
 1056SOL     OW 4063   0.197   0.976  10.574
 1056SOL    HW1 4064   0.286   0.931  10.560
 1056SOL    HW2 4065   0.124   0.911  10.555
 1057SOL     OW 4066   1.525   0.999   9.500
 1057SOL    HW1 4067   1.462   0.923   9.513
 1057SOL    HW2 4068   1.573   1.017   9.586
 1058SOL     OW 4069   1.187   1.792  10.926
 1058SOL    HW1 4070   1.211   1.852  10.850
 1058SOL    HW2 4071   1.194   1.697  10.896
 1059SOL     OW 4072   0.317   0.251  11.111
 1059SOL    HW1 4073   0.388   0.322  11.117
 1059SOL    HW2 4074   0.229   0.290  11.139
 1060SOL     OW 4075   1.466   1.417  10.263
 1060SOL    HW1 4076   1.407   1.423  10.343
 1060SOL    HW2 4077   1.451   1.329  10.217
 1061SOL     OW 4078   1.667   1.714   9.882
 1061SOL    HW1 4079   1.626   1.691   9.794
 1061SOL    HW2 4080   1.649   1.640   9.947
 1062SOL     OW 4081   0.598   0.729   9.580
 1062SOL    HW1 4082   0.622   0.798   9.512
 1062SOL    HW2 4083   0.520   0.762   9.634
 1063SOL     OW 4084   1.281   0.345  10.254
 1063SOL    HW1 4085   1.195   0.295  10.241
 1063SOL    HW2 4086   1.343   0.291  10.310
 1064SOL     OW 4087   1.576   1.662   9.617
 1064SOL    HW1 4088   1.665   1.708   9.620
 1064SOL    HW2 4089   1.555   1.638   9.522
 1065SOL     OW 4090   0.807   0.605  10.775
 1065SOL    HW1 4091   0.760   0.602  10.864
 1065SOL    HW2 4092   0.756   0.550  10.709
 1066SOL     OW 4093   1.394   0.469  10.984
 1066SOL    HW1 4094   1.374   0.512  11.072
 1066SOL    HW2 4095   1.472   0.407  10.993
 1067SOL     OW 4096   0.973   0.890  10.882
 1067SOL    HW1 4097   1.019   0.806  10.853
 1067SOL    HW2 4098   0.917   0.924  10.807
 1068SOL     OW 4099   0.991   0.410  10.552
 1068SOL    HW1 4100   0.914   0.444  10.606
 1068SOL    HW2 4101   0.957   0.359  10.473
 1069SOL     OW 4102   1.041   0.701   9.739
 1069SOL    HW1 4103   1.067   0.697   9.835
 1069SOL    HW2 4104   0.956   0.650   9.725
 1070SOL     OW 4105   0.076   0.811  10.099
 1070SOL    HW1 4106   0.175   0.799  10.108
 1070SOL    HW2 4107   0.052   0.906  10.120
 1071SOL     OW 4108   0.130   1.821  10.881
 1071SOL    HW1 4109   0.120   1.806  10.980
 1071SOL    HW2 4110   0.044   1.857  10.845
 1072SOL     OW 4111   0.865   0.348   9.505
 1072SOL    HW1 4112   0.924   0.411   9.456
 1072SOL    HW2 4113   0.884   0.254   9.476
 1073SOL     OW 4114   1.719   0.585  11.141
 1073SOL    HW1 4115   1.693   0.674  11.105
 1073SOL    HW2 4116   1.717   0.517  11.068
 1074SOL     OW 4117   1.362   1.144   9.855
 1074SOL    HW1 4118   1.445   1.115   9.807
 1074SOL    HW2 4119   1.313   1.211   9.799
 1075SOL     OW 4120   0.550   0.196  10.195
 1075SOL    HW1 4121   0.545   0.191  10.295
 1075SOL    HW2 4122   0.552   0.292  10.166
 1076SOL     OW 4123   1.008   1.456   9.787
 1076SOL    HW1 4124   0.962   1.528   9.735
 1076SOL    HW2 4125   1.004   1.476   9.885
 1077SOL     OW 4126   0.351   1.801  10.163
 1077SOL    HW1 4127   0.401   1.715  10.169
 1077SOL    HW2 4128   0.416   1.878  10.160
 1078SOL     OW 4129   1.795   1.066  10.183
 1078SOL    HW1 4130   1.733   1.051  10.107
 1078SOL    HW2 4131   1.743   1.077  10.268
 1079SOL     OW 4132   1.227   1.550  10.816
 1079SOL    HW1 4133   1.233   1.473  10.880
 1079SOL    HW2 4134   1.175   1.524  10.736
 1080SOL     OW 4135   0.321   0.943   9.552
 1080SOL    HW1 4136   0.403   0.982   9.510
 1080SOL    HW2 4137   0.294   0.861   9.503
 1081SOL     OW 4138   1.458   0.735  10.038
 1081SOL    HW1 4139   1.453   0.670  10.113
 1081SOL    HW2 4140   1.538   0.794  10.051
 1082SOL     OW 4141   0.461   1.266  11.037
 1082SOL    HW1 4142   0.411   1.267  10.951
 1082SOL    HW2 4143   0.398   1.248  11.113
 1083SOL     OW 4144   1.111   1.776   9.547
 1083SOL    HW1 4145   1.051   1.714   9.597
 1083SOL    HW2 4146   1.142   1.732   9.462
 1084SOL     OW 4147   0.202   0.285  10.808
 1084SOL    HW1 4148   0.122   0.345  10.795
 1084SOL    HW2 4149   0.192   0.236  10.894
 1085SOL     OW 4150   1.632   1.377   9.391
 1085SOL    HW1 4151   1.600   1.471   9.381
 1085SOL    HW2 4152   1.556   1.314   9.379
 1086SOL     OW 4153   0.464   1.743   9.633
 1086SOL    HW1 4154   0.497   1.782   9.719
 1086SOL    HW2 4155   0.540   1.736   9.568
 1087SOL     OW 4156   1.400   0.107   9.736
 1087SOL    HW1 4157   1.376   0.070   9.646
 1087SOL    HW2 4158   1.499   0.123   9.740
 1088SOL     OW 4159   0.249   1.785  10.551
 1088SOL    HW1 4160   0.306   1.720  10.601
 1088SOL    HW2 4161   0.233   1.752  10.458
 1089SOL     OW 4162   0.940   1.698  10.214
 1089SOL    HW1 4163   1.020   1.641  10.235
 1089SOL    HW2 4164   0.891   1.658  10.137
 1090SOL     OW 4165   0.382   0.700   9.790
 1090SOL    HW1 4166   0.427   0.610   9.787
 1090SOL    HW2 4167   0.288   0.689   9.823
 1091SOL     OW 4168   1.547   0.222  11.039
 1091SOL    HW1 4169   1.542   0.259  11.131
 1091SOL    HW2 4170   1.475   0.153  11.027
 1092SOL     OW 4171   0.614   0.122   9.427
 1092SOL    HW1 4172   0.712   0.100   9.434
 1092SOL    HW2 4173   0.583   0.105   9.334
 1093SOL     OW 4174   0.781   0.264  11.059
 1093SOL    HW1 4175   0.848   0.203  11.102
 1093SOL    HW2 4176   0.708   0.283  11.124
 1094SOL     OW 4177   0.888   1.514  10.505
 1094SOL    HW1 4178   0.865   1.489  10.411
 1094SOL    HW2 4179   0.949   1.445  10.544
 1095SOL     OW 4180   1.351   0.590  10.743
 1095SOL    HW1 4181   1.379   0.547  10.828
 1095SOL    HW2 4182   1.376   0.686  10.744
 1096SOL     OW 4183   0.803   1.402  10.234
 1096SOL    HW1 4184   0.893   1.416  10.192
 1096SOL    HW2 4185   0.732   1.404  10.163
 1097SOL     OW 4186   0.922   0.503  10.209
 1097SOL    HW1 4187   0.897   0.494  10.113
 1097SOL    HW2 4188   0.970   0.421  10.240
 1098SOL     OW 4189   0.539   0.064   9.822
 1098SOL    HW1 4190   0.458   0.065   9.880
 1098SOL    HW2 4191   0.542   0.147   9.767
 1099SOL     OW 4192   1.434   1.188   9.351
 1099SOL    HW1 4193   1.466   1.112   9.408
 1099SOL    HW2 4194   1.342   1.215   9.381
 1100SOL     OW 4195   0.297   0.035   9.481
 1100SOL    HW1 4196   0.346   0.119   9.460
 1100SOL    HW2 4197   0.359  -0.030   9.526
 1101SOL     OW 4198   0.935   0.236   9.790
 1101SOL    HW1 4199   0.887   0.277   9.712
 1101SOL    HW2 4200   1.034   0.234   9.771
 1102SOL     OW 4201   1.076   0.683  10.774
 1102SOL    HW1 4202   0.996   0.622  10.777
 1102SOL    HW2 4203   1.157   0.630  10.750
 1103SOL     OW 4204   1.227   1.570  10.103
 1103SOL    HW1 4205   1.248   1.644  10.038
 1103SOL    HW2 4206   1.295   1.570  10.176
 1104SOL     OW 4207   0.459   1.152  10.051
 1104SOL    HW1 4208   0.388   1.125  10.116
 1104SOL    HW2 4209   0.433   1.124   9.958
 1105SOL     OW 4210   1.271   1.797   9.901
 1105SOL    HW1 4211   1.315   1.861   9.837
 1105SOL    HW2 4212   1.221   1.849   9.971
 1106SOL     OW 4213   1.032   0.549   9.326
 1106SOL    HW1 4214   0.991   0.631   9.287
 1106SOL    HW2 4215   1.096   0.575   9.399
 1107SOL     OW 4216   0.078   0.556  10.696
 1107SOL    HW1 4217   0.170   0.555  10.655
 1107SOL    HW2 4218   0.072   0.630  10.763
 1108SOL     OW 4219   0.561   0.222  10.457
 1108SOL    HW1 4220   0.599   0.138  10.494
 1108SOL    HW2 4221   0.473   0.241  10.501
 1109SOL     OW 4222   0.866   0.454   9.952
 1109SOL    HW1 4223   0.834   0.526   9.890
 1109SOL    HW2 4224   0.890   0.373   9.899
 1110SOL     OW 4225   1.017   0.039  10.063
 1110SOL    HW1 4226   0.945   0.044   9.994
 1110SOL    HW2 4227   0.993  -0.030  10.132
 1111SOL     OW 4228   1.429   1.173  10.177
 1111SOL    HW1 4229   1.374   1.089  10.170
 1111SOL    HW2 4230   1.455   1.202  10.085
 1112SOL     OW 4231   1.466   0.590  10.302
 1112SOL    HW1 4232   1.436   0.495  10.309
 1112SOL    HW2 4233   1.539   0.606  10.368
 1113SOL     OW 4234   1.857   0.833   9.687
 1113SOL    HW1 4235   1.899   0.769   9.751
 1113SOL    HW2 4236   1.819   0.782   9.609
 1114SOL     OW 4237   0.488   1.385   9.484
 1114SOL    HW1 4238   0.401   1.370   9.531
 1114SOL    HW2 4239   0.471   1.411   9.389
 1115SOL     OW 4240   1.664   1.280   9.967
 1115SOL    HW1 4241   1.763   1.288   9.981
 1115SOL    HW2 4242   1.619   1.364   9.998
 1116SOL     OW 4243   1.390   0.575   9.388
 1116SOL    HW1 4244   1.336   0.554   9.469
 1116SOL    HW2 4245   1.481   0.534   9.397
 1117SOL     OW 4246   0.527   0.256   9.638
 1117SOL    HW1 4247   0.554   0.197   9.563
 1117SOL    HW2 4248   0.527   0.351   9.607
 1118SOL     OW 4249   1.754   1.223  10.898
 1118SOL    HW1 4250   1.845   1.184  10.885
 1118SOL    HW2 4251   1.762   1.319  10.922
 1119SOL     OW 4252   1.064   1.347  10.650
 1119SOL    HW1 4253   0.984   1.324  10.705
 1119SOL    HW2 4254   1.147   1.321  10.699
 1120SOL     OW 4255   1.592   1.629  10.935
 1120SOL    HW1 4256   1.619   1.663  10.845
 1120SOL    HW2 4257   1.671   1.591  10.981
 1121SOL     OW 4258   1.111   1.195  10.410
 1121SOL    HW1 4259   1.071   1.239  10.491
 1121SOL    HW2 4260   1.070   1.232  10.327
 1122SOL     OW 4261   1.638   1.099  10.389
 1122SOL    HW1 4262   1.643   1.180  10.448
 1122SOL    HW2 4263   1.552   1.101  10.338
 1123SOL     OW 4264   0.915   0.089  10.712
 1123SOL    HW1 4265   0.940   0.069  10.617
 1123SOL    HW2 4266   0.987   0.145  10.754
 1124SOL     OW 4267   0.980   1.116  11.029
 1124SOL    HW1 4268   0.881   1.122  11.039
 1124SOL    HW2 4269   1.003   1.036  10.973
 1125SOL     OW 4270   0.705   1.050   9.678
 1125SOL    HW1 4271   0.691   1.057   9.777
 1125SOL    HW2 4272   0.789   0.999   9.660
 1126SOL     OW 4273   0.410   0.813  10.561
 1126SOL    HW1 4274   0.496   0.825  10.611
 1126SOL    HW2 4275   0.368   0.726  10.588
 1127SOL     OW 4276   1.274   0.386  10.572
 1127SOL    HW1 4277   1.295   0.460  10.636
 1127SOL    HW2 4278   1.185   0.403  10.529
 1128SOL     OW 4279   0.064   1.564  10.641
 1128SOL    HW1 4280   0.018   1.646  10.607
 1128SOL    HW2 4281   0.162   1.583  10.650
 1129SOL     OW 4282   0.367   1.100   9.811
 1129SOL    HW1 4283   0.360   1.183   9.755
 1129SOL    HW2 4284   0.371   1.020   9.751
 1130SOL     OW 4285   0.566   0.537  10.175
 1130SOL    HW1 4286   0.578   0.603  10.101
 1130SOL    HW2 4287   0.612   0.571  10.258
 1131SOL     OW 4288   1.252   1.348   9.698
 1131SOL    HW1 4289   1.302   1.425   9.738
 1131SOL    HW2 4290   1.157   1.350   9.730
 1132SOL     OW 4291   1.272   1.445  10.452
 1132SOL    HW1 4292   1.319   1.458  10.539
 1132SOL    HW2 4293   1.206   1.371  10.461
 1133SOL     OW 4294   1.582   0.639   9.782
 1133SOL    HW1 4295   1.551   0.700   9.855
 1133SOL    HW2 4296   1.632   0.691   9.713
 1134SOL     OW 4297   0.354   1.510  10.639
 1134SOL    HW1 4298   0.333   1.466  10.552
 1134SOL    HW2 4299   0.451   1.536  10.642
 1135SOL     OW 4300   0.402   0.751  10.908
 1135SOL    HW1 4301   0.470   0.806  10.861
 1135SOL    HW2 4302   0.442   0.663  10.935
 1136SOL     OW 4303   1.587   0.779  10.980
 1136SOL    HW1 4304   1.495   0.817  10.975
 1136SOL    HW2 4305   1.647   0.826  10.915
 1137SOL     OW 4306   1.013   0.105  11.080
 1137SOL    HW1 4307   1.019   0.190  11.028
 1137SOL    HW2 4308   1.045   0.029  11.023
 1138SOL     OW 4309   0.504   0.050  11.050
 1138SOL    HW1 4310   0.462  -0.007  10.980
 1138SOL    HW2 4311   0.438   0.119  11.082
 1139SOL     OW 4312   0.573   0.870  10.339
 1139SOL    HW1 4313   0.617   0.959  10.330
 1139SOL    HW2 4314   0.510   0.870  10.416
 1140SOL     OW 4315   1.360   0.862  10.355
 1140SOL    HW1 4316   1.285   0.862  10.289
 1140SOL    HW2 4317   1.397   0.770  10.364
 1141SOL     OW 4318   1.209   0.525   9.585
 1141SOL    HW1 4319   1.222   0.441   9.639
 1141SOL    HW2 4320   1.180   0.599   9.645
 1142SOL     OW 4321   0.307   0.213  10.541
 1142SOL    HW1 4322   0.284   0.250  10.631
 1142SOL    HW2 4323   0.277   0.118  10.535
 1143SOL     OW 4324   0.037   1.310  10.592
 1143SOL    HW1 4325   0.090   1.261  10.660
 1143SOL    HW2 4326   0.059   1.408  10.597
 1144SOL     OW 4327   0.732   0.634  10.374
 1144SOL    HW1 4328   0.791   0.608  10.298
 1144SOL    HW2 4329   0.704   0.730  10.363
 1145SOL     OW 4330   1.728   0.935  11.164
 1145SOL    HW1 4331   1.682   0.928  11.075
 1145SOL    HW2 4332   1.666   0.979  11.230
 1146SOL     OW 4333   0.307   0.063   9.928
 1146SOL    HW1 4334   0.296   0.157   9.961
 1146SOL    HW2 4335   0.302   0.000  10.005
 1147SOL     OW 4336   1.622   0.367   9.684
 1147SOL    HW1 4337   1.624   0.291   9.748
 1147SOL    HW2 4338   1.574   0.444   9.724
 1148SOL     OW 4339   1.023   0.766  10.276
 1148SOL    HW1 4340   1.038   0.787  10.372
 1148SOL    HW2 4341   0.993   0.671  10.267
 1149SOL     OW 4342   0.980   1.573  11.010
 1149SOL    HW1 4343   0.960   1.617  10.922
 1149SOL    HW2 4344   1.019   1.482  10.994
 1150SOL     OW 4345   1.859   1.518  10.915
 1150SOL    HW1 4346   1.873   1.545  10.820
 1150SOL    HW2 4347   1.942   1.540  10.968
 1151SOL     OW 4348   0.350   0.898  11.114
 1151SOL    HW1 4349   0.426   0.942  11.162
 1151SOL    HW2 4350   0.385   0.851  11.032
 1152SOL     OW 4351   1.540   0.274   9.435
 1152SOL    HW1 4352   1.479   0.199   9.458
 1152SOL    HW2 4353   1.562   0.326   9.518
 1153SOL     OW 4354   1.303   0.838   9.352
 1153SOL    HW1 4355   1.337   0.745   9.367
 1153SOL    HW2 4356   1.321   0.865   9.257
 1154SOL     OW 4357   1.068   1.333  10.159
 1154SOL    HW1 4358   1.075   1.249  10.104
 1154SOL    HW2 4359   1.130   1.402  10.123
 1155SOL     OW 4360   0.319   0.810  10.259
 1155SOL    HW1 4361   0.412   0.846  10.264
 1155SOL    HW2 4362   0.313   0.725  10.311
 1156SOL     OW 4363   0.339   0.509  10.316
 1156SOL    HW1 4364   0.287   0.426  10.299
 1156SOL    HW2 4365   0.416   0.514  10.252
 1157SOL     OW 4366   1.138   0.380  10.988
 1157SOL    HW1 4367   1.093   0.443  11.052
 1157SOL    HW2 4368   1.231   0.411  10.971
 1158SOL     OW 4369   1.160   0.207  10.787
 1158SOL    HW1 4370   1.160   0.271  10.864
 1158SOL    HW2 4371   1.188   0.255  10.704
 1159SOL     OW 4372   0.008   1.326   9.510
 1159SOL    HW1 4373  -0.085   1.347   9.479
 1159SOL    HW2 4374   0.018   1.227   9.523
 1160SOL     OW 4375   0.088   1.801  10.237
 1160SOL    HW1 4376   0.046   1.715  10.210
 1160SOL    HW2 4377   0.182   1.804  10.203
 1161SOL     OW 4378   0.504   1.568  10.220
 1161SOL    HW1 4379   0.570   1.642  10.229
 1161SOL    HW2 4380   0.548   1.489  10.178
 1162SOL     OW 4381   1.002   0.796  10.548
 1162SOL    HW1 4382   1.043   0.764  10.634
 1162SOL    HW2 4383   0.906   0.769  10.545
 1163SOL     OW 4384   0.040   0.544  10.424
 1163SOL    HW1 4385   0.125   0.511  10.383
 1163SOL    HW2 4386   0.053   0.559  10.522
 1164SOL     OW 4387   0.189   0.520  11.032
 1164SOL    HW1 4388   0.248   0.480  10.962
 1164SOL    HW2 4389   0.131   0.591  10.991
 1165SOL     OW 4390   1.369   0.950  10.970
 1165SOL    HW1 4391   1.408   1.039  10.990
 1165SOL    HW2 4392   1.379   0.930  10.873
 1166SOL     OW 4393   0.815   0.572   9.635
 1166SOL    HW1 4394   0.822   0.483   9.589
 1166SOL    HW2 4395   0.721   0.606   9.627
 1167SOL     OW 4396   1.657   0.604  10.516
 1167SOL    HW1 4397   1.619   0.535  10.578
 1167SOL    HW2 4398   1.739   0.568  10.472
 1168SOL     OW 4399   0.252   1.564  11.054
 1168SOL    HW1 4400   0.222   1.621  11.130
 1168SOL    HW2 4401   0.245   1.467  11.080
 1169SOL     OW 4402   0.671   0.464  10.579
 1169SOL    HW1 4403   0.637   0.375  10.549
 1169SOL    HW2 4404   0.697   0.518  10.499
 1170SOL     OW 4405   0.930   1.678  10.775
 1170SOL    HW1 4406   0.906   1.660  10.680
 1170SOL    HW2 4407   0.960   1.772  10.785
 1171SOL     OW 4408   0.473   0.500   9.501
 1171SOL    HW1 4409   0.534   0.580   9.505
 1171SOL    HW2 4410   0.378   0.531   9.508
 1172SOL     OW 4411   0.159   1.137  10.776
 1172SOL    HW1 4412   0.181   1.076  10.852
 1172SOL    HW2 4413   0.169   1.088  10.690
 1173SOL     OW 4414   1.347   1.059  10.544
 1173SOL    HW1 4415   1.371   0.996  10.470
 1173SOL    HW2 4416   1.257   1.099  10.526
 1174SOL     OW 4417   1.302   0.855   9.619
 1174SOL    HW1 4418   1.216   0.824   9.661
 1174SOL    HW2 4419   1.298   0.841   9.520
 1175SOL     OW 4420   1.252   1.731  10.438
 1175SOL    HW1 4421   1.336   1.736  10.384
 1175SOL    HW2 4422   1.229   1.635  10.456
 1176SOL     OW 4423   0.083   1.258  10.332
 1176SOL    HW1 4424   0.078   1.257  10.432
 1176SOL    HW2 4425   0.000   1.217  10.294
 1177SOL     OW 4426   0.688   1.662  11.026
 1177SOL    HW1 4427   0.632   1.743  11.035
 1177SOL    HW2 4428   0.740   1.666  10.940
 1178SOL     OW 4429   1.726   0.135   9.833
 1178SOL    HW1 4430   1.799   0.118   9.766
 1178SOL    HW2 4431   1.695   0.048   9.871
 1179SOL     OW 4432   1.388   1.573   9.787
 1179SOL    HW1 4433   1.455   1.585   9.713
 1179SOL    HW2 4434   1.348   1.662   9.810
 1180SOL     OW 4435   0.130   1.794  11.161
 1180SOL    HW1 4436   0.089   1.720  11.214
 1180SOL    HW2 4437   0.194   1.845  11.219
 1181SOL     OW 4438   1.280   0.927   9.982
 1181SOL    HW1 4439   1.340   0.846   9.984
 1181SOL    HW2 4440   1.320   0.996   9.922
 1182SOL     OW 4441   0.830   1.273  10.732
 1182SOL    HW1 4442   0.825   1.306  10.827
 1182SOL    HW2 4443   0.744   1.292  10.686
 1183SOL     OW 4444   0.672   1.616   9.464
 1183SOL    HW1 4445   0.681   1.626   9.365
 1183SOL    HW2 4446   0.632   1.527   9.485
 1184SOL     OW 4447   1.650   1.720  10.704
 1184SOL    HW1 4448   1.703   1.730  10.620
 1184SOL    HW2 4449   1.623   1.810  10.738
 1185SOL     OW 4450   1.841   0.175  10.273
 1185SOL    HW1 4451   1.880   0.090  10.237
 1185SOL    HW2 4452   1.743   0.177  10.254
 1186SOL     OW 4453   0.263   0.326  10.030
 1186SOL    HW1 4454   0.184   0.377   9.996
 1186SOL    HW2 4455   0.254   0.311  10.128
 1187SOL     OW 4456   1.194   1.612   9.341
 1187SOL    HW1 4457   1.200   1.519   9.378
 1187SOL    HW2 4458   1.135   1.612   9.261
 1188SOL     OW 4459   0.822   1.002  10.682
 1188SOL    HW1 4460   0.862   1.001  10.590
 1188SOL    HW2 4461   0.832   1.094  10.722
 1189SOL     OW 4462   0.916   0.910   9.601
 1189SOL    HW1 4463   0.979   0.948   9.533
 1189SOL    HW2 4464   0.956   0.827   9.640
 1190SOL     OW 4465   1.504   1.607   9.354
 1190SOL    HW1 4466   1.412   1.644   9.361
 1190SOL    HW2 4467   1.542   1.627   9.264
 1191SOL     OW 4468   0.372   1.288  10.800
 1191SOL    HW1 4469   0.359   1.381  10.766
 1191SOL    HW2 4470   0.288   1.236  10.787
 1192SOL     OW 4471   1.614   1.292  10.599
 1192SOL    HW1 4472   1.674   1.295  10.679
 1192SOL    HW2 4473   1.539   1.356  10.612
 1193SOL     OW 4474   1.039   1.098  10.006
 1193SOL    HW1 4475   0.969   1.051  10.060
 1193SOL    HW2 4476   1.098   1.030   9.963
 1194SOL     OW 4477   1.014   0.236  10.281
 1194SOL    HW1 4478   1.006   0.200  10.188
 1194SOL    HW2 4479   1.012   0.160  10.346
 1195SOL     OW 4480   0.590   1.487   9.801
 1195SOL    HW1 4481   0.632   1.429   9.731
 1195SOL    HW2 4482   0.546   1.566   9.757
 1196SOL     OW 4483   1.709   0.385  10.691
 1196SOL    HW1 4484   1.782   0.454  10.695
 1196SOL    HW2 4485   1.737   0.310  10.632
 1197SOL     OW 4486   0.255   1.348   9.600
 1197SOL    HW1 4487   0.159   1.349   9.573
 1197SOL    HW2 4488   0.267   1.401   9.684
 1198SOL     OW 4489   0.105   1.013  11.036
 1198SOL    HW1 4490   0.028   0.980  11.090
 1198SOL    HW2 4491   0.190   0.983  11.078
 1199SOL     OW 4492   0.672   0.203  10.799
 1199SOL    HW1 4493   0.762   0.187  10.759
 1199SOL    HW2 4494   0.680   0.208  10.898
 1200SOL     OW 4495   0.075   0.345   9.343
 1200SOL    HW1 4496  -0.017   0.317   9.314
 1200SOL    HW2 4497   0.106   0.422   9.287
 1201SOL     OW 4498   1.440   0.856  10.708
 1201SOL    HW1 4499   1.383   0.908  10.645
 1201SOL    HW2 4500   1.536   0.868  10.684
 1202SOL     OW 4501   0.072   0.166   9.628
 1202SOL    HW1 4502   0.055   0.249   9.574
 1202SOL    HW2 4503   0.162   0.129   9.606
 1203SOL     OW 4504   1.183   1.335   9.429
 1203SOL    HW1 4505   1.084   1.324   9.431
 1203SOL    HW2 4506   1.217   1.350   9.522
 1204SOL     OW 4507   0.613   0.842  10.741
 1204SOL    HW1 4508   0.669   0.923  10.724
 1204SOL    HW2 4509   0.672   0.762  10.744
 1205SOL     OW 4510   1.493   1.767  10.269
 1205SOL    HW1 4511   1.526   1.831  10.200
 1205SOL    HW2 4512   1.559   1.761  10.344
 1206SOL     OW 4513   0.716   0.565  11.018
 1206SOL    HW1 4514   0.735   0.630  11.092
 1206SOL    HW2 4515   0.776   0.485  11.027
 1207SOL     OW 4516   1.450   1.220  10.943
 1207SOL    HW1 4517   1.441   1.210  11.042
 1207SOL    HW2 4518   1.546   1.213  10.917
 1208SOL     OW 4519   0.390   1.741  10.870
 1208SOL    HW1 4520   0.299   1.782  10.868
 1208SOL    HW2 4521   0.383   1.647  10.902
 1209SOL     OW 4522   1.674   0.883  10.564
 1209SOL    HW1 4523   1.647   0.794  10.527
 1209SOL    HW2 4524   1.675   0.951  10.491
 1210SOL     OW 4525   1.225   0.325   9.759
 1210SOL    HW1 4526   1.290   0.251   9.748
 1210SOL    HW2 4527   1.245   0.375   9.843
 1211SOL     OW 4528   0.594   0.745   9.962
 1211SOL    HW1 4529   0.644   0.830   9.943
 1211SOL    HW2 4530   0.506   0.747   9.914
 1212SOL     OW 4531   1.777   0.342  10.952
 1212SOL    HW1 4532   1.760   0.373  10.858
 1212SOL    HW2 4533   1.693   0.305  10.990
 1213SOL     OW 4534   1.730   0.934  10.827
 1213SOL    HW1 4535   1.768   1.025  10.842
 1213SOL    HW2 4536   1.722   0.917  10.728
 1214SOL     OW 4537   0.859   1.374   9.326
 1214SOL    HW1 4538   0.813   1.389   9.414
 1214SOL    HW2 4539   0.903   1.459   9.296
 1215SOL     OW 4540   0.661   1.790  10.263
 1215SOL    HW1 4541   0.615   1.878  10.250
 1215SOL    HW2 4542   0.760   1.802  10.256
 1216SOL     OW 4543   0.859   0.956  10.171
 1216SOL    HW1 4544   0.913   0.887  10.219
 1216SOL    HW2 4545   0.827   1.025  10.237
 1217SOL     OW 4546   1.083   0.984   9.397
 1217SOL    HW1 4547   1.060   1.037   9.315
 1217SOL    HW2 4548   1.164   0.928   9.378
 1218SOL     OW 4549   1.861   1.569  10.161
 1218SOL    HW1 4550   1.790   1.557  10.091
 1218SOL    HW2 4551   1.862   1.490  10.221
 1219SOL     OW 4552   0.221   1.314  11.154
 1219SOL    HW1 4553   0.156   1.241  11.133
 1219SOL    HW2 4554   0.225   1.328  11.252
 1220SOL     OW 4555   0.079   1.240   9.963
 1220SOL    HW1 4556   0.078   1.193  10.051
 1220SOL    HW2 4557   0.161   1.212   9.912
 1221SOL     OW 4558   0.672   1.391  10.934
 1221SOL    HW1 4559   0.594   1.341  10.972
 1221SOL    HW2 4560   0.669   1.486  10.965
 1222SOL     OW 4561   1.824   0.192  10.537
 1222SOL    HW1 4562   1.820   0.102  10.581
 1222SOL    HW2 4563   1.827   0.181  10.438
 1223SOL     OW 4564   0.428   0.424   9.830
 1223SOL    HW1 4565   0.458   0.352   9.768
 1223SOL    HW2 4566   0.389   0.384   9.913
 1224SOL     OW 4567   1.705   1.487  10.414
 1224SOL    HW1 4568   1.612   1.462  10.387
 1224SOL    HW2 4569   1.731   1.437  10.496
 1225SOL     OW 4570   0.317   0.547  10.590
 1225SOL    HW1 4571   0.355   0.488  10.662
 1225SOL    HW2 4572   0.357   0.521  10.502
 1226SOL     OW 4573   0.812   1.586   9.997
 1226SOL    HW1 4574   0.844   1.596   9.903
 1226SOL    HW2 4575   0.733   1.524   9.999
 1227SOL     OW 4576   1.424   0.214  10.422
 1227SOL    HW1 4577   1.476   0.149  10.477
 1227SOL    HW2 4578   1.375   0.277  10.483
 1228SOL     OW 4579   1.001   0.034  10.464
 1228SOL    HW1 4580   0.938  -0.038  10.433
 1228SOL    HW2 4581   1.094  -0.002  10.464
 1229SOL     OW 4582   0.770   1.330   9.611
 1229SOL    HW1 4583   0.724   1.243   9.628
 1229SOL    HW2 4584   0.861   1.327   9.652
 1230SOL     OW 4585   0.618   1.567  10.594
 1230SOL    HW1 4586   0.613   1.649  10.651
 1230SOL    HW2 4587   0.707   1.564  10.549
 1231SOL     OW 4588   1.352   0.052   9.478
 1231SOL    HW1 4589   1.387   0.011   9.394
 1231SOL    HW2 4590   1.262   0.014   9.498
 1232SOL     OW 4591   1.300   0.453  10.001
 1232SOL    HW1 4592   1.241   0.533  10.005
 1232SOL    HW2 4593   1.315   0.418  10.094
 1233SOL     OW 4594   1.593   0.221  10.192
 1233SOL    HW1 4595   1.509   0.220  10.246
 1233SOL    HW2 4596   1.595   0.304  10.136
 1234SOL     OW 4597   0.039   1.077   9.610
 1234SOL    HW1 4598   0.138   1.066   9.601
 1234SOL    HW2 4599  -0.001   0.991   9.642
 1235SOL     OW 4600   0.875   1.646   9.647
 1235SOL    HW1 4601   0.798   1.611   9.593
 1235SOL    HW2 4602   0.843   1.717   9.709
 1236SOL     OW 4603   0.230   0.628  11.285
 1236SOL    HW1 4604   0.137   0.626  11.322
 1236SOL    HW2 4605   0.231   0.589  11.193
 1237SOL     OW 4606   0.225   0.275  12.168
 1237SOL    HW1 4607   0.260   0.258  12.260
 1237SOL    HW2 4608   0.137   0.230  12.156
 1238SOL     OW 4609   0.019   0.368  11.819
 1238SOL    HW1 4610  -0.063   0.411  11.858
 1238SOL    HW2 4611  -0.009   0.295  11.756
 1239SOL     OW 4612   0.569   1.275  12.337
 1239SOL    HW1 4613   0.476   1.268  12.300
 1239SOL    HW2 4614   0.580   1.364  12.381
 1240SOL     OW 4615   1.555   1.511  11.875
 1240SOL    HW1 4616   1.498   1.495  11.956
 1240SOL    HW2 4617   1.496   1.521  11.795
 1241SOL     OW 4618   1.135   0.703  11.889
 1241SOL    HW1 4619   1.192   0.781  11.864
 1241SOL    HW2 4620   1.075   0.729  11.965
 1242SOL     OW 4621   1.755   0.607  11.403
 1242SOL    HW1 4622   1.743   0.594  11.304
 1242SOL    HW2 4623   1.725   0.526  11.452
 1243SOL     OW 4624   0.768   1.144  12.195
 1243SOL    HW1 4625   0.690   1.161  12.255
 1243SOL    HW2 4626   0.802   1.231  12.159
 1244SOL     OW 4627   0.850   0.798  12.995
 1244SOL    HW1 4628   0.846   0.874  13.060
 1244SOL    HW2 4629   0.872   0.834  12.904
 1245SOL     OW 4630   0.685   1.012  11.837
 1245SOL    HW1 4631   0.754   0.996  11.907
 1245SOL    HW2 4632   0.612   1.069  11.875
 1246SOL     OW 4633   0.686   1.161  12.975
 1246SOL    HW1 4634   0.746   1.240  12.989
 1246SOL    HW2 4635   0.600   1.192  12.934
 1247SOL     OW 4636   0.335   1.435  12.233
 1247SOL    HW1 4637   0.257   1.404  12.180
 1247SOL    HW2 4638   0.393   1.493  12.176
 1248SOL     OW 4639   1.460   1.505  12.511
 1248SOL    HW1 4640   1.484   1.599  12.537
 1248SOL    HW2 4641   1.444   1.451  12.593
 1249SOL     OW 4642   0.438   0.392  12.671
 1249SOL    HW1 4643   0.520   0.336  12.680
 1249SOL    HW2 4644   0.357   0.334  12.675
 1250SOL     OW 4645   1.603   0.447  11.909
 1250SOL    HW1 4646   1.529   0.493  11.859
 1250SOL    HW2 4647   1.654   0.515  11.962
 1251SOL     OW 4648   0.231   1.713  11.655
 1251SOL    HW1 4649   0.265   1.790  11.709
 1251SOL    HW2 4650   0.275   1.713  11.565
 1252SOL     OW 4651   1.127   1.341  12.862
 1252SOL    HW1 4652   1.174   1.341  12.950
 1252SOL    HW2 4653   1.079   1.254  12.851
 1253SOL     OW 4654   0.230   1.434  11.710
 1253SOL    HW1 4655   0.204   1.530  11.710
 1253SOL    HW2 4656   0.159   1.380  11.755
 1254SOL     OW 4657   0.240   1.091  12.058
 1254SOL    HW1 4658   0.254   1.007  12.110
 1254SOL    HW2 4659   0.185   1.155  12.113
 1255SOL     OW 4660   0.620   1.786  12.611
 1255SOL    HW1 4661   0.528   1.769  12.646
 1255SOL    HW2 4662   0.648   1.878  12.637
 1256SOL     OW 4663   0.606   0.964  11.295
 1256SOL    HW1 4664   0.613   1.048  11.241
 1256SOL    HW2 4665   0.652   0.977  11.383
 1257SOL     OW 4666   1.594   0.114  12.652
 1257SOL    HW1 4667   1.576   0.181  12.580
 1257SOL    HW2 4668   1.591   0.160  12.741
 1258SOL     OW 4669   0.122   0.643  11.735
 1258SOL    HW1 4670   0.077   0.555  11.752
 1258SOL    HW2 4671   0.121   0.697  11.819
 1259SOL     OW 4672   0.027   1.596  11.289
 1259SOL    HW1 4673   0.008   1.500  11.310
 1259SOL    HW2 4674  -0.006   1.654  11.364
 1260SOL     OW 4675   1.689   0.922  11.784
 1260SOL    HW1 4676   1.784   0.893  11.792
 1260SOL    HW2 4677   1.681   0.987  11.709
 1261SOL     OW 4678   1.641   1.108  11.604
 1261SOL    HW1 4679   1.727   1.110  11.552
 1261SOL    HW2 4680   1.655   1.155  11.692
 1262SOL     OW 4681   0.113   0.737  12.769
 1262SOL    HW1 4682   0.201   0.724  12.814
 1262SOL    HW2 4683   0.100   0.834  12.747
 1263SOL     OW 4684   0.613   1.365  11.898
 1263SOL    HW1 4685   0.564   1.278  11.907
 1263SOL    HW2 4686   0.590   1.408  11.811
 1264SOL     OW 4687   1.293   1.228  12.595
 1264SOL    HW1 4688   1.330   1.155  12.537
 1264SOL    HW2 4689   1.345   1.233  12.680
 1265SOL     OW 4690   0.809   0.004  11.674
 1265SOL    HW1 4691   0.849   0.095  11.665
 1265SOL    HW2 4692   0.709   0.012  11.680
 1266SOL     OW 4693   0.197   0.976  12.436
 1266SOL    HW1 4694   0.286   0.931  12.422
 1266SOL    HW2 4695   0.124   0.911  12.417
 1267SOL     OW 4696   1.525   0.999  11.362
 1267SOL    HW1 4697   1.462   0.923  11.375
 1267SOL    HW2 4698   1.573   1.017  11.448
 1268SOL     OW 4699   1.187   1.792  12.788
 1268SOL    HW1 4700   1.211   1.852  12.712
 1268SOL    HW2 4701   1.194   1.697  12.758
 1269SOL     OW 4702   0.317   0.251  12.973
 1269SOL    HW1 4703   0.388   0.322  12.979
 1269SOL    HW2 4704   0.229   0.290  13.001
 1270SOL     OW 4705   1.466   1.417  12.125
 1270SOL    HW1 4706   1.407   1.423  12.205
 1270SOL    HW2 4707   1.451   1.329  12.079
 1271SOL     OW 4708   1.667   1.714  11.744
 1271SOL    HW1 4709   1.626   1.691  11.656
 1271SOL    HW2 4710   1.649   1.640  11.809
 1272SOL     OW 4711   0.598   0.729  11.442
 1272SOL    HW1 4712   0.622   0.798  11.374
 1272SOL    HW2 4713   0.520   0.762  11.496
 1273SOL     OW 4714   1.281   0.345  12.116
 1273SOL    HW1 4715   1.195   0.295  12.103
 1273SOL    HW2 4716   1.343   0.291  12.172
 1274SOL     OW 4717   1.576   1.662  11.479
 1274SOL    HW1 4718   1.665   1.708  11.482
 1274SOL    HW2 4719   1.555   1.638  11.384
 1275SOL     OW 4720   0.807   0.605  12.637
 1275SOL    HW1 4721   0.760   0.602  12.726
 1275SOL    HW2 4722   0.756   0.550  12.571
 1276SOL     OW 4723   1.394   0.469  12.846
 1276SOL    HW1 4724   1.374   0.512  12.934
 1276SOL    HW2 4725   1.472   0.407  12.855
 1277SOL     OW 4726   0.973   0.890  12.744
 1277SOL    HW1 4727   1.019   0.806  12.715
 1277SOL    HW2 4728   0.917   0.924  12.669
 1278SOL     OW 4729   0.991   0.410  12.414
 1278SOL    HW1 4730   0.914   0.444  12.468
 1278SOL    HW2 4731   0.957   0.359  12.335
 1279SOL     OW 4732   1.041   0.701  11.601
 1279SOL    HW1 4733   1.067   0.697  11.697
 1279SOL    HW2 4734   0.956   0.650  11.587
 1280SOL     OW 4735   0.076   0.811  11.961
 1280SOL    HW1 4736   0.175   0.799  11.970
 1280SOL    HW2 4737   0.052   0.906  11.982
 1281SOL     OW 4738   0.130   1.821  12.743
 1281SOL    HW1 4739   0.120   1.806  12.842
 1281SOL    HW2 4740   0.044   1.857  12.707
 1282SOL     OW 4741   0.865   0.348  11.367
 1282SOL    HW1 4742   0.924   0.411  11.318
 1282SOL    HW2 4743   0.884   0.254  11.338
 1283SOL     OW 4744   1.719   0.585  13.003
 1283SOL    HW1 4745   1.693   0.674  12.967
 1283SOL    HW2 4746   1.717   0.517  12.930
 1284SOL     OW 4747   1.362   1.144  11.717
 1284SOL    HW1 4748   1.445   1.115  11.669
 1284SOL    HW2 4749   1.313   1.211  11.661
 1285SOL     OW 4750   0.550   0.196  12.057
 1285SOL    HW1 4751   0.545   0.191  12.157
 1285SOL    HW2 4752   0.552   0.292  12.028
 1286SOL     OW 4753   1.008   1.456  11.649
 1286SOL    HW1 4754   0.962   1.528  11.597
 1286SOL    HW2 4755   1.004   1.476  11.747
 1287SOL     OW 4756   0.351   1.801  12.025
 1287SOL    HW1 4757   0.401   1.715  12.031
 1287SOL    HW2 4758   0.416   1.878  12.022
 1288SOL     OW 4759   1.795   1.066  12.045
 1288SOL    HW1 4760   1.733   1.051  11.969
 1288SOL    HW2 4761   1.743   1.077  12.130
 1289SOL     OW 4762   1.227   1.550  12.678
 1289SOL    HW1 4763   1.233   1.473  12.742
 1289SOL    HW2 4764   1.175   1.524  12.598
 1290SOL     OW 4765   0.321   0.943  11.414
 1290SOL    HW1 4766   0.403   0.982  11.372
 1290SOL    HW2 4767   0.294   0.861  11.365
 1291SOL     OW 4768   1.458   0.735  11.900
 1291SOL    HW1 4769   1.453   0.670  11.975
 1291SOL    HW2 4770   1.538   0.794  11.913
 1292SOL     OW 4771   0.461   1.266  12.899
 1292SOL    HW1 4772   0.411   1.267  12.813
 1292SOL    HW2 4773   0.398   1.248  12.975
 1293SOL     OW 4774   1.111   1.776  11.409
 1293SOL    HW1 4775   1.051   1.714  11.459
 1293SOL    HW2 4776   1.142   1.732  11.324
 1294SOL     OW 4777   0.202   0.285  12.670
 1294SOL    HW1 4778   0.122   0.345  12.657
 1294SOL    HW2 4779   0.192   0.236  12.756
 1295SOL     OW 4780   1.632   1.377  11.253
 1295SOL    HW1 4781   1.600   1.471  11.243
 1295SOL    HW2 4782   1.556   1.314  11.241
 1296SOL     OW 4783   0.464   1.743  11.495
 1296SOL    HW1 4784   0.497   1.782  11.581
 1296SOL    HW2 4785   0.540   1.736  11.430
 1297SOL     OW 4786   1.400   0.107  11.598
 1297SOL    HW1 4787   1.376   0.070  11.508
 1297SOL    HW2 4788   1.499   0.123  11.602
 1298SOL     OW 4789   0.249   1.785  12.413
 1298SOL    HW1 4790   0.306   1.720  12.463
 1298SOL    HW2 4791   0.233   1.752  12.320
 1299SOL     OW 4792   0.940   1.698  12.076
 1299SOL    HW1 4793   1.020   1.641  12.097
 1299SOL    HW2 4794   0.891   1.658  11.999
 1300SOL     OW 4795   0.382   0.700  11.652
 1300SOL    HW1 4796   0.427   0.610  11.649
 1300SOL    HW2 4797   0.288   0.689  11.685
 1301SOL     OW 4798   1.547   0.222  12.901
 1301SOL    HW1 4799   1.542   0.259  12.993
 1301SOL    HW2 4800   1.475   0.153  12.889
 1302SOL     OW 4801   0.614   0.122  11.289
 1302SOL    HW1 4802   0.712   0.100  11.296
 1302SOL    HW2 4803   0.583   0.105  11.196
 1303SOL     OW 4804   0.781   0.264  12.921
 1303SOL    HW1 4805   0.848   0.203  12.964
 1303SOL    HW2 4806   0.708   0.283  12.986
 1304SOL     OW 4807   0.888   1.514  12.367
 1304SOL    HW1 4808   0.865   1.489  12.273
 1304SOL    HW2 4809   0.949   1.445  12.406
 1305SOL     OW 4810   1.351   0.590  12.605
 1305SOL    HW1 4811   1.379   0.547  12.690
 1305SOL    HW2 4812   1.376   0.686  12.606
 1306SOL     OW 4813   0.803   1.402  12.096
 1306SOL    HW1 4814   0.893   1.416  12.054
 1306SOL    HW2 4815   0.732   1.404  12.025
 1307SOL     OW 4816   0.922   0.503  12.071
 1307SOL    HW1 4817   0.897   0.494  11.975
 1307SOL    HW2 4818   0.970   0.421  12.102
 1308SOL     OW 4819   0.539   0.064  11.684
 1308SOL    HW1 4820   0.458   0.065  11.742
 1308SOL    HW2 4821   0.542   0.147  11.629
 1309SOL     OW 4822   1.434   1.188  11.213
 1309SOL    HW1 4823   1.466   1.112  11.270
 1309SOL    HW2 4824   1.342   1.215  11.243
 1310SOL     OW 4825   0.297   0.035  11.343
 1310SOL    HW1 4826   0.346   0.119  11.322
 1310SOL    HW2 4827   0.359  -0.030  11.388
 1311SOL     OW 4828   0.935   0.236  11.652
 1311SOL    HW1 4829   0.887   0.277  11.574
 1311SOL    HW2 4830   1.034   0.234  11.633
 1312SOL     OW 4831   1.076   0.683  12.636
 1312SOL    HW1 4832   0.996   0.622  12.639
 1312SOL    HW2 4833   1.157   0.630  12.612
 1313SOL     OW 4834   1.227   1.570  11.965
 1313SOL    HW1 4835   1.248   1.644  11.900
 1313SOL    HW2 4836   1.295   1.570  12.038
 1314SOL     OW 4837   0.459   1.152  11.913
 1314SOL    HW1 4838   0.388   1.125  11.978
 1314SOL    HW2 4839   0.433   1.124  11.820
 1315SOL     OW 4840   1.271   1.797  11.763
 1315SOL    HW1 4841   1.315   1.861  11.699
 1315SOL    HW2 4842   1.221   1.849  11.833
 1316SOL     OW 4843   1.032   0.549  11.188
 1316SOL    HW1 4844   0.991   0.631  11.149
 1316SOL    HW2 4845   1.096   0.575  11.261
 1317SOL     OW 4846   0.078   0.556  12.558
 1317SOL    HW1 4847   0.170   0.555  12.517
 1317SOL    HW2 4848   0.072   0.630  12.625
 1318SOL     OW 4849   0.561   0.222  12.319
 1318SOL    HW1 4850   0.599   0.138  12.356
 1318SOL    HW2 4851   0.473   0.241  12.363
 1319SOL     OW 4852   0.866   0.454  11.814
 1319SOL    HW1 4853   0.834   0.526  11.752
 1319SOL    HW2 4854   0.890   0.373  11.761
 1320SOL     OW 4855   1.017   0.039  11.925
 1320SOL    HW1 4856   0.945   0.044  11.856
 1320SOL    HW2 4857   0.993  -0.030  11.994
 1321SOL     OW 4858   1.429   1.173  12.039
 1321SOL    HW1 4859   1.374   1.089  12.032
 1321SOL    HW2 4860   1.455   1.202  11.947
 1322SOL     OW 4861   1.466   0.590  12.164
 1322SOL    HW1 4862   1.436   0.495  12.171
 1322SOL    HW2 4863   1.539   0.606  12.230
 1323SOL     OW 4864   1.857   0.833  11.549
 1323SOL    HW1 4865   1.899   0.769  11.613
 1323SOL    HW2 4866   1.819   0.782  11.471
 1324SOL     OW 4867   0.488   1.385  11.346
 1324SOL    HW1 4868   0.401   1.370  11.393
 1324SOL    HW2 4869   0.471   1.411  11.251
 1325SOL     OW 4870   1.664   1.280  11.829
 1325SOL    HW1 4871   1.763   1.288  11.843
 1325SOL    HW2 4872   1.619   1.364  11.860
 1326SOL     OW 4873   1.390   0.575  11.250
 1326SOL    HW1 4874   1.336   0.554  11.331
 1326SOL    HW2 4875   1.481   0.534  11.259
 1327SOL     OW 4876   0.527   0.256  11.500
 1327SOL    HW1 4877   0.554   0.197  11.425
 1327SOL    HW2 4878   0.527   0.351  11.469
 1328SOL     OW 4879   1.754   1.223  12.760
 1328SOL    HW1 4880   1.845   1.184  12.747
 1328SOL    HW2 4881   1.762   1.319  12.784
 1329SOL     OW 4882   1.064   1.347  12.512
 1329SOL    HW1 4883   0.984   1.324  12.567
 1329SOL    HW2 4884   1.147   1.321  12.561
 1330SOL     OW 4885   1.592   1.629  12.797
 1330SOL    HW1 4886   1.619   1.663  12.707
 1330SOL    HW2 4887   1.671   1.591  12.843
 1331SOL     OW 4888   1.111   1.195  12.272
 1331SOL    HW1 4889   1.071   1.239  12.353
 1331SOL    HW2 4890   1.070   1.232  12.189
 1332SOL     OW 4891   1.638   1.099  12.251
 1332SOL    HW1 4892   1.643   1.180  12.310
 1332SOL    HW2 4893   1.552   1.101  12.200
 1333SOL     OW 4894   0.915   0.089  12.574
 1333SOL    HW1 4895   0.940   0.069  12.479
 1333SOL    HW2 4896   0.987   0.145  12.616
 1334SOL     OW 4897   0.980   1.116  12.891
 1334SOL    HW1 4898   0.881   1.122  12.901
 1334SOL    HW2 4899   1.003   1.036  12.835
 1335SOL     OW 4900   0.705   1.050  11.540
 1335SOL    HW1 4901   0.691   1.057  11.639
 1335SOL    HW2 4902   0.789   0.999  11.522
 1336SOL     OW 4903   0.410   0.813  12.423
 1336SOL    HW1 4904   0.496   0.825  12.473
 1336SOL    HW2 4905   0.368   0.726  12.450
 1337SOL     OW 4906   1.274   0.386  12.434
 1337SOL    HW1 4907   1.295   0.460  12.498
 1337SOL    HW2 4908   1.185   0.403  12.391
 1338SOL     OW 4909   0.064   1.564  12.503
 1338SOL    HW1 4910   0.018   1.646  12.469
 1338SOL    HW2 4911   0.162   1.583  12.512
 1339SOL     OW 4912   0.367   1.100  11.673
 1339SOL    HW1 4913   0.360   1.183  11.617
 1339SOL    HW2 4914   0.371   1.020  11.613
 1340SOL     OW 4915   0.566   0.537  12.037
 1340SOL    HW1 4916   0.578   0.603  11.963
 1340SOL    HW2 4917   0.612   0.571  12.120
 1341SOL     OW 4918   1.252   1.348  11.560
 1341SOL    HW1 4919   1.302   1.425  11.600
 1341SOL    HW2 4920   1.157   1.350  11.592
 1342SOL     OW 4921   1.272   1.445  12.314
 1342SOL    HW1 4922   1.319   1.458  12.401
 1342SOL    HW2 4923   1.206   1.371  12.323
 1343SOL     OW 4924   1.582   0.639  11.644
 1343SOL    HW1 4925   1.551   0.700  11.717
 1343SOL    HW2 4926   1.632   0.691  11.575
 1344SOL     OW 4927   0.354   1.510  12.501
 1344SOL    HW1 4928   0.333   1.466  12.414
 1344SOL    HW2 4929   0.451   1.536  12.504
 1345SOL     OW 4930   0.402   0.751  12.770
 1345SOL    HW1 4931   0.470   0.806  12.723
 1345SOL    HW2 4932   0.442   0.663  12.797
 1346SOL     OW 4933   1.587   0.779  12.842
 1346SOL    HW1 4934   1.495   0.817  12.837
 1346SOL    HW2 4935   1.647   0.826  12.777
 1347SOL     OW 4936   1.013   0.105  12.942
 1347SOL    HW1 4937   1.019   0.190  12.890
 1347SOL    HW2 4938   1.045   0.029  12.885
 1348SOL     OW 4939   0.504   0.050  12.912
 1348SOL    HW1 4940   0.462  -0.007  12.842
 1348SOL    HW2 4941   0.438   0.119  12.944
 1349SOL     OW 4942   0.573   0.870  12.201
 1349SOL    HW1 4943   0.617   0.959  12.192
 1349SOL    HW2 4944   0.510   0.870  12.278
 1350SOL     OW 4945   1.360   0.862  12.217
 1350SOL    HW1 4946   1.285   0.862  12.151
 1350SOL    HW2 4947   1.397   0.770  12.226
 1351SOL     OW 4948   1.209   0.525  11.447
 1351SOL    HW1 4949   1.222   0.441  11.501
 1351SOL    HW2 4950   1.180   0.599  11.507
 1352SOL     OW 4951   0.307   0.213  12.403
 1352SOL    HW1 4952   0.284   0.250  12.493
 1352SOL    HW2 4953   0.277   0.118  12.397
 1353SOL     OW 4954   0.037   1.310  12.454
 1353SOL    HW1 4955   0.090   1.261  12.522
 1353SOL    HW2 4956   0.059   1.408  12.459
 1354SOL     OW 4957   0.732   0.634  12.236
 1354SOL    HW1 4958   0.791   0.608  12.160
 1354SOL    HW2 4959   0.704   0.730  12.225
 1355SOL     OW 4960   1.728   0.935  13.026
 1355SOL    HW1 4961   1.682   0.928  12.937
 1355SOL    HW2 4962   1.666   0.979  13.092
 1356SOL     OW 4963   0.307   0.063  11.790
 1356SOL    HW1 4964   0.296   0.157  11.823
 1356SOL    HW2 4965   0.302   0.000  11.867
 1357SOL     OW 4966   1.622   0.367  11.546
 1357SOL    HW1 4967   1.624   0.291  11.610
 1357SOL    HW2 4968   1.574   0.444  11.586
 1358SOL     OW 4969   1.023   0.766  12.138
 1358SOL    HW1 4970   1.038   0.787  12.234
 1358SOL    HW2 4971   0.993   0.671  12.129
 1359SOL     OW 4972   0.980   1.573  12.872
 1359SOL    HW1 4973   0.960   1.617  12.784
 1359SOL    HW2 4974   1.019   1.482  12.856
 1360SOL     OW 4975   1.859   1.518  12.777
 1360SOL    HW1 4976   1.873   1.545  12.682
 1360SOL    HW2 4977   1.942   1.540  12.830
 1361SOL     OW 4978   0.350   0.898  12.976
 1361SOL    HW1 4979   0.426   0.942  13.024
 1361SOL    HW2 4980   0.385   0.851  12.894
 1362SOL     OW 4981   1.540   0.274  11.297
 1362SOL    HW1 4982   1.479   0.199  11.320
 1362SOL    HW2 4983   1.562   0.326  11.380
 1363SOL     OW 4984   1.303   0.838  11.214
 1363SOL    HW1 4985   1.337   0.745  11.229
 1363SOL    HW2 4986   1.321   0.865  11.119
 1364SOL     OW 4987   1.068   1.333  12.021
 1364SOL    HW1 4988   1.075   1.249  11.966
 1364SOL    HW2 4989   1.130   1.402  11.985
 1365SOL     OW 4990   0.319   0.810  12.121
 1365SOL    HW1 4991   0.412   0.846  12.126
 1365SOL    HW2 4992   0.313   0.725  12.173
 1366SOL     OW 4993   0.339   0.509  12.178
 1366SOL    HW1 4994   0.287   0.426  12.161
 1366SOL    HW2 4995   0.416   0.514  12.114
 1367SOL     OW 4996   1.138   0.380  12.850
 1367SOL    HW1 4997   1.093   0.443  12.914
 1367SOL    HW2 4998   1.231   0.411  12.833
 1368SOL     OW 4999   1.160   0.207  12.649
 1368SOL    HW1 5000   1.160   0.271  12.726
 1368SOL    HW2 5001   1.188   0.255  12.566
 1369SOL     OW 5002   0.008   1.326  11.372
 1369SOL    HW1 5003  -0.085   1.347  11.341
 1369SOL    HW2 5004   0.018   1.227  11.385
 1370SOL     OW 5005   0.088   1.801  12.099
 1370SOL    HW1 5006   0.046   1.715  12.072
 1370SOL    HW2 5007   0.182   1.804  12.065
 1371SOL     OW 5008   0.504   1.568  12.082
 1371SOL    HW1 5009   0.570   1.642  12.091
 1371SOL    HW2 5010   0.548   1.489  12.040
 1372SOL     OW 5011   1.002   0.796  12.410
 1372SOL    HW1 5012   1.043   0.764  12.496
 1372SOL    HW2 5013   0.906   0.769  12.407
 1373SOL     OW 5014   0.040   0.544  12.286
 1373SOL    HW1 5015   0.125   0.511  12.245
 1373SOL    HW2 5016   0.053   0.559  12.384
 1374SOL     OW 5017   0.189   0.520  12.894
 1374SOL    HW1 5018   0.248   0.480  12.824
 1374SOL    HW2 5019   0.131   0.591  12.853
 1375SOL     OW 5020   1.369   0.950  12.832
 1375SOL    HW1 5021   1.408   1.039  12.852
 1375SOL    HW2 5022   1.379   0.930  12.735
 1376SOL     OW 5023   0.815   0.572  11.497
 1376SOL    HW1 5024   0.822   0.483  11.451
 1376SOL    HW2 5025   0.721   0.606  11.489
 1377SOL     OW 5026   1.657   0.604  12.378
 1377SOL    HW1 5027   1.619   0.535  12.440
 1377SOL    HW2 5028   1.739   0.568  12.334
 1378SOL     OW 5029   0.252   1.564  12.916
 1378SOL    HW1 5030   0.222   1.621  12.992
 1378SOL    HW2 5031   0.245   1.467  12.942
 1379SOL     OW 5032   0.671   0.464  12.441
 1379SOL    HW1 5033   0.637   0.375  12.411
 1379SOL    HW2 5034   0.697   0.518  12.361
 1380SOL     OW 5035   0.930   1.678  12.637
 1380SOL    HW1 5036   0.906   1.660  12.542
 1380SOL    HW2 5037   0.960   1.772  12.647
 1381SOL     OW 5038   0.473   0.500  11.363
 1381SOL    HW1 5039   0.534   0.580  11.367
 1381SOL    HW2 5040   0.378   0.531  11.370
 1382SOL     OW 5041   0.159   1.137  12.638
 1382SOL    HW1 5042   0.181   1.076  12.714
 1382SOL    HW2 5043   0.169   1.088  12.552
 1383SOL     OW 5044   1.347   1.059  12.406
 1383SOL    HW1 5045   1.371   0.996  12.332
 1383SOL    HW2 5046   1.257   1.099  12.388
 1384SOL     OW 5047   1.302   0.855  11.481
 1384SOL    HW1 5048   1.216   0.824  11.523
 1384SOL    HW2 5049   1.298   0.841  11.382
 1385SOL     OW 5050   1.252   1.731  12.300
 1385SOL    HW1 5051   1.336   1.736  12.246
 1385SOL    HW2 5052   1.229   1.635  12.318
 1386SOL     OW 5053   0.083   1.258  12.194
 1386SOL    HW1 5054   0.078   1.257  12.294
 1386SOL    HW2 5055   0.000   1.217  12.156
 1387SOL     OW 5056   0.688   1.662  12.888
 1387SOL    HW1 5057   0.632   1.743  12.897
 1387SOL    HW2 5058   0.740   1.666  12.802
 1388SOL     OW 5059   1.726   0.135  11.695
 1388SOL    HW1 5060   1.799   0.118  11.628
 1388SOL    HW2 5061   1.695   0.048  11.733
 1389SOL     OW 5062   1.388   1.573  11.649
 1389SOL    HW1 5063   1.455   1.585  11.575
 1389SOL    HW2 5064   1.348   1.662  11.672
 1390SOL     OW 5065   0.130   1.794  13.023
 1390SOL    HW1 5066   0.089   1.720  13.076
 1390SOL    HW2 5067   0.194   1.845  13.081
 1391SOL     OW 5068   1.280   0.927  11.844
 1391SOL    HW1 5069   1.340   0.846  11.846
 1391SOL    HW2 5070   1.320   0.996  11.784
 1392SOL     OW 5071   0.830   1.273  12.594
 1392SOL    HW1 5072   0.825   1.306  12.689
 1392SOL    HW2 5073   0.744   1.292  12.548
 1393SOL     OW 5074   0.672   1.616  11.326
 1393SOL    HW1 5075   0.681   1.626  11.227
 1393SOL    HW2 5076   0.632   1.527  11.347
 1394SOL     OW 5077   1.650   1.720  12.566
 1394SOL    HW1 5078   1.703   1.730  12.482
 1394SOL    HW2 5079   1.623   1.810  12.600
 1395SOL     OW 5080   1.841   0.175  12.135
 1395SOL    HW1 5081   1.880   0.090  12.099
 1395SOL    HW2 5082   1.743   0.177  12.116
 1396SOL     OW 5083   0.263   0.326  11.892
 1396SOL    HW1 5084   0.184   0.377  11.858
 1396SOL    HW2 5085   0.254   0.311  11.990
 1397SOL     OW 5086   1.194   1.612  11.203
 1397SOL    HW1 5087   1.200   1.519  11.240
 1397SOL    HW2 5088   1.135   1.612  11.123
 1398SOL     OW 5089   0.822   1.002  12.544
 1398SOL    HW1 5090   0.862   1.001  12.452
 1398SOL    HW2 5091   0.832   1.094  12.584
 1399SOL     OW 5092   0.916   0.910  11.463
 1399SOL    HW1 5093   0.979   0.948  11.395
 1399SOL    HW2 5094   0.956   0.827  11.502
 1400SOL     OW 5095   1.504   1.607  11.216
 1400SOL    HW1 5096   1.412   1.644  11.223
 1400SOL    HW2 5097   1.542   1.627  11.126
 1401SOL     OW 5098   0.372   1.288  12.662
 1401SOL    HW1 5099   0.359   1.381  12.628
 1401SOL    HW2 5100   0.288   1.236  12.649
 1402SOL     OW 5101   1.614   1.292  12.461
 1402SOL    HW1 5102   1.674   1.295  12.541
 1402SOL    HW2 5103   1.539   1.356  12.474
 1403SOL     OW 5104   1.039   1.098  11.868
 1403SOL    HW1 5105   0.969   1.051  11.922
 1403SOL    HW2 5106   1.098   1.030  11.825
 1404SOL     OW 5107   1.014   0.236  12.143
 1404SOL    HW1 5108   1.006   0.200  12.050
 1404SOL    HW2 5109   1.012   0.160  12.208
 1405SOL     OW 5110   0.590   1.487  11.663
 1405SOL    HW1 5111   0.632   1.429  11.593
 1405SOL    HW2 5112   0.546   1.566  11.619
 1406SOL     OW 5113   1.709   0.385  12.553
 1406SOL    HW1 5114   1.782   0.454  12.557
 1406SOL    HW2 5115   1.737   0.310  12.494
 1407SOL     OW 5116   0.255   1.348  11.462
 1407SOL    HW1 5117   0.159   1.349  11.435
 1407SOL    HW2 5118   0.267   1.401  11.546
 1408SOL     OW 5119   0.105   1.013  12.898
 1408SOL    HW1 5120   0.028   0.980  12.952
 1408SOL    HW2 5121   0.190   0.983  12.940
 1409SOL     OW 5122   0.672   0.203  12.661
 1409SOL    HW1 5123   0.762   0.187  12.621
 1409SOL    HW2 5124   0.680   0.208  12.760
 1410SOL     OW 5125   0.075   0.345  11.205
 1410SOL    HW1 5126  -0.017   0.317  11.176
 1410SOL    HW2 5127   0.106   0.422  11.149
 1411SOL     OW 5128   1.440   0.856  12.570
 1411SOL    HW1 5129   1.383   0.908  12.507
 1411SOL    HW2 5130   1.536   0.868  12.546
 1412SOL     OW 5131   0.072   0.166  11.490
 1412SOL    HW1 5132   0.055   0.249  11.436
 1412SOL    HW2 5133   0.162   0.129  11.468
 1413SOL     OW 5134   1.183   1.335  11.291
 1413SOL    HW1 5135   1.084   1.324  11.293
 1413SOL    HW2 5136   1.217   1.350  11.384
 1414SOL     OW 5137   0.613   0.842  12.603
 1414SOL    HW1 5138   0.669   0.923  12.586
 1414SOL    HW2 5139   0.672   0.762  12.606
 1415SOL     OW 5140   1.493   1.767  12.131
 1415SOL    HW1 5141   1.526   1.831  12.062
 1415SOL    HW2 5142   1.559   1.761  12.206
 1416SOL     OW 5143   0.716   0.565  12.880
 1416SOL    HW1 5144   0.735   0.630  12.954
 1416SOL    HW2 5145   0.776   0.485  12.889
 1417SOL     OW 5146   1.450   1.220  12.805
 1417SOL    HW1 5147   1.441   1.210  12.904
 1417SOL    HW2 5148   1.546   1.213  12.779
 1418SOL     OW 5149   0.390   1.741  12.732
 1418SOL    HW1 5150   0.299   1.782  12.730
 1418SOL    HW2 5151   0.383   1.647  12.764
 1419SOL     OW 5152   1.674   0.883  12.426
 1419SOL    HW1 5153   1.647   0.794  12.389
 1419SOL    HW2 5154   1.675   0.951  12.353
 1420SOL     OW 5155   1.225   0.325  11.621
 1420SOL    HW1 5156   1.290   0.251  11.610
 1420SOL    HW2 5157   1.245   0.375  11.705
 1421SOL     OW 5158   0.594   0.745  11.824
 1421SOL    HW1 5159   0.644   0.830  11.805
 1421SOL    HW2 5160   0.506   0.747  11.776
 1422SOL     OW 5161   1.777   0.342  12.814
 1422SOL    HW1 5162   1.760   0.373  12.720
 1422SOL    HW2 5163   1.693   0.305  12.852
 1423SOL     OW 5164   1.730   0.934  12.689
 1423SOL    HW1 5165   1.768   1.025  12.704
 1423SOL    HW2 5166   1.722   0.917  12.590
 1424SOL     OW 5167   0.859   1.374  11.188
 1424SOL    HW1 5168   0.813   1.389  11.276
 1424SOL    HW2 5169   0.903   1.459  11.158
 1425SOL     OW 5170   0.661   1.790  12.125
 1425SOL    HW1 5171   0.615   1.878  12.112
 1425SOL    HW2 5172   0.760   1.802  12.118
 1426SOL     OW 5173   0.859   0.956  12.033
 1426SOL    HW1 5174   0.913   0.887  12.081
 1426SOL    HW2 5175   0.827   1.025  12.099
 1427SOL     OW 5176   1.083   0.984  11.259
 1427SOL    HW1 5177   1.060   1.037  11.177
 1427SOL    HW2 5178   1.164   0.928  11.240
 1428SOL     OW 5179   1.861   1.569  12.023
 1428SOL    HW1 5180   1.790   1.557  11.953
 1428SOL    HW2 5181   1.862   1.490  12.083
 1429SOL     OW 5182   0.221   1.314  13.016
 1429SOL    HW1 5183   0.156   1.241  12.995
 1429SOL    HW2 5184   0.225   1.328  13.114
 1430SOL     OW 5185   0.079   1.240  11.825
 1430SOL    HW1 5186   0.078   1.193  11.913
 1430SOL    HW2 5187   0.161   1.212  11.774
 1431SOL     OW 5188   0.672   1.391  12.796
 1431SOL    HW1 5189   0.594   1.341  12.834
 1431SOL    HW2 5190   0.669   1.486  12.827
 1432SOL     OW 5191   1.824   0.192  12.399
 1432SOL    HW1 5192   1.820   0.102  12.443
 1432SOL    HW2 5193   1.827   0.181  12.300
 1433SOL     OW 5194   0.428   0.424  11.692
 1433SOL    HW1 5195   0.458   0.352  11.630
 1433SOL    HW2 5196   0.389   0.384  11.775
 1434SOL     OW 5197   1.705   1.487  12.276
 1434SOL    HW1 5198   1.612   1.462  12.249
 1434SOL    HW2 5199   1.731   1.437  12.358
 1435SOL     OW 5200   0.317   0.547  12.452
 1435SOL    HW1 5201   0.355   0.488  12.524
 1435SOL    HW2 5202   0.357   0.521  12.364
 1436SOL     OW 5203   0.812   1.586  11.859
 1436SOL    HW1 5204   0.844   1.596  11.765
 1436SOL    HW2 5205   0.733   1.524  11.861
 1437SOL     OW 5206   1.424   0.214  12.284
 1437SOL    HW1 5207   1.476   0.149  12.339
 1437SOL    HW2 5208   1.375   0.277  12.345
 1438SOL     OW 5209   1.001   0.034  12.326
 1438SOL    HW1 5210   0.938  -0.038  12.295
 1438SOL    HW2 5211   1.094  -0.002  12.326
 1439SOL     OW 5212   0.770   1.330  11.473
 1439SOL    HW1 5213   0.724   1.243  11.490
 1439SOL    HW2 5214   0.861   1.327  11.514
 1440SOL     OW 5215   0.618   1.567  12.456
 1440SOL    HW1 5216   0.613   1.649  12.513
 1440SOL    HW2 5217   0.707   1.564  12.411
 1441SOL     OW 5218   1.352   0.052  11.340
 1441SOL    HW1 5219   1.387   0.011  11.256
 1441SOL    HW2 5220   1.262   0.014  11.360
 1442SOL     OW 5221   1.300   0.453  11.863
 1442SOL    HW1 5222   1.241   0.533  11.867
 1442SOL    HW2 5223   1.315   0.418  11.956
 1443SOL     OW 5224   1.593   0.221  12.054
 1443SOL    HW1 5225   1.509   0.220  12.108
 1443SOL    HW2 5226   1.595   0.304  11.998
 1444SOL     OW 5227   0.039   1.077  11.472
 1444SOL    HW1 5228   0.138   1.066  11.463
 1444SOL    HW2 5229  -0.001   0.991  11.504
 1445SOL     OW 5230   0.875   1.646  11.509
 1445SOL    HW1 5231   0.798   1.611  11.455
 1445SOL    HW2 5232   0.843   1.717  11.571
 1446SOL     OW 5233   0.230   0.628  13.147
 1446SOL    HW1 5234   0.137   0.626  13.184
 1446SOL    HW2 5235   0.231   0.589  13.055
 1447SOL     OW 5236   0.225   0.275  14.030
 1447SOL    HW1 5237   0.260   0.258  14.122
 1447SOL    HW2 5238   0.137   0.230  14.018
 1448SOL     OW 5239   0.019   0.368  13.681
 1448SOL    HW1 5240  -0.063   0.411  13.720
 1448SOL    HW2 5241  -0.009   0.295  13.618
 1449SOL     OW 5242   1.555   1.511  13.737
 1449SOL    HW1 5243   1.498   1.495  13.818
 1449SOL    HW2 5244   1.496   1.521  13.657
 1450SOL     OW 5245   1.135   0.703  13.751
 1450SOL    HW1 5246   1.192   0.781  13.726
 1450SOL    HW2 5247   1.075   0.729  13.827
 1451SOL     OW 5248   1.755   0.607  13.265
 1451SOL    HW1 5249   1.743   0.594  13.166
 1451SOL    HW2 5250   1.725   0.526  13.314
 1452SOL     OW 5251   0.685   1.012  13.699
 1452SOL    HW1 5252   0.754   0.996  13.769
 1452SOL    HW2 5253   0.612   1.069  13.737
 1453SOL     OW 5254   1.603   0.447  13.771
 1453SOL    HW1 5255   1.529   0.493  13.721
 1453SOL    HW2 5256   1.654   0.515  13.824
 1454SOL     OW 5257   0.231   1.713  13.517
 1454SOL    HW1 5258   0.265   1.790  13.571
 1454SOL    HW2 5259   0.275   1.713  13.427
 1455SOL     OW 5260   0.230   1.434  13.572
 1455SOL    HW1 5261   0.204   1.530  13.572
 1455SOL    HW2 5262   0.159   1.380  13.617
 1456SOL     OW 5263   0.240   1.091  13.920
 1456SOL    HW1 5264   0.254   1.007  13.972
 1456SOL    HW2 5265   0.185   1.155  13.975
 1457SOL     OW 5266   0.606   0.964  13.157
 1457SOL    HW1 5267   0.613   1.048  13.103
 1457SOL    HW2 5268   0.652   0.977  13.245
 1458SOL     OW 5269   0.122   0.643  13.597
 1458SOL    HW1 5270   0.077   0.555  13.614
 1458SOL    HW2 5271   0.121   0.697  13.681
 1459SOL     OW 5272   0.027   1.596  13.151
 1459SOL    HW1 5273   0.008   1.500  13.172
 1459SOL    HW2 5274  -0.006   1.654  13.226
 1460SOL     OW 5275   1.689   0.922  13.646
 1460SOL    HW1 5276   1.784   0.893  13.654
 1460SOL    HW2 5277   1.681   0.987  13.571
 1461SOL     OW 5278   1.641   1.108  13.466
 1461SOL    HW1 5279   1.727   1.110  13.414
 1461SOL    HW2 5280   1.655   1.155  13.554
 1462SOL     OW 5281   0.613   1.365  13.760
 1462SOL    HW1 5282   0.564   1.278  13.769
 1462SOL    HW2 5283   0.590   1.408  13.673
 1463SOL     OW 5284   0.809   0.004  13.536
 1463SOL    HW1 5285   0.849   0.095  13.527
 1463SOL    HW2 5286   0.709   0.012  13.542
 1464SOL     OW 5287   1.525   0.999  13.224
 1464SOL    HW1 5288   1.462   0.923  13.237
 1464SOL    HW2 5289   1.573   1.017  13.310
 1465SOL     OW 5290   1.667   1.714  13.606
 1465SOL    HW1 5291   1.626   1.691  13.518
 1465SOL    HW2 5292   1.649   1.640  13.671
 1466SOL     OW 5293   0.598   0.729  13.304
 1466SOL    HW1 5294   0.622   0.798  13.236
 1466SOL    HW2 5295   0.520   0.762  13.358
 1467SOL     OW 5296   1.281   0.345  13.978
 1467SOL    HW1 5297   1.195   0.295  13.965
 1467SOL    HW2 5298   1.343   0.291  14.034
 1468SOL     OW 5299   1.576   1.662  13.341
 1468SOL    HW1 5300   1.665   1.708  13.344
 1468SOL    HW2 5301   1.555   1.638  13.246
 1469SOL     OW 5302   1.041   0.701  13.463
 1469SOL    HW1 5303   1.067   0.697  13.559
 1469SOL    HW2 5304   0.956   0.650  13.449
 1470SOL     OW 5305   0.076   0.811  13.823
 1470SOL    HW1 5306   0.175   0.799  13.832
 1470SOL    HW2 5307   0.052   0.906  13.844
 1471SOL     OW 5308   0.865   0.348  13.229
 1471SOL    HW1 5309   0.924   0.411  13.180
 1471SOL    HW2 5310   0.884   0.254  13.200
 1472SOL     OW 5311   1.362   1.144  13.579
 1472SOL    HW1 5312   1.445   1.115  13.531
 1472SOL    HW2 5313   1.313   1.211  13.523
 1473SOL     OW 5314   1.008   1.456  13.511
 1473SOL    HW1 5315   0.962   1.528  13.459
 1473SOL    HW2 5316   1.004   1.476  13.609
 1474SOL     OW 5317   0.351   1.801  13.887
 1474SOL    HW1 5318   0.401   1.715  13.893
 1474SOL    HW2 5319   0.416   1.878  13.884
 1475SOL     OW 5320   1.795   1.066  13.907
 1475SOL    HW1 5321   1.733   1.051  13.831
 1475SOL    HW2 5322   1.743   1.077  13.992
 1476SOL     OW 5323   0.321   0.943  13.276
 1476SOL    HW1 5324   0.403   0.982  13.234
 1476SOL    HW2 5325   0.294   0.861  13.227
 1477SOL     OW 5326   1.458   0.735  13.762
 1477SOL    HW1 5327   1.453   0.670  13.837
 1477SOL    HW2 5328   1.538   0.794  13.775
 1478SOL     OW 5329   1.111   1.776  13.271
 1478SOL    HW1 5330   1.051   1.714  13.321
 1478SOL    HW2 5331   1.142   1.732  13.186
 1479SOL     OW 5332   1.632   1.377  13.115
 1479SOL    HW1 5333   1.600   1.471  13.105
 1479SOL    HW2 5334   1.556   1.314  13.103
 1480SOL     OW 5335   0.464   1.743  13.357
 1480SOL    HW1 5336   0.497   1.782  13.443
 1480SOL    HW2 5337   0.540   1.736  13.292
 1481SOL     OW 5338   1.400   0.107  13.460
 1481SOL    HW1 5339   1.376   0.070  13.370
 1481SOL    HW2 5340   1.499   0.123  13.464
 1482SOL     OW 5341   0.940   1.698  13.938
 1482SOL    HW1 5342   1.020   1.641  13.959
 1482SOL    HW2 5343   0.891   1.658  13.861
 1483SOL     OW 5344   0.382   0.700  13.514
 1483SOL    HW1 5345   0.427   0.610  13.511
 1483SOL    HW2 5346   0.288   0.689  13.547
 1484SOL     OW 5347   0.614   0.122  13.151
 1484SOL    HW1 5348   0.712   0.100  13.158
 1484SOL    HW2 5349   0.583   0.105  13.058
 1485SOL     OW 5350   0.539   0.064  13.546
 1485SOL    HW1 5351   0.458   0.065  13.604
 1485SOL    HW2 5352   0.542   0.147  13.491
 1486SOL     OW 5353   1.434   1.188  13.075
 1486SOL    HW1 5354   1.466   1.112  13.132
 1486SOL    HW2 5355   1.342   1.215  13.105
 1487SOL     OW 5356   0.297   0.035  13.205
 1487SOL    HW1 5357   0.346   0.119  13.184
 1487SOL    HW2 5358   0.359  -0.030  13.250
 1488SOL     OW 5359   0.935   0.236  13.514
 1488SOL    HW1 5360   0.887   0.277  13.436
 1488SOL    HW2 5361   1.034   0.234  13.495
 1489SOL     OW 5362   0.459   1.152  13.775
 1489SOL    HW1 5363   0.388   1.125  13.840
 1489SOL    HW2 5364   0.433   1.124  13.682
 1490SOL     OW 5365   1.271   1.797  13.625
 1490SOL    HW1 5366   1.315   1.861  13.561
 1490SOL    HW2 5367   1.221   1.849  13.695
 1491SOL     OW 5368   1.032   0.549  13.050
 1491SOL    HW1 5369   0.991   0.631  13.011
 1491SOL    HW2 5370   1.096   0.575  13.123
 1492SOL     OW 5371   0.866   0.454  13.676
 1492SOL    HW1 5372   0.834   0.526  13.614
 1492SOL    HW2 5373   0.890   0.373  13.623
 1493SOL     OW 5374   1.017   0.039  13.787
 1493SOL    HW1 5375   0.945   0.044  13.718
 1493SOL    HW2 5376   0.993  -0.030  13.856
 1494SOL     OW 5377   1.857   0.833  13.411
 1494SOL    HW1 5378   1.899   0.769  13.475
 1494SOL    HW2 5379   1.819   0.782  13.333
 1495SOL     OW 5380   0.488   1.385  13.208
 1495SOL    HW1 5381   0.401   1.370  13.255
 1495SOL    HW2 5382   0.471   1.411  13.113
 1496SOL     OW 5383   1.664   1.280  13.691
 1496SOL    HW1 5384   1.763   1.288  13.705
 1496SOL    HW2 5385   1.619   1.364  13.722
 1497SOL     OW 5386   1.390   0.575  13.112
 1497SOL    HW1 5387   1.336   0.554  13.193
 1497SOL    HW2 5388   1.481   0.534  13.121
 1498SOL     OW 5389   0.527   0.256  13.362
 1498SOL    HW1 5390   0.554   0.197  13.287
 1498SOL    HW2 5391   0.527   0.351  13.331
 1499SOL     OW 5392   0.705   1.050  13.402
 1499SOL    HW1 5393   0.691   1.057  13.501
 1499SOL    HW2 5394   0.789   0.999  13.384
 1500SOL     OW 5395   0.367   1.100  13.535
 1500SOL    HW1 5396   0.360   1.183  13.479
 1500SOL    HW2 5397   0.371   1.020  13.475
 1501SOL     OW 5398   0.566   0.537  13.899
 1501SOL    HW1 5399   0.578   0.603  13.825
 1501SOL    HW2 5400   0.612   0.571  13.982
 1502SOL     OW 5401   1.252   1.348  13.422
 1502SOL    HW1 5402   1.302   1.425  13.462
 1502SOL    HW2 5403   1.157   1.350  13.454
 1503SOL     OW 5404   1.582   0.639  13.506
 1503SOL    HW1 5405   1.551   0.700  13.579
 1503SOL    HW2 5406   1.632   0.691  13.437
 1504SOL     OW 5407   1.209   0.525  13.309
 1504SOL    HW1 5408   1.222   0.441  13.363
 1504SOL    HW2 5409   1.180   0.599  13.369
 1505SOL     OW 5410   0.307   0.063  13.652
 1505SOL    HW1 5411   0.296   0.157  13.685
 1505SOL    HW2 5412   0.302   0.000  13.729
 1506SOL     OW 5413   1.622   0.367  13.408
 1506SOL    HW1 5414   1.624   0.291  13.472
 1506SOL    HW2 5415   1.574   0.444  13.448
 1507SOL     OW 5416   1.540   0.274  13.159
 1507SOL    HW1 5417   1.479   0.199  13.182
 1507SOL    HW2 5418   1.562   0.326  13.242
 1508SOL     OW 5419   1.303   0.838  13.076
 1508SOL    HW1 5420   1.337   0.745  13.091
 1508SOL    HW2 5421   1.321   0.865  12.981
 1509SOL     OW 5422   0.008   1.326  13.234
 1509SOL    HW1 5423  -0.085   1.347  13.203
 1509SOL    HW2 5424   0.018   1.227  13.247
 1510SOL     OW 5425   0.815   0.572  13.359
 1510SOL    HW1 5426   0.822   0.483  13.313
 1510SOL    HW2 5427   0.721   0.606  13.351
 1511SOL     OW 5428   0.473   0.500  13.225
 1511SOL    HW1 5429   0.534   0.580  13.229
 1511SOL    HW2 5430   0.378   0.531  13.232
 1512SOL     OW 5431   1.302   0.855  13.343
 1512SOL    HW1 5432   1.216   0.824  13.385
 1512SOL    HW2 5433   1.298   0.841  13.244
 1513SOL     OW 5434   1.726   0.135  13.557
 1513SOL    HW1 5435   1.799   0.118  13.490
 1513SOL    HW2 5436   1.695   0.048  13.595
 1514SOL     OW 5437   1.388   1.573  13.511
 1514SOL    HW1 5438   1.455   1.585  13.437
 1514SOL    HW2 5439   1.348   1.662  13.534
 1515SOL     OW 5440   1.280   0.927  13.706
 1515SOL    HW1 5441   1.340   0.846  13.708
 1515SOL    HW2 5442   1.320   0.996  13.646
 1516SOL     OW 5443   0.672   1.616  13.188
 1516SOL    HW1 5444   0.681   1.626  13.089
 1516SOL    HW2 5445   0.632   1.527  13.209
 1517SOL     OW 5446   1.841   0.175  13.997
 1517SOL    HW1 5447   1.880   0.090  13.961
 1517SOL    HW2 5448   1.743   0.177  13.978
 1518SOL     OW 5449   0.263   0.326  13.754
 1518SOL    HW1 5450   0.184   0.377  13.720
 1518SOL    HW2 5451   0.254   0.311  13.852
 1519SOL     OW 5452   1.194   1.612  13.065
 1519SOL    HW1 5453   1.200   1.519  13.102
 1519SOL    HW2 5454   1.135   1.612  12.985
 1520SOL     OW 5455   0.916   0.910  13.325
 1520SOL    HW1 5456   0.979   0.948  13.257
 1520SOL    HW2 5457   0.956   0.827  13.364
 1521SOL     OW 5458   1.504   1.607  13.078
 1521SOL    HW1 5459   1.412   1.644  13.085
 1521SOL    HW2 5460   1.542   1.627  12.988
 1522SOL     OW 5461   1.039   1.098  13.730
 1522SOL    HW1 5462   0.969   1.051  13.784
 1522SOL    HW2 5463   1.098   1.030  13.687
 1523SOL     OW 5464   0.590   1.487  13.525
 1523SOL    HW1 5465   0.632   1.429  13.455
 1523SOL    HW2 5466   0.546   1.566  13.481
 1524SOL     OW 5467   0.255   1.348  13.324
 1524SOL    HW1 5468   0.159   1.349  13.297
 1524SOL    HW2 5469   0.267   1.401  13.408
 1525SOL     OW 5470   0.075   0.345  13.067
 1525SOL    HW1 5471  -0.017   0.317  13.038
 1525SOL    HW2 5472   0.106   0.422  13.011
 1526SOL     OW 5473   0.072   0.166  13.352
 1526SOL    HW1 5474   0.055   0.249  13.298
 1526SOL    HW2 5475   0.162   0.129  13.330
 1527SOL     OW 5476   1.183   1.335  13.153
 1527SOL    HW1 5477   1.084   1.324  13.155
 1527SOL    HW2 5478   1.217   1.350  13.246
 1528SOL     OW 5479   1.225   0.325  13.483
 1528SOL    HW1 5480   1.290   0.251  13.472
 1528SOL    HW2 5481   1.245   0.375  13.567
 1529SOL     OW 5482   0.594   0.745  13.686
 1529SOL    HW1 5483   0.644   0.830  13.667
 1529SOL    HW2 5484   0.506   0.747  13.638
 1530SOL     OW 5485   0.859   1.374  13.050
 1530SOL    HW1 5486   0.813   1.389  13.138
 1530SOL    HW2 5487   0.903   1.459  13.020
 1531SOL     OW 5488   0.661   1.790  13.987
 1531SOL    HW1 5489   0.615   1.878  13.974
 1531SOL    HW2 5490   0.760   1.802  13.980
 1532SOL     OW 5491   0.859   0.956  13.895
 1532SOL    HW1 5492   0.913   0.887  13.943
 1532SOL    HW2 5493   0.827   1.025  13.961
 1533SOL     OW 5494   1.083   0.984  13.121
 1533SOL    HW1 5495   1.060   1.037  13.039
 1533SOL    HW2 5496   1.164   0.928  13.102
 1534SOL     OW 5497   0.079   1.240  13.687
 1534SOL    HW1 5498   0.078   1.193  13.775
 1534SOL    HW2 5499   0.161   1.212  13.636
 1535SOL     OW 5500   0.428   0.424  13.554
 1535SOL    HW1 5501   0.458   0.352  13.492
 1535SOL    HW2 5502   0.389   0.384  13.637
 1536SOL     OW 5503   1.705   1.487  14.138
 1536SOL    HW1 5504   1.612   1.462  14.111
 1536SOL    HW2 5505   1.731   1.437  14.220
 1537SOL     OW 5506   0.812   1.586  13.721
 1537SOL    HW1 5507   0.844   1.596  13.627
 1537SOL    HW2 5508   0.733   1.524  13.723
 1538SOL     OW 5509   0.770   1.330  13.335
 1538SOL    HW1 5510   0.724   1.243  13.352
 1538SOL    HW2 5511   0.861   1.327  13.376
 1539SOL     OW 5512   1.352   0.052  13.202
 1539SOL    HW1 5513   1.387   0.011  13.118
 1539SOL    HW2 5514   1.262   0.014  13.222
 1540SOL     OW 5515   1.300   0.453  13.725
 1540SOL    HW1 5516   1.241   0.533  13.729
 1540SOL    HW2 5517   1.315   0.418  13.818
 1541SOL     OW 5518   0.039   1.077  13.334
 1541SOL    HW1 5519   0.138   1.066  13.325
 1541SOL    HW2 5520  -0.001   0.991  13.366
 1542SOL     OW 5521   0.875   1.646  13.371
 1542SOL    HW1 5522   0.798   1.611  13.317
 1542SOL    HW2 5523   0.843   1.717  13.433
 1543SOL     OW 5524   0.230   2.490   0.113
 1543SOL    HW1 5525   0.137   2.488   0.150
 1543SOL    HW2 5526   0.231   2.451   0.021
 1544SOL     OW 5527   0.225   2.137   0.996
 1544SOL    HW1 5528   0.260   2.120   1.088
 1544SOL    HW2 5529   0.137   2.092   0.984
 1545SOL     OW 5530   0.019   2.230   0.647
 1545SOL    HW1 5531  -0.063   2.273   0.686
 1545SOL    HW2 5532  -0.009   2.157   0.584
 1546SOL     OW 5533   0.569   3.137   1.165
 1546SOL    HW1 5534   0.476   3.130   1.128
 1546SOL    HW2 5535   0.580   3.226   1.209
 1547SOL     OW 5536   1.555   3.373   0.703
 1547SOL    HW1 5537   1.498   3.357   0.784
 1547SOL    HW2 5538   1.496   3.383   0.623
 1548SOL     OW 5539   1.135   2.565   0.717
 1548SOL    HW1 5540   1.192   2.643   0.692
 1548SOL    HW2 5541   1.075   2.591   0.793
 1549SOL     OW 5542   1.755   2.469   0.231
 1549SOL    HW1 5543   1.743   2.456   0.132
 1549SOL    HW2 5544   1.725   2.388   0.280
 1550SOL     OW 5545   0.768   3.006   1.023
 1550SOL    HW1 5546   0.690   3.023   1.083
 1550SOL    HW2 5547   0.802   3.093   0.987
 1551SOL     OW 5548   0.850   2.660   1.823
 1551SOL    HW1 5549   0.846   2.736   1.888
 1551SOL    HW2 5550   0.872   2.696   1.732
 1552SOL     OW 5551   0.685   2.874   0.665
 1552SOL    HW1 5552   0.754   2.858   0.735
 1552SOL    HW2 5553   0.612   2.931   0.703
 1553SOL     OW 5554   0.686   3.023   1.803
 1553SOL    HW1 5555   0.746   3.102   1.817
 1553SOL    HW2 5556   0.600   3.054   1.762
 1554SOL     OW 5557   0.335   3.297   1.061
 1554SOL    HW1 5558   0.257   3.266   1.008
 1554SOL    HW2 5559   0.393   3.355   1.004
 1555SOL     OW 5560   1.460   3.367   1.339
 1555SOL    HW1 5561   1.484   3.461   1.365
 1555SOL    HW2 5562   1.444   3.313   1.421
 1556SOL     OW 5563   0.438   2.254   1.499
 1556SOL    HW1 5564   0.520   2.198   1.508
 1556SOL    HW2 5565   0.357   2.196   1.503
 1557SOL     OW 5566   1.603   2.309   0.737
 1557SOL    HW1 5567   1.529   2.355   0.687
 1557SOL    HW2 5568   1.654   2.377   0.790
 1558SOL     OW 5569   0.231   3.575   0.483
 1558SOL    HW1 5570   0.265   3.652   0.537
 1558SOL    HW2 5571   0.275   3.575   0.393
 1559SOL     OW 5572   1.127   3.203   1.690
 1559SOL    HW1 5573   1.174   3.203   1.778
 1559SOL    HW2 5574   1.079   3.116   1.679
 1560SOL     OW 5575   0.230   3.296   0.538
 1560SOL    HW1 5576   0.204   3.392   0.538
 1560SOL    HW2 5577   0.159   3.242   0.583
 1561SOL     OW 5578   0.240   2.953   0.886
 1561SOL    HW1 5579   0.254   2.869   0.938
 1561SOL    HW2 5580   0.185   3.017   0.941
 1562SOL     OW 5581   0.620   3.648   1.439
 1562SOL    HW1 5582   0.528   3.631   1.474
 1562SOL    HW2 5583   0.648   3.740   1.465
 1563SOL     OW 5584   0.606   2.826   0.123
 1563SOL    HW1 5585   0.613   2.910   0.069
 1563SOL    HW2 5586   0.652   2.839   0.211
 1564SOL     OW 5587   1.594   1.976   1.480
 1564SOL    HW1 5588   1.576   2.043   1.408
 1564SOL    HW2 5589   1.591   2.022   1.569
 1565SOL     OW 5590   0.122   2.505   0.563
 1565SOL    HW1 5591   0.077   2.417   0.580
 1565SOL    HW2 5592   0.121   2.559   0.647
 1566SOL     OW 5593   1.842   3.629   0.359
 1566SOL    HW1 5594   1.896   3.600   0.439
 1566SOL    HW2 5595   1.872   3.719   0.330
 1567SOL     OW 5596   0.027   3.458   0.117
 1567SOL    HW1 5597   0.008   3.362   0.138
 1567SOL    HW2 5598  -0.006   3.516   0.192
 1568SOL     OW 5599   1.689   2.784   0.612
 1568SOL    HW1 5600   1.784   2.755   0.620
 1568SOL    HW2 5601   1.681   2.849   0.537
 1569SOL     OW 5602   1.641   2.970   0.432
 1569SOL    HW1 5603   1.727   2.972   0.380
 1569SOL    HW2 5604   1.655   3.017   0.520
 1570SOL     OW 5605   0.113   2.599   1.597
 1570SOL    HW1 5606   0.201   2.586   1.642
 1570SOL    HW2 5607   0.100   2.696   1.575
 1571SOL     OW 5608   0.613   3.227   0.726
 1571SOL    HW1 5609   0.564   3.140   0.735
 1571SOL    HW2 5610   0.590   3.270   0.639
 1572SOL     OW 5611   1.293   3.090   1.423
 1572SOL    HW1 5612   1.330   3.017   1.365
 1572SOL    HW2 5613   1.345   3.095   1.508
 1573SOL     OW 5614   0.809   1.866   0.502
 1573SOL    HW1 5615   0.849   1.957   0.493
 1573SOL    HW2 5616   0.709   1.874   0.508
 1574SOL     OW 5617   0.197   2.838   1.264
 1574SOL    HW1 5618   0.286   2.793   1.250
 1574SOL    HW2 5619   0.124   2.773   1.245
 1575SOL     OW 5620   1.525   2.861   0.190
 1575SOL    HW1 5621   1.462   2.785   0.203
 1575SOL    HW2 5622   1.573   2.879   0.276
 1576SOL     OW 5623   1.187   3.654   1.616
 1576SOL    HW1 5624   1.211   3.714   1.540
 1576SOL    HW2 5625   1.194   3.559   1.586
 1577SOL     OW 5626   0.317   2.113   1.801
 1577SOL    HW1 5627   0.388   2.184   1.807
 1577SOL    HW2 5628   0.229   2.152   1.829
 1578SOL     OW 5629   1.466   3.279   0.953
 1578SOL    HW1 5630   1.407   3.285   1.033
 1578SOL    HW2 5631   1.451   3.191   0.907
 1579SOL     OW 5632   1.667   3.576   0.572
 1579SOL    HW1 5633   1.626   3.553   0.484
 1579SOL    HW2 5634   1.649   3.502   0.637
 1580SOL     OW 5635   0.598   2.591   0.270
 1580SOL    HW1 5636   0.622   2.660   0.202
 1580SOL    HW2 5637   0.520   2.624   0.324
 1581SOL     OW 5638   1.281   2.207   0.944
 1581SOL    HW1 5639   1.195   2.157   0.931
 1581SOL    HW2 5640   1.343   2.153   1.000
 1582SOL     OW 5641   1.576   3.524   0.307
 1582SOL    HW1 5642   1.665   3.570   0.310
 1582SOL    HW2 5643   1.555   3.500   0.212
 1583SOL     OW 5644   0.807   2.467   1.465
 1583SOL    HW1 5645   0.760   2.464   1.554
 1583SOL    HW2 5646   0.756   2.412   1.399
 1584SOL     OW 5647   1.394   2.331   1.674
 1584SOL    HW1 5648   1.374   2.374   1.762
 1584SOL    HW2 5649   1.472   2.269   1.683
 1585SOL     OW 5650   0.973   2.752   1.572
 1585SOL    HW1 5651   1.019   2.668   1.543
 1585SOL    HW2 5652   0.917   2.786   1.497
 1586SOL     OW 5653   0.991   2.272   1.242
 1586SOL    HW1 5654   0.914   2.306   1.296
 1586SOL    HW2 5655   0.957   2.221   1.163
 1587SOL     OW 5656   1.041   2.563   0.429
 1587SOL    HW1 5657   1.067   2.559   0.525
 1587SOL    HW2 5658   0.956   2.512   0.415
 1588SOL     OW 5659   0.076   2.673   0.789
 1588SOL    HW1 5660   0.175   2.661   0.798
 1588SOL    HW2 5661   0.052   2.768   0.810
 1589SOL     OW 5662   0.130   3.683   1.571
 1589SOL    HW1 5663   0.120   3.668   1.670
 1589SOL    HW2 5664   0.044   3.719   1.535
 1590SOL     OW 5665   0.865   2.210   0.195
 1590SOL    HW1 5666   0.924   2.273   0.146
 1590SOL    HW2 5667   0.884   2.116   0.166
 1591SOL     OW 5668   1.719   2.447   1.831
 1591SOL    HW1 5669   1.693   2.536   1.795
 1591SOL    HW2 5670   1.717   2.379   1.758
 1592SOL     OW 5671   1.362   3.006   0.545
 1592SOL    HW1 5672   1.445   2.977   0.497
 1592SOL    HW2 5673   1.313   3.073   0.489
 1593SOL     OW 5674   0.550   2.058   0.885
 1593SOL    HW1 5675   0.545   2.053   0.985
 1593SOL    HW2 5676   0.552   2.154   0.856
 1594SOL     OW 5677   1.008   3.318   0.477
 1594SOL    HW1 5678   0.962   3.390   0.425
 1594SOL    HW2 5679   1.004   3.338   0.575
 1595SOL     OW 5680   0.351   3.663   0.853
 1595SOL    HW1 5681   0.401   3.577   0.859
 1595SOL    HW2 5682   0.416   3.740   0.850
 1596SOL     OW 5683   1.795   2.928   0.873
 1596SOL    HW1 5684   1.733   2.913   0.797
 1596SOL    HW2 5685   1.743   2.939   0.958
 1597SOL     OW 5686   1.227   3.412   1.506
 1597SOL    HW1 5687   1.233   3.335   1.570
 1597SOL    HW2 5688   1.175   3.386   1.426
 1598SOL     OW 5689   0.321   2.805   0.242
 1598SOL    HW1 5690   0.403   2.844   0.200
 1598SOL    HW2 5691   0.294   2.723   0.193
 1599SOL     OW 5692   1.458   2.597   0.728
 1599SOL    HW1 5693   1.453   2.532   0.803
 1599SOL    HW2 5694   1.538   2.656   0.741
 1600SOL     OW 5695   0.461   3.128   1.727
 1600SOL    HW1 5696   0.411   3.129   1.641
 1600SOL    HW2 5697   0.398   3.110   1.803
 1601SOL     OW 5698   1.111   3.638   0.237
 1601SOL    HW1 5699   1.051   3.576   0.287
 1601SOL    HW2 5700   1.142   3.594   0.152
 1602SOL     OW 5701   0.202   2.147   1.498
 1602SOL    HW1 5702   0.122   2.207   1.485
 1602SOL    HW2 5703   0.192   2.098   1.584
 1603SOL     OW 5704   1.632   3.239   0.081
 1603SOL    HW1 5705   1.600   3.333   0.071
 1603SOL    HW2 5706   1.556   3.176   0.069
 1604SOL     OW 5707   0.464   3.605   0.323
 1604SOL    HW1 5708   0.497   3.644   0.409
 1604SOL    HW2 5709   0.540   3.598   0.258
 1605SOL     OW 5710   1.400   1.969   0.426
 1605SOL    HW1 5711   1.376   1.932   0.336
 1605SOL    HW2 5712   1.499   1.985   0.430
 1606SOL     OW 5713   0.249   3.647   1.241
 1606SOL    HW1 5714   0.306   3.582   1.291
 1606SOL    HW2 5715   0.233   3.614   1.148
 1607SOL     OW 5716   0.940   3.560   0.904
 1607SOL    HW1 5717   1.020   3.503   0.925
 1607SOL    HW2 5718   0.891   3.520   0.827
 1608SOL     OW 5719   0.382   2.562   0.480
 1608SOL    HW1 5720   0.427   2.472   0.477
 1608SOL    HW2 5721   0.288   2.551   0.513
 1609SOL     OW 5722   1.547   2.084   1.729
 1609SOL    HW1 5723   1.542   2.121   1.821
 1609SOL    HW2 5724   1.475   2.015   1.717
 1610SOL     OW 5725   0.781   2.126   1.749
 1610SOL    HW1 5726   0.848   2.065   1.792
 1610SOL    HW2 5727   0.708   2.145   1.814
 1611SOL     OW 5728   0.888   3.376   1.195
 1611SOL    HW1 5729   0.865   3.351   1.101
 1611SOL    HW2 5730   0.949   3.307   1.234
 1612SOL     OW 5731   1.351   2.452   1.433
 1612SOL    HW1 5732   1.379   2.409   1.518
 1612SOL    HW2 5733   1.376   2.548   1.434
 1613SOL     OW 5734   0.803   3.264   0.924
 1613SOL    HW1 5735   0.893   3.278   0.882
 1613SOL    HW2 5736   0.732   3.266   0.853
 1614SOL     OW 5737   0.922   2.365   0.899
 1614SOL    HW1 5738   0.897   2.356   0.803
 1614SOL    HW2 5739   0.970   2.283   0.930
 1615SOL     OW 5740   0.539   1.926   0.512
 1615SOL    HW1 5741   0.458   1.927   0.570
 1615SOL    HW2 5742   0.542   2.009   0.457
 1616SOL     OW 5743   1.434   3.050   0.041
 1616SOL    HW1 5744   1.466   2.974   0.098
 1616SOL    HW2 5745   1.342   3.077   0.071
 1617SOL     OW 5746   0.297   1.897   0.171
 1617SOL    HW1 5747   0.346   1.981   0.150
 1617SOL    HW2 5748   0.359   1.832   0.216
 1618SOL     OW 5749   0.935   2.098   0.480
 1618SOL    HW1 5750   0.887   2.139   0.402
 1618SOL    HW2 5751   1.034   2.096   0.461
 1619SOL     OW 5752   1.076   2.545   1.464
 1619SOL    HW1 5753   0.996   2.484   1.467
 1619SOL    HW2 5754   1.157   2.492   1.440
 1620SOL     OW 5755   1.227   3.432   0.793
 1620SOL    HW1 5756   1.248   3.506   0.728
 1620SOL    HW2 5757   1.295   3.432   0.866
 1621SOL     OW 5758   0.459   3.014   0.741
 1621SOL    HW1 5759   0.388   2.987   0.806
 1621SOL    HW2 5760   0.433   2.986   0.648
 1622SOL     OW 5761   1.271   3.659   0.591
 1622SOL    HW1 5762   1.315   3.723   0.527
 1622SOL    HW2 5763   1.221   3.711   0.661
 1623SOL     OW 5764   1.032   2.411   0.016
 1623SOL    HW1 5765   0.991   2.493  -0.023
 1623SOL    HW2 5766   1.096   2.437   0.089
 1624SOL     OW 5767   0.078   2.418   1.386
 1624SOL    HW1 5768   0.170   2.417   1.345
 1624SOL    HW2 5769   0.072   2.492   1.453
 1625SOL     OW 5770   0.561   2.084   1.147
 1625SOL    HW1 5771   0.599   2.000   1.184
 1625SOL    HW2 5772   0.473   2.103   1.191
 1626SOL     OW 5773   0.866   2.316   0.642
 1626SOL    HW1 5774   0.834   2.388   0.580
 1626SOL    HW2 5775   0.890   2.235   0.589
 1627SOL     OW 5776   1.017   1.901   0.753
 1627SOL    HW1 5777   0.945   1.906   0.684
 1627SOL    HW2 5778   0.993   1.832   0.822
 1628SOL     OW 5779   1.429   3.035   0.867
 1628SOL    HW1 5780   1.374   2.951   0.860
 1628SOL    HW2 5781   1.455   3.064   0.775
 1629SOL     OW 5782   1.466   2.452   0.992
 1629SOL    HW1 5783   1.436   2.357   0.999
 1629SOL    HW2 5784   1.539   2.468   1.058
 1630SOL     OW 5785   1.857   2.695   0.377
 1630SOL    HW1 5786   1.899   2.631   0.441
 1630SOL    HW2 5787   1.819   2.644   0.299
 1631SOL     OW 5788   0.488   3.247   0.174
 1631SOL    HW1 5789   0.401   3.232   0.221
 1631SOL    HW2 5790   0.471   3.273   0.079
 1632SOL     OW 5791   1.664   3.142   0.657
 1632SOL    HW1 5792   1.763   3.150   0.671
 1632SOL    HW2 5793   1.619   3.226   0.688
 1633SOL     OW 5794   1.390   2.437   0.078
 1633SOL    HW1 5795   1.336   2.416   0.159
 1633SOL    HW2 5796   1.481   2.396   0.087
 1634SOL     OW 5797   0.527   2.118   0.328
 1634SOL    HW1 5798   0.554   2.059   0.253
 1634SOL    HW2 5799   0.527   2.213   0.297
 1635SOL     OW 5800   1.754   3.085   1.588
 1635SOL    HW1 5801   1.845   3.046   1.575
 1635SOL    HW2 5802   1.762   3.181   1.612
 1636SOL     OW 5803   1.064   3.209   1.340
 1636SOL    HW1 5804   0.984   3.186   1.395
 1636SOL    HW2 5805   1.147   3.183   1.389
 1637SOL     OW 5806   1.592   3.491   1.625
 1637SOL    HW1 5807   1.619   3.525   1.535
 1637SOL    HW2 5808   1.671   3.453   1.671
 1638SOL     OW 5809   1.111   3.057   1.100
 1638SOL    HW1 5810   1.071   3.101   1.181
 1638SOL    HW2 5811   1.070   3.094   1.017
 1639SOL     OW 5812   1.638   2.961   1.079
 1639SOL    HW1 5813   1.643   3.042   1.138
 1639SOL    HW2 5814   1.552   2.963   1.028
 1640SOL     OW 5815   0.915   1.951   1.402
 1640SOL    HW1 5816   0.940   1.931   1.307
 1640SOL    HW2 5817   0.987   2.007   1.444
 1641SOL     OW 5818   0.980   2.978   1.719
 1641SOL    HW1 5819   0.881   2.984   1.729
 1641SOL    HW2 5820   1.003   2.898   1.663
 1642SOL     OW 5821   0.705   2.912   0.368
 1642SOL    HW1 5822   0.691   2.919   0.467
 1642SOL    HW2 5823   0.789   2.861   0.350
 1643SOL     OW 5824   0.410   2.675   1.251
 1643SOL    HW1 5825   0.496   2.687   1.301
 1643SOL    HW2 5826   0.368   2.588   1.278
 1644SOL     OW 5827   1.274   2.248   1.262
 1644SOL    HW1 5828   1.295   2.322   1.326
 1644SOL    HW2 5829   1.185   2.265   1.219
 1645SOL     OW 5830   0.064   3.426   1.331
 1645SOL    HW1 5831   0.018   3.508   1.297
 1645SOL    HW2 5832   0.162   3.445   1.340
 1646SOL     OW 5833   0.367   2.962   0.501
 1646SOL    HW1 5834   0.360   3.045   0.445
 1646SOL    HW2 5835   0.371   2.882   0.441
 1647SOL     OW 5836   0.566   2.399   0.865
 1647SOL    HW1 5837   0.578   2.465   0.791
 1647SOL    HW2 5838   0.612   2.433   0.948
 1648SOL     OW 5839   1.252   3.210   0.388
 1648SOL    HW1 5840   1.302   3.287   0.428
 1648SOL    HW2 5841   1.157   3.212   0.420
 1649SOL     OW 5842   1.272   3.307   1.142
 1649SOL    HW1 5843   1.319   3.320   1.229
 1649SOL    HW2 5844   1.206   3.233   1.151
 1650SOL     OW 5845   1.582   2.501   0.472
 1650SOL    HW1 5846   1.551   2.562   0.545
 1650SOL    HW2 5847   1.632   2.553   0.403
 1651SOL     OW 5848   0.354   3.372   1.329
 1651SOL    HW1 5849   0.333   3.328   1.242
 1651SOL    HW2 5850   0.451   3.398   1.332
 1652SOL     OW 5851   0.402   2.613   1.598
 1652SOL    HW1 5852   0.470   2.668   1.551
 1652SOL    HW2 5853   0.442   2.525   1.625
 1653SOL     OW 5854   1.587   2.641   1.670
 1653SOL    HW1 5855   1.495   2.679   1.665
 1653SOL    HW2 5856   1.647   2.688   1.605
 1654SOL     OW 5857   1.013   1.967   1.770
 1654SOL    HW1 5858   1.019   2.052   1.718
 1654SOL    HW2 5859   1.045   1.891   1.713
 1655SOL     OW 5860   0.504   1.912   1.740
 1655SOL    HW1 5861   0.462   1.855   1.670
 1655SOL    HW2 5862   0.438   1.981   1.772
 1656SOL     OW 5863   0.573   2.732   1.029
 1656SOL    HW1 5864   0.617   2.821   1.020
 1656SOL    HW2 5865   0.510   2.732   1.106
 1657SOL     OW 5866   1.360   2.724   1.045
 1657SOL    HW1 5867   1.285   2.724   0.979
 1657SOL    HW2 5868   1.397   2.632   1.054
 1658SOL     OW 5869   1.209   2.387   0.275
 1658SOL    HW1 5870   1.222   2.303   0.329
 1658SOL    HW2 5871   1.180   2.461   0.335
 1659SOL     OW 5872   0.307   2.075   1.231
 1659SOL    HW1 5873   0.284   2.112   1.321
 1659SOL    HW2 5874   0.277   1.980   1.225
 1660SOL     OW 5875   0.037   3.172   1.282
 1660SOL    HW1 5876   0.090   3.123   1.350
 1660SOL    HW2 5877   0.059   3.270   1.287
 1661SOL     OW 5878   0.732   2.496   1.064
 1661SOL    HW1 5879   0.791   2.470   0.988
 1661SOL    HW2 5880   0.704   2.592   1.053
 1662SOL     OW 5881   1.728   2.797   1.854
 1662SOL    HW1 5882   1.682   2.790   1.765
 1662SOL    HW2 5883   1.666   2.841   1.920
 1663SOL     OW 5884   0.307   1.925   0.618
 1663SOL    HW1 5885   0.296   2.019   0.651
 1663SOL    HW2 5886   0.302   1.862   0.695
 1664SOL     OW 5887   1.622   2.229   0.374
 1664SOL    HW1 5888   1.624   2.153   0.438
 1664SOL    HW2 5889   1.574   2.306   0.414
 1665SOL     OW 5890   1.023   2.628   0.966
 1665SOL    HW1 5891   1.038   2.649   1.062
 1665SOL    HW2 5892   0.993   2.533   0.957
 1666SOL     OW 5893   0.980   3.435   1.700
 1666SOL    HW1 5894   0.960   3.479   1.612
 1666SOL    HW2 5895   1.019   3.344   1.684
 1667SOL     OW 5896   1.859   3.380   1.605
 1667SOL    HW1 5897   1.873   3.407   1.510
 1667SOL    HW2 5898   1.942   3.402   1.658
 1668SOL     OW 5899   0.350   2.760   1.804
 1668SOL    HW1 5900   0.426   2.804   1.852
 1668SOL    HW2 5901   0.385   2.713   1.722
 1669SOL     OW 5902   1.540   2.136   0.125
 1669SOL    HW1 5903   1.479   2.061   0.148
 1669SOL    HW2 5904   1.562   2.188   0.208
 1670SOL     OW 5905   1.303   2.700   0.042
 1670SOL    HW1 5906   1.337   2.607   0.057
 1670SOL    HW2 5907   1.321   2.727  -0.053
 1671SOL     OW 5908   1.068   3.195   0.849
 1671SOL    HW1 5909   1.075   3.111   0.794
 1671SOL    HW2 5910   1.130   3.264   0.813
 1672SOL     OW 5911   0.319   2.672   0.949
 1672SOL    HW1 5912   0.412   2.708   0.954
 1672SOL    HW2 5913   0.313   2.587   1.001
 1673SOL     OW 5914   0.339   2.371   1.006
 1673SOL    HW1 5915   0.287   2.288   0.989
 1673SOL    HW2 5916   0.416   2.376   0.942
 1674SOL     OW 5917   1.138   2.242   1.678
 1674SOL    HW1 5918   1.093   2.305   1.742
 1674SOL    HW2 5919   1.231   2.273   1.661
 1675SOL     OW 5920   1.160   2.069   1.477
 1675SOL    HW1 5921   1.160   2.133   1.554
 1675SOL    HW2 5922   1.188   2.117   1.394
 1676SOL     OW 5923   0.008   3.188   0.200
 1676SOL    HW1 5924  -0.085   3.209   0.169
 1676SOL    HW2 5925   0.018   3.089   0.213
 1677SOL     OW 5926   0.088   3.663   0.927
 1677SOL    HW1 5927   0.046   3.577   0.900
 1677SOL    HW2 5928   0.182   3.666   0.893
 1678SOL     OW 5929   0.504   3.430   0.910
 1678SOL    HW1 5930   0.570   3.504   0.919
 1678SOL    HW2 5931   0.548   3.351   0.868
 1679SOL     OW 5932   1.002   2.658   1.238
 1679SOL    HW1 5933   1.043   2.626   1.324
 1679SOL    HW2 5934   0.906   2.631   1.235
 1680SOL     OW 5935   0.040   2.406   1.114
 1680SOL    HW1 5936   0.125   2.373   1.073
 1680SOL    HW2 5937   0.053   2.421   1.212
 1681SOL     OW 5938   0.189   2.382   1.722
 1681SOL    HW1 5939   0.248   2.342   1.652
 1681SOL    HW2 5940   0.131   2.453   1.681
 1682SOL     OW 5941   1.369   2.812   1.660
 1682SOL    HW1 5942   1.408   2.901   1.680
 1682SOL    HW2 5943   1.379   2.792   1.563
 1683SOL     OW 5944   0.815   2.434   0.325
 1683SOL    HW1 5945   0.822   2.345   0.279
 1683SOL    HW2 5946   0.721   2.468   0.317
 1684SOL     OW 5947   1.657   2.466   1.206
 1684SOL    HW1 5948   1.619   2.397   1.268
 1684SOL    HW2 5949   1.739   2.430   1.162
 1685SOL     OW 5950   0.252   3.426   1.744
 1685SOL    HW1 5951   0.222   3.483   1.820
 1685SOL    HW2 5952   0.245   3.329   1.770
 1686SOL     OW 5953   0.671   2.326   1.269
 1686SOL    HW1 5954   0.637   2.237   1.239
 1686SOL    HW2 5955   0.697   2.380   1.189
 1687SOL     OW 5956   0.930   3.540   1.465
 1687SOL    HW1 5957   0.906   3.522   1.370
 1687SOL    HW2 5958   0.960   3.634   1.475
 1688SOL     OW 5959   0.473   2.362   0.191
 1688SOL    HW1 5960   0.534   2.442   0.195
 1688SOL    HW2 5961   0.378   2.393   0.198
 1689SOL     OW 5962   0.159   2.999   1.466
 1689SOL    HW1 5963   0.181   2.938   1.542
 1689SOL    HW2 5964   0.169   2.950   1.380
 1690SOL     OW 5965   1.347   2.921   1.234
 1690SOL    HW1 5966   1.371   2.858   1.160
 1690SOL    HW2 5967   1.257   2.961   1.216
 1691SOL     OW 5968   1.302   2.717   0.309
 1691SOL    HW1 5969   1.216   2.686   0.351
 1691SOL    HW2 5970   1.298   2.703   0.210
 1692SOL     OW 5971   1.759   3.609   1.154
 1692SOL    HW1 5972   1.820   3.639   1.081
 1692SOL    HW2 5973   1.721   3.520   1.132
 1693SOL     OW 5974   1.252   3.593   1.128
 1693SOL    HW1 5975   1.336   3.598   1.074
 1693SOL    HW2 5976   1.229   3.497   1.146
 1694SOL     OW 5977   0.083   3.120   1.022
 1694SOL    HW1 5978   0.078   3.119   1.122
 1694SOL    HW2 5979   0.000   3.079   0.984
 1695SOL     OW 5980   0.688   3.524   1.716
 1695SOL    HW1 5981   0.632   3.605   1.725
 1695SOL    HW2 5982   0.740   3.528   1.630
 1696SOL     OW 5983   0.903   1.948   0.133
 1696SOL    HW1 5984   0.954   1.949   0.047
 1696SOL    HW2 5985   0.959   1.906   0.204
 1697SOL     OW 5986   1.388   3.435   0.477
 1697SOL    HW1 5987   1.455   3.447   0.403
 1697SOL    HW2 5988   1.348   3.524   0.500
 1698SOL     OW 5989   0.130   3.656   1.851
 1698SOL    HW1 5990   0.089   3.582   1.904
 1698SOL    HW2 5991   0.194   3.707   1.909
 1699SOL     OW 5992   1.280   2.789   0.672
 1699SOL    HW1 5993   1.340   2.708   0.674
 1699SOL    HW2 5994   1.320   2.858   0.612
 1700SOL     OW 5995   0.830   3.135   1.422
 1700SOL    HW1 5996   0.825   3.168   1.517
 1700SOL    HW2 5997   0.744   3.154   1.376
 1701SOL     OW 5998   0.672   3.478   0.154
 1701SOL    HW1 5999   0.681   3.488   0.055
 1701SOL    HW2 6000   0.632   3.389   0.175
 1702SOL     OW 6001   1.650   3.582   1.394
 1702SOL    HW1 6002   1.703   3.592   1.310
 1702SOL    HW2 6003   1.623   3.672   1.428
 1703SOL     OW 6004   0.263   2.188   0.720
 1703SOL    HW1 6005   0.184   2.239   0.686
 1703SOL    HW2 6006   0.254   2.173   0.818
 1704SOL     OW 6007   1.194   3.474   0.031
 1704SOL    HW1 6008   1.200   3.381   0.068
 1704SOL    HW2 6009   1.135   3.474  -0.049
 1705SOL     OW 6010   0.822   2.864   1.372
 1705SOL    HW1 6011   0.862   2.863   1.280
 1705SOL    HW2 6012   0.832   2.956   1.412
 1706SOL     OW 6013   0.916   2.772   0.291
 1706SOL    HW1 6014   0.979   2.810   0.223
 1706SOL    HW2 6015   0.956   2.689   0.330
 1707SOL     OW 6016   1.504   3.469   0.044
 1707SOL    HW1 6017   1.412   3.506   0.051
 1707SOL    HW2 6018   1.542   3.489  -0.046
 1708SOL     OW 6019   0.372   3.150   1.490
 1708SOL    HW1 6020   0.359   3.243   1.456
 1708SOL    HW2 6021   0.288   3.098   1.477
 1709SOL     OW 6022   1.614   3.154   1.289
 1709SOL    HW1 6023   1.674   3.157   1.369
 1709SOL    HW2 6024   1.539   3.218   1.302
 1710SOL     OW 6025   1.039   2.960   0.696
 1710SOL    HW1 6026   0.969   2.913   0.750
 1710SOL    HW2 6027   1.098   2.892   0.653
 1711SOL     OW 6028   1.014   2.098   0.971
 1711SOL    HW1 6029   1.006   2.062   0.878
 1711SOL    HW2 6030   1.012   2.022   1.036
 1712SOL     OW 6031   0.590   3.349   0.491
 1712SOL    HW1 6032   0.632   3.291   0.421
 1712SOL    HW2 6033   0.546   3.428   0.447
 1713SOL     OW 6034   1.709   2.247   1.381
 1713SOL    HW1 6035   1.782   2.316   1.385
 1713SOL    HW2 6036   1.737   2.172   1.322
 1714SOL     OW 6037   0.255   3.210   0.290
 1714SOL    HW1 6038   0.159   3.211   0.263
 1714SOL    HW2 6039   0.267   3.263   0.374
 1715SOL     OW 6040   0.105   2.875   1.726
 1715SOL    HW1 6041   0.028   2.842   1.780
 1715SOL    HW2 6042   0.190   2.845   1.768
 1716SOL     OW 6043   0.672   2.065   1.489
 1716SOL    HW1 6044   0.762   2.049   1.449
 1716SOL    HW2 6045   0.680   2.070   1.588
 1717SOL     OW 6046   0.075   2.207   0.033
 1717SOL    HW1 6047  -0.017   2.179   0.004
 1717SOL    HW2 6048   0.106   2.284  -0.023
 1718SOL     OW 6049   1.440   2.718   1.398
 1718SOL    HW1 6050   1.383   2.770   1.335
 1718SOL    HW2 6051   1.536   2.730   1.374
 1719SOL     OW 6052   0.072   2.028   0.318
 1719SOL    HW1 6053   0.055   2.111   0.264
 1719SOL    HW2 6054   0.162   1.991   0.296
 1720SOL     OW 6055   1.183   3.197   0.119
 1720SOL    HW1 6056   1.084   3.186   0.121
 1720SOL    HW2 6057   1.217   3.212   0.212
 1721SOL     OW 6058   0.613   2.704   1.431
 1721SOL    HW1 6059   0.669   2.785   1.414
 1721SOL    HW2 6060   0.672   2.624   1.434
 1722SOL     OW 6061   1.493   3.629   0.959
 1722SOL    HW1 6062   1.526   3.693   0.890
 1722SOL    HW2 6063   1.559   3.623   1.034
 1723SOL     OW 6064   0.716   2.427   1.708
 1723SOL    HW1 6065   0.735   2.492   1.782
 1723SOL    HW2 6066   0.776   2.347   1.717
 1724SOL     OW 6067   1.450   3.082   1.633
 1724SOL    HW1 6068   1.441   3.072   1.732
 1724SOL    HW2 6069   1.546   3.075   1.607
 1725SOL     OW 6070   0.390   3.603   1.560
 1725SOL    HW1 6071   0.299   3.644   1.558
 1725SOL    HW2 6072   0.383   3.509   1.592
 1726SOL     OW 6073   1.674   2.745   1.254
 1726SOL    HW1 6074   1.647   2.656   1.217
 1726SOL    HW2 6075   1.675   2.813   1.181
 1727SOL     OW 6076   1.225   2.187   0.449
 1727SOL    HW1 6077   1.290   2.113   0.438
 1727SOL    HW2 6078   1.245   2.237   0.533
 1728SOL     OW 6079   0.594   2.607   0.652
 1728SOL    HW1 6080   0.644   2.692   0.633
 1728SOL    HW2 6081   0.506   2.609   0.604
 1729SOL     OW 6082   1.777   2.204   1.642
 1729SOL    HW1 6083   1.760   2.235   1.548
 1729SOL    HW2 6084   1.693   2.167   1.680
 1730SOL     OW 6085   1.730   2.796   1.517
 1730SOL    HW1 6086   1.768   2.887   1.532
 1730SOL    HW2 6087   1.722   2.779   1.418
 1731SOL     OW 6088   0.859   3.236   0.016
 1731SOL    HW1 6089   0.813   3.251   0.104
 1731SOL    HW2 6090   0.903   3.321  -0.014
 1732SOL     OW 6091   0.661   3.652   0.953
 1732SOL    HW1 6092   0.615   3.740   0.940
 1732SOL    HW2 6093   0.760   3.664   0.946
 1733SOL     OW 6094   0.859   2.818   0.861
 1733SOL    HW1 6095   0.913   2.749   0.909
 1733SOL    HW2 6096   0.827   2.887   0.927
 1734SOL     OW 6097   1.083   2.846   0.087
 1734SOL    HW1 6098   1.060   2.899   0.005
 1734SOL    HW2 6099   1.164   2.790   0.068
 1735SOL     OW 6100   1.861   3.431   0.851
 1735SOL    HW1 6101   1.790   3.419   0.781
 1735SOL    HW2 6102   1.862   3.352   0.911
 1736SOL     OW 6103   0.221   3.176   1.844
 1736SOL    HW1 6104   0.156   3.103   1.823
 1736SOL    HW2 6105   0.225   3.190   1.942
 1737SOL     OW 6106   0.079   3.102   0.653
 1737SOL    HW1 6107   0.078   3.055   0.741
 1737SOL    HW2 6108   0.161   3.074   0.602
 1738SOL     OW 6109   0.672   3.253   1.624
 1738SOL    HW1 6110   0.594   3.203   1.662
 1738SOL    HW2 6111   0.669   3.348   1.655
 1739SOL     OW 6112   0.428   2.286   0.520
 1739SOL    HW1 6113   0.458   2.214   0.458
 1739SOL    HW2 6114   0.389   2.246   0.603
 1740SOL     OW 6115   1.705   3.349   1.104
 1740SOL    HW1 6116   1.612   3.324   1.077
 1740SOL    HW2 6117   1.731   3.299   1.186
 1741SOL     OW 6118   0.317   2.409   1.280
 1741SOL    HW1 6119   0.355   2.350   1.352
 1741SOL    HW2 6120   0.357   2.383   1.192
 1742SOL     OW 6121   0.812   3.448   0.687
 1742SOL    HW1 6122   0.844   3.458   0.593
 1742SOL    HW2 6123   0.733   3.386   0.689
 1743SOL     OW 6124   1.424   2.076   1.112
 1743SOL    HW1 6125   1.476   2.011   1.167
 1743SOL    HW2 6126   1.375   2.139   1.173
 1744SOL     OW 6127   1.001   1.896   1.154
 1744SOL    HW1 6128   0.938   1.824   1.123
 1744SOL    HW2 6129   1.094   1.860   1.154
 1745SOL     OW 6130   0.770   3.192   0.301
 1745SOL    HW1 6131   0.724   3.105   0.318
 1745SOL    HW2 6132   0.861   3.189   0.342
 1746SOL     OW 6133   0.618   3.429   1.284
 1746SOL    HW1 6134   0.613   3.511   1.341
 1746SOL    HW2 6135   0.707   3.426   1.239
 1747SOL     OW 6136   1.352   1.914   0.168
 1747SOL    HW1 6137   1.387   1.873   0.084
 1747SOL    HW2 6138   1.262   1.876   0.188
 1748SOL     OW 6139   1.300   2.315   0.691
 1748SOL    HW1 6140   1.241   2.395   0.695
 1748SOL    HW2 6141   1.315   2.280   0.784
 1749SOL     OW 6142   1.593   2.083   0.882
 1749SOL    HW1 6143   1.509   2.082   0.936
 1749SOL    HW2 6144   1.595   2.166   0.826
 1750SOL     OW 6145   0.039   2.939   0.300
 1750SOL    HW1 6146   0.138   2.928   0.291
 1750SOL    HW2 6147  -0.001   2.853   0.332
 1751SOL     OW 6148   0.875   3.508   0.337
 1751SOL    HW1 6149   0.798   3.473   0.283
 1751SOL    HW2 6150   0.843   3.579   0.399
 1752SOL     OW 6151   0.230   2.490   1.975
 1752SOL    HW1 6152   0.137   2.488   2.012
 1752SOL    HW2 6153   0.231   2.451   1.883
 1753SOL     OW 6154   0.225   2.137   2.858
 1753SOL    HW1 6155   0.260   2.120   2.950
 1753SOL    HW2 6156   0.137   2.092   2.846
 1754SOL     OW 6157   0.019   2.230   2.509
 1754SOL    HW1 6158  -0.063   2.273   2.548
 1754SOL    HW2 6159  -0.009   2.157   2.446
 1755SOL     OW 6160   0.569   3.137   3.027
 1755SOL    HW1 6161   0.476   3.130   2.990
 1755SOL    HW2 6162   0.580   3.226   3.071
 1756SOL     OW 6163   1.555   3.373   2.565
 1756SOL    HW1 6164   1.498   3.357   2.646
 1756SOL    HW2 6165   1.496   3.383   2.485
 1757SOL     OW 6166   1.135   2.565   2.579
 1757SOL    HW1 6167   1.192   2.643   2.554
 1757SOL    HW2 6168   1.075   2.591   2.655
 1758SOL     OW 6169   1.755   2.469   2.093
 1758SOL    HW1 6170   1.743   2.456   1.994
 1758SOL    HW2 6171   1.725   2.388   2.142
 1759SOL     OW 6172   0.768   3.006   2.885
 1759SOL    HW1 6173   0.690   3.023   2.945
 1759SOL    HW2 6174   0.802   3.093   2.849
 1760SOL     OW 6175   0.850   2.660   3.685
 1760SOL    HW1 6176   0.846   2.736   3.750
 1760SOL    HW2 6177   0.872   2.696   3.594
 1761SOL     OW 6178   0.685   2.874   2.527
 1761SOL    HW1 6179   0.754   2.858   2.597
 1761SOL    HW2 6180   0.612   2.931   2.565
 1762SOL     OW 6181   0.686   3.023   3.665
 1762SOL    HW1 6182   0.746   3.102   3.679
 1762SOL    HW2 6183   0.600   3.054   3.624
 1763SOL     OW 6184   0.335   3.297   2.923
 1763SOL    HW1 6185   0.257   3.266   2.870
 1763SOL    HW2 6186   0.393   3.355   2.866
 1764SOL     OW 6187   1.460   3.367   3.201
 1764SOL    HW1 6188   1.484   3.461   3.227
 1764SOL    HW2 6189   1.444   3.313   3.283
 1765SOL     OW 6190   0.438   2.254   3.361
 1765SOL    HW1 6191   0.520   2.198   3.370
 1765SOL    HW2 6192   0.357   2.196   3.365
 1766SOL     OW 6193   1.603   2.309   2.599
 1766SOL    HW1 6194   1.529   2.355   2.549
 1766SOL    HW2 6195   1.654   2.377   2.652
 1767SOL     OW 6196   0.231   3.575   2.345
 1767SOL    HW1 6197   0.265   3.652   2.399
 1767SOL    HW2 6198   0.275   3.575   2.255
 1768SOL     OW 6199   1.127   3.203   3.552
 1768SOL    HW1 6200   1.174   3.203   3.640
 1768SOL    HW2 6201   1.079   3.116   3.541
 1769SOL     OW 6202   0.230   3.296   2.400
 1769SOL    HW1 6203   0.204   3.392   2.400
 1769SOL    HW2 6204   0.159   3.242   2.445
 1770SOL     OW 6205   0.240   2.953   2.748
 1770SOL    HW1 6206   0.254   2.869   2.800
 1770SOL    HW2 6207   0.185   3.017   2.803
 1771SOL     OW 6208   0.620   3.648   3.301
 1771SOL    HW1 6209   0.528   3.631   3.336
 1771SOL    HW2 6210   0.648   3.740   3.327
 1772SOL     OW 6211   0.606   2.826   1.985
 1772SOL    HW1 6212   0.613   2.910   1.931
 1772SOL    HW2 6213   0.652   2.839   2.073
 1773SOL     OW 6214   1.594   1.976   3.342
 1773SOL    HW1 6215   1.576   2.043   3.270
 1773SOL    HW2 6216   1.591   2.022   3.431
 1774SOL     OW 6217   0.122   2.505   2.425
 1774SOL    HW1 6218   0.077   2.417   2.442
 1774SOL    HW2 6219   0.121   2.559   2.509
 1775SOL     OW 6220   1.842   3.629   2.221
 1775SOL    HW1 6221   1.896   3.600   2.301
 1775SOL    HW2 6222   1.872   3.719   2.192
 1776SOL     OW 6223   0.027   3.458   1.979
 1776SOL    HW1 6224   0.008   3.362   2.000
 1776SOL    HW2 6225  -0.006   3.516   2.054
 1777SOL     OW 6226   1.689   2.784   2.474
 1777SOL    HW1 6227   1.784   2.755   2.482
 1777SOL    HW2 6228   1.681   2.849   2.399
 1778SOL     OW 6229   1.641   2.970   2.294
 1778SOL    HW1 6230   1.727   2.972   2.242
 1778SOL    HW2 6231   1.655   3.017   2.382
 1779SOL     OW 6232   0.113   2.599   3.459
 1779SOL    HW1 6233   0.201   2.586   3.504
 1779SOL    HW2 6234   0.100   2.696   3.437
 1780SOL     OW 6235   0.613   3.227   2.588
 1780SOL    HW1 6236   0.564   3.140   2.597
 1780SOL    HW2 6237   0.590   3.270   2.501
 1781SOL     OW 6238   1.293   3.090   3.285
 1781SOL    HW1 6239   1.330   3.017   3.227
 1781SOL    HW2 6240   1.345   3.095   3.370
 1782SOL     OW 6241   0.809   1.866   2.364
 1782SOL    HW1 6242   0.849   1.957   2.355
 1782SOL    HW2 6243   0.709   1.874   2.370
 1783SOL     OW 6244   0.197   2.838   3.126
 1783SOL    HW1 6245   0.286   2.793   3.112
 1783SOL    HW2 6246   0.124   2.773   3.107
 1784SOL     OW 6247   1.525   2.861   2.052
 1784SOL    HW1 6248   1.462   2.785   2.065
 1784SOL    HW2 6249   1.573   2.879   2.138
 1785SOL     OW 6250   1.187   3.654   3.478
 1785SOL    HW1 6251   1.211   3.714   3.402
 1785SOL    HW2 6252   1.194   3.559   3.448
 1786SOL     OW 6253   0.317   2.113   3.663
 1786SOL    HW1 6254   0.388   2.184   3.669
 1786SOL    HW2 6255   0.229   2.152   3.691
 1787SOL     OW 6256   1.466   3.279   2.815
 1787SOL    HW1 6257   1.407   3.285   2.895
 1787SOL    HW2 6258   1.451   3.191   2.769
 1788SOL     OW 6259   1.667   3.576   2.434
 1788SOL    HW1 6260   1.626   3.553   2.346
 1788SOL    HW2 6261   1.649   3.502   2.499
 1789SOL     OW 6262   0.598   2.591   2.132
 1789SOL    HW1 6263   0.622   2.660   2.064
 1789SOL    HW2 6264   0.520   2.624   2.186
 1790SOL     OW 6265   1.281   2.207   2.806
 1790SOL    HW1 6266   1.195   2.157   2.793
 1790SOL    HW2 6267   1.343   2.153   2.862
 1791SOL     OW 6268   1.576   3.524   2.169
 1791SOL    HW1 6269   1.665   3.570   2.172
 1791SOL    HW2 6270   1.555   3.500   2.074
 1792SOL     OW 6271   0.807   2.467   3.327
 1792SOL    HW1 6272   0.760   2.464   3.416
 1792SOL    HW2 6273   0.756   2.412   3.261
 1793SOL     OW 6274   1.394   2.331   3.536
 1793SOL    HW1 6275   1.374   2.374   3.624
 1793SOL    HW2 6276   1.472   2.269   3.545
 1794SOL     OW 6277   0.973   2.752   3.434
 1794SOL    HW1 6278   1.019   2.668   3.405
 1794SOL    HW2 6279   0.917   2.786   3.359
 1795SOL     OW 6280   0.991   2.272   3.104
 1795SOL    HW1 6281   0.914   2.306   3.158
 1795SOL    HW2 6282   0.957   2.221   3.025
 1796SOL     OW 6283   1.041   2.563   2.291
 1796SOL    HW1 6284   1.067   2.559   2.387
 1796SOL    HW2 6285   0.956   2.512   2.277
 1797SOL     OW 6286   0.076   2.673   2.651
 1797SOL    HW1 6287   0.175   2.661   2.660
 1797SOL    HW2 6288   0.052   2.768   2.672
 1798SOL     OW 6289   0.130   3.683   3.433
 1798SOL    HW1 6290   0.120   3.668   3.532
 1798SOL    HW2 6291   0.044   3.719   3.397
 1799SOL     OW 6292   0.865   2.210   2.057
 1799SOL    HW1 6293   0.924   2.273   2.008
 1799SOL    HW2 6294   0.884   2.116   2.028
 1800SOL     OW 6295   1.719   2.447   3.693
 1800SOL    HW1 6296   1.693   2.536   3.657
 1800SOL    HW2 6297   1.717   2.379   3.620
 1801SOL     OW 6298   1.362   3.006   2.407
 1801SOL    HW1 6299   1.445   2.977   2.359
 1801SOL    HW2 6300   1.313   3.073   2.351
 1802SOL     OW 6301   0.550   2.058   2.747
 1802SOL    HW1 6302   0.545   2.053   2.847
 1802SOL    HW2 6303   0.552   2.154   2.718
 1803SOL     OW 6304   1.008   3.318   2.339
 1803SOL    HW1 6305   0.962   3.390   2.287
 1803SOL    HW2 6306   1.004   3.338   2.437
 1804SOL     OW 6307   0.351   3.663   2.715
 1804SOL    HW1 6308   0.401   3.577   2.721
 1804SOL    HW2 6309   0.416   3.740   2.712
 1805SOL     OW 6310   1.795   2.928   2.735
 1805SOL    HW1 6311   1.733   2.913   2.659
 1805SOL    HW2 6312   1.743   2.939   2.820
 1806SOL     OW 6313   1.227   3.412   3.368
 1806SOL    HW1 6314   1.233   3.335   3.432
 1806SOL    HW2 6315   1.175   3.386   3.288
 1807SOL     OW 6316   0.321   2.805   2.104
 1807SOL    HW1 6317   0.403   2.844   2.062
 1807SOL    HW2 6318   0.294   2.723   2.055
 1808SOL     OW 6319   1.458   2.597   2.590
 1808SOL    HW1 6320   1.453   2.532   2.665
 1808SOL    HW2 6321   1.538   2.656   2.603
 1809SOL     OW 6322   0.461   3.128   3.589
 1809SOL    HW1 6323   0.411   3.129   3.503
 1809SOL    HW2 6324   0.398   3.110   3.665
 1810SOL     OW 6325   1.111   3.638   2.099
 1810SOL    HW1 6326   1.051   3.576   2.149
 1810SOL    HW2 6327   1.142   3.594   2.014
 1811SOL     OW 6328   0.202   2.147   3.360
 1811SOL    HW1 6329   0.122   2.207   3.347
 1811SOL    HW2 6330   0.192   2.098   3.446
 1812SOL     OW 6331   1.632   3.239   1.943
 1812SOL    HW1 6332   1.600   3.333   1.933
 1812SOL    HW2 6333   1.556   3.176   1.931
 1813SOL     OW 6334   0.464   3.605   2.185
 1813SOL    HW1 6335   0.497   3.644   2.271
 1813SOL    HW2 6336   0.540   3.598   2.120
 1814SOL     OW 6337   1.400   1.969   2.288
 1814SOL    HW1 6338   1.376   1.932   2.198
 1814SOL    HW2 6339   1.499   1.985   2.292
 1815SOL     OW 6340   0.249   3.647   3.103
 1815SOL    HW1 6341   0.306   3.582   3.153
 1815SOL    HW2 6342   0.233   3.614   3.010
 1816SOL     OW 6343   0.940   3.560   2.766
 1816SOL    HW1 6344   1.020   3.503   2.787
 1816SOL    HW2 6345   0.891   3.520   2.689
 1817SOL     OW 6346   0.382   2.562   2.342
 1817SOL    HW1 6347   0.427   2.472   2.339
 1817SOL    HW2 6348   0.288   2.551   2.375
 1818SOL     OW 6349   1.547   2.084   3.591
 1818SOL    HW1 6350   1.542   2.121   3.683
 1818SOL    HW2 6351   1.475   2.015   3.579
 1819SOL     OW 6352   0.614   1.984   1.979
 1819SOL    HW1 6353   0.712   1.962   1.986
 1819SOL    HW2 6354   0.583   1.967   1.886
 1820SOL     OW 6355   0.781   2.126   3.611
 1820SOL    HW1 6356   0.848   2.065   3.654
 1820SOL    HW2 6357   0.708   2.145   3.676
 1821SOL     OW 6358   0.888   3.376   3.057
 1821SOL    HW1 6359   0.865   3.351   2.963
 1821SOL    HW2 6360   0.949   3.307   3.096
 1822SOL     OW 6361   1.351   2.452   3.295
 1822SOL    HW1 6362   1.379   2.409   3.380
 1822SOL    HW2 6363   1.376   2.548   3.296
 1823SOL     OW 6364   0.803   3.264   2.786
 1823SOL    HW1 6365   0.893   3.278   2.744
 1823SOL    HW2 6366   0.732   3.266   2.715
 1824SOL     OW 6367   0.922   2.365   2.761
 1824SOL    HW1 6368   0.897   2.356   2.665
 1824SOL    HW2 6369   0.970   2.283   2.792
 1825SOL     OW 6370   0.539   1.926   2.374
 1825SOL    HW1 6371   0.458   1.927   2.432
 1825SOL    HW2 6372   0.542   2.009   2.319
 1826SOL     OW 6373   1.434   3.050   1.903
 1826SOL    HW1 6374   1.466   2.974   1.960
 1826SOL    HW2 6375   1.342   3.077   1.933
 1827SOL     OW 6376   0.297   1.897   2.033
 1827SOL    HW1 6377   0.346   1.981   2.012
 1827SOL    HW2 6378   0.359   1.832   2.078
 1828SOL     OW 6379   0.935   2.098   2.342
 1828SOL    HW1 6380   0.887   2.139   2.264
 1828SOL    HW2 6381   1.034   2.096   2.323
 1829SOL     OW 6382   1.076   2.545   3.326
 1829SOL    HW1 6383   0.996   2.484   3.329
 1829SOL    HW2 6384   1.157   2.492   3.302
 1830SOL     OW 6385   1.227   3.432   2.655
 1830SOL    HW1 6386   1.248   3.506   2.590
 1830SOL    HW2 6387   1.295   3.432   2.728
 1831SOL     OW 6388   0.459   3.014   2.603
 1831SOL    HW1 6389   0.388   2.987   2.668
 1831SOL    HW2 6390   0.433   2.986   2.510
 1832SOL     OW 6391   1.271   3.659   2.453
 1832SOL    HW1 6392   1.315   3.723   2.389
 1832SOL    HW2 6393   1.221   3.711   2.523
 1833SOL     OW 6394   1.032   2.411   1.878
 1833SOL    HW1 6395   0.991   2.493   1.839
 1833SOL    HW2 6396   1.096   2.437   1.951
 1834SOL     OW 6397   0.078   2.418   3.248
 1834SOL    HW1 6398   0.170   2.417   3.207
 1834SOL    HW2 6399   0.072   2.492   3.315
 1835SOL     OW 6400   0.561   2.084   3.009
 1835SOL    HW1 6401   0.599   2.000   3.046
 1835SOL    HW2 6402   0.473   2.103   3.053
 1836SOL     OW 6403   0.866   2.316   2.504
 1836SOL    HW1 6404   0.834   2.388   2.442
 1836SOL    HW2 6405   0.890   2.235   2.451
 1837SOL     OW 6406   1.017   1.901   2.615
 1837SOL    HW1 6407   0.945   1.906   2.546
 1837SOL    HW2 6408   0.993   1.832   2.684
 1838SOL     OW 6409   1.429   3.035   2.729
 1838SOL    HW1 6410   1.374   2.951   2.722
 1838SOL    HW2 6411   1.455   3.064   2.637
 1839SOL     OW 6412   1.466   2.452   2.854
 1839SOL    HW1 6413   1.436   2.357   2.861
 1839SOL    HW2 6414   1.539   2.468   2.920
 1840SOL     OW 6415   1.857   2.695   2.239
 1840SOL    HW1 6416   1.899   2.631   2.303
 1840SOL    HW2 6417   1.819   2.644   2.161
 1841SOL     OW 6418   0.488   3.247   2.036
 1841SOL    HW1 6419   0.401   3.232   2.083
 1841SOL    HW2 6420   0.471   3.273   1.941
 1842SOL     OW 6421   1.664   3.142   2.519
 1842SOL    HW1 6422   1.763   3.150   2.533
 1842SOL    HW2 6423   1.619   3.226   2.550
 1843SOL     OW 6424   1.390   2.437   1.940
 1843SOL    HW1 6425   1.336   2.416   2.021
 1843SOL    HW2 6426   1.481   2.396   1.949
 1844SOL     OW 6427   0.527   2.118   2.190
 1844SOL    HW1 6428   0.554   2.059   2.115
 1844SOL    HW2 6429   0.527   2.213   2.159
 1845SOL     OW 6430   1.754   3.085   3.450
 1845SOL    HW1 6431   1.845   3.046   3.437
 1845SOL    HW2 6432   1.762   3.181   3.474
 1846SOL     OW 6433   1.064   3.209   3.202
 1846SOL    HW1 6434   0.984   3.186   3.257
 1846SOL    HW2 6435   1.147   3.183   3.251
 1847SOL     OW 6436   1.592   3.491   3.487
 1847SOL    HW1 6437   1.619   3.525   3.397
 1847SOL    HW2 6438   1.671   3.453   3.533
 1848SOL     OW 6439   1.111   3.057   2.962
 1848SOL    HW1 6440   1.071   3.101   3.043
 1848SOL    HW2 6441   1.070   3.094   2.879
 1849SOL     OW 6442   1.638   2.961   2.941
 1849SOL    HW1 6443   1.643   3.042   3.000
 1849SOL    HW2 6444   1.552   2.963   2.890
 1850SOL     OW 6445   0.915   1.951   3.264
 1850SOL    HW1 6446   0.940   1.931   3.169
 1850SOL    HW2 6447   0.987   2.007   3.306
 1851SOL     OW 6448   0.980   2.978   3.581
 1851SOL    HW1 6449   0.881   2.984   3.591
 1851SOL    HW2 6450   1.003   2.898   3.525
 1852SOL     OW 6451   0.705   2.912   2.230
 1852SOL    HW1 6452   0.691   2.919   2.329
 1852SOL    HW2 6453   0.789   2.861   2.212
 1853SOL     OW 6454   0.410   2.675   3.113
 1853SOL    HW1 6455   0.496   2.687   3.163
 1853SOL    HW2 6456   0.368   2.588   3.140
 1854SOL     OW 6457   1.274   2.248   3.124
 1854SOL    HW1 6458   1.295   2.322   3.188
 1854SOL    HW2 6459   1.185   2.265   3.081
 1855SOL     OW 6460   0.064   3.426   3.193
 1855SOL    HW1 6461   0.018   3.508   3.159
 1855SOL    HW2 6462   0.162   3.445   3.202
 1856SOL     OW 6463   0.367   2.962   2.363
 1856SOL    HW1 6464   0.360   3.045   2.307
 1856SOL    HW2 6465   0.371   2.882   2.303
 1857SOL     OW 6466   0.566   2.399   2.727
 1857SOL    HW1 6467   0.578   2.465   2.653
 1857SOL    HW2 6468   0.612   2.433   2.810
 1858SOL     OW 6469   1.252   3.210   2.250
 1858SOL    HW1 6470   1.302   3.287   2.290
 1858SOL    HW2 6471   1.157   3.212   2.282
 1859SOL     OW 6472   1.272   3.307   3.004
 1859SOL    HW1 6473   1.319   3.320   3.091
 1859SOL    HW2 6474   1.206   3.233   3.013
 1860SOL     OW 6475   1.582   2.501   2.334
 1860SOL    HW1 6476   1.551   2.562   2.407
 1860SOL    HW2 6477   1.632   2.553   2.265
 1861SOL     OW 6478   0.354   3.372   3.191
 1861SOL    HW1 6479   0.333   3.328   3.104
 1861SOL    HW2 6480   0.451   3.398   3.194
 1862SOL     OW 6481   0.402   2.613   3.460
 1862SOL    HW1 6482   0.470   2.668   3.413
 1862SOL    HW2 6483   0.442   2.525   3.487
 1863SOL     OW 6484   1.587   2.641   3.532
 1863SOL    HW1 6485   1.495   2.679   3.527
 1863SOL    HW2 6486   1.647   2.688   3.467
 1864SOL     OW 6487   1.013   1.967   3.632
 1864SOL    HW1 6488   1.019   2.052   3.580
 1864SOL    HW2 6489   1.045   1.891   3.575
 1865SOL     OW 6490   0.504   1.912   3.602
 1865SOL    HW1 6491   0.462   1.855   3.532
 1865SOL    HW2 6492   0.438   1.981   3.634
 1866SOL     OW 6493   0.573   2.732   2.891
 1866SOL    HW1 6494   0.617   2.821   2.882
 1866SOL    HW2 6495   0.510   2.732   2.968
 1867SOL     OW 6496   1.360   2.724   2.907
 1867SOL    HW1 6497   1.285   2.724   2.841
 1867SOL    HW2 6498   1.397   2.632   2.916
 1868SOL     OW 6499   1.209   2.387   2.137
 1868SOL    HW1 6500   1.222   2.303   2.191
 1868SOL    HW2 6501   1.180   2.461   2.197
 1869SOL     OW 6502   0.307   2.075   3.093
 1869SOL    HW1 6503   0.284   2.112   3.183
 1869SOL    HW2 6504   0.277   1.980   3.087
 1870SOL     OW 6505   0.037   3.172   3.144
 1870SOL    HW1 6506   0.090   3.123   3.212
 1870SOL    HW2 6507   0.059   3.270   3.149
 1871SOL     OW 6508   0.732   2.496   2.926
 1871SOL    HW1 6509   0.791   2.470   2.850
 1871SOL    HW2 6510   0.704   2.592   2.915
 1872SOL     OW 6511   1.728   2.797   3.716
 1872SOL    HW1 6512   1.682   2.790   3.627
 1872SOL    HW2 6513   1.666   2.841   3.782
 1873SOL     OW 6514   0.307   1.925   2.480
 1873SOL    HW1 6515   0.296   2.019   2.513
 1873SOL    HW2 6516   0.302   1.862   2.557
 1874SOL     OW 6517   1.622   2.229   2.236
 1874SOL    HW1 6518   1.624   2.153   2.300
 1874SOL    HW2 6519   1.574   2.306   2.276
 1875SOL     OW 6520   1.023   2.628   2.828
 1875SOL    HW1 6521   1.038   2.649   2.924
 1875SOL    HW2 6522   0.993   2.533   2.819
 1876SOL     OW 6523   0.980   3.435   3.562
 1876SOL    HW1 6524   0.960   3.479   3.474
 1876SOL    HW2 6525   1.019   3.344   3.546
 1877SOL     OW 6526   1.859   3.380   3.467
 1877SOL    HW1 6527   1.873   3.407   3.372
 1877SOL    HW2 6528   1.942   3.402   3.520
 1878SOL     OW 6529   0.350   2.760   3.666
 1878SOL    HW1 6530   0.426   2.804   3.714
 1878SOL    HW2 6531   0.385   2.713   3.584
 1879SOL     OW 6532   1.540   2.136   1.987
 1879SOL    HW1 6533   1.479   2.061   2.010
 1879SOL    HW2 6534   1.562   2.188   2.070
 1880SOL     OW 6535   1.303   2.700   1.904
 1880SOL    HW1 6536   1.337   2.607   1.919
 1880SOL    HW2 6537   1.321   2.727   1.809
 1881SOL     OW 6538   1.068   3.195   2.711
 1881SOL    HW1 6539   1.075   3.111   2.656
 1881SOL    HW2 6540   1.130   3.264   2.675
 1882SOL     OW 6541   0.319   2.672   2.811
 1882SOL    HW1 6542   0.412   2.708   2.816
 1882SOL    HW2 6543   0.313   2.587   2.863
 1883SOL     OW 6544   0.339   2.371   2.868
 1883SOL    HW1 6545   0.287   2.288   2.851
 1883SOL    HW2 6546   0.416   2.376   2.804
 1884SOL     OW 6547   1.138   2.242   3.540
 1884SOL    HW1 6548   1.093   2.305   3.604
 1884SOL    HW2 6549   1.231   2.273   3.523
 1885SOL     OW 6550   1.160   2.069   3.339
 1885SOL    HW1 6551   1.160   2.133   3.416
 1885SOL    HW2 6552   1.188   2.117   3.256
 1886SOL     OW 6553   0.008   3.188   2.062
 1886SOL    HW1 6554  -0.085   3.209   2.031
 1886SOL    HW2 6555   0.018   3.089   2.075
 1887SOL     OW 6556   0.088   3.663   2.789
 1887SOL    HW1 6557   0.046   3.577   2.762
 1887SOL    HW2 6558   0.182   3.666   2.755
 1888SOL     OW 6559   0.504   3.430   2.772
 1888SOL    HW1 6560   0.570   3.504   2.781
 1888SOL    HW2 6561   0.548   3.351   2.730
 1889SOL     OW 6562   1.002   2.658   3.100
 1889SOL    HW1 6563   1.043   2.626   3.186
 1889SOL    HW2 6564   0.906   2.631   3.097
 1890SOL     OW 6565   0.040   2.406   2.976
 1890SOL    HW1 6566   0.125   2.373   2.935
 1890SOL    HW2 6567   0.053   2.421   3.074
 1891SOL     OW 6568   0.189   2.382   3.584
 1891SOL    HW1 6569   0.248   2.342   3.514
 1891SOL    HW2 6570   0.131   2.453   3.543
 1892SOL     OW 6571   1.369   2.812   3.522
 1892SOL    HW1 6572   1.408   2.901   3.542
 1892SOL    HW2 6573   1.379   2.792   3.425
 1893SOL     OW 6574   0.815   2.434   2.187
 1893SOL    HW1 6575   0.822   2.345   2.141
 1893SOL    HW2 6576   0.721   2.468   2.179
 1894SOL     OW 6577   1.657   2.466   3.068
 1894SOL    HW1 6578   1.619   2.397   3.130
 1894SOL    HW2 6579   1.739   2.430   3.024
 1895SOL     OW 6580   0.252   3.426   3.606
 1895SOL    HW1 6581   0.222   3.483   3.682
 1895SOL    HW2 6582   0.245   3.329   3.632
 1896SOL     OW 6583   0.671   2.326   3.131
 1896SOL    HW1 6584   0.637   2.237   3.101
 1896SOL    HW2 6585   0.697   2.380   3.051
 1897SOL     OW 6586   0.930   3.540   3.327
 1897SOL    HW1 6587   0.906   3.522   3.232
 1897SOL    HW2 6588   0.960   3.634   3.337
 1898SOL     OW 6589   0.473   2.362   2.053
 1898SOL    HW1 6590   0.534   2.442   2.057
 1898SOL    HW2 6591   0.378   2.393   2.060
 1899SOL     OW 6592   0.159   2.999   3.328
 1899SOL    HW1 6593   0.181   2.938   3.404
 1899SOL    HW2 6594   0.169   2.950   3.242
 1900SOL     OW 6595   1.347   2.921   3.096
 1900SOL    HW1 6596   1.371   2.858   3.022
 1900SOL    HW2 6597   1.257   2.961   3.078
 1901SOL     OW 6598   1.302   2.717   2.171
 1901SOL    HW1 6599   1.216   2.686   2.213
 1901SOL    HW2 6600   1.298   2.703   2.072
 1902SOL     OW 6601   1.759   3.609   3.016
 1902SOL    HW1 6602   1.820   3.639   2.943
 1902SOL    HW2 6603   1.721   3.520   2.994
 1903SOL     OW 6604   1.252   3.593   2.990
 1903SOL    HW1 6605   1.336   3.598   2.936
 1903SOL    HW2 6606   1.229   3.497   3.008
 1904SOL     OW 6607   0.083   3.120   2.884
 1904SOL    HW1 6608   0.078   3.119   2.984
 1904SOL    HW2 6609   0.000   3.079   2.846
 1905SOL     OW 6610   0.688   3.524   3.578
 1905SOL    HW1 6611   0.632   3.605   3.587
 1905SOL    HW2 6612   0.740   3.528   3.492
 1906SOL     OW 6613   1.388   3.435   2.339
 1906SOL    HW1 6614   1.455   3.447   2.265
 1906SOL    HW2 6615   1.348   3.524   2.362
 1907SOL     OW 6616   0.130   3.656   3.713
 1907SOL    HW1 6617   0.089   3.582   3.766
 1907SOL    HW2 6618   0.194   3.707   3.771
 1908SOL     OW 6619   1.280   2.789   2.534
 1908SOL    HW1 6620   1.340   2.708   2.536
 1908SOL    HW2 6621   1.320   2.858   2.474
 1909SOL     OW 6622   0.830   3.135   3.284
 1909SOL    HW1 6623   0.825   3.168   3.379
 1909SOL    HW2 6624   0.744   3.154   3.238
 1910SOL     OW 6625   0.672   3.478   2.016
 1910SOL    HW1 6626   0.681   3.488   1.917
 1910SOL    HW2 6627   0.632   3.389   2.037
 1911SOL     OW 6628   1.650   3.582   3.256
 1911SOL    HW1 6629   1.703   3.592   3.172
 1911SOL    HW2 6630   1.623   3.672   3.290
 1912SOL     OW 6631   0.263   2.188   2.582
 1912SOL    HW1 6632   0.184   2.239   2.548
 1912SOL    HW2 6633   0.254   2.173   2.680
 1913SOL     OW 6634   1.194   3.474   1.893
 1913SOL    HW1 6635   1.200   3.381   1.930
 1913SOL    HW2 6636   1.135   3.474   1.813
 1914SOL     OW 6637   0.822   2.864   3.234
 1914SOL    HW1 6638   0.862   2.863   3.142
 1914SOL    HW2 6639   0.832   2.956   3.274
 1915SOL     OW 6640   0.916   2.772   2.153
 1915SOL    HW1 6641   0.979   2.810   2.085
 1915SOL    HW2 6642   0.956   2.689   2.192
 1916SOL     OW 6643   1.504   3.469   1.906
 1916SOL    HW1 6644   1.412   3.506   1.913
 1916SOL    HW2 6645   1.542   3.489   1.816
 1917SOL     OW 6646   0.372   3.150   3.352
 1917SOL    HW1 6647   0.359   3.243   3.318
 1917SOL    HW2 6648   0.288   3.098   3.339
 1918SOL     OW 6649   1.614   3.154   3.151
 1918SOL    HW1 6650   1.674   3.157   3.231
 1918SOL    HW2 6651   1.539   3.218   3.164
 1919SOL     OW 6652   1.039   2.960   2.558
 1919SOL    HW1 6653   0.969   2.913   2.612
 1919SOL    HW2 6654   1.098   2.892   2.515
 1920SOL     OW 6655   1.014   2.098   2.833
 1920SOL    HW1 6656   1.006   2.062   2.740
 1920SOL    HW2 6657   1.012   2.022   2.898
 1921SOL     OW 6658   0.590   3.349   2.353
 1921SOL    HW1 6659   0.632   3.291   2.283
 1921SOL    HW2 6660   0.546   3.428   2.309
 1922SOL     OW 6661   1.709   2.247   3.243
 1922SOL    HW1 6662   1.782   2.316   3.247
 1922SOL    HW2 6663   1.737   2.172   3.184
 1923SOL     OW 6664   0.255   3.210   2.152
 1923SOL    HW1 6665   0.159   3.211   2.125
 1923SOL    HW2 6666   0.267   3.263   2.236
 1924SOL     OW 6667   0.105   2.875   3.588
 1924SOL    HW1 6668   0.028   2.842   3.642
 1924SOL    HW2 6669   0.190   2.845   3.630
 1925SOL     OW 6670   0.672   2.065   3.351
 1925SOL    HW1 6671   0.762   2.049   3.311
 1925SOL    HW2 6672   0.680   2.070   3.450
 1926SOL     OW 6673   0.075   2.207   1.895
 1926SOL    HW1 6674  -0.017   2.179   1.866
 1926SOL    HW2 6675   0.106   2.284   1.839
 1927SOL     OW 6676   1.440   2.718   3.260
 1927SOL    HW1 6677   1.383   2.770   3.197
 1927SOL    HW2 6678   1.536   2.730   3.236
 1928SOL     OW 6679   0.072   2.028   2.180
 1928SOL    HW1 6680   0.055   2.111   2.126
 1928SOL    HW2 6681   0.162   1.991   2.158
 1929SOL     OW 6682   1.183   3.197   1.981
 1929SOL    HW1 6683   1.084   3.186   1.983
 1929SOL    HW2 6684   1.217   3.212   2.074
 1930SOL     OW 6685   0.613   2.704   3.293
 1930SOL    HW1 6686   0.669   2.785   3.276
 1930SOL    HW2 6687   0.672   2.624   3.296
 1931SOL     OW 6688   1.493   3.629   2.821
 1931SOL    HW1 6689   1.526   3.693   2.752
 1931SOL    HW2 6690   1.559   3.623   2.896
 1932SOL     OW 6691   0.716   2.427   3.570
 1932SOL    HW1 6692   0.735   2.492   3.644
 1932SOL    HW2 6693   0.776   2.347   3.579
 1933SOL     OW 6694   1.450   3.082   3.495
 1933SOL    HW1 6695   1.441   3.072   3.594
 1933SOL    HW2 6696   1.546   3.075   3.469
 1934SOL     OW 6697   0.390   3.603   3.422
 1934SOL    HW1 6698   0.299   3.644   3.420
 1934SOL    HW2 6699   0.383   3.509   3.454
 1935SOL     OW 6700   1.674   2.745   3.116
 1935SOL    HW1 6701   1.647   2.656   3.079
 1935SOL    HW2 6702   1.675   2.813   3.043
 1936SOL     OW 6703   1.225   2.187   2.311
 1936SOL    HW1 6704   1.290   2.113   2.300
 1936SOL    HW2 6705   1.245   2.237   2.395
 1937SOL     OW 6706   0.594   2.607   2.514
 1937SOL    HW1 6707   0.644   2.692   2.495
 1937SOL    HW2 6708   0.506   2.609   2.466
 1938SOL     OW 6709   1.777   2.204   3.504
 1938SOL    HW1 6710   1.760   2.235   3.410
 1938SOL    HW2 6711   1.693   2.167   3.542
 1939SOL     OW 6712   1.730   2.796   3.379
 1939SOL    HW1 6713   1.768   2.887   3.394
 1939SOL    HW2 6714   1.722   2.779   3.280
 1940SOL     OW 6715   0.859   3.236   1.878
 1940SOL    HW1 6716   0.813   3.251   1.966
 1940SOL    HW2 6717   0.903   3.321   1.848
 1941SOL     OW 6718   0.661   3.652   2.815
 1941SOL    HW1 6719   0.615   3.740   2.802
 1941SOL    HW2 6720   0.760   3.664   2.808
 1942SOL     OW 6721   0.859   2.818   2.723
 1942SOL    HW1 6722   0.913   2.749   2.771
 1942SOL    HW2 6723   0.827   2.887   2.789
 1943SOL     OW 6724   1.083   2.846   1.949
 1943SOL    HW1 6725   1.060   2.899   1.867
 1943SOL    HW2 6726   1.164   2.790   1.930
 1944SOL     OW 6727   1.861   3.431   2.713
 1944SOL    HW1 6728   1.790   3.419   2.643
 1944SOL    HW2 6729   1.862   3.352   2.773
 1945SOL     OW 6730   0.221   3.176   3.706
 1945SOL    HW1 6731   0.156   3.103   3.685
 1945SOL    HW2 6732   0.225   3.190   3.804
 1946SOL     OW 6733   0.079   3.102   2.515
 1946SOL    HW1 6734   0.078   3.055   2.603
 1946SOL    HW2 6735   0.161   3.074   2.464
 1947SOL     OW 6736   0.672   3.253   3.486
 1947SOL    HW1 6737   0.594   3.203   3.524
 1947SOL    HW2 6738   0.669   3.348   3.517
 1948SOL     OW 6739   0.428   2.286   2.382
 1948SOL    HW1 6740   0.458   2.214   2.320
 1948SOL    HW2 6741   0.389   2.246   2.465
 1949SOL     OW 6742   1.705   3.349   2.966
 1949SOL    HW1 6743   1.612   3.324   2.939
 1949SOL    HW2 6744   1.731   3.299   3.048
 1950SOL     OW 6745   0.317   2.409   3.142
 1950SOL    HW1 6746   0.355   2.350   3.214
 1950SOL    HW2 6747   0.357   2.383   3.054
 1951SOL     OW 6748   0.812   3.448   2.549
 1951SOL    HW1 6749   0.844   3.458   2.455
 1951SOL    HW2 6750   0.733   3.386   2.551
 1952SOL     OW 6751   1.424   2.076   2.974
 1952SOL    HW1 6752   1.476   2.011   3.029
 1952SOL    HW2 6753   1.375   2.139   3.035
 1953SOL     OW 6754   1.001   1.896   3.016
 1953SOL    HW1 6755   0.938   1.824   2.985
 1953SOL    HW2 6756   1.094   1.860   3.016
 1954SOL     OW 6757   0.770   3.192   2.163
 1954SOL    HW1 6758   0.724   3.105   2.180
 1954SOL    HW2 6759   0.861   3.189   2.204
 1955SOL     OW 6760   0.618   3.429   3.146
 1955SOL    HW1 6761   0.613   3.511   3.203
 1955SOL    HW2 6762   0.707   3.426   3.101
 1956SOL     OW 6763   1.352   1.914   2.030
 1956SOL    HW1 6764   1.387   1.873   1.946
 1956SOL    HW2 6765   1.262   1.876   2.050
 1957SOL     OW 6766   1.300   2.315   2.553
 1957SOL    HW1 6767   1.241   2.395   2.557
 1957SOL    HW2 6768   1.315   2.280   2.646
 1958SOL     OW 6769   1.593   2.083   2.744
 1958SOL    HW1 6770   1.509   2.082   2.798
 1958SOL    HW2 6771   1.595   2.166   2.688
 1959SOL     OW 6772   0.039   2.939   2.162
 1959SOL    HW1 6773   0.138   2.928   2.153
 1959SOL    HW2 6774  -0.001   2.853   2.194
 1960SOL     OW 6775   0.875   3.508   2.199
 1960SOL    HW1 6776   0.798   3.473   2.145
 1960SOL    HW2 6777   0.843   3.579   2.261
 1961SOL     OW 6778   0.230   2.490   3.837
 1961SOL    HW1 6779   0.137   2.488   3.874
 1961SOL    HW2 6780   0.231   2.451   3.745
 1962SOL     OW 6781   0.225   2.137   4.720
 1962SOL    HW1 6782   0.260   2.120   4.812
 1962SOL    HW2 6783   0.137   2.092   4.708
 1963SOL     OW 6784   0.019   2.230   4.371
 1963SOL    HW1 6785  -0.063   2.273   4.410
 1963SOL    HW2 6786  -0.009   2.157   4.308
 1964SOL     OW 6787   0.569   3.137   4.889
 1964SOL    HW1 6788   0.476   3.130   4.852
 1964SOL    HW2 6789   0.580   3.226   4.933
 1965SOL     OW 6790   1.555   3.373   4.427
 1965SOL    HW1 6791   1.498   3.357   4.508
 1965SOL    HW2 6792   1.496   3.383   4.347
 1966SOL     OW 6793   1.135   2.565   4.441
 1966SOL    HW1 6794   1.192   2.643   4.416
 1966SOL    HW2 6795   1.075   2.591   4.517
 1967SOL     OW 6796   1.755   2.469   3.955
 1967SOL    HW1 6797   1.743   2.456   3.856
 1967SOL    HW2 6798   1.725   2.388   4.004
 1968SOL     OW 6799   0.768   3.006   4.747
 1968SOL    HW1 6800   0.690   3.023   4.807
 1968SOL    HW2 6801   0.802   3.093   4.711
 1969SOL     OW 6802   0.850   2.660   5.547
 1969SOL    HW1 6803   0.846   2.736   5.612
 1969SOL    HW2 6804   0.872   2.696   5.456
 1970SOL     OW 6805   0.685   2.874   4.389
 1970SOL    HW1 6806   0.754   2.858   4.459
 1970SOL    HW2 6807   0.612   2.931   4.427
 1971SOL     OW 6808   0.686   3.023   5.527
 1971SOL    HW1 6809   0.746   3.102   5.541
 1971SOL    HW2 6810   0.600   3.054   5.486
 1972SOL     OW 6811   0.335   3.297   4.785
 1972SOL    HW1 6812   0.257   3.266   4.732
 1972SOL    HW2 6813   0.393   3.355   4.728
 1973SOL     OW 6814   1.460   3.367   5.063
 1973SOL    HW1 6815   1.484   3.461   5.089
 1973SOL    HW2 6816   1.444   3.313   5.145
 1974SOL     OW 6817   0.438   2.254   5.223
 1974SOL    HW1 6818   0.520   2.198   5.232
 1974SOL    HW2 6819   0.357   2.196   5.227
 1975SOL     OW 6820   1.603   2.309   4.461
 1975SOL    HW1 6821   1.529   2.355   4.411
 1975SOL    HW2 6822   1.654   2.377   4.514
 1976SOL     OW 6823   0.231   3.575   4.207
 1976SOL    HW1 6824   0.265   3.652   4.261
 1976SOL    HW2 6825   0.275   3.575   4.117
 1977SOL     OW 6826   1.127   3.203   5.414
 1977SOL    HW1 6827   1.174   3.203   5.502
 1977SOL    HW2 6828   1.079   3.116   5.403
 1978SOL     OW 6829   0.230   3.296   4.262
 1978SOL    HW1 6830   0.204   3.392   4.262
 1978SOL    HW2 6831   0.159   3.242   4.307
 1979SOL     OW 6832   0.240   2.953   4.610
 1979SOL    HW1 6833   0.254   2.869   4.662
 1979SOL    HW2 6834   0.185   3.017   4.665
 1980SOL     OW 6835   0.620   3.648   5.163
 1980SOL    HW1 6836   0.528   3.631   5.198
 1980SOL    HW2 6837   0.648   3.740   5.189
 1981SOL     OW 6838   0.606   2.826   3.847
 1981SOL    HW1 6839   0.613   2.910   3.793
 1981SOL    HW2 6840   0.652   2.839   3.935
 1982SOL     OW 6841   1.594   1.976   5.204
 1982SOL    HW1 6842   1.576   2.043   5.132
 1982SOL    HW2 6843   1.591   2.022   5.293
 1983SOL     OW 6844   0.122   2.505   4.287
 1983SOL    HW1 6845   0.077   2.417   4.304
 1983SOL    HW2 6846   0.121   2.559   4.371
 1984SOL     OW 6847   1.842   3.629   4.083
 1984SOL    HW1 6848   1.896   3.600   4.163
 1984SOL    HW2 6849   1.872   3.719   4.054
 1985SOL     OW 6850   0.027   3.458   3.841
 1985SOL    HW1 6851   0.008   3.362   3.862
 1985SOL    HW2 6852  -0.006   3.516   3.916
 1986SOL     OW 6853   1.689   2.784   4.336
 1986SOL    HW1 6854   1.784   2.755   4.344
 1986SOL    HW2 6855   1.681   2.849   4.261
 1987SOL     OW 6856   1.641   2.970   4.156
 1987SOL    HW1 6857   1.727   2.972   4.104
 1987SOL    HW2 6858   1.655   3.017   4.244
 1988SOL     OW 6859   0.113   2.599   5.321
 1988SOL    HW1 6860   0.201   2.586   5.366
 1988SOL    HW2 6861   0.100   2.696   5.299
 1989SOL     OW 6862   0.613   3.227   4.450
 1989SOL    HW1 6863   0.564   3.140   4.459
 1989SOL    HW2 6864   0.590   3.270   4.363
 1990SOL     OW 6865   1.293   3.090   5.147
 1990SOL    HW1 6866   1.330   3.017   5.089
 1990SOL    HW2 6867   1.345   3.095   5.232
 1991SOL     OW 6868   0.809   1.866   4.226
 1991SOL    HW1 6869   0.849   1.957   4.217
 1991SOL    HW2 6870   0.709   1.874   4.232
 1992SOL     OW 6871   0.197   2.838   4.988
 1992SOL    HW1 6872   0.286   2.793   4.974
 1992SOL    HW2 6873   0.124   2.773   4.969
 1993SOL     OW 6874   1.525   2.861   3.914
 1993SOL    HW1 6875   1.462   2.785   3.927
 1993SOL    HW2 6876   1.573   2.879   4.000
 1994SOL     OW 6877   1.187   3.654   5.340
 1994SOL    HW1 6878   1.211   3.714   5.264
 1994SOL    HW2 6879   1.194   3.559   5.310
 1995SOL     OW 6880   0.317   2.113   5.525
 1995SOL    HW1 6881   0.388   2.184   5.531
 1995SOL    HW2 6882   0.229   2.152   5.553
 1996SOL     OW 6883   1.466   3.279   4.677
 1996SOL    HW1 6884   1.407   3.285   4.757
 1996SOL    HW2 6885   1.451   3.191   4.631
 1997SOL     OW 6886   1.667   3.576   4.296
 1997SOL    HW1 6887   1.626   3.553   4.208
 1997SOL    HW2 6888   1.649   3.502   4.361
 1998SOL     OW 6889   0.598   2.591   3.994
 1998SOL    HW1 6890   0.622   2.660   3.926
 1998SOL    HW2 6891   0.520   2.624   4.048
 1999SOL     OW 6892   1.281   2.207   4.668
 1999SOL    HW1 6893   1.195   2.157   4.655
 1999SOL    HW2 6894   1.343   2.153   4.724
 2000SOL     OW 6895   1.576   3.524   4.031
 2000SOL    HW1 6896   1.665   3.570   4.034
 2000SOL    HW2 6897   1.555   3.500   3.936
 2001SOL     OW 6898   0.807   2.467   5.189
 2001SOL    HW1 6899   0.760   2.464   5.278
 2001SOL    HW2 6900   0.756   2.412   5.123
 2002SOL     OW 6901   1.394   2.331   5.398
 2002SOL    HW1 6902   1.374   2.374   5.486
 2002SOL    HW2 6903   1.472   2.269   5.407
 2003SOL     OW 6904   0.973   2.752   5.296
 2003SOL    HW1 6905   1.019   2.668   5.267
 2003SOL    HW2 6906   0.917   2.786   5.221
 2004SOL     OW 6907   0.991   2.272   4.966
 2004SOL    HW1 6908   0.914   2.306   5.020
 2004SOL    HW2 6909   0.957   2.221   4.887
 2005SOL     OW 6910   1.041   2.563   4.153
 2005SOL    HW1 6911   1.067   2.559   4.249
 2005SOL    HW2 6912   0.956   2.512   4.139
 2006SOL     OW 6913   0.076   2.673   4.513
 2006SOL    HW1 6914   0.175   2.661   4.522
 2006SOL    HW2 6915   0.052   2.768   4.534
 2007SOL     OW 6916   0.130   3.683   5.295
 2007SOL    HW1 6917   0.120   3.668   5.394
 2007SOL    HW2 6918   0.044   3.719   5.259
 2008SOL     OW 6919   0.865   2.210   3.919
 2008SOL    HW1 6920   0.924   2.273   3.870
 2008SOL    HW2 6921   0.884   2.116   3.890
 2009SOL     OW 6922   1.719   2.447   5.555
 2009SOL    HW1 6923   1.693   2.536   5.519
 2009SOL    HW2 6924   1.717   2.379   5.482
 2010SOL     OW 6925   1.362   3.006   4.269
 2010SOL    HW1 6926   1.445   2.977   4.221
 2010SOL    HW2 6927   1.313   3.073   4.213
 2011SOL     OW 6928   0.550   2.058   4.609
 2011SOL    HW1 6929   0.545   2.053   4.709
 2011SOL    HW2 6930   0.552   2.154   4.580
 2012SOL     OW 6931   1.008   3.318   4.201
 2012SOL    HW1 6932   0.962   3.390   4.149
 2012SOL    HW2 6933   1.004   3.338   4.299
 2013SOL     OW 6934   0.351   3.663   4.577
 2013SOL    HW1 6935   0.401   3.577   4.583
 2013SOL    HW2 6936   0.416   3.740   4.574
 2014SOL     OW 6937   1.795   2.928   4.597
 2014SOL    HW1 6938   1.733   2.913   4.521
 2014SOL    HW2 6939   1.743   2.939   4.682
 2015SOL     OW 6940   1.227   3.412   5.230
 2015SOL    HW1 6941   1.233   3.335   5.294
 2015SOL    HW2 6942   1.175   3.386   5.150
 2016SOL     OW 6943   0.321   2.805   3.966
 2016SOL    HW1 6944   0.403   2.844   3.924
 2016SOL    HW2 6945   0.294   2.723   3.917
 2017SOL     OW 6946   1.458   2.597   4.452
 2017SOL    HW1 6947   1.453   2.532   4.527
 2017SOL    HW2 6948   1.538   2.656   4.465
 2018SOL     OW 6949   0.461   3.128   5.451
 2018SOL    HW1 6950   0.411   3.129   5.365
 2018SOL    HW2 6951   0.398   3.110   5.527
 2019SOL     OW 6952   1.111   3.638   3.961
 2019SOL    HW1 6953   1.051   3.576   4.011
 2019SOL    HW2 6954   1.142   3.594   3.876
 2020SOL     OW 6955   0.202   2.147   5.222
 2020SOL    HW1 6956   0.122   2.207   5.209
 2020SOL    HW2 6957   0.192   2.098   5.308
 2021SOL     OW 6958   1.632   3.239   3.805
 2021SOL    HW1 6959   1.600   3.333   3.795
 2021SOL    HW2 6960   1.556   3.176   3.793
 2022SOL     OW 6961   0.464   3.605   4.047
 2022SOL    HW1 6962   0.497   3.644   4.133
 2022SOL    HW2 6963   0.540   3.598   3.982
 2023SOL     OW 6964   1.400   1.969   4.150
 2023SOL    HW1 6965   1.376   1.932   4.060
 2023SOL    HW2 6966   1.499   1.985   4.154
 2024SOL     OW 6967   0.249   3.647   4.965
 2024SOL    HW1 6968   0.306   3.582   5.015
 2024SOL    HW2 6969   0.233   3.614   4.872
 2025SOL     OW 6970   0.940   3.560   4.628
 2025SOL    HW1 6971   1.020   3.503   4.649
 2025SOL    HW2 6972   0.891   3.520   4.551
 2026SOL     OW 6973   0.382   2.562   4.204
 2026SOL    HW1 6974   0.427   2.472   4.201
 2026SOL    HW2 6975   0.288   2.551   4.237
 2027SOL     OW 6976   1.547   2.084   5.453
 2027SOL    HW1 6977   1.542   2.121   5.545
 2027SOL    HW2 6978   1.475   2.015   5.441
 2028SOL     OW 6979   0.614   1.984   3.841
 2028SOL    HW1 6980   0.712   1.962   3.848
 2028SOL    HW2 6981   0.583   1.967   3.748
 2029SOL     OW 6982   0.781   2.126   5.473
 2029SOL    HW1 6983   0.848   2.065   5.516
 2029SOL    HW2 6984   0.708   2.145   5.538
 2030SOL     OW 6985   0.888   3.376   4.919
 2030SOL    HW1 6986   0.865   3.351   4.825
 2030SOL    HW2 6987   0.949   3.307   4.958
 2031SOL     OW 6988   1.351   2.452   5.157
 2031SOL    HW1 6989   1.379   2.409   5.242
 2031SOL    HW2 6990   1.376   2.548   5.158
 2032SOL     OW 6991   0.803   3.264   4.648
 2032SOL    HW1 6992   0.893   3.278   4.606
 2032SOL    HW2 6993   0.732   3.266   4.577
 2033SOL     OW 6994   0.922   2.365   4.623
 2033SOL    HW1 6995   0.897   2.356   4.527
 2033SOL    HW2 6996   0.970   2.283   4.654
 2034SOL     OW 6997   0.539   1.926   4.236
 2034SOL    HW1 6998   0.458   1.927   4.294
 2034SOL    HW2 6999   0.542   2.009   4.181
 2035SOL     OW 7000   1.434   3.050   3.765
 2035SOL    HW1 7001   1.466   2.974   3.822
 2035SOL    HW2 7002   1.342   3.077   3.795
 2036SOL     OW 7003   0.297   1.897   3.895
 2036SOL    HW1 7004   0.346   1.981   3.874
 2036SOL    HW2 7005   0.359   1.832   3.940
 2037SOL     OW 7006   0.935   2.098   4.204
 2037SOL    HW1 7007   0.887   2.139   4.126
 2037SOL    HW2 7008   1.034   2.096   4.185
 2038SOL     OW 7009   1.076   2.545   5.188
 2038SOL    HW1 7010   0.996   2.484   5.191
 2038SOL    HW2 7011   1.157   2.492   5.164
 2039SOL     OW 7012   1.227   3.432   4.517
 2039SOL    HW1 7013   1.248   3.506   4.452
 2039SOL    HW2 7014   1.295   3.432   4.590
 2040SOL     OW 7015   0.459   3.014   4.465
 2040SOL    HW1 7016   0.388   2.987   4.530
 2040SOL    HW2 7017   0.433   2.986   4.372
 2041SOL     OW 7018   1.271   3.659   4.315
 2041SOL    HW1 7019   1.315   3.723   4.251
 2041SOL    HW2 7020   1.221   3.711   4.385
 2042SOL     OW 7021   1.032   2.411   3.740
 2042SOL    HW1 7022   0.991   2.493   3.701
 2042SOL    HW2 7023   1.096   2.437   3.813
 2043SOL     OW 7024   0.078   2.418   5.110
 2043SOL    HW1 7025   0.170   2.417   5.069
 2043SOL    HW2 7026   0.072   2.492   5.177
 2044SOL     OW 7027   0.561   2.084   4.871
 2044SOL    HW1 7028   0.599   2.000   4.908
 2044SOL    HW2 7029   0.473   2.103   4.915
 2045SOL     OW 7030   0.866   2.316   4.366
 2045SOL    HW1 7031   0.834   2.388   4.304
 2045SOL    HW2 7032   0.890   2.235   4.313
 2046SOL     OW 7033   1.017   1.901   4.477
 2046SOL    HW1 7034   0.945   1.906   4.408
 2046SOL    HW2 7035   0.993   1.832   4.546
 2047SOL     OW 7036   1.429   3.035   4.591
 2047SOL    HW1 7037   1.374   2.951   4.584
 2047SOL    HW2 7038   1.455   3.064   4.499
 2048SOL     OW 7039   1.466   2.452   4.716
 2048SOL    HW1 7040   1.436   2.357   4.723
 2048SOL    HW2 7041   1.539   2.468   4.782
 2049SOL     OW 7042   1.857   2.695   4.101
 2049SOL    HW1 7043   1.899   2.631   4.165
 2049SOL    HW2 7044   1.819   2.644   4.023
 2050SOL     OW 7045   0.488   3.247   3.898
 2050SOL    HW1 7046   0.401   3.232   3.945
 2050SOL    HW2 7047   0.471   3.273   3.803
 2051SOL     OW 7048   1.664   3.142   4.381
 2051SOL    HW1 7049   1.763   3.150   4.395
 2051SOL    HW2 7050   1.619   3.226   4.412
 2052SOL     OW 7051   1.390   2.437   3.802
 2052SOL    HW1 7052   1.336   2.416   3.883
 2052SOL    HW2 7053   1.481   2.396   3.811
 2053SOL     OW 7054   0.527   2.118   4.052
 2053SOL    HW1 7055   0.554   2.059   3.977
 2053SOL    HW2 7056   0.527   2.213   4.021
 2054SOL     OW 7057   1.754   3.085   5.312
 2054SOL    HW1 7058   1.845   3.046   5.299
 2054SOL    HW2 7059   1.762   3.181   5.336
 2055SOL     OW 7060   1.064   3.209   5.064
 2055SOL    HW1 7061   0.984   3.186   5.119
 2055SOL    HW2 7062   1.147   3.183   5.113
 2056SOL     OW 7063   1.592   3.491   5.349
 2056SOL    HW1 7064   1.619   3.525   5.259
 2056SOL    HW2 7065   1.671   3.453   5.395
 2057SOL     OW 7066   1.111   3.057   4.824
 2057SOL    HW1 7067   1.071   3.101   4.905
 2057SOL    HW2 7068   1.070   3.094   4.741
 2058SOL     OW 7069   1.638   2.961   4.803
 2058SOL    HW1 7070   1.643   3.042   4.862
 2058SOL    HW2 7071   1.552   2.963   4.752
 2059SOL     OW 7072   0.915   1.951   5.126
 2059SOL    HW1 7073   0.940   1.931   5.031
 2059SOL    HW2 7074   0.987   2.007   5.168
 2060SOL     OW 7075   0.980   2.978   5.443
 2060SOL    HW1 7076   0.881   2.984   5.453
 2060SOL    HW2 7077   1.003   2.898   5.387
 2061SOL     OW 7078   0.705   2.912   4.092
 2061SOL    HW1 7079   0.691   2.919   4.191
 2061SOL    HW2 7080   0.789   2.861   4.074
 2062SOL     OW 7081   0.410   2.675   4.975
 2062SOL    HW1 7082   0.496   2.687   5.025
 2062SOL    HW2 7083   0.368   2.588   5.002
 2063SOL     OW 7084   1.274   2.248   4.986
 2063SOL    HW1 7085   1.295   2.322   5.050
 2063SOL    HW2 7086   1.185   2.265   4.943
 2064SOL     OW 7087   0.064   3.426   5.055
 2064SOL    HW1 7088   0.018   3.508   5.021
 2064SOL    HW2 7089   0.162   3.445   5.064
 2065SOL     OW 7090   0.367   2.962   4.225
 2065SOL    HW1 7091   0.360   3.045   4.169
 2065SOL    HW2 7092   0.371   2.882   4.165
 2066SOL     OW 7093   0.566   2.399   4.589
 2066SOL    HW1 7094   0.578   2.465   4.515
 2066SOL    HW2 7095   0.612   2.433   4.672
 2067SOL     OW 7096   1.252   3.210   4.112
 2067SOL    HW1 7097   1.302   3.287   4.152
 2067SOL    HW2 7098   1.157   3.212   4.144
 2068SOL     OW 7099   1.272   3.307   4.866
 2068SOL    HW1 7100   1.319   3.320   4.953
 2068SOL    HW2 7101   1.206   3.233   4.875
 2069SOL     OW 7102   1.582   2.501   4.196
 2069SOL    HW1 7103   1.551   2.562   4.269
 2069SOL    HW2 7104   1.632   2.553   4.127
 2070SOL     OW 7105   0.354   3.372   5.053
 2070SOL    HW1 7106   0.333   3.328   4.966
 2070SOL    HW2 7107   0.451   3.398   5.056
 2071SOL     OW 7108   0.402   2.613   5.322
 2071SOL    HW1 7109   0.470   2.668   5.275
 2071SOL    HW2 7110   0.442   2.525   5.349
 2072SOL     OW 7111   1.587   2.641   5.394
 2072SOL    HW1 7112   1.495   2.679   5.389
 2072SOL    HW2 7113   1.647   2.688   5.329
 2073SOL     OW 7114   1.013   1.967   5.494
 2073SOL    HW1 7115   1.019   2.052   5.442
 2073SOL    HW2 7116   1.045   1.891   5.437
 2074SOL     OW 7117   0.504   1.912   5.464
 2074SOL    HW1 7118   0.462   1.855   5.394
 2074SOL    HW2 7119   0.438   1.981   5.496
 2075SOL     OW 7120   0.573   2.732   4.753
 2075SOL    HW1 7121   0.617   2.821   4.744
 2075SOL    HW2 7122   0.510   2.732   4.830
 2076SOL     OW 7123   1.360   2.724   4.769
 2076SOL    HW1 7124   1.285   2.724   4.703
 2076SOL    HW2 7125   1.397   2.632   4.778
 2077SOL     OW 7126   1.209   2.387   3.999
 2077SOL    HW1 7127   1.222   2.303   4.053
 2077SOL    HW2 7128   1.180   2.461   4.059
 2078SOL     OW 7129   0.307   2.075   4.955
 2078SOL    HW1 7130   0.284   2.112   5.045
 2078SOL    HW2 7131   0.277   1.980   4.949
 2079SOL     OW 7132   0.037   3.172   5.006
 2079SOL    HW1 7133   0.090   3.123   5.074
 2079SOL    HW2 7134   0.059   3.270   5.011
 2080SOL     OW 7135   0.732   2.496   4.788
 2080SOL    HW1 7136   0.791   2.470   4.712
 2080SOL    HW2 7137   0.704   2.592   4.777
 2081SOL     OW 7138   1.728   2.797   5.578
 2081SOL    HW1 7139   1.682   2.790   5.489
 2081SOL    HW2 7140   1.666   2.841   5.644
 2082SOL     OW 7141   0.307   1.925   4.342
 2082SOL    HW1 7142   0.296   2.019   4.375
 2082SOL    HW2 7143   0.302   1.862   4.419
 2083SOL     OW 7144   1.622   2.229   4.098
 2083SOL    HW1 7145   1.624   2.153   4.162
 2083SOL    HW2 7146   1.574   2.306   4.138
 2084SOL     OW 7147   1.023   2.628   4.690
 2084SOL    HW1 7148   1.038   2.649   4.786
 2084SOL    HW2 7149   0.993   2.533   4.681
 2085SOL     OW 7150   0.980   3.435   5.424
 2085SOL    HW1 7151   0.960   3.479   5.336
 2085SOL    HW2 7152   1.019   3.344   5.408
 2086SOL     OW 7153   1.859   3.380   5.329
 2086SOL    HW1 7154   1.873   3.407   5.234
 2086SOL    HW2 7155   1.942   3.402   5.382
 2087SOL     OW 7156   0.350   2.760   5.528
 2087SOL    HW1 7157   0.426   2.804   5.576
 2087SOL    HW2 7158   0.385   2.713   5.446
 2088SOL     OW 7159   1.540   2.136   3.849
 2088SOL    HW1 7160   1.479   2.061   3.872
 2088SOL    HW2 7161   1.562   2.188   3.932
 2089SOL     OW 7162   1.303   2.700   3.766
 2089SOL    HW1 7163   1.337   2.607   3.781
 2089SOL    HW2 7164   1.321   2.727   3.671
 2090SOL     OW 7165   1.068   3.195   4.573
 2090SOL    HW1 7166   1.075   3.111   4.518
 2090SOL    HW2 7167   1.130   3.264   4.537
 2091SOL     OW 7168   0.319   2.672   4.673
 2091SOL    HW1 7169   0.412   2.708   4.678
 2091SOL    HW2 7170   0.313   2.587   4.725
 2092SOL     OW 7171   0.339   2.371   4.730
 2092SOL    HW1 7172   0.287   2.288   4.713
 2092SOL    HW2 7173   0.416   2.376   4.666
 2093SOL     OW 7174   1.138   2.242   5.402
 2093SOL    HW1 7175   1.093   2.305   5.466
 2093SOL    HW2 7176   1.231   2.273   5.385
 2094SOL     OW 7177   1.160   2.069   5.201
 2094SOL    HW1 7178   1.160   2.133   5.278
 2094SOL    HW2 7179   1.188   2.117   5.118
 2095SOL     OW 7180   0.008   3.188   3.924
 2095SOL    HW1 7181  -0.085   3.209   3.893
 2095SOL    HW2 7182   0.018   3.089   3.937
 2096SOL     OW 7183   0.088   3.663   4.651
 2096SOL    HW1 7184   0.046   3.577   4.624
 2096SOL    HW2 7185   0.182   3.666   4.617
 2097SOL     OW 7186   0.504   3.430   4.634
 2097SOL    HW1 7187   0.570   3.504   4.643
 2097SOL    HW2 7188   0.548   3.351   4.592
 2098SOL     OW 7189   1.002   2.658   4.962
 2098SOL    HW1 7190   1.043   2.626   5.048
 2098SOL    HW2 7191   0.906   2.631   4.959
 2099SOL     OW 7192   0.040   2.406   4.838
 2099SOL    HW1 7193   0.125   2.373   4.797
 2099SOL    HW2 7194   0.053   2.421   4.936
 2100SOL     OW 7195   0.189   2.382   5.446
 2100SOL    HW1 7196   0.248   2.342   5.376
 2100SOL    HW2 7197   0.131   2.453   5.405
 2101SOL     OW 7198   1.369   2.812   5.384
 2101SOL    HW1 7199   1.408   2.901   5.404
 2101SOL    HW2 7200   1.379   2.792   5.287
 2102SOL     OW 7201   0.815   2.434   4.049
 2102SOL    HW1 7202   0.822   2.345   4.003
 2102SOL    HW2 7203   0.721   2.468   4.041
 2103SOL     OW 7204   1.657   2.466   4.930
 2103SOL    HW1 7205   1.619   2.397   4.992
 2103SOL    HW2 7206   1.739   2.430   4.886
 2104SOL     OW 7207   0.252   3.426   5.468
 2104SOL    HW1 7208   0.222   3.483   5.544
 2104SOL    HW2 7209   0.245   3.329   5.494
 2105SOL     OW 7210   0.671   2.326   4.993
 2105SOL    HW1 7211   0.637   2.237   4.963
 2105SOL    HW2 7212   0.697   2.380   4.913
 2106SOL     OW 7213   0.930   3.540   5.189
 2106SOL    HW1 7214   0.906   3.522   5.094
 2106SOL    HW2 7215   0.960   3.634   5.199
 2107SOL     OW 7216   0.473   2.362   3.915
 2107SOL    HW1 7217   0.534   2.442   3.919
 2107SOL    HW2 7218   0.378   2.393   3.922
 2108SOL     OW 7219   0.159   2.999   5.190
 2108SOL    HW1 7220   0.181   2.938   5.266
 2108SOL    HW2 7221   0.169   2.950   5.104
 2109SOL     OW 7222   1.347   2.921   4.958
 2109SOL    HW1 7223   1.371   2.858   4.884
 2109SOL    HW2 7224   1.257   2.961   4.940
 2110SOL     OW 7225   1.302   2.717   4.033
 2110SOL    HW1 7226   1.216   2.686   4.075
 2110SOL    HW2 7227   1.298   2.703   3.934
 2111SOL     OW 7228   1.759   3.609   4.878
 2111SOL    HW1 7229   1.820   3.639   4.805
 2111SOL    HW2 7230   1.721   3.520   4.856
 2112SOL     OW 7231   1.252   3.593   4.852
 2112SOL    HW1 7232   1.336   3.598   4.798
 2112SOL    HW2 7233   1.229   3.497   4.870
 2113SOL     OW 7234   0.083   3.120   4.746
 2113SOL    HW1 7235   0.078   3.119   4.846
 2113SOL    HW2 7236   0.000   3.079   4.708
 2114SOL     OW 7237   0.688   3.524   5.440
 2114SOL    HW1 7238   0.632   3.605   5.449
 2114SOL    HW2 7239   0.740   3.528   5.354
 2115SOL     OW 7240   1.388   3.435   4.201
 2115SOL    HW1 7241   1.455   3.447   4.127
 2115SOL    HW2 7242   1.348   3.524   4.224
 2116SOL     OW 7243   0.130   3.656   5.575
 2116SOL    HW1 7244   0.089   3.582   5.628
 2116SOL    HW2 7245   0.194   3.707   5.633
 2117SOL     OW 7246   1.280   2.789   4.396
 2117SOL    HW1 7247   1.340   2.708   4.398
 2117SOL    HW2 7248   1.320   2.858   4.336
 2118SOL     OW 7249   0.830   3.135   5.146
 2118SOL    HW1 7250   0.825   3.168   5.241
 2118SOL    HW2 7251   0.744   3.154   5.100
 2119SOL     OW 7252   0.672   3.478   3.878
 2119SOL    HW1 7253   0.681   3.488   3.779
 2119SOL    HW2 7254   0.632   3.389   3.899
 2120SOL     OW 7255   1.650   3.582   5.118
 2120SOL    HW1 7256   1.703   3.592   5.034
 2120SOL    HW2 7257   1.623   3.672   5.152
 2121SOL     OW 7258   0.263   2.188   4.444
 2121SOL    HW1 7259   0.184   2.239   4.410
 2121SOL    HW2 7260   0.254   2.173   4.542
 2122SOL     OW 7261   1.194   3.474   3.755
 2122SOL    HW1 7262   1.200   3.381   3.792
 2122SOL    HW2 7263   1.135   3.474   3.675
 2123SOL     OW 7264   0.822   2.864   5.096
 2123SOL    HW1 7265   0.862   2.863   5.004
 2123SOL    HW2 7266   0.832   2.956   5.136
 2124SOL     OW 7267   0.916   2.772   4.015
 2124SOL    HW1 7268   0.979   2.810   3.947
 2124SOL    HW2 7269   0.956   2.689   4.054
 2125SOL     OW 7270   1.504   3.469   3.768
 2125SOL    HW1 7271   1.412   3.506   3.775
 2125SOL    HW2 7272   1.542   3.489   3.678
 2126SOL     OW 7273   0.372   3.150   5.214
 2126SOL    HW1 7274   0.359   3.243   5.180
 2126SOL    HW2 7275   0.288   3.098   5.201
 2127SOL     OW 7276   1.614   3.154   5.013
 2127SOL    HW1 7277   1.674   3.157   5.093
 2127SOL    HW2 7278   1.539   3.218   5.026
 2128SOL     OW 7279   1.039   2.960   4.420
 2128SOL    HW1 7280   0.969   2.913   4.474
 2128SOL    HW2 7281   1.098   2.892   4.377
 2129SOL     OW 7282   1.014   2.098   4.695
 2129SOL    HW1 7283   1.006   2.062   4.602
 2129SOL    HW2 7284   1.012   2.022   4.760
 2130SOL     OW 7285   0.590   3.349   4.215
 2130SOL    HW1 7286   0.632   3.291   4.145
 2130SOL    HW2 7287   0.546   3.428   4.171
 2131SOL     OW 7288   1.709   2.247   5.105
 2131SOL    HW1 7289   1.782   2.316   5.109
 2131SOL    HW2 7290   1.737   2.172   5.046
 2132SOL     OW 7291   0.255   3.210   4.014
 2132SOL    HW1 7292   0.159   3.211   3.987
 2132SOL    HW2 7293   0.267   3.263   4.098
 2133SOL     OW 7294   0.105   2.875   5.450
 2133SOL    HW1 7295   0.028   2.842   5.504
 2133SOL    HW2 7296   0.190   2.845   5.492
 2134SOL     OW 7297   0.672   2.065   5.213
 2134SOL    HW1 7298   0.762   2.049   5.173
 2134SOL    HW2 7299   0.680   2.070   5.312
 2135SOL     OW 7300   0.075   2.207   3.757
 2135SOL    HW1 7301  -0.017   2.179   3.728
 2135SOL    HW2 7302   0.106   2.284   3.701
 2136SOL     OW 7303   1.440   2.718   5.122
 2136SOL    HW1 7304   1.383   2.770   5.059
 2136SOL    HW2 7305   1.536   2.730   5.098
 2137SOL     OW 7306   0.072   2.028   4.042
 2137SOL    HW1 7307   0.055   2.111   3.988
 2137SOL    HW2 7308   0.162   1.991   4.020
 2138SOL     OW 7309   1.183   3.197   3.843
 2138SOL    HW1 7310   1.084   3.186   3.845
 2138SOL    HW2 7311   1.217   3.212   3.936
 2139SOL     OW 7312   0.613   2.704   5.155
 2139SOL    HW1 7313   0.669   2.785   5.138
 2139SOL    HW2 7314   0.672   2.624   5.158
 2140SOL     OW 7315   1.493   3.629   4.683
 2140SOL    HW1 7316   1.526   3.693   4.614
 2140SOL    HW2 7317   1.559   3.623   4.758
 2141SOL     OW 7318   0.716   2.427   5.432
 2141SOL    HW1 7319   0.735   2.492   5.506
 2141SOL    HW2 7320   0.776   2.347   5.441
 2142SOL     OW 7321   1.450   3.082   5.357
 2142SOL    HW1 7322   1.441   3.072   5.456
 2142SOL    HW2 7323   1.546   3.075   5.331
 2143SOL     OW 7324   0.390   3.603   5.284
 2143SOL    HW1 7325   0.299   3.644   5.282
 2143SOL    HW2 7326   0.383   3.509   5.316
 2144SOL     OW 7327   1.674   2.745   4.978
 2144SOL    HW1 7328   1.647   2.656   4.941
 2144SOL    HW2 7329   1.675   2.813   4.905
 2145SOL     OW 7330   1.225   2.187   4.173
 2145SOL    HW1 7331   1.290   2.113   4.162
 2145SOL    HW2 7332   1.245   2.237   4.257
 2146SOL     OW 7333   0.594   2.607   4.376
 2146SOL    HW1 7334   0.644   2.692   4.357
 2146SOL    HW2 7335   0.506   2.609   4.328
 2147SOL     OW 7336   1.777   2.204   5.366
 2147SOL    HW1 7337   1.760   2.235   5.272
 2147SOL    HW2 7338   1.693   2.167   5.404
 2148SOL     OW 7339   1.730   2.796   5.241
 2148SOL    HW1 7340   1.768   2.887   5.256
 2148SOL    HW2 7341   1.722   2.779   5.142
 2149SOL     OW 7342   0.859   3.236   3.740
 2149SOL    HW1 7343   0.813   3.251   3.828
 2149SOL    HW2 7344   0.903   3.321   3.710
 2150SOL     OW 7345   0.661   3.652   4.677
 2150SOL    HW1 7346   0.615   3.740   4.664
 2150SOL    HW2 7347   0.760   3.664   4.670
 2151SOL     OW 7348   0.859   2.818   4.585
 2151SOL    HW1 7349   0.913   2.749   4.633
 2151SOL    HW2 7350   0.827   2.887   4.651
 2152SOL     OW 7351   1.083   2.846   3.811
 2152SOL    HW1 7352   1.060   2.899   3.729
 2152SOL    HW2 7353   1.164   2.790   3.792
 2153SOL     OW 7354   1.861   3.431   4.575
 2153SOL    HW1 7355   1.790   3.419   4.505
 2153SOL    HW2 7356   1.862   3.352   4.635
 2154SOL     OW 7357   0.221   3.176   5.568
 2154SOL    HW1 7358   0.156   3.103   5.547
 2154SOL    HW2 7359   0.225   3.190   5.666
 2155SOL     OW 7360   0.079   3.102   4.377
 2155SOL    HW1 7361   0.078   3.055   4.465
 2155SOL    HW2 7362   0.161   3.074   4.326
 2156SOL     OW 7363   0.672   3.253   5.348
 2156SOL    HW1 7364   0.594   3.203   5.386
 2156SOL    HW2 7365   0.669   3.348   5.379
 2157SOL     OW 7366   0.428   2.286   4.244
 2157SOL    HW1 7367   0.458   2.214   4.182
 2157SOL    HW2 7368   0.389   2.246   4.327
 2158SOL     OW 7369   1.705   3.349   4.828
 2158SOL    HW1 7370   1.612   3.324   4.801
 2158SOL    HW2 7371   1.731   3.299   4.910
 2159SOL     OW 7372   0.317   2.409   5.004
 2159SOL    HW1 7373   0.355   2.350   5.076
 2159SOL    HW2 7374   0.357   2.383   4.916
 2160SOL     OW 7375   0.812   3.448   4.411
 2160SOL    HW1 7376   0.844   3.458   4.317
 2160SOL    HW2 7377   0.733   3.386   4.413
 2161SOL     OW 7378   1.424   2.076   4.836
 2161SOL    HW1 7379   1.476   2.011   4.891
 2161SOL    HW2 7380   1.375   2.139   4.897
 2162SOL     OW 7381   1.001   1.896   4.878
 2162SOL    HW1 7382   0.938   1.824   4.847
 2162SOL    HW2 7383   1.094   1.860   4.878
 2163SOL     OW 7384   0.770   3.192   4.025
 2163SOL    HW1 7385   0.724   3.105   4.042
 2163SOL    HW2 7386   0.861   3.189   4.066
 2164SOL     OW 7387   0.618   3.429   5.008
 2164SOL    HW1 7388   0.613   3.511   5.065
 2164SOL    HW2 7389   0.707   3.426   4.963
 2165SOL     OW 7390   1.352   1.914   3.892
 2165SOL    HW1 7391   1.387   1.873   3.808
 2165SOL    HW2 7392   1.262   1.876   3.912
 2166SOL     OW 7393   1.300   2.315   4.415
 2166SOL    HW1 7394   1.241   2.395   4.419
 2166SOL    HW2 7395   1.315   2.280   4.508
 2167SOL     OW 7396   1.593   2.083   4.606
 2167SOL    HW1 7397   1.509   2.082   4.660
 2167SOL    HW2 7398   1.595   2.166   4.550
 2168SOL     OW 7399   0.039   2.939   4.024
 2168SOL    HW1 7400   0.138   2.928   4.015
 2168SOL    HW2 7401  -0.001   2.853   4.056
 2169SOL     OW 7402   0.875   3.508   4.061
 2169SOL    HW1 7403   0.798   3.473   4.007
 2169SOL    HW2 7404   0.843   3.579   4.123
 2170SOL     OW 7405   0.230   2.490   5.699
 2170SOL    HW1 7406   0.137   2.488   5.736
 2170SOL    HW2 7407   0.231   2.451   5.607
 2171SOL     OW 7408   0.225   2.137   6.582
 2171SOL    HW1 7409   0.260   2.120   6.674
 2171SOL    HW2 7410   0.137   2.092   6.570
 2172SOL     OW 7411   0.019   2.230   6.233
 2172SOL    HW1 7412  -0.063   2.273   6.272
 2172SOL    HW2 7413  -0.009   2.157   6.170
 2173SOL     OW 7414   0.569   3.137   6.751
 2173SOL    HW1 7415   0.476   3.130   6.714
 2173SOL    HW2 7416   0.580   3.226   6.795
 2174SOL     OW 7417   1.555   3.373   6.289
 2174SOL    HW1 7418   1.498   3.357   6.370
 2174SOL    HW2 7419   1.496   3.383   6.209
 2175SOL     OW 7420   1.135   2.565   6.303
 2175SOL    HW1 7421   1.192   2.643   6.278
 2175SOL    HW2 7422   1.075   2.591   6.379
 2176SOL     OW 7423   1.755   2.469   5.817
 2176SOL    HW1 7424   1.743   2.456   5.718
 2176SOL    HW2 7425   1.725   2.388   5.866
 2177SOL     OW 7426   0.768   3.006   6.609
 2177SOL    HW1 7427   0.690   3.023   6.669
 2177SOL    HW2 7428   0.802   3.093   6.573
 2178SOL     OW 7429   0.850   2.660   7.409
 2178SOL    HW1 7430   0.846   2.736   7.474
 2178SOL    HW2 7431   0.872   2.696   7.318
 2179SOL     OW 7432   0.685   2.874   6.251
 2179SOL    HW1 7433   0.754   2.858   6.321
 2179SOL    HW2 7434   0.612   2.931   6.289
 2180SOL     OW 7435   0.686   3.023   7.389
 2180SOL    HW1 7436   0.746   3.102   7.403
 2180SOL    HW2 7437   0.600   3.054   7.348
 2181SOL     OW 7438   0.335   3.297   6.647
 2181SOL    HW1 7439   0.257   3.266   6.594
 2181SOL    HW2 7440   0.393   3.355   6.590
 2182SOL     OW 7441   1.460   3.367   6.925
 2182SOL    HW1 7442   1.484   3.461   6.951
 2182SOL    HW2 7443   1.444   3.313   7.007
 2183SOL     OW 7444   0.438   2.254   7.085
 2183SOL    HW1 7445   0.520   2.198   7.094
 2183SOL    HW2 7446   0.357   2.196   7.089
 2184SOL     OW 7447   0.231   3.575   6.069
 2184SOL    HW1 7448   0.265   3.652   6.123
 2184SOL    HW2 7449   0.275   3.575   5.979
 2185SOL     OW 7450   1.127   3.203   7.276
 2185SOL    HW1 7451   1.174   3.203   7.364
 2185SOL    HW2 7452   1.079   3.116   7.265
 2186SOL     OW 7453   0.230   3.296   6.124
 2186SOL    HW1 7454   0.204   3.392   6.124
 2186SOL    HW2 7455   0.159   3.242   6.169
 2187SOL     OW 7456   0.240   2.953   6.472
 2187SOL    HW1 7457   0.254   2.869   6.524
 2187SOL    HW2 7458   0.185   3.017   6.527
 2188SOL     OW 7459   0.620   3.648   7.025
 2188SOL    HW1 7460   0.528   3.631   7.060
 2188SOL    HW2 7461   0.648   3.740   7.051
 2189SOL     OW 7462   0.606   2.826   5.709
 2189SOL    HW1 7463   0.613   2.910   5.655
 2189SOL    HW2 7464   0.652   2.839   5.797
 2190SOL     OW 7465   0.122   2.505   6.149
 2190SOL    HW1 7466   0.077   2.417   6.166
 2190SOL    HW2 7467   0.121   2.559   6.233
 2191SOL     OW 7468   1.842   3.629   5.945
 2191SOL    HW1 7469   1.896   3.600   6.025
 2191SOL    HW2 7470   1.872   3.719   5.916
 2192SOL     OW 7471   0.027   3.458   5.703
 2192SOL    HW1 7472   0.008   3.362   5.724
 2192SOL    HW2 7473  -0.006   3.516   5.778
 2193SOL     OW 7474   1.641   2.970   6.018
 2193SOL    HW1 7475   1.727   2.972   5.966
 2193SOL    HW2 7476   1.655   3.017   6.106
 2194SOL     OW 7477   0.113   2.599   7.183
 2194SOL    HW1 7478   0.201   2.586   7.228
 2194SOL    HW2 7479   0.100   2.696   7.161
 2195SOL     OW 7480   0.613   3.227   6.312
 2195SOL    HW1 7481   0.564   3.140   6.321
 2195SOL    HW2 7482   0.590   3.270   6.225
 2196SOL     OW 7483   1.293   3.090   7.009
 2196SOL    HW1 7484   1.330   3.017   6.951
 2196SOL    HW2 7485   1.345   3.095   7.094
 2197SOL     OW 7486   0.809   1.866   6.088
 2197SOL    HW1 7487   0.849   1.957   6.079
 2197SOL    HW2 7488   0.709   1.874   6.094
 2198SOL     OW 7489   0.197   2.838   6.850
 2198SOL    HW1 7490   0.286   2.793   6.836
 2198SOL    HW2 7491   0.124   2.773   6.831
 2199SOL     OW 7492   1.525   2.861   5.776
 2199SOL    HW1 7493   1.462   2.785   5.789
 2199SOL    HW2 7494   1.573   2.879   5.862
 2200SOL     OW 7495   1.187   3.654   7.202
 2200SOL    HW1 7496   1.211   3.714   7.126
 2200SOL    HW2 7497   1.194   3.559   7.172
 2201SOL     OW 7498   0.317   2.113   7.387
 2201SOL    HW1 7499   0.388   2.184   7.393
 2201SOL    HW2 7500   0.229   2.152   7.415
 2202SOL     OW 7501   1.466   3.279   6.539
 2202SOL    HW1 7502   1.407   3.285   6.619
 2202SOL    HW2 7503   1.451   3.191   6.493
 2203SOL     OW 7504   1.667   3.576   6.158
 2203SOL    HW1 7505   1.626   3.553   6.070
 2203SOL    HW2 7506   1.649   3.502   6.223
 2204SOL     OW 7507   0.598   2.591   5.856
 2204SOL    HW1 7508   0.622   2.660   5.788
 2204SOL    HW2 7509   0.520   2.624   5.910
 2205SOL     OW 7510   1.576   3.524   5.893
 2205SOL    HW1 7511   1.665   3.570   5.896
 2205SOL    HW2 7512   1.555   3.500   5.798
 2206SOL     OW 7513   0.807   2.467   7.051
 2206SOL    HW1 7514   0.760   2.464   7.140
 2206SOL    HW2 7515   0.756   2.412   6.985
 2207SOL     OW 7516   0.973   2.752   7.158
 2207SOL    HW1 7517   1.019   2.668   7.129
 2207SOL    HW2 7518   0.917   2.786   7.083
 2208SOL     OW 7519   0.991   2.272   6.828
 2208SOL    HW1 7520   0.914   2.306   6.882
 2208SOL    HW2 7521   0.957   2.221   6.749
 2209SOL     OW 7522   1.041   2.563   6.015
 2209SOL    HW1 7523   1.067   2.559   6.111
 2209SOL    HW2 7524   0.956   2.512   6.001
 2210SOL     OW 7525   0.076   2.673   6.375
 2210SOL    HW1 7526   0.175   2.661   6.384
 2210SOL    HW2 7527   0.052   2.768   6.396
 2211SOL     OW 7528   0.130   3.683   7.157
 2211SOL    HW1 7529   0.120   3.668   7.256
 2211SOL    HW2 7530   0.044   3.719   7.121
 2212SOL     OW 7531   0.865   2.210   5.781
 2212SOL    HW1 7532   0.924   2.273   5.732
 2212SOL    HW2 7533   0.884   2.116   5.752
 2213SOL     OW 7534   1.362   3.006   6.131
 2213SOL    HW1 7535   1.445   2.977   6.083
 2213SOL    HW2 7536   1.313   3.073   6.075
 2214SOL     OW 7537   0.550   2.058   6.471
 2214SOL    HW1 7538   0.545   2.053   6.571
 2214SOL    HW2 7539   0.552   2.154   6.442
 2215SOL     OW 7540   1.008   3.318   6.063
 2215SOL    HW1 7541   0.962   3.390   6.011
 2215SOL    HW2 7542   1.004   3.338   6.161
 2216SOL     OW 7543   0.351   3.663   6.439
 2216SOL    HW1 7544   0.401   3.577   6.445
 2216SOL    HW2 7545   0.416   3.740   6.436
 2217SOL     OW 7546   1.795   2.928   6.459
 2217SOL    HW1 7547   1.733   2.913   6.383
 2217SOL    HW2 7548   1.743   2.939   6.544
 2218SOL     OW 7549   1.227   3.412   7.092
 2218SOL    HW1 7550   1.233   3.335   7.156
 2218SOL    HW2 7551   1.175   3.386   7.012
 2219SOL     OW 7552   0.321   2.805   5.828
 2219SOL    HW1 7553   0.403   2.844   5.786
 2219SOL    HW2 7554   0.294   2.723   5.779
 2220SOL     OW 7555   0.461   3.128   7.313
 2220SOL    HW1 7556   0.411   3.129   7.227
 2220SOL    HW2 7557   0.398   3.110   7.389
 2221SOL     OW 7558   1.111   3.638   5.823
 2221SOL    HW1 7559   1.051   3.576   5.873
 2221SOL    HW2 7560   1.142   3.594   5.738
 2222SOL     OW 7561   0.202   2.147   7.084
 2222SOL    HW1 7562   0.122   2.207   7.071
 2222SOL    HW2 7563   0.192   2.098   7.170
 2223SOL     OW 7564   1.632   3.239   5.667
 2223SOL    HW1 7565   1.600   3.333   5.657
 2223SOL    HW2 7566   1.556   3.176   5.655
 2224SOL     OW 7567   0.464   3.605   5.909
 2224SOL    HW1 7568   0.497   3.644   5.995
 2224SOL    HW2 7569   0.540   3.598   5.844
 2225SOL     OW 7570   0.249   3.647   6.827
 2225SOL    HW1 7571   0.306   3.582   6.877
 2225SOL    HW2 7572   0.233   3.614   6.734
 2226SOL     OW 7573   0.940   3.560   6.490
 2226SOL    HW1 7574   1.020   3.503   6.511
 2226SOL    HW2 7575   0.891   3.520   6.413
 2227SOL     OW 7576   0.382   2.562   6.066
 2227SOL    HW1 7577   0.427   2.472   6.063
 2227SOL    HW2 7578   0.288   2.551   6.099
 2228SOL     OW 7579   0.614   1.984   5.703
 2228SOL    HW1 7580   0.712   1.962   5.710
 2228SOL    HW2 7581   0.583   1.967   5.610
 2229SOL     OW 7582   0.781   2.126   7.335
 2229SOL    HW1 7583   0.848   2.065   7.378
 2229SOL    HW2 7584   0.708   2.145   7.400
 2230SOL     OW 7585   0.888   3.376   6.781
 2230SOL    HW1 7586   0.865   3.351   6.687
 2230SOL    HW2 7587   0.949   3.307   6.820
 2231SOL     OW 7588   0.803   3.264   6.510
 2231SOL    HW1 7589   0.893   3.278   6.468
 2231SOL    HW2 7590   0.732   3.266   6.439
 2232SOL     OW 7591   0.922   2.365   6.485
 2232SOL    HW1 7592   0.897   2.356   6.389
 2232SOL    HW2 7593   0.970   2.283   6.516
 2233SOL     OW 7594   0.539   1.926   6.098
 2233SOL    HW1 7595   0.458   1.927   6.156
 2233SOL    HW2 7596   0.542   2.009   6.043
 2234SOL     OW 7597   1.434   3.050   5.627
 2234SOL    HW1 7598   1.466   2.974   5.684
 2234SOL    HW2 7599   1.342   3.077   5.657
 2235SOL     OW 7600   0.297   1.897   5.757
 2235SOL    HW1 7601   0.346   1.981   5.736
 2235SOL    HW2 7602   0.359   1.832   5.802
 2236SOL     OW 7603   1.076   2.545   7.050
 2236SOL    HW1 7604   0.996   2.484   7.053
 2236SOL    HW2 7605   1.157   2.492   7.026
 2237SOL     OW 7606   1.227   3.432   6.379
 2237SOL    HW1 7607   1.248   3.506   6.314
 2237SOL    HW2 7608   1.295   3.432   6.452
 2238SOL     OW 7609   0.459   3.014   6.327
 2238SOL    HW1 7610   0.388   2.987   6.392
 2238SOL    HW2 7611   0.433   2.986   6.234
 2239SOL     OW 7612   1.271   3.659   6.177
 2239SOL    HW1 7613   1.315   3.723   6.113
 2239SOL    HW2 7614   1.221   3.711   6.247
 2240SOL     OW 7615   1.032   2.411   5.602
 2240SOL    HW1 7616   0.991   2.493   5.563
 2240SOL    HW2 7617   1.096   2.437   5.675
 2241SOL     OW 7618   0.078   2.418   6.972
 2241SOL    HW1 7619   0.170   2.417   6.931
 2241SOL    HW2 7620   0.072   2.492   7.039
 2242SOL     OW 7621   0.561   2.084   6.733
 2242SOL    HW1 7622   0.599   2.000   6.770
 2242SOL    HW2 7623   0.473   2.103   6.777
 2243SOL     OW 7624   0.866   2.316   6.228
 2243SOL    HW1 7625   0.834   2.388   6.166
 2243SOL    HW2 7626   0.890   2.235   6.175
 2244SOL     OW 7627   1.429   3.035   6.453
 2244SOL    HW1 7628   1.374   2.951   6.446
 2244SOL    HW2 7629   1.455   3.064   6.361
 2245SOL     OW 7630   0.488   3.247   5.760
 2245SOL    HW1 7631   0.401   3.232   5.807
 2245SOL    HW2 7632   0.471   3.273   5.665
 2246SOL     OW 7633   1.664   3.142   6.243
 2246SOL    HW1 7634   1.763   3.150   6.257
 2246SOL    HW2 7635   1.619   3.226   6.274
 2247SOL     OW 7636   1.390   2.437   5.664
 2247SOL    HW1 7637   1.336   2.416   5.745
 2247SOL    HW2 7638   1.481   2.396   5.673
 2248SOL     OW 7639   0.527   2.118   5.914
 2248SOL    HW1 7640   0.554   2.059   5.839
 2248SOL    HW2 7641   0.527   2.213   5.883
 2249SOL     OW 7642   1.754   3.085   7.174
 2249SOL    HW1 7643   1.845   3.046   7.161
 2249SOL    HW2 7644   1.762   3.181   7.198
 2250SOL     OW 7645   1.064   3.209   6.926
 2250SOL    HW1 7646   0.984   3.186   6.981
 2250SOL    HW2 7647   1.147   3.183   6.975
 2251SOL     OW 7648   1.592   3.491   7.211
 2251SOL    HW1 7649   1.619   3.525   7.121
 2251SOL    HW2 7650   1.671   3.453   7.257
 2252SOL     OW 7651   1.111   3.057   6.686
 2252SOL    HW1 7652   1.071   3.101   6.767
 2252SOL    HW2 7653   1.070   3.094   6.603
 2253SOL     OW 7654   1.638   2.961   6.665
 2253SOL    HW1 7655   1.643   3.042   6.724
 2253SOL    HW2 7656   1.552   2.963   6.614
 2254SOL     OW 7657   0.915   1.951   6.988
 2254SOL    HW1 7658   0.940   1.931   6.893
 2254SOL    HW2 7659   0.987   2.007   7.030
 2255SOL     OW 7660   0.980   2.978   7.305
 2255SOL    HW1 7661   0.881   2.984   7.315
 2255SOL    HW2 7662   1.003   2.898   7.249
 2256SOL     OW 7663   0.705   2.912   5.954
 2256SOL    HW1 7664   0.691   2.919   6.053
 2256SOL    HW2 7665   0.789   2.861   5.936
 2257SOL     OW 7666   0.410   2.675   6.837
 2257SOL    HW1 7667   0.496   2.687   6.887
 2257SOL    HW2 7668   0.368   2.588   6.864
 2258SOL     OW 7669   1.274   2.248   6.848
 2258SOL    HW1 7670   1.295   2.322   6.912
 2258SOL    HW2 7671   1.185   2.265   6.805
 2259SOL     OW 7672   0.064   3.426   6.917
 2259SOL    HW1 7673   0.018   3.508   6.883
 2259SOL    HW2 7674   0.162   3.445   6.926
 2260SOL     OW 7675   0.367   2.962   6.087
 2260SOL    HW1 7676   0.360   3.045   6.031
 2260SOL    HW2 7677   0.371   2.882   6.027
 2261SOL     OW 7678   0.566   2.399   6.451
 2261SOL    HW1 7679   0.578   2.465   6.377
 2261SOL    HW2 7680   0.612   2.433   6.534
 2262SOL     OW 7681   1.252   3.210   5.974
 2262SOL    HW1 7682   1.302   3.287   6.014
 2262SOL    HW2 7683   1.157   3.212   6.006
 2263SOL     OW 7684   1.272   3.307   6.728
 2263SOL    HW1 7685   1.319   3.320   6.815
 2263SOL    HW2 7686   1.206   3.233   6.737
 2264SOL     OW 7687   1.582   2.501   6.058
 2264SOL    HW1 7688   1.551   2.562   6.131
 2264SOL    HW2 7689   1.632   2.553   5.989
 2265SOL     OW 7690   0.354   3.372   6.915
 2265SOL    HW1 7691   0.333   3.328   6.828
 2265SOL    HW2 7692   0.451   3.398   6.918
 2266SOL     OW 7693   0.402   2.613   7.184
 2266SOL    HW1 7694   0.470   2.668   7.137
 2266SOL    HW2 7695   0.442   2.525   7.211
 2267SOL     OW 7696   1.013   1.967   7.356
 2267SOL    HW1 7697   1.019   2.052   7.304
 2267SOL    HW2 7698   1.045   1.891   7.299
 2268SOL     OW 7699   0.504   1.912   7.326
 2268SOL    HW1 7700   0.462   1.855   7.256
 2268SOL    HW2 7701   0.438   1.981   7.358
 2269SOL     OW 7702   0.573   2.732   6.615
 2269SOL    HW1 7703   0.617   2.821   6.606
 2269SOL    HW2 7704   0.510   2.732   6.692
 2270SOL     OW 7705   1.209   2.387   5.861
 2270SOL    HW1 7706   1.222   2.303   5.915
 2270SOL    HW2 7707   1.180   2.461   5.921
 2271SOL     OW 7708   0.307   2.075   6.817
 2271SOL    HW1 7709   0.284   2.112   6.907
 2271SOL    HW2 7710   0.277   1.980   6.811
 2272SOL     OW 7711   0.037   3.172   6.868
 2272SOL    HW1 7712   0.090   3.123   6.936
 2272SOL    HW2 7713   0.059   3.270   6.873
 2273SOL     OW 7714   0.732   2.496   6.650
 2273SOL    HW1 7715   0.791   2.470   6.574
 2273SOL    HW2 7716   0.704   2.592   6.639
 2274SOL     OW 7717   0.307   1.925   6.204
 2274SOL    HW1 7718   0.296   2.019   6.237
 2274SOL    HW2 7719   0.302   1.862   6.281
 2275SOL     OW 7720   1.622   2.229   5.960
 2275SOL    HW1 7721   1.624   2.153   6.024
 2275SOL    HW2 7722   1.574   2.306   6.000
 2276SOL     OW 7723   1.023   2.628   6.552
 2276SOL    HW1 7724   1.038   2.649   6.648
 2276SOL    HW2 7725   0.993   2.533   6.543
 2277SOL     OW 7726   0.980   3.435   7.286
 2277SOL    HW1 7727   0.960   3.479   7.198
 2277SOL    HW2 7728   1.019   3.344   7.270
 2278SOL     OW 7729   1.859   3.380   7.191
 2278SOL    HW1 7730   1.873   3.407   7.096
 2278SOL    HW2 7731   1.942   3.402   7.244
 2279SOL     OW 7732   0.350   2.760   7.390
 2279SOL    HW1 7733   0.426   2.804   7.438
 2279SOL    HW2 7734   0.385   2.713   7.308
 2280SOL     OW 7735   1.540   2.136   5.711
 2280SOL    HW1 7736   1.479   2.061   5.734
 2280SOL    HW2 7737   1.562   2.188   5.794
 2281SOL     OW 7738   1.303   2.700   5.628
 2281SOL    HW1 7739   1.337   2.607   5.643
 2281SOL    HW2 7740   1.321   2.727   5.533
 2282SOL     OW 7741   1.068   3.195   6.435
 2282SOL    HW1 7742   1.075   3.111   6.380
 2282SOL    HW2 7743   1.130   3.264   6.399
 2283SOL     OW 7744   0.319   2.672   6.535
 2283SOL    HW1 7745   0.412   2.708   6.540
 2283SOL    HW2 7746   0.313   2.587   6.587
 2284SOL     OW 7747   0.339   2.371   6.592
 2284SOL    HW1 7748   0.287   2.288   6.575
 2284SOL    HW2 7749   0.416   2.376   6.528
 2285SOL     OW 7750   0.008   3.188   5.786
 2285SOL    HW1 7751  -0.085   3.209   5.755
 2285SOL    HW2 7752   0.018   3.089   5.799
 2286SOL     OW 7753   0.088   3.663   6.513
 2286SOL    HW1 7754   0.046   3.577   6.486
 2286SOL    HW2 7755   0.182   3.666   6.479
 2287SOL     OW 7756   0.504   3.430   6.496
 2287SOL    HW1 7757   0.570   3.504   6.505
 2287SOL    HW2 7758   0.548   3.351   6.454
 2288SOL     OW 7759   1.002   2.658   6.824
 2288SOL    HW1 7760   1.043   2.626   6.910
 2288SOL    HW2 7761   0.906   2.631   6.821
 2289SOL     OW 7762   0.040   2.406   6.700
 2289SOL    HW1 7763   0.125   2.373   6.659
 2289SOL    HW2 7764   0.053   2.421   6.798
 2290SOL     OW 7765   0.189   2.382   7.308
 2290SOL    HW1 7766   0.248   2.342   7.238
 2290SOL    HW2 7767   0.131   2.453   7.267
 2291SOL     OW 7768   0.815   2.434   5.911
 2291SOL    HW1 7769   0.822   2.345   5.865
 2291SOL    HW2 7770   0.721   2.468   5.903
 2292SOL     OW 7771   0.252   3.426   7.330
 2292SOL    HW1 7772   0.222   3.483   7.406
 2292SOL    HW2 7773   0.245   3.329   7.356
 2293SOL     OW 7774   0.671   2.326   6.855
 2293SOL    HW1 7775   0.637   2.237   6.825
 2293SOL    HW2 7776   0.697   2.380   6.775
 2294SOL     OW 7777   0.930   3.540   7.051
 2294SOL    HW1 7778   0.906   3.522   6.956
 2294SOL    HW2 7779   0.960   3.634   7.061
 2295SOL     OW 7780   0.473   2.362   5.777
 2295SOL    HW1 7781   0.534   2.442   5.781
 2295SOL    HW2 7782   0.378   2.393   5.784
 2296SOL     OW 7783   0.159   2.999   7.052
 2296SOL    HW1 7784   0.181   2.938   7.128
 2296SOL    HW2 7785   0.169   2.950   6.966
 2297SOL     OW 7786   1.347   2.921   6.820
 2297SOL    HW1 7787   1.371   2.858   6.746
 2297SOL    HW2 7788   1.257   2.961   6.802
 2298SOL     OW 7789   1.302   2.717   5.895
 2298SOL    HW1 7790   1.216   2.686   5.937
 2298SOL    HW2 7791   1.298   2.703   5.796
 2299SOL     OW 7792   1.759   3.609   6.740
 2299SOL    HW1 7793   1.820   3.639   6.667
 2299SOL    HW2 7794   1.721   3.520   6.718
 2300SOL     OW 7795   1.252   3.593   6.714
 2300SOL    HW1 7796   1.336   3.598   6.660
 2300SOL    HW2 7797   1.229   3.497   6.732
 2301SOL     OW 7798   0.083   3.120   6.608
 2301SOL    HW1 7799   0.078   3.119   6.708
 2301SOL    HW2 7800   0.000   3.079   6.570
 2302SOL     OW 7801   0.688   3.524   7.302
 2302SOL    HW1 7802   0.632   3.605   7.311
 2302SOL    HW2 7803   0.740   3.528   7.216
 2303SOL     OW 7804   1.388   3.435   6.063
 2303SOL    HW1 7805   1.455   3.447   5.989
 2303SOL    HW2 7806   1.348   3.524   6.086
 2304SOL     OW 7807   0.130   3.656   7.437
 2304SOL    HW1 7808   0.089   3.582   7.490
 2304SOL    HW2 7809   0.194   3.707   7.495
 2305SOL     OW 7810   1.280   2.789   6.258
 2305SOL    HW1 7811   1.340   2.708   6.260
 2305SOL    HW2 7812   1.320   2.858   6.198
 2306SOL     OW 7813   0.830   3.135   7.008
 2306SOL    HW1 7814   0.825   3.168   7.103
 2306SOL    HW2 7815   0.744   3.154   6.962
 2307SOL     OW 7816   0.672   3.478   5.740
 2307SOL    HW1 7817   0.681   3.488   5.641
 2307SOL    HW2 7818   0.632   3.389   5.761
 2308SOL     OW 7819   1.650   3.582   6.980
 2308SOL    HW1 7820   1.703   3.592   6.896
 2308SOL    HW2 7821   1.623   3.672   7.014
 2309SOL     OW 7822   0.263   2.188   6.306
 2309SOL    HW1 7823   0.184   2.239   6.272
 2309SOL    HW2 7824   0.254   2.173   6.404
 2310SOL     OW 7825   1.194   3.474   5.617
 2310SOL    HW1 7826   1.200   3.381   5.654
 2310SOL    HW2 7827   1.135   3.474   5.537
 2311SOL     OW 7828   0.822   2.864   6.958
 2311SOL    HW1 7829   0.862   2.863   6.866
 2311SOL    HW2 7830   0.832   2.956   6.998
 2312SOL     OW 7831   0.916   2.772   5.877
 2312SOL    HW1 7832   0.979   2.810   5.809
 2312SOL    HW2 7833   0.956   2.689   5.916
 2313SOL     OW 7834   1.504   3.469   5.630
 2313SOL    HW1 7835   1.412   3.506   5.637
 2313SOL    HW2 7836   1.542   3.489   5.540
 2314SOL     OW 7837   0.372   3.150   7.076
 2314SOL    HW1 7838   0.359   3.243   7.042
 2314SOL    HW2 7839   0.288   3.098   7.063
 2315SOL     OW 7840   1.614   3.154   6.875
 2315SOL    HW1 7841   1.674   3.157   6.955
 2315SOL    HW2 7842   1.539   3.218   6.888
 2316SOL     OW 7843   1.039   2.960   6.282
 2316SOL    HW1 7844   0.969   2.913   6.336
 2316SOL    HW2 7845   1.098   2.892   6.239
 2317SOL     OW 7846   0.590   3.349   6.077
 2317SOL    HW1 7847   0.632   3.291   6.007
 2317SOL    HW2 7848   0.546   3.428   6.033
 2318SOL     OW 7849   0.255   3.210   5.876
 2318SOL    HW1 7850   0.159   3.211   5.849
 2318SOL    HW2 7851   0.267   3.263   5.960
 2319SOL     OW 7852   0.105   2.875   7.312
 2319SOL    HW1 7853   0.028   2.842   7.366
 2319SOL    HW2 7854   0.190   2.845   7.354
 2320SOL     OW 7855   0.672   2.065   7.075
 2320SOL    HW1 7856   0.762   2.049   7.035
 2320SOL    HW2 7857   0.680   2.070   7.174
 2321SOL     OW 7858   0.075   2.207   5.619
 2321SOL    HW1 7859  -0.017   2.179   5.590
 2321SOL    HW2 7860   0.106   2.284   5.563
 2322SOL     OW 7861   1.440   2.718   6.984
 2322SOL    HW1 7862   1.383   2.770   6.921
 2322SOL    HW2 7863   1.536   2.730   6.960
 2323SOL     OW 7864   0.072   2.028   5.904
 2323SOL    HW1 7865   0.055   2.111   5.850
 2323SOL    HW2 7866   0.162   1.991   5.882
 2324SOL     OW 7867   1.183   3.197   5.705
 2324SOL    HW1 7868   1.084   3.186   5.707
 2324SOL    HW2 7869   1.217   3.212   5.798
 2325SOL     OW 7870   0.613   2.704   7.017
 2325SOL    HW1 7871   0.669   2.785   7.000
 2325SOL    HW2 7872   0.672   2.624   7.020
 2326SOL     OW 7873   1.493   3.629   6.545
 2326SOL    HW1 7874   1.526   3.693   6.476
 2326SOL    HW2 7875   1.559   3.623   6.620
 2327SOL     OW 7876   0.716   2.427   7.294
 2327SOL    HW1 7877   0.735   2.492   7.368
 2327SOL    HW2 7878   0.776   2.347   7.303
 2328SOL     OW 7879   1.450   3.082   7.219
 2328SOL    HW1 7880   1.441   3.072   7.318
 2328SOL    HW2 7881   1.546   3.075   7.193
 2329SOL     OW 7882   0.390   3.603   7.146
 2329SOL    HW1 7883   0.299   3.644   7.144
 2329SOL    HW2 7884   0.383   3.509   7.178
 2330SOL     OW 7885   1.674   2.745   6.840
 2330SOL    HW1 7886   1.647   2.656   6.803
 2330SOL    HW2 7887   1.675   2.813   6.767
 2331SOL     OW 7888   0.594   2.607   6.238
 2331SOL    HW1 7889   0.644   2.692   6.219
 2331SOL    HW2 7890   0.506   2.609   6.190
 2332SOL     OW 7891   1.777   2.204   7.228
 2332SOL    HW1 7892   1.760   2.235   7.134
 2332SOL    HW2 7893   1.693   2.167   7.266
 2333SOL     OW 7894   1.730   2.796   7.103
 2333SOL    HW1 7895   1.768   2.887   7.118
 2333SOL    HW2 7896   1.722   2.779   7.004
 2334SOL     OW 7897   0.859   3.236   5.602
 2334SOL    HW1 7898   0.813   3.251   5.690
 2334SOL    HW2 7899   0.903   3.321   5.572
 2335SOL     OW 7900   0.661   3.652   6.539
 2335SOL    HW1 7901   0.615   3.740   6.526
 2335SOL    HW2 7902   0.760   3.664   6.532
 2336SOL     OW 7903   0.859   2.818   6.447
 2336SOL    HW1 7904   0.913   2.749   6.495
 2336SOL    HW2 7905   0.827   2.887   6.513
 2337SOL     OW 7906   1.083   2.846   5.673
 2337SOL    HW1 7907   1.060   2.899   5.591
 2337SOL    HW2 7908   1.164   2.790   5.654
 2338SOL     OW 7909   1.861   3.431   6.437
 2338SOL    HW1 7910   1.790   3.419   6.367
 2338SOL    HW2 7911   1.862   3.352   6.497
 2339SOL     OW 7912   0.221   3.176   7.430
 2339SOL    HW1 7913   0.156   3.103   7.409
 2339SOL    HW2 7914   0.225   3.190   7.528
 2340SOL     OW 7915   0.079   3.102   6.239
 2340SOL    HW1 7916   0.078   3.055   6.327
 2340SOL    HW2 7917   0.161   3.074   6.188
 2341SOL     OW 7918   0.672   3.253   7.210
 2341SOL    HW1 7919   0.594   3.203   7.248
 2341SOL    HW2 7920   0.669   3.348   7.241
 2342SOL     OW 7921   0.428   2.286   6.106
 2342SOL    HW1 7922   0.458   2.214   6.044
 2342SOL    HW2 7923   0.389   2.246   6.189
 2343SOL     OW 7924   1.705   3.349   6.690
 2343SOL    HW1 7925   1.612   3.324   6.663
 2343SOL    HW2 7926   1.731   3.299   6.772
 2344SOL     OW 7927   0.317   2.409   6.866
 2344SOL    HW1 7928   0.355   2.350   6.938
 2344SOL    HW2 7929   0.357   2.383   6.778
 2345SOL     OW 7930   0.812   3.448   6.273
 2345SOL    HW1 7931   0.844   3.458   6.179
 2345SOL    HW2 7932   0.733   3.386   6.275
 2346SOL     OW 7933   1.001   1.896   6.740
 2346SOL    HW1 7934   0.938   1.824   6.709
 2346SOL    HW2 7935   1.094   1.860   6.740
 2347SOL     OW 7936   0.770   3.192   5.887
 2347SOL    HW1 7937   0.724   3.105   5.904
 2347SOL    HW2 7938   0.861   3.189   5.928
 2348SOL     OW 7939   0.618   3.429   6.870
 2348SOL    HW1 7940   0.613   3.511   6.927
 2348SOL    HW2 7941   0.707   3.426   6.825
 2349SOL     OW 7942   1.352   1.914   5.754
 2349SOL    HW1 7943   1.387   1.873   5.670
 2349SOL    HW2 7944   1.262   1.876   5.774
 2350SOL     OW 7945   0.039   2.939   5.886
 2350SOL    HW1 7946   0.138   2.928   5.877
 2350SOL    HW2 7947  -0.001   2.853   5.918
 2351SOL     OW 7948   0.875   3.508   5.923
 2351SOL    HW1 7949   0.798   3.473   5.869
 2351SOL    HW2 7950   0.843   3.579   5.985
 2352SOL     OW 7951   0.230   2.490   7.561
 2352SOL    HW1 7952   0.137   2.488   7.598
 2352SOL    HW2 7953   0.231   2.451   7.469
 2353SOL     OW 7954   0.225   2.137   8.444
 2353SOL    HW1 7955   0.260   2.120   8.536
 2353SOL    HW2 7956   0.137   2.092   8.432
 2354SOL     OW 7957   0.019   2.230   8.095
 2354SOL    HW1 7958  -0.063   2.273   8.134
 2354SOL    HW2 7959  -0.009   2.157   8.032
 2355SOL     OW 7960   0.569   3.137   8.613
 2355SOL    HW1 7961   0.476   3.130   8.576
 2355SOL    HW2 7962   0.580   3.226   8.657
 2356SOL     OW 7963   1.555   3.373   8.151
 2356SOL    HW1 7964   1.498   3.357   8.232
 2356SOL    HW2 7965   1.496   3.383   8.071
 2357SOL     OW 7966   1.135   2.565   8.165
 2357SOL    HW1 7967   1.192   2.643   8.140
 2357SOL    HW2 7968   1.075   2.591   8.241
 2358SOL     OW 7969   0.768   3.006   8.471
 2358SOL    HW1 7970   0.690   3.023   8.531
 2358SOL    HW2 7971   0.802   3.093   8.435
 2359SOL     OW 7972   0.850   2.660   9.271
 2359SOL    HW1 7973   0.846   2.736   9.336
 2359SOL    HW2 7974   0.872   2.696   9.180
 2360SOL     OW 7975   0.685   2.874   8.113
 2360SOL    HW1 7976   0.754   2.858   8.183
 2360SOL    HW2 7977   0.612   2.931   8.151
 2361SOL     OW 7978   0.686   3.023   9.251
 2361SOL    HW1 7979   0.746   3.102   9.265
 2361SOL    HW2 7980   0.600   3.054   9.210
 2362SOL     OW 7981   0.335   3.297   8.509
 2362SOL    HW1 7982   0.257   3.266   8.456
 2362SOL    HW2 7983   0.393   3.355   8.452
 2363SOL     OW 7984   1.460   3.367   8.787
 2363SOL    HW1 7985   1.484   3.461   8.813
 2363SOL    HW2 7986   1.444   3.313   8.869
 2364SOL     OW 7987   0.438   2.254   8.947
 2364SOL    HW1 7988   0.520   2.198   8.956
 2364SOL    HW2 7989   0.357   2.196   8.951
 2365SOL     OW 7990   1.603   2.309   8.185
 2365SOL    HW1 7991   1.529   2.355   8.135
 2365SOL    HW2 7992   1.654   2.377   8.238
 2366SOL     OW 7993   0.231   3.575   7.931
 2366SOL    HW1 7994   0.265   3.652   7.985
 2366SOL    HW2 7995   0.275   3.575   7.841
 2367SOL     OW 7996   1.127   3.203   9.138
 2367SOL    HW1 7997   1.174   3.203   9.226
 2367SOL    HW2 7998   1.079   3.116   9.127
 2368SOL     OW 7999   0.230   3.296   7.986
 2368SOL    HW1 8000   0.204   3.392   7.986
 2368SOL    HW2 8001   0.159   3.242   8.031
 2369SOL     OW 8002   0.240   2.953   8.334
 2369SOL    HW1 8003   0.254   2.869   8.386
 2369SOL    HW2 8004   0.185   3.017   8.389
 2370SOL     OW 8005   0.620   3.648   8.887
 2370SOL    HW1 8006   0.528   3.631   8.922
 2370SOL    HW2 8007   0.648   3.740   8.913
 2371SOL     OW 8008   0.606   2.826   7.571
 2371SOL    HW1 8009   0.613   2.910   7.517
 2371SOL    HW2 8010   0.652   2.839   7.659
 2372SOL     OW 8011   1.594   1.976   8.928
 2372SOL    HW1 8012   1.576   2.043   8.856
 2372SOL    HW2 8013   1.591   2.022   9.017
 2373SOL     OW 8014   0.122   2.505   8.011
 2373SOL    HW1 8015   0.077   2.417   8.028
 2373SOL    HW2 8016   0.121   2.559   8.095
 2374SOL     OW 8017   1.842   3.629   7.807
 2374SOL    HW1 8018   1.896   3.600   7.887
 2374SOL    HW2 8019   1.872   3.719   7.778
 2375SOL     OW 8020   0.027   3.458   7.565
 2375SOL    HW1 8021   0.008   3.362   7.586
 2375SOL    HW2 8022  -0.006   3.516   7.640
 2376SOL     OW 8023   1.689   2.784   8.060
 2376SOL    HW1 8024   1.784   2.755   8.068
 2376SOL    HW2 8025   1.681   2.849   7.985
 2377SOL     OW 8026   1.641   2.970   7.880
 2377SOL    HW1 8027   1.727   2.972   7.828
 2377SOL    HW2 8028   1.655   3.017   7.968
 2378SOL     OW 8029   0.113   2.599   9.045
 2378SOL    HW1 8030   0.201   2.586   9.090
 2378SOL    HW2 8031   0.100   2.696   9.023
 2379SOL     OW 8032   0.613   3.227   8.174
 2379SOL    HW1 8033   0.564   3.140   8.183
 2379SOL    HW2 8034   0.590   3.270   8.087
 2380SOL     OW 8035   1.293   3.090   8.871
 2380SOL    HW1 8036   1.330   3.017   8.813
 2380SOL    HW2 8037   1.345   3.095   8.956
 2381SOL     OW 8038   0.809   1.866   7.950
 2381SOL    HW1 8039   0.849   1.957   7.941
 2381SOL    HW2 8040   0.709   1.874   7.956
 2382SOL     OW 8041   0.197   2.838   8.712
 2382SOL    HW1 8042   0.286   2.793   8.698
 2382SOL    HW2 8043   0.124   2.773   8.693
 2383SOL     OW 8044   1.525   2.861   7.638
 2383SOL    HW1 8045   1.462   2.785   7.651
 2383SOL    HW2 8046   1.573   2.879   7.724
 2384SOL     OW 8047   1.187   3.654   9.064
 2384SOL    HW1 8048   1.211   3.714   8.988
 2384SOL    HW2 8049   1.194   3.559   9.034
 2385SOL     OW 8050   0.317   2.113   9.249
 2385SOL    HW1 8051   0.388   2.184   9.255
 2385SOL    HW2 8052   0.229   2.152   9.277
 2386SOL     OW 8053   1.466   3.279   8.401
 2386SOL    HW1 8054   1.407   3.285   8.481
 2386SOL    HW2 8055   1.451   3.191   8.355
 2387SOL     OW 8056   1.667   3.576   8.020
 2387SOL    HW1 8057   1.626   3.553   7.932
 2387SOL    HW2 8058   1.649   3.502   8.085
 2388SOL     OW 8059   0.598   2.591   7.718
 2388SOL    HW1 8060   0.622   2.660   7.650
 2388SOL    HW2 8061   0.520   2.624   7.772
 2389SOL     OW 8062   1.281   2.207   8.392
 2389SOL    HW1 8063   1.195   2.157   8.379
 2389SOL    HW2 8064   1.343   2.153   8.448
 2390SOL     OW 8065   1.576   3.524   7.755
 2390SOL    HW1 8066   1.665   3.570   7.758
 2390SOL    HW2 8067   1.555   3.500   7.660
 2391SOL     OW 8068   0.807   2.467   8.913
 2391SOL    HW1 8069   0.760   2.464   9.002
 2391SOL    HW2 8070   0.756   2.412   8.847
 2392SOL     OW 8071   1.394   2.331   9.122
 2392SOL    HW1 8072   1.374   2.374   9.210
 2392SOL    HW2 8073   1.472   2.269   9.131
 2393SOL     OW 8074   0.973   2.752   9.020
 2393SOL    HW1 8075   1.019   2.668   8.991
 2393SOL    HW2 8076   0.917   2.786   8.945
 2394SOL     OW 8077   0.991   2.272   8.690
 2394SOL    HW1 8078   0.914   2.306   8.744
 2394SOL    HW2 8079   0.957   2.221   8.611
 2395SOL     OW 8080   1.041   2.563   7.877
 2395SOL    HW1 8081   1.067   2.559   7.973
 2395SOL    HW2 8082   0.956   2.512   7.863
 2396SOL     OW 8083   0.076   2.673   8.237
 2396SOL    HW1 8084   0.175   2.661   8.246
 2396SOL    HW2 8085   0.052   2.768   8.258
 2397SOL     OW 8086   0.130   3.683   9.019
 2397SOL    HW1 8087   0.120   3.668   9.118
 2397SOL    HW2 8088   0.044   3.719   8.983
 2398SOL     OW 8089   0.865   2.210   7.643
 2398SOL    HW1 8090   0.924   2.273   7.594
 2398SOL    HW2 8091   0.884   2.116   7.614
 2399SOL     OW 8092   1.719   2.447   9.279
 2399SOL    HW1 8093   1.693   2.536   9.243
 2399SOL    HW2 8094   1.717   2.379   9.206
 2400SOL     OW 8095   1.362   3.006   7.993
 2400SOL    HW1 8096   1.445   2.977   7.945
 2400SOL    HW2 8097   1.313   3.073   7.937
 2401SOL     OW 8098   0.550   2.058   8.333
 2401SOL    HW1 8099   0.545   2.053   8.433
 2401SOL    HW2 8100   0.552   2.154   8.304
 2402SOL     OW 8101   1.008   3.318   7.925
 2402SOL    HW1 8102   0.962   3.390   7.873
 2402SOL    HW2 8103   1.004   3.338   8.023
 2403SOL     OW 8104   0.351   3.663   8.301
 2403SOL    HW1 8105   0.401   3.577   8.307
 2403SOL    HW2 8106   0.416   3.740   8.298
 2404SOL     OW 8107   1.795   2.928   8.321
 2404SOL    HW1 8108   1.733   2.913   8.245
 2404SOL    HW2 8109   1.743   2.939   8.406
 2405SOL     OW 8110   1.227   3.412   8.954
 2405SOL    HW1 8111   1.233   3.335   9.018
 2405SOL    HW2 8112   1.175   3.386   8.874
 2406SOL     OW 8113   0.321   2.805   7.690
 2406SOL    HW1 8114   0.403   2.844   7.648
 2406SOL    HW2 8115   0.294   2.723   7.641
 2407SOL     OW 8116   1.458   2.597   8.176
 2407SOL    HW1 8117   1.453   2.532   8.251
 2407SOL    HW2 8118   1.538   2.656   8.189
 2408SOL     OW 8119   0.461   3.128   9.175
 2408SOL    HW1 8120   0.411   3.129   9.089
 2408SOL    HW2 8121   0.398   3.110   9.251
 2409SOL     OW 8122   1.111   3.638   7.685
 2409SOL    HW1 8123   1.051   3.576   7.735
 2409SOL    HW2 8124   1.142   3.594   7.600
 2410SOL     OW 8125   0.202   2.147   8.946
 2410SOL    HW1 8126   0.122   2.207   8.933
 2410SOL    HW2 8127   0.192   2.098   9.032
 2411SOL     OW 8128   1.632   3.239   7.529
 2411SOL    HW1 8129   1.600   3.333   7.519
 2411SOL    HW2 8130   1.556   3.176   7.517
 2412SOL     OW 8131   0.464   3.605   7.771
 2412SOL    HW1 8132   0.497   3.644   7.857
 2412SOL    HW2 8133   0.540   3.598   7.706
 2413SOL     OW 8134   0.249   3.647   8.689
 2413SOL    HW1 8135   0.306   3.582   8.739
 2413SOL    HW2 8136   0.233   3.614   8.596
 2414SOL     OW 8137   0.940   3.560   8.352
 2414SOL    HW1 8138   1.020   3.503   8.373
 2414SOL    HW2 8139   0.891   3.520   8.275
 2415SOL     OW 8140   0.382   2.562   7.928
 2415SOL    HW1 8141   0.427   2.472   7.925
 2415SOL    HW2 8142   0.288   2.551   7.961
 2416SOL     OW 8143   1.547   2.084   9.177
 2416SOL    HW1 8144   1.542   2.121   9.269
 2416SOL    HW2 8145   1.475   2.015   9.165
 2417SOL     OW 8146   0.614   1.984   7.565
 2417SOL    HW1 8147   0.712   1.962   7.572
 2417SOL    HW2 8148   0.583   1.967   7.472
 2418SOL     OW 8149   0.781   2.126   9.197
 2418SOL    HW1 8150   0.848   2.065   9.240
 2418SOL    HW2 8151   0.708   2.145   9.262
 2419SOL     OW 8152   0.888   3.376   8.643
 2419SOL    HW1 8153   0.865   3.351   8.549
 2419SOL    HW2 8154   0.949   3.307   8.682
 2420SOL     OW 8155   1.351   2.452   8.881
 2420SOL    HW1 8156   1.379   2.409   8.966
 2420SOL    HW2 8157   1.376   2.548   8.882
 2421SOL     OW 8158   0.803   3.264   8.372
 2421SOL    HW1 8159   0.893   3.278   8.330
 2421SOL    HW2 8160   0.732   3.266   8.301
 2422SOL     OW 8161   0.922   2.365   8.347
 2422SOL    HW1 8162   0.897   2.356   8.251
 2422SOL    HW2 8163   0.970   2.283   8.378
 2423SOL     OW 8164   0.539   1.926   7.960
 2423SOL    HW1 8165   0.458   1.927   8.018
 2423SOL    HW2 8166   0.542   2.009   7.905
 2424SOL     OW 8167   1.434   3.050   7.489
 2424SOL    HW1 8168   1.466   2.974   7.546
 2424SOL    HW2 8169   1.342   3.077   7.519
 2425SOL     OW 8170   0.297   1.897   7.619
 2425SOL    HW1 8171   0.346   1.981   7.598
 2425SOL    HW2 8172   0.359   1.832   7.664
 2426SOL     OW 8173   0.935   2.098   7.928
 2426SOL    HW1 8174   0.887   2.139   7.850
 2426SOL    HW2 8175   1.034   2.096   7.909
 2427SOL     OW 8176   1.076   2.545   8.912
 2427SOL    HW1 8177   0.996   2.484   8.915
 2427SOL    HW2 8178   1.157   2.492   8.888
 2428SOL     OW 8179   1.227   3.432   8.241
 2428SOL    HW1 8180   1.248   3.506   8.176
 2428SOL    HW2 8181   1.295   3.432   8.314
 2429SOL     OW 8182   0.459   3.014   8.189
 2429SOL    HW1 8183   0.388   2.987   8.254
 2429SOL    HW2 8184   0.433   2.986   8.096
 2430SOL     OW 8185   1.271   3.659   8.039
 2430SOL    HW1 8186   1.315   3.723   7.975
 2430SOL    HW2 8187   1.221   3.711   8.109
 2431SOL     OW 8188   1.032   2.411   7.464
 2431SOL    HW1 8189   0.991   2.493   7.425
 2431SOL    HW2 8190   1.096   2.437   7.537
 2432SOL     OW 8191   0.078   2.418   8.834
 2432SOL    HW1 8192   0.170   2.417   8.793
 2432SOL    HW2 8193   0.072   2.492   8.901
 2433SOL     OW 8194   0.561   2.084   8.595
 2433SOL    HW1 8195   0.599   2.000   8.632
 2433SOL    HW2 8196   0.473   2.103   8.639
 2434SOL     OW 8197   0.866   2.316   8.090
 2434SOL    HW1 8198   0.834   2.388   8.028
 2434SOL    HW2 8199   0.890   2.235   8.037
 2435SOL     OW 8200   1.017   1.901   8.201
 2435SOL    HW1 8201   0.945   1.906   8.132
 2435SOL    HW2 8202   0.993   1.832   8.270
 2436SOL     OW 8203   1.429   3.035   8.315
 2436SOL    HW1 8204   1.374   2.951   8.308
 2436SOL    HW2 8205   1.455   3.064   8.223
 2437SOL     OW 8206   1.466   2.452   8.440
 2437SOL    HW1 8207   1.436   2.357   8.447
 2437SOL    HW2 8208   1.539   2.468   8.506
 2438SOL     OW 8209   0.488   3.247   7.622
 2438SOL    HW1 8210   0.401   3.232   7.669
 2438SOL    HW2 8211   0.471   3.273   7.527
 2439SOL     OW 8212   1.664   3.142   8.105
 2439SOL    HW1 8213   1.763   3.150   8.119
 2439SOL    HW2 8214   1.619   3.226   8.136
 2440SOL     OW 8215   0.527   2.118   7.776
 2440SOL    HW1 8216   0.554   2.059   7.701
 2440SOL    HW2 8217   0.527   2.213   7.745
 2441SOL     OW 8218   1.754   3.085   9.036
 2441SOL    HW1 8219   1.845   3.046   9.023
 2441SOL    HW2 8220   1.762   3.181   9.060
 2442SOL     OW 8221   1.064   3.209   8.788
 2442SOL    HW1 8222   0.984   3.186   8.843
 2442SOL    HW2 8223   1.147   3.183   8.837
 2443SOL     OW 8224   1.592   3.491   9.073
 2443SOL    HW1 8225   1.619   3.525   8.983
 2443SOL    HW2 8226   1.671   3.453   9.119
 2444SOL     OW 8227   1.111   3.057   8.548
 2444SOL    HW1 8228   1.071   3.101   8.629
 2444SOL    HW2 8229   1.070   3.094   8.465
 2445SOL     OW 8230   1.638   2.961   8.527
 2445SOL    HW1 8231   1.643   3.042   8.586
 2445SOL    HW2 8232   1.552   2.963   8.476
 2446SOL     OW 8233   0.915   1.951   8.850
 2446SOL    HW1 8234   0.940   1.931   8.755
 2446SOL    HW2 8235   0.987   2.007   8.892
 2447SOL     OW 8236   0.980   2.978   9.167
 2447SOL    HW1 8237   0.881   2.984   9.177
 2447SOL    HW2 8238   1.003   2.898   9.111
 2448SOL     OW 8239   0.705   2.912   7.816
 2448SOL    HW1 8240   0.691   2.919   7.915
 2448SOL    HW2 8241   0.789   2.861   7.798
 2449SOL     OW 8242   0.410   2.675   8.699
 2449SOL    HW1 8243   0.496   2.687   8.749
 2449SOL    HW2 8244   0.368   2.588   8.726
 2450SOL     OW 8245   1.274   2.248   8.710
 2450SOL    HW1 8246   1.295   2.322   8.774
 2450SOL    HW2 8247   1.185   2.265   8.667
 2451SOL     OW 8248   0.064   3.426   8.779
 2451SOL    HW1 8249   0.018   3.508   8.745
 2451SOL    HW2 8250   0.162   3.445   8.788
 2452SOL     OW 8251   0.367   2.962   7.949
 2452SOL    HW1 8252   0.360   3.045   7.893
 2452SOL    HW2 8253   0.371   2.882   7.889
 2453SOL     OW 8254   0.566   2.399   8.313
 2453SOL    HW1 8255   0.578   2.465   8.239
 2453SOL    HW2 8256   0.612   2.433   8.396
 2454SOL     OW 8257   1.252   3.210   7.836
 2454SOL    HW1 8258   1.302   3.287   7.876
 2454SOL    HW2 8259   1.157   3.212   7.868
 2455SOL     OW 8260   1.272   3.307   8.590
 2455SOL    HW1 8261   1.319   3.320   8.677
 2455SOL    HW2 8262   1.206   3.233   8.599
 2456SOL     OW 8263   0.354   3.372   8.777
 2456SOL    HW1 8264   0.333   3.328   8.690
 2456SOL    HW2 8265   0.451   3.398   8.780
 2457SOL     OW 8266   0.402   2.613   9.046
 2457SOL    HW1 8267   0.470   2.668   8.999
 2457SOL    HW2 8268   0.442   2.525   9.073
 2458SOL     OW 8269   1.587   2.641   9.118
 2458SOL    HW1 8270   1.495   2.679   9.113
 2458SOL    HW2 8271   1.647   2.688   9.053
 2459SOL     OW 8272   1.013   1.967   9.218
 2459SOL    HW1 8273   1.019   2.052   9.166
 2459SOL    HW2 8274   1.045   1.891   9.161
 2460SOL     OW 8275   0.504   1.912   9.188
 2460SOL    HW1 8276   0.462   1.855   9.118
 2460SOL    HW2 8277   0.438   1.981   9.220
 2461SOL     OW 8278   0.573   2.732   8.477
 2461SOL    HW1 8279   0.617   2.821   8.468
 2461SOL    HW2 8280   0.510   2.732   8.554
 2462SOL     OW 8281   1.360   2.724   8.493
 2462SOL    HW1 8282   1.285   2.724   8.427
 2462SOL    HW2 8283   1.397   2.632   8.502
 2463SOL     OW 8284   0.307   2.075   8.679
 2463SOL    HW1 8285   0.284   2.112   8.769
 2463SOL    HW2 8286   0.277   1.980   8.673
 2464SOL     OW 8287   0.037   3.172   8.730
 2464SOL    HW1 8288   0.090   3.123   8.798
 2464SOL    HW2 8289   0.059   3.270   8.735
 2465SOL     OW 8290   0.732   2.496   8.512
 2465SOL    HW1 8291   0.791   2.470   8.436
 2465SOL    HW2 8292   0.704   2.592   8.501
 2466SOL     OW 8293   1.728   2.797   9.302
 2466SOL    HW1 8294   1.682   2.790   9.213
 2466SOL    HW2 8295   1.666   2.841   9.368
 2467SOL     OW 8296   0.307   1.925   8.066
 2467SOL    HW1 8297   0.296   2.019   8.099
 2467SOL    HW2 8298   0.302   1.862   8.143
 2468SOL     OW 8299   1.023   2.628   8.414
 2468SOL    HW1 8300   1.038   2.649   8.510
 2468SOL    HW2 8301   0.993   2.533   8.405
 2469SOL     OW 8302   0.980   3.435   9.148
 2469SOL    HW1 8303   0.960   3.479   9.060
 2469SOL    HW2 8304   1.019   3.344   9.132
 2470SOL     OW 8305   1.859   3.380   9.053
 2470SOL    HW1 8306   1.873   3.407   8.958
 2470SOL    HW2 8307   1.942   3.402   9.106
 2471SOL     OW 8308   0.350   2.760   9.252
 2471SOL    HW1 8309   0.426   2.804   9.300
 2471SOL    HW2 8310   0.385   2.713   9.170
 2472SOL     OW 8311   1.303   2.700   7.490
 2472SOL    HW1 8312   1.337   2.607   7.505
 2472SOL    HW2 8313   1.321   2.727   7.395
 2473SOL     OW 8314   1.068   3.195   8.297
 2473SOL    HW1 8315   1.075   3.111   8.242
 2473SOL    HW2 8316   1.130   3.264   8.261
 2474SOL     OW 8317   0.319   2.672   8.397
 2474SOL    HW1 8318   0.412   2.708   8.402
 2474SOL    HW2 8319   0.313   2.587   8.449
 2475SOL     OW 8320   0.339   2.371   8.454
 2475SOL    HW1 8321   0.287   2.288   8.437
 2475SOL    HW2 8322   0.416   2.376   8.390
 2476SOL     OW 8323   1.138   2.242   9.126
 2476SOL    HW1 8324   1.093   2.305   9.190
 2476SOL    HW2 8325   1.231   2.273   9.109
 2477SOL     OW 8326   1.160   2.069   8.925
 2477SOL    HW1 8327   1.160   2.133   9.002
 2477SOL    HW2 8328   1.188   2.117   8.842
 2478SOL     OW 8329   0.008   3.188   7.648
 2478SOL    HW1 8330  -0.085   3.209   7.617
 2478SOL    HW2 8331   0.018   3.089   7.661
 2479SOL     OW 8332   0.088   3.663   8.375
 2479SOL    HW1 8333   0.046   3.577   8.348
 2479SOL    HW2 8334   0.182   3.666   8.341
 2480SOL     OW 8335   0.504   3.430   8.358
 2480SOL    HW1 8336   0.570   3.504   8.367
 2480SOL    HW2 8337   0.548   3.351   8.316
 2481SOL     OW 8338   1.002   2.658   8.686
 2481SOL    HW1 8339   1.043   2.626   8.772
 2481SOL    HW2 8340   0.906   2.631   8.683
 2482SOL     OW 8341   0.040   2.406   8.562
 2482SOL    HW1 8342   0.125   2.373   8.521
 2482SOL    HW2 8343   0.053   2.421   8.660
 2483SOL     OW 8344   0.189   2.382   9.170
 2483SOL    HW1 8345   0.248   2.342   9.100
 2483SOL    HW2 8346   0.131   2.453   9.129
 2484SOL     OW 8347   1.369   2.812   9.108
 2484SOL    HW1 8348   1.408   2.901   9.128
 2484SOL    HW2 8349   1.379   2.792   9.011
 2485SOL     OW 8350   0.815   2.434   7.773
 2485SOL    HW1 8351   0.822   2.345   7.727
 2485SOL    HW2 8352   0.721   2.468   7.765
 2486SOL     OW 8353   1.657   2.466   8.654
 2486SOL    HW1 8354   1.619   2.397   8.716
 2486SOL    HW2 8355   1.739   2.430   8.610
 2487SOL     OW 8356   0.252   3.426   9.192
 2487SOL    HW1 8357   0.222   3.483   9.268
 2487SOL    HW2 8358   0.245   3.329   9.218
 2488SOL     OW 8359   0.671   2.326   8.717
 2488SOL    HW1 8360   0.637   2.237   8.687
 2488SOL    HW2 8361   0.697   2.380   8.637
 2489SOL     OW 8362   0.930   3.540   8.913
 2489SOL    HW1 8363   0.906   3.522   8.818
 2489SOL    HW2 8364   0.960   3.634   8.923
 2490SOL     OW 8365   0.473   2.362   7.639
 2490SOL    HW1 8366   0.534   2.442   7.643
 2490SOL    HW2 8367   0.378   2.393   7.646
 2491SOL     OW 8368   0.159   2.999   8.914
 2491SOL    HW1 8369   0.181   2.938   8.990
 2491SOL    HW2 8370   0.169   2.950   8.828
 2492SOL     OW 8371   1.347   2.921   8.682
 2492SOL    HW1 8372   1.371   2.858   8.608
 2492SOL    HW2 8373   1.257   2.961   8.664
 2493SOL     OW 8374   1.302   2.717   7.757
 2493SOL    HW1 8375   1.216   2.686   7.799
 2493SOL    HW2 8376   1.298   2.703   7.658
 2494SOL     OW 8377   1.759   3.609   8.602
 2494SOL    HW1 8378   1.820   3.639   8.529
 2494SOL    HW2 8379   1.721   3.520   8.580
 2495SOL     OW 8380   1.252   3.593   8.576
 2495SOL    HW1 8381   1.336   3.598   8.522
 2495SOL    HW2 8382   1.229   3.497   8.594
 2496SOL     OW 8383   0.083   3.120   8.470
 2496SOL    HW1 8384   0.078   3.119   8.570
 2496SOL    HW2 8385   0.000   3.079   8.432
 2497SOL     OW 8386   0.688   3.524   9.164
 2497SOL    HW1 8387   0.632   3.605   9.173
 2497SOL    HW2 8388   0.740   3.528   9.078
 2498SOL     OW 8389   1.388   3.435   7.925
 2498SOL    HW1 8390   1.455   3.447   7.851
 2498SOL    HW2 8391   1.348   3.524   7.948
 2499SOL     OW 8392   0.130   3.656   9.299
 2499SOL    HW1 8393   0.089   3.582   9.352
 2499SOL    HW2 8394   0.194   3.707   9.357
 2500SOL     OW 8395   1.280   2.789   8.120
 2500SOL    HW1 8396   1.340   2.708   8.122
 2500SOL    HW2 8397   1.320   2.858   8.060
 2501SOL     OW 8398   0.830   3.135   8.870
 2501SOL    HW1 8399   0.825   3.168   8.965
 2501SOL    HW2 8400   0.744   3.154   8.824
 2502SOL     OW 8401   0.672   3.478   7.602
 2502SOL    HW1 8402   0.681   3.488   7.503
 2502SOL    HW2 8403   0.632   3.389   7.623
 2503SOL     OW 8404   1.650   3.582   8.842
 2503SOL    HW1 8405   1.703   3.592   8.758
 2503SOL    HW2 8406   1.623   3.672   8.876
 2504SOL     OW 8407   0.263   2.188   8.168
 2504SOL    HW1 8408   0.184   2.239   8.134
 2504SOL    HW2 8409   0.254   2.173   8.266
 2505SOL     OW 8410   1.194   3.474   7.479
 2505SOL    HW1 8411   1.200   3.381   7.516
 2505SOL    HW2 8412   1.135   3.474   7.399
 2506SOL     OW 8413   0.822   2.864   8.820
 2506SOL    HW1 8414   0.862   2.863   8.728
 2506SOL    HW2 8415   0.832   2.956   8.860
 2507SOL     OW 8416   0.916   2.772   7.739
 2507SOL    HW1 8417   0.979   2.810   7.671
 2507SOL    HW2 8418   0.956   2.689   7.778
 2508SOL     OW 8419   1.504   3.469   7.492
 2508SOL    HW1 8420   1.412   3.506   7.499
 2508SOL    HW2 8421   1.542   3.489   7.402
 2509SOL     OW 8422   0.372   3.150   8.938
 2509SOL    HW1 8423   0.359   3.243   8.904
 2509SOL    HW2 8424   0.288   3.098   8.925
 2510SOL     OW 8425   1.614   3.154   8.737
 2510SOL    HW1 8426   1.674   3.157   8.817
 2510SOL    HW2 8427   1.539   3.218   8.750
 2511SOL     OW 8428   1.039   2.960   8.144
 2511SOL    HW1 8429   0.969   2.913   8.198
 2511SOL    HW2 8430   1.098   2.892   8.101
 2512SOL     OW 8431   1.014   2.098   8.419
 2512SOL    HW1 8432   1.006   2.062   8.326
 2512SOL    HW2 8433   1.012   2.022   8.484
 2513SOL     OW 8434   0.590   3.349   7.939
 2513SOL    HW1 8435   0.632   3.291   7.869
 2513SOL    HW2 8436   0.546   3.428   7.895
 2514SOL     OW 8437   1.709   2.247   8.829
 2514SOL    HW1 8438   1.782   2.316   8.833
 2514SOL    HW2 8439   1.737   2.172   8.770
 2515SOL     OW 8440   0.255   3.210   7.738
 2515SOL    HW1 8441   0.159   3.211   7.711
 2515SOL    HW2 8442   0.267   3.263   7.822
 2516SOL     OW 8443   0.105   2.875   9.174
 2516SOL    HW1 8444   0.028   2.842   9.228
 2516SOL    HW2 8445   0.190   2.845   9.216
 2517SOL     OW 8446   0.672   2.065   8.937
 2517SOL    HW1 8447   0.762   2.049   8.897
 2517SOL    HW2 8448   0.680   2.070   9.036
 2518SOL     OW 8449   0.075   2.207   7.481
 2518SOL    HW1 8450  -0.017   2.179   7.452
 2518SOL    HW2 8451   0.106   2.284   7.425
 2519SOL     OW 8452   1.440   2.718   8.846
 2519SOL    HW1 8453   1.383   2.770   8.783
 2519SOL    HW2 8454   1.536   2.730   8.822
 2520SOL     OW 8455   0.072   2.028   7.766
 2520SOL    HW1 8456   0.055   2.111   7.712
 2520SOL    HW2 8457   0.162   1.991   7.744
 2521SOL     OW 8458   1.183   3.197   7.567
 2521SOL    HW1 8459   1.084   3.186   7.569
 2521SOL    HW2 8460   1.217   3.212   7.660
 2522SOL     OW 8461   0.613   2.704   8.879
 2522SOL    HW1 8462   0.669   2.785   8.862
 2522SOL    HW2 8463   0.672   2.624   8.882
 2523SOL     OW 8464   1.493   3.629   8.407
 2523SOL    HW1 8465   1.526   3.693   8.338
 2523SOL    HW2 8466   1.559   3.623   8.482
 2524SOL     OW 8467   0.716   2.427   9.156
 2524SOL    HW1 8468   0.735   2.492   9.230
 2524SOL    HW2 8469   0.776   2.347   9.165
 2525SOL     OW 8470   1.450   3.082   9.081
 2525SOL    HW1 8471   1.441   3.072   9.180
 2525SOL    HW2 8472   1.546   3.075   9.055
 2526SOL     OW 8473   0.390   3.603   9.008
 2526SOL    HW1 8474   0.299   3.644   9.006
 2526SOL    HW2 8475   0.383   3.509   9.040
 2527SOL     OW 8476   1.674   2.745   8.702
 2527SOL    HW1 8477   1.647   2.656   8.665
 2527SOL    HW2 8478   1.675   2.813   8.629
 2528SOL     OW 8479   0.594   2.607   8.100
 2528SOL    HW1 8480   0.644   2.692   8.081
 2528SOL    HW2 8481   0.506   2.609   8.052
 2529SOL     OW 8482   1.777   2.204   9.090
 2529SOL    HW1 8483   1.760   2.235   8.996
 2529SOL    HW2 8484   1.693   2.167   9.128
 2530SOL     OW 8485   1.730   2.796   8.965
 2530SOL    HW1 8486   1.768   2.887   8.980
 2530SOL    HW2 8487   1.722   2.779   8.866
 2531SOL     OW 8488   0.859   3.236   7.464
 2531SOL    HW1 8489   0.813   3.251   7.552
 2531SOL    HW2 8490   0.903   3.321   7.434
 2532SOL     OW 8491   0.661   3.652   8.401
 2532SOL    HW1 8492   0.615   3.740   8.388
 2532SOL    HW2 8493   0.760   3.664   8.394
 2533SOL     OW 8494   0.859   2.818   8.309
 2533SOL    HW1 8495   0.913   2.749   8.357
 2533SOL    HW2 8496   0.827   2.887   8.375
 2534SOL     OW 8497   1.083   2.846   7.535
 2534SOL    HW1 8498   1.060   2.899   7.453
 2534SOL    HW2 8499   1.164   2.790   7.516
 2535SOL     OW 8500   1.861   3.431   8.299
 2535SOL    HW1 8501   1.790   3.419   8.229
 2535SOL    HW2 8502   1.862   3.352   8.359
 2536SOL     OW 8503   0.221   3.176   9.292
 2536SOL    HW1 8504   0.156   3.103   9.271
 2536SOL    HW2 8505   0.225   3.190   9.390
 2537SOL     OW 8506   0.079   3.102   8.101
 2537SOL    HW1 8507   0.078   3.055   8.189
 2537SOL    HW2 8508   0.161   3.074   8.050
 2538SOL     OW 8509   0.672   3.253   9.072
 2538SOL    HW1 8510   0.594   3.203   9.110
 2538SOL    HW2 8511   0.669   3.348   9.103
 2539SOL     OW 8512   0.428   2.286   7.968
 2539SOL    HW1 8513   0.458   2.214   7.906
 2539SOL    HW2 8514   0.389   2.246   8.051
 2540SOL     OW 8515   1.705   3.349   8.552
 2540SOL    HW1 8516   1.612   3.324   8.525
 2540SOL    HW2 8517   1.731   3.299   8.634
 2541SOL     OW 8518   0.317   2.409   8.728
 2541SOL    HW1 8519   0.355   2.350   8.800
 2541SOL    HW2 8520   0.357   2.383   8.640
 2542SOL     OW 8521   0.812   3.448   8.135
 2542SOL    HW1 8522   0.844   3.458   8.041
 2542SOL    HW2 8523   0.733   3.386   8.137
 2543SOL     OW 8524   1.424   2.076   8.560
 2543SOL    HW1 8525   1.476   2.011   8.615
 2543SOL    HW2 8526   1.375   2.139   8.621
 2544SOL     OW 8527   1.001   1.896   8.602
 2544SOL    HW1 8528   0.938   1.824   8.571
 2544SOL    HW2 8529   1.094   1.860   8.602
 2545SOL     OW 8530   0.770   3.192   7.749
 2545SOL    HW1 8531   0.724   3.105   7.766
 2545SOL    HW2 8532   0.861   3.189   7.790
 2546SOL     OW 8533   0.618   3.429   8.732
 2546SOL    HW1 8534   0.613   3.511   8.789
 2546SOL    HW2 8535   0.707   3.426   8.687
 2547SOL     OW 8536   1.300   2.315   8.139
 2547SOL    HW1 8537   1.241   2.395   8.143
 2547SOL    HW2 8538   1.315   2.280   8.232
 2548SOL     OW 8539   1.593   2.083   8.330
 2548SOL    HW1 8540   1.509   2.082   8.384
 2548SOL    HW2 8541   1.595   2.166   8.274
 2549SOL     OW 8542   0.039   2.939   7.748
 2549SOL    HW1 8543   0.138   2.928   7.739
 2549SOL    HW2 8544  -0.001   2.853   7.780
 2550SOL     OW 8545   0.875   3.508   7.785
 2550SOL    HW1 8546   0.798   3.473   7.731
 2550SOL    HW2 8547   0.843   3.579   7.847
 2551SOL     OW 8548   0.230   2.490   9.423
 2551SOL    HW1 8549   0.137   2.488   9.460
 2551SOL    HW2 8550   0.231   2.451   9.331
 2552SOL     OW 8551   0.225   2.137  10.306
 2552SOL    HW1 8552   0.260   2.120  10.398
 2552SOL    HW2 8553   0.137   2.092  10.294
 2553SOL     OW 8554   0.019   2.230   9.957
 2553SOL    HW1 8555  -0.063   2.273   9.996
 2553SOL    HW2 8556  -0.009   2.157   9.894
 2554SOL     OW 8557   0.569   3.137  10.475
 2554SOL    HW1 8558   0.476   3.130  10.438
 2554SOL    HW2 8559   0.580   3.226  10.519
 2555SOL     OW 8560   1.555   3.373  10.013
 2555SOL    HW1 8561   1.498   3.357  10.094
 2555SOL    HW2 8562   1.496   3.383   9.933
 2556SOL     OW 8563   1.135   2.565  10.027
 2556SOL    HW1 8564   1.192   2.643  10.002
 2556SOL    HW2 8565   1.075   2.591  10.103
 2557SOL     OW 8566   1.755   2.469   9.541
 2557SOL    HW1 8567   1.743   2.456   9.442
 2557SOL    HW2 8568   1.725   2.388   9.590
 2558SOL     OW 8569   0.768   3.006  10.333
 2558SOL    HW1 8570   0.690   3.023  10.393
 2558SOL    HW2 8571   0.802   3.093  10.297
 2559SOL     OW 8572   0.850   2.660  11.133
 2559SOL    HW1 8573   0.846   2.736  11.198
 2559SOL    HW2 8574   0.872   2.696  11.042
 2560SOL     OW 8575   0.685   2.874   9.975
 2560SOL    HW1 8576   0.754   2.858  10.045
 2560SOL    HW2 8577   0.612   2.931  10.013
 2561SOL     OW 8578   0.686   3.023  11.113
 2561SOL    HW1 8579   0.746   3.102  11.127
 2561SOL    HW2 8580   0.600   3.054  11.072
 2562SOL     OW 8581   0.335   3.297  10.371
 2562SOL    HW1 8582   0.257   3.266  10.318
 2562SOL    HW2 8583   0.393   3.355  10.314
 2563SOL     OW 8584   1.460   3.367  10.649
 2563SOL    HW1 8585   1.484   3.461  10.675
 2563SOL    HW2 8586   1.444   3.313  10.731
 2564SOL     OW 8587   0.438   2.254  10.809
 2564SOL    HW1 8588   0.520   2.198  10.818
 2564SOL    HW2 8589   0.357   2.196  10.813
 2565SOL     OW 8590   1.603   2.309  10.047
 2565SOL    HW1 8591   1.529   2.355   9.997
 2565SOL    HW2 8592   1.654   2.377  10.100
 2566SOL     OW 8593   0.231   3.575   9.793
 2566SOL    HW1 8594   0.265   3.652   9.847
 2566SOL    HW2 8595   0.275   3.575   9.703
 2567SOL     OW 8596   1.127   3.203  11.000
 2567SOL    HW1 8597   1.174   3.203  11.088
 2567SOL    HW2 8598   1.079   3.116  10.989
 2568SOL     OW 8599   0.230   3.296   9.848
 2568SOL    HW1 8600   0.204   3.392   9.848
 2568SOL    HW2 8601   0.159   3.242   9.893
 2569SOL     OW 8602   0.240   2.953  10.196
 2569SOL    HW1 8603   0.254   2.869  10.248
 2569SOL    HW2 8604   0.185   3.017  10.251
 2570SOL     OW 8605   0.620   3.648  10.749
 2570SOL    HW1 8606   0.528   3.631  10.784
 2570SOL    HW2 8607   0.648   3.740  10.775
 2571SOL     OW 8608   0.606   2.826   9.433
 2571SOL    HW1 8609   0.613   2.910   9.379
 2571SOL    HW2 8610   0.652   2.839   9.521
 2572SOL     OW 8611   1.594   1.976  10.790
 2572SOL    HW1 8612   1.576   2.043  10.718
 2572SOL    HW2 8613   1.591   2.022  10.879
 2573SOL     OW 8614   0.122   2.505   9.873
 2573SOL    HW1 8615   0.077   2.417   9.890
 2573SOL    HW2 8616   0.121   2.559   9.957
 2574SOL     OW 8617   1.842   3.629   9.669
 2574SOL    HW1 8618   1.896   3.600   9.749
 2574SOL    HW2 8619   1.872   3.719   9.640
 2575SOL     OW 8620   0.027   3.458   9.427
 2575SOL    HW1 8621   0.008   3.362   9.448
 2575SOL    HW2 8622  -0.006   3.516   9.502
 2576SOL     OW 8623   1.689   2.784   9.922
 2576SOL    HW1 8624   1.784   2.755   9.930
 2576SOL    HW2 8625   1.681   2.849   9.847
 2577SOL     OW 8626   1.641   2.970   9.742
 2577SOL    HW1 8627   1.727   2.972   9.690
 2577SOL    HW2 8628   1.655   3.017   9.830
 2578SOL     OW 8629   0.113   2.599  10.907
 2578SOL    HW1 8630   0.201   2.586  10.952
 2578SOL    HW2 8631   0.100   2.696  10.885
 2579SOL     OW 8632   0.613   3.227  10.036
 2579SOL    HW1 8633   0.564   3.140  10.045
 2579SOL    HW2 8634   0.590   3.270   9.949
 2580SOL     OW 8635   1.293   3.090  10.733
 2580SOL    HW1 8636   1.330   3.017  10.675
 2580SOL    HW2 8637   1.345   3.095  10.818
 2581SOL     OW 8638   0.809   1.866   9.812
 2581SOL    HW1 8639   0.849   1.957   9.803
 2581SOL    HW2 8640   0.709   1.874   9.818
 2582SOL     OW 8641   0.197   2.838  10.574
 2582SOL    HW1 8642   0.286   2.793  10.560
 2582SOL    HW2 8643   0.124   2.773  10.555
 2583SOL     OW 8644   1.525   2.861   9.500
 2583SOL    HW1 8645   1.462   2.785   9.513
 2583SOL    HW2 8646   1.573   2.879   9.586
 2584SOL     OW 8647   1.187   3.654  10.926
 2584SOL    HW1 8648   1.211   3.714  10.850
 2584SOL    HW2 8649   1.194   3.559  10.896
 2585SOL     OW 8650   0.317   2.113  11.111
 2585SOL    HW1 8651   0.388   2.184  11.117
 2585SOL    HW2 8652   0.229   2.152  11.139
 2586SOL     OW 8653   1.466   3.279  10.263
 2586SOL    HW1 8654   1.407   3.285  10.343
 2586SOL    HW2 8655   1.451   3.191  10.217
 2587SOL     OW 8656   1.667   3.576   9.882
 2587SOL    HW1 8657   1.626   3.553   9.794
 2587SOL    HW2 8658   1.649   3.502   9.947
 2588SOL     OW 8659   0.598   2.591   9.580
 2588SOL    HW1 8660   0.622   2.660   9.512
 2588SOL    HW2 8661   0.520   2.624   9.634
 2589SOL     OW 8662   1.281   2.207  10.254
 2589SOL    HW1 8663   1.195   2.157  10.241
 2589SOL    HW2 8664   1.343   2.153  10.310
 2590SOL     OW 8665   1.576   3.524   9.617
 2590SOL    HW1 8666   1.665   3.570   9.620
 2590SOL    HW2 8667   1.555   3.500   9.522
 2591SOL     OW 8668   0.807   2.467  10.775
 2591SOL    HW1 8669   0.760   2.464  10.864
 2591SOL    HW2 8670   0.756   2.412  10.709
 2592SOL     OW 8671   1.394   2.331  10.984
 2592SOL    HW1 8672   1.374   2.374  11.072
 2592SOL    HW2 8673   1.472   2.269  10.993
 2593SOL     OW 8674   0.973   2.752  10.882
 2593SOL    HW1 8675   1.019   2.668  10.853
 2593SOL    HW2 8676   0.917   2.786  10.807
 2594SOL     OW 8677   0.991   2.272  10.552
 2594SOL    HW1 8678   0.914   2.306  10.606
 2594SOL    HW2 8679   0.957   2.221  10.473
 2595SOL     OW 8680   1.041   2.563   9.739
 2595SOL    HW1 8681   1.067   2.559   9.835
 2595SOL    HW2 8682   0.956   2.512   9.725
 2596SOL     OW 8683   0.076   2.673  10.099
 2596SOL    HW1 8684   0.175   2.661  10.108
 2596SOL    HW2 8685   0.052   2.768  10.120
 2597SOL     OW 8686   0.130   3.683  10.881
 2597SOL    HW1 8687   0.120   3.668  10.980
 2597SOL    HW2 8688   0.044   3.719  10.845
 2598SOL     OW 8689   0.865   2.210   9.505
 2598SOL    HW1 8690   0.924   2.273   9.456
 2598SOL    HW2 8691   0.884   2.116   9.476
 2599SOL     OW 8692   1.719   2.447  11.141
 2599SOL    HW1 8693   1.693   2.536  11.105
 2599SOL    HW2 8694   1.717   2.379  11.068
 2600SOL     OW 8695   1.362   3.006   9.855
 2600SOL    HW1 8696   1.445   2.977   9.807
 2600SOL    HW2 8697   1.313   3.073   9.799
 2601SOL     OW 8698   0.550   2.058  10.195
 2601SOL    HW1 8699   0.545   2.053  10.295
 2601SOL    HW2 8700   0.552   2.154  10.166
 2602SOL     OW 8701   1.008   3.318   9.787
 2602SOL    HW1 8702   0.962   3.390   9.735
 2602SOL    HW2 8703   1.004   3.338   9.885
 2603SOL     OW 8704   0.351   3.663  10.163
 2603SOL    HW1 8705   0.401   3.577  10.169
 2603SOL    HW2 8706   0.416   3.740  10.160
 2604SOL     OW 8707   1.795   2.928  10.183
 2604SOL    HW1 8708   1.733   2.913  10.107
 2604SOL    HW2 8709   1.743   2.939  10.268
 2605SOL     OW 8710   1.227   3.412  10.816
 2605SOL    HW1 8711   1.233   3.335  10.880
 2605SOL    HW2 8712   1.175   3.386  10.736
 2606SOL     OW 8713   0.321   2.805   9.552
 2606SOL    HW1 8714   0.403   2.844   9.510
 2606SOL    HW2 8715   0.294   2.723   9.503
 2607SOL     OW 8716   1.458   2.597  10.038
 2607SOL    HW1 8717   1.453   2.532  10.113
 2607SOL    HW2 8718   1.538   2.656  10.051
 2608SOL     OW 8719   0.461   3.128  11.037
 2608SOL    HW1 8720   0.411   3.129  10.951
 2608SOL    HW2 8721   0.398   3.110  11.113
 2609SOL     OW 8722   1.111   3.638   9.547
 2609SOL    HW1 8723   1.051   3.576   9.597
 2609SOL    HW2 8724   1.142   3.594   9.462
 2610SOL     OW 8725   0.202   2.147  10.808
 2610SOL    HW1 8726   0.122   2.207  10.795
 2610SOL    HW2 8727   0.192   2.098  10.894
 2611SOL     OW 8728   1.632   3.239   9.391
 2611SOL    HW1 8729   1.600   3.333   9.381
 2611SOL    HW2 8730   1.556   3.176   9.379
 2612SOL     OW 8731   0.464   3.605   9.633
 2612SOL    HW1 8732   0.497   3.644   9.719
 2612SOL    HW2 8733   0.540   3.598   9.568
 2613SOL     OW 8734   1.400   1.969   9.736
 2613SOL    HW1 8735   1.376   1.932   9.646
 2613SOL    HW2 8736   1.499   1.985   9.740
 2614SOL     OW 8737   0.249   3.647  10.551
 2614SOL    HW1 8738   0.306   3.582  10.601
 2614SOL    HW2 8739   0.233   3.614  10.458
 2615SOL     OW 8740   0.940   3.560  10.214
 2615SOL    HW1 8741   1.020   3.503  10.235
 2615SOL    HW2 8742   0.891   3.520  10.137
 2616SOL     OW 8743   0.382   2.562   9.790
 2616SOL    HW1 8744   0.427   2.472   9.787
 2616SOL    HW2 8745   0.288   2.551   9.823
 2617SOL     OW 8746   1.547   2.084  11.039
 2617SOL    HW1 8747   1.542   2.121  11.131
 2617SOL    HW2 8748   1.475   2.015  11.027
 2618SOL     OW 8749   0.614   1.984   9.427
 2618SOL    HW1 8750   0.712   1.962   9.434
 2618SOL    HW2 8751   0.583   1.967   9.334
 2619SOL     OW 8752   0.781   2.126  11.059
 2619SOL    HW1 8753   0.848   2.065  11.102
 2619SOL    HW2 8754   0.708   2.145  11.124
 2620SOL     OW 8755   0.888   3.376  10.505
 2620SOL    HW1 8756   0.865   3.351  10.411
 2620SOL    HW2 8757   0.949   3.307  10.544
 2621SOL     OW 8758   1.351   2.452  10.743
 2621SOL    HW1 8759   1.379   2.409  10.828
 2621SOL    HW2 8760   1.376   2.548  10.744
 2622SOL     OW 8761   0.803   3.264  10.234
 2622SOL    HW1 8762   0.893   3.278  10.192
 2622SOL    HW2 8763   0.732   3.266  10.163
 2623SOL     OW 8764   0.922   2.365  10.209
 2623SOL    HW1 8765   0.897   2.356  10.113
 2623SOL    HW2 8766   0.970   2.283  10.240
 2624SOL     OW 8767   0.539   1.926   9.822
 2624SOL    HW1 8768   0.458   1.927   9.880
 2624SOL    HW2 8769   0.542   2.009   9.767
 2625SOL     OW 8770   1.434   3.050   9.351
 2625SOL    HW1 8771   1.466   2.974   9.408
 2625SOL    HW2 8772   1.342   3.077   9.381
 2626SOL     OW 8773   0.297   1.897   9.481
 2626SOL    HW1 8774   0.346   1.981   9.460
 2626SOL    HW2 8775   0.359   1.832   9.526
 2627SOL     OW 8776   0.935   2.098   9.790
 2627SOL    HW1 8777   0.887   2.139   9.712
 2627SOL    HW2 8778   1.034   2.096   9.771
 2628SOL     OW 8779   1.076   2.545  10.774
 2628SOL    HW1 8780   0.996   2.484  10.777
 2628SOL    HW2 8781   1.157   2.492  10.750
 2629SOL     OW 8782   1.227   3.432  10.103
 2629SOL    HW1 8783   1.248   3.506  10.038
 2629SOL    HW2 8784   1.295   3.432  10.176
 2630SOL     OW 8785   0.459   3.014  10.051
 2630SOL    HW1 8786   0.388   2.987  10.116
 2630SOL    HW2 8787   0.433   2.986   9.958
 2631SOL     OW 8788   1.271   3.659   9.901
 2631SOL    HW1 8789   1.315   3.723   9.837
 2631SOL    HW2 8790   1.221   3.711   9.971
 2632SOL     OW 8791   1.032   2.411   9.326
 2632SOL    HW1 8792   0.991   2.493   9.287
 2632SOL    HW2 8793   1.096   2.437   9.399
 2633SOL     OW 8794   0.078   2.418  10.696
 2633SOL    HW1 8795   0.170   2.417  10.655
 2633SOL    HW2 8796   0.072   2.492  10.763
 2634SOL     OW 8797   0.561   2.084  10.457
 2634SOL    HW1 8798   0.599   2.000  10.494
 2634SOL    HW2 8799   0.473   2.103  10.501
 2635SOL     OW 8800   0.866   2.316   9.952
 2635SOL    HW1 8801   0.834   2.388   9.890
 2635SOL    HW2 8802   0.890   2.235   9.899
 2636SOL     OW 8803   1.017   1.901  10.063
 2636SOL    HW1 8804   0.945   1.906   9.994
 2636SOL    HW2 8805   0.993   1.832  10.132
 2637SOL     OW 8806   1.429   3.035  10.177
 2637SOL    HW1 8807   1.374   2.951  10.170
 2637SOL    HW2 8808   1.455   3.064  10.085
 2638SOL     OW 8809   1.466   2.452  10.302
 2638SOL    HW1 8810   1.436   2.357  10.309
 2638SOL    HW2 8811   1.539   2.468  10.368
 2639SOL     OW 8812   1.857   2.695   9.687
 2639SOL    HW1 8813   1.899   2.631   9.751
 2639SOL    HW2 8814   1.819   2.644   9.609
 2640SOL     OW 8815   0.488   3.247   9.484
 2640SOL    HW1 8816   0.401   3.232   9.531
 2640SOL    HW2 8817   0.471   3.273   9.389
 2641SOL     OW 8818   1.664   3.142   9.967
 2641SOL    HW1 8819   1.763   3.150   9.981
 2641SOL    HW2 8820   1.619   3.226   9.998
 2642SOL     OW 8821   1.390   2.437   9.388
 2642SOL    HW1 8822   1.336   2.416   9.469
 2642SOL    HW2 8823   1.481   2.396   9.397
 2643SOL     OW 8824   0.527   2.118   9.638
 2643SOL    HW1 8825   0.554   2.059   9.563
 2643SOL    HW2 8826   0.527   2.213   9.607
 2644SOL     OW 8827   1.754   3.085  10.898
 2644SOL    HW1 8828   1.845   3.046  10.885
 2644SOL    HW2 8829   1.762   3.181  10.922
 2645SOL     OW 8830   1.064   3.209  10.650
 2645SOL    HW1 8831   0.984   3.186  10.705
 2645SOL    HW2 8832   1.147   3.183  10.699
 2646SOL     OW 8833   1.592   3.491  10.935
 2646SOL    HW1 8834   1.619   3.525  10.845
 2646SOL    HW2 8835   1.671   3.453  10.981
 2647SOL     OW 8836   1.111   3.057  10.410
 2647SOL    HW1 8837   1.071   3.101  10.491
 2647SOL    HW2 8838   1.070   3.094  10.327
 2648SOL     OW 8839   1.638   2.961  10.389
 2648SOL    HW1 8840   1.643   3.042  10.448
 2648SOL    HW2 8841   1.552   2.963  10.338
 2649SOL     OW 8842   0.915   1.951  10.712
 2649SOL    HW1 8843   0.940   1.931  10.617
 2649SOL    HW2 8844   0.987   2.007  10.754
 2650SOL     OW 8845   0.980   2.978  11.029
 2650SOL    HW1 8846   0.881   2.984  11.039
 2650SOL    HW2 8847   1.003   2.898  10.973
 2651SOL     OW 8848   0.705   2.912   9.678
 2651SOL    HW1 8849   0.691   2.919   9.777
 2651SOL    HW2 8850   0.789   2.861   9.660
 2652SOL     OW 8851   0.410   2.675  10.561
 2652SOL    HW1 8852   0.496   2.687  10.611
 2652SOL    HW2 8853   0.368   2.588  10.588
 2653SOL     OW 8854   1.274   2.248  10.572
 2653SOL    HW1 8855   1.295   2.322  10.636
 2653SOL    HW2 8856   1.185   2.265  10.529
 2654SOL     OW 8857   0.064   3.426  10.641
 2654SOL    HW1 8858   0.018   3.508  10.607
 2654SOL    HW2 8859   0.162   3.445  10.650
 2655SOL     OW 8860   0.367   2.962   9.811
 2655SOL    HW1 8861   0.360   3.045   9.755
 2655SOL    HW2 8862   0.371   2.882   9.751
 2656SOL     OW 8863   0.566   2.399  10.175
 2656SOL    HW1 8864   0.578   2.465  10.101
 2656SOL    HW2 8865   0.612   2.433  10.258
 2657SOL     OW 8866   1.252   3.210   9.698
 2657SOL    HW1 8867   1.302   3.287   9.738
 2657SOL    HW2 8868   1.157   3.212   9.730
 2658SOL     OW 8869   1.272   3.307  10.452
 2658SOL    HW1 8870   1.319   3.320  10.539
 2658SOL    HW2 8871   1.206   3.233  10.461
 2659SOL     OW 8872   1.582   2.501   9.782
 2659SOL    HW1 8873   1.551   2.562   9.855
 2659SOL    HW2 8874   1.632   2.553   9.713
 2660SOL     OW 8875   0.354   3.372  10.639
 2660SOL    HW1 8876   0.333   3.328  10.552
 2660SOL    HW2 8877   0.451   3.398  10.642
 2661SOL     OW 8878   0.402   2.613  10.908
 2661SOL    HW1 8879   0.470   2.668  10.861
 2661SOL    HW2 8880   0.442   2.525  10.935
 2662SOL     OW 8881   1.587   2.641  10.980
 2662SOL    HW1 8882   1.495   2.679  10.975
 2662SOL    HW2 8883   1.647   2.688  10.915
 2663SOL     OW 8884   1.013   1.967  11.080
 2663SOL    HW1 8885   1.019   2.052  11.028
 2663SOL    HW2 8886   1.045   1.891  11.023
 2664SOL     OW 8887   0.504   1.912  11.050
 2664SOL    HW1 8888   0.462   1.855  10.980
 2664SOL    HW2 8889   0.438   1.981  11.082
 2665SOL     OW 8890   0.573   2.732  10.339
 2665SOL    HW1 8891   0.617   2.821  10.330
 2665SOL    HW2 8892   0.510   2.732  10.416
 2666SOL     OW 8893   1.360   2.724  10.355
 2666SOL    HW1 8894   1.285   2.724  10.289
 2666SOL    HW2 8895   1.397   2.632  10.364
 2667SOL     OW 8896   1.209   2.387   9.585
 2667SOL    HW1 8897   1.222   2.303   9.639
 2667SOL    HW2 8898   1.180   2.461   9.645
 2668SOL     OW 8899   0.307   2.075  10.541
 2668SOL    HW1 8900   0.284   2.112  10.631
 2668SOL    HW2 8901   0.277   1.980  10.535
 2669SOL     OW 8902   0.037   3.172  10.592
 2669SOL    HW1 8903   0.090   3.123  10.660
 2669SOL    HW2 8904   0.059   3.270  10.597
 2670SOL     OW 8905   0.732   2.496  10.374
 2670SOL    HW1 8906   0.791   2.470  10.298
 2670SOL    HW2 8907   0.704   2.592  10.363
 2671SOL     OW 8908   1.728   2.797  11.164
 2671SOL    HW1 8909   1.682   2.790  11.075
 2671SOL    HW2 8910   1.666   2.841  11.230
 2672SOL     OW 8911   0.307   1.925   9.928
 2672SOL    HW1 8912   0.296   2.019   9.961
 2672SOL    HW2 8913   0.302   1.862  10.005
 2673SOL     OW 8914   1.622   2.229   9.684
 2673SOL    HW1 8915   1.624   2.153   9.748
 2673SOL    HW2 8916   1.574   2.306   9.724
 2674SOL     OW 8917   1.023   2.628  10.276
 2674SOL    HW1 8918   1.038   2.649  10.372
 2674SOL    HW2 8919   0.993   2.533  10.267
 2675SOL     OW 8920   0.980   3.435  11.010
 2675SOL    HW1 8921   0.960   3.479  10.922
 2675SOL    HW2 8922   1.019   3.344  10.994
 2676SOL     OW 8923   1.859   3.380  10.915
 2676SOL    HW1 8924   1.873   3.407  10.820
 2676SOL    HW2 8925   1.942   3.402  10.968
 2677SOL     OW 8926   0.350   2.760  11.114
 2677SOL    HW1 8927   0.426   2.804  11.162
 2677SOL    HW2 8928   0.385   2.713  11.032
 2678SOL     OW 8929   1.540   2.136   9.435
 2678SOL    HW1 8930   1.479   2.061   9.458
 2678SOL    HW2 8931   1.562   2.188   9.518
 2679SOL     OW 8932   1.303   2.700   9.352
 2679SOL    HW1 8933   1.337   2.607   9.367
 2679SOL    HW2 8934   1.321   2.727   9.257
 2680SOL     OW 8935   1.068   3.195  10.159
 2680SOL    HW1 8936   1.075   3.111  10.104
 2680SOL    HW2 8937   1.130   3.264  10.123
 2681SOL     OW 8938   0.319   2.672  10.259
 2681SOL    HW1 8939   0.412   2.708  10.264
 2681SOL    HW2 8940   0.313   2.587  10.311
 2682SOL     OW 8941   0.339   2.371  10.316
 2682SOL    HW1 8942   0.287   2.288  10.299
 2682SOL    HW2 8943   0.416   2.376  10.252
 2683SOL     OW 8944   1.138   2.242  10.988
 2683SOL    HW1 8945   1.093   2.305  11.052
 2683SOL    HW2 8946   1.231   2.273  10.971
 2684SOL     OW 8947   1.160   2.069  10.787
 2684SOL    HW1 8948   1.160   2.133  10.864
 2684SOL    HW2 8949   1.188   2.117  10.704
 2685SOL     OW 8950   0.008   3.188   9.510
 2685SOL    HW1 8951  -0.085   3.209   9.479
 2685SOL    HW2 8952   0.018   3.089   9.523
 2686SOL     OW 8953   0.088   3.663  10.237
 2686SOL    HW1 8954   0.046   3.577  10.210
 2686SOL    HW2 8955   0.182   3.666  10.203
 2687SOL     OW 8956   0.504   3.430  10.220
 2687SOL    HW1 8957   0.570   3.504  10.229
 2687SOL    HW2 8958   0.548   3.351  10.178
 2688SOL     OW 8959   1.002   2.658  10.548
 2688SOL    HW1 8960   1.043   2.626  10.634
 2688SOL    HW2 8961   0.906   2.631  10.545
 2689SOL     OW 8962   0.040   2.406  10.424
 2689SOL    HW1 8963   0.125   2.373  10.383
 2689SOL    HW2 8964   0.053   2.421  10.522
 2690SOL     OW 8965   0.189   2.382  11.032
 2690SOL    HW1 8966   0.248   2.342  10.962
 2690SOL    HW2 8967   0.131   2.453  10.991
 2691SOL     OW 8968   1.369   2.812  10.970
 2691SOL    HW1 8969   1.408   2.901  10.990
 2691SOL    HW2 8970   1.379   2.792  10.873
 2692SOL     OW 8971   0.815   2.434   9.635
 2692SOL    HW1 8972   0.822   2.345   9.589
 2692SOL    HW2 8973   0.721   2.468   9.627
 2693SOL     OW 8974   1.657   2.466  10.516
 2693SOL    HW1 8975   1.619   2.397  10.578
 2693SOL    HW2 8976   1.739   2.430  10.472
 2694SOL     OW 8977   0.252   3.426  11.054
 2694SOL    HW1 8978   0.222   3.483  11.130
 2694SOL    HW2 8979   0.245   3.329  11.080
 2695SOL     OW 8980   0.671   2.326  10.579
 2695SOL    HW1 8981   0.637   2.237  10.549
 2695SOL    HW2 8982   0.697   2.380  10.499
 2696SOL     OW 8983   0.930   3.540  10.775
 2696SOL    HW1 8984   0.906   3.522  10.680
 2696SOL    HW2 8985   0.960   3.634  10.785
 2697SOL     OW 8986   0.473   2.362   9.501
 2697SOL    HW1 8987   0.534   2.442   9.505
 2697SOL    HW2 8988   0.378   2.393   9.508
 2698SOL     OW 8989   0.159   2.999  10.776
 2698SOL    HW1 8990   0.181   2.938  10.852
 2698SOL    HW2 8991   0.169   2.950  10.690
 2699SOL     OW 8992   1.347   2.921  10.544
 2699SOL    HW1 8993   1.371   2.858  10.470
 2699SOL    HW2 8994   1.257   2.961  10.526
 2700SOL     OW 8995   1.302   2.717   9.619
 2700SOL    HW1 8996   1.216   2.686   9.661
 2700SOL    HW2 8997   1.298   2.703   9.520
 2701SOL     OW 8998   1.759   3.609  10.464
 2701SOL    HW1 8999   1.820   3.639  10.391
 2701SOL    HW2 9000   1.721   3.520  10.442
 2702SOL     OW 9001   1.252   3.593  10.438
 2702SOL    HW1 9002   1.336   3.598  10.384
 2702SOL    HW2 9003   1.229   3.497  10.456
 2703SOL     OW 9004   0.083   3.120  10.332
 2703SOL    HW1 9005   0.078   3.119  10.432
 2703SOL    HW2 9006   0.000   3.079  10.294
 2704SOL     OW 9007   0.688   3.524  11.026
 2704SOL    HW1 9008   0.632   3.605  11.035
 2704SOL    HW2 9009   0.740   3.528  10.940
 2705SOL     OW 9010   1.388   3.435   9.787
 2705SOL    HW1 9011   1.455   3.447   9.713
 2705SOL    HW2 9012   1.348   3.524   9.810
 2706SOL     OW 9013   0.130   3.656  11.161
 2706SOL    HW1 9014   0.089   3.582  11.214
 2706SOL    HW2 9015   0.194   3.707  11.219
 2707SOL     OW 9016   1.280   2.789   9.982
 2707SOL    HW1 9017   1.340   2.708   9.984
 2707SOL    HW2 9018   1.320   2.858   9.922
 2708SOL     OW 9019   0.830   3.135  10.732
 2708SOL    HW1 9020   0.825   3.168  10.827
 2708SOL    HW2 9021   0.744   3.154  10.686
 2709SOL     OW 9022   0.672   3.478   9.464
 2709SOL    HW1 9023   0.681   3.488   9.365
 2709SOL    HW2 9024   0.632   3.389   9.485
 2710SOL     OW 9025   1.650   3.582  10.704
 2710SOL    HW1 9026   1.703   3.592  10.620
 2710SOL    HW2 9027   1.623   3.672  10.738
 2711SOL     OW 9028   0.263   2.188  10.030
 2711SOL    HW1 9029   0.184   2.239   9.996
 2711SOL    HW2 9030   0.254   2.173  10.128
 2712SOL     OW 9031   1.194   3.474   9.341
 2712SOL    HW1 9032   1.200   3.381   9.378
 2712SOL    HW2 9033   1.135   3.474   9.261
 2713SOL     OW 9034   0.822   2.864  10.682
 2713SOL    HW1 9035   0.862   2.863  10.590
 2713SOL    HW2 9036   0.832   2.956  10.722
 2714SOL     OW 9037   0.916   2.772   9.601
 2714SOL    HW1 9038   0.979   2.810   9.533
 2714SOL    HW2 9039   0.956   2.689   9.640
 2715SOL     OW 9040   1.504   3.469   9.354
 2715SOL    HW1 9041   1.412   3.506   9.361
 2715SOL    HW2 9042   1.542   3.489   9.264
 2716SOL     OW 9043   0.372   3.150  10.800
 2716SOL    HW1 9044   0.359   3.243  10.766
 2716SOL    HW2 9045   0.288   3.098  10.787
 2717SOL     OW 9046   1.614   3.154  10.599
 2717SOL    HW1 9047   1.674   3.157  10.679
 2717SOL    HW2 9048   1.539   3.218  10.612
 2718SOL     OW 9049   1.039   2.960  10.006
 2718SOL    HW1 9050   0.969   2.913  10.060
 2718SOL    HW2 9051   1.098   2.892   9.963
 2719SOL     OW 9052   1.014   2.098  10.281
 2719SOL    HW1 9053   1.006   2.062  10.188
 2719SOL    HW2 9054   1.012   2.022  10.346
 2720SOL     OW 9055   0.590   3.349   9.801
 2720SOL    HW1 9056   0.632   3.291   9.731
 2720SOL    HW2 9057   0.546   3.428   9.757
 2721SOL     OW 9058   1.709   2.247  10.691
 2721SOL    HW1 9059   1.782   2.316  10.695
 2721SOL    HW2 9060   1.737   2.172  10.632
 2722SOL     OW 9061   0.255   3.210   9.600
 2722SOL    HW1 9062   0.159   3.211   9.573
 2722SOL    HW2 9063   0.267   3.263   9.684
 2723SOL     OW 9064   0.105   2.875  11.036
 2723SOL    HW1 9065   0.028   2.842  11.090
 2723SOL    HW2 9066   0.190   2.845  11.078
 2724SOL     OW 9067   0.672   2.065  10.799
 2724SOL    HW1 9068   0.762   2.049  10.759
 2724SOL    HW2 9069   0.680   2.070  10.898
 2725SOL     OW 9070   0.075   2.207   9.343
 2725SOL    HW1 9071  -0.017   2.179   9.314
 2725SOL    HW2 9072   0.106   2.284   9.287
 2726SOL     OW 9073   1.440   2.718  10.708
 2726SOL    HW1 9074   1.383   2.770  10.645
 2726SOL    HW2 9075   1.536   2.730  10.684
 2727SOL     OW 9076   0.072   2.028   9.628
 2727SOL    HW1 9077   0.055   2.111   9.574
 2727SOL    HW2 9078   0.162   1.991   9.606
 2728SOL     OW 9079   1.183   3.197   9.429
 2728SOL    HW1 9080   1.084   3.186   9.431
 2728SOL    HW2 9081   1.217   3.212   9.522
 2729SOL     OW 9082   0.613   2.704  10.741
 2729SOL    HW1 9083   0.669   2.785  10.724
 2729SOL    HW2 9084   0.672   2.624  10.744
 2730SOL     OW 9085   1.493   3.629  10.269
 2730SOL    HW1 9086   1.526   3.693  10.200
 2730SOL    HW2 9087   1.559   3.623  10.344
 2731SOL     OW 9088   0.716   2.427  11.018
 2731SOL    HW1 9089   0.735   2.492  11.092
 2731SOL    HW2 9090   0.776   2.347  11.027
 2732SOL     OW 9091   1.450   3.082  10.943
 2732SOL    HW1 9092   1.441   3.072  11.042
 2732SOL    HW2 9093   1.546   3.075  10.917
 2733SOL     OW 9094   0.390   3.603  10.870
 2733SOL    HW1 9095   0.299   3.644  10.868
 2733SOL    HW2 9096   0.383   3.509  10.902
 2734SOL     OW 9097   1.674   2.745  10.564
 2734SOL    HW1 9098   1.647   2.656  10.527
 2734SOL    HW2 9099   1.675   2.813  10.491
 2735SOL     OW 9100   1.225   2.187   9.759
 2735SOL    HW1 9101   1.290   2.113   9.748
 2735SOL    HW2 9102   1.245   2.237   9.843
 2736SOL     OW 9103   0.594   2.607   9.962
 2736SOL    HW1 9104   0.644   2.692   9.943
 2736SOL    HW2 9105   0.506   2.609   9.914
 2737SOL     OW 9106   1.777   2.204  10.952
 2737SOL    HW1 9107   1.760   2.235  10.858
 2737SOL    HW2 9108   1.693   2.167  10.990
 2738SOL     OW 9109   1.730   2.796  10.827
 2738SOL    HW1 9110   1.768   2.887  10.842
 2738SOL    HW2 9111   1.722   2.779  10.728
 2739SOL     OW 9112   0.859   3.236   9.326
 2739SOL    HW1 9113   0.813   3.251   9.414
 2739SOL    HW2 9114   0.903   3.321   9.296
 2740SOL     OW 9115   0.661   3.652  10.263
 2740SOL    HW1 9116   0.615   3.740  10.250
 2740SOL    HW2 9117   0.760   3.664  10.256
 2741SOL     OW 9118   0.859   2.818  10.171
 2741SOL    HW1 9119   0.913   2.749  10.219
 2741SOL    HW2 9120   0.827   2.887  10.237
 2742SOL     OW 9121   1.083   2.846   9.397
 2742SOL    HW1 9122   1.060   2.899   9.315
 2742SOL    HW2 9123   1.164   2.790   9.378
 2743SOL     OW 9124   1.861   3.431  10.161
 2743SOL    HW1 9125   1.790   3.419  10.091
 2743SOL    HW2 9126   1.862   3.352  10.221
 2744SOL     OW 9127   0.221   3.176  11.154
 2744SOL    HW1 9128   0.156   3.103  11.133
 2744SOL    HW2 9129   0.225   3.190  11.252
 2745SOL     OW 9130   0.079   3.102   9.963
 2745SOL    HW1 9131   0.078   3.055  10.051
 2745SOL    HW2 9132   0.161   3.074   9.912
 2746SOL     OW 9133   0.672   3.253  10.934
 2746SOL    HW1 9134   0.594   3.203  10.972
 2746SOL    HW2 9135   0.669   3.348  10.965
 2747SOL     OW 9136   0.428   2.286   9.830
 2747SOL    HW1 9137   0.458   2.214   9.768
 2747SOL    HW2 9138   0.389   2.246   9.913
 2748SOL     OW 9139   1.705   3.349  10.414
 2748SOL    HW1 9140   1.612   3.324  10.387
 2748SOL    HW2 9141   1.731   3.299  10.496
 2749SOL     OW 9142   0.317   2.409  10.590
 2749SOL    HW1 9143   0.355   2.350  10.662
 2749SOL    HW2 9144   0.357   2.383  10.502
 2750SOL     OW 9145   0.812   3.448   9.997
 2750SOL    HW1 9146   0.844   3.458   9.903
 2750SOL    HW2 9147   0.733   3.386   9.999
 2751SOL     OW 9148   1.424   2.076  10.422
 2751SOL    HW1 9149   1.476   2.011  10.477
 2751SOL    HW2 9150   1.375   2.139  10.483
 2752SOL     OW 9151   1.001   1.896  10.464
 2752SOL    HW1 9152   0.938   1.824  10.433
 2752SOL    HW2 9153   1.094   1.860  10.464
 2753SOL     OW 9154   0.770   3.192   9.611
 2753SOL    HW1 9155   0.724   3.105   9.628
 2753SOL    HW2 9156   0.861   3.189   9.652
 2754SOL     OW 9157   0.618   3.429  10.594
 2754SOL    HW1 9158   0.613   3.511  10.651
 2754SOL    HW2 9159   0.707   3.426  10.549
 2755SOL     OW 9160   1.352   1.914   9.478
 2755SOL    HW1 9161   1.387   1.873   9.394
 2755SOL    HW2 9162   1.262   1.876   9.498
 2756SOL     OW 9163   1.300   2.315  10.001
 2756SOL    HW1 9164   1.241   2.395  10.005
 2756SOL    HW2 9165   1.315   2.280  10.094
 2757SOL     OW 9166   1.593   2.083  10.192
 2757SOL    HW1 9167   1.509   2.082  10.246
 2757SOL    HW2 9168   1.595   2.166  10.136
 2758SOL     OW 9169   0.039   2.939   9.610
 2758SOL    HW1 9170   0.138   2.928   9.601
 2758SOL    HW2 9171  -0.001   2.853   9.642
 2759SOL     OW 9172   0.875   3.508   9.647
 2759SOL    HW1 9173   0.798   3.473   9.593
 2759SOL    HW2 9174   0.843   3.579   9.709
 2760SOL     OW 9175   0.230   2.490  11.285
 2760SOL    HW1 9176   0.137   2.488  11.322
 2760SOL    HW2 9177   0.231   2.451  11.193
 2761SOL     OW 9178   0.225   2.137  12.168
 2761SOL    HW1 9179   0.260   2.120  12.260
 2761SOL    HW2 9180   0.137   2.092  12.156
 2762SOL     OW 9181   0.019   2.230  11.819
 2762SOL    HW1 9182  -0.063   2.273  11.858
 2762SOL    HW2 9183  -0.009   2.157  11.756
 2763SOL     OW 9184   0.569   3.137  12.337
 2763SOL    HW1 9185   0.476   3.130  12.300
 2763SOL    HW2 9186   0.580   3.226  12.381
 2764SOL     OW 9187   1.555   3.373  11.875
 2764SOL    HW1 9188   1.498   3.357  11.956
 2764SOL    HW2 9189   1.496   3.383  11.795
 2765SOL     OW 9190   1.135   2.565  11.889
 2765SOL    HW1 9191   1.192   2.643  11.864
 2765SOL    HW2 9192   1.075   2.591  11.965
 2766SOL     OW 9193   1.755   2.469  11.403
 2766SOL    HW1 9194   1.743   2.456  11.304
 2766SOL    HW2 9195   1.725   2.388  11.452
 2767SOL     OW 9196   0.768   3.006  12.195
 2767SOL    HW1 9197   0.690   3.023  12.255
 2767SOL    HW2 9198   0.802   3.093  12.159
 2768SOL     OW 9199   0.850   2.660  12.995
 2768SOL    HW1 9200   0.846   2.736  13.060
 2768SOL    HW2 9201   0.872   2.696  12.904
 2769SOL     OW 9202   0.685   2.874  11.837
 2769SOL    HW1 9203   0.754   2.858  11.907
 2769SOL    HW2 9204   0.612   2.931  11.875
 2770SOL     OW 9205   0.686   3.023  12.975
 2770SOL    HW1 9206   0.746   3.102  12.989
 2770SOL    HW2 9207   0.600   3.054  12.934
 2771SOL     OW 9208   0.335   3.297  12.233
 2771SOL    HW1 9209   0.257   3.266  12.180
 2771SOL    HW2 9210   0.393   3.355  12.176
 2772SOL     OW 9211   1.460   3.367  12.511
 2772SOL    HW1 9212   1.484   3.461  12.537
 2772SOL    HW2 9213   1.444   3.313  12.593
 2773SOL     OW 9214   0.438   2.254  12.671
 2773SOL    HW1 9215   0.520   2.198  12.680
 2773SOL    HW2 9216   0.357   2.196  12.675
 2774SOL     OW 9217   1.603   2.309  11.909
 2774SOL    HW1 9218   1.529   2.355  11.859
 2774SOL    HW2 9219   1.654   2.377  11.962
 2775SOL     OW 9220   0.231   3.575  11.655
 2775SOL    HW1 9221   0.265   3.652  11.709
 2775SOL    HW2 9222   0.275   3.575  11.565
 2776SOL     OW 9223   1.127   3.203  12.862
 2776SOL    HW1 9224   1.174   3.203  12.950
 2776SOL    HW2 9225   1.079   3.116  12.851
 2777SOL     OW 9226   0.230   3.296  11.710
 2777SOL    HW1 9227   0.204   3.392  11.710
 2777SOL    HW2 9228   0.159   3.242  11.755
 2778SOL     OW 9229   0.240   2.953  12.058
 2778SOL    HW1 9230   0.254   2.869  12.110
 2778SOL    HW2 9231   0.185   3.017  12.113
 2779SOL     OW 9232   0.620   3.648  12.611
 2779SOL    HW1 9233   0.528   3.631  12.646
 2779SOL    HW2 9234   0.648   3.740  12.637
 2780SOL     OW 9235   0.606   2.826  11.295
 2780SOL    HW1 9236   0.613   2.910  11.241
 2780SOL    HW2 9237   0.652   2.839  11.383
 2781SOL     OW 9238   1.594   1.976  12.652
 2781SOL    HW1 9239   1.576   2.043  12.580
 2781SOL    HW2 9240   1.591   2.022  12.741
 2782SOL     OW 9241   0.122   2.505  11.735
 2782SOL    HW1 9242   0.077   2.417  11.752
 2782SOL    HW2 9243   0.121   2.559  11.819
 2783SOL     OW 9244   1.842   3.629  11.531
 2783SOL    HW1 9245   1.896   3.600  11.611
 2783SOL    HW2 9246   1.872   3.719  11.502
 2784SOL     OW 9247   0.027   3.458  11.289
 2784SOL    HW1 9248   0.008   3.362  11.310
 2784SOL    HW2 9249  -0.006   3.516  11.364
 2785SOL     OW 9250   1.689   2.784  11.784
 2785SOL    HW1 9251   1.784   2.755  11.792
 2785SOL    HW2 9252   1.681   2.849  11.709
 2786SOL     OW 9253   1.641   2.970  11.604
 2786SOL    HW1 9254   1.727   2.972  11.552
 2786SOL    HW2 9255   1.655   3.017  11.692
 2787SOL     OW 9256   0.113   2.599  12.769
 2787SOL    HW1 9257   0.201   2.586  12.814
 2787SOL    HW2 9258   0.100   2.696  12.747
 2788SOL     OW 9259   0.613   3.227  11.898
 2788SOL    HW1 9260   0.564   3.140  11.907
 2788SOL    HW2 9261   0.590   3.270  11.811
 2789SOL     OW 9262   1.293   3.090  12.595
 2789SOL    HW1 9263   1.330   3.017  12.537
 2789SOL    HW2 9264   1.345   3.095  12.680
 2790SOL     OW 9265   0.809   1.866  11.674
 2790SOL    HW1 9266   0.849   1.957  11.665
 2790SOL    HW2 9267   0.709   1.874  11.680
 2791SOL     OW 9268   0.197   2.838  12.436
 2791SOL    HW1 9269   0.286   2.793  12.422
 2791SOL    HW2 9270   0.124   2.773  12.417
 2792SOL     OW 9271   1.525   2.861  11.362
 2792SOL    HW1 9272   1.462   2.785  11.375
 2792SOL    HW2 9273   1.573   2.879  11.448
 2793SOL     OW 9274   1.187   3.654  12.788
 2793SOL    HW1 9275   1.211   3.714  12.712
 2793SOL    HW2 9276   1.194   3.559  12.758
 2794SOL     OW 9277   0.317   2.113  12.973
 2794SOL    HW1 9278   0.388   2.184  12.979
 2794SOL    HW2 9279   0.229   2.152  13.001
 2795SOL     OW 9280   1.466   3.279  12.125
 2795SOL    HW1 9281   1.407   3.285  12.205
 2795SOL    HW2 9282   1.451   3.191  12.079
 2796SOL     OW 9283   1.667   3.576  11.744
 2796SOL    HW1 9284   1.626   3.553  11.656
 2796SOL    HW2 9285   1.649   3.502  11.809
 2797SOL     OW 9286   0.598   2.591  11.442
 2797SOL    HW1 9287   0.622   2.660  11.374
 2797SOL    HW2 9288   0.520   2.624  11.496
 2798SOL     OW 9289   1.281   2.207  12.116
 2798SOL    HW1 9290   1.195   2.157  12.103
 2798SOL    HW2 9291   1.343   2.153  12.172
 2799SOL     OW 9292   1.576   3.524  11.479
 2799SOL    HW1 9293   1.665   3.570  11.482
 2799SOL    HW2 9294   1.555   3.500  11.384
 2800SOL     OW 9295   0.807   2.467  12.637
 2800SOL    HW1 9296   0.760   2.464  12.726
 2800SOL    HW2 9297   0.756   2.412  12.571
 2801SOL     OW 9298   1.394   2.331  12.846
 2801SOL    HW1 9299   1.374   2.374  12.934
 2801SOL    HW2 9300   1.472   2.269  12.855
 2802SOL     OW 9301   0.973   2.752  12.744
 2802SOL    HW1 9302   1.019   2.668  12.715
 2802SOL    HW2 9303   0.917   2.786  12.669
 2803SOL     OW 9304   0.991   2.272  12.414
 2803SOL    HW1 9305   0.914   2.306  12.468
 2803SOL    HW2 9306   0.957   2.221  12.335
 2804SOL     OW 9307   1.041   2.563  11.601
 2804SOL    HW1 9308   1.067   2.559  11.697
 2804SOL    HW2 9309   0.956   2.512  11.587
 2805SOL     OW 9310   0.076   2.673  11.961
 2805SOL    HW1 9311   0.175   2.661  11.970
 2805SOL    HW2 9312   0.052   2.768  11.982
 2806SOL     OW 9313   0.130   3.683  12.743
 2806SOL    HW1 9314   0.120   3.668  12.842
 2806SOL    HW2 9315   0.044   3.719  12.707
 2807SOL     OW 9316   0.865   2.210  11.367
 2807SOL    HW1 9317   0.924   2.273  11.318
 2807SOL    HW2 9318   0.884   2.116  11.338
 2808SOL     OW 9319   1.719   2.447  13.003
 2808SOL    HW1 9320   1.693   2.536  12.967
 2808SOL    HW2 9321   1.717   2.379  12.930
 2809SOL     OW 9322   1.362   3.006  11.717
 2809SOL    HW1 9323   1.445   2.977  11.669
 2809SOL    HW2 9324   1.313   3.073  11.661
 2810SOL     OW 9325   0.550   2.058  12.057
 2810SOL    HW1 9326   0.545   2.053  12.157
 2810SOL    HW2 9327   0.552   2.154  12.028
 2811SOL     OW 9328   1.008   3.318  11.649
 2811SOL    HW1 9329   0.962   3.390  11.597
 2811SOL    HW2 9330   1.004   3.338  11.747
 2812SOL     OW 9331   0.351   3.663  12.025
 2812SOL    HW1 9332   0.401   3.577  12.031
 2812SOL    HW2 9333   0.416   3.740  12.022
 2813SOL     OW 9334   1.795   2.928  12.045
 2813SOL    HW1 9335   1.733   2.913  11.969
 2813SOL    HW2 9336   1.743   2.939  12.130
 2814SOL     OW 9337   1.227   3.412  12.678
 2814SOL    HW1 9338   1.233   3.335  12.742
 2814SOL    HW2 9339   1.175   3.386  12.598
 2815SOL     OW 9340   0.321   2.805  11.414
 2815SOL    HW1 9341   0.403   2.844  11.372
 2815SOL    HW2 9342   0.294   2.723  11.365
 2816SOL     OW 9343   1.458   2.597  11.900
 2816SOL    HW1 9344   1.453   2.532  11.975
 2816SOL    HW2 9345   1.538   2.656  11.913
 2817SOL     OW 9346   0.461   3.128  12.899
 2817SOL    HW1 9347   0.411   3.129  12.813
 2817SOL    HW2 9348   0.398   3.110  12.975
 2818SOL     OW 9349   1.111   3.638  11.409
 2818SOL    HW1 9350   1.051   3.576  11.459
 2818SOL    HW2 9351   1.142   3.594  11.324
 2819SOL     OW 9352   0.202   2.147  12.670
 2819SOL    HW1 9353   0.122   2.207  12.657
 2819SOL    HW2 9354   0.192   2.098  12.756
 2820SOL     OW 9355   1.632   3.239  11.253
 2820SOL    HW1 9356   1.600   3.333  11.243
 2820SOL    HW2 9357   1.556   3.176  11.241
 2821SOL     OW 9358   0.464   3.605  11.495
 2821SOL    HW1 9359   0.497   3.644  11.581
 2821SOL    HW2 9360   0.540   3.598  11.430
 2822SOL     OW 9361   1.400   1.969  11.598
 2822SOL    HW1 9362   1.376   1.932  11.508
 2822SOL    HW2 9363   1.499   1.985  11.602
 2823SOL     OW 9364   0.249   3.647  12.413
 2823SOL    HW1 9365   0.306   3.582  12.463
 2823SOL    HW2 9366   0.233   3.614  12.320
 2824SOL     OW 9367   0.940   3.560  12.076
 2824SOL    HW1 9368   1.020   3.503  12.097
 2824SOL    HW2 9369   0.891   3.520  11.999
 2825SOL     OW 9370   0.382   2.562  11.652
 2825SOL    HW1 9371   0.427   2.472  11.649
 2825SOL    HW2 9372   0.288   2.551  11.685
 2826SOL     OW 9373   1.547   2.084  12.901
 2826SOL    HW1 9374   1.542   2.121  12.993
 2826SOL    HW2 9375   1.475   2.015  12.889
 2827SOL     OW 9376   0.614   1.984  11.289
 2827SOL    HW1 9377   0.712   1.962  11.296
 2827SOL    HW2 9378   0.583   1.967  11.196
 2828SOL     OW 9379   0.781   2.126  12.921
 2828SOL    HW1 9380   0.848   2.065  12.964
 2828SOL    HW2 9381   0.708   2.145  12.986
 2829SOL     OW 9382   0.888   3.376  12.367
 2829SOL    HW1 9383   0.865   3.351  12.273
 2829SOL    HW2 9384   0.949   3.307  12.406
 2830SOL     OW 9385   1.351   2.452  12.605
 2830SOL    HW1 9386   1.379   2.409  12.690
 2830SOL    HW2 9387   1.376   2.548  12.606
 2831SOL     OW 9388   0.803   3.264  12.096
 2831SOL    HW1 9389   0.893   3.278  12.054
 2831SOL    HW2 9390   0.732   3.266  12.025
 2832SOL     OW 9391   0.922   2.365  12.071
 2832SOL    HW1 9392   0.897   2.356  11.975
 2832SOL    HW2 9393   0.970   2.283  12.102
 2833SOL     OW 9394   0.539   1.926  11.684
 2833SOL    HW1 9395   0.458   1.927  11.742
 2833SOL    HW2 9396   0.542   2.009  11.629
 2834SOL     OW 9397   1.434   3.050  11.213
 2834SOL    HW1 9398   1.466   2.974  11.270
 2834SOL    HW2 9399   1.342   3.077  11.243
 2835SOL     OW 9400   0.297   1.897  11.343
 2835SOL    HW1 9401   0.346   1.981  11.322
 2835SOL    HW2 9402   0.359   1.832  11.388
 2836SOL     OW 9403   0.935   2.098  11.652
 2836SOL    HW1 9404   0.887   2.139  11.574
 2836SOL    HW2 9405   1.034   2.096  11.633
 2837SOL     OW 9406   1.076   2.545  12.636
 2837SOL    HW1 9407   0.996   2.484  12.639
 2837SOL    HW2 9408   1.157   2.492  12.612
 2838SOL     OW 9409   1.227   3.432  11.965
 2838SOL    HW1 9410   1.248   3.506  11.900
 2838SOL    HW2 9411   1.295   3.432  12.038
 2839SOL     OW 9412   0.459   3.014  11.913
 2839SOL    HW1 9413   0.388   2.987  11.978
 2839SOL    HW2 9414   0.433   2.986  11.820
 2840SOL     OW 9415   1.271   3.659  11.763
 2840SOL    HW1 9416   1.315   3.723  11.699
 2840SOL    HW2 9417   1.221   3.711  11.833
 2841SOL     OW 9418   1.032   2.411  11.188
 2841SOL    HW1 9419   0.991   2.493  11.149
 2841SOL    HW2 9420   1.096   2.437  11.261
 2842SOL     OW 9421   0.078   2.418  12.558
 2842SOL    HW1 9422   0.170   2.417  12.517
 2842SOL    HW2 9423   0.072   2.492  12.625
 2843SOL     OW 9424   0.561   2.084  12.319
 2843SOL    HW1 9425   0.599   2.000  12.356
 2843SOL    HW2 9426   0.473   2.103  12.363
 2844SOL     OW 9427   0.866   2.316  11.814
 2844SOL    HW1 9428   0.834   2.388  11.752
 2844SOL    HW2 9429   0.890   2.235  11.761
 2845SOL     OW 9430   1.017   1.901  11.925
 2845SOL    HW1 9431   0.945   1.906  11.856
 2845SOL    HW2 9432   0.993   1.832  11.994
 2846SOL     OW 9433   1.429   3.035  12.039
 2846SOL    HW1 9434   1.374   2.951  12.032
 2846SOL    HW2 9435   1.455   3.064  11.947
 2847SOL     OW 9436   1.466   2.452  12.164
 2847SOL    HW1 9437   1.436   2.357  12.171
 2847SOL    HW2 9438   1.539   2.468  12.230
 2848SOL     OW 9439   1.857   2.695  11.549
 2848SOL    HW1 9440   1.899   2.631  11.613
 2848SOL    HW2 9441   1.819   2.644  11.471
 2849SOL     OW 9442   0.488   3.247  11.346
 2849SOL    HW1 9443   0.401   3.232  11.393
 2849SOL    HW2 9444   0.471   3.273  11.251
 2850SOL     OW 9445   1.664   3.142  11.829
 2850SOL    HW1 9446   1.763   3.150  11.843
 2850SOL    HW2 9447   1.619   3.226  11.860
 2851SOL     OW 9448   1.390   2.437  11.250
 2851SOL    HW1 9449   1.336   2.416  11.331
 2851SOL    HW2 9450   1.481   2.396  11.259
 2852SOL     OW 9451   0.527   2.118  11.500
 2852SOL    HW1 9452   0.554   2.059  11.425
 2852SOL    HW2 9453   0.527   2.213  11.469
 2853SOL     OW 9454   1.754   3.085  12.760
 2853SOL    HW1 9455   1.845   3.046  12.747
 2853SOL    HW2 9456   1.762   3.181  12.784
 2854SOL     OW 9457   1.064   3.209  12.512
 2854SOL    HW1 9458   0.984   3.186  12.567
 2854SOL    HW2 9459   1.147   3.183  12.561
 2855SOL     OW 9460   1.592   3.491  12.797
 2855SOL    HW1 9461   1.619   3.525  12.707
 2855SOL    HW2 9462   1.671   3.453  12.843
 2856SOL     OW 9463   1.111   3.057  12.272
 2856SOL    HW1 9464   1.071   3.101  12.353
 2856SOL    HW2 9465   1.070   3.094  12.189
 2857SOL     OW 9466   1.638   2.961  12.251
 2857SOL    HW1 9467   1.643   3.042  12.310
 2857SOL    HW2 9468   1.552   2.963  12.200
 2858SOL     OW 9469   0.915   1.951  12.574
 2858SOL    HW1 9470   0.940   1.931  12.479
 2858SOL    HW2 9471   0.987   2.007  12.616
 2859SOL     OW 9472   0.980   2.978  12.891
 2859SOL    HW1 9473   0.881   2.984  12.901
 2859SOL    HW2 9474   1.003   2.898  12.835
 2860SOL     OW 9475   0.705   2.912  11.540
 2860SOL    HW1 9476   0.691   2.919  11.639
 2860SOL    HW2 9477   0.789   2.861  11.522
 2861SOL     OW 9478   0.410   2.675  12.423
 2861SOL    HW1 9479   0.496   2.687  12.473
 2861SOL    HW2 9480   0.368   2.588  12.450
 2862SOL     OW 9481   1.274   2.248  12.434
 2862SOL    HW1 9482   1.295   2.322  12.498
 2862SOL    HW2 9483   1.185   2.265  12.391
 2863SOL     OW 9484   0.064   3.426  12.503
 2863SOL    HW1 9485   0.018   3.508  12.469
 2863SOL    HW2 9486   0.162   3.445  12.512
 2864SOL     OW 9487   0.367   2.962  11.673
 2864SOL    HW1 9488   0.360   3.045  11.617
 2864SOL    HW2 9489   0.371   2.882  11.613
 2865SOL     OW 9490   0.566   2.399  12.037
 2865SOL    HW1 9491   0.578   2.465  11.963
 2865SOL    HW2 9492   0.612   2.433  12.120
 2866SOL     OW 9493   1.252   3.210  11.560
 2866SOL    HW1 9494   1.302   3.287  11.600
 2866SOL    HW2 9495   1.157   3.212  11.592
 2867SOL     OW 9496   1.272   3.307  12.314
 2867SOL    HW1 9497   1.319   3.320  12.401
 2867SOL    HW2 9498   1.206   3.233  12.323
 2868SOL     OW 9499   1.582   2.501  11.644
 2868SOL    HW1 9500   1.551   2.562  11.717
 2868SOL    HW2 9501   1.632   2.553  11.575
 2869SOL     OW 9502   0.354   3.372  12.501
 2869SOL    HW1 9503   0.333   3.328  12.414
 2869SOL    HW2 9504   0.451   3.398  12.504
 2870SOL     OW 9505   0.402   2.613  12.770
 2870SOL    HW1 9506   0.470   2.668  12.723
 2870SOL    HW2 9507   0.442   2.525  12.797
 2871SOL     OW 9508   1.587   2.641  12.842
 2871SOL    HW1 9509   1.495   2.679  12.837
 2871SOL    HW2 9510   1.647   2.688  12.777
 2872SOL     OW 9511   1.013   1.967  12.942
 2872SOL    HW1 9512   1.019   2.052  12.890
 2872SOL    HW2 9513   1.045   1.891  12.885
 2873SOL     OW 9514   0.504   1.912  12.912
 2873SOL    HW1 9515   0.462   1.855  12.842
 2873SOL    HW2 9516   0.438   1.981  12.944
 2874SOL     OW 9517   0.573   2.732  12.201
 2874SOL    HW1 9518   0.617   2.821  12.192
 2874SOL    HW2 9519   0.510   2.732  12.278
 2875SOL     OW 9520   1.360   2.724  12.217
 2875SOL    HW1 9521   1.285   2.724  12.151
 2875SOL    HW2 9522   1.397   2.632  12.226
 2876SOL     OW 9523   1.209   2.387  11.447
 2876SOL    HW1 9524   1.222   2.303  11.501
 2876SOL    HW2 9525   1.180   2.461  11.507
 2877SOL     OW 9526   0.307   2.075  12.403
 2877SOL    HW1 9527   0.284   2.112  12.493
 2877SOL    HW2 9528   0.277   1.980  12.397
 2878SOL     OW 9529   0.037   3.172  12.454
 2878SOL    HW1 9530   0.090   3.123  12.522
 2878SOL    HW2 9531   0.059   3.270  12.459
 2879SOL     OW 9532   0.732   2.496  12.236
 2879SOL    HW1 9533   0.791   2.470  12.160
 2879SOL    HW2 9534   0.704   2.592  12.225
 2880SOL     OW 9535   1.728   2.797  13.026
 2880SOL    HW1 9536   1.682   2.790  12.937
 2880SOL    HW2 9537   1.666   2.841  13.092
 2881SOL     OW 9538   0.307   1.925  11.790
 2881SOL    HW1 9539   0.296   2.019  11.823
 2881SOL    HW2 9540   0.302   1.862  11.867
 2882SOL     OW 9541   1.622   2.229  11.546
 2882SOL    HW1 9542   1.624   2.153  11.610
 2882SOL    HW2 9543   1.574   2.306  11.586
 2883SOL     OW 9544   1.023   2.628  12.138
 2883SOL    HW1 9545   1.038   2.649  12.234
 2883SOL    HW2 9546   0.993   2.533  12.129
 2884SOL     OW 9547   0.980   3.435  12.872
 2884SOL    HW1 9548   0.960   3.479  12.784
 2884SOL    HW2 9549   1.019   3.344  12.856
 2885SOL     OW 9550   1.859   3.380  12.777
 2885SOL    HW1 9551   1.873   3.407  12.682
 2885SOL    HW2 9552   1.942   3.402  12.830
 2886SOL     OW 9553   0.350   2.760  12.976
 2886SOL    HW1 9554   0.426   2.804  13.024
 2886SOL    HW2 9555   0.385   2.713  12.894
 2887SOL     OW 9556   1.540   2.136  11.297
 2887SOL    HW1 9557   1.479   2.061  11.320
 2887SOL    HW2 9558   1.562   2.188  11.380
 2888SOL     OW 9559   1.303   2.700  11.214
 2888SOL    HW1 9560   1.337   2.607  11.229
 2888SOL    HW2 9561   1.321   2.727  11.119
 2889SOL     OW 9562   1.068   3.195  12.021
 2889SOL    HW1 9563   1.075   3.111  11.966
 2889SOL    HW2 9564   1.130   3.264  11.985
 2890SOL     OW 9565   0.319   2.672  12.121
 2890SOL    HW1 9566   0.412   2.708  12.126
 2890SOL    HW2 9567   0.313   2.587  12.173
 2891SOL     OW 9568   0.339   2.371  12.178
 2891SOL    HW1 9569   0.287   2.288  12.161
 2891SOL    HW2 9570   0.416   2.376  12.114
 2892SOL     OW 9571   1.138   2.242  12.850
 2892SOL    HW1 9572   1.093   2.305  12.914
 2892SOL    HW2 9573   1.231   2.273  12.833
 2893SOL     OW 9574   1.160   2.069  12.649
 2893SOL    HW1 9575   1.160   2.133  12.726
 2893SOL    HW2 9576   1.188   2.117  12.566
 2894SOL     OW 9577   0.008   3.188  11.372
 2894SOL    HW1 9578  -0.085   3.209  11.341
 2894SOL    HW2 9579   0.018   3.089  11.385
 2895SOL     OW 9580   0.088   3.663  12.099
 2895SOL    HW1 9581   0.046   3.577  12.072
 2895SOL    HW2 9582   0.182   3.666  12.065
 2896SOL     OW 9583   0.504   3.430  12.082
 2896SOL    HW1 9584   0.570   3.504  12.091
 2896SOL    HW2 9585   0.548   3.351  12.040
 2897SOL     OW 9586   1.002   2.658  12.410
 2897SOL    HW1 9587   1.043   2.626  12.496
 2897SOL    HW2 9588   0.906   2.631  12.407
 2898SOL     OW 9589   0.040   2.406  12.286
 2898SOL    HW1 9590   0.125   2.373  12.245
 2898SOL    HW2 9591   0.053   2.421  12.384
 2899SOL     OW 9592   0.189   2.382  12.894
 2899SOL    HW1 9593   0.248   2.342  12.824
 2899SOL    HW2 9594   0.131   2.453  12.853
 2900SOL     OW 9595   1.369   2.812  12.832
 2900SOL    HW1 9596   1.408   2.901  12.852
 2900SOL    HW2 9597   1.379   2.792  12.735
 2901SOL     OW 9598   0.815   2.434  11.497
 2901SOL    HW1 9599   0.822   2.345  11.451
 2901SOL    HW2 9600   0.721   2.468  11.489
 2902SOL     OW 9601   1.657   2.466  12.378
 2902SOL    HW1 9602   1.619   2.397  12.440
 2902SOL    HW2 9603   1.739   2.430  12.334
 2903SOL     OW 9604   0.252   3.426  12.916
 2903SOL    HW1 9605   0.222   3.483  12.992
 2903SOL    HW2 9606   0.245   3.329  12.942
 2904SOL     OW 9607   0.671   2.326  12.441
 2904SOL    HW1 9608   0.637   2.237  12.411
 2904SOL    HW2 9609   0.697   2.380  12.361
 2905SOL     OW 9610   0.930   3.540  12.637
 2905SOL    HW1 9611   0.906   3.522  12.542
 2905SOL    HW2 9612   0.960   3.634  12.647
 2906SOL     OW 9613   0.473   2.362  11.363
 2906SOL    HW1 9614   0.534   2.442  11.367
 2906SOL    HW2 9615   0.378   2.393  11.370
 2907SOL     OW 9616   0.159   2.999  12.638
 2907SOL    HW1 9617   0.181   2.938  12.714
 2907SOL    HW2 9618   0.169   2.950  12.552
 2908SOL     OW 9619   1.347   2.921  12.406
 2908SOL    HW1 9620   1.371   2.858  12.332
 2908SOL    HW2 9621   1.257   2.961  12.388
 2909SOL     OW 9622   1.302   2.717  11.481
 2909SOL    HW1 9623   1.216   2.686  11.523
 2909SOL    HW2 9624   1.298   2.703  11.382
 2910SOL     OW 9625   1.759   3.609  12.326
 2910SOL    HW1 9626   1.820   3.639  12.253
 2910SOL    HW2 9627   1.721   3.520  12.304
 2911SOL     OW 9628   1.252   3.593  12.300
 2911SOL    HW1 9629   1.336   3.598  12.246
 2911SOL    HW2 9630   1.229   3.497  12.318
 2912SOL     OW 9631   0.083   3.120  12.194
 2912SOL    HW1 9632   0.078   3.119  12.294
 2912SOL    HW2 9633   0.000   3.079  12.156
 2913SOL     OW 9634   0.688   3.524  12.888
 2913SOL    HW1 9635   0.632   3.605  12.897
 2913SOL    HW2 9636   0.740   3.528  12.802
 2914SOL     OW 9637   1.388   3.435  11.649
 2914SOL    HW1 9638   1.455   3.447  11.575
 2914SOL    HW2 9639   1.348   3.524  11.672
 2915SOL     OW 9640   0.130   3.656  13.023
 2915SOL    HW1 9641   0.089   3.582  13.076
 2915SOL    HW2 9642   0.194   3.707  13.081
 2916SOL     OW 9643   1.280   2.789  11.844
 2916SOL    HW1 9644   1.340   2.708  11.846
 2916SOL    HW2 9645   1.320   2.858  11.784
 2917SOL     OW 9646   0.830   3.135  12.594
 2917SOL    HW1 9647   0.825   3.168  12.689
 2917SOL    HW2 9648   0.744   3.154  12.548
 2918SOL     OW 9649   0.672   3.478  11.326
 2918SOL    HW1 9650   0.681   3.488  11.227
 2918SOL    HW2 9651   0.632   3.389  11.347
 2919SOL     OW 9652   1.650   3.582  12.566
 2919SOL    HW1 9653   1.703   3.592  12.482
 2919SOL    HW2 9654   1.623   3.672  12.600
 2920SOL     OW 9655   0.263   2.188  11.892
 2920SOL    HW1 9656   0.184   2.239  11.858
 2920SOL    HW2 9657   0.254   2.173  11.990
 2921SOL     OW 9658   1.194   3.474  11.203
 2921SOL    HW1 9659   1.200   3.381  11.240
 2921SOL    HW2 9660   1.135   3.474  11.123
 2922SOL     OW 9661   0.822   2.864  12.544
 2922SOL    HW1 9662   0.862   2.863  12.452
 2922SOL    HW2 9663   0.832   2.956  12.584
 2923SOL     OW 9664   0.916   2.772  11.463
 2923SOL    HW1 9665   0.979   2.810  11.395
 2923SOL    HW2 9666   0.956   2.689  11.502
 2924SOL     OW 9667   1.504   3.469  11.216
 2924SOL    HW1 9668   1.412   3.506  11.223
 2924SOL    HW2 9669   1.542   3.489  11.126
 2925SOL     OW 9670   0.372   3.150  12.662
 2925SOL    HW1 9671   0.359   3.243  12.628
 2925SOL    HW2 9672   0.288   3.098  12.649
 2926SOL     OW 9673   1.614   3.154  12.461
 2926SOL    HW1 9674   1.674   3.157  12.541
 2926SOL    HW2 9675   1.539   3.218  12.474
 2927SOL     OW 9676   1.039   2.960  11.868
 2927SOL    HW1 9677   0.969   2.913  11.922
 2927SOL    HW2 9678   1.098   2.892  11.825
 2928SOL     OW 9679   1.014   2.098  12.143
 2928SOL    HW1 9680   1.006   2.062  12.050
 2928SOL    HW2 9681   1.012   2.022  12.208
 2929SOL     OW 9682   0.590   3.349  11.663
 2929SOL    HW1 9683   0.632   3.291  11.593
 2929SOL    HW2 9684   0.546   3.428  11.619
 2930SOL     OW 9685   1.709   2.247  12.553
 2930SOL    HW1 9686   1.782   2.316  12.557
 2930SOL    HW2 9687   1.737   2.172  12.494
 2931SOL     OW 9688   0.255   3.210  11.462
 2931SOL    HW1 9689   0.159   3.211  11.435
 2931SOL    HW2 9690   0.267   3.263  11.546
 2932SOL     OW 9691   0.105   2.875  12.898
 2932SOL    HW1 9692   0.028   2.842  12.952
 2932SOL    HW2 9693   0.190   2.845  12.940
 2933SOL     OW 9694   0.672   2.065  12.661
 2933SOL    HW1 9695   0.762   2.049  12.621
 2933SOL    HW2 9696   0.680   2.070  12.760
 2934SOL     OW 9697   0.075   2.207  11.205
 2934SOL    HW1 9698  -0.017   2.179  11.176
 2934SOL    HW2 9699   0.106   2.284  11.149
 2935SOL     OW 9700   1.440   2.718  12.570
 2935SOL    HW1 9701   1.383   2.770  12.507
 2935SOL    HW2 9702   1.536   2.730  12.546
 2936SOL     OW 9703   0.072   2.028  11.490
 2936SOL    HW1 9704   0.055   2.111  11.436
 2936SOL    HW2 9705   0.162   1.991  11.468
 2937SOL     OW 9706   1.183   3.197  11.291
 2937SOL    HW1 9707   1.084   3.186  11.293
 2937SOL    HW2 9708   1.217   3.212  11.384
 2938SOL     OW 9709   0.613   2.704  12.603
 2938SOL    HW1 9710   0.669   2.785  12.586
 2938SOL    HW2 9711   0.672   2.624  12.606
 2939SOL     OW 9712   1.493   3.629  12.131
 2939SOL    HW1 9713   1.526   3.693  12.062
 2939SOL    HW2 9714   1.559   3.623  12.206
 2940SOL     OW 9715   0.716   2.427  12.880
 2940SOL    HW1 9716   0.735   2.492  12.954
 2940SOL    HW2 9717   0.776   2.347  12.889
 2941SOL     OW 9718   1.450   3.082  12.805
 2941SOL    HW1 9719   1.441   3.072  12.904
 2941SOL    HW2 9720   1.546   3.075  12.779
 2942SOL     OW 9721   0.390   3.603  12.732
 2942SOL    HW1 9722   0.299   3.644  12.730
 2942SOL    HW2 9723   0.383   3.509  12.764
 2943SOL     OW 9724   1.674   2.745  12.426
 2943SOL    HW1 9725   1.647   2.656  12.389
 2943SOL    HW2 9726   1.675   2.813  12.353
 2944SOL     OW 9727   1.225   2.187  11.621
 2944SOL    HW1 9728   1.290   2.113  11.610
 2944SOL    HW2 9729   1.245   2.237  11.705
 2945SOL     OW 9730   0.594   2.607  11.824
 2945SOL    HW1 9731   0.644   2.692  11.805
 2945SOL    HW2 9732   0.506   2.609  11.776
 2946SOL     OW 9733   1.777   2.204  12.814
 2946SOL    HW1 9734   1.760   2.235  12.720
 2946SOL    HW2 9735   1.693   2.167  12.852
 2947SOL     OW 9736   1.730   2.796  12.689
 2947SOL    HW1 9737   1.768   2.887  12.704
 2947SOL    HW2 9738   1.722   2.779  12.590
 2948SOL     OW 9739   0.859   3.236  11.188
 2948SOL    HW1 9740   0.813   3.251  11.276
 2948SOL    HW2 9741   0.903   3.321  11.158
 2949SOL     OW 9742   0.661   3.652  12.125
 2949SOL    HW1 9743   0.615   3.740  12.112
 2949SOL    HW2 9744   0.760   3.664  12.118
 2950SOL     OW 9745   0.859   2.818  12.033
 2950SOL    HW1 9746   0.913   2.749  12.081
 2950SOL    HW2 9747   0.827   2.887  12.099
 2951SOL     OW 9748   1.083   2.846  11.259
 2951SOL    HW1 9749   1.060   2.899  11.177
 2951SOL    HW2 9750   1.164   2.790  11.240
 2952SOL     OW 9751   1.861   3.431  12.023
 2952SOL    HW1 9752   1.790   3.419  11.953
 2952SOL    HW2 9753   1.862   3.352  12.083
 2953SOL     OW 9754   0.221   3.176  13.016
 2953SOL    HW1 9755   0.156   3.103  12.995
 2953SOL    HW2 9756   0.225   3.190  13.114
 2954SOL     OW 9757   0.079   3.102  11.825
 2954SOL    HW1 9758   0.078   3.055  11.913
 2954SOL    HW2 9759   0.161   3.074  11.774
 2955SOL     OW 9760   0.672   3.253  12.796
 2955SOL    HW1 9761   0.594   3.203  12.834
 2955SOL    HW2 9762   0.669   3.348  12.827
 2956SOL     OW 9763   0.428   2.286  11.692
 2956SOL    HW1 9764   0.458   2.214  11.630
 2956SOL    HW2 9765   0.389   2.246  11.775
 2957SOL     OW 9766   1.705   3.349  12.276
 2957SOL    HW1 9767   1.612   3.324  12.249
 2957SOL    HW2 9768   1.731   3.299  12.358
 2958SOL     OW 9769   0.317   2.409  12.452
 2958SOL    HW1 9770   0.355   2.350  12.524
 2958SOL    HW2 9771   0.357   2.383  12.364
 2959SOL     OW 9772   0.812   3.448  11.859
 2959SOL    HW1 9773   0.844   3.458  11.765
 2959SOL    HW2 9774   0.733   3.386  11.861
 2960SOL     OW 9775   1.424   2.076  12.284
 2960SOL    HW1 9776   1.476   2.011  12.339
 2960SOL    HW2 9777   1.375   2.139  12.345
 2961SOL     OW 9778   1.001   1.896  12.326
 2961SOL    HW1 9779   0.938   1.824  12.295
 2961SOL    HW2 9780   1.094   1.860  12.326
 2962SOL     OW 9781   0.770   3.192  11.473
 2962SOL    HW1 9782   0.724   3.105  11.490
 2962SOL    HW2 9783   0.861   3.189  11.514
 2963SOL     OW 9784   0.618   3.429  12.456
 2963SOL    HW1 9785   0.613   3.511  12.513
 2963SOL    HW2 9786   0.707   3.426  12.411
 2964SOL     OW 9787   1.352   1.914  11.340
 2964SOL    HW1 9788   1.387   1.873  11.256
 2964SOL    HW2 9789   1.262   1.876  11.360
 2965SOL     OW 9790   1.300   2.315  11.863
 2965SOL    HW1 9791   1.241   2.395  11.867
 2965SOL    HW2 9792   1.315   2.280  11.956
 2966SOL     OW 9793   1.593   2.083  12.054
 2966SOL    HW1 9794   1.509   2.082  12.108
 2966SOL    HW2 9795   1.595   2.166  11.998
 2967SOL     OW 9796   0.039   2.939  11.472
 2967SOL    HW1 9797   0.138   2.928  11.463
 2967SOL    HW2 9798  -0.001   2.853  11.504
 2968SOL     OW 9799   0.875   3.508  11.509
 2968SOL    HW1 9800   0.798   3.473  11.455
 2968SOL    HW2 9801   0.843   3.579  11.571
 2969SOL     OW 9802   0.230   2.490  13.147
 2969SOL    HW1 9803   0.137   2.488  13.184
 2969SOL    HW2 9804   0.231   2.451  13.055
 2970SOL     OW 9805   0.225   2.137  14.030
 2970SOL    HW1 9806   0.260   2.120  14.122
 2970SOL    HW2 9807   0.137   2.092  14.018
 2971SOL     OW 9808   0.019   2.230  13.681
 2971SOL    HW1 9809  -0.063   2.273  13.720
 2971SOL    HW2 9810  -0.009   2.157  13.618
 2972SOL     OW 9811   1.555   3.373  13.737
 2972SOL    HW1 9812   1.498   3.357  13.818
 2972SOL    HW2 9813   1.496   3.383  13.657
 2973SOL     OW 9814   1.135   2.565  13.751
 2973SOL    HW1 9815   1.192   2.643  13.726
 2973SOL    HW2 9816   1.075   2.591  13.827
 2974SOL     OW 9817   1.755   2.469  13.265
 2974SOL    HW1 9818   1.743   2.456  13.166
 2974SOL    HW2 9819   1.725   2.388  13.314
 2975SOL     OW 9820   0.685   2.874  13.699
 2975SOL    HW1 9821   0.754   2.858  13.769
 2975SOL    HW2 9822   0.612   2.931  13.737
 2976SOL     OW 9823   1.603   2.309  13.771
 2976SOL    HW1 9824   1.529   2.355  13.721
 2976SOL    HW2 9825   1.654   2.377  13.824
 2977SOL     OW 9826   0.231   3.575  13.517
 2977SOL    HW1 9827   0.265   3.652  13.571
 2977SOL    HW2 9828   0.275   3.575  13.427
 2978SOL     OW 9829   0.230   3.296  13.572
 2978SOL    HW1 9830   0.204   3.392  13.572
 2978SOL    HW2 9831   0.159   3.242  13.617
 2979SOL     OW 9832   0.240   2.953  13.920
 2979SOL    HW1 9833   0.254   2.869  13.972
 2979SOL    HW2 9834   0.185   3.017  13.975
 2980SOL     OW 9835   0.606   2.826  13.157
 2980SOL    HW1 9836   0.613   2.910  13.103
 2980SOL    HW2 9837   0.652   2.839  13.245
 2981SOL     OW 9838   0.122   2.505  13.597
 2981SOL    HW1 9839   0.077   2.417  13.614
 2981SOL    HW2 9840   0.121   2.559  13.681
 2982SOL     OW 9841   1.842   3.629  13.393
 2982SOL    HW1 9842   1.896   3.600  13.473
 2982SOL    HW2 9843   1.872   3.719  13.364
 2983SOL     OW 9844   0.027   3.458  13.151
 2983SOL    HW1 9845   0.008   3.362  13.172
 2983SOL    HW2 9846  -0.006   3.516  13.226
 2984SOL     OW 9847   1.689   2.784  13.646
 2984SOL    HW1 9848   1.784   2.755  13.654
 2984SOL    HW2 9849   1.681   2.849  13.571
 2985SOL     OW 9850   1.641   2.970  13.466
 2985SOL    HW1 9851   1.727   2.972  13.414
 2985SOL    HW2 9852   1.655   3.017  13.554
 2986SOL     OW 9853   0.613   3.227  13.760
 2986SOL    HW1 9854   0.564   3.140  13.769
 2986SOL    HW2 9855   0.590   3.270  13.673
 2987SOL     OW 9856   0.809   1.866  13.536
 2987SOL    HW1 9857   0.849   1.957  13.527
 2987SOL    HW2 9858   0.709   1.874  13.542
 2988SOL     OW 9859   1.525   2.861  13.224
 2988SOL    HW1 9860   1.462   2.785  13.237
 2988SOL    HW2 9861   1.573   2.879  13.310
 2989SOL     OW 9862   1.667   3.576  13.606
 2989SOL    HW1 9863   1.626   3.553  13.518
 2989SOL    HW2 9864   1.649   3.502  13.671
 2990SOL     OW 9865   0.598   2.591  13.304
 2990SOL    HW1 9866   0.622   2.660  13.236
 2990SOL    HW2 9867   0.520   2.624  13.358
 2991SOL     OW 9868   1.281   2.207  13.978
 2991SOL    HW1 9869   1.195   2.157  13.965
 2991SOL    HW2 9870   1.343   2.153  14.034
 2992SOL     OW 9871   1.576   3.524  13.341
 2992SOL    HW1 9872   1.665   3.570  13.344
 2992SOL    HW2 9873   1.555   3.500  13.246
 2993SOL     OW 9874   1.041   2.563  13.463
 2993SOL    HW1 9875   1.067   2.559  13.559
 2993SOL    HW2 9876   0.956   2.512  13.449
 2994SOL     OW 9877   0.076   2.673  13.823
 2994SOL    HW1 9878   0.175   2.661  13.832
 2994SOL    HW2 9879   0.052   2.768  13.844
 2995SOL     OW 9880   0.865   2.210  13.229
 2995SOL    HW1 9881   0.924   2.273  13.180
 2995SOL    HW2 9882   0.884   2.116  13.200
 2996SOL     OW 9883   1.362   3.006  13.579
 2996SOL    HW1 9884   1.445   2.977  13.531
 2996SOL    HW2 9885   1.313   3.073  13.523
 2997SOL     OW 9886   1.008   3.318  13.511
 2997SOL    HW1 9887   0.962   3.390  13.459
 2997SOL    HW2 9888   1.004   3.338  13.609
 2998SOL     OW 9889   0.351   3.663  13.887
 2998SOL    HW1 9890   0.401   3.577  13.893
 2998SOL    HW2 9891   0.416   3.740  13.884
 2999SOL     OW 9892   1.795   2.928  13.907
 2999SOL    HW1 9893   1.733   2.913  13.831
 2999SOL    HW2 9894   1.743   2.939  13.992
 3000SOL     OW 9895   0.321   2.805  13.276
 3000SOL    HW1 9896   0.403   2.844  13.234
 3000SOL    HW2 9897   0.294   2.723  13.227
 3001SOL     OW 9898   1.458   2.597  13.762
 3001SOL    HW1 9899   1.453   2.532  13.837
 3001SOL    HW2 9900   1.538   2.656  13.775
 3002SOL     OW 9901   1.111   3.638  13.271
 3002SOL    HW1 9902   1.051   3.576  13.321
 3002SOL    HW2 9903   1.142   3.594  13.186
 3003SOL     OW 9904   1.632   3.239  13.115
 3003SOL    HW1 9905   1.600   3.333  13.105
 3003SOL    HW2 9906   1.556   3.176  13.103
 3004SOL     OW 9907   0.464   3.605  13.357
 3004SOL    HW1 9908   0.497   3.644  13.443
 3004SOL    HW2 9909   0.540   3.598  13.292
 3005SOL     OW 9910   1.400   1.969  13.460
 3005SOL    HW1 9911   1.376   1.932  13.370
 3005SOL    HW2 9912   1.499   1.985  13.464
 3006SOL     OW 9913   0.940   3.560  13.938
 3006SOL    HW1 9914   1.020   3.503  13.959
 3006SOL    HW2 9915   0.891   3.520  13.861
 3007SOL     OW 9916   0.382   2.562  13.514
 3007SOL    HW1 9917   0.427   2.472  13.511
 3007SOL    HW2 9918   0.288   2.551  13.547
 3008SOL     OW 9919   0.614   1.984  13.151
 3008SOL    HW1 9920   0.712   1.962  13.158
 3008SOL    HW2 9921   0.583   1.967  13.058
 3009SOL     OW 9922   0.539   1.926  13.546
 3009SOL    HW1 9923   0.458   1.927  13.604
 3009SOL    HW2 9924   0.542   2.009  13.491
 3010SOL     OW 9925   1.434   3.050  13.075
 3010SOL    HW1 9926   1.466   2.974  13.132
 3010SOL    HW2 9927   1.342   3.077  13.105
 3011SOL     OW 9928   0.297   1.897  13.205
 3011SOL    HW1 9929   0.346   1.981  13.184
 3011SOL    HW2 9930   0.359   1.832  13.250
 3012SOL     OW 9931   0.935   2.098  13.514
 3012SOL    HW1 9932   0.887   2.139  13.436
 3012SOL    HW2 9933   1.034   2.096  13.495
 3013SOL     OW 9934   0.459   3.014  13.775
 3013SOL    HW1 9935   0.388   2.987  13.840
 3013SOL    HW2 9936   0.433   2.986  13.682
 3014SOL     OW 9937   1.271   3.659  13.625
 3014SOL    HW1 9938   1.315   3.723  13.561
 3014SOL    HW2 9939   1.221   3.711  13.695
 3015SOL     OW 9940   1.032   2.411  13.050
 3015SOL    HW1 9941   0.991   2.493  13.011
 3015SOL    HW2 9942   1.096   2.437  13.123
 3016SOL     OW 9943   0.866   2.316  13.676
 3016SOL    HW1 9944   0.834   2.388  13.614
 3016SOL    HW2 9945   0.890   2.235  13.623
 3017SOL     OW 9946   1.017   1.901  13.787
 3017SOL    HW1 9947   0.945   1.906  13.718
 3017SOL    HW2 9948   0.993   1.832  13.856
 3018SOL     OW 9949   1.857   2.695  13.411
 3018SOL    HW1 9950   1.899   2.631  13.475
 3018SOL    HW2 9951   1.819   2.644  13.333
 3019SOL     OW 9952   0.488   3.247  13.208
 3019SOL    HW1 9953   0.401   3.232  13.255
 3019SOL    HW2 9954   0.471   3.273  13.113
 3020SOL     OW 9955   1.664   3.142  13.691
 3020SOL    HW1 9956   1.763   3.150  13.705
 3020SOL    HW2 9957   1.619   3.226  13.722
 3021SOL     OW 9958   1.390   2.437  13.112
 3021SOL    HW1 9959   1.336   2.416  13.193
 3021SOL    HW2 9960   1.481   2.396  13.121
 3022SOL     OW 9961   0.527   2.118  13.362
 3022SOL    HW1 9962   0.554   2.059  13.287
 3022SOL    HW2 9963   0.527   2.213  13.331
 3023SOL     OW 9964   0.705   2.912  13.402
 3023SOL    HW1 9965   0.691   2.919  13.501
 3023SOL    HW2 9966   0.789   2.861  13.384
 3024SOL     OW 9967   0.367   2.962  13.535
 3024SOL    HW1 9968   0.360   3.045  13.479
 3024SOL    HW2 9969   0.371   2.882  13.475
 3025SOL     OW 9970   0.566   2.399  13.899
 3025SOL    HW1 9971   0.578   2.465  13.825
 3025SOL    HW2 9972   0.612   2.433  13.982
 3026SOL     OW 9973   1.252   3.210  13.422
 3026SOL    HW1 9974   1.302   3.287  13.462
 3026SOL    HW2 9975   1.157   3.212  13.454
 3027SOL     OW 9976   1.582   2.501  13.506
 3027SOL    HW1 9977   1.551   2.562  13.579
 3027SOL    HW2 9978   1.632   2.553  13.437
 3028SOL     OW 9979   1.209   2.387  13.309
 3028SOL    HW1 9980   1.222   2.303  13.363
 3028SOL    HW2 9981   1.180   2.461  13.369
 3029SOL     OW 9982   0.307   1.925  13.652
 3029SOL    HW1 9983   0.296   2.019  13.685
 3029SOL    HW2 9984   0.302   1.862  13.729
 3030SOL     OW 9985   1.622   2.229  13.408
 3030SOL    HW1 9986   1.624   2.153  13.472
 3030SOL    HW2 9987   1.574   2.306  13.448
 3031SOL     OW 9988   1.540   2.136  13.159
 3031SOL    HW1 9989   1.479   2.061  13.182
 3031SOL    HW2 9990   1.562   2.188  13.242
 3032SOL     OW 9991   1.303   2.700  13.076
 3032SOL    HW1 9992   1.337   2.607  13.091
 3032SOL    HW2 9993   1.321   2.727  12.981
 3033SOL     OW 9994   0.008   3.188  13.234
 3033SOL    HW1 9995  -0.085   3.209  13.203
 3033SOL    HW2 9996   0.018   3.089  13.247
 3034SOL     OW 9997   0.815   2.434  13.359
 3034SOL    HW1 9998   0.822   2.345  13.313
 3034SOL    HW2 9999   0.721   2.468  13.351
 3035SOL     OW10000   0.473   2.362  13.225
 3035SOL    HW110001   0.534   2.442  13.229
 3035SOL    HW210002   0.378   2.393  13.232
 3036SOL     OW10003   1.302   2.717  13.343
 3036SOL    HW110004   1.216   2.686  13.385
 3036SOL    HW210005   1.298   2.703  13.244
 3037SOL     OW10006   1.388   3.435  13.511
 3037SOL    HW110007   1.455   3.447  13.437
 3037SOL    HW210008   1.348   3.524  13.534
 3038SOL     OW10009   1.280   2.789  13.706
 3038SOL    HW110010   1.340   2.708  13.708
 3038SOL    HW210011   1.320   2.858  13.646
 3039SOL     OW10012   0.672   3.478  13.188
 3039SOL    HW110013   0.681   3.488  13.089
 3039SOL    HW210014   0.632   3.389  13.209
 3040SOL     OW10015   0.263   2.188  13.754
 3040SOL    HW110016   0.184   2.239  13.720
 3040SOL    HW210017   0.254   2.173  13.852
 3041SOL     OW10018   1.194   3.474  13.065
 3041SOL    HW110019   1.200   3.381  13.102
 3041SOL    HW210020   1.135   3.474  12.985
 3042SOL     OW10021   0.916   2.772  13.325
 3042SOL    HW110022   0.979   2.810  13.257
 3042SOL    HW210023   0.956   2.689  13.364
 3043SOL     OW10024   1.504   3.469  13.078
 3043SOL    HW110025   1.412   3.506  13.085
 3043SOL    HW210026   1.542   3.489  12.988
 3044SOL     OW10027   1.039   2.960  13.730
 3044SOL    HW110028   0.969   2.913  13.784
 3044SOL    HW210029   1.098   2.892  13.687
 3045SOL     OW10030   0.590   3.349  13.525
 3045SOL    HW110031   0.632   3.291  13.455
 3045SOL    HW210032   0.546   3.428  13.481
 3046SOL     OW10033   0.255   3.210  13.324
 3046SOL    HW110034   0.159   3.211  13.297
 3046SOL    HW210035   0.267   3.263  13.408
 3047SOL     OW10036   0.075   2.207  13.067
 3047SOL    HW110037  -0.017   2.179  13.038
 3047SOL    HW210038   0.106   2.284  13.011
 3048SOL     OW10039   0.072   2.028  13.352
 3048SOL    HW110040   0.055   2.111  13.298
 3048SOL    HW210041   0.162   1.991  13.330
 3049SOL     OW10042   1.183   3.197  13.153
 3049SOL    HW110043   1.084   3.186  13.155
 3049SOL    HW210044   1.217   3.212  13.246
 3050SOL     OW10045   1.225   2.187  13.483
 3050SOL    HW110046   1.290   2.113  13.472
 3050SOL    HW210047   1.245   2.237  13.567
 3051SOL     OW10048   0.594   2.607  13.686
 3051SOL    HW110049   0.644   2.692  13.667
 3051SOL    HW210050   0.506   2.609  13.638
 3052SOL     OW10051   0.859   3.236  13.050
 3052SOL    HW110052   0.813   3.251  13.138
 3052SOL    HW210053   0.903   3.321  13.020
 3053SOL     OW10054   0.661   3.652  13.987
 3053SOL    HW110055   0.615   3.740  13.974
 3053SOL    HW210056   0.760   3.664  13.980
 3054SOL     OW10057   0.859   2.818  13.895
 3054SOL    HW110058   0.913   2.749  13.943
 3054SOL    HW210059   0.827   2.887  13.961
 3055SOL     OW10060   1.083   2.846  13.121
 3055SOL    HW110061   1.060   2.899  13.039
 3055SOL    HW210062   1.164   2.790  13.102
 3056SOL     OW10063   0.079   3.102  13.687
 3056SOL    HW110064   0.078   3.055  13.775
 3056SOL    HW210065   0.161   3.074  13.636
 3057SOL     OW10066   0.428   2.286  13.554
 3057SOL    HW110067   0.458   2.214  13.492
 3057SOL    HW210068   0.389   2.246  13.637
 3058SOL     OW10069   1.705   3.349  14.138
 3058SOL    HW110070   1.612   3.324  14.111
 3058SOL    HW210071   1.731   3.299  14.220
 3059SOL     OW10072   0.812   3.448  13.721
 3059SOL    HW110073   0.844   3.458  13.627
 3059SOL    HW210074   0.733   3.386  13.723
 3060SOL     OW10075   0.770   3.192  13.335
 3060SOL    HW110076   0.724   3.105  13.352
 3060SOL    HW210077   0.861   3.189  13.376
 3061SOL     OW10078   1.352   1.914  13.202
 3061SOL    HW110079   1.387   1.873  13.118
 3061SOL    HW210080   1.262   1.876  13.222
 3062SOL     OW10081   1.300   2.315  13.725
 3062SOL    HW110082   1.241   2.395  13.729
 3062SOL    HW210083   1.315   2.280  13.818
 3063SOL     OW10084   0.039   2.939  13.334
 3063SOL    HW110085   0.138   2.928  13.325
 3063SOL    HW210086  -0.001   2.853  13.366
 3064SOL     OW10087   0.875   3.508  13.371
 3064SOL    HW110088   0.798   3.473  13.317
 3064SOL    HW210089   0.843   3.579  13.433
 3065SOL     OW10090   0.225   3.999   0.996
 3065SOL    HW110091   0.260   3.982   1.088
 3065SOL    HW210092   0.137   3.954   0.984
 3066SOL     OW10093   0.019   4.092   0.647
 3066SOL    HW110094  -0.063   4.135   0.686
 3066SOL    HW210095  -0.009   4.019   0.584
 3067SOL     OW10096   1.755   4.331   0.231
 3067SOL    HW110097   1.743   4.318   0.132
 3067SOL    HW210098   1.725   4.250   0.280
 3068SOL     OW10099   0.438   4.116   1.499
 3068SOL    HW110100   0.520   4.060   1.508
 3068SOL    HW210101   0.357   4.058   1.503
 3069SOL     OW10102   1.594   3.838   1.480
 3069SOL    HW110103   1.576   3.905   1.408
 3069SOL    HW210104   1.591   3.884   1.569
 3070SOL     OW10105   0.809   3.728   0.502
 3070SOL    HW110106   0.849   3.819   0.493
 3070SOL    HW210107   0.709   3.736   0.508
 3071SOL     OW10108   1.281   4.069   0.944
 3071SOL    HW110109   1.195   4.019   0.931
 3071SOL    HW210110   1.343   4.015   1.000
 3072SOL     OW10111   0.550   3.920   0.885
 3072SOL    HW110112   0.545   3.915   0.985
 3072SOL    HW210113   0.552   4.016   0.856
 3073SOL     OW10114   0.202   4.009   1.498
 3073SOL    HW110115   0.122   4.069   1.485
 3073SOL    HW210116   0.192   3.960   1.584
 3074SOL     OW10117   1.400   3.831   0.426
 3074SOL    HW110118   1.376   3.794   0.336
 3074SOL    HW210119   1.499   3.847   0.430
 3075SOL     OW10120   1.547   3.946   1.729
 3075SOL    HW110121   1.542   3.983   1.821
 3075SOL    HW210122   1.475   3.877   1.717
 3076SOL     OW10123   0.781   3.988   1.749
 3076SOL    HW110124   0.848   3.927   1.792
 3076SOL    HW210125   0.708   4.007   1.814
 3077SOL     OW10126   0.539   3.788   0.512
 3077SOL    HW110127   0.458   3.789   0.570
 3077SOL    HW210128   0.542   3.871   0.457
 3078SOL     OW10129   0.297   3.759   0.171
 3078SOL    HW110130   0.346   3.843   0.150
 3078SOL    HW210131   0.359   3.694   0.216
 3079SOL     OW10132   0.561   3.946   1.147
 3079SOL    HW110133   0.599   3.862   1.184
 3079SOL    HW210134   0.473   3.965   1.191
 3080SOL     OW10135   1.017   3.763   0.753
 3080SOL    HW110136   0.945   3.768   0.684
 3080SOL    HW210137   0.993   3.694   0.822
 3081SOL     OW10138   0.915   3.813   1.402
 3081SOL    HW110139   0.940   3.793   1.307
 3081SOL    HW210140   0.987   3.869   1.444
 3082SOL     OW10141   1.274   4.110   1.262
 3082SOL    HW110142   1.295   4.184   1.326
 3082SOL    HW210143   1.185   4.127   1.219
 3083SOL     OW10144   0.504   3.774   1.740
 3083SOL    HW110145   0.462   3.717   1.670
 3083SOL    HW210146   0.438   3.843   1.772
 3084SOL     OW10147   0.307   3.937   1.231
 3084SOL    HW110148   0.284   3.974   1.321
 3084SOL    HW210149   0.277   3.842   1.225
 3085SOL     OW10150   1.540   3.998   0.125
 3085SOL    HW110151   1.479   3.923   0.148
 3085SOL    HW210152   1.562   4.050   0.208
 3086SOL     OW10153   1.160   3.931   1.477
 3086SOL    HW110154   1.160   3.995   1.554
 3086SOL    HW210155   1.188   3.979   1.394
 3087SOL     OW10156   0.903   3.810   0.133
 3087SOL    HW110157   0.954   3.811   0.047
 3087SOL    HW210158   0.959   3.768   0.204
 3088SOL     OW10159   1.726   3.859   0.523
 3088SOL    HW110160   1.799   3.842   0.456
 3088SOL    HW210161   1.695   3.772   0.561
 3089SOL     OW10162   1.841   3.899   0.963
 3089SOL    HW110163   1.880   3.814   0.927
 3089SOL    HW210164   1.743   3.901   0.944
 3090SOL     OW10165   0.672   3.927   1.489
 3090SOL    HW110166   0.762   3.911   1.449
 3090SOL    HW210167   0.680   3.932   1.588
 3091SOL     OW10168   0.075   4.069   0.033
 3091SOL    HW110169  -0.017   4.041   0.004
 3091SOL    HW210170   0.106   4.146  -0.023
 3092SOL     OW10171   0.072   3.890   0.318
 3092SOL    HW110172   0.055   3.973   0.264
 3092SOL    HW210173   0.162   3.853   0.296
 3093SOL     OW10174   1.225   4.049   0.449
 3093SOL    HW110175   1.290   3.975   0.438
 3093SOL    HW210176   1.245   4.099   0.533
 3094SOL     OW10177   1.777   4.066   1.642
 3094SOL    HW110178   1.760   4.097   1.548
 3094SOL    HW210179   1.693   4.029   1.680
 3095SOL     OW10180   1.824   3.916   1.227
 3095SOL    HW110181   1.820   3.826   1.271
 3095SOL    HW210182   1.827   3.905   1.128
 3096SOL     OW10183   1.424   3.938   1.112
 3096SOL    HW110184   1.476   3.873   1.167
 3096SOL    HW210185   1.375   4.001   1.173
 3097SOL     OW10186   1.001   3.758   1.154
 3097SOL    HW110187   0.938   3.686   1.123
 3097SOL    HW210188   1.094   3.722   1.154
 3098SOL     OW10189   1.352   3.776   0.168
 3098SOL    HW110190   1.387   3.735   0.084
 3098SOL    HW210191   1.262   3.738   0.188
 3099SOL     OW10192   1.300   4.177   0.691
 3099SOL    HW110193   1.241   4.257   0.695
 3099SOL    HW210194   1.315   4.142   0.784
 3100SOL     OW10195   1.593   3.945   0.882
 3100SOL    HW110196   1.509   3.944   0.936
 3100SOL    HW210197   1.595   4.028   0.826
 3101SOL     OW10198   0.225   3.999   2.858
 3101SOL    HW110199   0.260   3.982   2.950
 3101SOL    HW210200   0.137   3.954   2.846
 3102SOL     OW10201   0.019   4.092   2.509
 3102SOL    HW110202  -0.063   4.135   2.548
 3102SOL    HW210203  -0.009   4.019   2.446
 3103SOL     OW10204   1.755   4.331   2.093
 3103SOL    HW110205   1.743   4.318   1.994
 3103SOL    HW210206   1.725   4.250   2.142
 3104SOL     OW10207   0.438   4.116   3.361
 3104SOL    HW110208   0.520   4.060   3.370
 3104SOL    HW210209   0.357   4.058   3.365
 3105SOL     OW10210   1.594   3.838   3.342
 3105SOL    HW110211   1.576   3.905   3.270
 3105SOL    HW210212   1.591   3.884   3.431
 3106SOL     OW10213   0.809   3.728   2.364
 3106SOL    HW110214   0.849   3.819   2.355
 3106SOL    HW210215   0.709   3.736   2.370
 3107SOL     OW10216   1.281   4.069   2.806
 3107SOL    HW110217   1.195   4.019   2.793
 3107SOL    HW210218   1.343   4.015   2.862
 3108SOL     OW10219   0.550   3.920   2.747
 3108SOL    HW110220   0.545   3.915   2.847
 3108SOL    HW210221   0.552   4.016   2.718
 3109SOL     OW10222   0.202   4.009   3.360
 3109SOL    HW110223   0.122   4.069   3.347
 3109SOL    HW210224   0.192   3.960   3.446
 3110SOL     OW10225   1.400   3.831   2.288
 3110SOL    HW110226   1.376   3.794   2.198
 3110SOL    HW210227   1.499   3.847   2.292
 3111SOL     OW10228   1.547   3.946   3.591
 3111SOL    HW110229   1.542   3.983   3.683
 3111SOL    HW210230   1.475   3.877   3.579
 3112SOL     OW10231   0.614   3.846   1.979
 3112SOL    HW110232   0.712   3.824   1.986
 3112SOL    HW210233   0.583   3.829   1.886
 3113SOL     OW10234   0.781   3.988   3.611
 3113SOL    HW110235   0.848   3.927   3.654
 3113SOL    HW210236   0.708   4.007   3.676
 3114SOL     OW10237   0.539   3.788   2.374
 3114SOL    HW110238   0.458   3.789   2.432
 3114SOL    HW210239   0.542   3.871   2.319
 3115SOL     OW10240   0.297   3.759   2.033
 3115SOL    HW110241   0.346   3.843   2.012
 3115SOL    HW210242   0.359   3.694   2.078
 3116SOL     OW10243   0.561   3.946   3.009
 3116SOL    HW110244   0.599   3.862   3.046
 3116SOL    HW210245   0.473   3.965   3.053
 3117SOL     OW10246   1.017   3.763   2.615
 3117SOL    HW110247   0.945   3.768   2.546
 3117SOL    HW210248   0.993   3.694   2.684
 3118SOL     OW10249   0.915   3.813   3.264
 3118SOL    HW110250   0.940   3.793   3.169
 3118SOL    HW210251   0.987   3.869   3.306
 3119SOL     OW10252   1.274   4.110   3.124
 3119SOL    HW110253   1.295   4.184   3.188
 3119SOL    HW210254   1.185   4.127   3.081
 3120SOL     OW10255   0.504   3.774   3.602
 3120SOL    HW110256   0.462   3.717   3.532
 3120SOL    HW210257   0.438   3.843   3.634
 3121SOL     OW10258   0.307   3.937   3.093
 3121SOL    HW110259   0.284   3.974   3.183
 3121SOL    HW210260   0.277   3.842   3.087
 3122SOL     OW10261   1.540   3.998   1.987
 3122SOL    HW110262   1.479   3.923   2.010
 3122SOL    HW210263   1.562   4.050   2.070
 3123SOL     OW10264   1.160   3.931   3.339
 3123SOL    HW110265   1.160   3.995   3.416
 3123SOL    HW210266   1.188   3.979   3.256
 3124SOL     OW10267   0.903   3.810   1.995
 3124SOL    HW110268   0.954   3.811   1.909
 3124SOL    HW210269   0.959   3.768   2.066
 3125SOL     OW10270   1.726   3.859   2.385
 3125SOL    HW110271   1.799   3.842   2.318
 3125SOL    HW210272   1.695   3.772   2.423
 3126SOL     OW10273   1.841   3.899   2.825
 3126SOL    HW110274   1.880   3.814   2.789
 3126SOL    HW210275   1.743   3.901   2.806
 3127SOL     OW10276   0.672   3.927   3.351
 3127SOL    HW110277   0.762   3.911   3.311
 3127SOL    HW210278   0.680   3.932   3.450
 3128SOL     OW10279   0.075   4.069   1.895
 3128SOL    HW110280  -0.017   4.041   1.866
 3128SOL    HW210281   0.106   4.146   1.839
 3129SOL     OW10282   0.072   3.890   2.180
 3129SOL    HW110283   0.055   3.973   2.126
 3129SOL    HW210284   0.162   3.853   2.158
 3130SOL     OW10285   1.225   4.049   2.311
 3130SOL    HW110286   1.290   3.975   2.300
 3130SOL    HW210287   1.245   4.099   2.395
 3131SOL     OW10288   1.777   4.066   3.504
 3131SOL    HW110289   1.760   4.097   3.410
 3131SOL    HW210290   1.693   4.029   3.542
 3132SOL     OW10291   1.824   3.916   3.089
 3132SOL    HW110292   1.820   3.826   3.133
 3132SOL    HW210293   1.827   3.905   2.990
 3133SOL     OW10294   1.424   3.938   2.974
 3133SOL    HW110295   1.476   3.873   3.029
 3133SOL    HW210296   1.375   4.001   3.035
 3134SOL     OW10297   1.001   3.758   3.016
 3134SOL    HW110298   0.938   3.686   2.985
 3134SOL    HW210299   1.094   3.722   3.016
 3135SOL     OW10300   1.352   3.776   2.030
 3135SOL    HW110301   1.387   3.735   1.946
 3135SOL    HW210302   1.262   3.738   2.050
 3136SOL     OW10303   1.300   4.177   2.553
 3136SOL    HW110304   1.241   4.257   2.557
 3136SOL    HW210305   1.315   4.142   2.646
 3137SOL     OW10306   1.593   3.945   2.744
 3137SOL    HW110307   1.509   3.944   2.798
 3137SOL    HW210308   1.595   4.028   2.688
 3138SOL     OW10309   0.225   3.999   4.720
 3138SOL    HW110310   0.260   3.982   4.812
 3138SOL    HW210311   0.137   3.954   4.708
 3139SOL     OW10312   0.019   4.092   4.371
 3139SOL    HW110313  -0.063   4.135   4.410
 3139SOL    HW210314  -0.009   4.019   4.308
 3140SOL     OW10315   1.755   4.331   3.955
 3140SOL    HW110316   1.743   4.318   3.856
 3140SOL    HW210317   1.725   4.250   4.004
 3141SOL     OW10318   0.438   4.116   5.223
 3141SOL    HW110319   0.520   4.060   5.232
 3141SOL    HW210320   0.357   4.058   5.227
 3142SOL     OW10321   1.594   3.838   5.204
 3142SOL    HW110322   1.576   3.905   5.132
 3142SOL    HW210323   1.591   3.884   5.293
 3143SOL     OW10324   0.809   3.728   4.226
 3143SOL    HW110325   0.849   3.819   4.217
 3143SOL    HW210326   0.709   3.736   4.232
 3144SOL     OW10327   1.281   4.069   4.668
 3144SOL    HW110328   1.195   4.019   4.655
 3144SOL    HW210329   1.343   4.015   4.724
 3145SOL     OW10330   0.550   3.920   4.609
 3145SOL    HW110331   0.545   3.915   4.709
 3145SOL    HW210332   0.552   4.016   4.580
 3146SOL     OW10333   0.202   4.009   5.222
 3146SOL    HW110334   0.122   4.069   5.209
 3146SOL    HW210335   0.192   3.960   5.308
 3147SOL     OW10336   1.400   3.831   4.150
 3147SOL    HW110337   1.376   3.794   4.060
 3147SOL    HW210338   1.499   3.847   4.154
 3148SOL     OW10339   1.547   3.946   5.453
 3148SOL    HW110340   1.542   3.983   5.545
 3148SOL    HW210341   1.475   3.877   5.441
 3149SOL     OW10342   0.614   3.846   3.841
 3149SOL    HW110343   0.712   3.824   3.848
 3149SOL    HW210344   0.583   3.829   3.748
 3150SOL     OW10345   0.781   3.988   5.473
 3150SOL    HW110346   0.848   3.927   5.516
 3150SOL    HW210347   0.708   4.007   5.538
 3151SOL     OW10348   0.539   3.788   4.236
 3151SOL    HW110349   0.458   3.789   4.294
 3151SOL    HW210350   0.542   3.871   4.181
 3152SOL     OW10351   0.297   3.759   3.895
 3152SOL    HW110352   0.346   3.843   3.874
 3152SOL    HW210353   0.359   3.694   3.940
 3153SOL     OW10354   0.561   3.946   4.871
 3153SOL    HW110355   0.599   3.862   4.908
 3153SOL    HW210356   0.473   3.965   4.915
 3154SOL     OW10357   1.017   3.763   4.477
 3154SOL    HW110358   0.945   3.768   4.408
 3154SOL    HW210359   0.993   3.694   4.546
 3155SOL     OW10360   0.915   3.813   5.126
 3155SOL    HW110361   0.940   3.793   5.031
 3155SOL    HW210362   0.987   3.869   5.168
 3156SOL     OW10363   1.274   4.110   4.986
 3156SOL    HW110364   1.295   4.184   5.050
 3156SOL    HW210365   1.185   4.127   4.943
 3157SOL     OW10366   0.504   3.774   5.464
 3157SOL    HW110367   0.462   3.717   5.394
 3157SOL    HW210368   0.438   3.843   5.496
 3158SOL     OW10369   0.307   3.937   4.955
 3158SOL    HW110370   0.284   3.974   5.045
 3158SOL    HW210371   0.277   3.842   4.949
 3159SOL     OW10372   1.540   3.998   3.849
 3159SOL    HW110373   1.479   3.923   3.872
 3159SOL    HW210374   1.562   4.050   3.932
 3160SOL     OW10375   1.160   3.931   5.201
 3160SOL    HW110376   1.160   3.995   5.278
 3160SOL    HW210377   1.188   3.979   5.118
 3161SOL     OW10378   0.903   3.810   3.857
 3161SOL    HW110379   0.954   3.811   3.771
 3161SOL    HW210380   0.959   3.768   3.928
 3162SOL     OW10381   1.726   3.859   4.247
 3162SOL    HW110382   1.799   3.842   4.180
 3162SOL    HW210383   1.695   3.772   4.285
 3163SOL     OW10384   1.841   3.899   4.687
 3163SOL    HW110385   1.880   3.814   4.651
 3163SOL    HW210386   1.743   3.901   4.668
 3164SOL     OW10387   0.672   3.927   5.213
 3164SOL    HW110388   0.762   3.911   5.173
 3164SOL    HW210389   0.680   3.932   5.312
 3165SOL     OW10390   0.075   4.069   3.757
 3165SOL    HW110391  -0.017   4.041   3.728
 3165SOL    HW210392   0.106   4.146   3.701
 3166SOL     OW10393   0.072   3.890   4.042
 3166SOL    HW110394   0.055   3.973   3.988
 3166SOL    HW210395   0.162   3.853   4.020
 3167SOL     OW10396   1.225   4.049   4.173
 3167SOL    HW110397   1.290   3.975   4.162
 3167SOL    HW210398   1.245   4.099   4.257
 3168SOL     OW10399   1.777   4.066   5.366
 3168SOL    HW110400   1.760   4.097   5.272
 3168SOL    HW210401   1.693   4.029   5.404
 3169SOL     OW10402   1.824   3.916   4.951
 3169SOL    HW110403   1.820   3.826   4.995
 3169SOL    HW210404   1.827   3.905   4.852
 3170SOL     OW10405   1.424   3.938   4.836
 3170SOL    HW110406   1.476   3.873   4.891
 3170SOL    HW210407   1.375   4.001   4.897
 3171SOL     OW10408   1.001   3.758   4.878
 3171SOL    HW110409   0.938   3.686   4.847
 3171SOL    HW210410   1.094   3.722   4.878
 3172SOL     OW10411   1.352   3.776   3.892
 3172SOL    HW110412   1.387   3.735   3.808
 3172SOL    HW210413   1.262   3.738   3.912
 3173SOL     OW10414   1.300   4.177   4.415
 3173SOL    HW110415   1.241   4.257   4.419
 3173SOL    HW210416   1.315   4.142   4.508
 3174SOL     OW10417   1.593   3.945   4.606
 3174SOL    HW110418   1.509   3.944   4.660
 3174SOL    HW210419   1.595   4.028   4.550
 3175SOL     OW10420   0.225   3.999   6.582
 3175SOL    HW110421   0.260   3.982   6.674
 3175SOL    HW210422   0.137   3.954   6.570
 3176SOL     OW10423   0.019   4.092   6.233
 3176SOL    HW110424  -0.063   4.135   6.272
 3176SOL    HW210425  -0.009   4.019   6.170
 3177SOL     OW10426   1.755   4.331   5.817
 3177SOL    HW110427   1.743   4.318   5.718
 3177SOL    HW210428   1.725   4.250   5.866
 3178SOL     OW10429   0.438   4.116   7.085
 3178SOL    HW110430   0.520   4.060   7.094
 3178SOL    HW210431   0.357   4.058   7.089
 3179SOL     OW10432   1.594   3.838   7.066
 3179SOL    HW110433   1.576   3.905   6.994
 3179SOL    HW210434   1.591   3.884   7.155
 3180SOL     OW10435   0.809   3.728   6.088
 3180SOL    HW110436   0.849   3.819   6.079
 3180SOL    HW210437   0.709   3.736   6.094
 3181SOL     OW10438   1.281   4.069   6.530
 3181SOL    HW110439   1.195   4.019   6.517
 3181SOL    HW210440   1.343   4.015   6.586
 3182SOL     OW10441   0.550   3.920   6.471
 3182SOL    HW110442   0.545   3.915   6.571
 3182SOL    HW210443   0.552   4.016   6.442
 3183SOL     OW10444   0.202   4.009   7.084
 3183SOL    HW110445   0.122   4.069   7.071
 3183SOL    HW210446   0.192   3.960   7.170
 3184SOL     OW10447   1.400   3.831   6.012
 3184SOL    HW110448   1.376   3.794   5.922
 3184SOL    HW210449   1.499   3.847   6.016
 3185SOL     OW10450   1.547   3.946   7.315
 3185SOL    HW110451   1.542   3.983   7.407
 3185SOL    HW210452   1.475   3.877   7.303
 3186SOL     OW10453   0.614   3.846   5.703
 3186SOL    HW110454   0.712   3.824   5.710
 3186SOL    HW210455   0.583   3.829   5.610
 3187SOL     OW10456   0.781   3.988   7.335
 3187SOL    HW110457   0.848   3.927   7.378
 3187SOL    HW210458   0.708   4.007   7.400
 3188SOL     OW10459   0.539   3.788   6.098
 3188SOL    HW110460   0.458   3.789   6.156
 3188SOL    HW210461   0.542   3.871   6.043
 3189SOL     OW10462   0.297   3.759   5.757
 3189SOL    HW110463   0.346   3.843   5.736
 3189SOL    HW210464   0.359   3.694   5.802
 3190SOL     OW10465   0.561   3.946   6.733
 3190SOL    HW110466   0.599   3.862   6.770
 3190SOL    HW210467   0.473   3.965   6.777
 3191SOL     OW10468   1.017   3.763   6.339
 3191SOL    HW110469   0.945   3.768   6.270
 3191SOL    HW210470   0.993   3.694   6.408
 3192SOL     OW10471   0.915   3.813   6.988
 3192SOL    HW110472   0.940   3.793   6.893
 3192SOL    HW210473   0.987   3.869   7.030
 3193SOL     OW10474   1.274   4.110   6.848
 3193SOL    HW110475   1.295   4.184   6.912
 3193SOL    HW210476   1.185   4.127   6.805
 3194SOL     OW10477   0.504   3.774   7.326
 3194SOL    HW110478   0.462   3.717   7.256
 3194SOL    HW210479   0.438   3.843   7.358
 3195SOL     OW10480   0.307   3.937   6.817
 3195SOL    HW110481   0.284   3.974   6.907
 3195SOL    HW210482   0.277   3.842   6.811
 3196SOL     OW10483   1.540   3.998   5.711
 3196SOL    HW110484   1.479   3.923   5.734
 3196SOL    HW210485   1.562   4.050   5.794
 3197SOL     OW10486   1.160   3.931   7.063
 3197SOL    HW110487   1.160   3.995   7.140
 3197SOL    HW210488   1.188   3.979   6.980
 3198SOL     OW10489   0.903   3.810   5.719
 3198SOL    HW110490   0.954   3.811   5.633
 3198SOL    HW210491   0.959   3.768   5.790
 3199SOL     OW10492   1.726   3.859   6.109
 3199SOL    HW110493   1.799   3.842   6.042
 3199SOL    HW210494   1.695   3.772   6.147
 3200SOL     OW10495   1.841   3.899   6.549
 3200SOL    HW110496   1.880   3.814   6.513
 3200SOL    HW210497   1.743   3.901   6.530
 3201SOL     OW10498   0.672   3.927   7.075
 3201SOL    HW110499   0.762   3.911   7.035
 3201SOL    HW210500   0.680   3.932   7.174
 3202SOL     OW10501   0.075   4.069   5.619
 3202SOL    HW110502  -0.017   4.041   5.590
 3202SOL    HW210503   0.106   4.146   5.563
 3203SOL     OW10504   0.072   3.890   5.904
 3203SOL    HW110505   0.055   3.973   5.850
 3203SOL    HW210506   0.162   3.853   5.882
 3204SOL     OW10507   1.225   4.049   6.035
 3204SOL    HW110508   1.290   3.975   6.024
 3204SOL    HW210509   1.245   4.099   6.119
 3205SOL     OW10510   1.777   4.066   7.228
 3205SOL    HW110511   1.760   4.097   7.134
 3205SOL    HW210512   1.693   4.029   7.266
 3206SOL     OW10513   1.824   3.916   6.813
 3206SOL    HW110514   1.820   3.826   6.857
 3206SOL    HW210515   1.827   3.905   6.714
 3207SOL     OW10516   1.424   3.938   6.698
 3207SOL    HW110517   1.476   3.873   6.753
 3207SOL    HW210518   1.375   4.001   6.759
 3208SOL     OW10519   1.001   3.758   6.740
 3208SOL    HW110520   0.938   3.686   6.709
 3208SOL    HW210521   1.094   3.722   6.740
 3209SOL     OW10522   1.352   3.776   5.754
 3209SOL    HW110523   1.387   3.735   5.670
 3209SOL    HW210524   1.262   3.738   5.774
 3210SOL     OW10525   1.300   4.177   6.277
 3210SOL    HW110526   1.241   4.257   6.281
 3210SOL    HW210527   1.315   4.142   6.370
 3211SOL     OW10528   1.593   3.945   6.468
 3211SOL    HW110529   1.509   3.944   6.522
 3211SOL    HW210530   1.595   4.028   6.412
 3212SOL     OW10531   0.225   3.999   8.444
 3212SOL    HW110532   0.260   3.982   8.536
 3212SOL    HW210533   0.137   3.954   8.432
 3213SOL     OW10534   0.019   4.092   8.095
 3213SOL    HW110535  -0.063   4.135   8.134
 3213SOL    HW210536  -0.009   4.019   8.032
 3214SOL     OW10537   1.755   4.331   7.679
 3214SOL    HW110538   1.743   4.318   7.580
 3214SOL    HW210539   1.725   4.250   7.728
 3215SOL     OW10540   0.438   4.116   8.947
 3215SOL    HW110541   0.520   4.060   8.956
 3215SOL    HW210542   0.357   4.058   8.951
 3216SOL     OW10543   1.594   3.838   8.928
 3216SOL    HW110544   1.576   3.905   8.856
 3216SOL    HW210545   1.591   3.884   9.017
 3217SOL     OW10546   0.809   3.728   7.950
 3217SOL    HW110547   0.849   3.819   7.941
 3217SOL    HW210548   0.709   3.736   7.956
 3218SOL     OW10549   1.281   4.069   8.392
 3218SOL    HW110550   1.195   4.019   8.379
 3218SOL    HW210551   1.343   4.015   8.448
 3219SOL     OW10552   0.550   3.920   8.333
 3219SOL    HW110553   0.545   3.915   8.433
 3219SOL    HW210554   0.552   4.016   8.304
 3220SOL     OW10555   0.202   4.009   8.946
 3220SOL    HW110556   0.122   4.069   8.933
 3220SOL    HW210557   0.192   3.960   9.032
 3221SOL     OW10558   1.400   3.831   7.874
 3221SOL    HW110559   1.376   3.794   7.784
 3221SOL    HW210560   1.499   3.847   7.878
 3222SOL     OW10561   1.547   3.946   9.177
 3222SOL    HW110562   1.542   3.983   9.269
 3222SOL    HW210563   1.475   3.877   9.165
 3223SOL     OW10564   0.614   3.846   7.565
 3223SOL    HW110565   0.712   3.824   7.572
 3223SOL    HW210566   0.583   3.829   7.472
 3224SOL     OW10567   0.781   3.988   9.197
 3224SOL    HW110568   0.848   3.927   9.240
 3224SOL    HW210569   0.708   4.007   9.262
 3225SOL     OW10570   0.539   3.788   7.960
 3225SOL    HW110571   0.458   3.789   8.018
 3225SOL    HW210572   0.542   3.871   7.905
 3226SOL     OW10573   0.297   3.759   7.619
 3226SOL    HW110574   0.346   3.843   7.598
 3226SOL    HW210575   0.359   3.694   7.664
 3227SOL     OW10576   0.561   3.946   8.595
 3227SOL    HW110577   0.599   3.862   8.632
 3227SOL    HW210578   0.473   3.965   8.639
 3228SOL     OW10579   1.017   3.763   8.201
 3228SOL    HW110580   0.945   3.768   8.132
 3228SOL    HW210581   0.993   3.694   8.270
 3229SOL     OW10582   0.915   3.813   8.850
 3229SOL    HW110583   0.940   3.793   8.755
 3229SOL    HW210584   0.987   3.869   8.892
 3230SOL     OW10585   1.274   4.110   8.710
 3230SOL    HW110586   1.295   4.184   8.774
 3230SOL    HW210587   1.185   4.127   8.667
 3231SOL     OW10588   0.504   3.774   9.188
 3231SOL    HW110589   0.462   3.717   9.118
 3231SOL    HW210590   0.438   3.843   9.220
 3232SOL     OW10591   0.307   3.937   8.679
 3232SOL    HW110592   0.284   3.974   8.769
 3232SOL    HW210593   0.277   3.842   8.673
 3233SOL     OW10594   1.540   3.998   7.573
 3233SOL    HW110595   1.479   3.923   7.596
 3233SOL    HW210596   1.562   4.050   7.656
 3234SOL     OW10597   1.160   3.931   8.925
 3234SOL    HW110598   1.160   3.995   9.002
 3234SOL    HW210599   1.188   3.979   8.842
 3235SOL     OW10600   0.903   3.810   7.581
 3235SOL    HW110601   0.954   3.811   7.495
 3235SOL    HW210602   0.959   3.768   7.652
 3236SOL     OW10603   1.726   3.859   7.971
 3236SOL    HW110604   1.799   3.842   7.904
 3236SOL    HW210605   1.695   3.772   8.009
 3237SOL     OW10606   1.841   3.899   8.411
 3237SOL    HW110607   1.880   3.814   8.375
 3237SOL    HW210608   1.743   3.901   8.392
 3238SOL     OW10609   0.672   3.927   8.937
 3238SOL    HW110610   0.762   3.911   8.897
 3238SOL    HW210611   0.680   3.932   9.036
 3239SOL     OW10612   0.075   4.069   7.481
 3239SOL    HW110613  -0.017   4.041   7.452
 3239SOL    HW210614   0.106   4.146   7.425
 3240SOL     OW10615   0.072   3.890   7.766
 3240SOL    HW110616   0.055   3.973   7.712
 3240SOL    HW210617   0.162   3.853   7.744
 3241SOL     OW10618   1.225   4.049   7.897
 3241SOL    HW110619   1.290   3.975   7.886
 3241SOL    HW210620   1.245   4.099   7.981
 3242SOL     OW10621   1.777   4.066   9.090
 3242SOL    HW110622   1.760   4.097   8.996
 3242SOL    HW210623   1.693   4.029   9.128
 3243SOL     OW10624   1.824   3.916   8.675
 3243SOL    HW110625   1.820   3.826   8.719
 3243SOL    HW210626   1.827   3.905   8.576
 3244SOL     OW10627   1.424   3.938   8.560
 3244SOL    HW110628   1.476   3.873   8.615
 3244SOL    HW210629   1.375   4.001   8.621
 3245SOL     OW10630   1.001   3.758   8.602
 3245SOL    HW110631   0.938   3.686   8.571
 3245SOL    HW210632   1.094   3.722   8.602
 3246SOL     OW10633   1.352   3.776   7.616
 3246SOL    HW110634   1.387   3.735   7.532
 3246SOL    HW210635   1.262   3.738   7.636
 3247SOL     OW10636   1.300   4.177   8.139
 3247SOL    HW110637   1.241   4.257   8.143
 3247SOL    HW210638   1.315   4.142   8.232
 3248SOL     OW10639   1.593   3.945   8.330
 3248SOL    HW110640   1.509   3.944   8.384
 3248SOL    HW210641   1.595   4.028   8.274
 3249SOL     OW10642   0.225   3.999  10.306
 3249SOL    HW110643   0.260   3.982  10.398
 3249SOL    HW210644   0.137   3.954  10.294
 3250SOL     OW10645   0.019   4.092   9.957
 3250SOL    HW110646  -0.063   4.135   9.996
 3250SOL    HW210647  -0.009   4.019   9.894
 3251SOL     OW10648   1.755   4.331   9.541
 3251SOL    HW110649   1.743   4.318   9.442
 3251SOL    HW210650   1.725   4.250   9.590
 3252SOL     OW10651   0.438   4.116  10.809
 3252SOL    HW110652   0.520   4.060  10.818
 3252SOL    HW210653   0.357   4.058  10.813
 3253SOL     OW10654   1.594   3.838  10.790
 3253SOL    HW110655   1.576   3.905  10.718
 3253SOL    HW210656   1.591   3.884  10.879
 3254SOL     OW10657   0.809   3.728   9.812
 3254SOL    HW110658   0.849   3.819   9.803
 3254SOL    HW210659   0.709   3.736   9.818
 3255SOL     OW10660   1.281   4.069  10.254
 3255SOL    HW110661   1.195   4.019  10.241
 3255SOL    HW210662   1.343   4.015  10.310
 3256SOL     OW10663   0.550   3.920  10.195
 3256SOL    HW110664   0.545   3.915  10.295
 3256SOL    HW210665   0.552   4.016  10.166
 3257SOL     OW10666   0.202   4.009  10.808
 3257SOL    HW110667   0.122   4.069  10.795
 3257SOL    HW210668   0.192   3.960  10.894
 3258SOL     OW10669   1.400   3.831   9.736
 3258SOL    HW110670   1.376   3.794   9.646
 3258SOL    HW210671   1.499   3.847   9.740
 3259SOL     OW10672   1.547   3.946  11.039
 3259SOL    HW110673   1.542   3.983  11.131
 3259SOL    HW210674   1.475   3.877  11.027
 3260SOL     OW10675   0.614   3.846   9.427
 3260SOL    HW110676   0.712   3.824   9.434
 3260SOL    HW210677   0.583   3.829   9.334
 3261SOL     OW10678   0.781   3.988  11.059
 3261SOL    HW110679   0.848   3.927  11.102
 3261SOL    HW210680   0.708   4.007  11.124
 3262SOL     OW10681   0.539   3.788   9.822
 3262SOL    HW110682   0.458   3.789   9.880
 3262SOL    HW210683   0.542   3.871   9.767
 3263SOL     OW10684   0.297   3.759   9.481
 3263SOL    HW110685   0.346   3.843   9.460
 3263SOL    HW210686   0.359   3.694   9.526
 3264SOL     OW10687   0.561   3.946  10.457
 3264SOL    HW110688   0.599   3.862  10.494
 3264SOL    HW210689   0.473   3.965  10.501
 3265SOL     OW10690   1.017   3.763  10.063
 3265SOL    HW110691   0.945   3.768   9.994
 3265SOL    HW210692   0.993   3.694  10.132
 3266SOL     OW10693   0.915   3.813  10.712
 3266SOL    HW110694   0.940   3.793  10.617
 3266SOL    HW210695   0.987   3.869  10.754
 3267SOL     OW10696   1.274   4.110  10.572
 3267SOL    HW110697   1.295   4.184  10.636
 3267SOL    HW210698   1.185   4.127  10.529
 3268SOL     OW10699   0.504   3.774  11.050
 3268SOL    HW110700   0.462   3.717  10.980
 3268SOL    HW210701   0.438   3.843  11.082
 3269SOL     OW10702   0.307   3.937  10.541
 3269SOL    HW110703   0.284   3.974  10.631
 3269SOL    HW210704   0.277   3.842  10.535
 3270SOL     OW10705   1.540   3.998   9.435
 3270SOL    HW110706   1.479   3.923   9.458
 3270SOL    HW210707   1.562   4.050   9.518
 3271SOL     OW10708   1.160   3.931  10.787
 3271SOL    HW110709   1.160   3.995  10.864
 3271SOL    HW210710   1.188   3.979  10.704
 3272SOL     OW10711   0.903   3.810   9.443
 3272SOL    HW110712   0.954   3.811   9.357
 3272SOL    HW210713   0.959   3.768   9.514
 3273SOL     OW10714   1.726   3.859   9.833
 3273SOL    HW110715   1.799   3.842   9.766
 3273SOL    HW210716   1.695   3.772   9.871
 3274SOL     OW10717   1.841   3.899  10.273
 3274SOL    HW110718   1.880   3.814  10.237
 3274SOL    HW210719   1.743   3.901  10.254
 3275SOL     OW10720   0.672   3.927  10.799
 3275SOL    HW110721   0.762   3.911  10.759
 3275SOL    HW210722   0.680   3.932  10.898
 3276SOL     OW10723   0.075   4.069   9.343
 3276SOL    HW110724  -0.017   4.041   9.314
 3276SOL    HW210725   0.106   4.146   9.287
 3277SOL     OW10726   0.072   3.890   9.628
 3277SOL    HW110727   0.055   3.973   9.574
 3277SOL    HW210728   0.162   3.853   9.606
 3278SOL     OW10729   1.225   4.049   9.759
 3278SOL    HW110730   1.290   3.975   9.748
 3278SOL    HW210731   1.245   4.099   9.843
 3279SOL     OW10732   1.777   4.066  10.952
 3279SOL    HW110733   1.760   4.097  10.858
 3279SOL    HW210734   1.693   4.029  10.990
 3280SOL     OW10735   1.824   3.916  10.537
 3280SOL    HW110736   1.820   3.826  10.581
 3280SOL    HW210737   1.827   3.905  10.438
 3281SOL     OW10738   1.424   3.938  10.422
 3281SOL    HW110739   1.476   3.873  10.477
 3281SOL    HW210740   1.375   4.001  10.483
 3282SOL     OW10741   1.001   3.758  10.464
 3282SOL    HW110742   0.938   3.686  10.433
 3282SOL    HW210743   1.094   3.722  10.464
 3283SOL     OW10744   1.352   3.776   9.478
 3283SOL    HW110745   1.387   3.735   9.394
 3283SOL    HW210746   1.262   3.738   9.498
 3284SOL     OW10747   1.300   4.177  10.001
 3284SOL    HW110748   1.241   4.257  10.005
 3284SOL    HW210749   1.315   4.142  10.094
 3285SOL     OW10750   1.593   3.945  10.192
 3285SOL    HW110751   1.509   3.944  10.246
 3285SOL    HW210752   1.595   4.028  10.136
 3286SOL     OW10753   0.225   3.999  12.168
 3286SOL    HW110754   0.260   3.982  12.260
 3286SOL    HW210755   0.137   3.954  12.156
 3287SOL     OW10756   0.019   4.092  11.819
 3287SOL    HW110757  -0.063   4.135  11.858
 3287SOL    HW210758  -0.009   4.019  11.756
 3288SOL     OW10759   1.755   4.331  11.403
 3288SOL    HW110760   1.743   4.318  11.304
 3288SOL    HW210761   1.725   4.250  11.452
 3289SOL     OW10762   0.438   4.116  12.671
 3289SOL    HW110763   0.520   4.060  12.680
 3289SOL    HW210764   0.357   4.058  12.675
 3290SOL     OW10765   1.594   3.838  12.652
 3290SOL    HW110766   1.576   3.905  12.580
 3290SOL    HW210767   1.591   3.884  12.741
 3291SOL     OW10768   0.809   3.728  11.674
 3291SOL    HW110769   0.849   3.819  11.665
 3291SOL    HW210770   0.709   3.736  11.680
 3292SOL     OW10771   1.281   4.069  12.116
 3292SOL    HW110772   1.195   4.019  12.103
 3292SOL    HW210773   1.343   4.015  12.172
 3293SOL     OW10774   0.550   3.920  12.057
 3293SOL    HW110775   0.545   3.915  12.157
 3293SOL    HW210776   0.552   4.016  12.028
 3294SOL     OW10777   0.202   4.009  12.670
 3294SOL    HW110778   0.122   4.069  12.657
 3294SOL    HW210779   0.192   3.960  12.756
 3295SOL     OW10780   1.400   3.831  11.598
 3295SOL    HW110781   1.376   3.794  11.508
 3295SOL    HW210782   1.499   3.847  11.602
 3296SOL     OW10783   1.547   3.946  12.901
 3296SOL    HW110784   1.542   3.983  12.993
 3296SOL    HW210785   1.475   3.877  12.889
 3297SOL     OW10786   0.614   3.846  11.289
 3297SOL    HW110787   0.712   3.824  11.296
 3297SOL    HW210788   0.583   3.829  11.196
 3298SOL     OW10789   0.781   3.988  12.921
 3298SOL    HW110790   0.848   3.927  12.964
 3298SOL    HW210791   0.708   4.007  12.986
 3299SOL     OW10792   0.539   3.788  11.684
 3299SOL    HW110793   0.458   3.789  11.742
 3299SOL    HW210794   0.542   3.871  11.629
 3300SOL     OW10795   0.297   3.759  11.343
 3300SOL    HW110796   0.346   3.843  11.322
 3300SOL    HW210797   0.359   3.694  11.388
 3301SOL     OW10798   0.561   3.946  12.319
 3301SOL    HW110799   0.599   3.862  12.356
 3301SOL    HW210800   0.473   3.965  12.363
 3302SOL     OW10801   1.017   3.763  11.925
 3302SOL    HW110802   0.945   3.768  11.856
 3302SOL    HW210803   0.993   3.694  11.994
 3303SOL     OW10804   0.915   3.813  12.574
 3303SOL    HW110805   0.940   3.793  12.479
 3303SOL    HW210806   0.987   3.869  12.616
 3304SOL     OW10807   1.274   4.110  12.434
 3304SOL    HW110808   1.295   4.184  12.498
 3304SOL    HW210809   1.185   4.127  12.391
 3305SOL     OW10810   0.504   3.774  12.912
 3305SOL    HW110811   0.462   3.717  12.842
 3305SOL    HW210812   0.438   3.843  12.944
 3306SOL     OW10813   0.307   3.937  12.403
 3306SOL    HW110814   0.284   3.974  12.493
 3306SOL    HW210815   0.277   3.842  12.397
 3307SOL     OW10816   1.540   3.998  11.297
 3307SOL    HW110817   1.479   3.923  11.320
 3307SOL    HW210818   1.562   4.050  11.380
 3308SOL     OW10819   1.160   3.931  12.649
 3308SOL    HW110820   1.160   3.995  12.726
 3308SOL    HW210821   1.188   3.979  12.566
 3309SOL     OW10822   0.903   3.810  11.305
 3309SOL    HW110823   0.954   3.811  11.219
 3309SOL    HW210824   0.959   3.768  11.376
 3310SOL     OW10825   1.726   3.859  11.695
 3310SOL    HW110826   1.799   3.842  11.628
 3310SOL    HW210827   1.695   3.772  11.733
 3311SOL     OW10828   1.841   3.899  12.135
 3311SOL    HW110829   1.880   3.814  12.099
 3311SOL    HW210830   1.743   3.901  12.116
 3312SOL     OW10831   0.672   3.927  12.661
 3312SOL    HW110832   0.762   3.911  12.621
 3312SOL    HW210833   0.680   3.932  12.760
 3313SOL     OW10834   0.075   4.069  11.205
 3313SOL    HW110835  -0.017   4.041  11.176
 3313SOL    HW210836   0.106   4.146  11.149
 3314SOL     OW10837   0.072   3.890  11.490
 3314SOL    HW110838   0.055   3.973  11.436
 3314SOL    HW210839   0.162   3.853  11.468
 3315SOL     OW10840   1.225   4.049  11.621
 3315SOL    HW110841   1.290   3.975  11.610
 3315SOL    HW210842   1.245   4.099  11.705
 3316SOL     OW10843   1.777   4.066  12.814
 3316SOL    HW110844   1.760   4.097  12.720
 3316SOL    HW210845   1.693   4.029  12.852
 3317SOL     OW10846   1.824   3.916  12.399
 3317SOL    HW110847   1.820   3.826  12.443
 3317SOL    HW210848   1.827   3.905  12.300
 3318SOL     OW10849   1.424   3.938  12.284
 3318SOL    HW110850   1.476   3.873  12.339
 3318SOL    HW210851   1.375   4.001  12.345
 3319SOL     OW10852   1.001   3.758  12.326
 3319SOL    HW110853   0.938   3.686  12.295
 3319SOL    HW210854   1.094   3.722  12.326
 3320SOL     OW10855   1.352   3.776  11.340
 3320SOL    HW110856   1.387   3.735  11.256
 3320SOL    HW210857   1.262   3.738  11.360
 3321SOL     OW10858   1.300   4.177  11.863
 3321SOL    HW110859   1.241   4.257  11.867
 3321SOL    HW210860   1.315   4.142  11.956
 3322SOL     OW10861   1.593   3.945  12.054
 3322SOL    HW110862   1.509   3.944  12.108
 3322SOL    HW210863   1.595   4.028  11.998
 3323SOL     OW10864   0.019   4.092  13.681
 3323SOL    HW110865  -0.063   4.135  13.720
 3323SOL    HW210866  -0.009   4.019  13.618
 3324SOL     OW10867   1.755   4.331  13.265
 3324SOL    HW110868   1.743   4.318  13.166
 3324SOL    HW210869   1.725   4.250  13.314
 3325SOL     OW10870   1.603   4.171  13.771
 3325SOL    HW110871   1.529   4.217  13.721
 3325SOL    HW210872   1.654   4.239  13.824
 3326SOL     OW10873   0.809   3.728  13.536
 3326SOL    HW110874   0.849   3.819  13.527
 3326SOL    HW210875   0.709   3.736  13.542
 3327SOL     OW10876   1.400   3.831  13.460
 3327SOL    HW110877   1.376   3.794  13.370
 3327SOL    HW210878   1.499   3.847  13.464
 3328SOL     OW10879   0.614   3.846  13.151
 3328SOL    HW110880   0.712   3.824  13.158
 3328SOL    HW210881   0.583   3.829  13.058
 3329SOL     OW10882   0.539   3.788  13.546
 3329SOL    HW110883   0.458   3.789  13.604
 3329SOL    HW210884   0.542   3.871  13.491
 3330SOL     OW10885   0.297   3.759  13.205
 3330SOL    HW110886   0.346   3.843  13.184
 3330SOL    HW210887   0.359   3.694  13.250
 3331SOL     OW10888   1.017   3.763  13.787
 3331SOL    HW110889   0.945   3.768  13.718
 3331SOL    HW210890   0.993   3.694  13.856
 3332SOL     OW10891   1.540   3.998  13.159
 3332SOL    HW110892   1.479   3.923  13.182
 3332SOL    HW210893   1.562   4.050  13.242
 3333SOL     OW10894   0.903   3.810  13.167
 3333SOL    HW110895   0.954   3.811  13.081
 3333SOL    HW210896   0.959   3.768  13.238
 3334SOL     OW10897   1.726   3.859  13.557
 3334SOL    HW110898   1.799   3.842  13.490
 3334SOL    HW210899   1.695   3.772  13.595
 3335SOL     OW10900   1.841   3.899  13.997
 3335SOL    HW110901   1.880   3.814  13.961
 3335SOL    HW210902   1.743   3.901  13.978
 3336SOL     OW10903   0.075   4.069  13.067
 3336SOL    HW110904  -0.017   4.041  13.038
 3336SOL    HW210905   0.106   4.146  13.011
 3337SOL     OW10906   0.072   3.890  13.352
 3337SOL    HW110907   0.055   3.973  13.298
 3337SOL    HW210908   0.162   3.853  13.330
 3338SOL     OW10909   1.225   4.049  13.483
 3338SOL    HW110910   1.290   3.975  13.472
 3338SOL    HW210911   1.245   4.099  13.567
 3339SOL     OW10912   1.352   3.776  13.202
 3339SOL    HW110913   1.387   3.735  13.118
 3339SOL    HW210914   1.262   3.738  13.222
 3340SOL     OW10915   1.300   4.177  13.725
 3340SOL    HW110916   1.241   4.257  13.729
 3340SOL    HW210917   1.315   4.142  13.818
 3341SOL     OW10918   2.092   0.628   0.113
 3341SOL    HW110919   1.999   0.626   0.150
 3341SOL    HW210920   2.093   0.589   0.021
 3342SOL     OW10921   2.087   0.275   0.996
 3342SOL    HW110922   2.122   0.258   1.088
 3342SOL    HW210923   1.999   0.230   0.984
 3343SOL     OW10924   1.881   0.368   0.647
 3343SOL    HW110925   1.799   0.411   0.686
 3343SOL    HW210926   1.853   0.295   0.584
 3344SOL     OW10927   2.431   1.275   1.165
 3344SOL    HW110928   2.338   1.268   1.128
 3344SOL    HW210929   2.442   1.364   1.209
 3345SOL     OW10930   3.417   1.511   0.703
 3345SOL    HW110931   3.360   1.495   0.784
 3345SOL    HW210932   3.358   1.521   0.623
 3346SOL     OW10933   2.997   0.703   0.717
 3346SOL    HW110934   3.054   0.781   0.692
 3346SOL    HW210935   2.937   0.729   0.793
 3347SOL     OW10936   3.617   0.607   0.231
 3347SOL    HW110937   3.605   0.594   0.132
 3347SOL    HW210938   3.587   0.526   0.280
 3348SOL     OW10939   2.630   1.144   1.023
 3348SOL    HW110940   2.552   1.161   1.083
 3348SOL    HW210941   2.664   1.231   0.987
 3349SOL     OW10942   2.712   0.798   1.823
 3349SOL    HW110943   2.708   0.874   1.888
 3349SOL    HW210944   2.734   0.834   1.732
 3350SOL     OW10945   2.547   1.012   0.665
 3350SOL    HW110946   2.616   0.996   0.735
 3350SOL    HW210947   2.474   1.069   0.703
 3351SOL     OW10948   2.548   1.161   1.803
 3351SOL    HW110949   2.608   1.240   1.817
 3351SOL    HW210950   2.462   1.192   1.762
 3352SOL     OW10951   2.197   1.435   1.061
 3352SOL    HW110952   2.119   1.404   1.008
 3352SOL    HW210953   2.255   1.493   1.004
 3353SOL     OW10954   3.322   1.505   1.339
 3353SOL    HW110955   3.346   1.599   1.365
 3353SOL    HW210956   3.306   1.451   1.421
 3354SOL     OW10957   2.300   0.392   1.499
 3354SOL    HW110958   2.382   0.336   1.508
 3354SOL    HW210959   2.219   0.334   1.503
 3355SOL     OW10960   3.465   0.447   0.737
 3355SOL    HW110961   3.391   0.493   0.687
 3355SOL    HW210962   3.516   0.515   0.790
 3356SOL     OW10963   2.093   1.713   0.483
 3356SOL    HW110964   2.127   1.790   0.537
 3356SOL    HW210965   2.137   1.713   0.393
 3357SOL     OW10966   2.989   1.341   1.690
 3357SOL    HW110967   3.036   1.341   1.778
 3357SOL    HW210968   2.941   1.254   1.679
 3358SOL     OW10969   2.092   1.434   0.538
 3358SOL    HW110970   2.066   1.530   0.538
 3358SOL    HW210971   2.021   1.380   0.583
 3359SOL     OW10972   2.102   1.091   0.886
 3359SOL    HW110973   2.116   1.007   0.938
 3359SOL    HW210974   2.047   1.155   0.941
 3360SOL     OW10975   2.482   1.786   1.439
 3360SOL    HW110976   2.390   1.769   1.474
 3360SOL    HW210977   2.510   1.878   1.465
 3361SOL     OW10978   2.468   0.964   0.123
 3361SOL    HW110979   2.475   1.048   0.069
 3361SOL    HW210980   2.514   0.977   0.211
 3362SOL     OW10981   3.456   0.114   1.480
 3362SOL    HW110982   3.438   0.181   1.408
 3362SOL    HW210983   3.453   0.160   1.569
 3363SOL     OW10984   1.984   0.643   0.563
 3363SOL    HW110985   1.939   0.555   0.580
 3363SOL    HW210986   1.983   0.697   0.647
 3364SOL     OW10987   3.704   1.767   0.359
 3364SOL    HW110988   3.758   1.738   0.439
 3364SOL    HW210989   3.734   1.857   0.330
 3365SOL     OW10990   1.889   1.596   0.117
 3365SOL    HW110991   1.870   1.500   0.138
 3365SOL    HW210992   1.856   1.654   0.192
 3366SOL     OW10993   3.551   0.922   0.612
 3366SOL    HW110994   3.646   0.893   0.620
 3366SOL    HW210995   3.543   0.987   0.537
 3367SOL     OW10996   3.503   1.108   0.432
 3367SOL    HW110997   3.589   1.110   0.380
 3367SOL    HW210998   3.517   1.155   0.520
 3368SOL     OW10999   1.975   0.737   1.597
 3368SOL    HW111000   2.063   0.724   1.642
 3368SOL    HW211001   1.962   0.834   1.575
 3369SOL     OW11002   2.475   1.365   0.726
 3369SOL    HW111003   2.426   1.278   0.735
 3369SOL    HW211004   2.452   1.408   0.639
 3370SOL     OW11005   3.155   1.228   1.423
 3370SOL    HW111006   3.192   1.155   1.365
 3370SOL    HW211007   3.207   1.233   1.508
 3371SOL     OW11008   2.671   0.004   0.502
 3371SOL    HW111009   2.711   0.095   0.493
 3371SOL    HW211010   2.571   0.012   0.508
 3372SOL     OW11011   2.059   0.976   1.264
 3372SOL    HW111012   2.148   0.931   1.250
 3372SOL    HW211013   1.986   0.911   1.245
 3373SOL     OW11014   3.387   0.999   0.190
 3373SOL    HW111015   3.324   0.923   0.203
 3373SOL    HW211016   3.435   1.017   0.276
 3374SOL     OW11017   3.049   1.792   1.616
 3374SOL    HW111018   3.073   1.852   1.540
 3374SOL    HW211019   3.056   1.697   1.586
 3375SOL     OW11020   2.179   0.251   1.801
 3375SOL    HW111021   2.250   0.322   1.807
 3375SOL    HW211022   2.091   0.290   1.829
 3376SOL     OW11023   3.328   1.417   0.953
 3376SOL    HW111024   3.269   1.423   1.033
 3376SOL    HW211025   3.313   1.329   0.907
 3377SOL     OW11026   3.529   1.714   0.572
 3377SOL    HW111027   3.488   1.691   0.484
 3377SOL    HW211028   3.511   1.640   0.637
 3378SOL     OW11029   2.460   0.729   0.270
 3378SOL    HW111030   2.484   0.798   0.202
 3378SOL    HW211031   2.382   0.762   0.324
 3379SOL     OW11032   3.143   0.345   0.944
 3379SOL    HW111033   3.057   0.295   0.931
 3379SOL    HW211034   3.205   0.291   1.000
 3380SOL     OW11035   3.438   1.662   0.307
 3380SOL    HW111036   3.527   1.708   0.310
 3380SOL    HW211037   3.417   1.638   0.212
 3381SOL     OW11038   2.669   0.605   1.465
 3381SOL    HW111039   2.622   0.602   1.554
 3381SOL    HW211040   2.618   0.550   1.399
 3382SOL     OW11041   3.256   0.469   1.674
 3382SOL    HW111042   3.236   0.512   1.762
 3382SOL    HW211043   3.334   0.407   1.683
 3383SOL     OW11044   2.835   0.890   1.572
 3383SOL    HW111045   2.881   0.806   1.543
 3383SOL    HW211046   2.779   0.924   1.497
 3384SOL     OW11047   2.853   0.410   1.242
 3384SOL    HW111048   2.776   0.444   1.296
 3384SOL    HW211049   2.819   0.359   1.163
 3385SOL     OW11050   2.903   0.701   0.429
 3385SOL    HW111051   2.929   0.697   0.525
 3385SOL    HW211052   2.818   0.650   0.415
 3386SOL     OW11053   1.938   0.811   0.789
 3386SOL    HW111054   2.037   0.799   0.798
 3386SOL    HW211055   1.914   0.906   0.810
 3387SOL     OW11056   2.727   0.348   0.195
 3387SOL    HW111057   2.786   0.411   0.146
 3387SOL    HW211058   2.746   0.254   0.166
 3388SOL     OW11059   3.581   0.585   1.831
 3388SOL    HW111060   3.555   0.674   1.795
 3388SOL    HW211061   3.579   0.517   1.758
 3389SOL     OW11062   3.224   1.144   0.545
 3389SOL    HW111063   3.307   1.115   0.497
 3389SOL    HW211064   3.175   1.211   0.489
 3390SOL     OW11065   2.412   0.196   0.885
 3390SOL    HW111066   2.407   0.191   0.985
 3390SOL    HW211067   2.414   0.292   0.856
 3391SOL     OW11068   2.870   1.456   0.477
 3391SOL    HW111069   2.824   1.528   0.425
 3391SOL    HW211070   2.866   1.476   0.575
 3392SOL     OW11071   2.213   1.801   0.853
 3392SOL    HW111072   2.263   1.715   0.859
 3392SOL    HW211073   2.278   1.878   0.850
 3393SOL     OW11074   3.657   1.066   0.873
 3393SOL    HW111075   3.595   1.051   0.797
 3393SOL    HW211076   3.605   1.077   0.958
 3394SOL     OW11077   3.089   1.550   1.506
 3394SOL    HW111078   3.095   1.473   1.570
 3394SOL    HW211079   3.037   1.524   1.426
 3395SOL     OW11080   2.183   0.943   0.242
 3395SOL    HW111081   2.265   0.982   0.200
 3395SOL    HW211082   2.156   0.861   0.193
 3396SOL     OW11083   3.320   0.735   0.728
 3396SOL    HW111084   3.315   0.670   0.803
 3396SOL    HW211085   3.400   0.794   0.741
 3397SOL     OW11086   2.323   1.266   1.727
 3397SOL    HW111087   2.273   1.267   1.641
 3397SOL    HW211088   2.260   1.248   1.803
 3398SOL     OW11089   2.973   1.776   0.237
 3398SOL    HW111090   2.913   1.714   0.287
 3398SOL    HW211091   3.004   1.732   0.152
 3399SOL     OW11092   2.064   0.285   1.498
 3399SOL    HW111093   1.984   0.345   1.485
 3399SOL    HW211094   2.054   0.236   1.584
 3400SOL     OW11095   3.494   1.377   0.081
 3400SOL    HW111096   3.462   1.471   0.071
 3400SOL    HW211097   3.418   1.314   0.069
 3401SOL     OW11098   2.326   1.743   0.323
 3401SOL    HW111099   2.359   1.782   0.409
 3401SOL    HW211100   2.402   1.736   0.258
 3402SOL     OW11101   3.262   0.107   0.426
 3402SOL    HW111102   3.238   0.070   0.336
 3402SOL    HW211103   3.361   0.123   0.430
 3403SOL     OW11104   2.111   1.785   1.241
 3403SOL    HW111105   2.168   1.720   1.291
 3403SOL    HW211106   2.095   1.752   1.148
 3404SOL     OW11107   2.802   1.698   0.904
 3404SOL    HW111108   2.882   1.641   0.925
 3404SOL    HW211109   2.753   1.658   0.827
 3405SOL     OW11110   2.244   0.700   0.480
 3405SOL    HW111111   2.289   0.610   0.477
 3405SOL    HW211112   2.150   0.689   0.513
 3406SOL     OW11113   3.409   0.222   1.729
 3406SOL    HW111114   3.404   0.259   1.821
 3406SOL    HW211115   3.337   0.153   1.717
 3407SOL     OW11116   2.476   0.122   0.117
 3407SOL    HW111117   2.574   0.100   0.124
 3407SOL    HW211118   2.445   0.105   0.024
 3408SOL     OW11119   2.643   0.264   1.749
 3408SOL    HW111120   2.710   0.203   1.792
 3408SOL    HW211121   2.570   0.283   1.814
 3409SOL     OW11122   2.750   1.514   1.195
 3409SOL    HW111123   2.727   1.489   1.101
 3409SOL    HW211124   2.811   1.445   1.234
 3410SOL     OW11125   3.213   0.590   1.433
 3410SOL    HW111126   3.241   0.547   1.518
 3410SOL    HW211127   3.238   0.686   1.434
 3411SOL     OW11128   2.665   1.402   0.924
 3411SOL    HW111129   2.755   1.416   0.882
 3411SOL    HW211130   2.594   1.404   0.853
 3412SOL     OW11131   2.784   0.503   0.899
 3412SOL    HW111132   2.759   0.494   0.803
 3412SOL    HW211133   2.832   0.421   0.930
 3413SOL     OW11134   2.401   0.064   0.512
 3413SOL    HW111135   2.320   0.065   0.570
 3413SOL    HW211136   2.404   0.147   0.457
 3414SOL     OW11137   3.296   1.188   0.041
 3414SOL    HW111138   3.328   1.112   0.098
 3414SOL    HW211139   3.204   1.215   0.071
 3415SOL     OW11140   2.159   0.035   0.171
 3415SOL    HW111141   2.208   0.119   0.150
 3415SOL    HW211142   2.221  -0.030   0.216
 3416SOL     OW11143   2.797   0.236   0.480
 3416SOL    HW111144   2.749   0.277   0.402
 3416SOL    HW211145   2.896   0.234   0.461
 3417SOL     OW11146   2.938   0.683   1.464
 3417SOL    HW111147   2.858   0.622   1.467
 3417SOL    HW211148   3.019   0.630   1.440
 3418SOL     OW11149   3.089   1.570   0.793
 3418SOL    HW111150   3.110   1.644   0.728
 3418SOL    HW211151   3.157   1.570   0.866
 3419SOL     OW11152   2.321   1.152   0.741
 3419SOL    HW111153   2.250   1.125   0.806
 3419SOL    HW211154   2.295   1.124   0.648
 3420SOL     OW11155   3.133   1.797   0.591
 3420SOL    HW111156   3.177   1.861   0.527
 3420SOL    HW211157   3.083   1.849   0.661
 3421SOL     OW11158   2.894   0.549   0.016
 3421SOL    HW111159   2.853   0.631  -0.023
 3421SOL    HW211160   2.958   0.575   0.089
 3422SOL     OW11161   1.940   0.556   1.386
 3422SOL    HW111162   2.032   0.555   1.345
 3422SOL    HW211163   1.934   0.630   1.453
 3423SOL     OW11164   2.423   0.222   1.147
 3423SOL    HW111165   2.461   0.138   1.184
 3423SOL    HW211166   2.335   0.241   1.191
 3424SOL     OW11167   2.728   0.454   0.642
 3424SOL    HW111168   2.696   0.526   0.580
 3424SOL    HW211169   2.752   0.373   0.589
 3425SOL     OW11170   2.879   0.039   0.753
 3425SOL    HW111171   2.807   0.044   0.684
 3425SOL    HW211172   2.855  -0.030   0.822
 3426SOL     OW11173   3.291   1.173   0.867
 3426SOL    HW111174   3.236   1.089   0.860
 3426SOL    HW211175   3.317   1.202   0.775
 3427SOL     OW11176   3.328   0.590   0.992
 3427SOL    HW111177   3.298   0.495   0.999
 3427SOL    HW211178   3.401   0.606   1.058
 3428SOL     OW11179   3.719   0.833   0.377
 3428SOL    HW111180   3.761   0.769   0.441
 3428SOL    HW211181   3.681   0.782   0.299
 3429SOL     OW11182   2.350   1.385   0.174
 3429SOL    HW111183   2.263   1.370   0.221
 3429SOL    HW211184   2.333   1.411   0.079
 3430SOL     OW11185   3.526   1.280   0.657
 3430SOL    HW111186   3.625   1.288   0.671
 3430SOL    HW211187   3.481   1.364   0.688
 3431SOL     OW11188   3.252   0.575   0.078
 3431SOL    HW111189   3.198   0.554   0.159
 3431SOL    HW211190   3.343   0.534   0.087
 3432SOL     OW11191   2.389   0.256   0.328
 3432SOL    HW111192   2.416   0.197   0.253
 3432SOL    HW211193   2.389   0.351   0.297
 3433SOL     OW11194   3.616   1.223   1.588
 3433SOL    HW111195   3.707   1.184   1.575
 3433SOL    HW211196   3.624   1.319   1.612
 3434SOL     OW11197   2.926   1.347   1.340
 3434SOL    HW111198   2.846   1.324   1.395
 3434SOL    HW211199   3.009   1.321   1.389
 3435SOL     OW11200   3.454   1.629   1.625
 3435SOL    HW111201   3.481   1.663   1.535
 3435SOL    HW211202   3.533   1.591   1.671
 3436SOL     OW11203   2.973   1.195   1.100
 3436SOL    HW111204   2.933   1.239   1.181
 3436SOL    HW211205   2.932   1.232   1.017
 3437SOL     OW11206   3.500   1.099   1.079
 3437SOL    HW111207   3.505   1.180   1.138
 3437SOL    HW211208   3.414   1.101   1.028
 3438SOL     OW11209   2.777   0.089   1.402
 3438SOL    HW111210   2.802   0.069   1.307
 3438SOL    HW211211   2.849   0.145   1.444
 3439SOL     OW11212   2.842   1.116   1.719
 3439SOL    HW111213   2.743   1.122   1.729
 3439SOL    HW211214   2.865   1.036   1.663
 3440SOL     OW11215   2.567   1.050   0.368
 3440SOL    HW111216   2.553   1.057   0.467
 3440SOL    HW211217   2.651   0.999   0.350
 3441SOL     OW11218   2.272   0.813   1.251
 3441SOL    HW111219   2.358   0.825   1.301
 3441SOL    HW211220   2.230   0.726   1.278
 3442SOL     OW11221   3.136   0.386   1.262
 3442SOL    HW111222   3.157   0.460   1.326
 3442SOL    HW211223   3.047   0.403   1.219
 3443SOL     OW11224   2.229   1.100   0.501
 3443SOL    HW111225   2.222   1.183   0.445
 3443SOL    HW211226   2.233   1.020   0.441
 3444SOL     OW11227   2.428   0.537   0.865
 3444SOL    HW111228   2.440   0.603   0.791
 3444SOL    HW211229   2.474   0.571   0.948
 3445SOL     OW11230   3.114   1.348   0.388
 3445SOL    HW111231   3.164   1.425   0.428
 3445SOL    HW211232   3.019   1.350   0.420
 3446SOL     OW11233   3.134   1.445   1.142
 3446SOL    HW111234   3.181   1.458   1.229
 3446SOL    HW211235   3.068   1.371   1.151
 3447SOL     OW11236   3.444   0.639   0.472
 3447SOL    HW111237   3.413   0.700   0.545
 3447SOL    HW211238   3.494   0.691   0.403
 3448SOL     OW11239   2.216   1.510   1.329
 3448SOL    HW111240   2.195   1.466   1.242
 3448SOL    HW211241   2.313   1.536   1.332
 3449SOL     OW11242   2.264   0.751   1.598
 3449SOL    HW111243   2.332   0.806   1.551
 3449SOL    HW211244   2.304   0.663   1.625
 3450SOL     OW11245   3.449   0.779   1.670
 3450SOL    HW111246   3.357   0.817   1.665
 3450SOL    HW211247   3.509   0.826   1.605
 3451SOL     OW11248   2.875   0.105   1.770
 3451SOL    HW111249   2.881   0.190   1.718
 3451SOL    HW211250   2.907   0.029   1.713
 3452SOL     OW11251   2.366   0.050   1.740
 3452SOL    HW111252   2.324  -0.007   1.670
 3452SOL    HW211253   2.300   0.119   1.772
 3453SOL     OW11254   2.435   0.870   1.029
 3453SOL    HW111255   2.479   0.959   1.020
 3453SOL    HW211256   2.372   0.870   1.106
 3454SOL     OW11257   3.222   0.862   1.045
 3454SOL    HW111258   3.147   0.862   0.979
 3454SOL    HW211259   3.259   0.770   1.054
 3455SOL     OW11260   3.071   0.525   0.275
 3455SOL    HW111261   3.084   0.441   0.329
 3455SOL    HW211262   3.042   0.599   0.335
 3456SOL     OW11263   2.169   0.213   1.231
 3456SOL    HW111264   2.146   0.250   1.321
 3456SOL    HW211265   2.139   0.118   1.225
 3457SOL     OW11266   1.899   1.310   1.282
 3457SOL    HW111267   1.952   1.261   1.350
 3457SOL    HW211268   1.921   1.408   1.287
 3458SOL     OW11269   2.594   0.634   1.064
 3458SOL    HW111270   2.653   0.608   0.988
 3458SOL    HW211271   2.566   0.730   1.053
 3459SOL     OW11272   3.590   0.935   1.854
 3459SOL    HW111273   3.544   0.928   1.765
 3459SOL    HW211274   3.528   0.979   1.920
 3460SOL     OW11275   2.169   0.063   0.618
 3460SOL    HW111276   2.158   0.157   0.651
 3460SOL    HW211277   2.164   0.000   0.695
 3461SOL     OW11278   3.484   0.367   0.374
 3461SOL    HW111279   3.486   0.291   0.438
 3461SOL    HW211280   3.436   0.444   0.414
 3462SOL     OW11281   2.885   0.766   0.966
 3462SOL    HW111282   2.900   0.787   1.062
 3462SOL    HW211283   2.855   0.671   0.957
 3463SOL     OW11284   2.842   1.573   1.700
 3463SOL    HW111285   2.822   1.617   1.612
 3463SOL    HW211286   2.881   1.482   1.684
 3464SOL     OW11287   3.721   1.518   1.605
 3464SOL    HW111288   3.735   1.545   1.510
 3464SOL    HW211289   3.804   1.540   1.658
 3465SOL     OW11290   2.212   0.898   1.804
 3465SOL    HW111291   2.288   0.942   1.852
 3465SOL    HW211292   2.247   0.851   1.722
 3466SOL     OW11293   3.402   0.274   0.125
 3466SOL    HW111294   3.341   0.199   0.148
 3466SOL    HW211295   3.424   0.326   0.208
 3467SOL     OW11296   3.165   0.838   0.042
 3467SOL    HW111297   3.199   0.745   0.057
 3467SOL    HW211298   3.183   0.865  -0.053
 3468SOL     OW11299   2.930   1.333   0.849
 3468SOL    HW111300   2.937   1.249   0.794
 3468SOL    HW211301   2.992   1.402   0.813
 3469SOL     OW11302   2.181   0.810   0.949
 3469SOL    HW111303   2.274   0.846   0.954
 3469SOL    HW211304   2.175   0.725   1.001
 3470SOL     OW11305   2.201   0.509   1.006
 3470SOL    HW111306   2.149   0.426   0.989
 3470SOL    HW211307   2.278   0.514   0.942
 3471SOL     OW11308   3.000   0.380   1.678
 3471SOL    HW111309   2.955   0.443   1.742
 3471SOL    HW211310   3.093   0.411   1.661
 3472SOL     OW11311   3.022   0.207   1.477
 3472SOL    HW111312   3.022   0.271   1.554
 3472SOL    HW211313   3.050   0.255   1.394
 3473SOL     OW11314   1.870   1.326   0.200
 3473SOL    HW111315   1.777   1.347   0.169
 3473SOL    HW211316   1.880   1.227   0.213
 3474SOL     OW11317   2.366   1.568   0.910
 3474SOL    HW111318   2.432   1.642   0.919
 3474SOL    HW211319   2.410   1.489   0.868
 3475SOL     OW11320   2.864   0.796   1.238
 3475SOL    HW111321   2.905   0.764   1.324
 3475SOL    HW211322   2.768   0.769   1.235
 3476SOL     OW11323   1.902   0.544   1.114
 3476SOL    HW111324   1.987   0.511   1.073
 3476SOL    HW211325   1.915   0.559   1.212
 3477SOL     OW11326   2.051   0.520   1.722
 3477SOL    HW111327   2.110   0.480   1.652
 3477SOL    HW211328   1.993   0.591   1.681
 3478SOL     OW11329   3.231   0.950   1.660
 3478SOL    HW111330   3.270   1.039   1.680
 3478SOL    HW211331   3.241   0.930   1.563
 3479SOL     OW11332   2.677   0.572   0.325
 3479SOL    HW111333   2.684   0.483   0.279
 3479SOL    HW211334   2.583   0.606   0.317
 3480SOL     OW11335   3.519   0.604   1.206
 3480SOL    HW111336   3.481   0.535   1.268
 3480SOL    HW211337   3.601   0.568   1.162
 3481SOL     OW11338   2.114   1.564   1.744
 3481SOL    HW111339   2.084   1.621   1.820
 3481SOL    HW211340   2.107   1.467   1.770
 3482SOL     OW11341   2.533   0.464   1.269
 3482SOL    HW111342   2.499   0.375   1.239
 3482SOL    HW211343   2.559   0.518   1.189
 3483SOL     OW11344   2.792   1.678   1.465
 3483SOL    HW111345   2.768   1.660   1.370
 3483SOL    HW211346   2.822   1.772   1.475
 3484SOL     OW11347   2.335   0.500   0.191
 3484SOL    HW111348   2.396   0.580   0.195
 3484SOL    HW211349   2.240   0.531   0.198
 3485SOL     OW11350   2.021   1.137   1.466
 3485SOL    HW111351   2.043   1.076   1.542
 3485SOL    HW211352   2.031   1.088   1.380
 3486SOL     OW11353   3.209   1.059   1.234
 3486SOL    HW111354   3.233   0.996   1.160
 3486SOL    HW211355   3.119   1.099   1.216
 3487SOL     OW11356   3.164   0.855   0.309
 3487SOL    HW111357   3.078   0.824   0.351
 3487SOL    HW211358   3.160   0.841   0.210
 3488SOL     OW11359   3.621   1.747   1.154
 3488SOL    HW111360   3.682   1.777   1.081
 3488SOL    HW211361   3.583   1.658   1.132
 3489SOL     OW11362   3.114   1.731   1.128
 3489SOL    HW111363   3.198   1.736   1.074
 3489SOL    HW211364   3.091   1.635   1.146
 3490SOL     OW11365   1.945   1.258   1.022
 3490SOL    HW111366   1.940   1.257   1.122
 3490SOL    HW211367   1.862   1.217   0.984
 3491SOL     OW11368   2.550   1.662   1.716
 3491SOL    HW111369   2.494   1.743   1.725
 3491SOL    HW211370   2.602   1.666   1.630
 3492SOL     OW11371   2.765   0.086   0.133
 3492SOL    HW111372   2.816   0.087   0.047
 3492SOL    HW211373   2.821   0.044   0.204
 3493SOL     OW11374   3.588   0.135   0.523
 3493SOL    HW111375   3.661   0.118   0.456
 3493SOL    HW211376   3.557   0.048   0.561
 3494SOL     OW11377   3.250   1.573   0.477
 3494SOL    HW111378   3.317   1.585   0.403
 3494SOL    HW211379   3.210   1.662   0.500
 3495SOL     OW11380   3.142   0.927   0.672
 3495SOL    HW111381   3.202   0.846   0.674
 3495SOL    HW211382   3.182   0.996   0.612
 3496SOL     OW11383   2.692   1.273   1.422
 3496SOL    HW111384   2.687   1.306   1.517
 3496SOL    HW211385   2.606   1.292   1.376
 3497SOL     OW11386   2.534   1.616   0.154
 3497SOL    HW111387   2.543   1.626   0.055
 3497SOL    HW211388   2.494   1.527   0.175
 3498SOL     OW11389   3.512   1.720   1.394
 3498SOL    HW111390   3.565   1.730   1.310
 3498SOL    HW211391   3.485   1.810   1.428
 3499SOL     OW11392   3.703   0.175   0.963
 3499SOL    HW111393   3.742   0.090   0.927
 3499SOL    HW211394   3.605   0.177   0.944
 3500SOL     OW11395   2.125   0.326   0.720
 3500SOL    HW111396   2.046   0.377   0.686
 3500SOL    HW211397   2.116   0.311   0.818
 3501SOL     OW11398   3.056   1.612   0.031
 3501SOL    HW111399   3.062   1.519   0.068
 3501SOL    HW211400   2.997   1.612  -0.049
 3502SOL     OW11401   2.684   1.002   1.372
 3502SOL    HW111402   2.724   1.001   1.280
 3502SOL    HW211403   2.694   1.094   1.412
 3503SOL     OW11404   2.778   0.910   0.291
 3503SOL    HW111405   2.841   0.948   0.223
 3503SOL    HW211406   2.818   0.827   0.330
 3504SOL     OW11407   3.366   1.607   0.044
 3504SOL    HW111408   3.274   1.644   0.051
 3504SOL    HW211409   3.404   1.627  -0.046
 3505SOL     OW11410   2.234   1.288   1.490
 3505SOL    HW111411   2.221   1.381   1.456
 3505SOL    HW211412   2.150   1.236   1.477
 3506SOL     OW11413   3.476   1.292   1.289
 3506SOL    HW111414   3.536   1.295   1.369
 3506SOL    HW211415   3.401   1.356   1.302
 3507SOL     OW11416   2.901   1.098   0.696
 3507SOL    HW111417   2.831   1.051   0.750
 3507SOL    HW211418   2.960   1.030   0.653
 3508SOL     OW11419   2.876   0.236   0.971
 3508SOL    HW111420   2.868   0.200   0.878
 3508SOL    HW211421   2.874   0.160   1.036
 3509SOL     OW11422   2.452   1.487   0.491
 3509SOL    HW111423   2.494   1.429   0.421
 3509SOL    HW211424   2.408   1.566   0.447
 3510SOL     OW11425   3.571   0.385   1.381
 3510SOL    HW111426   3.644   0.454   1.385
 3510SOL    HW211427   3.599   0.310   1.322
 3511SOL     OW11428   2.117   1.348   0.290
 3511SOL    HW111429   2.021   1.349   0.263
 3511SOL    HW211430   2.129   1.401   0.374
 3512SOL     OW11431   1.967   1.013   1.726
 3512SOL    HW111432   1.890   0.980   1.780
 3512SOL    HW211433   2.052   0.983   1.768
 3513SOL     OW11434   2.534   0.203   1.489
 3513SOL    HW111435   2.624   0.187   1.449
 3513SOL    HW211436   2.542   0.208   1.588
 3514SOL     OW11437   1.937   0.345   0.033
 3514SOL    HW111438   1.845   0.317   0.004
 3514SOL    HW211439   1.968   0.422  -0.023
 3515SOL     OW11440   3.302   0.856   1.398
 3515SOL    HW111441   3.245   0.908   1.335
 3515SOL    HW211442   3.398   0.868   1.374
 3516SOL     OW11443   1.934   0.166   0.318
 3516SOL    HW111444   1.917   0.249   0.264
 3516SOL    HW211445   2.024   0.129   0.296
 3517SOL     OW11446   3.045   1.335   0.119
 3517SOL    HW111447   2.946   1.324   0.121
 3517SOL    HW211448   3.079   1.350   0.212
 3518SOL     OW11449   2.475   0.842   1.431
 3518SOL    HW111450   2.531   0.923   1.414
 3518SOL    HW211451   2.534   0.762   1.434
 3519SOL     OW11452   3.355   1.767   0.959
 3519SOL    HW111453   3.388   1.831   0.890
 3519SOL    HW211454   3.421   1.761   1.034
 3520SOL     OW11455   2.578   0.565   1.708
 3520SOL    HW111456   2.597   0.630   1.782
 3520SOL    HW211457   2.638   0.485   1.717
 3521SOL     OW11458   3.312   1.220   1.633
 3521SOL    HW111459   3.303   1.210   1.732
 3521SOL    HW211460   3.408   1.213   1.607
 3522SOL     OW11461   2.252   1.741   1.560
 3522SOL    HW111462   2.161   1.782   1.558
 3522SOL    HW211463   2.245   1.647   1.592
 3523SOL     OW11464   3.536   0.883   1.254
 3523SOL    HW111465   3.509   0.794   1.217
 3523SOL    HW211466   3.537   0.951   1.181
 3524SOL     OW11467   3.087   0.325   0.449
 3524SOL    HW111468   3.152   0.251   0.438
 3524SOL    HW211469   3.107   0.375   0.533
 3525SOL     OW11470   2.456   0.745   0.652
 3525SOL    HW111471   2.506   0.830   0.633
 3525SOL    HW211472   2.368   0.747   0.604
 3526SOL     OW11473   3.639   0.342   1.642
 3526SOL    HW111474   3.622   0.373   1.548
 3526SOL    HW211475   3.555   0.305   1.680
 3527SOL     OW11476   3.592   0.934   1.517
 3527SOL    HW111477   3.630   1.025   1.532
 3527SOL    HW211478   3.584   0.917   1.418
 3528SOL     OW11479   2.721   1.374   0.016
 3528SOL    HW111480   2.675   1.389   0.104
 3528SOL    HW211481   2.765   1.459  -0.014
 3529SOL     OW11482   2.523   1.790   0.953
 3529SOL    HW111483   2.477   1.878   0.940
 3529SOL    HW211484   2.622   1.802   0.946
 3530SOL     OW11485   2.721   0.956   0.861
 3530SOL    HW111486   2.775   0.887   0.909
 3530SOL    HW211487   2.689   1.025   0.927
 3531SOL     OW11488   2.945   0.984   0.087
 3531SOL    HW111489   2.922   1.037   0.005
 3531SOL    HW211490   3.026   0.928   0.068
 3532SOL     OW11491   3.723   1.569   0.851
 3532SOL    HW111492   3.652   1.557   0.781
 3532SOL    HW211493   3.724   1.490   0.911
 3533SOL     OW11494   2.083   1.314   1.844
 3533SOL    HW111495   2.018   1.241   1.823
 3533SOL    HW211496   2.087   1.328   1.942
 3534SOL     OW11497   1.941   1.240   0.653
 3534SOL    HW111498   1.940   1.193   0.741
 3534SOL    HW211499   2.023   1.212   0.602
 3535SOL     OW11500   2.534   1.391   1.624
 3535SOL    HW111501   2.456   1.341   1.662
 3535SOL    HW211502   2.531   1.486   1.655
 3536SOL     OW11503   3.686   0.192   1.227
 3536SOL    HW111504   3.682   0.102   1.271
 3536SOL    HW211505   3.689   0.181   1.128
 3537SOL     OW11506   2.290   0.424   0.520
 3537SOL    HW111507   2.320   0.352   0.458
 3537SOL    HW211508   2.251   0.384   0.603
 3538SOL     OW11509   3.567   1.487   1.104
 3538SOL    HW111510   3.474   1.462   1.077
 3538SOL    HW211511   3.593   1.437   1.186
 3539SOL     OW11512   2.179   0.547   1.280
 3539SOL    HW111513   2.217   0.488   1.352
 3539SOL    HW211514   2.219   0.521   1.192
 3540SOL     OW11515   2.674   1.586   0.687
 3540SOL    HW111516   2.706   1.596   0.593
 3540SOL    HW211517   2.595   1.524   0.689
 3541SOL     OW11518   3.286   0.214   1.112
 3541SOL    HW111519   3.338   0.149   1.167
 3541SOL    HW211520   3.237   0.277   1.173
 3542SOL     OW11521   2.863   0.034   1.154
 3542SOL    HW111522   2.800  -0.038   1.123
 3542SOL    HW211523   2.956  -0.002   1.154
 3543SOL     OW11524   2.632   1.330   0.301
 3543SOL    HW111525   2.586   1.243   0.318
 3543SOL    HW211526   2.723   1.327   0.342
 3544SOL     OW11527   2.480   1.567   1.284
 3544SOL    HW111528   2.475   1.649   1.341
 3544SOL    HW211529   2.569   1.564   1.239
 3545SOL     OW11530   3.214   0.052   0.168
 3545SOL    HW111531   3.249   0.011   0.084
 3545SOL    HW211532   3.124   0.014   0.188
 3546SOL     OW11533   3.162   0.453   0.691
 3546SOL    HW111534   3.103   0.533   0.695
 3546SOL    HW211535   3.177   0.418   0.784
 3547SOL     OW11536   3.455   0.221   0.882
 3547SOL    HW111537   3.371   0.220   0.936
 3547SOL    HW211538   3.457   0.304   0.826
 3548SOL     OW11539   1.901   1.077   0.300
 3548SOL    HW111540   2.000   1.066   0.291
 3548SOL    HW211541   1.861   0.991   0.332
 3549SOL     OW11542   2.737   1.646   0.337
 3549SOL    HW111543   2.660   1.611   0.283
 3549SOL    HW211544   2.705   1.717   0.399
 3550SOL     OW11545   2.092   0.628   1.975
 3550SOL    HW111546   1.999   0.626   2.012
 3550SOL    HW211547   2.093   0.589   1.883
 3551SOL     OW11548   2.087   0.275   2.858
 3551SOL    HW111549   2.122   0.258   2.950
 3551SOL    HW211550   1.999   0.230   2.846
 3552SOL     OW11551   1.881   0.368   2.509
 3552SOL    HW111552   1.799   0.411   2.548
 3552SOL    HW211553   1.853   0.295   2.446
 3553SOL     OW11554   2.431   1.275   3.027
 3553SOL    HW111555   2.338   1.268   2.990
 3553SOL    HW211556   2.442   1.364   3.071
 3554SOL     OW11557   3.417   1.511   2.565
 3554SOL    HW111558   3.360   1.495   2.646
 3554SOL    HW211559   3.358   1.521   2.485
 3555SOL     OW11560   2.997   0.703   2.579
 3555SOL    HW111561   3.054   0.781   2.554
 3555SOL    HW211562   2.937   0.729   2.655
 3556SOL     OW11563   3.617   0.607   2.093
 3556SOL    HW111564   3.605   0.594   1.994
 3556SOL    HW211565   3.587   0.526   2.142
 3557SOL     OW11566   2.630   1.144   2.885
 3557SOL    HW111567   2.552   1.161   2.945
 3557SOL    HW211568   2.664   1.231   2.849
 3558SOL     OW11569   2.712   0.798   3.685
 3558SOL    HW111570   2.708   0.874   3.750
 3558SOL    HW211571   2.734   0.834   3.594
 3559SOL     OW11572   2.547   1.012   2.527
 3559SOL    HW111573   2.616   0.996   2.597
 3559SOL    HW211574   2.474   1.069   2.565
 3560SOL     OW11575   2.548   1.161   3.665
 3560SOL    HW111576   2.608   1.240   3.679
 3560SOL    HW211577   2.462   1.192   3.624
 3561SOL     OW11578   2.197   1.435   2.923
 3561SOL    HW111579   2.119   1.404   2.870
 3561SOL    HW211580   2.255   1.493   2.866
 3562SOL     OW11581   3.322   1.505   3.201
 3562SOL    HW111582   3.346   1.599   3.227
 3562SOL    HW211583   3.306   1.451   3.283
 3563SOL     OW11584   2.300   0.392   3.361
 3563SOL    HW111585   2.382   0.336   3.370
 3563SOL    HW211586   2.219   0.334   3.365
 3564SOL     OW11587   3.465   0.447   2.599
 3564SOL    HW111588   3.391   0.493   2.549
 3564SOL    HW211589   3.516   0.515   2.652
 3565SOL     OW11590   2.093   1.713   2.345
 3565SOL    HW111591   2.127   1.790   2.399
 3565SOL    HW211592   2.137   1.713   2.255
 3566SOL     OW11593   2.989   1.341   3.552
 3566SOL    HW111594   3.036   1.341   3.640
 3566SOL    HW211595   2.941   1.254   3.541
 3567SOL     OW11596   2.092   1.434   2.400
 3567SOL    HW111597   2.066   1.530   2.400
 3567SOL    HW211598   2.021   1.380   2.445
 3568SOL     OW11599   2.102   1.091   2.748
 3568SOL    HW111600   2.116   1.007   2.800
 3568SOL    HW211601   2.047   1.155   2.803
 3569SOL     OW11602   2.482   1.786   3.301
 3569SOL    HW111603   2.390   1.769   3.336
 3569SOL    HW211604   2.510   1.878   3.327
 3570SOL     OW11605   2.468   0.964   1.985
 3570SOL    HW111606   2.475   1.048   1.931
 3570SOL    HW211607   2.514   0.977   2.073
 3571SOL     OW11608   3.456   0.114   3.342
 3571SOL    HW111609   3.438   0.181   3.270
 3571SOL    HW211610   3.453   0.160   3.431
 3572SOL     OW11611   1.984   0.643   2.425
 3572SOL    HW111612   1.939   0.555   2.442
 3572SOL    HW211613   1.983   0.697   2.509
 3573SOL     OW11614   3.704   1.767   2.221
 3573SOL    HW111615   3.758   1.738   2.301
 3573SOL    HW211616   3.734   1.857   2.192
 3574SOL     OW11617   1.889   1.596   1.979
 3574SOL    HW111618   1.870   1.500   2.000
 3574SOL    HW211619   1.856   1.654   2.054
 3575SOL     OW11620   3.551   0.922   2.474
 3575SOL    HW111621   3.646   0.893   2.482
 3575SOL    HW211622   3.543   0.987   2.399
 3576SOL     OW11623   3.503   1.108   2.294
 3576SOL    HW111624   3.589   1.110   2.242
 3576SOL    HW211625   3.517   1.155   2.382
 3577SOL     OW11626   1.975   0.737   3.459
 3577SOL    HW111627   2.063   0.724   3.504
 3577SOL    HW211628   1.962   0.834   3.437
 3578SOL     OW11629   2.475   1.365   2.588
 3578SOL    HW111630   2.426   1.278   2.597
 3578SOL    HW211631   2.452   1.408   2.501
 3579SOL     OW11632   3.155   1.228   3.285
 3579SOL    HW111633   3.192   1.155   3.227
 3579SOL    HW211634   3.207   1.233   3.370
 3580SOL     OW11635   2.671   0.004   2.364
 3580SOL    HW111636   2.711   0.095   2.355
 3580SOL    HW211637   2.571   0.012   2.370
 3581SOL     OW11638   2.059   0.976   3.126
 3581SOL    HW111639   2.148   0.931   3.112
 3581SOL    HW211640   1.986   0.911   3.107
 3582SOL     OW11641   3.387   0.999   2.052
 3582SOL    HW111642   3.324   0.923   2.065
 3582SOL    HW211643   3.435   1.017   2.138
 3583SOL     OW11644   3.049   1.792   3.478
 3583SOL    HW111645   3.073   1.852   3.402
 3583SOL    HW211646   3.056   1.697   3.448
 3584SOL     OW11647   2.179   0.251   3.663
 3584SOL    HW111648   2.250   0.322   3.669
 3584SOL    HW211649   2.091   0.290   3.691
 3585SOL     OW11650   3.328   1.417   2.815
 3585SOL    HW111651   3.269   1.423   2.895
 3585SOL    HW211652   3.313   1.329   2.769
 3586SOL     OW11653   3.529   1.714   2.434
 3586SOL    HW111654   3.488   1.691   2.346
 3586SOL    HW211655   3.511   1.640   2.499
 3587SOL     OW11656   2.460   0.729   2.132
 3587SOL    HW111657   2.484   0.798   2.064
 3587SOL    HW211658   2.382   0.762   2.186
 3588SOL     OW11659   3.143   0.345   2.806
 3588SOL    HW111660   3.057   0.295   2.793
 3588SOL    HW211661   3.205   0.291   2.862
 3589SOL     OW11662   3.438   1.662   2.169
 3589SOL    HW111663   3.527   1.708   2.172
 3589SOL    HW211664   3.417   1.638   2.074
 3590SOL     OW11665   2.669   0.605   3.327
 3590SOL    HW111666   2.622   0.602   3.416
 3590SOL    HW211667   2.618   0.550   3.261
 3591SOL     OW11668   3.256   0.469   3.536
 3591SOL    HW111669   3.236   0.512   3.624
 3591SOL    HW211670   3.334   0.407   3.545
 3592SOL     OW11671   2.835   0.890   3.434
 3592SOL    HW111672   2.881   0.806   3.405
 3592SOL    HW211673   2.779   0.924   3.359
 3593SOL     OW11674   2.853   0.410   3.104
 3593SOL    HW111675   2.776   0.444   3.158
 3593SOL    HW211676   2.819   0.359   3.025
 3594SOL     OW11677   2.903   0.701   2.291
 3594SOL    HW111678   2.929   0.697   2.387
 3594SOL    HW211679   2.818   0.650   2.277
 3595SOL     OW11680   1.938   0.811   2.651
 3595SOL    HW111681   2.037   0.799   2.660
 3595SOL    HW211682   1.914   0.906   2.672
 3596SOL     OW11683   2.727   0.348   2.057
 3596SOL    HW111684   2.786   0.411   2.008
 3596SOL    HW211685   2.746   0.254   2.028
 3597SOL     OW11686   3.581   0.585   3.693
 3597SOL    HW111687   3.555   0.674   3.657
 3597SOL    HW211688   3.579   0.517   3.620
 3598SOL     OW11689   3.224   1.144   2.407
 3598SOL    HW111690   3.307   1.115   2.359
 3598SOL    HW211691   3.175   1.211   2.351
 3599SOL     OW11692   2.412   0.196   2.747
 3599SOL    HW111693   2.407   0.191   2.847
 3599SOL    HW211694   2.414   0.292   2.718
 3600SOL     OW11695   2.870   1.456   2.339
 3600SOL    HW111696   2.824   1.528   2.287
 3600SOL    HW211697   2.866   1.476   2.437
 3601SOL     OW11698   2.213   1.801   2.715
 3601SOL    HW111699   2.263   1.715   2.721
 3601SOL    HW211700   2.278   1.878   2.712
 3602SOL     OW11701   3.657   1.066   2.735
 3602SOL    HW111702   3.595   1.051   2.659
 3602SOL    HW211703   3.605   1.077   2.820
 3603SOL     OW11704   3.089   1.550   3.368
 3603SOL    HW111705   3.095   1.473   3.432
 3603SOL    HW211706   3.037   1.524   3.288
 3604SOL     OW11707   2.183   0.943   2.104
 3604SOL    HW111708   2.265   0.982   2.062
 3604SOL    HW211709   2.156   0.861   2.055
 3605SOL     OW11710   3.320   0.735   2.590
 3605SOL    HW111711   3.315   0.670   2.665
 3605SOL    HW211712   3.400   0.794   2.603
 3606SOL     OW11713   2.323   1.266   3.589
 3606SOL    HW111714   2.273   1.267   3.503
 3606SOL    HW211715   2.260   1.248   3.665
 3607SOL     OW11716   2.973   1.776   2.099
 3607SOL    HW111717   2.913   1.714   2.149
 3607SOL    HW211718   3.004   1.732   2.014
 3608SOL     OW11719   2.064   0.285   3.360
 3608SOL    HW111720   1.984   0.345   3.347
 3608SOL    HW211721   2.054   0.236   3.446
 3609SOL     OW11722   3.494   1.377   1.943
 3609SOL    HW111723   3.462   1.471   1.933
 3609SOL    HW211724   3.418   1.314   1.931
 3610SOL     OW11725   2.326   1.743   2.185
 3610SOL    HW111726   2.359   1.782   2.271
 3610SOL    HW211727   2.402   1.736   2.120
 3611SOL     OW11728   3.262   0.107   2.288
 3611SOL    HW111729   3.238   0.070   2.198
 3611SOL    HW211730   3.361   0.123   2.292
 3612SOL     OW11731   2.111   1.785   3.103
 3612SOL    HW111732   2.168   1.720   3.153
 3612SOL    HW211733   2.095   1.752   3.010
 3613SOL     OW11734   2.802   1.698   2.766
 3613SOL    HW111735   2.882   1.641   2.787
 3613SOL    HW211736   2.753   1.658   2.689
 3614SOL     OW11737   2.244   0.700   2.342
 3614SOL    HW111738   2.289   0.610   2.339
 3614SOL    HW211739   2.150   0.689   2.375
 3615SOL     OW11740   3.409   0.222   3.591
 3615SOL    HW111741   3.404   0.259   3.683
 3615SOL    HW211742   3.337   0.153   3.579
 3616SOL     OW11743   2.476   0.122   1.979
 3616SOL    HW111744   2.574   0.100   1.986
 3616SOL    HW211745   2.445   0.105   1.886
 3617SOL     OW11746   2.643   0.264   3.611
 3617SOL    HW111747   2.710   0.203   3.654
 3617SOL    HW211748   2.570   0.283   3.676
 3618SOL     OW11749   2.750   1.514   3.057
 3618SOL    HW111750   2.727   1.489   2.963
 3618SOL    HW211751   2.811   1.445   3.096
 3619SOL     OW11752   3.213   0.590   3.295
 3619SOL    HW111753   3.241   0.547   3.380
 3619SOL    HW211754   3.238   0.686   3.296
 3620SOL     OW11755   2.665   1.402   2.786
 3620SOL    HW111756   2.755   1.416   2.744
 3620SOL    HW211757   2.594   1.404   2.715
 3621SOL     OW11758   2.784   0.503   2.761
 3621SOL    HW111759   2.759   0.494   2.665
 3621SOL    HW211760   2.832   0.421   2.792
 3622SOL     OW11761   2.401   0.064   2.374
 3622SOL    HW111762   2.320   0.065   2.432
 3622SOL    HW211763   2.404   0.147   2.319
 3623SOL     OW11764   3.296   1.188   1.903
 3623SOL    HW111765   3.328   1.112   1.960
 3623SOL    HW211766   3.204   1.215   1.933
 3624SOL     OW11767   2.159   0.035   2.033
 3624SOL    HW111768   2.208   0.119   2.012
 3624SOL    HW211769   2.221  -0.030   2.078
 3625SOL     OW11770   2.797   0.236   2.342
 3625SOL    HW111771   2.749   0.277   2.264
 3625SOL    HW211772   2.896   0.234   2.323
 3626SOL     OW11773   2.938   0.683   3.326
 3626SOL    HW111774   2.858   0.622   3.329
 3626SOL    HW211775   3.019   0.630   3.302
 3627SOL     OW11776   3.089   1.570   2.655
 3627SOL    HW111777   3.110   1.644   2.590
 3627SOL    HW211778   3.157   1.570   2.728
 3628SOL     OW11779   2.321   1.152   2.603
 3628SOL    HW111780   2.250   1.125   2.668
 3628SOL    HW211781   2.295   1.124   2.510
 3629SOL     OW11782   3.133   1.797   2.453
 3629SOL    HW111783   3.177   1.861   2.389
 3629SOL    HW211784   3.083   1.849   2.523
 3630SOL     OW11785   2.894   0.549   1.878
 3630SOL    HW111786   2.853   0.631   1.839
 3630SOL    HW211787   2.958   0.575   1.951
 3631SOL     OW11788   1.940   0.556   3.248
 3631SOL    HW111789   2.032   0.555   3.207
 3631SOL    HW211790   1.934   0.630   3.315
 3632SOL     OW11791   2.423   0.222   3.009
 3632SOL    HW111792   2.461   0.138   3.046
 3632SOL    HW211793   2.335   0.241   3.053
 3633SOL     OW11794   2.728   0.454   2.504
 3633SOL    HW111795   2.696   0.526   2.442
 3633SOL    HW211796   2.752   0.373   2.451
 3634SOL     OW11797   2.879   0.039   2.615
 3634SOL    HW111798   2.807   0.044   2.546
 3634SOL    HW211799   2.855  -0.030   2.684
 3635SOL     OW11800   3.291   1.173   2.729
 3635SOL    HW111801   3.236   1.089   2.722
 3635SOL    HW211802   3.317   1.202   2.637
 3636SOL     OW11803   3.328   0.590   2.854
 3636SOL    HW111804   3.298   0.495   2.861
 3636SOL    HW211805   3.401   0.606   2.920
 3637SOL     OW11806   3.719   0.833   2.239
 3637SOL    HW111807   3.761   0.769   2.303
 3637SOL    HW211808   3.681   0.782   2.161
 3638SOL     OW11809   2.350   1.385   2.036
 3638SOL    HW111810   2.263   1.370   2.083
 3638SOL    HW211811   2.333   1.411   1.941
 3639SOL     OW11812   3.526   1.280   2.519
 3639SOL    HW111813   3.625   1.288   2.533
 3639SOL    HW211814   3.481   1.364   2.550
 3640SOL     OW11815   3.252   0.575   1.940
 3640SOL    HW111816   3.198   0.554   2.021
 3640SOL    HW211817   3.343   0.534   1.949
 3641SOL     OW11818   2.389   0.256   2.190
 3641SOL    HW111819   2.416   0.197   2.115
 3641SOL    HW211820   2.389   0.351   2.159
 3642SOL     OW11821   3.616   1.223   3.450
 3642SOL    HW111822   3.707   1.184   3.437
 3642SOL    HW211823   3.624   1.319   3.474
 3643SOL     OW11824   2.926   1.347   3.202
 3643SOL    HW111825   2.846   1.324   3.257
 3643SOL    HW211826   3.009   1.321   3.251
 3644SOL     OW11827   3.454   1.629   3.487
 3644SOL    HW111828   3.481   1.663   3.397
 3644SOL    HW211829   3.533   1.591   3.533
 3645SOL     OW11830   2.973   1.195   2.962
 3645SOL    HW111831   2.933   1.239   3.043
 3645SOL    HW211832   2.932   1.232   2.879
 3646SOL     OW11833   3.500   1.099   2.941
 3646SOL    HW111834   3.505   1.180   3.000
 3646SOL    HW211835   3.414   1.101   2.890
 3647SOL     OW11836   2.777   0.089   3.264
 3647SOL    HW111837   2.802   0.069   3.169
 3647SOL    HW211838   2.849   0.145   3.306
 3648SOL     OW11839   2.842   1.116   3.581
 3648SOL    HW111840   2.743   1.122   3.591
 3648SOL    HW211841   2.865   1.036   3.525
 3649SOL     OW11842   2.567   1.050   2.230
 3649SOL    HW111843   2.553   1.057   2.329
 3649SOL    HW211844   2.651   0.999   2.212
 3650SOL     OW11845   2.272   0.813   3.113
 3650SOL    HW111846   2.358   0.825   3.163
 3650SOL    HW211847   2.230   0.726   3.140
 3651SOL     OW11848   3.136   0.386   3.124
 3651SOL    HW111849   3.157   0.460   3.188
 3651SOL    HW211850   3.047   0.403   3.081
 3652SOL     OW11851   2.229   1.100   2.363
 3652SOL    HW111852   2.222   1.183   2.307
 3652SOL    HW211853   2.233   1.020   2.303
 3653SOL     OW11854   2.428   0.537   2.727
 3653SOL    HW111855   2.440   0.603   2.653
 3653SOL    HW211856   2.474   0.571   2.810
 3654SOL     OW11857   3.114   1.348   2.250
 3654SOL    HW111858   3.164   1.425   2.290
 3654SOL    HW211859   3.019   1.350   2.282
 3655SOL     OW11860   3.134   1.445   3.004
 3655SOL    HW111861   3.181   1.458   3.091
 3655SOL    HW211862   3.068   1.371   3.013
 3656SOL     OW11863   3.444   0.639   2.334
 3656SOL    HW111864   3.413   0.700   2.407
 3656SOL    HW211865   3.494   0.691   2.265
 3657SOL     OW11866   2.216   1.510   3.191
 3657SOL    HW111867   2.195   1.466   3.104
 3657SOL    HW211868   2.313   1.536   3.194
 3658SOL     OW11869   2.264   0.751   3.460
 3658SOL    HW111870   2.332   0.806   3.413
 3658SOL    HW211871   2.304   0.663   3.487
 3659SOL     OW11872   3.449   0.779   3.532
 3659SOL    HW111873   3.357   0.817   3.527
 3659SOL    HW211874   3.509   0.826   3.467
 3660SOL     OW11875   2.875   0.105   3.632
 3660SOL    HW111876   2.881   0.190   3.580
 3660SOL    HW211877   2.907   0.029   3.575
 3661SOL     OW11878   2.366   0.050   3.602
 3661SOL    HW111879   2.324  -0.007   3.532
 3661SOL    HW211880   2.300   0.119   3.634
 3662SOL     OW11881   2.435   0.870   2.891
 3662SOL    HW111882   2.479   0.959   2.882
 3662SOL    HW211883   2.372   0.870   2.968
 3663SOL     OW11884   3.222   0.862   2.907
 3663SOL    HW111885   3.147   0.862   2.841
 3663SOL    HW211886   3.259   0.770   2.916
 3664SOL     OW11887   3.071   0.525   2.137
 3664SOL    HW111888   3.084   0.441   2.191
 3664SOL    HW211889   3.042   0.599   2.197
 3665SOL     OW11890   2.169   0.213   3.093
 3665SOL    HW111891   2.146   0.250   3.183
 3665SOL    HW211892   2.139   0.118   3.087
 3666SOL     OW11893   1.899   1.310   3.144
 3666SOL    HW111894   1.952   1.261   3.212
 3666SOL    HW211895   1.921   1.408   3.149
 3667SOL     OW11896   2.594   0.634   2.926
 3667SOL    HW111897   2.653   0.608   2.850
 3667SOL    HW211898   2.566   0.730   2.915
 3668SOL     OW11899   3.590   0.935   3.716
 3668SOL    HW111900   3.544   0.928   3.627
 3668SOL    HW211901   3.528   0.979   3.782
 3669SOL     OW11902   2.169   0.063   2.480
 3669SOL    HW111903   2.158   0.157   2.513
 3669SOL    HW211904   2.164   0.000   2.557
 3670SOL     OW11905   3.484   0.367   2.236
 3670SOL    HW111906   3.486   0.291   2.300
 3670SOL    HW211907   3.436   0.444   2.276
 3671SOL     OW11908   2.885   0.766   2.828
 3671SOL    HW111909   2.900   0.787   2.924
 3671SOL    HW211910   2.855   0.671   2.819
 3672SOL     OW11911   2.842   1.573   3.562
 3672SOL    HW111912   2.822   1.617   3.474
 3672SOL    HW211913   2.881   1.482   3.546
 3673SOL     OW11914   3.721   1.518   3.467
 3673SOL    HW111915   3.735   1.545   3.372
 3673SOL    HW211916   3.804   1.540   3.520
 3674SOL     OW11917   2.212   0.898   3.666
 3674SOL    HW111918   2.288   0.942   3.714
 3674SOL    HW211919   2.247   0.851   3.584
 3675SOL     OW11920   3.402   0.274   1.987
 3675SOL    HW111921   3.341   0.199   2.010
 3675SOL    HW211922   3.424   0.326   2.070
 3676SOL     OW11923   3.165   0.838   1.904
 3676SOL    HW111924   3.199   0.745   1.919
 3676SOL    HW211925   3.183   0.865   1.809
 3677SOL     OW11926   2.930   1.333   2.711
 3677SOL    HW111927   2.937   1.249   2.656
 3677SOL    HW211928   2.992   1.402   2.675
 3678SOL     OW11929   2.181   0.810   2.811
 3678SOL    HW111930   2.274   0.846   2.816
 3678SOL    HW211931   2.175   0.725   2.863
 3679SOL     OW11932   2.201   0.509   2.868
 3679SOL    HW111933   2.149   0.426   2.851
 3679SOL    HW211934   2.278   0.514   2.804
 3680SOL     OW11935   3.000   0.380   3.540
 3680SOL    HW111936   2.955   0.443   3.604
 3680SOL    HW211937   3.093   0.411   3.523
 3681SOL     OW11938   3.022   0.207   3.339
 3681SOL    HW111939   3.022   0.271   3.416
 3681SOL    HW211940   3.050   0.255   3.256
 3682SOL     OW11941   1.870   1.326   2.062
 3682SOL    HW111942   1.777   1.347   2.031
 3682SOL    HW211943   1.880   1.227   2.075
 3683SOL     OW11944   2.366   1.568   2.772
 3683SOL    HW111945   2.432   1.642   2.781
 3683SOL    HW211946   2.410   1.489   2.730
 3684SOL     OW11947   2.864   0.796   3.100
 3684SOL    HW111948   2.905   0.764   3.186
 3684SOL    HW211949   2.768   0.769   3.097
 3685SOL     OW11950   1.902   0.544   2.976
 3685SOL    HW111951   1.987   0.511   2.935
 3685SOL    HW211952   1.915   0.559   3.074
 3686SOL     OW11953   2.051   0.520   3.584
 3686SOL    HW111954   2.110   0.480   3.514
 3686SOL    HW211955   1.993   0.591   3.543
 3687SOL     OW11956   3.231   0.950   3.522
 3687SOL    HW111957   3.270   1.039   3.542
 3687SOL    HW211958   3.241   0.930   3.425
 3688SOL     OW11959   2.677   0.572   2.187
 3688SOL    HW111960   2.684   0.483   2.141
 3688SOL    HW211961   2.583   0.606   2.179
 3689SOL     OW11962   3.519   0.604   3.068
 3689SOL    HW111963   3.481   0.535   3.130
 3689SOL    HW211964   3.601   0.568   3.024
 3690SOL     OW11965   2.114   1.564   3.606
 3690SOL    HW111966   2.084   1.621   3.682
 3690SOL    HW211967   2.107   1.467   3.632
 3691SOL     OW11968   2.533   0.464   3.131
 3691SOL    HW111969   2.499   0.375   3.101
 3691SOL    HW211970   2.559   0.518   3.051
 3692SOL     OW11971   2.792   1.678   3.327
 3692SOL    HW111972   2.768   1.660   3.232
 3692SOL    HW211973   2.822   1.772   3.337
 3693SOL     OW11974   2.335   0.500   2.053
 3693SOL    HW111975   2.396   0.580   2.057
 3693SOL    HW211976   2.240   0.531   2.060
 3694SOL     OW11977   2.021   1.137   3.328
 3694SOL    HW111978   2.043   1.076   3.404
 3694SOL    HW211979   2.031   1.088   3.242
 3695SOL     OW11980   3.209   1.059   3.096
 3695SOL    HW111981   3.233   0.996   3.022
 3695SOL    HW211982   3.119   1.099   3.078
 3696SOL     OW11983   3.164   0.855   2.171
 3696SOL    HW111984   3.078   0.824   2.213
 3696SOL    HW211985   3.160   0.841   2.072
 3697SOL     OW11986   3.621   1.747   3.016
 3697SOL    HW111987   3.682   1.777   2.943
 3697SOL    HW211988   3.583   1.658   2.994
 3698SOL     OW11989   3.114   1.731   2.990
 3698SOL    HW111990   3.198   1.736   2.936
 3698SOL    HW211991   3.091   1.635   3.008
 3699SOL     OW11992   1.945   1.258   2.884
 3699SOL    HW111993   1.940   1.257   2.984
 3699SOL    HW211994   1.862   1.217   2.846
 3700SOL     OW11995   2.550   1.662   3.578
 3700SOL    HW111996   2.494   1.743   3.587
 3700SOL    HW211997   2.602   1.666   3.492
 3701SOL     OW11998   3.588   0.135   2.385
 3701SOL    HW111999   3.661   0.118   2.318
 3701SOL    HW212000   3.557   0.048   2.423
 3702SOL     OW12001   3.250   1.573   2.339
 3702SOL    HW112002   3.317   1.585   2.265
 3702SOL    HW212003   3.210   1.662   2.362
 3703SOL     OW12004   3.142   0.927   2.534
 3703SOL    HW112005   3.202   0.846   2.536
 3703SOL    HW212006   3.182   0.996   2.474
 3704SOL     OW12007   2.692   1.273   3.284
 3704SOL    HW112008   2.687   1.306   3.379
 3704SOL    HW212009   2.606   1.292   3.238
 3705SOL     OW12010   2.534   1.616   2.016
 3705SOL    HW112011   2.543   1.626   1.917
 3705SOL    HW212012   2.494   1.527   2.037
 3706SOL     OW12013   3.512   1.720   3.256
 3706SOL    HW112014   3.565   1.730   3.172
 3706SOL    HW212015   3.485   1.810   3.290
 3707SOL     OW12016   3.703   0.175   2.825
 3707SOL    HW112017   3.742   0.090   2.789
 3707SOL    HW212018   3.605   0.177   2.806
 3708SOL     OW12019   2.125   0.326   2.582
 3708SOL    HW112020   2.046   0.377   2.548
 3708SOL    HW212021   2.116   0.311   2.680
 3709SOL     OW12022   3.056   1.612   1.893
 3709SOL    HW112023   3.062   1.519   1.930
 3709SOL    HW212024   2.997   1.612   1.813
 3710SOL     OW12025   2.684   1.002   3.234
 3710SOL    HW112026   2.724   1.001   3.142
 3710SOL    HW212027   2.694   1.094   3.274
 3711SOL     OW12028   2.778   0.910   2.153
 3711SOL    HW112029   2.841   0.948   2.085
 3711SOL    HW212030   2.818   0.827   2.192
 3712SOL     OW12031   3.366   1.607   1.906
 3712SOL    HW112032   3.274   1.644   1.913
 3712SOL    HW212033   3.404   1.627   1.816
 3713SOL     OW12034   2.234   1.288   3.352
 3713SOL    HW112035   2.221   1.381   3.318
 3713SOL    HW212036   2.150   1.236   3.339
 3714SOL     OW12037   3.476   1.292   3.151
 3714SOL    HW112038   3.536   1.295   3.231
 3714SOL    HW212039   3.401   1.356   3.164
 3715SOL     OW12040   2.901   1.098   2.558
 3715SOL    HW112041   2.831   1.051   2.612
 3715SOL    HW212042   2.960   1.030   2.515
 3716SOL     OW12043   2.876   0.236   2.833
 3716SOL    HW112044   2.868   0.200   2.740
 3716SOL    HW212045   2.874   0.160   2.898
 3717SOL     OW12046   2.452   1.487   2.353
 3717SOL    HW112047   2.494   1.429   2.283
 3717SOL    HW212048   2.408   1.566   2.309
 3718SOL     OW12049   3.571   0.385   3.243
 3718SOL    HW112050   3.644   0.454   3.247
 3718SOL    HW212051   3.599   0.310   3.184
 3719SOL     OW12052   2.117   1.348   2.152
 3719SOL    HW112053   2.021   1.349   2.125
 3719SOL    HW212054   2.129   1.401   2.236
 3720SOL     OW12055   1.967   1.013   3.588
 3720SOL    HW112056   1.890   0.980   3.642
 3720SOL    HW212057   2.052   0.983   3.630
 3721SOL     OW12058   2.534   0.203   3.351
 3721SOL    HW112059   2.624   0.187   3.311
 3721SOL    HW212060   2.542   0.208   3.450
 3722SOL     OW12061   1.937   0.345   1.895
 3722SOL    HW112062   1.845   0.317   1.866
 3722SOL    HW212063   1.968   0.422   1.839
 3723SOL     OW12064   3.302   0.856   3.260
 3723SOL    HW112065   3.245   0.908   3.197
 3723SOL    HW212066   3.398   0.868   3.236
 3724SOL     OW12067   1.934   0.166   2.180
 3724SOL    HW112068   1.917   0.249   2.126
 3724SOL    HW212069   2.024   0.129   2.158
 3725SOL     OW12070   3.045   1.335   1.981
 3725SOL    HW112071   2.946   1.324   1.983
 3725SOL    HW212072   3.079   1.350   2.074
 3726SOL     OW12073   2.475   0.842   3.293
 3726SOL    HW112074   2.531   0.923   3.276
 3726SOL    HW212075   2.534   0.762   3.296
 3727SOL     OW12076   3.355   1.767   2.821
 3727SOL    HW112077   3.388   1.831   2.752
 3727SOL    HW212078   3.421   1.761   2.896
 3728SOL     OW12079   2.578   0.565   3.570
 3728SOL    HW112080   2.597   0.630   3.644
 3728SOL    HW212081   2.638   0.485   3.579
 3729SOL     OW12082   3.312   1.220   3.495
 3729SOL    HW112083   3.303   1.210   3.594
 3729SOL    HW212084   3.408   1.213   3.469
 3730SOL     OW12085   2.252   1.741   3.422
 3730SOL    HW112086   2.161   1.782   3.420
 3730SOL    HW212087   2.245   1.647   3.454
 3731SOL     OW12088   3.536   0.883   3.116
 3731SOL    HW112089   3.509   0.794   3.079
 3731SOL    HW212090   3.537   0.951   3.043
 3732SOL     OW12091   3.087   0.325   2.311
 3732SOL    HW112092   3.152   0.251   2.300
 3732SOL    HW212093   3.107   0.375   2.395
 3733SOL     OW12094   2.456   0.745   2.514
 3733SOL    HW112095   2.506   0.830   2.495
 3733SOL    HW212096   2.368   0.747   2.466
 3734SOL     OW12097   3.639   0.342   3.504
 3734SOL    HW112098   3.622   0.373   3.410
 3734SOL    HW212099   3.555   0.305   3.542
 3735SOL     OW12100   3.592   0.934   3.379
 3735SOL    HW112101   3.630   1.025   3.394
 3735SOL    HW212102   3.584   0.917   3.280
 3736SOL     OW12103   2.721   1.374   1.878
 3736SOL    HW112104   2.675   1.389   1.966
 3736SOL    HW212105   2.765   1.459   1.848
 3737SOL     OW12106   2.523   1.790   2.815
 3737SOL    HW112107   2.477   1.878   2.802
 3737SOL    HW212108   2.622   1.802   2.808
 3738SOL     OW12109   2.721   0.956   2.723
 3738SOL    HW112110   2.775   0.887   2.771
 3738SOL    HW212111   2.689   1.025   2.789
 3739SOL     OW12112   2.945   0.984   1.949
 3739SOL    HW112113   2.922   1.037   1.867
 3739SOL    HW212114   3.026   0.928   1.930
 3740SOL     OW12115   3.723   1.569   2.713
 3740SOL    HW112116   3.652   1.557   2.643
 3740SOL    HW212117   3.724   1.490   2.773
 3741SOL     OW12118   2.083   1.314   3.706
 3741SOL    HW112119   2.018   1.241   3.685
 3741SOL    HW212120   2.087   1.328   3.804
 3742SOL     OW12121   1.941   1.240   2.515
 3742SOL    HW112122   1.940   1.193   2.603
 3742SOL    HW212123   2.023   1.212   2.464
 3743SOL     OW12124   2.534   1.391   3.486
 3743SOL    HW112125   2.456   1.341   3.524
 3743SOL    HW212126   2.531   1.486   3.517
 3744SOL     OW12127   3.686   0.192   3.089
 3744SOL    HW112128   3.682   0.102   3.133
 3744SOL    HW212129   3.689   0.181   2.990
 3745SOL     OW12130   2.290   0.424   2.382
 3745SOL    HW112131   2.320   0.352   2.320
 3745SOL    HW212132   2.251   0.384   2.465
 3746SOL     OW12133   3.567   1.487   2.966
 3746SOL    HW112134   3.474   1.462   2.939
 3746SOL    HW212135   3.593   1.437   3.048
 3747SOL     OW12136   2.179   0.547   3.142
 3747SOL    HW112137   2.217   0.488   3.214
 3747SOL    HW212138   2.219   0.521   3.054
 3748SOL     OW12139   2.674   1.586   2.549
 3748SOL    HW112140   2.706   1.596   2.455
 3748SOL    HW212141   2.595   1.524   2.551
 3749SOL     OW12142   3.286   0.214   2.974
 3749SOL    HW112143   3.338   0.149   3.029
 3749SOL    HW212144   3.237   0.277   3.035
 3750SOL     OW12145   2.863   0.034   3.016
 3750SOL    HW112146   2.800  -0.038   2.985
 3750SOL    HW212147   2.956  -0.002   3.016
 3751SOL     OW12148   2.632   1.330   2.163
 3751SOL    HW112149   2.586   1.243   2.180
 3751SOL    HW212150   2.723   1.327   2.204
 3752SOL     OW12151   2.480   1.567   3.146
 3752SOL    HW112152   2.475   1.649   3.203
 3752SOL    HW212153   2.569   1.564   3.101
 3753SOL     OW12154   3.214   0.052   2.030
 3753SOL    HW112155   3.249   0.011   1.946
 3753SOL    HW212156   3.124   0.014   2.050
 3754SOL     OW12157   3.162   0.453   2.553
 3754SOL    HW112158   3.103   0.533   2.557
 3754SOL    HW212159   3.177   0.418   2.646
 3755SOL     OW12160   3.455   0.221   2.744
 3755SOL    HW112161   3.371   0.220   2.798
 3755SOL    HW212162   3.457   0.304   2.688
 3756SOL     OW12163   1.901   1.077   2.162
 3756SOL    HW112164   2.000   1.066   2.153
 3756SOL    HW212165   1.861   0.991   2.194
 3757SOL     OW12166   2.737   1.646   2.199
 3757SOL    HW112167   2.660   1.611   2.145
 3757SOL    HW212168   2.705   1.717   2.261
 3758SOL     OW12169   2.092   0.628   3.837
 3758SOL    HW112170   1.999   0.626   3.874
 3758SOL    HW212171   2.093   0.589   3.745
 3759SOL     OW12172   2.087   0.275   4.720
 3759SOL    HW112173   2.122   0.258   4.812
 3759SOL    HW212174   1.999   0.230   4.708
 3760SOL     OW12175   1.881   0.368   4.371
 3760SOL    HW112176   1.799   0.411   4.410
 3760SOL    HW212177   1.853   0.295   4.308
 3761SOL     OW12178   2.431   1.275   4.889
 3761SOL    HW112179   2.338   1.268   4.852
 3761SOL    HW212180   2.442   1.364   4.933
 3762SOL     OW12181   3.417   1.511   4.427
 3762SOL    HW112182   3.360   1.495   4.508
 3762SOL    HW212183   3.358   1.521   4.347
 3763SOL     OW12184   2.997   0.703   4.441
 3763SOL    HW112185   3.054   0.781   4.416
 3763SOL    HW212186   2.937   0.729   4.517
 3764SOL     OW12187   3.617   0.607   3.955
 3764SOL    HW112188   3.605   0.594   3.856
 3764SOL    HW212189   3.587   0.526   4.004
 3765SOL     OW12190   2.630   1.144   4.747
 3765SOL    HW112191   2.552   1.161   4.807
 3765SOL    HW212192   2.664   1.231   4.711
 3766SOL     OW12193   2.712   0.798   5.547
 3766SOL    HW112194   2.708   0.874   5.612
 3766SOL    HW212195   2.734   0.834   5.456
 3767SOL     OW12196   2.547   1.012   4.389
 3767SOL    HW112197   2.616   0.996   4.459
 3767SOL    HW212198   2.474   1.069   4.427
 3768SOL     OW12199   2.548   1.161   5.527
 3768SOL    HW112200   2.608   1.240   5.541
 3768SOL    HW212201   2.462   1.192   5.486
 3769SOL     OW12202   2.197   1.435   4.785
 3769SOL    HW112203   2.119   1.404   4.732
 3769SOL    HW212204   2.255   1.493   4.728
 3770SOL     OW12205   3.322   1.505   5.063
 3770SOL    HW112206   3.346   1.599   5.089
 3770SOL    HW212207   3.306   1.451   5.145
 3771SOL     OW12208   2.300   0.392   5.223
 3771SOL    HW112209   2.382   0.336   5.232
 3771SOL    HW212210   2.219   0.334   5.227
 3772SOL     OW12211   3.465   0.447   4.461
 3772SOL    HW112212   3.391   0.493   4.411
 3772SOL    HW212213   3.516   0.515   4.514
 3773SOL     OW12214   2.093   1.713   4.207
 3773SOL    HW112215   2.127   1.790   4.261
 3773SOL    HW212216   2.137   1.713   4.117
 3774SOL     OW12217   2.989   1.341   5.414
 3774SOL    HW112218   3.036   1.341   5.502
 3774SOL    HW212219   2.941   1.254   5.403
 3775SOL     OW12220   2.092   1.434   4.262
 3775SOL    HW112221   2.066   1.530   4.262
 3775SOL    HW212222   2.021   1.380   4.307
 3776SOL     OW12223   2.102   1.091   4.610
 3776SOL    HW112224   2.116   1.007   4.662
 3776SOL    HW212225   2.047   1.155   4.665
 3777SOL     OW12226   2.482   1.786   5.163
 3777SOL    HW112227   2.390   1.769   5.198
 3777SOL    HW212228   2.510   1.878   5.189
 3778SOL     OW12229   2.468   0.964   3.847
 3778SOL    HW112230   2.475   1.048   3.793
 3778SOL    HW212231   2.514   0.977   3.935
 3779SOL     OW12232   3.456   0.114   5.204
 3779SOL    HW112233   3.438   0.181   5.132
 3779SOL    HW212234   3.453   0.160   5.293
 3780SOL     OW12235   1.984   0.643   4.287
 3780SOL    HW112236   1.939   0.555   4.304
 3780SOL    HW212237   1.983   0.697   4.371
 3781SOL     OW12238   3.704   1.767   4.083
 3781SOL    HW112239   3.758   1.738   4.163
 3781SOL    HW212240   3.734   1.857   4.054
 3782SOL     OW12241   1.889   1.596   3.841
 3782SOL    HW112242   1.870   1.500   3.862
 3782SOL    HW212243   1.856   1.654   3.916
 3783SOL     OW12244   3.551   0.922   4.336
 3783SOL    HW112245   3.646   0.893   4.344
 3783SOL    HW212246   3.543   0.987   4.261
 3784SOL     OW12247   3.503   1.108   4.156
 3784SOL    HW112248   3.589   1.110   4.104
 3784SOL    HW212249   3.517   1.155   4.244
 3785SOL     OW12250   1.975   0.737   5.321
 3785SOL    HW112251   2.063   0.724   5.366
 3785SOL    HW212252   1.962   0.834   5.299
 3786SOL     OW12253   2.475   1.365   4.450
 3786SOL    HW112254   2.426   1.278   4.459
 3786SOL    HW212255   2.452   1.408   4.363
 3787SOL     OW12256   3.155   1.228   5.147
 3787SOL    HW112257   3.192   1.155   5.089
 3787SOL    HW212258   3.207   1.233   5.232
 3788SOL     OW12259   2.671   0.004   4.226
 3788SOL    HW112260   2.711   0.095   4.217
 3788SOL    HW212261   2.571   0.012   4.232
 3789SOL     OW12262   2.059   0.976   4.988
 3789SOL    HW112263   2.148   0.931   4.974
 3789SOL    HW212264   1.986   0.911   4.969
 3790SOL     OW12265   3.387   0.999   3.914
 3790SOL    HW112266   3.324   0.923   3.927
 3790SOL    HW212267   3.435   1.017   4.000
 3791SOL     OW12268   3.049   1.792   5.340
 3791SOL    HW112269   3.073   1.852   5.264
 3791SOL    HW212270   3.056   1.697   5.310
 3792SOL     OW12271   2.179   0.251   5.525
 3792SOL    HW112272   2.250   0.322   5.531
 3792SOL    HW212273   2.091   0.290   5.553
 3793SOL     OW12274   3.328   1.417   4.677
 3793SOL    HW112275   3.269   1.423   4.757
 3793SOL    HW212276   3.313   1.329   4.631
 3794SOL     OW12277   3.529   1.714   4.296
 3794SOL    HW112278   3.488   1.691   4.208
 3794SOL    HW212279   3.511   1.640   4.361
 3795SOL     OW12280   2.460   0.729   3.994
 3795SOL    HW112281   2.484   0.798   3.926
 3795SOL    HW212282   2.382   0.762   4.048
 3796SOL     OW12283   3.143   0.345   4.668
 3796SOL    HW112284   3.057   0.295   4.655
 3796SOL    HW212285   3.205   0.291   4.724
 3797SOL     OW12286   3.438   1.662   4.031
 3797SOL    HW112287   3.527   1.708   4.034
 3797SOL    HW212288   3.417   1.638   3.936
 3798SOL     OW12289   2.669   0.605   5.189
 3798SOL    HW112290   2.622   0.602   5.278
 3798SOL    HW212291   2.618   0.550   5.123
 3799SOL     OW12292   3.256   0.469   5.398
 3799SOL    HW112293   3.236   0.512   5.486
 3799SOL    HW212294   3.334   0.407   5.407
 3800SOL     OW12295   2.835   0.890   5.296
 3800SOL    HW112296   2.881   0.806   5.267
 3800SOL    HW212297   2.779   0.924   5.221
 3801SOL     OW12298   2.853   0.410   4.966
 3801SOL    HW112299   2.776   0.444   5.020
 3801SOL    HW212300   2.819   0.359   4.887
 3802SOL     OW12301   2.903   0.701   4.153
 3802SOL    HW112302   2.929   0.697   4.249
 3802SOL    HW212303   2.818   0.650   4.139
 3803SOL     OW12304   1.938   0.811   4.513
 3803SOL    HW112305   2.037   0.799   4.522
 3803SOL    HW212306   1.914   0.906   4.534
 3804SOL     OW12307   2.727   0.348   3.919
 3804SOL    HW112308   2.786   0.411   3.870
 3804SOL    HW212309   2.746   0.254   3.890
 3805SOL     OW12310   3.581   0.585   5.555
 3805SOL    HW112311   3.555   0.674   5.519
 3805SOL    HW212312   3.579   0.517   5.482
 3806SOL     OW12313   3.224   1.144   4.269
 3806SOL    HW112314   3.307   1.115   4.221
 3806SOL    HW212315   3.175   1.211   4.213
 3807SOL     OW12316   2.412   0.196   4.609
 3807SOL    HW112317   2.407   0.191   4.709
 3807SOL    HW212318   2.414   0.292   4.580
 3808SOL     OW12319   2.870   1.456   4.201
 3808SOL    HW112320   2.824   1.528   4.149
 3808SOL    HW212321   2.866   1.476   4.299
 3809SOL     OW12322   2.213   1.801   4.577
 3809SOL    HW112323   2.263   1.715   4.583
 3809SOL    HW212324   2.278   1.878   4.574
 3810SOL     OW12325   3.657   1.066   4.597
 3810SOL    HW112326   3.595   1.051   4.521
 3810SOL    HW212327   3.605   1.077   4.682
 3811SOL     OW12328   3.089   1.550   5.230
 3811SOL    HW112329   3.095   1.473   5.294
 3811SOL    HW212330   3.037   1.524   5.150
 3812SOL     OW12331   2.183   0.943   3.966
 3812SOL    HW112332   2.265   0.982   3.924
 3812SOL    HW212333   2.156   0.861   3.917
 3813SOL     OW12334   3.320   0.735   4.452
 3813SOL    HW112335   3.315   0.670   4.527
 3813SOL    HW212336   3.400   0.794   4.465
 3814SOL     OW12337   2.323   1.266   5.451
 3814SOL    HW112338   2.273   1.267   5.365
 3814SOL    HW212339   2.260   1.248   5.527
 3815SOL     OW12340   2.973   1.776   3.961
 3815SOL    HW112341   2.913   1.714   4.011
 3815SOL    HW212342   3.004   1.732   3.876
 3816SOL     OW12343   2.064   0.285   5.222
 3816SOL    HW112344   1.984   0.345   5.209
 3816SOL    HW212345   2.054   0.236   5.308
 3817SOL     OW12346   3.494   1.377   3.805
 3817SOL    HW112347   3.462   1.471   3.795
 3817SOL    HW212348   3.418   1.314   3.793
 3818SOL     OW12349   2.326   1.743   4.047
 3818SOL    HW112350   2.359   1.782   4.133
 3818SOL    HW212351   2.402   1.736   3.982
 3819SOL     OW12352   3.262   0.107   4.150
 3819SOL    HW112353   3.238   0.070   4.060
 3819SOL    HW212354   3.361   0.123   4.154
 3820SOL     OW12355   2.111   1.785   4.965
 3820SOL    HW112356   2.168   1.720   5.015
 3820SOL    HW212357   2.095   1.752   4.872
 3821SOL     OW12358   2.802   1.698   4.628
 3821SOL    HW112359   2.882   1.641   4.649
 3821SOL    HW212360   2.753   1.658   4.551
 3822SOL     OW12361   2.244   0.700   4.204
 3822SOL    HW112362   2.289   0.610   4.201
 3822SOL    HW212363   2.150   0.689   4.237
 3823SOL     OW12364   3.409   0.222   5.453
 3823SOL    HW112365   3.404   0.259   5.545
 3823SOL    HW212366   3.337   0.153   5.441
 3824SOL     OW12367   2.476   0.122   3.841
 3824SOL    HW112368   2.574   0.100   3.848
 3824SOL    HW212369   2.445   0.105   3.748
 3825SOL     OW12370   2.643   0.264   5.473
 3825SOL    HW112371   2.710   0.203   5.516
 3825SOL    HW212372   2.570   0.283   5.538
 3826SOL     OW12373   2.750   1.514   4.919
 3826SOL    HW112374   2.727   1.489   4.825
 3826SOL    HW212375   2.811   1.445   4.958
 3827SOL     OW12376   3.213   0.590   5.157
 3827SOL    HW112377   3.241   0.547   5.242
 3827SOL    HW212378   3.238   0.686   5.158
 3828SOL     OW12379   2.665   1.402   4.648
 3828SOL    HW112380   2.755   1.416   4.606
 3828SOL    HW212381   2.594   1.404   4.577
 3829SOL     OW12382   2.784   0.503   4.623
 3829SOL    HW112383   2.759   0.494   4.527
 3829SOL    HW212384   2.832   0.421   4.654
 3830SOL     OW12385   2.401   0.064   4.236
 3830SOL    HW112386   2.320   0.065   4.294
 3830SOL    HW212387   2.404   0.147   4.181
 3831SOL     OW12388   3.296   1.188   3.765
 3831SOL    HW112389   3.328   1.112   3.822
 3831SOL    HW212390   3.204   1.215   3.795
 3832SOL     OW12391   2.159   0.035   3.895
 3832SOL    HW112392   2.208   0.119   3.874
 3832SOL    HW212393   2.221  -0.030   3.940
 3833SOL     OW12394   2.797   0.236   4.204
 3833SOL    HW112395   2.749   0.277   4.126
 3833SOL    HW212396   2.896   0.234   4.185
 3834SOL     OW12397   2.938   0.683   5.188
 3834SOL    HW112398   2.858   0.622   5.191
 3834SOL    HW212399   3.019   0.630   5.164
 3835SOL     OW12400   3.089   1.570   4.517
 3835SOL    HW112401   3.110   1.644   4.452
 3835SOL    HW212402   3.157   1.570   4.590
 3836SOL     OW12403   2.321   1.152   4.465
 3836SOL    HW112404   2.250   1.125   4.530
 3836SOL    HW212405   2.295   1.124   4.372
 3837SOL     OW12406   3.133   1.797   4.315
 3837SOL    HW112407   3.177   1.861   4.251
 3837SOL    HW212408   3.083   1.849   4.385
 3838SOL     OW12409   2.894   0.549   3.740
 3838SOL    HW112410   2.853   0.631   3.701
 3838SOL    HW212411   2.958   0.575   3.813
 3839SOL     OW12412   1.940   0.556   5.110
 3839SOL    HW112413   2.032   0.555   5.069
 3839SOL    HW212414   1.934   0.630   5.177
 3840SOL     OW12415   2.423   0.222   4.871
 3840SOL    HW112416   2.461   0.138   4.908
 3840SOL    HW212417   2.335   0.241   4.915
 3841SOL     OW12418   2.728   0.454   4.366
 3841SOL    HW112419   2.696   0.526   4.304
 3841SOL    HW212420   2.752   0.373   4.313
 3842SOL     OW12421   2.879   0.039   4.477
 3842SOL    HW112422   2.807   0.044   4.408
 3842SOL    HW212423   2.855  -0.030   4.546
 3843SOL     OW12424   3.291   1.173   4.591
 3843SOL    HW112425   3.236   1.089   4.584
 3843SOL    HW212426   3.317   1.202   4.499
 3844SOL     OW12427   3.328   0.590   4.716
 3844SOL    HW112428   3.298   0.495   4.723
 3844SOL    HW212429   3.401   0.606   4.782
 3845SOL     OW12430   3.719   0.833   4.101
 3845SOL    HW112431   3.761   0.769   4.165
 3845SOL    HW212432   3.681   0.782   4.023
 3846SOL     OW12433   2.350   1.385   3.898
 3846SOL    HW112434   2.263   1.370   3.945
 3846SOL    HW212435   2.333   1.411   3.803
 3847SOL     OW12436   3.526   1.280   4.381
 3847SOL    HW112437   3.625   1.288   4.395
 3847SOL    HW212438   3.481   1.364   4.412
 3848SOL     OW12439   3.252   0.575   3.802
 3848SOL    HW112440   3.198   0.554   3.883
 3848SOL    HW212441   3.343   0.534   3.811
 3849SOL     OW12442   2.389   0.256   4.052
 3849SOL    HW112443   2.416   0.197   3.977
 3849SOL    HW212444   2.389   0.351   4.021
 3850SOL     OW12445   3.616   1.223   5.312
 3850SOL    HW112446   3.707   1.184   5.299
 3850SOL    HW212447   3.624   1.319   5.336
 3851SOL     OW12448   2.926   1.347   5.064
 3851SOL    HW112449   2.846   1.324   5.119
 3851SOL    HW212450   3.009   1.321   5.113
 3852SOL     OW12451   3.454   1.629   5.349
 3852SOL    HW112452   3.481   1.663   5.259
 3852SOL    HW212453   3.533   1.591   5.395
 3853SOL     OW12454   2.973   1.195   4.824
 3853SOL    HW112455   2.933   1.239   4.905
 3853SOL    HW212456   2.932   1.232   4.741
 3854SOL     OW12457   3.500   1.099   4.803
 3854SOL    HW112458   3.505   1.180   4.862
 3854SOL    HW212459   3.414   1.101   4.752
 3855SOL     OW12460   2.777   0.089   5.126
 3855SOL    HW112461   2.802   0.069   5.031
 3855SOL    HW212462   2.849   0.145   5.168
 3856SOL     OW12463   2.842   1.116   5.443
 3856SOL    HW112464   2.743   1.122   5.453
 3856SOL    HW212465   2.865   1.036   5.387
 3857SOL     OW12466   2.567   1.050   4.092
 3857SOL    HW112467   2.553   1.057   4.191
 3857SOL    HW212468   2.651   0.999   4.074
 3858SOL     OW12469   2.272   0.813   4.975
 3858SOL    HW112470   2.358   0.825   5.025
 3858SOL    HW212471   2.230   0.726   5.002
 3859SOL     OW12472   3.136   0.386   4.986
 3859SOL    HW112473   3.157   0.460   5.050
 3859SOL    HW212474   3.047   0.403   4.943
 3860SOL     OW12475   2.229   1.100   4.225
 3860SOL    HW112476   2.222   1.183   4.169
 3860SOL    HW212477   2.233   1.020   4.165
 3861SOL     OW12478   2.428   0.537   4.589
 3861SOL    HW112479   2.440   0.603   4.515
 3861SOL    HW212480   2.474   0.571   4.672
 3862SOL     OW12481   3.114   1.348   4.112
 3862SOL    HW112482   3.164   1.425   4.152
 3862SOL    HW212483   3.019   1.350   4.144
 3863SOL     OW12484   3.134   1.445   4.866
 3863SOL    HW112485   3.181   1.458   4.953
 3863SOL    HW212486   3.068   1.371   4.875
 3864SOL     OW12487   3.444   0.639   4.196
 3864SOL    HW112488   3.413   0.700   4.269
 3864SOL    HW212489   3.494   0.691   4.127
 3865SOL     OW12490   2.216   1.510   5.053
 3865SOL    HW112491   2.195   1.466   4.966
 3865SOL    HW212492   2.313   1.536   5.056
 3866SOL     OW12493   2.264   0.751   5.322
 3866SOL    HW112494   2.332   0.806   5.275
 3866SOL    HW212495   2.304   0.663   5.349
 3867SOL     OW12496   3.449   0.779   5.394
 3867SOL    HW112497   3.357   0.817   5.389
 3867SOL    HW212498   3.509   0.826   5.329
 3868SOL     OW12499   2.875   0.105   5.494
 3868SOL    HW112500   2.881   0.190   5.442
 3868SOL    HW212501   2.907   0.029   5.437
 3869SOL     OW12502   2.366   0.050   5.464
 3869SOL    HW112503   2.324  -0.007   5.394
 3869SOL    HW212504   2.300   0.119   5.496
 3870SOL     OW12505   2.435   0.870   4.753
 3870SOL    HW112506   2.479   0.959   4.744
 3870SOL    HW212507   2.372   0.870   4.830
 3871SOL     OW12508   3.222   0.862   4.769
 3871SOL    HW112509   3.147   0.862   4.703
 3871SOL    HW212510   3.259   0.770   4.778
 3872SOL     OW12511   3.071   0.525   3.999
 3872SOL    HW112512   3.084   0.441   4.053
 3872SOL    HW212513   3.042   0.599   4.059
 3873SOL     OW12514   2.169   0.213   4.955
 3873SOL    HW112515   2.146   0.250   5.045
 3873SOL    HW212516   2.139   0.118   4.949
 3874SOL     OW12517   1.899   1.310   5.006
 3874SOL    HW112518   1.952   1.261   5.074
 3874SOL    HW212519   1.921   1.408   5.011
 3875SOL     OW12520   2.594   0.634   4.788
 3875SOL    HW112521   2.653   0.608   4.712
 3875SOL    HW212522   2.566   0.730   4.777
 3876SOL     OW12523   3.590   0.935   5.578
 3876SOL    HW112524   3.544   0.928   5.489
 3876SOL    HW212525   3.528   0.979   5.644
 3877SOL     OW12526   2.169   0.063   4.342
 3877SOL    HW112527   2.158   0.157   4.375
 3877SOL    HW212528   2.164   0.000   4.419
 3878SOL     OW12529   3.484   0.367   4.098
 3878SOL    HW112530   3.486   0.291   4.162
 3878SOL    HW212531   3.436   0.444   4.138
 3879SOL     OW12532   2.885   0.766   4.690
 3879SOL    HW112533   2.900   0.787   4.786
 3879SOL    HW212534   2.855   0.671   4.681
 3880SOL     OW12535   2.842   1.573   5.424
 3880SOL    HW112536   2.822   1.617   5.336
 3880SOL    HW212537   2.881   1.482   5.408
 3881SOL     OW12538   3.721   1.518   5.329
 3881SOL    HW112539   3.735   1.545   5.234
 3881SOL    HW212540   3.804   1.540   5.382
 3882SOL     OW12541   2.212   0.898   5.528
 3882SOL    HW112542   2.288   0.942   5.576
 3882SOL    HW212543   2.247   0.851   5.446
 3883SOL     OW12544   3.402   0.274   3.849
 3883SOL    HW112545   3.341   0.199   3.872
 3883SOL    HW212546   3.424   0.326   3.932
 3884SOL     OW12547   3.165   0.838   3.766
 3884SOL    HW112548   3.199   0.745   3.781
 3884SOL    HW212549   3.183   0.865   3.671
 3885SOL     OW12550   2.930   1.333   4.573
 3885SOL    HW112551   2.937   1.249   4.518
 3885SOL    HW212552   2.992   1.402   4.537
 3886SOL     OW12553   2.181   0.810   4.673
 3886SOL    HW112554   2.274   0.846   4.678
 3886SOL    HW212555   2.175   0.725   4.725
 3887SOL     OW12556   2.201   0.509   4.730
 3887SOL    HW112557   2.149   0.426   4.713
 3887SOL    HW212558   2.278   0.514   4.666
 3888SOL     OW12559   3.000   0.380   5.402
 3888SOL    HW112560   2.955   0.443   5.466
 3888SOL    HW212561   3.093   0.411   5.385
 3889SOL     OW12562   3.022   0.207   5.201
 3889SOL    HW112563   3.022   0.271   5.278
 3889SOL    HW212564   3.050   0.255   5.118
 3890SOL     OW12565   1.870   1.326   3.924
 3890SOL    HW112566   1.777   1.347   3.893
 3890SOL    HW212567   1.880   1.227   3.937
 3891SOL     OW12568   2.366   1.568   4.634
 3891SOL    HW112569   2.432   1.642   4.643
 3891SOL    HW212570   2.410   1.489   4.592
 3892SOL     OW12571   2.864   0.796   4.962
 3892SOL    HW112572   2.905   0.764   5.048
 3892SOL    HW212573   2.768   0.769   4.959
 3893SOL     OW12574   1.902   0.544   4.838
 3893SOL    HW112575   1.987   0.511   4.797
 3893SOL    HW212576   1.915   0.559   4.936
 3894SOL     OW12577   2.051   0.520   5.446
 3894SOL    HW112578   2.110   0.480   5.376
 3894SOL    HW212579   1.993   0.591   5.405
 3895SOL     OW12580   3.231   0.950   5.384
 3895SOL    HW112581   3.270   1.039   5.404
 3895SOL    HW212582   3.241   0.930   5.287
 3896SOL     OW12583   2.677   0.572   4.049
 3896SOL    HW112584   2.684   0.483   4.003
 3896SOL    HW212585   2.583   0.606   4.041
 3897SOL     OW12586   3.519   0.604   4.930
 3897SOL    HW112587   3.481   0.535   4.992
 3897SOL    HW212588   3.601   0.568   4.886
 3898SOL     OW12589   2.114   1.564   5.468
 3898SOL    HW112590   2.084   1.621   5.544
 3898SOL    HW212591   2.107   1.467   5.494
 3899SOL     OW12592   2.533   0.464   4.993
 3899SOL    HW112593   2.499   0.375   4.963
 3899SOL    HW212594   2.559   0.518   4.913
 3900SOL     OW12595   2.792   1.678   5.189
 3900SOL    HW112596   2.768   1.660   5.094
 3900SOL    HW212597   2.822   1.772   5.199
 3901SOL     OW12598   2.335   0.500   3.915
 3901SOL    HW112599   2.396   0.580   3.919
 3901SOL    HW212600   2.240   0.531   3.922
 3902SOL     OW12601   2.021   1.137   5.190
 3902SOL    HW112602   2.043   1.076   5.266
 3902SOL    HW212603   2.031   1.088   5.104
 3903SOL     OW12604   3.209   1.059   4.958
 3903SOL    HW112605   3.233   0.996   4.884
 3903SOL    HW212606   3.119   1.099   4.940
 3904SOL     OW12607   3.164   0.855   4.033
 3904SOL    HW112608   3.078   0.824   4.075
 3904SOL    HW212609   3.160   0.841   3.934
 3905SOL     OW12610   3.621   1.747   4.878
 3905SOL    HW112611   3.682   1.777   4.805
 3905SOL    HW212612   3.583   1.658   4.856
 3906SOL     OW12613   3.114   1.731   4.852
 3906SOL    HW112614   3.198   1.736   4.798
 3906SOL    HW212615   3.091   1.635   4.870
 3907SOL     OW12616   1.945   1.258   4.746
 3907SOL    HW112617   1.940   1.257   4.846
 3907SOL    HW212618   1.862   1.217   4.708
 3908SOL     OW12619   2.550   1.662   5.440
 3908SOL    HW112620   2.494   1.743   5.449
 3908SOL    HW212621   2.602   1.666   5.354
 3909SOL     OW12622   3.588   0.135   4.247
 3909SOL    HW112623   3.661   0.118   4.180
 3909SOL    HW212624   3.557   0.048   4.285
 3910SOL     OW12625   3.250   1.573   4.201
 3910SOL    HW112626   3.317   1.585   4.127
 3910SOL    HW212627   3.210   1.662   4.224
 3911SOL     OW12628   3.142   0.927   4.396
 3911SOL    HW112629   3.202   0.846   4.398
 3911SOL    HW212630   3.182   0.996   4.336
 3912SOL     OW12631   2.692   1.273   5.146
 3912SOL    HW112632   2.687   1.306   5.241
 3912SOL    HW212633   2.606   1.292   5.100
 3913SOL     OW12634   2.534   1.616   3.878
 3913SOL    HW112635   2.543   1.626   3.779
 3913SOL    HW212636   2.494   1.527   3.899
 3914SOL     OW12637   3.512   1.720   5.118
 3914SOL    HW112638   3.565   1.730   5.034
 3914SOL    HW212639   3.485   1.810   5.152
 3915SOL     OW12640   3.703   0.175   4.687
 3915SOL    HW112641   3.742   0.090   4.651
 3915SOL    HW212642   3.605   0.177   4.668
 3916SOL     OW12643   2.125   0.326   4.444
 3916SOL    HW112644   2.046   0.377   4.410
 3916SOL    HW212645   2.116   0.311   4.542
 3917SOL     OW12646   3.056   1.612   3.755
 3917SOL    HW112647   3.062   1.519   3.792
 3917SOL    HW212648   2.997   1.612   3.675
 3918SOL     OW12649   2.684   1.002   5.096
 3918SOL    HW112650   2.724   1.001   5.004
 3918SOL    HW212651   2.694   1.094   5.136
 3919SOL     OW12652   2.778   0.910   4.015
 3919SOL    HW112653   2.841   0.948   3.947
 3919SOL    HW212654   2.818   0.827   4.054
 3920SOL     OW12655   3.366   1.607   3.768
 3920SOL    HW112656   3.274   1.644   3.775
 3920SOL    HW212657   3.404   1.627   3.678
 3921SOL     OW12658   2.234   1.288   5.214
 3921SOL    HW112659   2.221   1.381   5.180
 3921SOL    HW212660   2.150   1.236   5.201
 3922SOL     OW12661   3.476   1.292   5.013
 3922SOL    HW112662   3.536   1.295   5.093
 3922SOL    HW212663   3.401   1.356   5.026
 3923SOL     OW12664   2.901   1.098   4.420
 3923SOL    HW112665   2.831   1.051   4.474
 3923SOL    HW212666   2.960   1.030   4.377
 3924SOL     OW12667   2.876   0.236   4.695
 3924SOL    HW112668   2.868   0.200   4.602
 3924SOL    HW212669   2.874   0.160   4.760
 3925SOL     OW12670   2.452   1.487   4.215
 3925SOL    HW112671   2.494   1.429   4.145
 3925SOL    HW212672   2.408   1.566   4.171
 3926SOL     OW12673   3.571   0.385   5.105
 3926SOL    HW112674   3.644   0.454   5.109
 3926SOL    HW212675   3.599   0.310   5.046
 3927SOL     OW12676   2.117   1.348   4.014
 3927SOL    HW112677   2.021   1.349   3.987
 3927SOL    HW212678   2.129   1.401   4.098
 3928SOL     OW12679   1.967   1.013   5.450
 3928SOL    HW112680   1.890   0.980   5.504
 3928SOL    HW212681   2.052   0.983   5.492
 3929SOL     OW12682   2.534   0.203   5.213
 3929SOL    HW112683   2.624   0.187   5.173
 3929SOL    HW212684   2.542   0.208   5.312
 3930SOL     OW12685   1.937   0.345   3.757
 3930SOL    HW112686   1.845   0.317   3.728
 3930SOL    HW212687   1.968   0.422   3.701
 3931SOL     OW12688   3.302   0.856   5.122
 3931SOL    HW112689   3.245   0.908   5.059
 3931SOL    HW212690   3.398   0.868   5.098
 3932SOL     OW12691   1.934   0.166   4.042
 3932SOL    HW112692   1.917   0.249   3.988
 3932SOL    HW212693   2.024   0.129   4.020
 3933SOL     OW12694   3.045   1.335   3.843
 3933SOL    HW112695   2.946   1.324   3.845
 3933SOL    HW212696   3.079   1.350   3.936
 3934SOL     OW12697   2.475   0.842   5.155
 3934SOL    HW112698   2.531   0.923   5.138
 3934SOL    HW212699   2.534   0.762   5.158
 3935SOL     OW12700   3.355   1.767   4.683
 3935SOL    HW112701   3.388   1.831   4.614
 3935SOL    HW212702   3.421   1.761   4.758
 3936SOL     OW12703   2.578   0.565   5.432
 3936SOL    HW112704   2.597   0.630   5.506
 3936SOL    HW212705   2.638   0.485   5.441
 3937SOL     OW12706   3.312   1.220   5.357
 3937SOL    HW112707   3.303   1.210   5.456
 3937SOL    HW212708   3.408   1.213   5.331
 3938SOL     OW12709   2.252   1.741   5.284
 3938SOL    HW112710   2.161   1.782   5.282
 3938SOL    HW212711   2.245   1.647   5.316
 3939SOL     OW12712   3.536   0.883   4.978
 3939SOL    HW112713   3.509   0.794   4.941
 3939SOL    HW212714   3.537   0.951   4.905
 3940SOL     OW12715   3.087   0.325   4.173
 3940SOL    HW112716   3.152   0.251   4.162
 3940SOL    HW212717   3.107   0.375   4.257
 3941SOL     OW12718   2.456   0.745   4.376
 3941SOL    HW112719   2.506   0.830   4.357
 3941SOL    HW212720   2.368   0.747   4.328
 3942SOL     OW12721   3.639   0.342   5.366
 3942SOL    HW112722   3.622   0.373   5.272
 3942SOL    HW212723   3.555   0.305   5.404
 3943SOL     OW12724   3.592   0.934   5.241
 3943SOL    HW112725   3.630   1.025   5.256
 3943SOL    HW212726   3.584   0.917   5.142
 3944SOL     OW12727   2.721   1.374   3.740
 3944SOL    HW112728   2.675   1.389   3.828
 3944SOL    HW212729   2.765   1.459   3.710
 3945SOL     OW12730   2.523   1.790   4.677
 3945SOL    HW112731   2.477   1.878   4.664
 3945SOL    HW212732   2.622   1.802   4.670
 3946SOL     OW12733   2.721   0.956   4.585
 3946SOL    HW112734   2.775   0.887   4.633
 3946SOL    HW212735   2.689   1.025   4.651
 3947SOL     OW12736   2.945   0.984   3.811
 3947SOL    HW112737   2.922   1.037   3.729
 3947SOL    HW212738   3.026   0.928   3.792
 3948SOL     OW12739   3.723   1.569   4.575
 3948SOL    HW112740   3.652   1.557   4.505
 3948SOL    HW212741   3.724   1.490   4.635
 3949SOL     OW12742   2.083   1.314   5.568
 3949SOL    HW112743   2.018   1.241   5.547
 3949SOL    HW212744   2.087   1.328   5.666
 3950SOL     OW12745   1.941   1.240   4.377
 3950SOL    HW112746   1.940   1.193   4.465
 3950SOL    HW212747   2.023   1.212   4.326
 3951SOL     OW12748   2.534   1.391   5.348
 3951SOL    HW112749   2.456   1.341   5.386
 3951SOL    HW212750   2.531   1.486   5.379
 3952SOL     OW12751   3.686   0.192   4.951
 3952SOL    HW112752   3.682   0.102   4.995
 3952SOL    HW212753   3.689   0.181   4.852
 3953SOL     OW12754   2.290   0.424   4.244
 3953SOL    HW112755   2.320   0.352   4.182
 3953SOL    HW212756   2.251   0.384   4.327
 3954SOL     OW12757   3.567   1.487   4.828
 3954SOL    HW112758   3.474   1.462   4.801
 3954SOL    HW212759   3.593   1.437   4.910
 3955SOL     OW12760   2.179   0.547   5.004
 3955SOL    HW112761   2.217   0.488   5.076
 3955SOL    HW212762   2.219   0.521   4.916
 3956SOL     OW12763   2.674   1.586   4.411
 3956SOL    HW112764   2.706   1.596   4.317
 3956SOL    HW212765   2.595   1.524   4.413
 3957SOL     OW12766   3.286   0.214   4.836
 3957SOL    HW112767   3.338   0.149   4.891
 3957SOL    HW212768   3.237   0.277   4.897
 3958SOL     OW12769   2.863   0.034   4.878
 3958SOL    HW112770   2.800  -0.038   4.847
 3958SOL    HW212771   2.956  -0.002   4.878
 3959SOL     OW12772   2.632   1.330   4.025
 3959SOL    HW112773   2.586   1.243   4.042
 3959SOL    HW212774   2.723   1.327   4.066
 3960SOL     OW12775   2.480   1.567   5.008
 3960SOL    HW112776   2.475   1.649   5.065
 3960SOL    HW212777   2.569   1.564   4.963
 3961SOL     OW12778   3.214   0.052   3.892
 3961SOL    HW112779   3.249   0.011   3.808
 3961SOL    HW212780   3.124   0.014   3.912
 3962SOL     OW12781   3.162   0.453   4.415
 3962SOL    HW112782   3.103   0.533   4.419
 3962SOL    HW212783   3.177   0.418   4.508
 3963SOL     OW12784   3.455   0.221   4.606
 3963SOL    HW112785   3.371   0.220   4.660
 3963SOL    HW212786   3.457   0.304   4.550
 3964SOL     OW12787   1.901   1.077   4.024
 3964SOL    HW112788   2.000   1.066   4.015
 3964SOL    HW212789   1.861   0.991   4.056
 3965SOL     OW12790   2.737   1.646   4.061
 3965SOL    HW112791   2.660   1.611   4.007
 3965SOL    HW212792   2.705   1.717   4.123
 3966SOL     OW12793   2.092   0.628   5.699
 3966SOL    HW112794   1.999   0.626   5.736
 3966SOL    HW212795   2.093   0.589   5.607
 3967SOL     OW12796   2.087   0.275   6.582
 3967SOL    HW112797   2.122   0.258   6.674
 3967SOL    HW212798   1.999   0.230   6.570
 3968SOL     OW12799   1.881   0.368   6.233
 3968SOL    HW112800   1.799   0.411   6.272
 3968SOL    HW212801   1.853   0.295   6.170
 3969SOL     OW12802   2.431   1.275   6.751
 3969SOL    HW112803   2.338   1.268   6.714
 3969SOL    HW212804   2.442   1.364   6.795
 3970SOL     OW12805   3.417   1.511   6.289
 3970SOL    HW112806   3.360   1.495   6.370
 3970SOL    HW212807   3.358   1.521   6.209
 3971SOL     OW12808   2.997   0.703   6.303
 3971SOL    HW112809   3.054   0.781   6.278
 3971SOL    HW212810   2.937   0.729   6.379
 3972SOL     OW12811   3.617   0.607   5.817
 3972SOL    HW112812   3.605   0.594   5.718
 3972SOL    HW212813   3.587   0.526   5.866
 3973SOL     OW12814   2.712   0.798   7.409
 3973SOL    HW112815   2.708   0.874   7.474
 3973SOL    HW212816   2.734   0.834   7.318
 3974SOL     OW12817   2.547   1.012   6.251
 3974SOL    HW112818   2.616   0.996   6.321
 3974SOL    HW212819   2.474   1.069   6.289
 3975SOL     OW12820   2.548   1.161   7.389
 3975SOL    HW112821   2.608   1.240   7.403
 3975SOL    HW212822   2.462   1.192   7.348
 3976SOL     OW12823   3.322   1.505   6.925
 3976SOL    HW112824   3.346   1.599   6.951
 3976SOL    HW212825   3.306   1.451   7.007
 3977SOL     OW12826   2.300   0.392   7.085
 3977SOL    HW112827   2.382   0.336   7.094
 3977SOL    HW212828   2.219   0.334   7.089
 3978SOL     OW12829   3.465   0.447   6.323
 3978SOL    HW112830   3.391   0.493   6.273
 3978SOL    HW212831   3.516   0.515   6.376
 3979SOL     OW12832   2.093   1.713   6.069
 3979SOL    HW112833   2.127   1.790   6.123
 3979SOL    HW212834   2.137   1.713   5.979
 3980SOL     OW12835   2.989   1.341   7.276
 3980SOL    HW112836   3.036   1.341   7.364
 3980SOL    HW212837   2.941   1.254   7.265
 3981SOL     OW12838   2.102   1.091   6.472
 3981SOL    HW112839   2.116   1.007   6.524
 3981SOL    HW212840   2.047   1.155   6.527
 3982SOL     OW12841   2.468   0.964   5.709
 3982SOL    HW112842   2.475   1.048   5.655
 3982SOL    HW212843   2.514   0.977   5.797
 3983SOL     OW12844   3.456   0.114   7.066
 3983SOL    HW112845   3.438   0.181   6.994
 3983SOL    HW212846   3.453   0.160   7.155
 3984SOL     OW12847   1.984   0.643   6.149
 3984SOL    HW112848   1.939   0.555   6.166
 3984SOL    HW212849   1.983   0.697   6.233
 3985SOL     OW12850   3.704   1.767   5.945
 3985SOL    HW112851   3.758   1.738   6.025
 3985SOL    HW212852   3.734   1.857   5.916
 3986SOL     OW12853   1.889   1.596   5.703
 3986SOL    HW112854   1.870   1.500   5.724
 3986SOL    HW212855   1.856   1.654   5.778
 3987SOL     OW12856   3.551   0.922   6.198
 3987SOL    HW112857   3.646   0.893   6.206
 3987SOL    HW212858   3.543   0.987   6.123
 3988SOL     OW12859   3.503   1.108   6.018
 3988SOL    HW112860   3.589   1.110   5.966
 3988SOL    HW212861   3.517   1.155   6.106
 3989SOL     OW12862   1.975   0.737   7.183
 3989SOL    HW112863   2.063   0.724   7.228
 3989SOL    HW212864   1.962   0.834   7.161
 3990SOL     OW12865   3.155   1.228   7.009
 3990SOL    HW112866   3.192   1.155   6.951
 3990SOL    HW212867   3.207   1.233   7.094
 3991SOL     OW12868   2.671   0.004   6.088
 3991SOL    HW112869   2.711   0.095   6.079
 3991SOL    HW212870   2.571   0.012   6.094
 3992SOL     OW12871   2.059   0.976   6.850
 3992SOL    HW112872   2.148   0.931   6.836
 3992SOL    HW212873   1.986   0.911   6.831
 3993SOL     OW12874   3.387   0.999   5.776
 3993SOL    HW112875   3.324   0.923   5.789
 3993SOL    HW212876   3.435   1.017   5.862
 3994SOL     OW12877   3.049   1.792   7.202
 3994SOL    HW112878   3.073   1.852   7.126
 3994SOL    HW212879   3.056   1.697   7.172
 3995SOL     OW12880   2.179   0.251   7.387
 3995SOL    HW112881   2.250   0.322   7.393
 3995SOL    HW212882   2.091   0.290   7.415
 3996SOL     OW12883   3.328   1.417   6.539
 3996SOL    HW112884   3.269   1.423   6.619
 3996SOL    HW212885   3.313   1.329   6.493
 3997SOL     OW12886   3.529   1.714   6.158
 3997SOL    HW112887   3.488   1.691   6.070
 3997SOL    HW212888   3.511   1.640   6.223
 3998SOL     OW12889   2.460   0.729   5.856
 3998SOL    HW112890   2.484   0.798   5.788
 3998SOL    HW212891   2.382   0.762   5.910
 3999SOL     OW12892   3.143   0.345   6.530
 3999SOL    HW112893   3.057   0.295   6.517
 3999SOL    HW212894   3.205   0.291   6.586
 4000SOL     OW12895   3.438   1.662   5.893
 4000SOL    HW112896   3.527   1.708   5.896
 4000SOL    HW212897   3.417   1.638   5.798
 4001SOL     OW12898   2.669   0.605   7.051
 4001SOL    HW112899   2.622   0.602   7.140
 4001SOL    HW212900   2.618   0.550   6.985
 4002SOL     OW12901   3.256   0.469   7.260
 4002SOL    HW112902   3.236   0.512   7.348
 4002SOL    HW212903   3.334   0.407   7.269
 4003SOL     OW12904   2.835   0.890   7.158
 4003SOL    HW112905   2.881   0.806   7.129
 4003SOL    HW212906   2.779   0.924   7.083
 4004SOL     OW12907   2.853   0.410   6.828
 4004SOL    HW112908   2.776   0.444   6.882
 4004SOL    HW212909   2.819   0.359   6.749
 4005SOL     OW12910   2.903   0.701   6.015
 4005SOL    HW112911   2.929   0.697   6.111
 4005SOL    HW212912   2.818   0.650   6.001
 4006SOL     OW12913   1.938   0.811   6.375
 4006SOL    HW112914   2.037   0.799   6.384
 4006SOL    HW212915   1.914   0.906   6.396
 4007SOL     OW12916   2.727   0.348   5.781
 4007SOL    HW112917   2.786   0.411   5.732
 4007SOL    HW212918   2.746   0.254   5.752
 4008SOL     OW12919   3.581   0.585   7.417
 4008SOL    HW112920   3.555   0.674   7.381
 4008SOL    HW212921   3.579   0.517   7.344
 4009SOL     OW12922   3.224   1.144   6.131
 4009SOL    HW112923   3.307   1.115   6.083
 4009SOL    HW212924   3.175   1.211   6.075
 4010SOL     OW12925   2.412   0.196   6.471
 4010SOL    HW112926   2.407   0.191   6.571
 4010SOL    HW212927   2.414   0.292   6.442
 4011SOL     OW12928   3.657   1.066   6.459
 4011SOL    HW112929   3.595   1.051   6.383
 4011SOL    HW212930   3.605   1.077   6.544
 4012SOL     OW12931   3.089   1.550   7.092
 4012SOL    HW112932   3.095   1.473   7.156
 4012SOL    HW212933   3.037   1.524   7.012
 4013SOL     OW12934   2.183   0.943   5.828
 4013SOL    HW112935   2.265   0.982   5.786
 4013SOL    HW212936   2.156   0.861   5.779
 4014SOL     OW12937   3.320   0.735   6.314
 4014SOL    HW112938   3.315   0.670   6.389
 4014SOL    HW212939   3.400   0.794   6.327
 4015SOL     OW12940   2.973   1.776   5.823
 4015SOL    HW112941   2.913   1.714   5.873
 4015SOL    HW212942   3.004   1.732   5.738
 4016SOL     OW12943   2.064   0.285   7.084
 4016SOL    HW112944   1.984   0.345   7.071
 4016SOL    HW212945   2.054   0.236   7.170
 4017SOL     OW12946   3.494   1.377   5.667
 4017SOL    HW112947   3.462   1.471   5.657
 4017SOL    HW212948   3.418   1.314   5.655
 4018SOL     OW12949   2.326   1.743   5.909
 4018SOL    HW112950   2.359   1.782   5.995
 4018SOL    HW212951   2.402   1.736   5.844
 4019SOL     OW12952   3.262   0.107   6.012
 4019SOL    HW112953   3.238   0.070   5.922
 4019SOL    HW212954   3.361   0.123   6.016
 4020SOL     OW12955   2.244   0.700   6.066
 4020SOL    HW112956   2.289   0.610   6.063
 4020SOL    HW212957   2.150   0.689   6.099
 4021SOL     OW12958   3.409   0.222   7.315
 4021SOL    HW112959   3.404   0.259   7.407
 4021SOL    HW212960   3.337   0.153   7.303
 4022SOL     OW12961   2.476   0.122   5.703
 4022SOL    HW112962   2.574   0.100   5.710
 4022SOL    HW212963   2.445   0.105   5.610
 4023SOL     OW12964   2.643   0.264   7.335
 4023SOL    HW112965   2.710   0.203   7.378
 4023SOL    HW212966   2.570   0.283   7.400
 4024SOL     OW12967   2.750   1.514   6.781
 4024SOL    HW112968   2.727   1.489   6.687
 4024SOL    HW212969   2.811   1.445   6.820
 4025SOL     OW12970   3.213   0.590   7.019
 4025SOL    HW112971   3.241   0.547   7.104
 4025SOL    HW212972   3.238   0.686   7.020
 4026SOL     OW12973   2.784   0.503   6.485
 4026SOL    HW112974   2.759   0.494   6.389
 4026SOL    HW212975   2.832   0.421   6.516
 4027SOL     OW12976   2.401   0.064   6.098
 4027SOL    HW112977   2.320   0.065   6.156
 4027SOL    HW212978   2.404   0.147   6.043
 4028SOL     OW12979   3.296   1.188   5.627
 4028SOL    HW112980   3.328   1.112   5.684
 4028SOL    HW212981   3.204   1.215   5.657
 4029SOL     OW12982   2.159   0.035   5.757
 4029SOL    HW112983   2.208   0.119   5.736
 4029SOL    HW212984   2.221  -0.030   5.802
 4030SOL     OW12985   2.797   0.236   6.066
 4030SOL    HW112986   2.749   0.277   5.988
 4030SOL    HW212987   2.896   0.234   6.047
 4031SOL     OW12988   2.938   0.683   7.050
 4031SOL    HW112989   2.858   0.622   7.053
 4031SOL    HW212990   3.019   0.630   7.026
 4032SOL     OW12991   3.089   1.570   6.379
 4032SOL    HW112992   3.110   1.644   6.314
 4032SOL    HW212993   3.157   1.570   6.452
 4033SOL     OW12994   3.133   1.797   6.177
 4033SOL    HW112995   3.177   1.861   6.113
 4033SOL    HW212996   3.083   1.849   6.247
 4034SOL     OW12997   2.894   0.549   5.602
 4034SOL    HW112998   2.853   0.631   5.563
 4034SOL    HW212999   2.958   0.575   5.675
 4035SOL     OW13000   1.940   0.556   6.972
 4035SOL    HW113001   2.032   0.555   6.931
 4035SOL    HW213002   1.934   0.630   7.039
 4036SOL     OW13003   2.423   0.222   6.733
 4036SOL    HW113004   2.461   0.138   6.770
 4036SOL    HW213005   2.335   0.241   6.777
 4037SOL     OW13006   2.728   0.454   6.228
 4037SOL    HW113007   2.696   0.526   6.166
 4037SOL    HW213008   2.752   0.373   6.175
 4038SOL     OW13009   2.879   0.039   6.339
 4038SOL    HW113010   2.807   0.044   6.270
 4038SOL    HW213011   2.855  -0.030   6.408
 4039SOL     OW13012   3.291   1.173   6.453
 4039SOL    HW113013   3.236   1.089   6.446
 4039SOL    HW213014   3.317   1.202   6.361
 4040SOL     OW13015   3.328   0.590   6.578
 4040SOL    HW113016   3.298   0.495   6.585
 4040SOL    HW213017   3.401   0.606   6.644
 4041SOL     OW13018   3.719   0.833   5.963
 4041SOL    HW113019   3.761   0.769   6.027
 4041SOL    HW213020   3.681   0.782   5.885
 4042SOL     OW13021   2.350   1.385   5.760
 4042SOL    HW113022   2.263   1.370   5.807
 4042SOL    HW213023   2.333   1.411   5.665
 4043SOL     OW13024   3.526   1.280   6.243
 4043SOL    HW113025   3.625   1.288   6.257
 4043SOL    HW213026   3.481   1.364   6.274
 4044SOL     OW13027   3.252   0.575   5.664
 4044SOL    HW113028   3.198   0.554   5.745
 4044SOL    HW213029   3.343   0.534   5.673
 4045SOL     OW13030   2.389   0.256   5.914
 4045SOL    HW113031   2.416   0.197   5.839
 4045SOL    HW213032   2.389   0.351   5.883
 4046SOL     OW13033   3.616   1.223   7.174
 4046SOL    HW113034   3.707   1.184   7.161
 4046SOL    HW213035   3.624   1.319   7.198
 4047SOL     OW13036   2.926   1.347   6.926
 4047SOL    HW113037   2.846   1.324   6.981
 4047SOL    HW213038   3.009   1.321   6.975
 4048SOL     OW13039   3.454   1.629   7.211
 4048SOL    HW113040   3.481   1.663   7.121
 4048SOL    HW213041   3.533   1.591   7.257
 4049SOL     OW13042   2.973   1.195   6.686
 4049SOL    HW113043   2.933   1.239   6.767
 4049SOL    HW213044   2.932   1.232   6.603
 4050SOL     OW13045   3.500   1.099   6.665
 4050SOL    HW113046   3.505   1.180   6.724
 4050SOL    HW213047   3.414   1.101   6.614
 4051SOL     OW13048   2.777   0.089   6.988
 4051SOL    HW113049   2.802   0.069   6.893
 4051SOL    HW213050   2.849   0.145   7.030
 4052SOL     OW13051   2.842   1.116   7.305
 4052SOL    HW113052   2.743   1.122   7.315
 4052SOL    HW213053   2.865   1.036   7.249
 4053SOL     OW13054   2.567   1.050   5.954
 4053SOL    HW113055   2.553   1.057   6.053
 4053SOL    HW213056   2.651   0.999   5.936
 4054SOL     OW13057   2.272   0.813   6.837
 4054SOL    HW113058   2.358   0.825   6.887
 4054SOL    HW213059   2.230   0.726   6.864
 4055SOL     OW13060   3.136   0.386   6.848
 4055SOL    HW113061   3.157   0.460   6.912
 4055SOL    HW213062   3.047   0.403   6.805
 4056SOL     OW13063   2.428   0.537   6.451
 4056SOL    HW113064   2.440   0.603   6.377
 4056SOL    HW213065   2.474   0.571   6.534
 4057SOL     OW13066   3.114   1.348   5.974
 4057SOL    HW113067   3.164   1.425   6.014
 4057SOL    HW213068   3.019   1.350   6.006
 4058SOL     OW13069   3.134   1.445   6.728
 4058SOL    HW113070   3.181   1.458   6.815
 4058SOL    HW213071   3.068   1.371   6.737
 4059SOL     OW13072   3.444   0.639   6.058
 4059SOL    HW113073   3.413   0.700   6.131
 4059SOL    HW213074   3.494   0.691   5.989
 4060SOL     OW13075   2.264   0.751   7.184
 4060SOL    HW113076   2.332   0.806   7.137
 4060SOL    HW213077   2.304   0.663   7.211
 4061SOL     OW13078   3.449   0.779   7.256
 4061SOL    HW113079   3.357   0.817   7.251
 4061SOL    HW213080   3.509   0.826   7.191
 4062SOL     OW13081   2.875   0.105   7.356
 4062SOL    HW113082   2.881   0.190   7.304
 4062SOL    HW213083   2.907   0.029   7.299
 4063SOL     OW13084   2.366   0.050   7.326
 4063SOL    HW113085   2.324  -0.007   7.256
 4063SOL    HW213086   2.300   0.119   7.358
 4064SOL     OW13087   2.435   0.870   6.615
 4064SOL    HW113088   2.479   0.959   6.606
 4064SOL    HW213089   2.372   0.870   6.692
 4065SOL     OW13090   3.222   0.862   6.631
 4065SOL    HW113091   3.147   0.862   6.565
 4065SOL    HW213092   3.259   0.770   6.640
 4066SOL     OW13093   3.071   0.525   5.861
 4066SOL    HW113094   3.084   0.441   5.915
 4066SOL    HW213095   3.042   0.599   5.921
 4067SOL     OW13096   2.169   0.213   6.817
 4067SOL    HW113097   2.146   0.250   6.907
 4067SOL    HW213098   2.139   0.118   6.811
 4068SOL     OW13099   1.899   1.310   6.868
 4068SOL    HW113100   1.952   1.261   6.936
 4068SOL    HW213101   1.921   1.408   6.873
 4069SOL     OW13102   2.594   0.634   6.650
 4069SOL    HW113103   2.653   0.608   6.574
 4069SOL    HW213104   2.566   0.730   6.639
 4070SOL     OW13105   3.590   0.935   7.440
 4070SOL    HW113106   3.544   0.928   7.351
 4070SOL    HW213107   3.528   0.979   7.506
 4071SOL     OW13108   2.169   0.063   6.204
 4071SOL    HW113109   2.158   0.157   6.237
 4071SOL    HW213110   2.164   0.000   6.281
 4072SOL     OW13111   3.484   0.367   5.960
 4072SOL    HW113112   3.486   0.291   6.024
 4072SOL    HW213113   3.436   0.444   6.000
 4073SOL     OW13114   2.885   0.766   6.552
 4073SOL    HW113115   2.900   0.787   6.648
 4073SOL    HW213116   2.855   0.671   6.543
 4074SOL     OW13117   3.721   1.518   7.191
 4074SOL    HW113118   3.735   1.545   7.096
 4074SOL    HW213119   3.804   1.540   7.244
 4075SOL     OW13120   2.212   0.898   7.390
 4075SOL    HW113121   2.288   0.942   7.438
 4075SOL    HW213122   2.247   0.851   7.308
 4076SOL     OW13123   3.402   0.274   5.711
 4076SOL    HW113124   3.341   0.199   5.734
 4076SOL    HW213125   3.424   0.326   5.794
 4077SOL     OW13126   3.165   0.838   5.628
 4077SOL    HW113127   3.199   0.745   5.643
 4077SOL    HW213128   3.183   0.865   5.533
 4078SOL     OW13129   2.930   1.333   6.435
 4078SOL    HW113130   2.937   1.249   6.380
 4078SOL    HW213131   2.992   1.402   6.399
 4079SOL     OW13132   2.181   0.810   6.535
 4079SOL    HW113133   2.274   0.846   6.540
 4079SOL    HW213134   2.175   0.725   6.587
 4080SOL     OW13135   2.201   0.509   6.592
 4080SOL    HW113136   2.149   0.426   6.575
 4080SOL    HW213137   2.278   0.514   6.528
 4081SOL     OW13138   3.000   0.380   7.264
 4081SOL    HW113139   2.955   0.443   7.328
 4081SOL    HW213140   3.093   0.411   7.247
 4082SOL     OW13141   3.022   0.207   7.063
 4082SOL    HW113142   3.022   0.271   7.140
 4082SOL    HW213143   3.050   0.255   6.980
 4083SOL     OW13144   2.864   0.796   6.824
 4083SOL    HW113145   2.905   0.764   6.910
 4083SOL    HW213146   2.768   0.769   6.821
 4084SOL     OW13147   1.902   0.544   6.700
 4084SOL    HW113148   1.987   0.511   6.659
 4084SOL    HW213149   1.915   0.559   6.798
 4085SOL     OW13150   2.051   0.520   7.308
 4085SOL    HW113151   2.110   0.480   7.238
 4085SOL    HW213152   1.993   0.591   7.267
 4086SOL     OW13153   3.231   0.950   7.246
 4086SOL    HW113154   3.270   1.039   7.266
 4086SOL    HW213155   3.241   0.930   7.149
 4087SOL     OW13156   2.677   0.572   5.911
 4087SOL    HW113157   2.684   0.483   5.865
 4087SOL    HW213158   2.583   0.606   5.903
 4088SOL     OW13159   3.519   0.604   6.792
 4088SOL    HW113160   3.481   0.535   6.854
 4088SOL    HW213161   3.601   0.568   6.748
 4089SOL     OW13162   2.533   0.464   6.855
 4089SOL    HW113163   2.499   0.375   6.825
 4089SOL    HW213164   2.559   0.518   6.775
 4090SOL     OW13165   2.335   0.500   5.777
 4090SOL    HW113166   2.396   0.580   5.781
 4090SOL    HW213167   2.240   0.531   5.784
 4091SOL     OW13168   2.021   1.137   7.052
 4091SOL    HW113169   2.043   1.076   7.128
 4091SOL    HW213170   2.031   1.088   6.966
 4092SOL     OW13171   3.209   1.059   6.820
 4092SOL    HW113172   3.233   0.996   6.746
 4092SOL    HW213173   3.119   1.099   6.802
 4093SOL     OW13174   3.164   0.855   5.895
 4093SOL    HW113175   3.078   0.824   5.937
 4093SOL    HW213176   3.160   0.841   5.796
 4094SOL     OW13177   3.621   1.747   6.740
 4094SOL    HW113178   3.682   1.777   6.667
 4094SOL    HW213179   3.583   1.658   6.718
 4095SOL     OW13180   3.114   1.731   6.714
 4095SOL    HW113181   3.198   1.736   6.660
 4095SOL    HW213182   3.091   1.635   6.732
 4096SOL     OW13183   1.945   1.258   6.608
 4096SOL    HW113184   1.940   1.257   6.708
 4096SOL    HW213185   1.862   1.217   6.570
 4097SOL     OW13186   3.588   0.135   6.109
 4097SOL    HW113187   3.661   0.118   6.042
 4097SOL    HW213188   3.557   0.048   6.147
 4098SOL     OW13189   3.250   1.573   6.063
 4098SOL    HW113190   3.317   1.585   5.989
 4098SOL    HW213191   3.210   1.662   6.086
 4099SOL     OW13192   3.142   0.927   6.258
 4099SOL    HW113193   3.202   0.846   6.260
 4099SOL    HW213194   3.182   0.996   6.198
 4100SOL     OW13195   2.692   1.273   7.008
 4100SOL    HW113196   2.687   1.306   7.103
 4100SOL    HW213197   2.606   1.292   6.962
 4101SOL     OW13198   2.534   1.616   5.740
 4101SOL    HW113199   2.543   1.626   5.641
 4101SOL    HW213200   2.494   1.527   5.761
 4102SOL     OW13201   3.512   1.720   6.980
 4102SOL    HW113202   3.565   1.730   6.896
 4102SOL    HW213203   3.485   1.810   7.014
 4103SOL     OW13204   3.703   0.175   6.549
 4103SOL    HW113205   3.742   0.090   6.513
 4103SOL    HW213206   3.605   0.177   6.530
 4104SOL     OW13207   2.125   0.326   6.306
 4104SOL    HW113208   2.046   0.377   6.272
 4104SOL    HW213209   2.116   0.311   6.404
 4105SOL     OW13210   3.056   1.612   5.617
 4105SOL    HW113211   3.062   1.519   5.654
 4105SOL    HW213212   2.997   1.612   5.537
 4106SOL     OW13213   2.684   1.002   6.958
 4106SOL    HW113214   2.724   1.001   6.866
 4106SOL    HW213215   2.694   1.094   6.998
 4107SOL     OW13216   2.778   0.910   5.877
 4107SOL    HW113217   2.841   0.948   5.809
 4107SOL    HW213218   2.818   0.827   5.916
 4108SOL     OW13219   3.366   1.607   5.630
 4108SOL    HW113220   3.274   1.644   5.637
 4108SOL    HW213221   3.404   1.627   5.540
 4109SOL     OW13222   3.476   1.292   6.875
 4109SOL    HW113223   3.536   1.295   6.955
 4109SOL    HW213224   3.401   1.356   6.888
 4110SOL     OW13225   2.901   1.098   6.282
 4110SOL    HW113226   2.831   1.051   6.336
 4110SOL    HW213227   2.960   1.030   6.239
 4111SOL     OW13228   2.876   0.236   6.557
 4111SOL    HW113229   2.868   0.200   6.464
 4111SOL    HW213230   2.874   0.160   6.622
 4112SOL     OW13231   2.452   1.487   6.077
 4112SOL    HW113232   2.494   1.429   6.007
 4112SOL    HW213233   2.408   1.566   6.033
 4113SOL     OW13234   3.571   0.385   6.967
 4113SOL    HW113235   3.644   0.454   6.971
 4113SOL    HW213236   3.599   0.310   6.908
 4114SOL     OW13237   1.967   1.013   7.312
 4114SOL    HW113238   1.890   0.980   7.366
 4114SOL    HW213239   2.052   0.983   7.354
 4115SOL     OW13240   2.534   0.203   7.075
 4115SOL    HW113241   2.624   0.187   7.035
 4115SOL    HW213242   2.542   0.208   7.174
 4116SOL     OW13243   1.937   0.345   5.619
 4116SOL    HW113244   1.845   0.317   5.590
 4116SOL    HW213245   1.968   0.422   5.563
 4117SOL     OW13246   3.302   0.856   6.984
 4117SOL    HW113247   3.245   0.908   6.921
 4117SOL    HW213248   3.398   0.868   6.960
 4118SOL     OW13249   1.934   0.166   5.904
 4118SOL    HW113250   1.917   0.249   5.850
 4118SOL    HW213251   2.024   0.129   5.882
 4119SOL     OW13252   3.045   1.335   5.705
 4119SOL    HW113253   2.946   1.324   5.707
 4119SOL    HW213254   3.079   1.350   5.798
 4120SOL     OW13255   2.475   0.842   7.017
 4120SOL    HW113256   2.531   0.923   7.000
 4120SOL    HW213257   2.534   0.762   7.020
 4121SOL     OW13258   3.355   1.767   6.545
 4121SOL    HW113259   3.388   1.831   6.476
 4121SOL    HW213260   3.421   1.761   6.620
 4122SOL     OW13261   2.578   0.565   7.294
 4122SOL    HW113262   2.597   0.630   7.368
 4122SOL    HW213263   2.638   0.485   7.303
 4123SOL     OW13264   3.312   1.220   7.219
 4123SOL    HW113265   3.303   1.210   7.318
 4123SOL    HW213266   3.408   1.213   7.193
 4124SOL     OW13267   3.536   0.883   6.840
 4124SOL    HW113268   3.509   0.794   6.803
 4124SOL    HW213269   3.537   0.951   6.767
 4125SOL     OW13270   3.087   0.325   6.035
 4125SOL    HW113271   3.152   0.251   6.024
 4125SOL    HW213272   3.107   0.375   6.119
 4126SOL     OW13273   2.456   0.745   6.238
 4126SOL    HW113274   2.506   0.830   6.219
 4126SOL    HW213275   2.368   0.747   6.190
 4127SOL     OW13276   3.639   0.342   7.228
 4127SOL    HW113277   3.622   0.373   7.134
 4127SOL    HW213278   3.555   0.305   7.266
 4128SOL     OW13279   3.592   0.934   7.103
 4128SOL    HW113280   3.630   1.025   7.118
 4128SOL    HW213281   3.584   0.917   7.004
 4129SOL     OW13282   2.721   1.374   5.602
 4129SOL    HW113283   2.675   1.389   5.690
 4129SOL    HW213284   2.765   1.459   5.572
 4130SOL     OW13285   2.721   0.956   6.447
 4130SOL    HW113286   2.775   0.887   6.495
 4130SOL    HW213287   2.689   1.025   6.513
 4131SOL     OW13288   2.945   0.984   5.673
 4131SOL    HW113289   2.922   1.037   5.591
 4131SOL    HW213290   3.026   0.928   5.654
 4132SOL     OW13291   3.723   1.569   6.437
 4132SOL    HW113292   3.652   1.557   6.367
 4132SOL    HW213293   3.724   1.490   6.497
 4133SOL     OW13294   3.686   0.192   6.813
 4133SOL    HW113295   3.682   0.102   6.857
 4133SOL    HW213296   3.689   0.181   6.714
 4134SOL     OW13297   2.290   0.424   6.106
 4134SOL    HW113298   2.320   0.352   6.044
 4134SOL    HW213299   2.251   0.384   6.189
 4135SOL     OW13300   3.567   1.487   6.690
 4135SOL    HW113301   3.474   1.462   6.663
 4135SOL    HW213302   3.593   1.437   6.772
 4136SOL     OW13303   2.179   0.547   6.866
 4136SOL    HW113304   2.217   0.488   6.938
 4136SOL    HW213305   2.219   0.521   6.778
 4137SOL     OW13306   3.286   0.214   6.698
 4137SOL    HW113307   3.338   0.149   6.753
 4137SOL    HW213308   3.237   0.277   6.759
 4138SOL     OW13309   2.863   0.034   6.740
 4138SOL    HW113310   2.800  -0.038   6.709
 4138SOL    HW213311   2.956  -0.002   6.740
 4139SOL     OW13312   2.632   1.330   5.887
 4139SOL    HW113313   2.586   1.243   5.904
 4139SOL    HW213314   2.723   1.327   5.928
 4140SOL     OW13315   3.214   0.052   5.754
 4140SOL    HW113316   3.249   0.011   5.670
 4140SOL    HW213317   3.124   0.014   5.774
 4141SOL     OW13318   3.162   0.453   6.277
 4141SOL    HW113319   3.103   0.533   6.281
 4141SOL    HW213320   3.177   0.418   6.370
 4142SOL     OW13321   3.455   0.221   6.468
 4142SOL    HW113322   3.371   0.220   6.522
 4142SOL    HW213323   3.457   0.304   6.412
 4143SOL     OW13324   1.901   1.077   5.886
 4143SOL    HW113325   2.000   1.066   5.877
 4143SOL    HW213326   1.861   0.991   5.918
 4144SOL     OW13327   2.737   1.646   5.923
 4144SOL    HW113328   2.660   1.611   5.869
 4144SOL    HW213329   2.705   1.717   5.985
 4145SOL     OW13330   2.092   0.628   7.561
 4145SOL    HW113331   1.999   0.626   7.598
 4145SOL    HW213332   2.093   0.589   7.469
 4146SOL     OW13333   2.087   0.275   8.444
 4146SOL    HW113334   2.122   0.258   8.536
 4146SOL    HW213335   1.999   0.230   8.432
 4147SOL     OW13336   1.881   0.368   8.095
 4147SOL    HW113337   1.799   0.411   8.134
 4147SOL    HW213338   1.853   0.295   8.032
 4148SOL     OW13339   2.431   1.275   8.613
 4148SOL    HW113340   2.338   1.268   8.576
 4148SOL    HW213341   2.442   1.364   8.657
 4149SOL     OW13342   3.417   1.511   8.151
 4149SOL    HW113343   3.360   1.495   8.232
 4149SOL    HW213344   3.358   1.521   8.071
 4150SOL     OW13345   2.997   0.703   8.165
 4150SOL    HW113346   3.054   0.781   8.140
 4150SOL    HW213347   2.937   0.729   8.241
 4151SOL     OW13348   3.617   0.607   7.679
 4151SOL    HW113349   3.605   0.594   7.580
 4151SOL    HW213350   3.587   0.526   7.728
 4152SOL     OW13351   2.630   1.144   8.471
 4152SOL    HW113352   2.552   1.161   8.531
 4152SOL    HW213353   2.664   1.231   8.435
 4153SOL     OW13354   2.712   0.798   9.271
 4153SOL    HW113355   2.708   0.874   9.336
 4153SOL    HW213356   2.734   0.834   9.180
 4154SOL     OW13357   2.547   1.012   8.113
 4154SOL    HW113358   2.616   0.996   8.183
 4154SOL    HW213359   2.474   1.069   8.151
 4155SOL     OW13360   2.548   1.161   9.251
 4155SOL    HW113361   2.608   1.240   9.265
 4155SOL    HW213362   2.462   1.192   9.210
 4156SOL     OW13363   2.197   1.435   8.509
 4156SOL    HW113364   2.119   1.404   8.456
 4156SOL    HW213365   2.255   1.493   8.452
 4157SOL     OW13366   3.322   1.505   8.787
 4157SOL    HW113367   3.346   1.599   8.813
 4157SOL    HW213368   3.306   1.451   8.869
 4158SOL     OW13369   2.300   0.392   8.947
 4158SOL    HW113370   2.382   0.336   8.956
 4158SOL    HW213371   2.219   0.334   8.951
 4159SOL     OW13372   3.465   0.447   8.185
 4159SOL    HW113373   3.391   0.493   8.135
 4159SOL    HW213374   3.516   0.515   8.238
 4160SOL     OW13375   2.989   1.341   9.138
 4160SOL    HW113376   3.036   1.341   9.226
 4160SOL    HW213377   2.941   1.254   9.127
 4161SOL     OW13378   2.102   1.091   8.334
 4161SOL    HW113379   2.116   1.007   8.386
 4161SOL    HW213380   2.047   1.155   8.389
 4162SOL     OW13381   2.482   1.786   8.887
 4162SOL    HW113382   2.390   1.769   8.922
 4162SOL    HW213383   2.510   1.878   8.913
 4163SOL     OW13384   2.468   0.964   7.571
 4163SOL    HW113385   2.475   1.048   7.517
 4163SOL    HW213386   2.514   0.977   7.659
 4164SOL     OW13387   3.456   0.114   8.928
 4164SOL    HW113388   3.438   0.181   8.856
 4164SOL    HW213389   3.453   0.160   9.017
 4165SOL     OW13390   1.984   0.643   8.011
 4165SOL    HW113391   1.939   0.555   8.028
 4165SOL    HW213392   1.983   0.697   8.095
 4166SOL     OW13393   3.704   1.767   7.807
 4166SOL    HW113394   3.758   1.738   7.887
 4166SOL    HW213395   3.734   1.857   7.778
 4167SOL     OW13396   3.551   0.922   8.060
 4167SOL    HW113397   3.646   0.893   8.068
 4167SOL    HW213398   3.543   0.987   7.985
 4168SOL     OW13399   3.503   1.108   7.880
 4168SOL    HW113400   3.589   1.110   7.828
 4168SOL    HW213401   3.517   1.155   7.968
 4169SOL     OW13402   1.975   0.737   9.045
 4169SOL    HW113403   2.063   0.724   9.090
 4169SOL    HW213404   1.962   0.834   9.023
 4170SOL     OW13405   2.475   1.365   8.174
 4170SOL    HW113406   2.426   1.278   8.183
 4170SOL    HW213407   2.452   1.408   8.087
 4171SOL     OW13408   3.155   1.228   8.871
 4171SOL    HW113409   3.192   1.155   8.813
 4171SOL    HW213410   3.207   1.233   8.956
 4172SOL     OW13411   2.671   0.004   7.950
 4172SOL    HW113412   2.711   0.095   7.941
 4172SOL    HW213413   2.571   0.012   7.956
 4173SOL     OW13414   2.059   0.976   8.712
 4173SOL    HW113415   2.148   0.931   8.698
 4173SOL    HW213416   1.986   0.911   8.693
 4174SOL     OW13417   3.387   0.999   7.638
 4174SOL    HW113418   3.324   0.923   7.651
 4174SOL    HW213419   3.435   1.017   7.724
 4175SOL     OW13420   3.049   1.792   9.064
 4175SOL    HW113421   3.073   1.852   8.988
 4175SOL    HW213422   3.056   1.697   9.034
 4176SOL     OW13423   2.179   0.251   9.249
 4176SOL    HW113424   2.250   0.322   9.255
 4176SOL    HW213425   2.091   0.290   9.277
 4177SOL     OW13426   3.328   1.417   8.401
 4177SOL    HW113427   3.269   1.423   8.481
 4177SOL    HW213428   3.313   1.329   8.355
 4178SOL     OW13429   3.529   1.714   8.020
 4178SOL    HW113430   3.488   1.691   7.932
 4178SOL    HW213431   3.511   1.640   8.085
 4179SOL     OW13432   2.460   0.729   7.718
 4179SOL    HW113433   2.484   0.798   7.650
 4179SOL    HW213434   2.382   0.762   7.772
 4180SOL     OW13435   3.143   0.345   8.392
 4180SOL    HW113436   3.057   0.295   8.379
 4180SOL    HW213437   3.205   0.291   8.448
 4181SOL     OW13438   3.438   1.662   7.755
 4181SOL    HW113439   3.527   1.708   7.758
 4181SOL    HW213440   3.417   1.638   7.660
 4182SOL     OW13441   2.669   0.605   8.913
 4182SOL    HW113442   2.622   0.602   9.002
 4182SOL    HW213443   2.618   0.550   8.847
 4183SOL     OW13444   3.256   0.469   9.122
 4183SOL    HW113445   3.236   0.512   9.210
 4183SOL    HW213446   3.334   0.407   9.131
 4184SOL     OW13447   2.835   0.890   9.020
 4184SOL    HW113448   2.881   0.806   8.991
 4184SOL    HW213449   2.779   0.924   8.945
 4185SOL     OW13450   2.853   0.410   8.690
 4185SOL    HW113451   2.776   0.444   8.744
 4185SOL    HW213452   2.819   0.359   8.611
 4186SOL     OW13453   2.903   0.701   7.877
 4186SOL    HW113454   2.929   0.697   7.973
 4186SOL    HW213455   2.818   0.650   7.863
 4187SOL     OW13456   1.938   0.811   8.237
 4187SOL    HW113457   2.037   0.799   8.246
 4187SOL    HW213458   1.914   0.906   8.258
 4188SOL     OW13459   2.727   0.348   7.643
 4188SOL    HW113460   2.786   0.411   7.594
 4188SOL    HW213461   2.746   0.254   7.614
 4189SOL     OW13462   3.581   0.585   9.279
 4189SOL    HW113463   3.555   0.674   9.243
 4189SOL    HW213464   3.579   0.517   9.206
 4190SOL     OW13465   3.224   1.144   7.993
 4190SOL    HW113466   3.307   1.115   7.945
 4190SOL    HW213467   3.175   1.211   7.937
 4191SOL     OW13468   2.412   0.196   8.333
 4191SOL    HW113469   2.407   0.191   8.433
 4191SOL    HW213470   2.414   0.292   8.304
 4192SOL     OW13471   2.870   1.456   7.925
 4192SOL    HW113472   2.824   1.528   7.873
 4192SOL    HW213473   2.866   1.476   8.023
 4193SOL     OW13474   2.213   1.801   8.301
 4193SOL    HW113475   2.263   1.715   8.307
 4193SOL    HW213476   2.278   1.878   8.298
 4194SOL     OW13477   3.657   1.066   8.321
 4194SOL    HW113478   3.595   1.051   8.245
 4194SOL    HW213479   3.605   1.077   8.406
 4195SOL     OW13480   3.089   1.550   8.954
 4195SOL    HW113481   3.095   1.473   9.018
 4195SOL    HW213482   3.037   1.524   8.874
 4196SOL     OW13483   2.183   0.943   7.690
 4196SOL    HW113484   2.265   0.982   7.648
 4196SOL    HW213485   2.156   0.861   7.641
 4197SOL     OW13486   3.320   0.735   8.176
 4197SOL    HW113487   3.315   0.670   8.251
 4197SOL    HW213488   3.400   0.794   8.189
 4198SOL     OW13489   2.323   1.266   9.175
 4198SOL    HW113490   2.273   1.267   9.089
 4198SOL    HW213491   2.260   1.248   9.251
 4199SOL     OW13492   2.973   1.776   7.685
 4199SOL    HW113493   2.913   1.714   7.735
 4199SOL    HW213494   3.004   1.732   7.600
 4200SOL     OW13495   2.064   0.285   8.946
 4200SOL    HW113496   1.984   0.345   8.933
 4200SOL    HW213497   2.054   0.236   9.032
 4201SOL     OW13498   3.494   1.377   7.529
 4201SOL    HW113499   3.462   1.471   7.519
 4201SOL    HW213500   3.418   1.314   7.517
 4202SOL     OW13501   3.262   0.107   7.874
 4202SOL    HW113502   3.238   0.070   7.784
 4202SOL    HW213503   3.361   0.123   7.878
 4203SOL     OW13504   2.111   1.785   8.689
 4203SOL    HW113505   2.168   1.720   8.739
 4203SOL    HW213506   2.095   1.752   8.596
 4204SOL     OW13507   2.802   1.698   8.352
 4204SOL    HW113508   2.882   1.641   8.373
 4204SOL    HW213509   2.753   1.658   8.275
 4205SOL     OW13510   2.244   0.700   7.928
 4205SOL    HW113511   2.289   0.610   7.925
 4205SOL    HW213512   2.150   0.689   7.961
 4206SOL     OW13513   3.409   0.222   9.177
 4206SOL    HW113514   3.404   0.259   9.269
 4206SOL    HW213515   3.337   0.153   9.165
 4207SOL     OW13516   2.476   0.122   7.565
 4207SOL    HW113517   2.574   0.100   7.572
 4207SOL    HW213518   2.445   0.105   7.472
 4208SOL     OW13519   2.643   0.264   9.197
 4208SOL    HW113520   2.710   0.203   9.240
 4208SOL    HW213521   2.570   0.283   9.262
 4209SOL     OW13522   2.750   1.514   8.643
 4209SOL    HW113523   2.727   1.489   8.549
 4209SOL    HW213524   2.811   1.445   8.682
 4210SOL     OW13525   3.213   0.590   8.881
 4210SOL    HW113526   3.241   0.547   8.966
 4210SOL    HW213527   3.238   0.686   8.882
 4211SOL     OW13528   2.665   1.402   8.372
 4211SOL    HW113529   2.755   1.416   8.330
 4211SOL    HW213530   2.594   1.404   8.301
 4212SOL     OW13531   2.784   0.503   8.347
 4212SOL    HW113532   2.759   0.494   8.251
 4212SOL    HW213533   2.832   0.421   8.378
 4213SOL     OW13534   2.401   0.064   7.960
 4213SOL    HW113535   2.320   0.065   8.018
 4213SOL    HW213536   2.404   0.147   7.905
 4214SOL     OW13537   3.296   1.188   7.489
 4214SOL    HW113538   3.328   1.112   7.546
 4214SOL    HW213539   3.204   1.215   7.519
 4215SOL     OW13540   2.159   0.035   7.619
 4215SOL    HW113541   2.208   0.119   7.598
 4215SOL    HW213542   2.221  -0.030   7.664
 4216SOL     OW13543   2.797   0.236   7.928
 4216SOL    HW113544   2.749   0.277   7.850
 4216SOL    HW213545   2.896   0.234   7.909
 4217SOL     OW13546   2.938   0.683   8.912
 4217SOL    HW113547   2.858   0.622   8.915
 4217SOL    HW213548   3.019   0.630   8.888
 4218SOL     OW13549   3.089   1.570   8.241
 4218SOL    HW113550   3.110   1.644   8.176
 4218SOL    HW213551   3.157   1.570   8.314
 4219SOL     OW13552   2.321   1.152   8.189
 4219SOL    HW113553   2.250   1.125   8.254
 4219SOL    HW213554   2.295   1.124   8.096
 4220SOL     OW13555   3.133   1.797   8.039
 4220SOL    HW113556   3.177   1.861   7.975
 4220SOL    HW213557   3.083   1.849   8.109
 4221SOL     OW13558   2.894   0.549   7.464
 4221SOL    HW113559   2.853   0.631   7.425
 4221SOL    HW213560   2.958   0.575   7.537
 4222SOL     OW13561   1.940   0.556   8.834
 4222SOL    HW113562   2.032   0.555   8.793
 4222SOL    HW213563   1.934   0.630   8.901
 4223SOL     OW13564   2.423   0.222   8.595
 4223SOL    HW113565   2.461   0.138   8.632
 4223SOL    HW213566   2.335   0.241   8.639
 4224SOL     OW13567   2.728   0.454   8.090
 4224SOL    HW113568   2.696   0.526   8.028
 4224SOL    HW213569   2.752   0.373   8.037
 4225SOL     OW13570   2.879   0.039   8.201
 4225SOL    HW113571   2.807   0.044   8.132
 4225SOL    HW213572   2.855  -0.030   8.270
 4226SOL     OW13573   3.291   1.173   8.315
 4226SOL    HW113574   3.236   1.089   8.308
 4226SOL    HW213575   3.317   1.202   8.223
 4227SOL     OW13576   3.328   0.590   8.440
 4227SOL    HW113577   3.298   0.495   8.447
 4227SOL    HW213578   3.401   0.606   8.506
 4228SOL     OW13579   3.719   0.833   7.825
 4228SOL    HW113580   3.761   0.769   7.889
 4228SOL    HW213581   3.681   0.782   7.747
 4229SOL     OW13582   3.526   1.280   8.105
 4229SOL    HW113583   3.625   1.288   8.119
 4229SOL    HW213584   3.481   1.364   8.136
 4230SOL     OW13585   3.252   0.575   7.526
 4230SOL    HW113586   3.198   0.554   7.607
 4230SOL    HW213587   3.343   0.534   7.535
 4231SOL     OW13588   2.389   0.256   7.776
 4231SOL    HW113589   2.416   0.197   7.701
 4231SOL    HW213590   2.389   0.351   7.745
 4232SOL     OW13591   3.616   1.223   9.036
 4232SOL    HW113592   3.707   1.184   9.023
 4232SOL    HW213593   3.624   1.319   9.060
 4233SOL     OW13594   2.926   1.347   8.788
 4233SOL    HW113595   2.846   1.324   8.843
 4233SOL    HW213596   3.009   1.321   8.837
 4234SOL     OW13597   3.454   1.629   9.073
 4234SOL    HW113598   3.481   1.663   8.983
 4234SOL    HW213599   3.533   1.591   9.119
 4235SOL     OW13600   2.973   1.195   8.548
 4235SOL    HW113601   2.933   1.239   8.629
 4235SOL    HW213602   2.932   1.232   8.465
 4236SOL     OW13603   3.500   1.099   8.527
 4236SOL    HW113604   3.505   1.180   8.586
 4236SOL    HW213605   3.414   1.101   8.476
 4237SOL     OW13606   2.777   0.089   8.850
 4237SOL    HW113607   2.802   0.069   8.755
 4237SOL    HW213608   2.849   0.145   8.892
 4238SOL     OW13609   2.842   1.116   9.167
 4238SOL    HW113610   2.743   1.122   9.177
 4238SOL    HW213611   2.865   1.036   9.111
 4239SOL     OW13612   2.567   1.050   7.816
 4239SOL    HW113613   2.553   1.057   7.915
 4239SOL    HW213614   2.651   0.999   7.798
 4240SOL     OW13615   2.272   0.813   8.699
 4240SOL    HW113616   2.358   0.825   8.749
 4240SOL    HW213617   2.230   0.726   8.726
 4241SOL     OW13618   3.136   0.386   8.710
 4241SOL    HW113619   3.157   0.460   8.774
 4241SOL    HW213620   3.047   0.403   8.667
 4242SOL     OW13621   1.926   1.564   8.779
 4242SOL    HW113622   1.880   1.646   8.745
 4242SOL    HW213623   2.024   1.583   8.788
 4243SOL     OW13624   2.229   1.100   7.949
 4243SOL    HW113625   2.222   1.183   7.893
 4243SOL    HW213626   2.233   1.020   7.889
 4244SOL     OW13627   2.428   0.537   8.313
 4244SOL    HW113628   2.440   0.603   8.239
 4244SOL    HW213629   2.474   0.571   8.396
 4245SOL     OW13630   3.114   1.348   7.836
 4245SOL    HW113631   3.164   1.425   7.876
 4245SOL    HW213632   3.019   1.350   7.868
 4246SOL     OW13633   3.134   1.445   8.590
 4246SOL    HW113634   3.181   1.458   8.677
 4246SOL    HW213635   3.068   1.371   8.599
 4247SOL     OW13636   3.444   0.639   7.920
 4247SOL    HW113637   3.413   0.700   7.993
 4247SOL    HW213638   3.494   0.691   7.851
 4248SOL     OW13639   2.216   1.510   8.777
 4248SOL    HW113640   2.195   1.466   8.690
 4248SOL    HW213641   2.313   1.536   8.780
 4249SOL     OW13642   2.264   0.751   9.046
 4249SOL    HW113643   2.332   0.806   8.999
 4249SOL    HW213644   2.304   0.663   9.073
 4250SOL     OW13645   3.449   0.779   9.118
 4250SOL    HW113646   3.357   0.817   9.113
 4250SOL    HW213647   3.509   0.826   9.053
 4251SOL     OW13648   2.875   0.105   9.218
 4251SOL    HW113649   2.881   0.190   9.166
 4251SOL    HW213650   2.907   0.029   9.161
 4252SOL     OW13651   2.366   0.050   9.188
 4252SOL    HW113652   2.324  -0.007   9.118
 4252SOL    HW213653   2.300   0.119   9.220
 4253SOL     OW13654   2.435   0.870   8.477
 4253SOL    HW113655   2.479   0.959   8.468
 4253SOL    HW213656   2.372   0.870   8.554
 4254SOL     OW13657   3.222   0.862   8.493
 4254SOL    HW113658   3.147   0.862   8.427
 4254SOL    HW213659   3.259   0.770   8.502
 4255SOL     OW13660   3.071   0.525   7.723
 4255SOL    HW113661   3.084   0.441   7.777
 4255SOL    HW213662   3.042   0.599   7.783
 4256SOL     OW13663   2.169   0.213   8.679
 4256SOL    HW113664   2.146   0.250   8.769
 4256SOL    HW213665   2.139   0.118   8.673
 4257SOL     OW13666   1.899   1.310   8.730
 4257SOL    HW113667   1.952   1.261   8.798
 4257SOL    HW213668   1.921   1.408   8.735
 4258SOL     OW13669   2.594   0.634   8.512
 4258SOL    HW113670   2.653   0.608   8.436
 4258SOL    HW213671   2.566   0.730   8.501
 4259SOL     OW13672   3.590   0.935   9.302
 4259SOL    HW113673   3.544   0.928   9.213
 4259SOL    HW213674   3.528   0.979   9.368
 4260SOL     OW13675   2.169   0.063   8.066
 4260SOL    HW113676   2.158   0.157   8.099
 4260SOL    HW213677   2.164   0.000   8.143
 4261SOL     OW13678   3.484   0.367   7.822
 4261SOL    HW113679   3.486   0.291   7.886
 4261SOL    HW213680   3.436   0.444   7.862
 4262SOL     OW13681   2.885   0.766   8.414
 4262SOL    HW113682   2.900   0.787   8.510
 4262SOL    HW213683   2.855   0.671   8.405
 4263SOL     OW13684   2.842   1.573   9.148
 4263SOL    HW113685   2.822   1.617   9.060
 4263SOL    HW213686   2.881   1.482   9.132
 4264SOL     OW13687   3.721   1.518   9.053
 4264SOL    HW113688   3.735   1.545   8.958
 4264SOL    HW213689   3.804   1.540   9.106
 4265SOL     OW13690   2.212   0.898   9.252
 4265SOL    HW113691   2.288   0.942   9.300
 4265SOL    HW213692   2.247   0.851   9.170
 4266SOL     OW13693   3.402   0.274   7.573
 4266SOL    HW113694   3.341   0.199   7.596
 4266SOL    HW213695   3.424   0.326   7.656
 4267SOL     OW13696   3.165   0.838   7.490
 4267SOL    HW113697   3.199   0.745   7.505
 4267SOL    HW213698   3.183   0.865   7.395
 4268SOL     OW13699   2.930   1.333   8.297
 4268SOL    HW113700   2.937   1.249   8.242
 4268SOL    HW213701   2.992   1.402   8.261
 4269SOL     OW13702   2.181   0.810   8.397
 4269SOL    HW113703   2.274   0.846   8.402
 4269SOL    HW213704   2.175   0.725   8.449
 4270SOL     OW13705   2.201   0.509   8.454
 4270SOL    HW113706   2.149   0.426   8.437
 4270SOL    HW213707   2.278   0.514   8.390
 4271SOL     OW13708   3.000   0.380   9.126
 4271SOL    HW113709   2.955   0.443   9.190
 4271SOL    HW213710   3.093   0.411   9.109
 4272SOL     OW13711   3.022   0.207   8.925
 4272SOL    HW113712   3.022   0.271   9.002
 4272SOL    HW213713   3.050   0.255   8.842
 4273SOL     OW13714   2.366   1.568   8.358
 4273SOL    HW113715   2.432   1.642   8.367
 4273SOL    HW213716   2.410   1.489   8.316
 4274SOL     OW13717   2.864   0.796   8.686
 4274SOL    HW113718   2.905   0.764   8.772
 4274SOL    HW213719   2.768   0.769   8.683
 4275SOL     OW13720   1.902   0.544   8.562
 4275SOL    HW113721   1.987   0.511   8.521
 4275SOL    HW213722   1.915   0.559   8.660
 4276SOL     OW13723   2.051   0.520   9.170
 4276SOL    HW113724   2.110   0.480   9.100
 4276SOL    HW213725   1.993   0.591   9.129
 4277SOL     OW13726   3.231   0.950   9.108
 4277SOL    HW113727   3.270   1.039   9.128
 4277SOL    HW213728   3.241   0.930   9.011
 4278SOL     OW13729   2.677   0.572   7.773
 4278SOL    HW113730   2.684   0.483   7.727
 4278SOL    HW213731   2.583   0.606   7.765
 4279SOL     OW13732   3.519   0.604   8.654
 4279SOL    HW113733   3.481   0.535   8.716
 4279SOL    HW213734   3.601   0.568   8.610
 4280SOL     OW13735   2.114   1.564   9.192
 4280SOL    HW113736   2.084   1.621   9.268
 4280SOL    HW213737   2.107   1.467   9.218
 4281SOL     OW13738   2.533   0.464   8.717
 4281SOL    HW113739   2.499   0.375   8.687
 4281SOL    HW213740   2.559   0.518   8.637
 4282SOL     OW13741   2.792   1.678   8.913
 4282SOL    HW113742   2.768   1.660   8.818
 4282SOL    HW213743   2.822   1.772   8.923
 4283SOL     OW13744   2.335   0.500   7.639
 4283SOL    HW113745   2.396   0.580   7.643
 4283SOL    HW213746   2.240   0.531   7.646
 4284SOL     OW13747   2.021   1.137   8.914
 4284SOL    HW113748   2.043   1.076   8.990
 4284SOL    HW213749   2.031   1.088   8.828
 4285SOL     OW13750   3.209   1.059   8.682
 4285SOL    HW113751   3.233   0.996   8.608
 4285SOL    HW213752   3.119   1.099   8.664
 4286SOL     OW13753   3.164   0.855   7.757
 4286SOL    HW113754   3.078   0.824   7.799
 4286SOL    HW213755   3.160   0.841   7.658
 4287SOL     OW13756   3.621   1.747   8.602
 4287SOL    HW113757   3.682   1.777   8.529
 4287SOL    HW213758   3.583   1.658   8.580
 4288SOL     OW13759   3.114   1.731   8.576
 4288SOL    HW113760   3.198   1.736   8.522
 4288SOL    HW213761   3.091   1.635   8.594
 4289SOL     OW13762   1.945   1.258   8.470
 4289SOL    HW113763   1.940   1.257   8.570
 4289SOL    HW213764   1.862   1.217   8.432
 4290SOL     OW13765   2.550   1.662   9.164
 4290SOL    HW113766   2.494   1.743   9.173
 4290SOL    HW213767   2.602   1.666   9.078
 4291SOL     OW13768   3.588   0.135   7.971
 4291SOL    HW113769   3.661   0.118   7.904
 4291SOL    HW213770   3.557   0.048   8.009
 4292SOL     OW13771   3.250   1.573   7.925
 4292SOL    HW113772   3.317   1.585   7.851
 4292SOL    HW213773   3.210   1.662   7.948
 4293SOL     OW13774   3.142   0.927   8.120
 4293SOL    HW113775   3.202   0.846   8.122
 4293SOL    HW213776   3.182   0.996   8.060
 4294SOL     OW13777   2.692   1.273   8.870
 4294SOL    HW113778   2.687   1.306   8.965
 4294SOL    HW213779   2.606   1.292   8.824
 4295SOL     OW13780   3.512   1.720   8.842
 4295SOL    HW113781   3.565   1.730   8.758
 4295SOL    HW213782   3.485   1.810   8.876
 4296SOL     OW13783   3.703   0.175   8.411
 4296SOL    HW113784   3.742   0.090   8.375
 4296SOL    HW213785   3.605   0.177   8.392
 4297SOL     OW13786   2.125   0.326   8.168
 4297SOL    HW113787   2.046   0.377   8.134
 4297SOL    HW213788   2.116   0.311   8.266
 4298SOL     OW13789   3.056   1.612   7.479
 4298SOL    HW113790   3.062   1.519   7.516
 4298SOL    HW213791   2.997   1.612   7.399
 4299SOL     OW13792   2.684   1.002   8.820
 4299SOL    HW113793   2.724   1.001   8.728
 4299SOL    HW213794   2.694   1.094   8.860
 4300SOL     OW13795   2.778   0.910   7.739
 4300SOL    HW113796   2.841   0.948   7.671
 4300SOL    HW213797   2.818   0.827   7.778
 4301SOL     OW13798   3.366   1.607   7.492
 4301SOL    HW113799   3.274   1.644   7.499
 4301SOL    HW213800   3.404   1.627   7.402
 4302SOL     OW13801   2.234   1.288   8.938
 4302SOL    HW113802   2.221   1.381   8.904
 4302SOL    HW213803   2.150   1.236   8.925
 4303SOL     OW13804   3.476   1.292   8.737
 4303SOL    HW113805   3.536   1.295   8.817
 4303SOL    HW213806   3.401   1.356   8.750
 4304SOL     OW13807   2.901   1.098   8.144
 4304SOL    HW113808   2.831   1.051   8.198
 4304SOL    HW213809   2.960   1.030   8.101
 4305SOL     OW13810   2.876   0.236   8.419
 4305SOL    HW113811   2.868   0.200   8.326
 4305SOL    HW213812   2.874   0.160   8.484
 4306SOL     OW13813   3.571   0.385   8.829
 4306SOL    HW113814   3.644   0.454   8.833
 4306SOL    HW213815   3.599   0.310   8.770
 4307SOL     OW13816   1.967   1.013   9.174
 4307SOL    HW113817   1.890   0.980   9.228
 4307SOL    HW213818   2.052   0.983   9.216
 4308SOL     OW13819   2.534   0.203   8.937
 4308SOL    HW113820   2.624   0.187   8.897
 4308SOL    HW213821   2.542   0.208   9.036
 4309SOL     OW13822   1.937   0.345   7.481
 4309SOL    HW113823   1.845   0.317   7.452
 4309SOL    HW213824   1.968   0.422   7.425
 4310SOL     OW13825   3.302   0.856   8.846
 4310SOL    HW113826   3.245   0.908   8.783
 4310SOL    HW213827   3.398   0.868   8.822
 4311SOL     OW13828   1.934   0.166   7.766
 4311SOL    HW113829   1.917   0.249   7.712
 4311SOL    HW213830   2.024   0.129   7.744
 4312SOL     OW13831   3.045   1.335   7.567
 4312SOL    HW113832   2.946   1.324   7.569
 4312SOL    HW213833   3.079   1.350   7.660
 4313SOL     OW13834   2.475   0.842   8.879
 4313SOL    HW113835   2.531   0.923   8.862
 4313SOL    HW213836   2.534   0.762   8.882
 4314SOL     OW13837   3.355   1.767   8.407
 4314SOL    HW113838   3.388   1.831   8.338
 4314SOL    HW213839   3.421   1.761   8.482
 4315SOL     OW13840   2.578   0.565   9.156
 4315SOL    HW113841   2.597   0.630   9.230
 4315SOL    HW213842   2.638   0.485   9.165
 4316SOL     OW13843   3.312   1.220   9.081
 4316SOL    HW113844   3.303   1.210   9.180
 4316SOL    HW213845   3.408   1.213   9.055
 4317SOL     OW13846   2.252   1.741   9.008
 4317SOL    HW113847   2.161   1.782   9.006
 4317SOL    HW213848   2.245   1.647   9.040
 4318SOL     OW13849   3.536   0.883   8.702
 4318SOL    HW113850   3.509   0.794   8.665
 4318SOL    HW213851   3.537   0.951   8.629
 4319SOL     OW13852   3.087   0.325   7.897
 4319SOL    HW113853   3.152   0.251   7.886
 4319SOL    HW213854   3.107   0.375   7.981
 4320SOL     OW13855   2.456   0.745   8.100
 4320SOL    HW113856   2.506   0.830   8.081
 4320SOL    HW213857   2.368   0.747   8.052
 4321SOL     OW13858   3.639   0.342   9.090
 4321SOL    HW113859   3.622   0.373   8.996
 4321SOL    HW213860   3.555   0.305   9.128
 4322SOL     OW13861   3.592   0.934   8.965
 4322SOL    HW113862   3.630   1.025   8.980
 4322SOL    HW213863   3.584   0.917   8.866
 4323SOL     OW13864   2.721   1.374   7.464
 4323SOL    HW113865   2.675   1.389   7.552
 4323SOL    HW213866   2.765   1.459   7.434
 4324SOL     OW13867   2.523   1.790   8.401
 4324SOL    HW113868   2.477   1.878   8.388
 4324SOL    HW213869   2.622   1.802   8.394
 4325SOL     OW13870   2.721   0.956   8.309
 4325SOL    HW113871   2.775   0.887   8.357
 4325SOL    HW213872   2.689   1.025   8.375
 4326SOL     OW13873   2.945   0.984   7.535
 4326SOL    HW113874   2.922   1.037   7.453
 4326SOL    HW213875   3.026   0.928   7.516
 4327SOL     OW13876   3.723   1.569   8.299
 4327SOL    HW113877   3.652   1.557   8.229
 4327SOL    HW213878   3.724   1.490   8.359
 4328SOL     OW13879   2.083   1.314   9.292
 4328SOL    HW113880   2.018   1.241   9.271
 4328SOL    HW213881   2.087   1.328   9.390
 4329SOL     OW13882   2.534   1.391   9.072
 4329SOL    HW113883   2.456   1.341   9.110
 4329SOL    HW213884   2.531   1.486   9.103
 4330SOL     OW13885   3.686   0.192   8.675
 4330SOL    HW113886   3.682   0.102   8.719
 4330SOL    HW213887   3.689   0.181   8.576
 4331SOL     OW13888   2.290   0.424   7.968
 4331SOL    HW113889   2.320   0.352   7.906
 4331SOL    HW213890   2.251   0.384   8.051
 4332SOL     OW13891   3.567   1.487   8.552
 4332SOL    HW113892   3.474   1.462   8.525
 4332SOL    HW213893   3.593   1.437   8.634
 4333SOL     OW13894   2.179   0.547   8.728
 4333SOL    HW113895   2.217   0.488   8.800
 4333SOL    HW213896   2.219   0.521   8.640
 4334SOL     OW13897   3.286   0.214   8.560
 4334SOL    HW113898   3.338   0.149   8.615
 4334SOL    HW213899   3.237   0.277   8.621
 4335SOL     OW13900   2.863   0.034   8.602
 4335SOL    HW113901   2.800  -0.038   8.571
 4335SOL    HW213902   2.956  -0.002   8.602
 4336SOL     OW13903   2.632   1.330   7.749
 4336SOL    HW113904   2.586   1.243   7.766
 4336SOL    HW213905   2.723   1.327   7.790
 4337SOL     OW13906   2.480   1.567   8.732
 4337SOL    HW113907   2.475   1.649   8.789
 4337SOL    HW213908   2.569   1.564   8.687
 4338SOL     OW13909   3.214   0.052   7.616
 4338SOL    HW113910   3.249   0.011   7.532
 4338SOL    HW213911   3.124   0.014   7.636
 4339SOL     OW13912   3.162   0.453   8.139
 4339SOL    HW113913   3.103   0.533   8.143
 4339SOL    HW213914   3.177   0.418   8.232
 4340SOL     OW13915   3.455   0.221   8.330
 4340SOL    HW113916   3.371   0.220   8.384
 4340SOL    HW213917   3.457   0.304   8.274
 4341SOL     OW13918   1.901   1.077   7.748
 4341SOL    HW113919   2.000   1.066   7.739
 4341SOL    HW213920   1.861   0.991   7.780
 4342SOL     OW13921   2.092   0.628   9.423
 4342SOL    HW113922   1.999   0.626   9.460
 4342SOL    HW213923   2.093   0.589   9.331
 4343SOL     OW13924   2.087   0.275  10.306
 4343SOL    HW113925   2.122   0.258  10.398
 4343SOL    HW213926   1.999   0.230  10.294
 4344SOL     OW13927   1.881   0.368   9.957
 4344SOL    HW113928   1.799   0.411   9.996
 4344SOL    HW213929   1.853   0.295   9.894
 4345SOL     OW13930   2.431   1.275  10.475
 4345SOL    HW113931   2.338   1.268  10.438
 4345SOL    HW213932   2.442   1.364  10.519
 4346SOL     OW13933   3.417   1.511  10.013
 4346SOL    HW113934   3.360   1.495  10.094
 4346SOL    HW213935   3.358   1.521   9.933
 4347SOL     OW13936   2.997   0.703  10.027
 4347SOL    HW113937   3.054   0.781  10.002
 4347SOL    HW213938   2.937   0.729  10.103
 4348SOL     OW13939   3.617   0.607   9.541
 4348SOL    HW113940   3.605   0.594   9.442
 4348SOL    HW213941   3.587   0.526   9.590
 4349SOL     OW13942   2.630   1.144  10.333
 4349SOL    HW113943   2.552   1.161  10.393
 4349SOL    HW213944   2.664   1.231  10.297
 4350SOL     OW13945   2.712   0.798  11.133
 4350SOL    HW113946   2.708   0.874  11.198
 4350SOL    HW213947   2.734   0.834  11.042
 4351SOL     OW13948   2.547   1.012   9.975
 4351SOL    HW113949   2.616   0.996  10.045
 4351SOL    HW213950   2.474   1.069  10.013
 4352SOL     OW13951   2.548   1.161  11.113
 4352SOL    HW113952   2.608   1.240  11.127
 4352SOL    HW213953   2.462   1.192  11.072
 4353SOL     OW13954   2.197   1.435  10.371
 4353SOL    HW113955   2.119   1.404  10.318
 4353SOL    HW213956   2.255   1.493  10.314
 4354SOL     OW13957   3.322   1.505  10.649
 4354SOL    HW113958   3.346   1.599  10.675
 4354SOL    HW213959   3.306   1.451  10.731
 4355SOL     OW13960   2.300   0.392  10.809
 4355SOL    HW113961   2.382   0.336  10.818
 4355SOL    HW213962   2.219   0.334  10.813
 4356SOL     OW13963   3.465   0.447  10.047
 4356SOL    HW113964   3.391   0.493   9.997
 4356SOL    HW213965   3.516   0.515  10.100
 4357SOL     OW13966   2.093   1.713   9.793
 4357SOL    HW113967   2.127   1.790   9.847
 4357SOL    HW213968   2.137   1.713   9.703
 4358SOL     OW13969   2.989   1.341  11.000
 4358SOL    HW113970   3.036   1.341  11.088
 4358SOL    HW213971   2.941   1.254  10.989
 4359SOL     OW13972   2.092   1.434   9.848
 4359SOL    HW113973   2.066   1.530   9.848
 4359SOL    HW213974   2.021   1.380   9.893
 4360SOL     OW13975   2.102   1.091  10.196
 4360SOL    HW113976   2.116   1.007  10.248
 4360SOL    HW213977   2.047   1.155  10.251
 4361SOL     OW13978   2.482   1.786  10.749
 4361SOL    HW113979   2.390   1.769  10.784
 4361SOL    HW213980   2.510   1.878  10.775
 4362SOL     OW13981   2.468   0.964   9.433
 4362SOL    HW113982   2.475   1.048   9.379
 4362SOL    HW213983   2.514   0.977   9.521
 4363SOL     OW13984   3.456   0.114  10.790
 4363SOL    HW113985   3.438   0.181  10.718
 4363SOL    HW213986   3.453   0.160  10.879
 4364SOL     OW13987   1.984   0.643   9.873
 4364SOL    HW113988   1.939   0.555   9.890
 4364SOL    HW213989   1.983   0.697   9.957
 4365SOL     OW13990   3.704   1.767   9.669
 4365SOL    HW113991   3.758   1.738   9.749
 4365SOL    HW213992   3.734   1.857   9.640
 4366SOL     OW13993   1.889   1.596   9.427
 4366SOL    HW113994   1.870   1.500   9.448
 4366SOL    HW213995   1.856   1.654   9.502
 4367SOL     OW13996   3.551   0.922   9.922
 4367SOL    HW113997   3.646   0.893   9.930
 4367SOL    HW213998   3.543   0.987   9.847
 4368SOL     OW13999   3.503   1.108   9.742
 4368SOL    HW114000   3.589   1.110   9.690
 4368SOL    HW214001   3.517   1.155   9.830
 4369SOL     OW14002   1.975   0.737  10.907
 4369SOL    HW114003   2.063   0.724  10.952
 4369SOL    HW214004   1.962   0.834  10.885
 4370SOL     OW14005   2.475   1.365  10.036
 4370SOL    HW114006   2.426   1.278  10.045
 4370SOL    HW214007   2.452   1.408   9.949
 4371SOL     OW14008   3.155   1.228  10.733
 4371SOL    HW114009   3.192   1.155  10.675
 4371SOL    HW214010   3.207   1.233  10.818
 4372SOL     OW14011   2.671   0.004   9.812
 4372SOL    HW114012   2.711   0.095   9.803
 4372SOL    HW214013   2.571   0.012   9.818
 4373SOL     OW14014   2.059   0.976  10.574
 4373SOL    HW114015   2.148   0.931  10.560
 4373SOL    HW214016   1.986   0.911  10.555
 4374SOL     OW14017   3.387   0.999   9.500
 4374SOL    HW114018   3.324   0.923   9.513
 4374SOL    HW214019   3.435   1.017   9.586
 4375SOL     OW14020   3.049   1.792  10.926
 4375SOL    HW114021   3.073   1.852  10.850
 4375SOL    HW214022   3.056   1.697  10.896
 4376SOL     OW14023   2.179   0.251  11.111
 4376SOL    HW114024   2.250   0.322  11.117
 4376SOL    HW214025   2.091   0.290  11.139
 4377SOL     OW14026   3.328   1.417  10.263
 4377SOL    HW114027   3.269   1.423  10.343
 4377SOL    HW214028   3.313   1.329  10.217
 4378SOL     OW14029   3.529   1.714   9.882
 4378SOL    HW114030   3.488   1.691   9.794
 4378SOL    HW214031   3.511   1.640   9.947
 4379SOL     OW14032   2.460   0.729   9.580
 4379SOL    HW114033   2.484   0.798   9.512
 4379SOL    HW214034   2.382   0.762   9.634
 4380SOL     OW14035   3.143   0.345  10.254
 4380SOL    HW114036   3.057   0.295  10.241
 4380SOL    HW214037   3.205   0.291  10.310
 4381SOL     OW14038   3.438   1.662   9.617
 4381SOL    HW114039   3.527   1.708   9.620
 4381SOL    HW214040   3.417   1.638   9.522
 4382SOL     OW14041   2.669   0.605  10.775
 4382SOL    HW114042   2.622   0.602  10.864
 4382SOL    HW214043   2.618   0.550  10.709
 4383SOL     OW14044   3.256   0.469  10.984
 4383SOL    HW114045   3.236   0.512  11.072
 4383SOL    HW214046   3.334   0.407  10.993
 4384SOL     OW14047   2.835   0.890  10.882
 4384SOL    HW114048   2.881   0.806  10.853
 4384SOL    HW214049   2.779   0.924  10.807
 4385SOL     OW14050   2.853   0.410  10.552
 4385SOL    HW114051   2.776   0.444  10.606
 4385SOL    HW214052   2.819   0.359  10.473
 4386SOL     OW14053   2.903   0.701   9.739
 4386SOL    HW114054   2.929   0.697   9.835
 4386SOL    HW214055   2.818   0.650   9.725
 4387SOL     OW14056   1.938   0.811  10.099
 4387SOL    HW114057   2.037   0.799  10.108
 4387SOL    HW214058   1.914   0.906  10.120
 4388SOL     OW14059   2.727   0.348   9.505
 4388SOL    HW114060   2.786   0.411   9.456
 4388SOL    HW214061   2.746   0.254   9.476
 4389SOL     OW14062   3.581   0.585  11.141
 4389SOL    HW114063   3.555   0.674  11.105
 4389SOL    HW214064   3.579   0.517  11.068
 4390SOL     OW14065   3.224   1.144   9.855
 4390SOL    HW114066   3.307   1.115   9.807
 4390SOL    HW214067   3.175   1.211   9.799
 4391SOL     OW14068   2.412   0.196  10.195
 4391SOL    HW114069   2.407   0.191  10.295
 4391SOL    HW214070   2.414   0.292  10.166
 4392SOL     OW14071   2.870   1.456   9.787
 4392SOL    HW114072   2.824   1.528   9.735
 4392SOL    HW214073   2.866   1.476   9.885
 4393SOL     OW14074   2.213   1.801  10.163
 4393SOL    HW114075   2.263   1.715  10.169
 4393SOL    HW214076   2.278   1.878  10.160
 4394SOL     OW14077   3.657   1.066  10.183
 4394SOL    HW114078   3.595   1.051  10.107
 4394SOL    HW214079   3.605   1.077  10.268
 4395SOL     OW14080   3.089   1.550  10.816
 4395SOL    HW114081   3.095   1.473  10.880
 4395SOL    HW214082   3.037   1.524  10.736
 4396SOL     OW14083   2.183   0.943   9.552
 4396SOL    HW114084   2.265   0.982   9.510
 4396SOL    HW214085   2.156   0.861   9.503
 4397SOL     OW14086   3.320   0.735  10.038
 4397SOL    HW114087   3.315   0.670  10.113
 4397SOL    HW214088   3.400   0.794  10.051
 4398SOL     OW14089   2.323   1.266  11.037
 4398SOL    HW114090   2.273   1.267  10.951
 4398SOL    HW214091   2.260   1.248  11.113
 4399SOL     OW14092   2.973   1.776   9.547
 4399SOL    HW114093   2.913   1.714   9.597
 4399SOL    HW214094   3.004   1.732   9.462
 4400SOL     OW14095   2.064   0.285  10.808
 4400SOL    HW114096   1.984   0.345  10.795
 4400SOL    HW214097   2.054   0.236  10.894
 4401SOL     OW14098   3.494   1.377   9.391
 4401SOL    HW114099   3.462   1.471   9.381
 4401SOL    HW214100   3.418   1.314   9.379
 4402SOL     OW14101   2.326   1.743   9.633
 4402SOL    HW114102   2.359   1.782   9.719
 4402SOL    HW214103   2.402   1.736   9.568
 4403SOL     OW14104   3.262   0.107   9.736
 4403SOL    HW114105   3.238   0.070   9.646
 4403SOL    HW214106   3.361   0.123   9.740
 4404SOL     OW14107   2.111   1.785  10.551
 4404SOL    HW114108   2.168   1.720  10.601
 4404SOL    HW214109   2.095   1.752  10.458
 4405SOL     OW14110   2.802   1.698  10.214
 4405SOL    HW114111   2.882   1.641  10.235
 4405SOL    HW214112   2.753   1.658  10.137
 4406SOL     OW14113   2.244   0.700   9.790
 4406SOL    HW114114   2.289   0.610   9.787
 4406SOL    HW214115   2.150   0.689   9.823
 4407SOL     OW14116   3.409   0.222  11.039
 4407SOL    HW114117   3.404   0.259  11.131
 4407SOL    HW214118   3.337   0.153  11.027
 4408SOL     OW14119   2.476   0.122   9.427
 4408SOL    HW114120   2.574   0.100   9.434
 4408SOL    HW214121   2.445   0.105   9.334
 4409SOL     OW14122   2.643   0.264  11.059
 4409SOL    HW114123   2.710   0.203  11.102
 4409SOL    HW214124   2.570   0.283  11.124
 4410SOL     OW14125   2.750   1.514  10.505
 4410SOL    HW114126   2.727   1.489  10.411
 4410SOL    HW214127   2.811   1.445  10.544
 4411SOL     OW14128   3.213   0.590  10.743
 4411SOL    HW114129   3.241   0.547  10.828
 4411SOL    HW214130   3.238   0.686  10.744
 4412SOL     OW14131   2.665   1.402  10.234
 4412SOL    HW114132   2.755   1.416  10.192
 4412SOL    HW214133   2.594   1.404  10.163
 4413SOL     OW14134   2.784   0.503  10.209
 4413SOL    HW114135   2.759   0.494  10.113
 4413SOL    HW214136   2.832   0.421  10.240
 4414SOL     OW14137   2.401   0.064   9.822
 4414SOL    HW114138   2.320   0.065   9.880
 4414SOL    HW214139   2.404   0.147   9.767
 4415SOL     OW14140   3.296   1.188   9.351
 4415SOL    HW114141   3.328   1.112   9.408
 4415SOL    HW214142   3.204   1.215   9.381
 4416SOL     OW14143   2.159   0.035   9.481
 4416SOL    HW114144   2.208   0.119   9.460
 4416SOL    HW214145   2.221  -0.030   9.526
 4417SOL     OW14146   2.797   0.236   9.790
 4417SOL    HW114147   2.749   0.277   9.712
 4417SOL    HW214148   2.896   0.234   9.771
 4418SOL     OW14149   2.938   0.683  10.774
 4418SOL    HW114150   2.858   0.622  10.777
 4418SOL    HW214151   3.019   0.630  10.750
 4419SOL     OW14152   3.089   1.570  10.103
 4419SOL    HW114153   3.110   1.644  10.038
 4419SOL    HW214154   3.157   1.570  10.176
 4420SOL     OW14155   2.321   1.152  10.051
 4420SOL    HW114156   2.250   1.125  10.116
 4420SOL    HW214157   2.295   1.124   9.958
 4421SOL     OW14158   3.133   1.797   9.901
 4421SOL    HW114159   3.177   1.861   9.837
 4421SOL    HW214160   3.083   1.849   9.971
 4422SOL     OW14161   2.894   0.549   9.326
 4422SOL    HW114162   2.853   0.631   9.287
 4422SOL    HW214163   2.958   0.575   9.399
 4423SOL     OW14164   1.940   0.556  10.696
 4423SOL    HW114165   2.032   0.555  10.655
 4423SOL    HW214166   1.934   0.630  10.763
 4424SOL     OW14167   2.423   0.222  10.457
 4424SOL    HW114168   2.461   0.138  10.494
 4424SOL    HW214169   2.335   0.241  10.501
 4425SOL     OW14170   2.728   0.454   9.952
 4425SOL    HW114171   2.696   0.526   9.890
 4425SOL    HW214172   2.752   0.373   9.899
 4426SOL     OW14173   2.879   0.039  10.063
 4426SOL    HW114174   2.807   0.044   9.994
 4426SOL    HW214175   2.855  -0.030  10.132
 4427SOL     OW14176   3.291   1.173  10.177
 4427SOL    HW114177   3.236   1.089  10.170
 4427SOL    HW214178   3.317   1.202  10.085
 4428SOL     OW14179   3.328   0.590  10.302
 4428SOL    HW114180   3.298   0.495  10.309
 4428SOL    HW214181   3.401   0.606  10.368
 4429SOL     OW14182   3.719   0.833   9.687
 4429SOL    HW114183   3.761   0.769   9.751
 4429SOL    HW214184   3.681   0.782   9.609
 4430SOL     OW14185   2.350   1.385   9.484
 4430SOL    HW114186   2.263   1.370   9.531
 4430SOL    HW214187   2.333   1.411   9.389
 4431SOL     OW14188   3.526   1.280   9.967
 4431SOL    HW114189   3.625   1.288   9.981
 4431SOL    HW214190   3.481   1.364   9.998
 4432SOL     OW14191   3.252   0.575   9.388
 4432SOL    HW114192   3.198   0.554   9.469
 4432SOL    HW214193   3.343   0.534   9.397
 4433SOL     OW14194   2.389   0.256   9.638
 4433SOL    HW114195   2.416   0.197   9.563
 4433SOL    HW214196   2.389   0.351   9.607
 4434SOL     OW14197   3.616   1.223  10.898
 4434SOL    HW114198   3.707   1.184  10.885
 4434SOL    HW214199   3.624   1.319  10.922
 4435SOL     OW14200   2.926   1.347  10.650
 4435SOL    HW114201   2.846   1.324  10.705
 4435SOL    HW214202   3.009   1.321  10.699
 4436SOL     OW14203   3.454   1.629  10.935
 4436SOL    HW114204   3.481   1.663  10.845
 4436SOL    HW214205   3.533   1.591  10.981
 4437SOL     OW14206   2.973   1.195  10.410
 4437SOL    HW114207   2.933   1.239  10.491
 4437SOL    HW214208   2.932   1.232  10.327
 4438SOL     OW14209   3.500   1.099  10.389
 4438SOL    HW114210   3.505   1.180  10.448
 4438SOL    HW214211   3.414   1.101  10.338
 4439SOL     OW14212   2.777   0.089  10.712
 4439SOL    HW114213   2.802   0.069  10.617
 4439SOL    HW214214   2.849   0.145  10.754
 4440SOL     OW14215   2.842   1.116  11.029
 4440SOL    HW114216   2.743   1.122  11.039
 4440SOL    HW214217   2.865   1.036  10.973
 4441SOL     OW14218   2.567   1.050   9.678
 4441SOL    HW114219   2.553   1.057   9.777
 4441SOL    HW214220   2.651   0.999   9.660
 4442SOL     OW14221   2.272   0.813  10.561
 4442SOL    HW114222   2.358   0.825  10.611
 4442SOL    HW214223   2.230   0.726  10.588
 4443SOL     OW14224   3.136   0.386  10.572
 4443SOL    HW114225   3.157   0.460  10.636
 4443SOL    HW214226   3.047   0.403  10.529
 4444SOL     OW14227   1.926   1.564  10.641
 4444SOL    HW114228   1.880   1.646  10.607
 4444SOL    HW214229   2.024   1.583  10.650
 4445SOL     OW14230   2.229   1.100   9.811
 4445SOL    HW114231   2.222   1.183   9.755
 4445SOL    HW214232   2.233   1.020   9.751
 4446SOL     OW14233   2.428   0.537  10.175
 4446SOL    HW114234   2.440   0.603  10.101
 4446SOL    HW214235   2.474   0.571  10.258
 4447SOL     OW14236   3.114   1.348   9.698
 4447SOL    HW114237   3.164   1.425   9.738
 4447SOL    HW214238   3.019   1.350   9.730
 4448SOL     OW14239   3.134   1.445  10.452
 4448SOL    HW114240   3.181   1.458  10.539
 4448SOL    HW214241   3.068   1.371  10.461
 4449SOL     OW14242   3.444   0.639   9.782
 4449SOL    HW114243   3.413   0.700   9.855
 4449SOL    HW214244   3.494   0.691   9.713
 4450SOL     OW14245   2.216   1.510  10.639
 4450SOL    HW114246   2.195   1.466  10.552
 4450SOL    HW214247   2.313   1.536  10.642
 4451SOL     OW14248   2.264   0.751  10.908
 4451SOL    HW114249   2.332   0.806  10.861
 4451SOL    HW214250   2.304   0.663  10.935
 4452SOL     OW14251   3.449   0.779  10.980
 4452SOL    HW114252   3.357   0.817  10.975
 4452SOL    HW214253   3.509   0.826  10.915
 4453SOL     OW14254   2.875   0.105  11.080
 4453SOL    HW114255   2.881   0.190  11.028
 4453SOL    HW214256   2.907   0.029  11.023
 4454SOL     OW14257   2.366   0.050  11.050
 4454SOL    HW114258   2.324  -0.007  10.980
 4454SOL    HW214259   2.300   0.119  11.082
 4455SOL     OW14260   2.435   0.870  10.339
 4455SOL    HW114261   2.479   0.959  10.330
 4455SOL    HW214262   2.372   0.870  10.416
 4456SOL     OW14263   3.222   0.862  10.355
 4456SOL    HW114264   3.147   0.862  10.289
 4456SOL    HW214265   3.259   0.770  10.364
 4457SOL     OW14266   3.071   0.525   9.585
 4457SOL    HW114267   3.084   0.441   9.639
 4457SOL    HW214268   3.042   0.599   9.645
 4458SOL     OW14269   2.169   0.213  10.541
 4458SOL    HW114270   2.146   0.250  10.631
 4458SOL    HW214271   2.139   0.118  10.535
 4459SOL     OW14272   1.899   1.310  10.592
 4459SOL    HW114273   1.952   1.261  10.660
 4459SOL    HW214274   1.921   1.408  10.597
 4460SOL     OW14275   2.594   0.634  10.374
 4460SOL    HW114276   2.653   0.608  10.298
 4460SOL    HW214277   2.566   0.730  10.363
 4461SOL     OW14278   3.590   0.935  11.164
 4461SOL    HW114279   3.544   0.928  11.075
 4461SOL    HW214280   3.528   0.979  11.230
 4462SOL     OW14281   2.169   0.063   9.928
 4462SOL    HW114282   2.158   0.157   9.961
 4462SOL    HW214283   2.164   0.000  10.005
 4463SOL     OW14284   3.484   0.367   9.684
 4463SOL    HW114285   3.486   0.291   9.748
 4463SOL    HW214286   3.436   0.444   9.724
 4464SOL     OW14287   2.885   0.766  10.276
 4464SOL    HW114288   2.900   0.787  10.372
 4464SOL    HW214289   2.855   0.671  10.267
 4465SOL     OW14290   2.842   1.573  11.010
 4465SOL    HW114291   2.822   1.617  10.922
 4465SOL    HW214292   2.881   1.482  10.994
 4466SOL     OW14293   3.721   1.518  10.915
 4466SOL    HW114294   3.735   1.545  10.820
 4466SOL    HW214295   3.804   1.540  10.968
 4467SOL     OW14296   2.212   0.898  11.114
 4467SOL    HW114297   2.288   0.942  11.162
 4467SOL    HW214298   2.247   0.851  11.032
 4468SOL     OW14299   3.402   0.274   9.435
 4468SOL    HW114300   3.341   0.199   9.458
 4468SOL    HW214301   3.424   0.326   9.518
 4469SOL     OW14302   3.165   0.838   9.352
 4469SOL    HW114303   3.199   0.745   9.367
 4469SOL    HW214304   3.183   0.865   9.257
 4470SOL     OW14305   2.930   1.333  10.159
 4470SOL    HW114306   2.937   1.249  10.104
 4470SOL    HW214307   2.992   1.402  10.123
 4471SOL     OW14308   2.181   0.810  10.259
 4471SOL    HW114309   2.274   0.846  10.264
 4471SOL    HW214310   2.175   0.725  10.311
 4472SOL     OW14311   2.201   0.509  10.316
 4472SOL    HW114312   2.149   0.426  10.299
 4472SOL    HW214313   2.278   0.514  10.252
 4473SOL     OW14314   3.000   0.380  10.988
 4473SOL    HW114315   2.955   0.443  11.052
 4473SOL    HW214316   3.093   0.411  10.971
 4474SOL     OW14317   3.022   0.207  10.787
 4474SOL    HW114318   3.022   0.271  10.864
 4474SOL    HW214319   3.050   0.255  10.704
 4475SOL     OW14320   1.870   1.326   9.510
 4475SOL    HW114321   1.777   1.347   9.479
 4475SOL    HW214322   1.880   1.227   9.523
 4476SOL     OW14323   2.366   1.568  10.220
 4476SOL    HW114324   2.432   1.642  10.229
 4476SOL    HW214325   2.410   1.489  10.178
 4477SOL     OW14326   2.864   0.796  10.548
 4477SOL    HW114327   2.905   0.764  10.634
 4477SOL    HW214328   2.768   0.769  10.545
 4478SOL     OW14329   1.902   0.544  10.424
 4478SOL    HW114330   1.987   0.511  10.383
 4478SOL    HW214331   1.915   0.559  10.522
 4479SOL     OW14332   2.051   0.520  11.032
 4479SOL    HW114333   2.110   0.480  10.962
 4479SOL    HW214334   1.993   0.591  10.991
 4480SOL     OW14335   3.231   0.950  10.970
 4480SOL    HW114336   3.270   1.039  10.990
 4480SOL    HW214337   3.241   0.930  10.873
 4481SOL     OW14338   2.677   0.572   9.635
 4481SOL    HW114339   2.684   0.483   9.589
 4481SOL    HW214340   2.583   0.606   9.627
 4482SOL     OW14341   3.519   0.604  10.516
 4482SOL    HW114342   3.481   0.535  10.578
 4482SOL    HW214343   3.601   0.568  10.472
 4483SOL     OW14344   2.114   1.564  11.054
 4483SOL    HW114345   2.084   1.621  11.130
 4483SOL    HW214346   2.107   1.467  11.080
 4484SOL     OW14347   2.533   0.464  10.579
 4484SOL    HW114348   2.499   0.375  10.549
 4484SOL    HW214349   2.559   0.518  10.499
 4485SOL     OW14350   2.792   1.678  10.775
 4485SOL    HW114351   2.768   1.660  10.680
 4485SOL    HW214352   2.822   1.772  10.785
 4486SOL     OW14353   2.335   0.500   9.501
 4486SOL    HW114354   2.396   0.580   9.505
 4486SOL    HW214355   2.240   0.531   9.508
 4487SOL     OW14356   2.021   1.137  10.776
 4487SOL    HW114357   2.043   1.076  10.852
 4487SOL    HW214358   2.031   1.088  10.690
 4488SOL     OW14359   3.209   1.059  10.544
 4488SOL    HW114360   3.233   0.996  10.470
 4488SOL    HW214361   3.119   1.099  10.526
 4489SOL     OW14362   3.164   0.855   9.619
 4489SOL    HW114363   3.078   0.824   9.661
 4489SOL    HW214364   3.160   0.841   9.520
 4490SOL     OW14365   3.621   1.747  10.464
 4490SOL    HW114366   3.682   1.777  10.391
 4490SOL    HW214367   3.583   1.658  10.442
 4491SOL     OW14368   3.114   1.731  10.438
 4491SOL    HW114369   3.198   1.736  10.384
 4491SOL    HW214370   3.091   1.635  10.456
 4492SOL     OW14371   1.945   1.258  10.332
 4492SOL    HW114372   1.940   1.257  10.432
 4492SOL    HW214373   1.862   1.217  10.294
 4493SOL     OW14374   2.550   1.662  11.026
 4493SOL    HW114375   2.494   1.743  11.035
 4493SOL    HW214376   2.602   1.666  10.940
 4494SOL     OW14377   3.588   0.135   9.833
 4494SOL    HW114378   3.661   0.118   9.766
 4494SOL    HW214379   3.557   0.048   9.871
 4495SOL     OW14380   3.250   1.573   9.787
 4495SOL    HW114381   3.317   1.585   9.713
 4495SOL    HW214382   3.210   1.662   9.810
 4496SOL     OW14383   3.142   0.927   9.982
 4496SOL    HW114384   3.202   0.846   9.984
 4496SOL    HW214385   3.182   0.996   9.922
 4497SOL     OW14386   2.692   1.273  10.732
 4497SOL    HW114387   2.687   1.306  10.827
 4497SOL    HW214388   2.606   1.292  10.686
 4498SOL     OW14389   2.534   1.616   9.464
 4498SOL    HW114390   2.543   1.626   9.365
 4498SOL    HW214391   2.494   1.527   9.485
 4499SOL     OW14392   3.512   1.720  10.704
 4499SOL    HW114393   3.565   1.730  10.620
 4499SOL    HW214394   3.485   1.810  10.738
 4500SOL     OW14395   3.703   0.175  10.273
 4500SOL    HW114396   3.742   0.090  10.237
 4500SOL    HW214397   3.605   0.177  10.254
 4501SOL     OW14398   2.125   0.326  10.030
 4501SOL    HW114399   2.046   0.377   9.996
 4501SOL    HW214400   2.116   0.311  10.128
 4502SOL     OW14401   3.056   1.612   9.341
 4502SOL    HW114402   3.062   1.519   9.378
 4502SOL    HW214403   2.997   1.612   9.261
 4503SOL     OW14404   2.684   1.002  10.682
 4503SOL    HW114405   2.724   1.001  10.590
 4503SOL    HW214406   2.694   1.094  10.722
 4504SOL     OW14407   2.778   0.910   9.601
 4504SOL    HW114408   2.841   0.948   9.533
 4504SOL    HW214409   2.818   0.827   9.640
 4505SOL     OW14410   3.366   1.607   9.354
 4505SOL    HW114411   3.274   1.644   9.361
 4505SOL    HW214412   3.404   1.627   9.264
 4506SOL     OW14413   2.234   1.288  10.800
 4506SOL    HW114414   2.221   1.381  10.766
 4506SOL    HW214415   2.150   1.236  10.787
 4507SOL     OW14416   3.476   1.292  10.599
 4507SOL    HW114417   3.536   1.295  10.679
 4507SOL    HW214418   3.401   1.356  10.612
 4508SOL     OW14419   2.901   1.098  10.006
 4508SOL    HW114420   2.831   1.051  10.060
 4508SOL    HW214421   2.960   1.030   9.963
 4509SOL     OW14422   2.876   0.236  10.281
 4509SOL    HW114423   2.868   0.200  10.188
 4509SOL    HW214424   2.874   0.160  10.346
 4510SOL     OW14425   2.452   1.487   9.801
 4510SOL    HW114426   2.494   1.429   9.731
 4510SOL    HW214427   2.408   1.566   9.757
 4511SOL     OW14428   3.571   0.385  10.691
 4511SOL    HW114429   3.644   0.454  10.695
 4511SOL    HW214430   3.599   0.310  10.632
 4512SOL     OW14431   2.117   1.348   9.600
 4512SOL    HW114432   2.021   1.349   9.573
 4512SOL    HW214433   2.129   1.401   9.684
 4513SOL     OW14434   1.967   1.013  11.036
 4513SOL    HW114435   1.890   0.980  11.090
 4513SOL    HW214436   2.052   0.983  11.078
 4514SOL     OW14437   2.534   0.203  10.799
 4514SOL    HW114438   2.624   0.187  10.759
 4514SOL    HW214439   2.542   0.208  10.898
 4515SOL     OW14440   1.937   0.345   9.343
 4515SOL    HW114441   1.845   0.317   9.314
 4515SOL    HW214442   1.968   0.422   9.287
 4516SOL     OW14443   3.302   0.856  10.708
 4516SOL    HW114444   3.245   0.908  10.645
 4516SOL    HW214445   3.398   0.868  10.684
 4517SOL     OW14446   1.934   0.166   9.628
 4517SOL    HW114447   1.917   0.249   9.574
 4517SOL    HW214448   2.024   0.129   9.606
 4518SOL     OW14449   3.045   1.335   9.429
 4518SOL    HW114450   2.946   1.324   9.431
 4518SOL    HW214451   3.079   1.350   9.522
 4519SOL     OW14452   2.475   0.842  10.741
 4519SOL    HW114453   2.531   0.923  10.724
 4519SOL    HW214454   2.534   0.762  10.744
 4520SOL     OW14455   3.355   1.767  10.269
 4520SOL    HW114456   3.388   1.831  10.200
 4520SOL    HW214457   3.421   1.761  10.344
 4521SOL     OW14458   2.578   0.565  11.018
 4521SOL    HW114459   2.597   0.630  11.092
 4521SOL    HW214460   2.638   0.485  11.027
 4522SOL     OW14461   3.312   1.220  10.943
 4522SOL    HW114462   3.303   1.210  11.042
 4522SOL    HW214463   3.408   1.213  10.917
 4523SOL     OW14464   2.252   1.741  10.870
 4523SOL    HW114465   2.161   1.782  10.868
 4523SOL    HW214466   2.245   1.647  10.902
 4524SOL     OW14467   3.536   0.883  10.564
 4524SOL    HW114468   3.509   0.794  10.527
 4524SOL    HW214469   3.537   0.951  10.491
 4525SOL     OW14470   3.087   0.325   9.759
 4525SOL    HW114471   3.152   0.251   9.748
 4525SOL    HW214472   3.107   0.375   9.843
 4526SOL     OW14473   2.456   0.745   9.962
 4526SOL    HW114474   2.506   0.830   9.943
 4526SOL    HW214475   2.368   0.747   9.914
 4527SOL     OW14476   3.639   0.342  10.952
 4527SOL    HW114477   3.622   0.373  10.858
 4527SOL    HW214478   3.555   0.305  10.990
 4528SOL     OW14479   3.592   0.934  10.827
 4528SOL    HW114480   3.630   1.025  10.842
 4528SOL    HW214481   3.584   0.917  10.728
 4529SOL     OW14482   2.721   1.374   9.326
 4529SOL    HW114483   2.675   1.389   9.414
 4529SOL    HW214484   2.765   1.459   9.296
 4530SOL     OW14485   2.523   1.790  10.263
 4530SOL    HW114486   2.477   1.878  10.250
 4530SOL    HW214487   2.622   1.802  10.256
 4531SOL     OW14488   2.721   0.956  10.171
 4531SOL    HW114489   2.775   0.887  10.219
 4531SOL    HW214490   2.689   1.025  10.237
 4532SOL     OW14491   2.945   0.984   9.397
 4532SOL    HW114492   2.922   1.037   9.315
 4532SOL    HW214493   3.026   0.928   9.378
 4533SOL     OW14494   3.723   1.569  10.161
 4533SOL    HW114495   3.652   1.557  10.091
 4533SOL    HW214496   3.724   1.490  10.221
 4534SOL     OW14497   2.083   1.314  11.154
 4534SOL    HW114498   2.018   1.241  11.133
 4534SOL    HW214499   2.087   1.328  11.252
 4535SOL     OW14500   1.941   1.240   9.963
 4535SOL    HW114501   1.940   1.193  10.051
 4535SOL    HW214502   2.023   1.212   9.912
 4536SOL     OW14503   2.534   1.391  10.934
 4536SOL    HW114504   2.456   1.341  10.972
 4536SOL    HW214505   2.531   1.486  10.965
 4537SOL     OW14506   3.686   0.192  10.537
 4537SOL    HW114507   3.682   0.102  10.581
 4537SOL    HW214508   3.689   0.181  10.438
 4538SOL     OW14509   2.290   0.424   9.830
 4538SOL    HW114510   2.320   0.352   9.768
 4538SOL    HW214511   2.251   0.384   9.913
 4539SOL     OW14512   3.567   1.487  10.414
 4539SOL    HW114513   3.474   1.462  10.387
 4539SOL    HW214514   3.593   1.437  10.496
 4540SOL     OW14515   2.179   0.547  10.590
 4540SOL    HW114516   2.217   0.488  10.662
 4540SOL    HW214517   2.219   0.521  10.502
 4541SOL     OW14518   2.674   1.586   9.997
 4541SOL    HW114519   2.706   1.596   9.903
 4541SOL    HW214520   2.595   1.524   9.999
 4542SOL     OW14521   3.286   0.214  10.422
 4542SOL    HW114522   3.338   0.149  10.477
 4542SOL    HW214523   3.237   0.277  10.483
 4543SOL     OW14524   2.863   0.034  10.464
 4543SOL    HW114525   2.800  -0.038  10.433
 4543SOL    HW214526   2.956  -0.002  10.464
 4544SOL     OW14527   2.632   1.330   9.611
 4544SOL    HW114528   2.586   1.243   9.628
 4544SOL    HW214529   2.723   1.327   9.652
 4545SOL     OW14530   2.480   1.567  10.594
 4545SOL    HW114531   2.475   1.649  10.651
 4545SOL    HW214532   2.569   1.564  10.549
 4546SOL     OW14533   3.214   0.052   9.478
 4546SOL    HW114534   3.249   0.011   9.394
 4546SOL    HW214535   3.124   0.014   9.498
 4547SOL     OW14536   3.162   0.453  10.001
 4547SOL    HW114537   3.103   0.533  10.005
 4547SOL    HW214538   3.177   0.418  10.094
 4548SOL     OW14539   3.455   0.221  10.192
 4548SOL    HW114540   3.371   0.220  10.246
 4548SOL    HW214541   3.457   0.304  10.136
 4549SOL     OW14542   1.901   1.077   9.610
 4549SOL    HW114543   2.000   1.066   9.601
 4549SOL    HW214544   1.861   0.991   9.642
 4550SOL     OW14545   2.737   1.646   9.647
 4550SOL    HW114546   2.660   1.611   9.593
 4550SOL    HW214547   2.705   1.717   9.709
 4551SOL     OW14548   2.092   0.628  11.285
 4551SOL    HW114549   1.999   0.626  11.322
 4551SOL    HW214550   2.093   0.589  11.193
 4552SOL     OW14551   2.087   0.275  12.168
 4552SOL    HW114552   2.122   0.258  12.260
 4552SOL    HW214553   1.999   0.230  12.156
 4553SOL     OW14554   1.881   0.368  11.819
 4553SOL    HW114555   1.799   0.411  11.858
 4553SOL    HW214556   1.853   0.295  11.756
 4554SOL     OW14557   2.431   1.275  12.337
 4554SOL    HW114558   2.338   1.268  12.300
 4554SOL    HW214559   2.442   1.364  12.381
 4555SOL     OW14560   3.417   1.511  11.875
 4555SOL    HW114561   3.360   1.495  11.956
 4555SOL    HW214562   3.358   1.521  11.795
 4556SOL     OW14563   2.997   0.703  11.889
 4556SOL    HW114564   3.054   0.781  11.864
 4556SOL    HW214565   2.937   0.729  11.965
 4557SOL     OW14566   3.617   0.607  11.403
 4557SOL    HW114567   3.605   0.594  11.304
 4557SOL    HW214568   3.587   0.526  11.452
 4558SOL     OW14569   2.630   1.144  12.195
 4558SOL    HW114570   2.552   1.161  12.255
 4558SOL    HW214571   2.664   1.231  12.159
 4559SOL     OW14572   2.712   0.798  12.995
 4559SOL    HW114573   2.708   0.874  13.060
 4559SOL    HW214574   2.734   0.834  12.904
 4560SOL     OW14575   2.547   1.012  11.837
 4560SOL    HW114576   2.616   0.996  11.907
 4560SOL    HW214577   2.474   1.069  11.875
 4561SOL     OW14578   2.548   1.161  12.975
 4561SOL    HW114579   2.608   1.240  12.989
 4561SOL    HW214580   2.462   1.192  12.934
 4562SOL     OW14581   2.197   1.435  12.233
 4562SOL    HW114582   2.119   1.404  12.180
 4562SOL    HW214583   2.255   1.493  12.176
 4563SOL     OW14584   3.322   1.505  12.511
 4563SOL    HW114585   3.346   1.599  12.537
 4563SOL    HW214586   3.306   1.451  12.593
 4564SOL     OW14587   2.300   0.392  12.671
 4564SOL    HW114588   2.382   0.336  12.680
 4564SOL    HW214589   2.219   0.334  12.675
 4565SOL     OW14590   3.465   0.447  11.909
 4565SOL    HW114591   3.391   0.493  11.859
 4565SOL    HW214592   3.516   0.515  11.962
 4566SOL     OW14593   2.093   1.713  11.655
 4566SOL    HW114594   2.127   1.790  11.709
 4566SOL    HW214595   2.137   1.713  11.565
 4567SOL     OW14596   2.989   1.341  12.862
 4567SOL    HW114597   3.036   1.341  12.950
 4567SOL    HW214598   2.941   1.254  12.851
 4568SOL     OW14599   2.092   1.434  11.710
 4568SOL    HW114600   2.066   1.530  11.710
 4568SOL    HW214601   2.021   1.380  11.755
 4569SOL     OW14602   2.102   1.091  12.058
 4569SOL    HW114603   2.116   1.007  12.110
 4569SOL    HW214604   2.047   1.155  12.113
 4570SOL     OW14605   2.482   1.786  12.611
 4570SOL    HW114606   2.390   1.769  12.646
 4570SOL    HW214607   2.510   1.878  12.637
 4571SOL     OW14608   2.468   0.964  11.295
 4571SOL    HW114609   2.475   1.048  11.241
 4571SOL    HW214610   2.514   0.977  11.383
 4572SOL     OW14611   3.456   0.114  12.652
 4572SOL    HW114612   3.438   0.181  12.580
 4572SOL    HW214613   3.453   0.160  12.741
 4573SOL     OW14614   1.984   0.643  11.735
 4573SOL    HW114615   1.939   0.555  11.752
 4573SOL    HW214616   1.983   0.697  11.819
 4574SOL     OW14617   3.704   1.767  11.531
 4574SOL    HW114618   3.758   1.738  11.611
 4574SOL    HW214619   3.734   1.857  11.502
 4575SOL     OW14620   3.551   0.922  11.784
 4575SOL    HW114621   3.646   0.893  11.792
 4575SOL    HW214622   3.543   0.987  11.709
 4576SOL     OW14623   3.503   1.108  11.604
 4576SOL    HW114624   3.589   1.110  11.552
 4576SOL    HW214625   3.517   1.155  11.692
 4577SOL     OW14626   1.975   0.737  12.769
 4577SOL    HW114627   2.063   0.724  12.814
 4577SOL    HW214628   1.962   0.834  12.747
 4578SOL     OW14629   2.475   1.365  11.898
 4578SOL    HW114630   2.426   1.278  11.907
 4578SOL    HW214631   2.452   1.408  11.811
 4579SOL     OW14632   3.155   1.228  12.595
 4579SOL    HW114633   3.192   1.155  12.537
 4579SOL    HW214634   3.207   1.233  12.680
 4580SOL     OW14635   2.671   0.004  11.674
 4580SOL    HW114636   2.711   0.095  11.665
 4580SOL    HW214637   2.571   0.012  11.680
 4581SOL     OW14638   2.059   0.976  12.436
 4581SOL    HW114639   2.148   0.931  12.422
 4581SOL    HW214640   1.986   0.911  12.417
 4582SOL     OW14641   3.387   0.999  11.362
 4582SOL    HW114642   3.324   0.923  11.375
 4582SOL    HW214643   3.435   1.017  11.448
 4583SOL     OW14644   3.049   1.792  12.788
 4583SOL    HW114645   3.073   1.852  12.712
 4583SOL    HW214646   3.056   1.697  12.758
 4584SOL     OW14647   2.179   0.251  12.973
 4584SOL    HW114648   2.250   0.322  12.979
 4584SOL    HW214649   2.091   0.290  13.001
 4585SOL     OW14650   3.328   1.417  12.125
 4585SOL    HW114651   3.269   1.423  12.205
 4585SOL    HW214652   3.313   1.329  12.079
 4586SOL     OW14653   3.529   1.714  11.744
 4586SOL    HW114654   3.488   1.691  11.656
 4586SOL    HW214655   3.511   1.640  11.809
 4587SOL     OW14656   2.460   0.729  11.442
 4587SOL    HW114657   2.484   0.798  11.374
 4587SOL    HW214658   2.382   0.762  11.496
 4588SOL     OW14659   3.143   0.345  12.116
 4588SOL    HW114660   3.057   0.295  12.103
 4588SOL    HW214661   3.205   0.291  12.172
 4589SOL     OW14662   3.438   1.662  11.479
 4589SOL    HW114663   3.527   1.708  11.482
 4589SOL    HW214664   3.417   1.638  11.384
 4590SOL     OW14665   2.669   0.605  12.637
 4590SOL    HW114666   2.622   0.602  12.726
 4590SOL    HW214667   2.618   0.550  12.571
 4591SOL     OW14668   3.256   0.469  12.846
 4591SOL    HW114669   3.236   0.512  12.934
 4591SOL    HW214670   3.334   0.407  12.855
 4592SOL     OW14671   2.835   0.890  12.744
 4592SOL    HW114672   2.881   0.806  12.715
 4592SOL    HW214673   2.779   0.924  12.669
 4593SOL     OW14674   2.853   0.410  12.414
 4593SOL    HW114675   2.776   0.444  12.468
 4593SOL    HW214676   2.819   0.359  12.335
 4594SOL     OW14677   2.903   0.701  11.601
 4594SOL    HW114678   2.929   0.697  11.697
 4594SOL    HW214679   2.818   0.650  11.587
 4595SOL     OW14680   1.938   0.811  11.961
 4595SOL    HW114681   2.037   0.799  11.970
 4595SOL    HW214682   1.914   0.906  11.982
 4596SOL     OW14683   2.727   0.348  11.367
 4596SOL    HW114684   2.786   0.411  11.318
 4596SOL    HW214685   2.746   0.254  11.338
 4597SOL     OW14686   3.581   0.585  13.003
 4597SOL    HW114687   3.555   0.674  12.967
 4597SOL    HW214688   3.579   0.517  12.930
 4598SOL     OW14689   3.224   1.144  11.717
 4598SOL    HW114690   3.307   1.115  11.669
 4598SOL    HW214691   3.175   1.211  11.661
 4599SOL     OW14692   2.412   0.196  12.057
 4599SOL    HW114693   2.407   0.191  12.157
 4599SOL    HW214694   2.414   0.292  12.028
 4600SOL     OW14695   2.870   1.456  11.649
 4600SOL    HW114696   2.824   1.528  11.597
 4600SOL    HW214697   2.866   1.476  11.747
 4601SOL     OW14698   2.213   1.801  12.025
 4601SOL    HW114699   2.263   1.715  12.031
 4601SOL    HW214700   2.278   1.878  12.022
 4602SOL     OW14701   3.657   1.066  12.045
 4602SOL    HW114702   3.595   1.051  11.969
 4602SOL    HW214703   3.605   1.077  12.130
 4603SOL     OW14704   3.089   1.550  12.678
 4603SOL    HW114705   3.095   1.473  12.742
 4603SOL    HW214706   3.037   1.524  12.598
 4604SOL     OW14707   2.183   0.943  11.414
 4604SOL    HW114708   2.265   0.982  11.372
 4604SOL    HW214709   2.156   0.861  11.365
 4605SOL     OW14710   3.320   0.735  11.900
 4605SOL    HW114711   3.315   0.670  11.975
 4605SOL    HW214712   3.400   0.794  11.913
 4606SOL     OW14713   2.323   1.266  12.899
 4606SOL    HW114714   2.273   1.267  12.813
 4606SOL    HW214715   2.260   1.248  12.975
 4607SOL     OW14716   2.973   1.776  11.409
 4607SOL    HW114717   2.913   1.714  11.459
 4607SOL    HW214718   3.004   1.732  11.324
 4608SOL     OW14719   2.064   0.285  12.670
 4608SOL    HW114720   1.984   0.345  12.657
 4608SOL    HW214721   2.054   0.236  12.756
 4609SOL     OW14722   3.494   1.377  11.253
 4609SOL    HW114723   3.462   1.471  11.243
 4609SOL    HW214724   3.418   1.314  11.241
 4610SOL     OW14725   2.326   1.743  11.495
 4610SOL    HW114726   2.359   1.782  11.581
 4610SOL    HW214727   2.402   1.736  11.430
 4611SOL     OW14728   3.262   0.107  11.598
 4611SOL    HW114729   3.238   0.070  11.508
 4611SOL    HW214730   3.361   0.123  11.602
 4612SOL     OW14731   2.111   1.785  12.413
 4612SOL    HW114732   2.168   1.720  12.463
 4612SOL    HW214733   2.095   1.752  12.320
 4613SOL     OW14734   2.802   1.698  12.076
 4613SOL    HW114735   2.882   1.641  12.097
 4613SOL    HW214736   2.753   1.658  11.999
 4614SOL     OW14737   2.244   0.700  11.652
 4614SOL    HW114738   2.289   0.610  11.649
 4614SOL    HW214739   2.150   0.689  11.685
 4615SOL     OW14740   3.409   0.222  12.901
 4615SOL    HW114741   3.404   0.259  12.993
 4615SOL    HW214742   3.337   0.153  12.889
 4616SOL     OW14743   2.476   0.122  11.289
 4616SOL    HW114744   2.574   0.100  11.296
 4616SOL    HW214745   2.445   0.105  11.196
 4617SOL     OW14746   2.643   0.264  12.921
 4617SOL    HW114747   2.710   0.203  12.964
 4617SOL    HW214748   2.570   0.283  12.986
 4618SOL     OW14749   2.750   1.514  12.367
 4618SOL    HW114750   2.727   1.489  12.273
 4618SOL    HW214751   2.811   1.445  12.406
 4619SOL     OW14752   3.213   0.590  12.605
 4619SOL    HW114753   3.241   0.547  12.690
 4619SOL    HW214754   3.238   0.686  12.606
 4620SOL     OW14755   2.665   1.402  12.096
 4620SOL    HW114756   2.755   1.416  12.054
 4620SOL    HW214757   2.594   1.404  12.025
 4621SOL     OW14758   2.784   0.503  12.071
 4621SOL    HW114759   2.759   0.494  11.975
 4621SOL    HW214760   2.832   0.421  12.102
 4622SOL     OW14761   2.401   0.064  11.684
 4622SOL    HW114762   2.320   0.065  11.742
 4622SOL    HW214763   2.404   0.147  11.629
 4623SOL     OW14764   3.296   1.188  11.213
 4623SOL    HW114765   3.328   1.112  11.270
 4623SOL    HW214766   3.204   1.215  11.243
 4624SOL     OW14767   2.159   0.035  11.343
 4624SOL    HW114768   2.208   0.119  11.322
 4624SOL    HW214769   2.221  -0.030  11.388
 4625SOL     OW14770   2.797   0.236  11.652
 4625SOL    HW114771   2.749   0.277  11.574
 4625SOL    HW214772   2.896   0.234  11.633
 4626SOL     OW14773   2.938   0.683  12.636
 4626SOL    HW114774   2.858   0.622  12.639
 4626SOL    HW214775   3.019   0.630  12.612
 4627SOL     OW14776   3.089   1.570  11.965
 4627SOL    HW114777   3.110   1.644  11.900
 4627SOL    HW214778   3.157   1.570  12.038
 4628SOL     OW14779   2.321   1.152  11.913
 4628SOL    HW114780   2.250   1.125  11.978
 4628SOL    HW214781   2.295   1.124  11.820
 4629SOL     OW14782   3.133   1.797  11.763
 4629SOL    HW114783   3.177   1.861  11.699
 4629SOL    HW214784   3.083   1.849  11.833
 4630SOL     OW14785   2.894   0.549  11.188
 4630SOL    HW114786   2.853   0.631  11.149
 4630SOL    HW214787   2.958   0.575  11.261
 4631SOL     OW14788   1.940   0.556  12.558
 4631SOL    HW114789   2.032   0.555  12.517
 4631SOL    HW214790   1.934   0.630  12.625
 4632SOL     OW14791   2.423   0.222  12.319
 4632SOL    HW114792   2.461   0.138  12.356
 4632SOL    HW214793   2.335   0.241  12.363
 4633SOL     OW14794   2.728   0.454  11.814
 4633SOL    HW114795   2.696   0.526  11.752
 4633SOL    HW214796   2.752   0.373  11.761
 4634SOL     OW14797   2.879   0.039  11.925
 4634SOL    HW114798   2.807   0.044  11.856
 4634SOL    HW214799   2.855  -0.030  11.994
 4635SOL     OW14800   3.291   1.173  12.039
 4635SOL    HW114801   3.236   1.089  12.032
 4635SOL    HW214802   3.317   1.202  11.947
 4636SOL     OW14803   3.328   0.590  12.164
 4636SOL    HW114804   3.298   0.495  12.171
 4636SOL    HW214805   3.401   0.606  12.230
 4637SOL     OW14806   3.719   0.833  11.549
 4637SOL    HW114807   3.761   0.769  11.613
 4637SOL    HW214808   3.681   0.782  11.471
 4638SOL     OW14809   2.350   1.385  11.346
 4638SOL    HW114810   2.263   1.370  11.393
 4638SOL    HW214811   2.333   1.411  11.251
 4639SOL     OW14812   3.526   1.280  11.829
 4639SOL    HW114813   3.625   1.288  11.843
 4639SOL    HW214814   3.481   1.364  11.860
 4640SOL     OW14815   3.252   0.575  11.250
 4640SOL    HW114816   3.198   0.554  11.331
 4640SOL    HW214817   3.343   0.534  11.259
 4641SOL     OW14818   2.389   0.256  11.500
 4641SOL    HW114819   2.416   0.197  11.425
 4641SOL    HW214820   2.389   0.351  11.469
 4642SOL     OW14821   3.616   1.223  12.760
 4642SOL    HW114822   3.707   1.184  12.747
 4642SOL    HW214823   3.624   1.319  12.784
 4643SOL     OW14824   2.926   1.347  12.512
 4643SOL    HW114825   2.846   1.324  12.567
 4643SOL    HW214826   3.009   1.321  12.561
 4644SOL     OW14827   3.454   1.629  12.797
 4644SOL    HW114828   3.481   1.663  12.707
 4644SOL    HW214829   3.533   1.591  12.843
 4645SOL     OW14830   2.973   1.195  12.272
 4645SOL    HW114831   2.933   1.239  12.353
 4645SOL    HW214832   2.932   1.232  12.189
 4646SOL     OW14833   3.500   1.099  12.251
 4646SOL    HW114834   3.505   1.180  12.310
 4646SOL    HW214835   3.414   1.101  12.200
 4647SOL     OW14836   2.777   0.089  12.574
 4647SOL    HW114837   2.802   0.069  12.479
 4647SOL    HW214838   2.849   0.145  12.616
 4648SOL     OW14839   2.842   1.116  12.891
 4648SOL    HW114840   2.743   1.122  12.901
 4648SOL    HW214841   2.865   1.036  12.835
 4649SOL     OW14842   2.567   1.050  11.540
 4649SOL    HW114843   2.553   1.057  11.639
 4649SOL    HW214844   2.651   0.999  11.522
 4650SOL     OW14845   2.272   0.813  12.423
 4650SOL    HW114846   2.358   0.825  12.473
 4650SOL    HW214847   2.230   0.726  12.450
 4651SOL     OW14848   3.136   0.386  12.434
 4651SOL    HW114849   3.157   0.460  12.498
 4651SOL    HW214850   3.047   0.403  12.391
 4652SOL     OW14851   1.926   1.564  12.503
 4652SOL    HW114852   1.880   1.646  12.469
 4652SOL    HW214853   2.024   1.583  12.512
 4653SOL     OW14854   2.229   1.100  11.673
 4653SOL    HW114855   2.222   1.183  11.617
 4653SOL    HW214856   2.233   1.020  11.613
 4654SOL     OW14857   2.428   0.537  12.037
 4654SOL    HW114858   2.440   0.603  11.963
 4654SOL    HW214859   2.474   0.571  12.120
 4655SOL     OW14860   3.114   1.348  11.560
 4655SOL    HW114861   3.164   1.425  11.600
 4655SOL    HW214862   3.019   1.350  11.592
 4656SOL     OW14863   3.134   1.445  12.314
 4656SOL    HW114864   3.181   1.458  12.401
 4656SOL    HW214865   3.068   1.371  12.323
 4657SOL     OW14866   3.444   0.639  11.644
 4657SOL    HW114867   3.413   0.700  11.717
 4657SOL    HW214868   3.494   0.691  11.575
 4658SOL     OW14869   2.216   1.510  12.501
 4658SOL    HW114870   2.195   1.466  12.414
 4658SOL    HW214871   2.313   1.536  12.504
 4659SOL     OW14872   2.264   0.751  12.770
 4659SOL    HW114873   2.332   0.806  12.723
 4659SOL    HW214874   2.304   0.663  12.797
 4660SOL     OW14875   3.449   0.779  12.842
 4660SOL    HW114876   3.357   0.817  12.837
 4660SOL    HW214877   3.509   0.826  12.777
 4661SOL     OW14878   2.875   0.105  12.942
 4661SOL    HW114879   2.881   0.190  12.890
 4661SOL    HW214880   2.907   0.029  12.885
 4662SOL     OW14881   2.366   0.050  12.912
 4662SOL    HW114882   2.324  -0.007  12.842
 4662SOL    HW214883   2.300   0.119  12.944
 4663SOL     OW14884   2.435   0.870  12.201
 4663SOL    HW114885   2.479   0.959  12.192
 4663SOL    HW214886   2.372   0.870  12.278
 4664SOL     OW14887   3.222   0.862  12.217
 4664SOL    HW114888   3.147   0.862  12.151
 4664SOL    HW214889   3.259   0.770  12.226
 4665SOL     OW14890   3.071   0.525  11.447
 4665SOL    HW114891   3.084   0.441  11.501
 4665SOL    HW214892   3.042   0.599  11.507
 4666SOL     OW14893   2.169   0.213  12.403
 4666SOL    HW114894   2.146   0.250  12.493
 4666SOL    HW214895   2.139   0.118  12.397
 4667SOL     OW14896   1.899   1.310  12.454
 4667SOL    HW114897   1.952   1.261  12.522
 4667SOL    HW214898   1.921   1.408  12.459
 4668SOL     OW14899   2.594   0.634  12.236
 4668SOL    HW114900   2.653   0.608  12.160
 4668SOL    HW214901   2.566   0.730  12.225
 4669SOL     OW14902   3.590   0.935  13.026
 4669SOL    HW114903   3.544   0.928  12.937
 4669SOL    HW214904   3.528   0.979  13.092
 4670SOL     OW14905   2.169   0.063  11.790
 4670SOL    HW114906   2.158   0.157  11.823
 4670SOL    HW214907   2.164   0.000  11.867
 4671SOL     OW14908   3.484   0.367  11.546
 4671SOL    HW114909   3.486   0.291  11.610
 4671SOL    HW214910   3.436   0.444  11.586
 4672SOL     OW14911   2.885   0.766  12.138
 4672SOL    HW114912   2.900   0.787  12.234
 4672SOL    HW214913   2.855   0.671  12.129
 4673SOL     OW14914   2.842   1.573  12.872
 4673SOL    HW114915   2.822   1.617  12.784
 4673SOL    HW214916   2.881   1.482  12.856
 4674SOL     OW14917   3.721   1.518  12.777
 4674SOL    HW114918   3.735   1.545  12.682
 4674SOL    HW214919   3.804   1.540  12.830
 4675SOL     OW14920   2.212   0.898  12.976
 4675SOL    HW114921   2.288   0.942  13.024
 4675SOL    HW214922   2.247   0.851  12.894
 4676SOL     OW14923   3.402   0.274  11.297
 4676SOL    HW114924   3.341   0.199  11.320
 4676SOL    HW214925   3.424   0.326  11.380
 4677SOL     OW14926   3.165   0.838  11.214
 4677SOL    HW114927   3.199   0.745  11.229
 4677SOL    HW214928   3.183   0.865  11.119
 4678SOL     OW14929   2.930   1.333  12.021
 4678SOL    HW114930   2.937   1.249  11.966
 4678SOL    HW214931   2.992   1.402  11.985
 4679SOL     OW14932   2.181   0.810  12.121
 4679SOL    HW114933   2.274   0.846  12.126
 4679SOL    HW214934   2.175   0.725  12.173
 4680SOL     OW14935   2.201   0.509  12.178
 4680SOL    HW114936   2.149   0.426  12.161
 4680SOL    HW214937   2.278   0.514  12.114
 4681SOL     OW14938   3.000   0.380  12.850
 4681SOL    HW114939   2.955   0.443  12.914
 4681SOL    HW214940   3.093   0.411  12.833
 4682SOL     OW14941   3.022   0.207  12.649
 4682SOL    HW114942   3.022   0.271  12.726
 4682SOL    HW214943   3.050   0.255  12.566
 4683SOL     OW14944   1.870   1.326  11.372
 4683SOL    HW114945   1.777   1.347  11.341
 4683SOL    HW214946   1.880   1.227  11.385
 4684SOL     OW14947   2.366   1.568  12.082
 4684SOL    HW114948   2.432   1.642  12.091
 4684SOL    HW214949   2.410   1.489  12.040
 4685SOL     OW14950   2.864   0.796  12.410
 4685SOL    HW114951   2.905   0.764  12.496
 4685SOL    HW214952   2.768   0.769  12.407
 4686SOL     OW14953   1.902   0.544  12.286
 4686SOL    HW114954   1.987   0.511  12.245
 4686SOL    HW214955   1.915   0.559  12.384
 4687SOL     OW14956   2.051   0.520  12.894
 4687SOL    HW114957   2.110   0.480  12.824
 4687SOL    HW214958   1.993   0.591  12.853
 4688SOL     OW14959   3.231   0.950  12.832
 4688SOL    HW114960   3.270   1.039  12.852
 4688SOL    HW214961   3.241   0.930  12.735
 4689SOL     OW14962   2.677   0.572  11.497
 4689SOL    HW114963   2.684   0.483  11.451
 4689SOL    HW214964   2.583   0.606  11.489
 4690SOL     OW14965   3.519   0.604  12.378
 4690SOL    HW114966   3.481   0.535  12.440
 4690SOL    HW214967   3.601   0.568  12.334
 4691SOL     OW14968   2.114   1.564  12.916
 4691SOL    HW114969   2.084   1.621  12.992
 4691SOL    HW214970   2.107   1.467  12.942
 4692SOL     OW14971   2.533   0.464  12.441
 4692SOL    HW114972   2.499   0.375  12.411
 4692SOL    HW214973   2.559   0.518  12.361
 4693SOL     OW14974   2.792   1.678  12.637
 4693SOL    HW114975   2.768   1.660  12.542
 4693SOL    HW214976   2.822   1.772  12.647
 4694SOL     OW14977   2.335   0.500  11.363
 4694SOL    HW114978   2.396   0.580  11.367
 4694SOL    HW214979   2.240   0.531  11.370
 4695SOL     OW14980   2.021   1.137  12.638
 4695SOL    HW114981   2.043   1.076  12.714
 4695SOL    HW214982   2.031   1.088  12.552
 4696SOL     OW14983   3.209   1.059  12.406
 4696SOL    HW114984   3.233   0.996  12.332
 4696SOL    HW214985   3.119   1.099  12.388
 4697SOL     OW14986   3.164   0.855  11.481
 4697SOL    HW114987   3.078   0.824  11.523
 4697SOL    HW214988   3.160   0.841  11.382
 4698SOL     OW14989   3.621   1.747  12.326
 4698SOL    HW114990   3.682   1.777  12.253
 4698SOL    HW214991   3.583   1.658  12.304
 4699SOL     OW14992   3.114   1.731  12.300
 4699SOL    HW114993   3.198   1.736  12.246
 4699SOL    HW214994   3.091   1.635  12.318
 4700SOL     OW14995   1.945   1.258  12.194
 4700SOL    HW114996   1.940   1.257  12.294
 4700SOL    HW214997   1.862   1.217  12.156
 4701SOL     OW14998   2.550   1.662  12.888
 4701SOL    HW114999   2.494   1.743  12.897
 4701SOL    HW215000   2.602   1.666  12.802
 4702SOL     OW15001   3.588   0.135  11.695
 4702SOL    HW115002   3.661   0.118  11.628
 4702SOL    HW215003   3.557   0.048  11.733
 4703SOL     OW15004   3.250   1.573  11.649
 4703SOL    HW115005   3.317   1.585  11.575
 4703SOL    HW215006   3.210   1.662  11.672
 4704SOL     OW15007   3.142   0.927  11.844
 4704SOL    HW115008   3.202   0.846  11.846
 4704SOL    HW215009   3.182   0.996  11.784
 4705SOL     OW15010   2.692   1.273  12.594
 4705SOL    HW115011   2.687   1.306  12.689
 4705SOL    HW215012   2.606   1.292  12.548
 4706SOL     OW15013   2.534   1.616  11.326
 4706SOL    HW115014   2.543   1.626  11.227
 4706SOL    HW215015   2.494   1.527  11.347
 4707SOL     OW15016   3.512   1.720  12.566
 4707SOL    HW115017   3.565   1.730  12.482
 4707SOL    HW215018   3.485   1.810  12.600
 4708SOL     OW15019   3.703   0.175  12.135
 4708SOL    HW115020   3.742   0.090  12.099
 4708SOL    HW215021   3.605   0.177  12.116
 4709SOL     OW15022   2.125   0.326  11.892
 4709SOL    HW115023   2.046   0.377  11.858
 4709SOL    HW215024   2.116   0.311  11.990
 4710SOL     OW15025   3.056   1.612  11.203
 4710SOL    HW115026   3.062   1.519  11.240
 4710SOL    HW215027   2.997   1.612  11.123
 4711SOL     OW15028   2.684   1.002  12.544
 4711SOL    HW115029   2.724   1.001  12.452
 4711SOL    HW215030   2.694   1.094  12.584
 4712SOL     OW15031   2.778   0.910  11.463
 4712SOL    HW115032   2.841   0.948  11.395
 4712SOL    HW215033   2.818   0.827  11.502
 4713SOL     OW15034   3.366   1.607  11.216
 4713SOL    HW115035   3.274   1.644  11.223
 4713SOL    HW215036   3.404   1.627  11.126
 4714SOL     OW15037   2.234   1.288  12.662
 4714SOL    HW115038   2.221   1.381  12.628
 4714SOL    HW215039   2.150   1.236  12.649
 4715SOL     OW15040   3.476   1.292  12.461
 4715SOL    HW115041   3.536   1.295  12.541
 4715SOL    HW215042   3.401   1.356  12.474
 4716SOL     OW15043   2.901   1.098  11.868
 4716SOL    HW115044   2.831   1.051  11.922
 4716SOL    HW215045   2.960   1.030  11.825
 4717SOL     OW15046   2.876   0.236  12.143
 4717SOL    HW115047   2.868   0.200  12.050
 4717SOL    HW215048   2.874   0.160  12.208
 4718SOL     OW15049   2.452   1.487  11.663
 4718SOL    HW115050   2.494   1.429  11.593
 4718SOL    HW215051   2.408   1.566  11.619
 4719SOL     OW15052   3.571   0.385  12.553
 4719SOL    HW115053   3.644   0.454  12.557
 4719SOL    HW215054   3.599   0.310  12.494
 4720SOL     OW15055   2.117   1.348  11.462
 4720SOL    HW115056   2.021   1.349  11.435
 4720SOL    HW215057   2.129   1.401  11.546
 4721SOL     OW15058   1.967   1.013  12.898
 4721SOL    HW115059   1.890   0.980  12.952
 4721SOL    HW215060   2.052   0.983  12.940
 4722SOL     OW15061   2.534   0.203  12.661
 4722SOL    HW115062   2.624   0.187  12.621
 4722SOL    HW215063   2.542   0.208  12.760
 4723SOL     OW15064   1.937   0.345  11.205
 4723SOL    HW115065   1.845   0.317  11.176
 4723SOL    HW215066   1.968   0.422  11.149
 4724SOL     OW15067   3.302   0.856  12.570
 4724SOL    HW115068   3.245   0.908  12.507
 4724SOL    HW215069   3.398   0.868  12.546
 4725SOL     OW15070   1.934   0.166  11.490
 4725SOL    HW115071   1.917   0.249  11.436
 4725SOL    HW215072   2.024   0.129  11.468
 4726SOL     OW15073   3.045   1.335  11.291
 4726SOL    HW115074   2.946   1.324  11.293
 4726SOL    HW215075   3.079   1.350  11.384
 4727SOL     OW15076   2.475   0.842  12.603
 4727SOL    HW115077   2.531   0.923  12.586
 4727SOL    HW215078   2.534   0.762  12.606
 4728SOL     OW15079   3.355   1.767  12.131
 4728SOL    HW115080   3.388   1.831  12.062
 4728SOL    HW215081   3.421   1.761  12.206
 4729SOL     OW15082   2.578   0.565  12.880
 4729SOL    HW115083   2.597   0.630  12.954
 4729SOL    HW215084   2.638   0.485  12.889
 4730SOL     OW15085   3.312   1.220  12.805
 4730SOL    HW115086   3.303   1.210  12.904
 4730SOL    HW215087   3.408   1.213  12.779
 4731SOL     OW15088   2.252   1.741  12.732
 4731SOL    HW115089   2.161   1.782  12.730
 4731SOL    HW215090   2.245   1.647  12.764
 4732SOL     OW15091   3.536   0.883  12.426
 4732SOL    HW115092   3.509   0.794  12.389
 4732SOL    HW215093   3.537   0.951  12.353
 4733SOL     OW15094   3.087   0.325  11.621
 4733SOL    HW115095   3.152   0.251  11.610
 4733SOL    HW215096   3.107   0.375  11.705
 4734SOL     OW15097   2.456   0.745  11.824
 4734SOL    HW115098   2.506   0.830  11.805
 4734SOL    HW215099   2.368   0.747  11.776
 4735SOL     OW15100   3.639   0.342  12.814
 4735SOL    HW115101   3.622   0.373  12.720
 4735SOL    HW215102   3.555   0.305  12.852
 4736SOL     OW15103   3.592   0.934  12.689
 4736SOL    HW115104   3.630   1.025  12.704
 4736SOL    HW215105   3.584   0.917  12.590
 4737SOL     OW15106   2.721   1.374  11.188
 4737SOL    HW115107   2.675   1.389  11.276
 4737SOL    HW215108   2.765   1.459  11.158
 4738SOL     OW15109   2.523   1.790  12.125
 4738SOL    HW115110   2.477   1.878  12.112
 4738SOL    HW215111   2.622   1.802  12.118
 4739SOL     OW15112   2.721   0.956  12.033
 4739SOL    HW115113   2.775   0.887  12.081
 4739SOL    HW215114   2.689   1.025  12.099
 4740SOL     OW15115   2.945   0.984  11.259
 4740SOL    HW115116   2.922   1.037  11.177
 4740SOL    HW215117   3.026   0.928  11.240
 4741SOL     OW15118   3.723   1.569  12.023
 4741SOL    HW115119   3.652   1.557  11.953
 4741SOL    HW215120   3.724   1.490  12.083
 4742SOL     OW15121   2.083   1.314  13.016
 4742SOL    HW115122   2.018   1.241  12.995
 4742SOL    HW215123   2.087   1.328  13.114
 4743SOL     OW15124   1.941   1.240  11.825
 4743SOL    HW115125   1.940   1.193  11.913
 4743SOL    HW215126   2.023   1.212  11.774
 4744SOL     OW15127   2.534   1.391  12.796
 4744SOL    HW115128   2.456   1.341  12.834
 4744SOL    HW215129   2.531   1.486  12.827
 4745SOL     OW15130   3.686   0.192  12.399
 4745SOL    HW115131   3.682   0.102  12.443
 4745SOL    HW215132   3.689   0.181  12.300
 4746SOL     OW15133   2.290   0.424  11.692
 4746SOL    HW115134   2.320   0.352  11.630
 4746SOL    HW215135   2.251   0.384  11.775
 4747SOL     OW15136   3.567   1.487  12.276
 4747SOL    HW115137   3.474   1.462  12.249
 4747SOL    HW215138   3.593   1.437  12.358
 4748SOL     OW15139   2.179   0.547  12.452
 4748SOL    HW115140   2.217   0.488  12.524
 4748SOL    HW215141   2.219   0.521  12.364
 4749SOL     OW15142   2.674   1.586  11.859
 4749SOL    HW115143   2.706   1.596  11.765
 4749SOL    HW215144   2.595   1.524  11.861
 4750SOL     OW15145   3.286   0.214  12.284
 4750SOL    HW115146   3.338   0.149  12.339
 4750SOL    HW215147   3.237   0.277  12.345
 4751SOL     OW15148   2.863   0.034  12.326
 4751SOL    HW115149   2.800  -0.038  12.295
 4751SOL    HW215150   2.956  -0.002  12.326
 4752SOL     OW15151   2.632   1.330  11.473
 4752SOL    HW115152   2.586   1.243  11.490
 4752SOL    HW215153   2.723   1.327  11.514
 4753SOL     OW15154   2.480   1.567  12.456
 4753SOL    HW115155   2.475   1.649  12.513
 4753SOL    HW215156   2.569   1.564  12.411
 4754SOL     OW15157   3.214   0.052  11.340
 4754SOL    HW115158   3.249   0.011  11.256
 4754SOL    HW215159   3.124   0.014  11.360
 4755SOL     OW15160   3.162   0.453  11.863
 4755SOL    HW115161   3.103   0.533  11.867
 4755SOL    HW215162   3.177   0.418  11.956
 4756SOL     OW15163   3.455   0.221  12.054
 4756SOL    HW115164   3.371   0.220  12.108
 4756SOL    HW215165   3.457   0.304  11.998
 4757SOL     OW15166   1.901   1.077  11.472
 4757SOL    HW115167   2.000   1.066  11.463
 4757SOL    HW215168   1.861   0.991  11.504
 4758SOL     OW15169   2.737   1.646  11.509
 4758SOL    HW115170   2.660   1.611  11.455
 4758SOL    HW215171   2.705   1.717  11.571
 4759SOL     OW15172   2.092   0.628  13.147
 4759SOL    HW115173   1.999   0.626  13.184
 4759SOL    HW215174   2.093   0.589  13.055
 4760SOL     OW15175   2.087   0.275  14.030
 4760SOL    HW115176   2.122   0.258  14.122
 4760SOL    HW215177   1.999   0.230  14.018
 4761SOL     OW15178   1.881   0.368  13.681
 4761SOL    HW115179   1.799   0.411  13.720
 4761SOL    HW215180   1.853   0.295  13.618
 4762SOL     OW15181   3.417   1.511  13.737
 4762SOL    HW115182   3.360   1.495  13.818
 4762SOL    HW215183   3.358   1.521  13.657
 4763SOL     OW15184   2.997   0.703  13.751
 4763SOL    HW115185   3.054   0.781  13.726
 4763SOL    HW215186   2.937   0.729  13.827
 4764SOL     OW15187   3.617   0.607  13.265
 4764SOL    HW115188   3.605   0.594  13.166
 4764SOL    HW215189   3.587   0.526  13.314
 4765SOL     OW15190   2.547   1.012  13.699
 4765SOL    HW115191   2.616   0.996  13.769
 4765SOL    HW215192   2.474   1.069  13.737
 4766SOL     OW15193   3.465   0.447  13.771
 4766SOL    HW115194   3.391   0.493  13.721
 4766SOL    HW215195   3.516   0.515  13.824
 4767SOL     OW15196   2.093   1.713  13.517
 4767SOL    HW115197   2.127   1.790  13.571
 4767SOL    HW215198   2.137   1.713  13.427
 4768SOL     OW15199   2.092   1.434  13.572
 4768SOL    HW115200   2.066   1.530  13.572
 4768SOL    HW215201   2.021   1.380  13.617
 4769SOL     OW15202   2.102   1.091  13.920
 4769SOL    HW115203   2.116   1.007  13.972
 4769SOL    HW215204   2.047   1.155  13.975
 4770SOL     OW15205   2.468   0.964  13.157
 4770SOL    HW115206   2.475   1.048  13.103
 4770SOL    HW215207   2.514   0.977  13.245
 4771SOL     OW15208   1.984   0.643  13.597
 4771SOL    HW115209   1.939   0.555  13.614
 4771SOL    HW215210   1.983   0.697  13.681
 4772SOL     OW15211   3.704   1.767  13.393
 4772SOL    HW115212   3.758   1.738  13.473
 4772SOL    HW215213   3.734   1.857  13.364
 4773SOL     OW15214   3.551   0.922  13.646
 4773SOL    HW115215   3.646   0.893  13.654
 4773SOL    HW215216   3.543   0.987  13.571
 4774SOL     OW15217   3.503   1.108  13.466
 4774SOL    HW115218   3.589   1.110  13.414
 4774SOL    HW215219   3.517   1.155  13.554
 4775SOL     OW15220   2.475   1.365  13.760
 4775SOL    HW115221   2.426   1.278  13.769
 4775SOL    HW215222   2.452   1.408  13.673
 4776SOL     OW15223   2.671   0.004  13.536
 4776SOL    HW115224   2.711   0.095  13.527
 4776SOL    HW215225   2.571   0.012  13.542
 4777SOL     OW15226   3.387   0.999  13.224
 4777SOL    HW115227   3.324   0.923  13.237
 4777SOL    HW215228   3.435   1.017  13.310
 4778SOL     OW15229   3.529   1.714  13.606
 4778SOL    HW115230   3.488   1.691  13.518
 4778SOL    HW215231   3.511   1.640  13.671
 4779SOL     OW15232   2.460   0.729  13.304
 4779SOL    HW115233   2.484   0.798  13.236
 4779SOL    HW215234   2.382   0.762  13.358
 4780SOL     OW15235   3.143   0.345  13.978
 4780SOL    HW115236   3.057   0.295  13.965
 4780SOL    HW215237   3.205   0.291  14.034
 4781SOL     OW15238   3.438   1.662  13.341
 4781SOL    HW115239   3.527   1.708  13.344
 4781SOL    HW215240   3.417   1.638  13.246
 4782SOL     OW15241   2.903   0.701  13.463
 4782SOL    HW115242   2.929   0.697  13.559
 4782SOL    HW215243   2.818   0.650  13.449
 4783SOL     OW15244   1.938   0.811  13.823
 4783SOL    HW115245   2.037   0.799  13.832
 4783SOL    HW215246   1.914   0.906  13.844
 4784SOL     OW15247   2.727   0.348  13.229
 4784SOL    HW115248   2.786   0.411  13.180
 4784SOL    HW215249   2.746   0.254  13.200
 4785SOL     OW15250   3.224   1.144  13.579
 4785SOL    HW115251   3.307   1.115  13.531
 4785SOL    HW215252   3.175   1.211  13.523
 4786SOL     OW15253   2.870   1.456  13.511
 4786SOL    HW115254   2.824   1.528  13.459
 4786SOL    HW215255   2.866   1.476  13.609
 4787SOL     OW15256   2.213   1.801  13.887
 4787SOL    HW115257   2.263   1.715  13.893
 4787SOL    HW215258   2.278   1.878  13.884
 4788SOL     OW15259   3.657   1.066  13.907
 4788SOL    HW115260   3.595   1.051  13.831
 4788SOL    HW215261   3.605   1.077  13.992
 4789SOL     OW15262   2.183   0.943  13.276
 4789SOL    HW115263   2.265   0.982  13.234
 4789SOL    HW215264   2.156   0.861  13.227
 4790SOL     OW15265   3.320   0.735  13.762
 4790SOL    HW115266   3.315   0.670  13.837
 4790SOL    HW215267   3.400   0.794  13.775
 4791SOL     OW15268   2.973   1.776  13.271
 4791SOL    HW115269   2.913   1.714  13.321
 4791SOL    HW215270   3.004   1.732  13.186
 4792SOL     OW15271   3.494   1.377  13.115
 4792SOL    HW115272   3.462   1.471  13.105
 4792SOL    HW215273   3.418   1.314  13.103
 4793SOL     OW15274   2.326   1.743  13.357
 4793SOL    HW115275   2.359   1.782  13.443
 4793SOL    HW215276   2.402   1.736  13.292
 4794SOL     OW15277   3.262   0.107  13.460
 4794SOL    HW115278   3.238   0.070  13.370
 4794SOL    HW215279   3.361   0.123  13.464
 4795SOL     OW15280   2.802   1.698  13.938
 4795SOL    HW115281   2.882   1.641  13.959
 4795SOL    HW215282   2.753   1.658  13.861
 4796SOL     OW15283   2.244   0.700  13.514
 4796SOL    HW115284   2.289   0.610  13.511
 4796SOL    HW215285   2.150   0.689  13.547
 4797SOL     OW15286   2.476   0.122  13.151
 4797SOL    HW115287   2.574   0.100  13.158
 4797SOL    HW215288   2.445   0.105  13.058
 4798SOL     OW15289   2.401   0.064  13.546
 4798SOL    HW115290   2.320   0.065  13.604
 4798SOL    HW215291   2.404   0.147  13.491
 4799SOL     OW15292   3.296   1.188  13.075
 4799SOL    HW115293   3.328   1.112  13.132
 4799SOL    HW215294   3.204   1.215  13.105
 4800SOL     OW15295   2.159   0.035  13.205
 4800SOL    HW115296   2.208   0.119  13.184
 4800SOL    HW215297   2.221  -0.030  13.250
 4801SOL     OW15298   2.797   0.236  13.514
 4801SOL    HW115299   2.749   0.277  13.436
 4801SOL    HW215300   2.896   0.234  13.495
 4802SOL     OW15301   2.321   1.152  13.775
 4802SOL    HW115302   2.250   1.125  13.840
 4802SOL    HW215303   2.295   1.124  13.682
 4803SOL     OW15304   3.133   1.797  13.625
 4803SOL    HW115305   3.177   1.861  13.561
 4803SOL    HW215306   3.083   1.849  13.695
 4804SOL     OW15307   2.894   0.549  13.050
 4804SOL    HW115308   2.853   0.631  13.011
 4804SOL    HW215309   2.958   0.575  13.123
 4805SOL     OW15310   2.728   0.454  13.676
 4805SOL    HW115311   2.696   0.526  13.614
 4805SOL    HW215312   2.752   0.373  13.623
 4806SOL     OW15313   2.879   0.039  13.787
 4806SOL    HW115314   2.807   0.044  13.718
 4806SOL    HW215315   2.855  -0.030  13.856
 4807SOL     OW15316   3.719   0.833  13.411
 4807SOL    HW115317   3.761   0.769  13.475
 4807SOL    HW215318   3.681   0.782  13.333
 4808SOL     OW15319   2.350   1.385  13.208
 4808SOL    HW115320   2.263   1.370  13.255
 4808SOL    HW215321   2.333   1.411  13.113
 4809SOL     OW15322   3.526   1.280  13.691
 4809SOL    HW115323   3.625   1.288  13.705
 4809SOL    HW215324   3.481   1.364  13.722
 4810SOL     OW15325   3.252   0.575  13.112
 4810SOL    HW115326   3.198   0.554  13.193
 4810SOL    HW215327   3.343   0.534  13.121
 4811SOL     OW15328   2.389   0.256  13.362
 4811SOL    HW115329   2.416   0.197  13.287
 4811SOL    HW215330   2.389   0.351  13.331
 4812SOL     OW15331   2.567   1.050  13.402
 4812SOL    HW115332   2.553   1.057  13.501
 4812SOL    HW215333   2.651   0.999  13.384
 4813SOL     OW15334   2.229   1.100  13.535
 4813SOL    HW115335   2.222   1.183  13.479
 4813SOL    HW215336   2.233   1.020  13.475
 4814SOL     OW15337   2.428   0.537  13.899
 4814SOL    HW115338   2.440   0.603  13.825
 4814SOL    HW215339   2.474   0.571  13.982
 4815SOL     OW15340   3.114   1.348  13.422
 4815SOL    HW115341   3.164   1.425  13.462
 4815SOL    HW215342   3.019   1.350  13.454
 4816SOL     OW15343   3.444   0.639  13.506
 4816SOL    HW115344   3.413   0.700  13.579
 4816SOL    HW215345   3.494   0.691  13.437
 4817SOL     OW15346   3.071   0.525  13.309
 4817SOL    HW115347   3.084   0.441  13.363
 4817SOL    HW215348   3.042   0.599  13.369
 4818SOL     OW15349   2.169   0.063  13.652
 4818SOL    HW115350   2.158   0.157  13.685
 4818SOL    HW215351   2.164   0.000  13.729
 4819SOL     OW15352   3.484   0.367  13.408
 4819SOL    HW115353   3.486   0.291  13.472
 4819SOL    HW215354   3.436   0.444  13.448
 4820SOL     OW15355   3.402   0.274  13.159
 4820SOL    HW115356   3.341   0.199  13.182
 4820SOL    HW215357   3.424   0.326  13.242
 4821SOL     OW15358   3.165   0.838  13.076
 4821SOL    HW115359   3.199   0.745  13.091
 4821SOL    HW215360   3.183   0.865  12.981
 4822SOL     OW15361   1.870   1.326  13.234
 4822SOL    HW115362   1.777   1.347  13.203
 4822SOL    HW215363   1.880   1.227  13.247
 4823SOL     OW15364   2.677   0.572  13.359
 4823SOL    HW115365   2.684   0.483  13.313
 4823SOL    HW215366   2.583   0.606  13.351
 4824SOL     OW15367   2.335   0.500  13.225
 4824SOL    HW115368   2.396   0.580  13.229
 4824SOL    HW215369   2.240   0.531  13.232
 4825SOL     OW15370   3.164   0.855  13.343
 4825SOL    HW115371   3.078   0.824  13.385
 4825SOL    HW215372   3.160   0.841  13.244
 4826SOL     OW15373   3.588   0.135  13.557
 4826SOL    HW115374   3.661   0.118  13.490
 4826SOL    HW215375   3.557   0.048  13.595
 4827SOL     OW15376   3.250   1.573  13.511
 4827SOL    HW115377   3.317   1.585  13.437
 4827SOL    HW215378   3.210   1.662  13.534
 4828SOL     OW15379   3.142   0.927  13.706
 4828SOL    HW115380   3.202   0.846  13.708
 4828SOL    HW215381   3.182   0.996  13.646
 4829SOL     OW15382   2.534   1.616  13.188
 4829SOL    HW115383   2.543   1.626  13.089
 4829SOL    HW215384   2.494   1.527  13.209
 4830SOL     OW15385   3.703   0.175  13.997
 4830SOL    HW115386   3.742   0.090  13.961
 4830SOL    HW215387   3.605   0.177  13.978
 4831SOL     OW15388   2.125   0.326  13.754
 4831SOL    HW115389   2.046   0.377  13.720
 4831SOL    HW215390   2.116   0.311  13.852
 4832SOL     OW15391   3.056   1.612  13.065
 4832SOL    HW115392   3.062   1.519  13.102
 4832SOL    HW215393   2.997   1.612  12.985
 4833SOL     OW15394   2.778   0.910  13.325
 4833SOL    HW115395   2.841   0.948  13.257
 4833SOL    HW215396   2.818   0.827  13.364
 4834SOL     OW15397   3.366   1.607  13.078
 4834SOL    HW115398   3.274   1.644  13.085
 4834SOL    HW215399   3.404   1.627  12.988
 4835SOL     OW15400   2.901   1.098  13.730
 4835SOL    HW115401   2.831   1.051  13.784
 4835SOL    HW215402   2.960   1.030  13.687
 4836SOL     OW15403   2.452   1.487  13.525
 4836SOL    HW115404   2.494   1.429  13.455
 4836SOL    HW215405   2.408   1.566  13.481
 4837SOL     OW15406   2.117   1.348  13.324
 4837SOL    HW115407   2.021   1.349  13.297
 4837SOL    HW215408   2.129   1.401  13.408
 4838SOL     OW15409   1.937   0.345  13.067
 4838SOL    HW115410   1.845   0.317  13.038
 4838SOL    HW215411   1.968   0.422  13.011
 4839SOL     OW15412   1.934   0.166  13.352
 4839SOL    HW115413   1.917   0.249  13.298
 4839SOL    HW215414   2.024   0.129  13.330
 4840SOL     OW15415   3.045   1.335  13.153
 4840SOL    HW115416   2.946   1.324  13.155
 4840SOL    HW215417   3.079   1.350  13.246
 4841SOL     OW15418   3.087   0.325  13.483
 4841SOL    HW115419   3.152   0.251  13.472
 4841SOL    HW215420   3.107   0.375  13.567
 4842SOL     OW15421   2.456   0.745  13.686
 4842SOL    HW115422   2.506   0.830  13.667
 4842SOL    HW215423   2.368   0.747  13.638
 4843SOL     OW15424   2.721   1.374  13.050
 4843SOL    HW115425   2.675   1.389  13.138
 4843SOL    HW215426   2.765   1.459  13.020
 4844SOL     OW15427   2.523   1.790  13.987
 4844SOL    HW115428   2.477   1.878  13.974
 4844SOL    HW215429   2.622   1.802  13.980
 4845SOL     OW15430   2.721   0.956  13.895
 4845SOL    HW115431   2.775   0.887  13.943
 4845SOL    HW215432   2.689   1.025  13.961
 4846SOL     OW15433   2.945   0.984  13.121
 4846SOL    HW115434   2.922   1.037  13.039
 4846SOL    HW215435   3.026   0.928  13.102
 4847SOL     OW15436   1.941   1.240  13.687
 4847SOL    HW115437   1.940   1.193  13.775
 4847SOL    HW215438   2.023   1.212  13.636
 4848SOL     OW15439   2.290   0.424  13.554
 4848SOL    HW115440   2.320   0.352  13.492
 4848SOL    HW215441   2.251   0.384  13.637
 4849SOL     OW15442   3.567   1.487  14.138
 4849SOL    HW115443   3.474   1.462  14.111
 4849SOL    HW215444   3.593   1.437  14.220
 4850SOL     OW15445   2.674   1.586  13.721
 4850SOL    HW115446   2.706   1.596  13.627
 4850SOL    HW215447   2.595   1.524  13.723
 4851SOL     OW15448   2.632   1.330  13.335
 4851SOL    HW115449   2.586   1.243  13.352
 4851SOL    HW215450   2.723   1.327  13.376
 4852SOL     OW15451   3.214   0.052  13.202
 4852SOL    HW115452   3.249   0.011  13.118
 4852SOL    HW215453   3.124   0.014  13.222
 4853SOL     OW15454   3.162   0.453  13.725
 4853SOL    HW115455   3.103   0.533  13.729
 4853SOL    HW215456   3.177   0.418  13.818
 4854SOL     OW15457   1.901   1.077  13.334
 4854SOL    HW115458   2.000   1.066  13.325
 4854SOL    HW215459   1.861   0.991  13.366
 4855SOL     OW15460   2.737   1.646  13.371
 4855SOL    HW115461   2.660   1.611  13.317
 4855SOL    HW215462   2.705   1.717  13.433
 4856SOL     OW15463   2.092   2.490   0.113
 4856SOL    HW115464   1.999   2.488   0.150
 4856SOL    HW215465   2.093   2.451   0.021
 4857SOL     OW15466   1.881   2.230   0.647
 4857SOL    HW115467   1.799   2.273   0.686
 4857SOL    HW215468   1.853   2.157   0.584
 4858SOL     OW15469   2.431   3.137   1.165
 4858SOL    HW115470   2.338   3.130   1.128
 4858SOL    HW215471   2.442   3.226   1.209
 4859SOL     OW15472   3.417   3.373   0.703
 4859SOL    HW115473   3.360   3.357   0.784
 4859SOL    HW215474   3.358   3.383   0.623
 4860SOL     OW15475   2.997   2.565   0.717
 4860SOL    HW115476   3.054   2.643   0.692
 4860SOL    HW215477   2.937   2.591   0.793
 4861SOL     OW15478   3.617   2.469   0.231
 4861SOL    HW115479   3.605   2.456   0.132
 4861SOL    HW215480   3.587   2.388   0.280
 4862SOL     OW15481   2.630   3.006   1.023
 4862SOL    HW115482   2.552   3.023   1.083
 4862SOL    HW215483   2.664   3.093   0.987
 4863SOL     OW15484   2.712   2.660   1.823
 4863SOL    HW115485   2.708   2.736   1.888
 4863SOL    HW215486   2.734   2.696   1.732
 4864SOL     OW15487   2.547   2.874   0.665
 4864SOL    HW115488   2.616   2.858   0.735
 4864SOL    HW215489   2.474   2.931   0.703
 4865SOL     OW15490   2.548   3.023   1.803
 4865SOL    HW115491   2.608   3.102   1.817
 4865SOL    HW215492   2.462   3.054   1.762
 4866SOL     OW15493   2.197   3.297   1.061
 4866SOL    HW115494   2.119   3.266   1.008
 4866SOL    HW215495   2.255   3.355   1.004
 4867SOL     OW15496   3.322   3.367   1.339
 4867SOL    HW115497   3.346   3.461   1.365
 4867SOL    HW215498   3.306   3.313   1.421
 4868SOL     OW15499   3.465   2.309   0.737
 4868SOL    HW115500   3.391   2.355   0.687
 4868SOL    HW215501   3.516   2.377   0.790
 4869SOL     OW15502   2.093   3.575   0.483
 4869SOL    HW115503   2.127   3.652   0.537
 4869SOL    HW215504   2.137   3.575   0.393
 4870SOL     OW15505   2.989   3.203   1.690
 4870SOL    HW115506   3.036   3.203   1.778
 4870SOL    HW215507   2.941   3.116   1.679
 4871SOL     OW15508   2.092   3.296   0.538
 4871SOL    HW115509   2.066   3.392   0.538
 4871SOL    HW215510   2.021   3.242   0.583
 4872SOL     OW15511   2.102   2.953   0.886
 4872SOL    HW115512   2.116   2.869   0.938
 4872SOL    HW215513   2.047   3.017   0.941
 4873SOL     OW15514   2.482   3.648   1.439
 4873SOL    HW115515   2.390   3.631   1.474
 4873SOL    HW215516   2.510   3.740   1.465
 4874SOL     OW15517   2.468   2.826   0.123
 4874SOL    HW115518   2.475   2.910   0.069
 4874SOL    HW215519   2.514   2.839   0.211
 4875SOL     OW15520   3.456   1.976   1.480
 4875SOL    HW115521   3.438   2.043   1.408
 4875SOL    HW215522   3.453   2.022   1.569
 4876SOL     OW15523   1.984   2.505   0.563
 4876SOL    HW115524   1.939   2.417   0.580
 4876SOL    HW215525   1.983   2.559   0.647
 4877SOL     OW15526   3.704   3.629   0.359
 4877SOL    HW115527   3.758   3.600   0.439
 4877SOL    HW215528   3.734   3.719   0.330
 4878SOL     OW15529   1.889   3.458   0.117
 4878SOL    HW115530   1.870   3.362   0.138
 4878SOL    HW215531   1.856   3.516   0.192
 4879SOL     OW15532   3.551   2.784   0.612
 4879SOL    HW115533   3.646   2.755   0.620
 4879SOL    HW215534   3.543   2.849   0.537
 4880SOL     OW15535   3.503   2.970   0.432
 4880SOL    HW115536   3.589   2.972   0.380
 4880SOL    HW215537   3.517   3.017   0.520
 4881SOL     OW15538   1.975   2.599   1.597
 4881SOL    HW115539   2.063   2.586   1.642
 4881SOL    HW215540   1.962   2.696   1.575
 4882SOL     OW15541   2.475   3.227   0.726
 4882SOL    HW115542   2.426   3.140   0.735
 4882SOL    HW215543   2.452   3.270   0.639
 4883SOL     OW15544   3.155   3.090   1.423
 4883SOL    HW115545   3.192   3.017   1.365
 4883SOL    HW215546   3.207   3.095   1.508
 4884SOL     OW15547   2.671   1.866   0.502
 4884SOL    HW115548   2.711   1.957   0.493
 4884SOL    HW215549   2.571   1.874   0.508
 4885SOL     OW15550   2.059   2.838   1.264
 4885SOL    HW115551   2.148   2.793   1.250
 4885SOL    HW215552   1.986   2.773   1.245
 4886SOL     OW15553   3.387   2.861   0.190
 4886SOL    HW115554   3.324   2.785   0.203
 4886SOL    HW215555   3.435   2.879   0.276
 4887SOL     OW15556   3.049   3.654   1.616
 4887SOL    HW115557   3.073   3.714   1.540
 4887SOL    HW215558   3.056   3.559   1.586
 4888SOL     OW15559   3.328   3.279   0.953
 4888SOL    HW115560   3.269   3.285   1.033
 4888SOL    HW215561   3.313   3.191   0.907
 4889SOL     OW15562   3.529   3.576   0.572
 4889SOL    HW115563   3.488   3.553   0.484
 4889SOL    HW215564   3.511   3.502   0.637
 4890SOL     OW15565   2.460   2.591   0.270
 4890SOL    HW115566   2.484   2.660   0.202
 4890SOL    HW215567   2.382   2.624   0.324
 4891SOL     OW15568   3.143   2.207   0.944
 4891SOL    HW115569   3.057   2.157   0.931
 4891SOL    HW215570   3.205   2.153   1.000
 4892SOL     OW15571   3.438   3.524   0.307
 4892SOL    HW115572   3.527   3.570   0.310
 4892SOL    HW215573   3.417   3.500   0.212
 4893SOL     OW15574   2.669   2.467   1.465
 4893SOL    HW115575   2.622   2.464   1.554
 4893SOL    HW215576   2.618   2.412   1.399
 4894SOL     OW15577   3.256   2.331   1.674
 4894SOL    HW115578   3.236   2.374   1.762
 4894SOL    HW215579   3.334   2.269   1.683
 4895SOL     OW15580   2.835   2.752   1.572
 4895SOL    HW115581   2.881   2.668   1.543
 4895SOL    HW215582   2.779   2.786   1.497
 4896SOL     OW15583   2.853   2.272   1.242
 4896SOL    HW115584   2.776   2.306   1.296
 4896SOL    HW215585   2.819   2.221   1.163
 4897SOL     OW15586   2.903   2.563   0.429
 4897SOL    HW115587   2.929   2.559   0.525
 4897SOL    HW215588   2.818   2.512   0.415
 4898SOL     OW15589   1.938   2.673   0.789
 4898SOL    HW115590   2.037   2.661   0.798
 4898SOL    HW215591   1.914   2.768   0.810
 4899SOL     OW15592   1.992   3.683   1.571
 4899SOL    HW115593   1.982   3.668   1.670
 4899SOL    HW215594   1.906   3.719   1.535
 4900SOL     OW15595   2.727   2.210   0.195
 4900SOL    HW115596   2.786   2.273   0.146
 4900SOL    HW215597   2.746   2.116   0.166
 4901SOL     OW15598   3.581   2.447   1.831
 4901SOL    HW115599   3.555   2.536   1.795
 4901SOL    HW215600   3.579   2.379   1.758
 4902SOL     OW15601   3.224   3.006   0.545
 4902SOL    HW115602   3.307   2.977   0.497
 4902SOL    HW215603   3.175   3.073   0.489
 4903SOL     OW15604   2.412   2.058   0.885
 4903SOL    HW115605   2.407   2.053   0.985
 4903SOL    HW215606   2.414   2.154   0.856
 4904SOL     OW15607   2.870   3.318   0.477
 4904SOL    HW115608   2.824   3.390   0.425
 4904SOL    HW215609   2.866   3.338   0.575
 4905SOL     OW15610   2.213   3.663   0.853
 4905SOL    HW115611   2.263   3.577   0.859
 4905SOL    HW215612   2.278   3.740   0.850
 4906SOL     OW15613   3.657   2.928   0.873
 4906SOL    HW115614   3.595   2.913   0.797
 4906SOL    HW215615   3.605   2.939   0.958
 4907SOL     OW15616   3.089   3.412   1.506
 4907SOL    HW115617   3.095   3.335   1.570
 4907SOL    HW215618   3.037   3.386   1.426
 4908SOL     OW15619   2.183   2.805   0.242
 4908SOL    HW115620   2.265   2.844   0.200
 4908SOL    HW215621   2.156   2.723   0.193
 4909SOL     OW15622   3.320   2.597   0.728
 4909SOL    HW115623   3.315   2.532   0.803
 4909SOL    HW215624   3.400   2.656   0.741
 4910SOL     OW15625   2.323   3.128   1.727
 4910SOL    HW115626   2.273   3.129   1.641
 4910SOL    HW215627   2.260   3.110   1.803
 4911SOL     OW15628   2.973   3.638   0.237
 4911SOL    HW115629   2.913   3.576   0.287
 4911SOL    HW215630   3.004   3.594   0.152
 4912SOL     OW15631   3.494   3.239   0.081
 4912SOL    HW115632   3.462   3.333   0.071
 4912SOL    HW215633   3.418   3.176   0.069
 4913SOL     OW15634   2.326   3.605   0.323
 4913SOL    HW115635   2.359   3.644   0.409
 4913SOL    HW215636   2.402   3.598   0.258
 4914SOL     OW15637   3.262   1.969   0.426
 4914SOL    HW115638   3.238   1.932   0.336
 4914SOL    HW215639   3.361   1.985   0.430
 4915SOL     OW15640   2.111   3.647   1.241
 4915SOL    HW115641   2.168   3.582   1.291
 4915SOL    HW215642   2.095   3.614   1.148
 4916SOL     OW15643   2.802   3.560   0.904
 4916SOL    HW115644   2.882   3.503   0.925
 4916SOL    HW215645   2.753   3.520   0.827
 4917SOL     OW15646   2.244   2.562   0.480
 4917SOL    HW115647   2.289   2.472   0.477
 4917SOL    HW215648   2.150   2.551   0.513
 4918SOL     OW15649   3.409   2.084   1.729
 4918SOL    HW115650   3.404   2.121   1.821
 4918SOL    HW215651   3.337   2.015   1.717
 4919SOL     OW15652   2.643   2.126   1.749
 4919SOL    HW115653   2.710   2.065   1.792
 4919SOL    HW215654   2.570   2.145   1.814
 4920SOL     OW15655   2.750   3.376   1.195
 4920SOL    HW115656   2.727   3.351   1.101
 4920SOL    HW215657   2.811   3.307   1.234
 4921SOL     OW15658   3.213   2.452   1.433
 4921SOL    HW115659   3.241   2.409   1.518
 4921SOL    HW215660   3.238   2.548   1.434
 4922SOL     OW15661   2.665   3.264   0.924
 4922SOL    HW115662   2.755   3.278   0.882
 4922SOL    HW215663   2.594   3.266   0.853
 4923SOL     OW15664   2.784   2.365   0.899
 4923SOL    HW115665   2.759   2.356   0.803
 4923SOL    HW215666   2.832   2.283   0.930
 4924SOL     OW15667   2.401   1.926   0.512
 4924SOL    HW115668   2.320   1.927   0.570
 4924SOL    HW215669   2.404   2.009   0.457
 4925SOL     OW15670   3.296   3.050   0.041
 4925SOL    HW115671   3.328   2.974   0.098
 4925SOL    HW215672   3.204   3.077   0.071
 4926SOL     OW15673   2.797   2.098   0.480
 4926SOL    HW115674   2.749   2.139   0.402
 4926SOL    HW215675   2.896   2.096   0.461
 4927SOL     OW15676   2.938   2.545   1.464
 4927SOL    HW115677   2.858   2.484   1.467
 4927SOL    HW215678   3.019   2.492   1.440
 4928SOL     OW15679   3.089   3.432   0.793
 4928SOL    HW115680   3.110   3.506   0.728
 4928SOL    HW215681   3.157   3.432   0.866
 4929SOL     OW15682   2.321   3.014   0.741
 4929SOL    HW115683   2.250   2.987   0.806
 4929SOL    HW215684   2.295   2.986   0.648
 4930SOL     OW15685   3.133   3.659   0.591
 4930SOL    HW115686   3.177   3.723   0.527
 4930SOL    HW215687   3.083   3.711   0.661
 4931SOL     OW15688   2.894   2.411   0.016
 4931SOL    HW115689   2.853   2.493  -0.023
 4931SOL    HW215690   2.958   2.437   0.089
 4932SOL     OW15691   1.940   2.418   1.386
 4932SOL    HW115692   2.032   2.417   1.345
 4932SOL    HW215693   1.934   2.492   1.453
 4933SOL     OW15694   2.728   2.316   0.642
 4933SOL    HW115695   2.696   2.388   0.580
 4933SOL    HW215696   2.752   2.235   0.589
 4934SOL     OW15697   2.879   1.901   0.753
 4934SOL    HW115698   2.807   1.906   0.684
 4934SOL    HW215699   2.855   1.832   0.822
 4935SOL     OW15700   3.291   3.035   0.867
 4935SOL    HW115701   3.236   2.951   0.860
 4935SOL    HW215702   3.317   3.064   0.775
 4936SOL     OW15703   3.328   2.452   0.992
 4936SOL    HW115704   3.298   2.357   0.999
 4936SOL    HW215705   3.401   2.468   1.058
 4937SOL     OW15706   3.719   2.695   0.377
 4937SOL    HW115707   3.761   2.631   0.441
 4937SOL    HW215708   3.681   2.644   0.299
 4938SOL     OW15709   2.350   3.247   0.174
 4938SOL    HW115710   2.263   3.232   0.221
 4938SOL    HW215711   2.333   3.273   0.079
 4939SOL     OW15712   3.526   3.142   0.657
 4939SOL    HW115713   3.625   3.150   0.671
 4939SOL    HW215714   3.481   3.226   0.688
 4940SOL     OW15715   3.252   2.437   0.078
 4940SOL    HW115716   3.198   2.416   0.159
 4940SOL    HW215717   3.343   2.396   0.087
 4941SOL     OW15718   3.616   3.085   1.588
 4941SOL    HW115719   3.707   3.046   1.575
 4941SOL    HW215720   3.624   3.181   1.612
 4942SOL     OW15721   2.926   3.209   1.340
 4942SOL    HW115722   2.846   3.186   1.395
 4942SOL    HW215723   3.009   3.183   1.389
 4943SOL     OW15724   3.454   3.491   1.625
 4943SOL    HW115725   3.481   3.525   1.535
 4943SOL    HW215726   3.533   3.453   1.671
 4944SOL     OW15727   2.973   3.057   1.100
 4944SOL    HW115728   2.933   3.101   1.181
 4944SOL    HW215729   2.932   3.094   1.017
 4945SOL     OW15730   3.500   2.961   1.079
 4945SOL    HW115731   3.505   3.042   1.138
 4945SOL    HW215732   3.414   2.963   1.028
 4946SOL     OW15733   2.777   1.951   1.402
 4946SOL    HW115734   2.802   1.931   1.307
 4946SOL    HW215735   2.849   2.007   1.444
 4947SOL     OW15736   2.842   2.978   1.719
 4947SOL    HW115737   2.743   2.984   1.729
 4947SOL    HW215738   2.865   2.898   1.663
 4948SOL     OW15739   2.567   2.912   0.368
 4948SOL    HW115740   2.553   2.919   0.467
 4948SOL    HW215741   2.651   2.861   0.350
 4949SOL     OW15742   2.272   2.675   1.251
 4949SOL    HW115743   2.358   2.687   1.301
 4949SOL    HW215744   2.230   2.588   1.278
 4950SOL     OW15745   3.136   2.248   1.262
 4950SOL    HW115746   3.157   2.322   1.326
 4950SOL    HW215747   3.047   2.265   1.219
 4951SOL     OW15748   1.926   3.426   1.331
 4951SOL    HW115749   1.880   3.508   1.297
 4951SOL    HW215750   2.024   3.445   1.340
 4952SOL     OW15751   2.229   2.962   0.501
 4952SOL    HW115752   2.222   3.045   0.445
 4952SOL    HW215753   2.233   2.882   0.441
 4953SOL     OW15754   2.428   2.399   0.865
 4953SOL    HW115755   2.440   2.465   0.791
 4953SOL    HW215756   2.474   2.433   0.948
 4954SOL     OW15757   3.114   3.210   0.388
 4954SOL    HW115758   3.164   3.287   0.428
 4954SOL    HW215759   3.019   3.212   0.420
 4955SOL     OW15760   3.134   3.307   1.142
 4955SOL    HW115761   3.181   3.320   1.229
 4955SOL    HW215762   3.068   3.233   1.151
 4956SOL     OW15763   3.444   2.501   0.472
 4956SOL    HW115764   3.413   2.562   0.545
 4956SOL    HW215765   3.494   2.553   0.403
 4957SOL     OW15766   2.216   3.372   1.329
 4957SOL    HW115767   2.195   3.328   1.242
 4957SOL    HW215768   2.313   3.398   1.332
 4958SOL     OW15769   2.264   2.613   1.598
 4958SOL    HW115770   2.332   2.668   1.551
 4958SOL    HW215771   2.304   2.525   1.625
 4959SOL     OW15772   3.449   2.641   1.670
 4959SOL    HW115773   3.357   2.679   1.665
 4959SOL    HW215774   3.509   2.688   1.605
 4960SOL     OW15775   2.875   1.967   1.770
 4960SOL    HW115776   2.881   2.052   1.718
 4960SOL    HW215777   2.907   1.891   1.713
 4961SOL     OW15778   2.366   1.912   1.740
 4961SOL    HW115779   2.324   1.855   1.670
 4961SOL    HW215780   2.300   1.981   1.772
 4962SOL     OW15781   2.435   2.732   1.029
 4962SOL    HW115782   2.479   2.821   1.020
 4962SOL    HW215783   2.372   2.732   1.106
 4963SOL     OW15784   3.222   2.724   1.045
 4963SOL    HW115785   3.147   2.724   0.979
 4963SOL    HW215786   3.259   2.632   1.054
 4964SOL     OW15787   3.071   2.387   0.275
 4964SOL    HW115788   3.084   2.303   0.329
 4964SOL    HW215789   3.042   2.461   0.335
 4965SOL     OW15790   1.899   3.172   1.282
 4965SOL    HW115791   1.952   3.123   1.350
 4965SOL    HW215792   1.921   3.270   1.287
 4966SOL     OW15793   2.594   2.496   1.064
 4966SOL    HW115794   2.653   2.470   0.988
 4966SOL    HW215795   2.566   2.592   1.053
 4967SOL     OW15796   3.590   2.797   1.854
 4967SOL    HW115797   3.544   2.790   1.765
 4967SOL    HW215798   3.528   2.841   1.920
 4968SOL     OW15799   3.484   2.229   0.374
 4968SOL    HW115800   3.486   2.153   0.438
 4968SOL    HW215801   3.436   2.306   0.414
 4969SOL     OW15802   2.885   2.628   0.966
 4969SOL    HW115803   2.900   2.649   1.062
 4969SOL    HW215804   2.855   2.533   0.957
 4970SOL     OW15805   2.842   3.435   1.700
 4970SOL    HW115806   2.822   3.479   1.612
 4970SOL    HW215807   2.881   3.344   1.684
 4971SOL     OW15808   3.721   3.380   1.605
 4971SOL    HW115809   3.735   3.407   1.510
 4971SOL    HW215810   3.804   3.402   1.658
 4972SOL     OW15811   2.212   2.760   1.804
 4972SOL    HW115812   2.288   2.804   1.852
 4972SOL    HW215813   2.247   2.713   1.722
 4973SOL     OW15814   3.402   2.136   0.125
 4973SOL    HW115815   3.341   2.061   0.148
 4973SOL    HW215816   3.424   2.188   0.208
 4974SOL     OW15817   3.165   2.700   0.042
 4974SOL    HW115818   3.199   2.607   0.057
 4974SOL    HW215819   3.183   2.727  -0.053
 4975SOL     OW15820   2.930   3.195   0.849
 4975SOL    HW115821   2.937   3.111   0.794
 4975SOL    HW215822   2.992   3.264   0.813
 4976SOL     OW15823   2.181   2.672   0.949
 4976SOL    HW115824   2.274   2.708   0.954
 4976SOL    HW215825   2.175   2.587   1.001
 4977SOL     OW15826   2.201   2.371   1.006
 4977SOL    HW115827   2.149   2.288   0.989
 4977SOL    HW215828   2.278   2.376   0.942
 4978SOL     OW15829   3.000   2.242   1.678
 4978SOL    HW115830   2.955   2.305   1.742
 4978SOL    HW215831   3.093   2.273   1.661
 4979SOL     OW15832   3.022   2.069   1.477
 4979SOL    HW115833   3.022   2.133   1.554
 4979SOL    HW215834   3.050   2.117   1.394
 4980SOL     OW15835   1.870   3.188   0.200
 4980SOL    HW115836   1.777   3.209   0.169
 4980SOL    HW215837   1.880   3.089   0.213
 4981SOL     OW15838   1.950   3.663   0.927
 4981SOL    HW115839   1.908   3.577   0.900
 4981SOL    HW215840   2.044   3.666   0.893
 4982SOL     OW15841   2.366   3.430   0.910
 4982SOL    HW115842   2.432   3.504   0.919
 4982SOL    HW215843   2.410   3.351   0.868
 4983SOL     OW15844   2.864   2.658   1.238
 4983SOL    HW115845   2.905   2.626   1.324
 4983SOL    HW215846   2.768   2.631   1.235
 4984SOL     OW15847   1.902   2.406   1.114
 4984SOL    HW115848   1.987   2.373   1.073
 4984SOL    HW215849   1.915   2.421   1.212
 4985SOL     OW15850   2.051   2.382   1.722
 4985SOL    HW115851   2.110   2.342   1.652
 4985SOL    HW215852   1.993   2.453   1.681
 4986SOL     OW15853   3.231   2.812   1.660
 4986SOL    HW115854   3.270   2.901   1.680
 4986SOL    HW215855   3.241   2.792   1.563
 4987SOL     OW15856   2.677   2.434   0.325
 4987SOL    HW115857   2.684   2.345   0.279
 4987SOL    HW215858   2.583   2.468   0.317
 4988SOL     OW15859   3.519   2.466   1.206
 4988SOL    HW115860   3.481   2.397   1.268
 4988SOL    HW215861   3.601   2.430   1.162
 4989SOL     OW15862   2.114   3.426   1.744
 4989SOL    HW115863   2.084   3.483   1.820
 4989SOL    HW215864   2.107   3.329   1.770
 4990SOL     OW15865   2.533   2.326   1.269
 4990SOL    HW115866   2.499   2.237   1.239
 4990SOL    HW215867   2.559   2.380   1.189
 4991SOL     OW15868   2.792   3.540   1.465
 4991SOL    HW115869   2.768   3.522   1.370
 4991SOL    HW215870   2.822   3.634   1.475
 4992SOL     OW15871   2.335   2.362   0.191
 4992SOL    HW115872   2.396   2.442   0.195
 4992SOL    HW215873   2.240   2.393   0.198
 4993SOL     OW15874   2.021   2.999   1.466
 4993SOL    HW115875   2.043   2.938   1.542
 4993SOL    HW215876   2.031   2.950   1.380
 4994SOL     OW15877   3.209   2.921   1.234
 4994SOL    HW115878   3.233   2.858   1.160
 4994SOL    HW215879   3.119   2.961   1.216
 4995SOL     OW15880   3.164   2.717   0.309
 4995SOL    HW115881   3.078   2.686   0.351
 4995SOL    HW215882   3.160   2.703   0.210
 4996SOL     OW15883   3.621   3.609   1.154
 4996SOL    HW115884   3.682   3.639   1.081
 4996SOL    HW215885   3.583   3.520   1.132
 4997SOL     OW15886   3.114   3.593   1.128
 4997SOL    HW115887   3.198   3.598   1.074
 4997SOL    HW215888   3.091   3.497   1.146
 4998SOL     OW15889   1.945   3.120   1.022
 4998SOL    HW115890   1.940   3.119   1.122
 4998SOL    HW215891   1.862   3.079   0.984
 4999SOL     OW15892   2.550   3.524   1.716
 4999SOL    HW115893   2.494   3.605   1.725
 4999SOL    HW215894   2.602   3.528   1.630
 5000SOL     OW15895   2.765   1.948   0.133
 5000SOL    HW115896   2.816   1.949   0.047
 5000SOL    HW215897   2.821   1.906   0.204
 5001SOL     OW15898   3.588   1.997   0.523
 5001SOL    HW115899   3.661   1.980   0.456
 5001SOL    HW215900   3.557   1.910   0.561
 5002SOL     OW15901   3.250   3.435   0.477
 5002SOL    HW115902   3.317   3.447   0.403
 5002SOL    HW215903   3.210   3.524   0.500
 5003SOL     OW15904   1.992   3.656   1.851
 5003SOL    HW115905   1.951   3.582   1.904
 5003SOL    HW215906   2.056   3.707   1.909
 5004SOL     OW15907   3.142   2.789   0.672
 5004SOL    HW115908   3.202   2.708   0.674
 5004SOL    HW215909   3.182   2.858   0.612
 5005SOL     OW15910   2.692   3.135   1.422
 5005SOL    HW115911   2.687   3.168   1.517
 5005SOL    HW215912   2.606   3.154   1.376
 5006SOL     OW15913   2.534   3.478   0.154
 5006SOL    HW115914   2.543   3.488   0.055
 5006SOL    HW215915   2.494   3.389   0.175
 5007SOL     OW15916   3.512   3.582   1.394
 5007SOL    HW115917   3.565   3.592   1.310
 5007SOL    HW215918   3.485   3.672   1.428
 5008SOL     OW15919   3.703   2.037   0.963
 5008SOL    HW115920   3.742   1.952   0.927
 5008SOL    HW215921   3.605   2.039   0.944
 5009SOL     OW15922   3.056   3.474   0.031
 5009SOL    HW115923   3.062   3.381   0.068
 5009SOL    HW215924   2.997   3.474  -0.049
 5010SOL     OW15925   2.684   2.864   1.372
 5010SOL    HW115926   2.724   2.863   1.280
 5010SOL    HW215927   2.694   2.956   1.412
 5011SOL     OW15928   2.778   2.772   0.291
 5011SOL    HW115929   2.841   2.810   0.223
 5011SOL    HW215930   2.818   2.689   0.330
 5012SOL     OW15931   3.366   3.469   0.044
 5012SOL    HW115932   3.274   3.506   0.051
 5012SOL    HW215933   3.404   3.489  -0.046
 5013SOL     OW15934   2.234   3.150   1.490
 5013SOL    HW115935   2.221   3.243   1.456
 5013SOL    HW215936   2.150   3.098   1.477
 5014SOL     OW15937   3.476   3.154   1.289
 5014SOL    HW115938   3.536   3.157   1.369
 5014SOL    HW215939   3.401   3.218   1.302
 5015SOL     OW15940   2.901   2.960   0.696
 5015SOL    HW115941   2.831   2.913   0.750
 5015SOL    HW215942   2.960   2.892   0.653
 5016SOL     OW15943   2.876   2.098   0.971
 5016SOL    HW115944   2.868   2.062   0.878
 5016SOL    HW215945   2.874   2.022   1.036
 5017SOL     OW15946   2.452   3.349   0.491
 5017SOL    HW115947   2.494   3.291   0.421
 5017SOL    HW215948   2.408   3.428   0.447
 5018SOL     OW15949   3.571   2.247   1.381
 5018SOL    HW115950   3.644   2.316   1.385
 5018SOL    HW215951   3.599   2.172   1.322
 5019SOL     OW15952   2.117   3.210   0.290
 5019SOL    HW115953   2.021   3.211   0.263
 5019SOL    HW215954   2.129   3.263   0.374
 5020SOL     OW15955   1.967   2.875   1.726
 5020SOL    HW115956   1.890   2.842   1.780
 5020SOL    HW215957   2.052   2.845   1.768
 5021SOL     OW15958   2.534   2.065   1.489
 5021SOL    HW115959   2.624   2.049   1.449
 5021SOL    HW215960   2.542   2.070   1.588
 5022SOL     OW15961   1.937   2.207   0.033
 5022SOL    HW115962   1.845   2.179   0.004
 5022SOL    HW215963   1.968   2.284  -0.023
 5023SOL     OW15964   3.302   2.718   1.398
 5023SOL    HW115965   3.245   2.770   1.335
 5023SOL    HW215966   3.398   2.730   1.374
 5024SOL     OW15967   3.045   3.197   0.119
 5024SOL    HW115968   2.946   3.186   0.121
 5024SOL    HW215969   3.079   3.212   0.212
 5025SOL     OW15970   2.475   2.704   1.431
 5025SOL    HW115971   2.531   2.785   1.414
 5025SOL    HW215972   2.534   2.624   1.434
 5026SOL     OW15973   3.355   3.629   0.959
 5026SOL    HW115974   3.388   3.693   0.890
 5026SOL    HW215975   3.421   3.623   1.034
 5027SOL     OW15976   2.578   2.427   1.708
 5027SOL    HW115977   2.597   2.492   1.782
 5027SOL    HW215978   2.638   2.347   1.717
 5028SOL     OW15979   3.312   3.082   1.633
 5028SOL    HW115980   3.303   3.072   1.732
 5028SOL    HW215981   3.408   3.075   1.607
 5029SOL     OW15982   2.252   3.603   1.560
 5029SOL    HW115983   2.161   3.644   1.558
 5029SOL    HW215984   2.245   3.509   1.592
 5030SOL     OW15985   3.536   2.745   1.254
 5030SOL    HW115986   3.509   2.656   1.217
 5030SOL    HW215987   3.537   2.813   1.181
 5031SOL     OW15988   3.087   2.187   0.449
 5031SOL    HW115989   3.152   2.113   0.438
 5031SOL    HW215990   3.107   2.237   0.533
 5032SOL     OW15991   2.456   2.607   0.652
 5032SOL    HW115992   2.506   2.692   0.633
 5032SOL    HW215993   2.368   2.609   0.604
 5033SOL     OW15994   3.639   2.204   1.642
 5033SOL    HW115995   3.622   2.235   1.548
 5033SOL    HW215996   3.555   2.167   1.680
 5034SOL     OW15997   3.592   2.796   1.517
 5034SOL    HW115998   3.630   2.887   1.532
 5034SOL    HW215999   3.584   2.779   1.418
 5035SOL     OW16000   2.721   3.236   0.016
 5035SOL    HW116001   2.675   3.251   0.104
 5035SOL    HW216002   2.765   3.321  -0.014
 5036SOL     OW16003   2.523   3.652   0.953
 5036SOL    HW116004   2.477   3.740   0.940
 5036SOL    HW216005   2.622   3.664   0.946
 5037SOL     OW16006   2.721   2.818   0.861
 5037SOL    HW116007   2.775   2.749   0.909
 5037SOL    HW216008   2.689   2.887   0.927
 5038SOL     OW16009   2.945   2.846   0.087
 5038SOL    HW116010   2.922   2.899   0.005
 5038SOL    HW216011   3.026   2.790   0.068
 5039SOL     OW16012   3.723   3.431   0.851
 5039SOL    HW116013   3.652   3.419   0.781
 5039SOL    HW216014   3.724   3.352   0.911
 5040SOL     OW16015   2.083   3.176   1.844
 5040SOL    HW116016   2.018   3.103   1.823
 5040SOL    HW216017   2.087   3.190   1.942
 5041SOL     OW16018   1.941   3.102   0.653
 5041SOL    HW116019   1.940   3.055   0.741
 5041SOL    HW216020   2.023   3.074   0.602
 5042SOL     OW16021   2.534   3.253   1.624
 5042SOL    HW116022   2.456   3.203   1.662
 5042SOL    HW216023   2.531   3.348   1.655
 5043SOL     OW16024   3.686   2.054   1.227
 5043SOL    HW116025   3.682   1.964   1.271
 5043SOL    HW216026   3.689   2.043   1.128
 5044SOL     OW16027   3.567   3.349   1.104
 5044SOL    HW116028   3.474   3.324   1.077
 5044SOL    HW216029   3.593   3.299   1.186
 5045SOL     OW16030   2.179   2.409   1.280
 5045SOL    HW116031   2.217   2.350   1.352
 5045SOL    HW216032   2.219   2.383   1.192
 5046SOL     OW16033   2.674   3.448   0.687
 5046SOL    HW116034   2.706   3.458   0.593
 5046SOL    HW216035   2.595   3.386   0.689
 5047SOL     OW16036   3.286   2.076   1.112
 5047SOL    HW116037   3.338   2.011   1.167
 5047SOL    HW216038   3.237   2.139   1.173
 5048SOL     OW16039   2.863   1.896   1.154
 5048SOL    HW116040   2.800   1.824   1.123
 5048SOL    HW216041   2.956   1.860   1.154
 5049SOL     OW16042   2.632   3.192   0.301
 5049SOL    HW116043   2.586   3.105   0.318
 5049SOL    HW216044   2.723   3.189   0.342
 5050SOL     OW16045   2.480   3.429   1.284
 5050SOL    HW116046   2.475   3.511   1.341
 5050SOL    HW216047   2.569   3.426   1.239
 5051SOL     OW16048   3.214   1.914   0.168
 5051SOL    HW116049   3.249   1.873   0.084
 5051SOL    HW216050   3.124   1.876   0.188
 5052SOL     OW16051   3.162   2.315   0.691
 5052SOL    HW116052   3.103   2.395   0.695
 5052SOL    HW216053   3.177   2.280   0.784
 5053SOL     OW16054   3.455   2.083   0.882
 5053SOL    HW116055   3.371   2.082   0.936
 5053SOL    HW216056   3.457   2.166   0.826
 5054SOL     OW16057   1.901   2.939   0.300
 5054SOL    HW116058   2.000   2.928   0.291
 5054SOL    HW216059   1.861   2.853   0.332
 5055SOL     OW16060   2.737   3.508   0.337
 5055SOL    HW116061   2.660   3.473   0.283
 5055SOL    HW216062   2.705   3.579   0.399
 5056SOL     OW16063   2.092   2.490   1.975
 5056SOL    HW116064   1.999   2.488   2.012
 5056SOL    HW216065   2.093   2.451   1.883
 5057SOL     OW16066   1.881   2.230   2.509
 5057SOL    HW116067   1.799   2.273   2.548
 5057SOL    HW216068   1.853   2.157   2.446
 5058SOL     OW16069   2.431   3.137   3.027
 5058SOL    HW116070   2.338   3.130   2.990
 5058SOL    HW216071   2.442   3.226   3.071
 5059SOL     OW16072   3.417   3.373   2.565
 5059SOL    HW116073   3.360   3.357   2.646
 5059SOL    HW216074   3.358   3.383   2.485
 5060SOL     OW16075   2.997   2.565   2.579
 5060SOL    HW116076   3.054   2.643   2.554
 5060SOL    HW216077   2.937   2.591   2.655
 5061SOL     OW16078   3.617   2.469   2.093
 5061SOL    HW116079   3.605   2.456   1.994
 5061SOL    HW216080   3.587   2.388   2.142
 5062SOL     OW16081   2.630   3.006   2.885
 5062SOL    HW116082   2.552   3.023   2.945
 5062SOL    HW216083   2.664   3.093   2.849
 5063SOL     OW16084   2.712   2.660   3.685
 5063SOL    HW116085   2.708   2.736   3.750
 5063SOL    HW216086   2.734   2.696   3.594
 5064SOL     OW16087   2.547   2.874   2.527
 5064SOL    HW116088   2.616   2.858   2.597
 5064SOL    HW216089   2.474   2.931   2.565
 5065SOL     OW16090   2.548   3.023   3.665
 5065SOL    HW116091   2.608   3.102   3.679
 5065SOL    HW216092   2.462   3.054   3.624
 5066SOL     OW16093   2.197   3.297   2.923
 5066SOL    HW116094   2.119   3.266   2.870
 5066SOL    HW216095   2.255   3.355   2.866
 5067SOL     OW16096   3.322   3.367   3.201
 5067SOL    HW116097   3.346   3.461   3.227
 5067SOL    HW216098   3.306   3.313   3.283
 5068SOL     OW16099   3.465   2.309   2.599
 5068SOL    HW116100   3.391   2.355   2.549
 5068SOL    HW216101   3.516   2.377   2.652
 5069SOL     OW16102   2.093   3.575   2.345
 5069SOL    HW116103   2.127   3.652   2.399
 5069SOL    HW216104   2.137   3.575   2.255
 5070SOL     OW16105   2.989   3.203   3.552
 5070SOL    HW116106   3.036   3.203   3.640
 5070SOL    HW216107   2.941   3.116   3.541
 5071SOL     OW16108   2.092   3.296   2.400
 5071SOL    HW116109   2.066   3.392   2.400
 5071SOL    HW216110   2.021   3.242   2.445
 5072SOL     OW16111   2.102   2.953   2.748
 5072SOL    HW116112   2.116   2.869   2.800
 5072SOL    HW216113   2.047   3.017   2.803
 5073SOL     OW16114   2.482   3.648   3.301
 5073SOL    HW116115   2.390   3.631   3.336
 5073SOL    HW216116   2.510   3.740   3.327
 5074SOL     OW16117   2.468   2.826   1.985
 5074SOL    HW116118   2.475   2.910   1.931
 5074SOL    HW216119   2.514   2.839   2.073
 5075SOL     OW16120   3.456   1.976   3.342
 5075SOL    HW116121   3.438   2.043   3.270
 5075SOL    HW216122   3.453   2.022   3.431
 5076SOL     OW16123   1.984   2.505   2.425
 5076SOL    HW116124   1.939   2.417   2.442
 5076SOL    HW216125   1.983   2.559   2.509
 5077SOL     OW16126   3.704   3.629   2.221
 5077SOL    HW116127   3.758   3.600   2.301
 5077SOL    HW216128   3.734   3.719   2.192
 5078SOL     OW16129   1.889   3.458   1.979
 5078SOL    HW116130   1.870   3.362   2.000
 5078SOL    HW216131   1.856   3.516   2.054
 5079SOL     OW16132   3.551   2.784   2.474
 5079SOL    HW116133   3.646   2.755   2.482
 5079SOL    HW216134   3.543   2.849   2.399
 5080SOL     OW16135   3.503   2.970   2.294
 5080SOL    HW116136   3.589   2.972   2.242
 5080SOL    HW216137   3.517   3.017   2.382
 5081SOL     OW16138   1.975   2.599   3.459
 5081SOL    HW116139   2.063   2.586   3.504
 5081SOL    HW216140   1.962   2.696   3.437
 5082SOL     OW16141   2.475   3.227   2.588
 5082SOL    HW116142   2.426   3.140   2.597
 5082SOL    HW216143   2.452   3.270   2.501
 5083SOL     OW16144   3.155   3.090   3.285
 5083SOL    HW116145   3.192   3.017   3.227
 5083SOL    HW216146   3.207   3.095   3.370
 5084SOL     OW16147   2.671   1.866   2.364
 5084SOL    HW116148   2.711   1.957   2.355
 5084SOL    HW216149   2.571   1.874   2.370
 5085SOL     OW16150   2.059   2.838   3.126
 5085SOL    HW116151   2.148   2.793   3.112
 5085SOL    HW216152   1.986   2.773   3.107
 5086SOL     OW16153   3.387   2.861   2.052
 5086SOL    HW116154   3.324   2.785   2.065
 5086SOL    HW216155   3.435   2.879   2.138
 5087SOL     OW16156   3.049   3.654   3.478
 5087SOL    HW116157   3.073   3.714   3.402
 5087SOL    HW216158   3.056   3.559   3.448
 5088SOL     OW16159   3.328   3.279   2.815
 5088SOL    HW116160   3.269   3.285   2.895
 5088SOL    HW216161   3.313   3.191   2.769
 5089SOL     OW16162   3.529   3.576   2.434
 5089SOL    HW116163   3.488   3.553   2.346
 5089SOL    HW216164   3.511   3.502   2.499
 5090SOL     OW16165   2.460   2.591   2.132
 5090SOL    HW116166   2.484   2.660   2.064
 5090SOL    HW216167   2.382   2.624   2.186
 5091SOL     OW16168   3.143   2.207   2.806
 5091SOL    HW116169   3.057   2.157   2.793
 5091SOL    HW216170   3.205   2.153   2.862
 5092SOL     OW16171   3.438   3.524   2.169
 5092SOL    HW116172   3.527   3.570   2.172
 5092SOL    HW216173   3.417   3.500   2.074
 5093SOL     OW16174   2.669   2.467   3.327
 5093SOL    HW116175   2.622   2.464   3.416
 5093SOL    HW216176   2.618   2.412   3.261
 5094SOL     OW16177   3.256   2.331   3.536
 5094SOL    HW116178   3.236   2.374   3.624
 5094SOL    HW216179   3.334   2.269   3.545
 5095SOL     OW16180   2.835   2.752   3.434
 5095SOL    HW116181   2.881   2.668   3.405
 5095SOL    HW216182   2.779   2.786   3.359
 5096SOL     OW16183   2.853   2.272   3.104
 5096SOL    HW116184   2.776   2.306   3.158
 5096SOL    HW216185   2.819   2.221   3.025
 5097SOL     OW16186   2.903   2.563   2.291
 5097SOL    HW116187   2.929   2.559   2.387
 5097SOL    HW216188   2.818   2.512   2.277
 5098SOL     OW16189   1.938   2.673   2.651
 5098SOL    HW116190   2.037   2.661   2.660
 5098SOL    HW216191   1.914   2.768   2.672
 5099SOL     OW16192   1.992   3.683   3.433
 5099SOL    HW116193   1.982   3.668   3.532
 5099SOL    HW216194   1.906   3.719   3.397
 5100SOL     OW16195   2.727   2.210   2.057
 5100SOL    HW116196   2.786   2.273   2.008
 5100SOL    HW216197   2.746   2.116   2.028
 5101SOL     OW16198   3.581   2.447   3.693
 5101SOL    HW116199   3.555   2.536   3.657
 5101SOL    HW216200   3.579   2.379   3.620
 5102SOL     OW16201   3.224   3.006   2.407
 5102SOL    HW116202   3.307   2.977   2.359
 5102SOL    HW216203   3.175   3.073   2.351
 5103SOL     OW16204   2.412   2.058   2.747
 5103SOL    HW116205   2.407   2.053   2.847
 5103SOL    HW216206   2.414   2.154   2.718
 5104SOL     OW16207   2.870   3.318   2.339
 5104SOL    HW116208   2.824   3.390   2.287
 5104SOL    HW216209   2.866   3.338   2.437
 5105SOL     OW16210   2.213   3.663   2.715
 5105SOL    HW116211   2.263   3.577   2.721
 5105SOL    HW216212   2.278   3.740   2.712
 5106SOL     OW16213   3.657   2.928   2.735
 5106SOL    HW116214   3.595   2.913   2.659
 5106SOL    HW216215   3.605   2.939   2.820
 5107SOL     OW16216   3.089   3.412   3.368
 5107SOL    HW116217   3.095   3.335   3.432
 5107SOL    HW216218   3.037   3.386   3.288
 5108SOL     OW16219   2.183   2.805   2.104
 5108SOL    HW116220   2.265   2.844   2.062
 5108SOL    HW216221   2.156   2.723   2.055
 5109SOL     OW16222   3.320   2.597   2.590
 5109SOL    HW116223   3.315   2.532   2.665
 5109SOL    HW216224   3.400   2.656   2.603
 5110SOL     OW16225   2.323   3.128   3.589
 5110SOL    HW116226   2.273   3.129   3.503
 5110SOL    HW216227   2.260   3.110   3.665
 5111SOL     OW16228   2.973   3.638   2.099
 5111SOL    HW116229   2.913   3.576   2.149
 5111SOL    HW216230   3.004   3.594   2.014
 5112SOL     OW16231   3.494   3.239   1.943
 5112SOL    HW116232   3.462   3.333   1.933
 5112SOL    HW216233   3.418   3.176   1.931
 5113SOL     OW16234   2.326   3.605   2.185
 5113SOL    HW116235   2.359   3.644   2.271
 5113SOL    HW216236   2.402   3.598   2.120
 5114SOL     OW16237   3.262   1.969   2.288
 5114SOL    HW116238   3.238   1.932   2.198
 5114SOL    HW216239   3.361   1.985   2.292
 5115SOL     OW16240   2.111   3.647   3.103
 5115SOL    HW116241   2.168   3.582   3.153
 5115SOL    HW216242   2.095   3.614   3.010
 5116SOL     OW16243   2.802   3.560   2.766
 5116SOL    HW116244   2.882   3.503   2.787
 5116SOL    HW216245   2.753   3.520   2.689
 5117SOL     OW16246   2.244   2.562   2.342
 5117SOL    HW116247   2.289   2.472   2.339
 5117SOL    HW216248   2.150   2.551   2.375
 5118SOL     OW16249   3.409   2.084   3.591
 5118SOL    HW116250   3.404   2.121   3.683
 5118SOL    HW216251   3.337   2.015   3.579
 5119SOL     OW16252   2.476   1.984   1.979
 5119SOL    HW116253   2.574   1.962   1.986
 5119SOL    HW216254   2.445   1.967   1.886
 5120SOL     OW16255   2.643   2.126   3.611
 5120SOL    HW116256   2.710   2.065   3.654
 5120SOL    HW216257   2.570   2.145   3.676
 5121SOL     OW16258   2.750   3.376   3.057
 5121SOL    HW116259   2.727   3.351   2.963
 5121SOL    HW216260   2.811   3.307   3.096
 5122SOL     OW16261   3.213   2.452   3.295
 5122SOL    HW116262   3.241   2.409   3.380
 5122SOL    HW216263   3.238   2.548   3.296
 5123SOL     OW16264   2.665   3.264   2.786
 5123SOL    HW116265   2.755   3.278   2.744
 5123SOL    HW216266   2.594   3.266   2.715
 5124SOL     OW16267   2.784   2.365   2.761
 5124SOL    HW116268   2.759   2.356   2.665
 5124SOL    HW216269   2.832   2.283   2.792
 5125SOL     OW16270   2.401   1.926   2.374
 5125SOL    HW116271   2.320   1.927   2.432
 5125SOL    HW216272   2.404   2.009   2.319
 5126SOL     OW16273   3.296   3.050   1.903
 5126SOL    HW116274   3.328   2.974   1.960
 5126SOL    HW216275   3.204   3.077   1.933
 5127SOL     OW16276   2.797   2.098   2.342
 5127SOL    HW116277   2.749   2.139   2.264
 5127SOL    HW216278   2.896   2.096   2.323
 5128SOL     OW16279   2.938   2.545   3.326
 5128SOL    HW116280   2.858   2.484   3.329
 5128SOL    HW216281   3.019   2.492   3.302
 5129SOL     OW16282   3.089   3.432   2.655
 5129SOL    HW116283   3.110   3.506   2.590
 5129SOL    HW216284   3.157   3.432   2.728
 5130SOL     OW16285   2.321   3.014   2.603
 5130SOL    HW116286   2.250   2.987   2.668
 5130SOL    HW216287   2.295   2.986   2.510
 5131SOL     OW16288   3.133   3.659   2.453
 5131SOL    HW116289   3.177   3.723   2.389
 5131SOL    HW216290   3.083   3.711   2.523
 5132SOL     OW16291   2.894   2.411   1.878
 5132SOL    HW116292   2.853   2.493   1.839
 5132SOL    HW216293   2.958   2.437   1.951
 5133SOL     OW16294   1.940   2.418   3.248
 5133SOL    HW116295   2.032   2.417   3.207
 5133SOL    HW216296   1.934   2.492   3.315
 5134SOL     OW16297   2.728   2.316   2.504
 5134SOL    HW116298   2.696   2.388   2.442
 5134SOL    HW216299   2.752   2.235   2.451
 5135SOL     OW16300   2.879   1.901   2.615
 5135SOL    HW116301   2.807   1.906   2.546
 5135SOL    HW216302   2.855   1.832   2.684
 5136SOL     OW16303   3.291   3.035   2.729
 5136SOL    HW116304   3.236   2.951   2.722
 5136SOL    HW216305   3.317   3.064   2.637
 5137SOL     OW16306   3.328   2.452   2.854
 5137SOL    HW116307   3.298   2.357   2.861
 5137SOL    HW216308   3.401   2.468   2.920
 5138SOL     OW16309   3.719   2.695   2.239
 5138SOL    HW116310   3.761   2.631   2.303
 5138SOL    HW216311   3.681   2.644   2.161
 5139SOL     OW16312   2.350   3.247   2.036
 5139SOL    HW116313   2.263   3.232   2.083
 5139SOL    HW216314   2.333   3.273   1.941
 5140SOL     OW16315   3.526   3.142   2.519
 5140SOL    HW116316   3.625   3.150   2.533
 5140SOL    HW216317   3.481   3.226   2.550
 5141SOL     OW16318   3.252   2.437   1.940
 5141SOL    HW116319   3.198   2.416   2.021
 5141SOL    HW216320   3.343   2.396   1.949
 5142SOL     OW16321   3.616   3.085   3.450
 5142SOL    HW116322   3.707   3.046   3.437
 5142SOL    HW216323   3.624   3.181   3.474
 5143SOL     OW16324   2.926   3.209   3.202
 5143SOL    HW116325   2.846   3.186   3.257
 5143SOL    HW216326   3.009   3.183   3.251
 5144SOL     OW16327   3.454   3.491   3.487
 5144SOL    HW116328   3.481   3.525   3.397
 5144SOL    HW216329   3.533   3.453   3.533
 5145SOL     OW16330   2.973   3.057   2.962
 5145SOL    HW116331   2.933   3.101   3.043
 5145SOL    HW216332   2.932   3.094   2.879
 5146SOL     OW16333   3.500   2.961   2.941
 5146SOL    HW116334   3.505   3.042   3.000
 5146SOL    HW216335   3.414   2.963   2.890
 5147SOL     OW16336   2.777   1.951   3.264
 5147SOL    HW116337   2.802   1.931   3.169
 5147SOL    HW216338   2.849   2.007   3.306
 5148SOL     OW16339   2.842   2.978   3.581
 5148SOL    HW116340   2.743   2.984   3.591
 5148SOL    HW216341   2.865   2.898   3.525
 5149SOL     OW16342   2.567   2.912   2.230
 5149SOL    HW116343   2.553   2.919   2.329
 5149SOL    HW216344   2.651   2.861   2.212
 5150SOL     OW16345   2.272   2.675   3.113
 5150SOL    HW116346   2.358   2.687   3.163
 5150SOL    HW216347   2.230   2.588   3.140
 5151SOL     OW16348   3.136   2.248   3.124
 5151SOL    HW116349   3.157   2.322   3.188
 5151SOL    HW216350   3.047   2.265   3.081
 5152SOL     OW16351   1.926   3.426   3.193
 5152SOL    HW116352   1.880   3.508   3.159
 5152SOL    HW216353   2.024   3.445   3.202
 5153SOL     OW16354   2.229   2.962   2.363
 5153SOL    HW116355   2.222   3.045   2.307
 5153SOL    HW216356   2.233   2.882   2.303
 5154SOL     OW16357   2.428   2.399   2.727
 5154SOL    HW116358   2.440   2.465   2.653
 5154SOL    HW216359   2.474   2.433   2.810
 5155SOL     OW16360   3.114   3.210   2.250
 5155SOL    HW116361   3.164   3.287   2.290
 5155SOL    HW216362   3.019   3.212   2.282
 5156SOL     OW16363   3.134   3.307   3.004
 5156SOL    HW116364   3.181   3.320   3.091
 5156SOL    HW216365   3.068   3.233   3.013
 5157SOL     OW16366   3.444   2.501   2.334
 5157SOL    HW116367   3.413   2.562   2.407
 5157SOL    HW216368   3.494   2.553   2.265
 5158SOL     OW16369   2.216   3.372   3.191
 5158SOL    HW116370   2.195   3.328   3.104
 5158SOL    HW216371   2.313   3.398   3.194
 5159SOL     OW16372   2.264   2.613   3.460
 5159SOL    HW116373   2.332   2.668   3.413
 5159SOL    HW216374   2.304   2.525   3.487
 5160SOL     OW16375   3.449   2.641   3.532
 5160SOL    HW116376   3.357   2.679   3.527
 5160SOL    HW216377   3.509   2.688   3.467
 5161SOL     OW16378   2.875   1.967   3.632
 5161SOL    HW116379   2.881   2.052   3.580
 5161SOL    HW216380   2.907   1.891   3.575
 5162SOL     OW16381   2.366   1.912   3.602
 5162SOL    HW116382   2.324   1.855   3.532
 5162SOL    HW216383   2.300   1.981   3.634
 5163SOL     OW16384   2.435   2.732   2.891
 5163SOL    HW116385   2.479   2.821   2.882
 5163SOL    HW216386   2.372   2.732   2.968
 5164SOL     OW16387   3.222   2.724   2.907
 5164SOL    HW116388   3.147   2.724   2.841
 5164SOL    HW216389   3.259   2.632   2.916
 5165SOL     OW16390   3.071   2.387   2.137
 5165SOL    HW116391   3.084   2.303   2.191
 5165SOL    HW216392   3.042   2.461   2.197
 5166SOL     OW16393   1.899   3.172   3.144
 5166SOL    HW116394   1.952   3.123   3.212
 5166SOL    HW216395   1.921   3.270   3.149
 5167SOL     OW16396   2.594   2.496   2.926
 5167SOL    HW116397   2.653   2.470   2.850
 5167SOL    HW216398   2.566   2.592   2.915
 5168SOL     OW16399   3.590   2.797   3.716
 5168SOL    HW116400   3.544   2.790   3.627
 5168SOL    HW216401   3.528   2.841   3.782
 5169SOL     OW16402   3.484   2.229   2.236
 5169SOL    HW116403   3.486   2.153   2.300
 5169SOL    HW216404   3.436   2.306   2.276
 5170SOL     OW16405   2.885   2.628   2.828
 5170SOL    HW116406   2.900   2.649   2.924
 5170SOL    HW216407   2.855   2.533   2.819
 5171SOL     OW16408   2.842   3.435   3.562
 5171SOL    HW116409   2.822   3.479   3.474
 5171SOL    HW216410   2.881   3.344   3.546
 5172SOL     OW16411   3.721   3.380   3.467
 5172SOL    HW116412   3.735   3.407   3.372
 5172SOL    HW216413   3.804   3.402   3.520
 5173SOL     OW16414   2.212   2.760   3.666
 5173SOL    HW116415   2.288   2.804   3.714
 5173SOL    HW216416   2.247   2.713   3.584
 5174SOL     OW16417   3.402   2.136   1.987
 5174SOL    HW116418   3.341   2.061   2.010
 5174SOL    HW216419   3.424   2.188   2.070
 5175SOL     OW16420   3.165   2.700   1.904
 5175SOL    HW116421   3.199   2.607   1.919
 5175SOL    HW216422   3.183   2.727   1.809
 5176SOL     OW16423   2.930   3.195   2.711
 5176SOL    HW116424   2.937   3.111   2.656
 5176SOL    HW216425   2.992   3.264   2.675
 5177SOL     OW16426   2.181   2.672   2.811
 5177SOL    HW116427   2.274   2.708   2.816
 5177SOL    HW216428   2.175   2.587   2.863
 5178SOL     OW16429   2.201   2.371   2.868
 5178SOL    HW116430   2.149   2.288   2.851
 5178SOL    HW216431   2.278   2.376   2.804
 5179SOL     OW16432   3.000   2.242   3.540
 5179SOL    HW116433   2.955   2.305   3.604
 5179SOL    HW216434   3.093   2.273   3.523
 5180SOL     OW16435   3.022   2.069   3.339
 5180SOL    HW116436   3.022   2.133   3.416
 5180SOL    HW216437   3.050   2.117   3.256
 5181SOL     OW16438   1.870   3.188   2.062
 5181SOL    HW116439   1.777   3.209   2.031
 5181SOL    HW216440   1.880   3.089   2.075
 5182SOL     OW16441   1.950   3.663   2.789
 5182SOL    HW116442   1.908   3.577   2.762
 5182SOL    HW216443   2.044   3.666   2.755
 5183SOL     OW16444   2.366   3.430   2.772
 5183SOL    HW116445   2.432   3.504   2.781
 5183SOL    HW216446   2.410   3.351   2.730
 5184SOL     OW16447   2.864   2.658   3.100
 5184SOL    HW116448   2.905   2.626   3.186
 5184SOL    HW216449   2.768   2.631   3.097
 5185SOL     OW16450   1.902   2.406   2.976
 5185SOL    HW116451   1.987   2.373   2.935
 5185SOL    HW216452   1.915   2.421   3.074
 5186SOL     OW16453   2.051   2.382   3.584
 5186SOL    HW116454   2.110   2.342   3.514
 5186SOL    HW216455   1.993   2.453   3.543
 5187SOL     OW16456   3.231   2.812   3.522
 5187SOL    HW116457   3.270   2.901   3.542
 5187SOL    HW216458   3.241   2.792   3.425
 5188SOL     OW16459   2.677   2.434   2.187
 5188SOL    HW116460   2.684   2.345   2.141
 5188SOL    HW216461   2.583   2.468   2.179
 5189SOL     OW16462   3.519   2.466   3.068
 5189SOL    HW116463   3.481   2.397   3.130
 5189SOL    HW216464   3.601   2.430   3.024
 5190SOL     OW16465   2.114   3.426   3.606
 5190SOL    HW116466   2.084   3.483   3.682
 5190SOL    HW216467   2.107   3.329   3.632
 5191SOL     OW16468   2.533   2.326   3.131
 5191SOL    HW116469   2.499   2.237   3.101
 5191SOL    HW216470   2.559   2.380   3.051
 5192SOL     OW16471   2.792   3.540   3.327
 5192SOL    HW116472   2.768   3.522   3.232
 5192SOL    HW216473   2.822   3.634   3.337
 5193SOL     OW16474   2.335   2.362   2.053
 5193SOL    HW116475   2.396   2.442   2.057
 5193SOL    HW216476   2.240   2.393   2.060
 5194SOL     OW16477   2.021   2.999   3.328
 5194SOL    HW116478   2.043   2.938   3.404
 5194SOL    HW216479   2.031   2.950   3.242
 5195SOL     OW16480   3.209   2.921   3.096
 5195SOL    HW116481   3.233   2.858   3.022
 5195SOL    HW216482   3.119   2.961   3.078
 5196SOL     OW16483   3.164   2.717   2.171
 5196SOL    HW116484   3.078   2.686   2.213
 5196SOL    HW216485   3.160   2.703   2.072
 5197SOL     OW16486   3.621   3.609   3.016
 5197SOL    HW116487   3.682   3.639   2.943
 5197SOL    HW216488   3.583   3.520   2.994
 5198SOL     OW16489   3.114   3.593   2.990
 5198SOL    HW116490   3.198   3.598   2.936
 5198SOL    HW216491   3.091   3.497   3.008
 5199SOL     OW16492   1.945   3.120   2.884
 5199SOL    HW116493   1.940   3.119   2.984
 5199SOL    HW216494   1.862   3.079   2.846
 5200SOL     OW16495   2.550   3.524   3.578
 5200SOL    HW116496   2.494   3.605   3.587
 5200SOL    HW216497   2.602   3.528   3.492
 5201SOL     OW16498   3.588   1.997   2.385
 5201SOL    HW116499   3.661   1.980   2.318
 5201SOL    HW216500   3.557   1.910   2.423
 5202SOL     OW16501   3.250   3.435   2.339
 5202SOL    HW116502   3.317   3.447   2.265
 5202SOL    HW216503   3.210   3.524   2.362
 5203SOL     OW16504   1.992   3.656   3.713
 5203SOL    HW116505   1.951   3.582   3.766
 5203SOL    HW216506   2.056   3.707   3.771
 5204SOL     OW16507   3.142   2.789   2.534
 5204SOL    HW116508   3.202   2.708   2.536
 5204SOL    HW216509   3.182   2.858   2.474
 5205SOL     OW16510   2.692   3.135   3.284
 5205SOL    HW116511   2.687   3.168   3.379
 5205SOL    HW216512   2.606   3.154   3.238
 5206SOL     OW16513   2.534   3.478   2.016
 5206SOL    HW116514   2.543   3.488   1.917
 5206SOL    HW216515   2.494   3.389   2.037
 5207SOL     OW16516   3.512   3.582   3.256
 5207SOL    HW116517   3.565   3.592   3.172
 5207SOL    HW216518   3.485   3.672   3.290
 5208SOL     OW16519   3.703   2.037   2.825
 5208SOL    HW116520   3.742   1.952   2.789
 5208SOL    HW216521   3.605   2.039   2.806
 5209SOL     OW16522   3.056   3.474   1.893
 5209SOL    HW116523   3.062   3.381   1.930
 5209SOL    HW216524   2.997   3.474   1.813
 5210SOL     OW16525   2.684   2.864   3.234
 5210SOL    HW116526   2.724   2.863   3.142
 5210SOL    HW216527   2.694   2.956   3.274
 5211SOL     OW16528   2.778   2.772   2.153
 5211SOL    HW116529   2.841   2.810   2.085
 5211SOL    HW216530   2.818   2.689   2.192
 5212SOL     OW16531   3.366   3.469   1.906
 5212SOL    HW116532   3.274   3.506   1.913
 5212SOL    HW216533   3.404   3.489   1.816
 5213SOL     OW16534   2.234   3.150   3.352
 5213SOL    HW116535   2.221   3.243   3.318
 5213SOL    HW216536   2.150   3.098   3.339
 5214SOL     OW16537   3.476   3.154   3.151
 5214SOL    HW116538   3.536   3.157   3.231
 5214SOL    HW216539   3.401   3.218   3.164
 5215SOL     OW16540   2.901   2.960   2.558
 5215SOL    HW116541   2.831   2.913   2.612
 5215SOL    HW216542   2.960   2.892   2.515
 5216SOL     OW16543   2.876   2.098   2.833
 5216SOL    HW116544   2.868   2.062   2.740
 5216SOL    HW216545   2.874   2.022   2.898
 5217SOL     OW16546   2.452   3.349   2.353
 5217SOL    HW116547   2.494   3.291   2.283
 5217SOL    HW216548   2.408   3.428   2.309
 5218SOL     OW16549   3.571   2.247   3.243
 5218SOL    HW116550   3.644   2.316   3.247
 5218SOL    HW216551   3.599   2.172   3.184
 5219SOL     OW16552   2.117   3.210   2.152
 5219SOL    HW116553   2.021   3.211   2.125
 5219SOL    HW216554   2.129   3.263   2.236
 5220SOL     OW16555   1.967   2.875   3.588
 5220SOL    HW116556   1.890   2.842   3.642
 5220SOL    HW216557   2.052   2.845   3.630
 5221SOL     OW16558   2.534   2.065   3.351
 5221SOL    HW116559   2.624   2.049   3.311
 5221SOL    HW216560   2.542   2.070   3.450
 5222SOL     OW16561   1.937   2.207   1.895
 5222SOL    HW116562   1.845   2.179   1.866
 5222SOL    HW216563   1.968   2.284   1.839
 5223SOL     OW16564   3.302   2.718   3.260
 5223SOL    HW116565   3.245   2.770   3.197
 5223SOL    HW216566   3.398   2.730   3.236
 5224SOL     OW16567   3.045   3.197   1.981
 5224SOL    HW116568   2.946   3.186   1.983
 5224SOL    HW216569   3.079   3.212   2.074
 5225SOL     OW16570   2.475   2.704   3.293
 5225SOL    HW116571   2.531   2.785   3.276
 5225SOL    HW216572   2.534   2.624   3.296
 5226SOL     OW16573   3.355   3.629   2.821
 5226SOL    HW116574   3.388   3.693   2.752
 5226SOL    HW216575   3.421   3.623   2.896
 5227SOL     OW16576   2.578   2.427   3.570
 5227SOL    HW116577   2.597   2.492   3.644
 5227SOL    HW216578   2.638   2.347   3.579
 5228SOL     OW16579   3.312   3.082   3.495
 5228SOL    HW116580   3.303   3.072   3.594
 5228SOL    HW216581   3.408   3.075   3.469
 5229SOL     OW16582   2.252   3.603   3.422
 5229SOL    HW116583   2.161   3.644   3.420
 5229SOL    HW216584   2.245   3.509   3.454
 5230SOL     OW16585   3.536   2.745   3.116
 5230SOL    HW116586   3.509   2.656   3.079
 5230SOL    HW216587   3.537   2.813   3.043
 5231SOL     OW16588   3.087   2.187   2.311
 5231SOL    HW116589   3.152   2.113   2.300
 5231SOL    HW216590   3.107   2.237   2.395
 5232SOL     OW16591   2.456   2.607   2.514
 5232SOL    HW116592   2.506   2.692   2.495
 5232SOL    HW216593   2.368   2.609   2.466
 5233SOL     OW16594   3.639   2.204   3.504
 5233SOL    HW116595   3.622   2.235   3.410
 5233SOL    HW216596   3.555   2.167   3.542
 5234SOL     OW16597   3.592   2.796   3.379
 5234SOL    HW116598   3.630   2.887   3.394
 5234SOL    HW216599   3.584   2.779   3.280
 5235SOL     OW16600   2.721   3.236   1.878
 5235SOL    HW116601   2.675   3.251   1.966
 5235SOL    HW216602   2.765   3.321   1.848
 5236SOL     OW16603   2.523   3.652   2.815
 5236SOL    HW116604   2.477   3.740   2.802
 5236SOL    HW216605   2.622   3.664   2.808
 5237SOL     OW16606   2.721   2.818   2.723
 5237SOL    HW116607   2.775   2.749   2.771
 5237SOL    HW216608   2.689   2.887   2.789
 5238SOL     OW16609   2.945   2.846   1.949
 5238SOL    HW116610   2.922   2.899   1.867
 5238SOL    HW216611   3.026   2.790   1.930
 5239SOL     OW16612   3.723   3.431   2.713
 5239SOL    HW116613   3.652   3.419   2.643
 5239SOL    HW216614   3.724   3.352   2.773
 5240SOL     OW16615   2.083   3.176   3.706
 5240SOL    HW116616   2.018   3.103   3.685
 5240SOL    HW216617   2.087   3.190   3.804
 5241SOL     OW16618   1.941   3.102   2.515
 5241SOL    HW116619   1.940   3.055   2.603
 5241SOL    HW216620   2.023   3.074   2.464
 5242SOL     OW16621   2.534   3.253   3.486
 5242SOL    HW116622   2.456   3.203   3.524
 5242SOL    HW216623   2.531   3.348   3.517
 5243SOL     OW16624   3.686   2.054   3.089
 5243SOL    HW116625   3.682   1.964   3.133
 5243SOL    HW216626   3.689   2.043   2.990
 5244SOL     OW16627   2.290   2.286   2.382
 5244SOL    HW116628   2.320   2.214   2.320
 5244SOL    HW216629   2.251   2.246   2.465
 5245SOL     OW16630   3.567   3.349   2.966
 5245SOL    HW116631   3.474   3.324   2.939
 5245SOL    HW216632   3.593   3.299   3.048
 5246SOL     OW16633   2.179   2.409   3.142
 5246SOL    HW116634   2.217   2.350   3.214
 5246SOL    HW216635   2.219   2.383   3.054
 5247SOL     OW16636   2.674   3.448   2.549
 5247SOL    HW116637   2.706   3.458   2.455
 5247SOL    HW216638   2.595   3.386   2.551
 5248SOL     OW16639   3.286   2.076   2.974
 5248SOL    HW116640   3.338   2.011   3.029
 5248SOL    HW216641   3.237   2.139   3.035
 5249SOL     OW16642   2.863   1.896   3.016
 5249SOL    HW116643   2.800   1.824   2.985
 5249SOL    HW216644   2.956   1.860   3.016
 5250SOL     OW16645   2.632   3.192   2.163
 5250SOL    HW116646   2.586   3.105   2.180
 5250SOL    HW216647   2.723   3.189   2.204
 5251SOL     OW16648   2.480   3.429   3.146
 5251SOL    HW116649   2.475   3.511   3.203
 5251SOL    HW216650   2.569   3.426   3.101
 5252SOL     OW16651   3.214   1.914   2.030
 5252SOL    HW116652   3.249   1.873   1.946
 5252SOL    HW216653   3.124   1.876   2.050
 5253SOL     OW16654   3.162   2.315   2.553
 5253SOL    HW116655   3.103   2.395   2.557
 5253SOL    HW216656   3.177   2.280   2.646
 5254SOL     OW16657   3.455   2.083   2.744
 5254SOL    HW116658   3.371   2.082   2.798
 5254SOL    HW216659   3.457   2.166   2.688
 5255SOL     OW16660   1.901   2.939   2.162
 5255SOL    HW116661   2.000   2.928   2.153
 5255SOL    HW216662   1.861   2.853   2.194
 5256SOL     OW16663   2.737   3.508   2.199
 5256SOL    HW116664   2.660   3.473   2.145
 5256SOL    HW216665   2.705   3.579   2.261
 5257SOL     OW16666   2.092   2.490   3.837
 5257SOL    HW116667   1.999   2.488   3.874
 5257SOL    HW216668   2.093   2.451   3.745
 5258SOL     OW16669   1.881   2.230   4.371
 5258SOL    HW116670   1.799   2.273   4.410
 5258SOL    HW216671   1.853   2.157   4.308
 5259SOL     OW16672   2.431   3.137   4.889
 5259SOL    HW116673   2.338   3.130   4.852
 5259SOL    HW216674   2.442   3.226   4.933
 5260SOL     OW16675   3.417   3.373   4.427
 5260SOL    HW116676   3.360   3.357   4.508
 5260SOL    HW216677   3.358   3.383   4.347
 5261SOL     OW16678   2.997   2.565   4.441
 5261SOL    HW116679   3.054   2.643   4.416
 5261SOL    HW216680   2.937   2.591   4.517
 5262SOL     OW16681   3.617   2.469   3.955
 5262SOL    HW116682   3.605   2.456   3.856
 5262SOL    HW216683   3.587   2.388   4.004
 5263SOL     OW16684   2.630   3.006   4.747
 5263SOL    HW116685   2.552   3.023   4.807
 5263SOL    HW216686   2.664   3.093   4.711
 5264SOL     OW16687   2.712   2.660   5.547
 5264SOL    HW116688   2.708   2.736   5.612
 5264SOL    HW216689   2.734   2.696   5.456
 5265SOL     OW16690   2.547   2.874   4.389
 5265SOL    HW116691   2.616   2.858   4.459
 5265SOL    HW216692   2.474   2.931   4.427
 5266SOL     OW16693   2.548   3.023   5.527
 5266SOL    HW116694   2.608   3.102   5.541
 5266SOL    HW216695   2.462   3.054   5.486
 5267SOL     OW16696   2.197   3.297   4.785
 5267SOL    HW116697   2.119   3.266   4.732
 5267SOL    HW216698   2.255   3.355   4.728
 5268SOL     OW16699   3.322   3.367   5.063
 5268SOL    HW116700   3.346   3.461   5.089
 5268SOL    HW216701   3.306   3.313   5.145
 5269SOL     OW16702   3.465   2.309   4.461
 5269SOL    HW116703   3.391   2.355   4.411
 5269SOL    HW216704   3.516   2.377   4.514
 5270SOL     OW16705   2.093   3.575   4.207
 5270SOL    HW116706   2.127   3.652   4.261
 5270SOL    HW216707   2.137   3.575   4.117
 5271SOL     OW16708   2.989   3.203   5.414
 5271SOL    HW116709   3.036   3.203   5.502
 5271SOL    HW216710   2.941   3.116   5.403
 5272SOL     OW16711   2.092   3.296   4.262
 5272SOL    HW116712   2.066   3.392   4.262
 5272SOL    HW216713   2.021   3.242   4.307
 5273SOL     OW16714   2.102   2.953   4.610
 5273SOL    HW116715   2.116   2.869   4.662
 5273SOL    HW216716   2.047   3.017   4.665
 5274SOL     OW16717   2.482   3.648   5.163
 5274SOL    HW116718   2.390   3.631   5.198
 5274SOL    HW216719   2.510   3.740   5.189
 5275SOL     OW16720   2.468   2.826   3.847
 5275SOL    HW116721   2.475   2.910   3.793
 5275SOL    HW216722   2.514   2.839   3.935
 5276SOL     OW16723   3.456   1.976   5.204
 5276SOL    HW116724   3.438   2.043   5.132
 5276SOL    HW216725   3.453   2.022   5.293
 5277SOL     OW16726   1.984   2.505   4.287
 5277SOL    HW116727   1.939   2.417   4.304
 5277SOL    HW216728   1.983   2.559   4.371
 5278SOL     OW16729   3.704   3.629   4.083
 5278SOL    HW116730   3.758   3.600   4.163
 5278SOL    HW216731   3.734   3.719   4.054
 5279SOL     OW16732   1.889   3.458   3.841
 5279SOL    HW116733   1.870   3.362   3.862
 5279SOL    HW216734   1.856   3.516   3.916
 5280SOL     OW16735   3.551   2.784   4.336
 5280SOL    HW116736   3.646   2.755   4.344
 5280SOL    HW216737   3.543   2.849   4.261
 5281SOL     OW16738   3.503   2.970   4.156
 5281SOL    HW116739   3.589   2.972   4.104
 5281SOL    HW216740   3.517   3.017   4.244
 5282SOL     OW16741   1.975   2.599   5.321
 5282SOL    HW116742   2.063   2.586   5.366
 5282SOL    HW216743   1.962   2.696   5.299
 5283SOL     OW16744   2.475   3.227   4.450
 5283SOL    HW116745   2.426   3.140   4.459
 5283SOL    HW216746   2.452   3.270   4.363
 5284SOL     OW16747   3.155   3.090   5.147
 5284SOL    HW116748   3.192   3.017   5.089
 5284SOL    HW216749   3.207   3.095   5.232
 5285SOL     OW16750   2.671   1.866   4.226
 5285SOL    HW116751   2.711   1.957   4.217
 5285SOL    HW216752   2.571   1.874   4.232
 5286SOL     OW16753   2.059   2.838   4.988
 5286SOL    HW116754   2.148   2.793   4.974
 5286SOL    HW216755   1.986   2.773   4.969
 5287SOL     OW16756   3.387   2.861   3.914
 5287SOL    HW116757   3.324   2.785   3.927
 5287SOL    HW216758   3.435   2.879   4.000
 5288SOL     OW16759   3.049   3.654   5.340
 5288SOL    HW116760   3.073   3.714   5.264
 5288SOL    HW216761   3.056   3.559   5.310
 5289SOL     OW16762   3.328   3.279   4.677
 5289SOL    HW116763   3.269   3.285   4.757
 5289SOL    HW216764   3.313   3.191   4.631
 5290SOL     OW16765   3.529   3.576   4.296
 5290SOL    HW116766   3.488   3.553   4.208
 5290SOL    HW216767   3.511   3.502   4.361
 5291SOL     OW16768   2.460   2.591   3.994
 5291SOL    HW116769   2.484   2.660   3.926
 5291SOL    HW216770   2.382   2.624   4.048
 5292SOL     OW16771   3.143   2.207   4.668
 5292SOL    HW116772   3.057   2.157   4.655
 5292SOL    HW216773   3.205   2.153   4.724
 5293SOL     OW16774   3.438   3.524   4.031
 5293SOL    HW116775   3.527   3.570   4.034
 5293SOL    HW216776   3.417   3.500   3.936
 5294SOL     OW16777   2.669   2.467   5.189
 5294SOL    HW116778   2.622   2.464   5.278
 5294SOL    HW216779   2.618   2.412   5.123
 5295SOL     OW16780   3.256   2.331   5.398
 5295SOL    HW116781   3.236   2.374   5.486
 5295SOL    HW216782   3.334   2.269   5.407
 5296SOL     OW16783   2.835   2.752   5.296
 5296SOL    HW116784   2.881   2.668   5.267
 5296SOL    HW216785   2.779   2.786   5.221
 5297SOL     OW16786   2.853   2.272   4.966
 5297SOL    HW116787   2.776   2.306   5.020
 5297SOL    HW216788   2.819   2.221   4.887
 5298SOL     OW16789   2.903   2.563   4.153
 5298SOL    HW116790   2.929   2.559   4.249
 5298SOL    HW216791   2.818   2.512   4.139
 5299SOL     OW16792   1.938   2.673   4.513
 5299SOL    HW116793   2.037   2.661   4.522
 5299SOL    HW216794   1.914   2.768   4.534
 5300SOL     OW16795   1.992   3.683   5.295
 5300SOL    HW116796   1.982   3.668   5.394
 5300SOL    HW216797   1.906   3.719   5.259
 5301SOL     OW16798   2.727   2.210   3.919
 5301SOL    HW116799   2.786   2.273   3.870
 5301SOL    HW216800   2.746   2.116   3.890
 5302SOL     OW16801   3.581   2.447   5.555
 5302SOL    HW116802   3.555   2.536   5.519
 5302SOL    HW216803   3.579   2.379   5.482
 5303SOL     OW16804   3.224   3.006   4.269
 5303SOL    HW116805   3.307   2.977   4.221
 5303SOL    HW216806   3.175   3.073   4.213
 5304SOL     OW16807   2.412   2.058   4.609
 5304SOL    HW116808   2.407   2.053   4.709
 5304SOL    HW216809   2.414   2.154   4.580
 5305SOL     OW16810   2.870   3.318   4.201
 5305SOL    HW116811   2.824   3.390   4.149
 5305SOL    HW216812   2.866   3.338   4.299
 5306SOL     OW16813   2.213   3.663   4.577
 5306SOL    HW116814   2.263   3.577   4.583
 5306SOL    HW216815   2.278   3.740   4.574
 5307SOL     OW16816   3.657   2.928   4.597
 5307SOL    HW116817   3.595   2.913   4.521
 5307SOL    HW216818   3.605   2.939   4.682
 5308SOL     OW16819   3.089   3.412   5.230
 5308SOL    HW116820   3.095   3.335   5.294
 5308SOL    HW216821   3.037   3.386   5.150
 5309SOL     OW16822   2.183   2.805   3.966
 5309SOL    HW116823   2.265   2.844   3.924
 5309SOL    HW216824   2.156   2.723   3.917
 5310SOL     OW16825   3.320   2.597   4.452
 5310SOL    HW116826   3.315   2.532   4.527
 5310SOL    HW216827   3.400   2.656   4.465
 5311SOL     OW16828   2.323   3.128   5.451
 5311SOL    HW116829   2.273   3.129   5.365
 5311SOL    HW216830   2.260   3.110   5.527
 5312SOL     OW16831   2.973   3.638   3.961
 5312SOL    HW116832   2.913   3.576   4.011
 5312SOL    HW216833   3.004   3.594   3.876
 5313SOL     OW16834   3.494   3.239   3.805
 5313SOL    HW116835   3.462   3.333   3.795
 5313SOL    HW216836   3.418   3.176   3.793
 5314SOL     OW16837   2.326   3.605   4.047
 5314SOL    HW116838   2.359   3.644   4.133
 5314SOL    HW216839   2.402   3.598   3.982
 5315SOL     OW16840   3.262   1.969   4.150
 5315SOL    HW116841   3.238   1.932   4.060
 5315SOL    HW216842   3.361   1.985   4.154
 5316SOL     OW16843   2.111   3.647   4.965
 5316SOL    HW116844   2.168   3.582   5.015
 5316SOL    HW216845   2.095   3.614   4.872
 5317SOL     OW16846   2.802   3.560   4.628
 5317SOL    HW116847   2.882   3.503   4.649
 5317SOL    HW216848   2.753   3.520   4.551
 5318SOL     OW16849   2.244   2.562   4.204
 5318SOL    HW116850   2.289   2.472   4.201
 5318SOL    HW216851   2.150   2.551   4.237
 5319SOL     OW16852   3.409   2.084   5.453
 5319SOL    HW116853   3.404   2.121   5.545
 5319SOL    HW216854   3.337   2.015   5.441
 5320SOL     OW16855   2.476   1.984   3.841
 5320SOL    HW116856   2.574   1.962   3.848
 5320SOL    HW216857   2.445   1.967   3.748
 5321SOL     OW16858   2.643   2.126   5.473
 5321SOL    HW116859   2.710   2.065   5.516
 5321SOL    HW216860   2.570   2.145   5.538
 5322SOL     OW16861   2.750   3.376   4.919
 5322SOL    HW116862   2.727   3.351   4.825
 5322SOL    HW216863   2.811   3.307   4.958
 5323SOL     OW16864   3.213   2.452   5.157
 5323SOL    HW116865   3.241   2.409   5.242
 5323SOL    HW216866   3.238   2.548   5.158
 5324SOL     OW16867   2.665   3.264   4.648
 5324SOL    HW116868   2.755   3.278   4.606
 5324SOL    HW216869   2.594   3.266   4.577
 5325SOL     OW16870   2.784   2.365   4.623
 5325SOL    HW116871   2.759   2.356   4.527
 5325SOL    HW216872   2.832   2.283   4.654
 5326SOL     OW16873   2.401   1.926   4.236
 5326SOL    HW116874   2.320   1.927   4.294
 5326SOL    HW216875   2.404   2.009   4.181
 5327SOL     OW16876   3.296   3.050   3.765
 5327SOL    HW116877   3.328   2.974   3.822
 5327SOL    HW216878   3.204   3.077   3.795
 5328SOL     OW16879   2.797   2.098   4.204
 5328SOL    HW116880   2.749   2.139   4.126
 5328SOL    HW216881   2.896   2.096   4.185
 5329SOL     OW16882   2.938   2.545   5.188
 5329SOL    HW116883   2.858   2.484   5.191
 5329SOL    HW216884   3.019   2.492   5.164
 5330SOL     OW16885   3.089   3.432   4.517
 5330SOL    HW116886   3.110   3.506   4.452
 5330SOL    HW216887   3.157   3.432   4.590
 5331SOL     OW16888   2.321   3.014   4.465
 5331SOL    HW116889   2.250   2.987   4.530
 5331SOL    HW216890   2.295   2.986   4.372
 5332SOL     OW16891   3.133   3.659   4.315
 5332SOL    HW116892   3.177   3.723   4.251
 5332SOL    HW216893   3.083   3.711   4.385
 5333SOL     OW16894   2.894   2.411   3.740
 5333SOL    HW116895   2.853   2.493   3.701
 5333SOL    HW216896   2.958   2.437   3.813
 5334SOL     OW16897   1.940   2.418   5.110
 5334SOL    HW116898   2.032   2.417   5.069
 5334SOL    HW216899   1.934   2.492   5.177
 5335SOL     OW16900   2.728   2.316   4.366
 5335SOL    HW116901   2.696   2.388   4.304
 5335SOL    HW216902   2.752   2.235   4.313
 5336SOL     OW16903   2.879   1.901   4.477
 5336SOL    HW116904   2.807   1.906   4.408
 5336SOL    HW216905   2.855   1.832   4.546
 5337SOL     OW16906   3.291   3.035   4.591
 5337SOL    HW116907   3.236   2.951   4.584
 5337SOL    HW216908   3.317   3.064   4.499
 5338SOL     OW16909   3.328   2.452   4.716
 5338SOL    HW116910   3.298   2.357   4.723
 5338SOL    HW216911   3.401   2.468   4.782
 5339SOL     OW16912   3.719   2.695   4.101
 5339SOL    HW116913   3.761   2.631   4.165
 5339SOL    HW216914   3.681   2.644   4.023
 5340SOL     OW16915   2.350   3.247   3.898
 5340SOL    HW116916   2.263   3.232   3.945
 5340SOL    HW216917   2.333   3.273   3.803
 5341SOL     OW16918   3.526   3.142   4.381
 5341SOL    HW116919   3.625   3.150   4.395
 5341SOL    HW216920   3.481   3.226   4.412
 5342SOL     OW16921   3.252   2.437   3.802
 5342SOL    HW116922   3.198   2.416   3.883
 5342SOL    HW216923   3.343   2.396   3.811
 5343SOL     OW16924   3.616   3.085   5.312
 5343SOL    HW116925   3.707   3.046   5.299
 5343SOL    HW216926   3.624   3.181   5.336
 5344SOL     OW16927   2.926   3.209   5.064
 5344SOL    HW116928   2.846   3.186   5.119
 5344SOL    HW216929   3.009   3.183   5.113
 5345SOL     OW16930   3.454   3.491   5.349
 5345SOL    HW116931   3.481   3.525   5.259
 5345SOL    HW216932   3.533   3.453   5.395
 5346SOL     OW16933   2.973   3.057   4.824
 5346SOL    HW116934   2.933   3.101   4.905
 5346SOL    HW216935   2.932   3.094   4.741
 5347SOL     OW16936   3.500   2.961   4.803
 5347SOL    HW116937   3.505   3.042   4.862
 5347SOL    HW216938   3.414   2.963   4.752
 5348SOL     OW16939   2.777   1.951   5.126
 5348SOL    HW116940   2.802   1.931   5.031
 5348SOL    HW216941   2.849   2.007   5.168
 5349SOL     OW16942   2.842   2.978   5.443
 5349SOL    HW116943   2.743   2.984   5.453
 5349SOL    HW216944   2.865   2.898   5.387
 5350SOL     OW16945   2.567   2.912   4.092
 5350SOL    HW116946   2.553   2.919   4.191
 5350SOL    HW216947   2.651   2.861   4.074
 5351SOL     OW16948   2.272   2.675   4.975
 5351SOL    HW116949   2.358   2.687   5.025
 5351SOL    HW216950   2.230   2.588   5.002
 5352SOL     OW16951   3.136   2.248   4.986
 5352SOL    HW116952   3.157   2.322   5.050
 5352SOL    HW216953   3.047   2.265   4.943
 5353SOL     OW16954   1.926   3.426   5.055
 5353SOL    HW116955   1.880   3.508   5.021
 5353SOL    HW216956   2.024   3.445   5.064
 5354SOL     OW16957   2.229   2.962   4.225
 5354SOL    HW116958   2.222   3.045   4.169
 5354SOL    HW216959   2.233   2.882   4.165
 5355SOL     OW16960   2.428   2.399   4.589
 5355SOL    HW116961   2.440   2.465   4.515
 5355SOL    HW216962   2.474   2.433   4.672
 5356SOL     OW16963   3.114   3.210   4.112
 5356SOL    HW116964   3.164   3.287   4.152
 5356SOL    HW216965   3.019   3.212   4.144
 5357SOL     OW16966   3.134   3.307   4.866
 5357SOL    HW116967   3.181   3.320   4.953
 5357SOL    HW216968   3.068   3.233   4.875
 5358SOL     OW16969   3.444   2.501   4.196
 5358SOL    HW116970   3.413   2.562   4.269
 5358SOL    HW216971   3.494   2.553   4.127
 5359SOL     OW16972   2.216   3.372   5.053
 5359SOL    HW116973   2.195   3.328   4.966
 5359SOL    HW216974   2.313   3.398   5.056
 5360SOL     OW16975   2.264   2.613   5.322
 5360SOL    HW116976   2.332   2.668   5.275
 5360SOL    HW216977   2.304   2.525   5.349
 5361SOL     OW16978   3.449   2.641   5.394
 5361SOL    HW116979   3.357   2.679   5.389
 5361SOL    HW216980   3.509   2.688   5.329
 5362SOL     OW16981   2.875   1.967   5.494
 5362SOL    HW116982   2.881   2.052   5.442
 5362SOL    HW216983   2.907   1.891   5.437
 5363SOL     OW16984   2.366   1.912   5.464
 5363SOL    HW116985   2.324   1.855   5.394
 5363SOL    HW216986   2.300   1.981   5.496
 5364SOL     OW16987   2.435   2.732   4.753
 5364SOL    HW116988   2.479   2.821   4.744
 5364SOL    HW216989   2.372   2.732   4.830
 5365SOL     OW16990   3.222   2.724   4.769
 5365SOL    HW116991   3.147   2.724   4.703
 5365SOL    HW216992   3.259   2.632   4.778
 5366SOL     OW16993   3.071   2.387   3.999
 5366SOL    HW116994   3.084   2.303   4.053
 5366SOL    HW216995   3.042   2.461   4.059
 5367SOL     OW16996   1.899   3.172   5.006
 5367SOL    HW116997   1.952   3.123   5.074
 5367SOL    HW216998   1.921   3.270   5.011
 5368SOL     OW16999   2.594   2.496   4.788
 5368SOL    HW117000   2.653   2.470   4.712
 5368SOL    HW217001   2.566   2.592   4.777
 5369SOL     OW17002   3.590   2.797   5.578
 5369SOL    HW117003   3.544   2.790   5.489
 5369SOL    HW217004   3.528   2.841   5.644
 5370SOL     OW17005   3.484   2.229   4.098
 5370SOL    HW117006   3.486   2.153   4.162
 5370SOL    HW217007   3.436   2.306   4.138
 5371SOL     OW17008   2.885   2.628   4.690
 5371SOL    HW117009   2.900   2.649   4.786
 5371SOL    HW217010   2.855   2.533   4.681
 5372SOL     OW17011   2.842   3.435   5.424
 5372SOL    HW117012   2.822   3.479   5.336
 5372SOL    HW217013   2.881   3.344   5.408
 5373SOL     OW17014   3.721   3.380   5.329
 5373SOL    HW117015   3.735   3.407   5.234
 5373SOL    HW217016   3.804   3.402   5.382
 5374SOL     OW17017   2.212   2.760   5.528
 5374SOL    HW117018   2.288   2.804   5.576
 5374SOL    HW217019   2.247   2.713   5.446
 5375SOL     OW17020   3.402   2.136   3.849
 5375SOL    HW117021   3.341   2.061   3.872
 5375SOL    HW217022   3.424   2.188   3.932
 5376SOL     OW17023   3.165   2.700   3.766
 5376SOL    HW117024   3.199   2.607   3.781
 5376SOL    HW217025   3.183   2.727   3.671
 5377SOL     OW17026   2.930   3.195   4.573
 5377SOL    HW117027   2.937   3.111   4.518
 5377SOL    HW217028   2.992   3.264   4.537
 5378SOL     OW17029   2.181   2.672   4.673
 5378SOL    HW117030   2.274   2.708   4.678
 5378SOL    HW217031   2.175   2.587   4.725
 5379SOL     OW17032   2.201   2.371   4.730
 5379SOL    HW117033   2.149   2.288   4.713
 5379SOL    HW217034   2.278   2.376   4.666
 5380SOL     OW17035   3.000   2.242   5.402
 5380SOL    HW117036   2.955   2.305   5.466
 5380SOL    HW217037   3.093   2.273   5.385
 5381SOL     OW17038   3.022   2.069   5.201
 5381SOL    HW117039   3.022   2.133   5.278
 5381SOL    HW217040   3.050   2.117   5.118
 5382SOL     OW17041   1.870   3.188   3.924
 5382SOL    HW117042   1.777   3.209   3.893
 5382SOL    HW217043   1.880   3.089   3.937
 5383SOL     OW17044   1.950   3.663   4.651
 5383SOL    HW117045   1.908   3.577   4.624
 5383SOL    HW217046   2.044   3.666   4.617
 5384SOL     OW17047   2.366   3.430   4.634
 5384SOL    HW117048   2.432   3.504   4.643
 5384SOL    HW217049   2.410   3.351   4.592
 5385SOL     OW17050   2.864   2.658   4.962
 5385SOL    HW117051   2.905   2.626   5.048
 5385SOL    HW217052   2.768   2.631   4.959
 5386SOL     OW17053   1.902   2.406   4.838
 5386SOL    HW117054   1.987   2.373   4.797
 5386SOL    HW217055   1.915   2.421   4.936
 5387SOL     OW17056   2.051   2.382   5.446
 5387SOL    HW117057   2.110   2.342   5.376
 5387SOL    HW217058   1.993   2.453   5.405
 5388SOL     OW17059   3.231   2.812   5.384
 5388SOL    HW117060   3.270   2.901   5.404
 5388SOL    HW217061   3.241   2.792   5.287
 5389SOL     OW17062   2.677   2.434   4.049
 5389SOL    HW117063   2.684   2.345   4.003
 5389SOL    HW217064   2.583   2.468   4.041
 5390SOL     OW17065   3.519   2.466   4.930
 5390SOL    HW117066   3.481   2.397   4.992
 5390SOL    HW217067   3.601   2.430   4.886
 5391SOL     OW17068   2.114   3.426   5.468
 5391SOL    HW117069   2.084   3.483   5.544
 5391SOL    HW217070   2.107   3.329   5.494
 5392SOL     OW17071   2.533   2.326   4.993
 5392SOL    HW117072   2.499   2.237   4.963
 5392SOL    HW217073   2.559   2.380   4.913
 5393SOL     OW17074   2.792   3.540   5.189
 5393SOL    HW117075   2.768   3.522   5.094
 5393SOL    HW217076   2.822   3.634   5.199
 5394SOL     OW17077   2.335   2.362   3.915
 5394SOL    HW117078   2.396   2.442   3.919
 5394SOL    HW217079   2.240   2.393   3.922
 5395SOL     OW17080   2.021   2.999   5.190
 5395SOL    HW117081   2.043   2.938   5.266
 5395SOL    HW217082   2.031   2.950   5.104
 5396SOL     OW17083   3.209   2.921   4.958
 5396SOL    HW117084   3.233   2.858   4.884
 5396SOL    HW217085   3.119   2.961   4.940
 5397SOL     OW17086   3.164   2.717   4.033
 5397SOL    HW117087   3.078   2.686   4.075
 5397SOL    HW217088   3.160   2.703   3.934
 5398SOL     OW17089   3.621   3.609   4.878
 5398SOL    HW117090   3.682   3.639   4.805
 5398SOL    HW217091   3.583   3.520   4.856
 5399SOL     OW17092   3.114   3.593   4.852
 5399SOL    HW117093   3.198   3.598   4.798
 5399SOL    HW217094   3.091   3.497   4.870
 5400SOL     OW17095   1.945   3.120   4.746
 5400SOL    HW117096   1.940   3.119   4.846
 5400SOL    HW217097   1.862   3.079   4.708
 5401SOL     OW17098   2.550   3.524   5.440
 5401SOL    HW117099   2.494   3.605   5.449
 5401SOL    HW217100   2.602   3.528   5.354
 5402SOL     OW17101   3.588   1.997   4.247
 5402SOL    HW117102   3.661   1.980   4.180
 5402SOL    HW217103   3.557   1.910   4.285
 5403SOL     OW17104   3.250   3.435   4.201
 5403SOL    HW117105   3.317   3.447   4.127
 5403SOL    HW217106   3.210   3.524   4.224
 5404SOL     OW17107   1.992   3.656   5.575
 5404SOL    HW117108   1.951   3.582   5.628
 5404SOL    HW217109   2.056   3.707   5.633
 5405SOL     OW17110   3.142   2.789   4.396
 5405SOL    HW117111   3.202   2.708   4.398
 5405SOL    HW217112   3.182   2.858   4.336
 5406SOL     OW17113   2.692   3.135   5.146
 5406SOL    HW117114   2.687   3.168   5.241
 5406SOL    HW217115   2.606   3.154   5.100
 5407SOL     OW17116   2.534   3.478   3.878
 5407SOL    HW117117   2.543   3.488   3.779
 5407SOL    HW217118   2.494   3.389   3.899
 5408SOL     OW17119   3.512   3.582   5.118
 5408SOL    HW117120   3.565   3.592   5.034
 5408SOL    HW217121   3.485   3.672   5.152
 5409SOL     OW17122   3.703   2.037   4.687
 5409SOL    HW117123   3.742   1.952   4.651
 5409SOL    HW217124   3.605   2.039   4.668
 5410SOL     OW17125   3.056   3.474   3.755
 5410SOL    HW117126   3.062   3.381   3.792
 5410SOL    HW217127   2.997   3.474   3.675
 5411SOL     OW17128   2.684   2.864   5.096
 5411SOL    HW117129   2.724   2.863   5.004
 5411SOL    HW217130   2.694   2.956   5.136
 5412SOL     OW17131   2.778   2.772   4.015
 5412SOL    HW117132   2.841   2.810   3.947
 5412SOL    HW217133   2.818   2.689   4.054
 5413SOL     OW17134   3.366   3.469   3.768
 5413SOL    HW117135   3.274   3.506   3.775
 5413SOL    HW217136   3.404   3.489   3.678
 5414SOL     OW17137   2.234   3.150   5.214
 5414SOL    HW117138   2.221   3.243   5.180
 5414SOL    HW217139   2.150   3.098   5.201
 5415SOL     OW17140   3.476   3.154   5.013
 5415SOL    HW117141   3.536   3.157   5.093
 5415SOL    HW217142   3.401   3.218   5.026
 5416SOL     OW17143   2.901   2.960   4.420
 5416SOL    HW117144   2.831   2.913   4.474
 5416SOL    HW217145   2.960   2.892   4.377
 5417SOL     OW17146   2.876   2.098   4.695
 5417SOL    HW117147   2.868   2.062   4.602
 5417SOL    HW217148   2.874   2.022   4.760
 5418SOL     OW17149   2.452   3.349   4.215
 5418SOL    HW117150   2.494   3.291   4.145
 5418SOL    HW217151   2.408   3.428   4.171
 5419SOL     OW17152   3.571   2.247   5.105
 5419SOL    HW117153   3.644   2.316   5.109
 5419SOL    HW217154   3.599   2.172   5.046
 5420SOL     OW17155   2.117   3.210   4.014
 5420SOL    HW117156   2.021   3.211   3.987
 5420SOL    HW217157   2.129   3.263   4.098
 5421SOL     OW17158   1.967   2.875   5.450
 5421SOL    HW117159   1.890   2.842   5.504
 5421SOL    HW217160   2.052   2.845   5.492
 5422SOL     OW17161   2.534   2.065   5.213
 5422SOL    HW117162   2.624   2.049   5.173
 5422SOL    HW217163   2.542   2.070   5.312
 5423SOL     OW17164   1.937   2.207   3.757
 5423SOL    HW117165   1.845   2.179   3.728
 5423SOL    HW217166   1.968   2.284   3.701
 5424SOL     OW17167   3.302   2.718   5.122
 5424SOL    HW117168   3.245   2.770   5.059
 5424SOL    HW217169   3.398   2.730   5.098
 5425SOL     OW17170   3.045   3.197   3.843
 5425SOL    HW117171   2.946   3.186   3.845
 5425SOL    HW217172   3.079   3.212   3.936
 5426SOL     OW17173   2.475   2.704   5.155
 5426SOL    HW117174   2.531   2.785   5.138
 5426SOL    HW217175   2.534   2.624   5.158
 5427SOL     OW17176   3.355   3.629   4.683
 5427SOL    HW117177   3.388   3.693   4.614
 5427SOL    HW217178   3.421   3.623   4.758
 5428SOL     OW17179   2.578   2.427   5.432
 5428SOL    HW117180   2.597   2.492   5.506
 5428SOL    HW217181   2.638   2.347   5.441
 5429SOL     OW17182   3.312   3.082   5.357
 5429SOL    HW117183   3.303   3.072   5.456
 5429SOL    HW217184   3.408   3.075   5.331
 5430SOL     OW17185   2.252   3.603   5.284
 5430SOL    HW117186   2.161   3.644   5.282
 5430SOL    HW217187   2.245   3.509   5.316
 5431SOL     OW17188   3.536   2.745   4.978
 5431SOL    HW117189   3.509   2.656   4.941
 5431SOL    HW217190   3.537   2.813   4.905
 5432SOL     OW17191   3.087   2.187   4.173
 5432SOL    HW117192   3.152   2.113   4.162
 5432SOL    HW217193   3.107   2.237   4.257
 5433SOL     OW17194   2.456   2.607   4.376
 5433SOL    HW117195   2.506   2.692   4.357
 5433SOL    HW217196   2.368   2.609   4.328
 5434SOL     OW17197   3.639   2.204   5.366
 5434SOL    HW117198   3.622   2.235   5.272
 5434SOL    HW217199   3.555   2.167   5.404
 5435SOL     OW17200   3.592   2.796   5.241
 5435SOL    HW117201   3.630   2.887   5.256
 5435SOL    HW217202   3.584   2.779   5.142
 5436SOL     OW17203   2.721   3.236   3.740
 5436SOL    HW117204   2.675   3.251   3.828
 5436SOL    HW217205   2.765   3.321   3.710
 5437SOL     OW17206   2.523   3.652   4.677
 5437SOL    HW117207   2.477   3.740   4.664
 5437SOL    HW217208   2.622   3.664   4.670
 5438SOL     OW17209   2.721   2.818   4.585
 5438SOL    HW117210   2.775   2.749   4.633
 5438SOL    HW217211   2.689   2.887   4.651
 5439SOL     OW17212   2.945   2.846   3.811
 5439SOL    HW117213   2.922   2.899   3.729
 5439SOL    HW217214   3.026   2.790   3.792
 5440SOL     OW17215   3.723   3.431   4.575
 5440SOL    HW117216   3.652   3.419   4.505
 5440SOL    HW217217   3.724   3.352   4.635
 5441SOL     OW17218   2.083   3.176   5.568
 5441SOL    HW117219   2.018   3.103   5.547
 5441SOL    HW217220   2.087   3.190   5.666
 5442SOL     OW17221   1.941   3.102   4.377
 5442SOL    HW117222   1.940   3.055   4.465
 5442SOL    HW217223   2.023   3.074   4.326
 5443SOL     OW17224   2.534   3.253   5.348
 5443SOL    HW117225   2.456   3.203   5.386
 5443SOL    HW217226   2.531   3.348   5.379
 5444SOL     OW17227   3.686   2.054   4.951
 5444SOL    HW117228   3.682   1.964   4.995
 5444SOL    HW217229   3.689   2.043   4.852
 5445SOL     OW17230   3.567   3.349   4.828
 5445SOL    HW117231   3.474   3.324   4.801
 5445SOL    HW217232   3.593   3.299   4.910
 5446SOL     OW17233   2.179   2.409   5.004
 5446SOL    HW117234   2.217   2.350   5.076
 5446SOL    HW217235   2.219   2.383   4.916
 5447SOL     OW17236   2.674   3.448   4.411
 5447SOL    HW117237   2.706   3.458   4.317
 5447SOL    HW217238   2.595   3.386   4.413
 5448SOL     OW17239   3.286   2.076   4.836
 5448SOL    HW117240   3.338   2.011   4.891
 5448SOL    HW217241   3.237   2.139   4.897
 5449SOL     OW17242   2.863   1.896   4.878
 5449SOL    HW117243   2.800   1.824   4.847
 5449SOL    HW217244   2.956   1.860   4.878
 5450SOL     OW17245   2.632   3.192   4.025
 5450SOL    HW117246   2.586   3.105   4.042
 5450SOL    HW217247   2.723   3.189   4.066
 5451SOL     OW17248   2.480   3.429   5.008
 5451SOL    HW117249   2.475   3.511   5.065
 5451SOL    HW217250   2.569   3.426   4.963
 5452SOL     OW17251   3.214   1.914   3.892
 5452SOL    HW117252   3.249   1.873   3.808
 5452SOL    HW217253   3.124   1.876   3.912
 5453SOL     OW17254   3.162   2.315   4.415
 5453SOL    HW117255   3.103   2.395   4.419
 5453SOL    HW217256   3.177   2.280   4.508
 5454SOL     OW17257   3.455   2.083   4.606
 5454SOL    HW117258   3.371   2.082   4.660
 5454SOL    HW217259   3.457   2.166   4.550
 5455SOL     OW17260   1.901   2.939   4.024
 5455SOL    HW117261   2.000   2.928   4.015
 5455SOL    HW217262   1.861   2.853   4.056
 5456SOL     OW17263   2.737   3.508   4.061
 5456SOL    HW117264   2.660   3.473   4.007
 5456SOL    HW217265   2.705   3.579   4.123
 5457SOL     OW17266   2.092   2.490   5.699
 5457SOL    HW117267   1.999   2.488   5.736
 5457SOL    HW217268   2.093   2.451   5.607
 5458SOL     OW17269   1.881   2.230   6.233
 5458SOL    HW117270   1.799   2.273   6.272
 5458SOL    HW217271   1.853   2.157   6.170
 5459SOL     OW17272   2.431   3.137   6.751
 5459SOL    HW117273   2.338   3.130   6.714
 5459SOL    HW217274   2.442   3.226   6.795
 5460SOL     OW17275   3.417   3.373   6.289
 5460SOL    HW117276   3.360   3.357   6.370
 5460SOL    HW217277   3.358   3.383   6.209
 5461SOL     OW17278   2.997   2.565   6.303
 5461SOL    HW117279   3.054   2.643   6.278
 5461SOL    HW217280   2.937   2.591   6.379
 5462SOL     OW17281   3.617   2.469   5.817
 5462SOL    HW117282   3.605   2.456   5.718
 5462SOL    HW217283   3.587   2.388   5.866
 5463SOL     OW17284   2.630   3.006   6.609
 5463SOL    HW117285   2.552   3.023   6.669
 5463SOL    HW217286   2.664   3.093   6.573
 5464SOL     OW17287   2.547   2.874   6.251
 5464SOL    HW117288   2.616   2.858   6.321
 5464SOL    HW217289   2.474   2.931   6.289
 5465SOL     OW17290   2.548   3.023   7.389
 5465SOL    HW117291   2.608   3.102   7.403
 5465SOL    HW217292   2.462   3.054   7.348
 5466SOL     OW17293   2.197   3.297   6.647
 5466SOL    HW117294   2.119   3.266   6.594
 5466SOL    HW217295   2.255   3.355   6.590
 5467SOL     OW17296   3.322   3.367   6.925
 5467SOL    HW117297   3.346   3.461   6.951
 5467SOL    HW217298   3.306   3.313   7.007
 5468SOL     OW17299   3.465   2.309   6.323
 5468SOL    HW117300   3.391   2.355   6.273
 5468SOL    HW217301   3.516   2.377   6.376
 5469SOL     OW17302   2.093   3.575   6.069
 5469SOL    HW117303   2.127   3.652   6.123
 5469SOL    HW217304   2.137   3.575   5.979
 5470SOL     OW17305   2.989   3.203   7.276
 5470SOL    HW117306   3.036   3.203   7.364
 5470SOL    HW217307   2.941   3.116   7.265
 5471SOL     OW17308   2.092   3.296   6.124
 5471SOL    HW117309   2.066   3.392   6.124
 5471SOL    HW217310   2.021   3.242   6.169
 5472SOL     OW17311   2.102   2.953   6.472
 5472SOL    HW117312   2.116   2.869   6.524
 5472SOL    HW217313   2.047   3.017   6.527
 5473SOL     OW17314   2.482   3.648   7.025
 5473SOL    HW117315   2.390   3.631   7.060
 5473SOL    HW217316   2.510   3.740   7.051
 5474SOL     OW17317   2.468   2.826   5.709
 5474SOL    HW117318   2.475   2.910   5.655
 5474SOL    HW217319   2.514   2.839   5.797
 5475SOL     OW17320   3.456   1.976   7.066
 5475SOL    HW117321   3.438   2.043   6.994
 5475SOL    HW217322   3.453   2.022   7.155
 5476SOL     OW17323   3.704   3.629   5.945
 5476SOL    HW117324   3.758   3.600   6.025
 5476SOL    HW217325   3.734   3.719   5.916
 5477SOL     OW17326   1.889   3.458   5.703
 5477SOL    HW117327   1.870   3.362   5.724
 5477SOL    HW217328   1.856   3.516   5.778
 5478SOL     OW17329   3.551   2.784   6.198
 5478SOL    HW117330   3.646   2.755   6.206
 5478SOL    HW217331   3.543   2.849   6.123
 5479SOL     OW17332   3.503   2.970   6.018
 5479SOL    HW117333   3.589   2.972   5.966
 5479SOL    HW217334   3.517   3.017   6.106
 5480SOL     OW17335   2.475   3.227   6.312
 5480SOL    HW117336   2.426   3.140   6.321
 5480SOL    HW217337   2.452   3.270   6.225
 5481SOL     OW17338   3.155   3.090   7.009
 5481SOL    HW117339   3.192   3.017   6.951
 5481SOL    HW217340   3.207   3.095   7.094
 5482SOL     OW17341   2.059   2.838   6.850
 5482SOL    HW117342   2.148   2.793   6.836
 5482SOL    HW217343   1.986   2.773   6.831
 5483SOL     OW17344   3.387   2.861   5.776
 5483SOL    HW117345   3.324   2.785   5.789
 5483SOL    HW217346   3.435   2.879   5.862
 5484SOL     OW17347   3.049   3.654   7.202
 5484SOL    HW117348   3.073   3.714   7.126
 5484SOL    HW217349   3.056   3.559   7.172
 5485SOL     OW17350   3.328   3.279   6.539
 5485SOL    HW117351   3.269   3.285   6.619
 5485SOL    HW217352   3.313   3.191   6.493
 5486SOL     OW17353   3.529   3.576   6.158
 5486SOL    HW117354   3.488   3.553   6.070
 5486SOL    HW217355   3.511   3.502   6.223
 5487SOL     OW17356   3.143   2.207   6.530
 5487SOL    HW117357   3.057   2.157   6.517
 5487SOL    HW217358   3.205   2.153   6.586
 5488SOL     OW17359   3.438   3.524   5.893
 5488SOL    HW117360   3.527   3.570   5.896
 5488SOL    HW217361   3.417   3.500   5.798
 5489SOL     OW17362   3.256   2.331   7.260
 5489SOL    HW117363   3.236   2.374   7.348
 5489SOL    HW217364   3.334   2.269   7.269
 5490SOL     OW17365   2.835   2.752   7.158
 5490SOL    HW117366   2.881   2.668   7.129
 5490SOL    HW217367   2.779   2.786   7.083
 5491SOL     OW17368   2.903   2.563   6.015
 5491SOL    HW117369   2.929   2.559   6.111
 5491SOL    HW217370   2.818   2.512   6.001
 5492SOL     OW17371   1.992   3.683   7.157
 5492SOL    HW117372   1.982   3.668   7.256
 5492SOL    HW217373   1.906   3.719   7.121
 5493SOL     OW17374   2.727   2.210   5.781
 5493SOL    HW117375   2.786   2.273   5.732
 5493SOL    HW217376   2.746   2.116   5.752
 5494SOL     OW17377   3.581   2.447   7.417
 5494SOL    HW117378   3.555   2.536   7.381
 5494SOL    HW217379   3.579   2.379   7.344
 5495SOL     OW17380   3.224   3.006   6.131
 5495SOL    HW117381   3.307   2.977   6.083
 5495SOL    HW217382   3.175   3.073   6.075
 5496SOL     OW17383   2.870   3.318   6.063
 5496SOL    HW117384   2.824   3.390   6.011
 5496SOL    HW217385   2.866   3.338   6.161
 5497SOL     OW17386   2.213   3.663   6.439
 5497SOL    HW117387   2.263   3.577   6.445
 5497SOL    HW217388   2.278   3.740   6.436
 5498SOL     OW17389   3.657   2.928   6.459
 5498SOL    HW117390   3.595   2.913   6.383
 5498SOL    HW217391   3.605   2.939   6.544
 5499SOL     OW17392   3.089   3.412   7.092
 5499SOL    HW117393   3.095   3.335   7.156
 5499SOL    HW217394   3.037   3.386   7.012
 5500SOL     OW17395   2.183   2.805   5.828
 5500SOL    HW117396   2.265   2.844   5.786
 5500SOL    HW217397   2.156   2.723   5.779
 5501SOL     OW17398   3.320   2.597   6.314
 5501SOL    HW117399   3.315   2.532   6.389
 5501SOL    HW217400   3.400   2.656   6.327
 5502SOL     OW17401   2.323   3.128   7.313
 5502SOL    HW117402   2.273   3.129   7.227
 5502SOL    HW217403   2.260   3.110   7.389
 5503SOL     OW17404   2.973   3.638   5.823
 5503SOL    HW117405   2.913   3.576   5.873
 5503SOL    HW217406   3.004   3.594   5.738
 5504SOL     OW17407   3.494   3.239   5.667
 5504SOL    HW117408   3.462   3.333   5.657
 5504SOL    HW217409   3.418   3.176   5.655
 5505SOL     OW17410   2.326   3.605   5.909
 5505SOL    HW117411   2.359   3.644   5.995
 5505SOL    HW217412   2.402   3.598   5.844
 5506SOL     OW17413   3.262   1.969   6.012
 5506SOL    HW117414   3.238   1.932   5.922
 5506SOL    HW217415   3.361   1.985   6.016
 5507SOL     OW17416   2.111   3.647   6.827
 5507SOL    HW117417   2.168   3.582   6.877
 5507SOL    HW217418   2.095   3.614   6.734
 5508SOL     OW17419   2.802   3.560   6.490
 5508SOL    HW117420   2.882   3.503   6.511
 5508SOL    HW217421   2.753   3.520   6.413
 5509SOL     OW17422   3.409   2.084   7.315
 5509SOL    HW117423   3.404   2.121   7.407
 5509SOL    HW217424   3.337   2.015   7.303
 5510SOL     OW17425   2.476   1.984   5.703
 5510SOL    HW117426   2.574   1.962   5.710
 5510SOL    HW217427   2.445   1.967   5.610
 5511SOL     OW17428   2.750   3.376   6.781
 5511SOL    HW117429   2.727   3.351   6.687
 5511SOL    HW217430   2.811   3.307   6.820
 5512SOL     OW17431   3.213   2.452   7.019
 5512SOL    HW117432   3.241   2.409   7.104
 5512SOL    HW217433   3.238   2.548   7.020
 5513SOL     OW17434   2.665   3.264   6.510
 5513SOL    HW117435   2.755   3.278   6.468
 5513SOL    HW217436   2.594   3.266   6.439
 5514SOL     OW17437   2.784   2.365   6.485
 5514SOL    HW117438   2.759   2.356   6.389
 5514SOL    HW217439   2.832   2.283   6.516
 5515SOL     OW17440   2.401   1.926   6.098
 5515SOL    HW117441   2.320   1.927   6.156
 5515SOL    HW217442   2.404   2.009   6.043
 5516SOL     OW17443   3.296   3.050   5.627
 5516SOL    HW117444   3.328   2.974   5.684
 5516SOL    HW217445   3.204   3.077   5.657
 5517SOL     OW17446   2.938   2.545   7.050
 5517SOL    HW117447   2.858   2.484   7.053
 5517SOL    HW217448   3.019   2.492   7.026
 5518SOL     OW17449   3.089   3.432   6.379
 5518SOL    HW117450   3.110   3.506   6.314
 5518SOL    HW217451   3.157   3.432   6.452
 5519SOL     OW17452   2.321   3.014   6.327
 5519SOL    HW117453   2.250   2.987   6.392
 5519SOL    HW217454   2.295   2.986   6.234
 5520SOL     OW17455   3.133   3.659   6.177
 5520SOL    HW117456   3.177   3.723   6.113
 5520SOL    HW217457   3.083   3.711   6.247
 5521SOL     OW17458   2.894   2.411   5.602
 5521SOL    HW117459   2.853   2.493   5.563
 5521SOL    HW217460   2.958   2.437   5.675
 5522SOL     OW17461   3.291   3.035   6.453
 5522SOL    HW117462   3.236   2.951   6.446
 5522SOL    HW217463   3.317   3.064   6.361
 5523SOL     OW17464   3.328   2.452   6.578
 5523SOL    HW117465   3.298   2.357   6.585
 5523SOL    HW217466   3.401   2.468   6.644
 5524SOL     OW17467   3.719   2.695   5.963
 5524SOL    HW117468   3.761   2.631   6.027
 5524SOL    HW217469   3.681   2.644   5.885
 5525SOL     OW17470   2.350   3.247   5.760
 5525SOL    HW117471   2.263   3.232   5.807
 5525SOL    HW217472   2.333   3.273   5.665
 5526SOL     OW17473   3.526   3.142   6.243
 5526SOL    HW117474   3.625   3.150   6.257
 5526SOL    HW217475   3.481   3.226   6.274
 5527SOL     OW17476   3.252   2.437   5.664
 5527SOL    HW117477   3.198   2.416   5.745
 5527SOL    HW217478   3.343   2.396   5.673
 5528SOL     OW17479   3.616   3.085   7.174
 5528SOL    HW117480   3.707   3.046   7.161
 5528SOL    HW217481   3.624   3.181   7.198
 5529SOL     OW17482   2.926   3.209   6.926
 5529SOL    HW117483   2.846   3.186   6.981
 5529SOL    HW217484   3.009   3.183   6.975
 5530SOL     OW17485   3.454   3.491   7.211
 5530SOL    HW117486   3.481   3.525   7.121
 5530SOL    HW217487   3.533   3.453   7.257
 5531SOL     OW17488   2.973   3.057   6.686
 5531SOL    HW117489   2.933   3.101   6.767
 5531SOL    HW217490   2.932   3.094   6.603
 5532SOL     OW17491   3.500   2.961   6.665
 5532SOL    HW117492   3.505   3.042   6.724
 5532SOL    HW217493   3.414   2.963   6.614
 5533SOL     OW17494   2.777   1.951   6.988
 5533SOL    HW117495   2.802   1.931   6.893
 5533SOL    HW217496   2.849   2.007   7.030
 5534SOL     OW17497   2.842   2.978   7.305
 5534SOL    HW117498   2.743   2.984   7.315
 5534SOL    HW217499   2.865   2.898   7.249
 5535SOL     OW17500   2.567   2.912   5.954
 5535SOL    HW117501   2.553   2.919   6.053
 5535SOL    HW217502   2.651   2.861   5.936
 5536SOL     OW17503   2.272   2.675   6.837
 5536SOL    HW117504   2.358   2.687   6.887
 5536SOL    HW217505   2.230   2.588   6.864
 5537SOL     OW17506   3.136   2.248   6.848
 5537SOL    HW117507   3.157   2.322   6.912
 5537SOL    HW217508   3.047   2.265   6.805
 5538SOL     OW17509   1.926   3.426   6.917
 5538SOL    HW117510   1.880   3.508   6.883
 5538SOL    HW217511   2.024   3.445   6.926
 5539SOL     OW17512   2.229   2.962   6.087
 5539SOL    HW117513   2.222   3.045   6.031
 5539SOL    HW217514   2.233   2.882   6.027
 5540SOL     OW17515   3.114   3.210   5.974
 5540SOL    HW117516   3.164   3.287   6.014
 5540SOL    HW217517   3.019   3.212   6.006
 5541SOL     OW17518   3.134   3.307   6.728
 5541SOL    HW117519   3.181   3.320   6.815
 5541SOL    HW217520   3.068   3.233   6.737
 5542SOL     OW17521   3.444   2.501   6.058
 5542SOL    HW117522   3.413   2.562   6.131
 5542SOL    HW217523   3.494   2.553   5.989
 5543SOL     OW17524   2.216   3.372   6.915
 5543SOL    HW117525   2.195   3.328   6.828
 5543SOL    HW217526   2.313   3.398   6.918
 5544SOL     OW17527   3.449   2.641   7.256
 5544SOL    HW117528   3.357   2.679   7.251
 5544SOL    HW217529   3.509   2.688   7.191
 5545SOL     OW17530   2.366   1.912   7.326
 5545SOL    HW117531   2.324   1.855   7.256
 5545SOL    HW217532   2.300   1.981   7.358
 5546SOL     OW17533   3.222   2.724   6.631
 5546SOL    HW117534   3.147   2.724   6.565
 5546SOL    HW217535   3.259   2.632   6.640
 5547SOL     OW17536   3.071   2.387   5.861
 5547SOL    HW117537   3.084   2.303   5.915
 5547SOL    HW217538   3.042   2.461   5.921
 5548SOL     OW17539   1.899   3.172   6.868
 5548SOL    HW117540   1.952   3.123   6.936
 5548SOL    HW217541   1.921   3.270   6.873
 5549SOL     OW17542   2.594   2.496   6.650
 5549SOL    HW117543   2.653   2.470   6.574
 5549SOL    HW217544   2.566   2.592   6.639
 5550SOL     OW17545   3.590   2.797   7.440
 5550SOL    HW117546   3.544   2.790   7.351
 5550SOL    HW217547   3.528   2.841   7.506
 5551SOL     OW17548   3.484   2.229   5.960
 5551SOL    HW117549   3.486   2.153   6.024
 5551SOL    HW217550   3.436   2.306   6.000
 5552SOL     OW17551   2.885   2.628   6.552
 5552SOL    HW117552   2.900   2.649   6.648
 5552SOL    HW217553   2.855   2.533   6.543
 5553SOL     OW17554   2.842   3.435   7.286
 5553SOL    HW117555   2.822   3.479   7.198
 5553SOL    HW217556   2.881   3.344   7.270
 5554SOL     OW17557   3.721   3.380   7.191
 5554SOL    HW117558   3.735   3.407   7.096
 5554SOL    HW217559   3.804   3.402   7.244
 5555SOL     OW17560   3.402   2.136   5.711
 5555SOL    HW117561   3.341   2.061   5.734
 5555SOL    HW217562   3.424   2.188   5.794
 5556SOL     OW17563   3.165   2.700   5.628
 5556SOL    HW117564   3.199   2.607   5.643
 5556SOL    HW217565   3.183   2.727   5.533
 5557SOL     OW17566   2.930   3.195   6.435
 5557SOL    HW117567   2.937   3.111   6.380
 5557SOL    HW217568   2.992   3.264   6.399
 5558SOL     OW17569   3.000   2.242   7.264
 5558SOL    HW117570   2.955   2.305   7.328
 5558SOL    HW217571   3.093   2.273   7.247
 5559SOL     OW17572   3.022   2.069   7.063
 5559SOL    HW117573   3.022   2.133   7.140
 5559SOL    HW217574   3.050   2.117   6.980
 5560SOL     OW17575   1.870   3.188   5.786
 5560SOL    HW117576   1.777   3.209   5.755
 5560SOL    HW217577   1.880   3.089   5.799
 5561SOL     OW17578   1.950   3.663   6.513
 5561SOL    HW117579   1.908   3.577   6.486
 5561SOL    HW217580   2.044   3.666   6.479
 5562SOL     OW17581   2.366   3.430   6.496
 5562SOL    HW117582   2.432   3.504   6.505
 5562SOL    HW217583   2.410   3.351   6.454
 5563SOL     OW17584   2.864   2.658   6.824
 5563SOL    HW117585   2.905   2.626   6.910
 5563SOL    HW217586   2.768   2.631   6.821
 5564SOL     OW17587   3.231   2.812   7.246
 5564SOL    HW117588   3.270   2.901   7.266
 5564SOL    HW217589   3.241   2.792   7.149
 5565SOL     OW17590   3.519   2.466   6.792
 5565SOL    HW117591   3.481   2.397   6.854
 5565SOL    HW217592   3.601   2.430   6.748
 5566SOL     OW17593   2.114   3.426   7.330
 5566SOL    HW117594   2.084   3.483   7.406
 5566SOL    HW217595   2.107   3.329   7.356
 5567SOL     OW17596   2.792   3.540   7.051
 5567SOL    HW117597   2.768   3.522   6.956
 5567SOL    HW217598   2.822   3.634   7.061
 5568SOL     OW17599   2.021   2.999   7.052
 5568SOL    HW117600   2.043   2.938   7.128
 5568SOL    HW217601   2.031   2.950   6.966
 5569SOL     OW17602   3.209   2.921   6.820
 5569SOL    HW117603   3.233   2.858   6.746
 5569SOL    HW217604   3.119   2.961   6.802
 5570SOL     OW17605   3.164   2.717   5.895
 5570SOL    HW117606   3.078   2.686   5.937
 5570SOL    HW217607   3.160   2.703   5.796
 5571SOL     OW17608   3.621   3.609   6.740
 5571SOL    HW117609   3.682   3.639   6.667
 5571SOL    HW217610   3.583   3.520   6.718
 5572SOL     OW17611   3.114   3.593   6.714
 5572SOL    HW117612   3.198   3.598   6.660
 5572SOL    HW217613   3.091   3.497   6.732
 5573SOL     OW17614   1.945   3.120   6.608
 5573SOL    HW117615   1.940   3.119   6.708
 5573SOL    HW217616   1.862   3.079   6.570
 5574SOL     OW17617   2.550   3.524   7.302
 5574SOL    HW117618   2.494   3.605   7.311
 5574SOL    HW217619   2.602   3.528   7.216
 5575SOL     OW17620   3.588   1.997   6.109
 5575SOL    HW117621   3.661   1.980   6.042
 5575SOL    HW217622   3.557   1.910   6.147
 5576SOL     OW17623   3.250   3.435   6.063
 5576SOL    HW117624   3.317   3.447   5.989
 5576SOL    HW217625   3.210   3.524   6.086
 5577SOL     OW17626   1.992   3.656   7.437
 5577SOL    HW117627   1.951   3.582   7.490
 5577SOL    HW217628   2.056   3.707   7.495
 5578SOL     OW17629   3.142   2.789   6.258
 5578SOL    HW117630   3.202   2.708   6.260
 5578SOL    HW217631   3.182   2.858   6.198
 5579SOL     OW17632   2.692   3.135   7.008
 5579SOL    HW117633   2.687   3.168   7.103
 5579SOL    HW217634   2.606   3.154   6.962
 5580SOL     OW17635   2.534   3.478   5.740
 5580SOL    HW117636   2.543   3.488   5.641
 5580SOL    HW217637   2.494   3.389   5.761
 5581SOL     OW17638   3.512   3.582   6.980
 5581SOL    HW117639   3.565   3.592   6.896
 5581SOL    HW217640   3.485   3.672   7.014
 5582SOL     OW17641   3.703   2.037   6.549
 5582SOL    HW117642   3.742   1.952   6.513
 5582SOL    HW217643   3.605   2.039   6.530
 5583SOL     OW17644   3.056   3.474   5.617
 5583SOL    HW117645   3.062   3.381   5.654
 5583SOL    HW217646   2.997   3.474   5.537
 5584SOL     OW17647   2.684   2.864   6.958
 5584SOL    HW117648   2.724   2.863   6.866
 5584SOL    HW217649   2.694   2.956   6.998
 5585SOL     OW17650   2.778   2.772   5.877
 5585SOL    HW117651   2.841   2.810   5.809
 5585SOL    HW217652   2.818   2.689   5.916
 5586SOL     OW17653   3.366   3.469   5.630
 5586SOL    HW117654   3.274   3.506   5.637
 5586SOL    HW217655   3.404   3.489   5.540
 5587SOL     OW17656   2.234   3.150   7.076
 5587SOL    HW117657   2.221   3.243   7.042
 5587SOL    HW217658   2.150   3.098   7.063
 5588SOL     OW17659   3.476   3.154   6.875
 5588SOL    HW117660   3.536   3.157   6.955
 5588SOL    HW217661   3.401   3.218   6.888
 5589SOL     OW17662   2.901   2.960   6.282
 5589SOL    HW117663   2.831   2.913   6.336
 5589SOL    HW217664   2.960   2.892   6.239
 5590SOL     OW17665   2.452   3.349   6.077
 5590SOL    HW117666   2.494   3.291   6.007
 5590SOL    HW217667   2.408   3.428   6.033
 5591SOL     OW17668   3.571   2.247   6.967
 5591SOL    HW117669   3.644   2.316   6.971
 5591SOL    HW217670   3.599   2.172   6.908
 5592SOL     OW17671   2.117   3.210   5.876
 5592SOL    HW117672   2.021   3.211   5.849
 5592SOL    HW217673   2.129   3.263   5.960
 5593SOL     OW17674   1.967   2.875   7.312
 5593SOL    HW117675   1.890   2.842   7.366
 5593SOL    HW217676   2.052   2.845   7.354
 5594SOL     OW17677   1.937   2.207   5.619
 5594SOL    HW117678   1.845   2.179   5.590
 5594SOL    HW217679   1.968   2.284   5.563
 5595SOL     OW17680   3.302   2.718   6.984
 5595SOL    HW117681   3.245   2.770   6.921
 5595SOL    HW217682   3.398   2.730   6.960
 5596SOL     OW17683   3.045   3.197   5.705
 5596SOL    HW117684   2.946   3.186   5.707
 5596SOL    HW217685   3.079   3.212   5.798
 5597SOL     OW17686   2.475   2.704   7.017
 5597SOL    HW117687   2.531   2.785   7.000
 5597SOL    HW217688   2.534   2.624   7.020
 5598SOL     OW17689   3.355   3.629   6.545
 5598SOL    HW117690   3.388   3.693   6.476
 5598SOL    HW217691   3.421   3.623   6.620
 5599SOL     OW17692   3.312   3.082   7.219
 5599SOL    HW117693   3.303   3.072   7.318
 5599SOL    HW217694   3.408   3.075   7.193
 5600SOL     OW17695   2.252   3.603   7.146
 5600SOL    HW117696   2.161   3.644   7.144
 5600SOL    HW217697   2.245   3.509   7.178
 5601SOL     OW17698   3.536   2.745   6.840
 5601SOL    HW117699   3.509   2.656   6.803
 5601SOL    HW217700   3.537   2.813   6.767
 5602SOL     OW17701   3.087   2.187   6.035
 5602SOL    HW117702   3.152   2.113   6.024
 5602SOL    HW217703   3.107   2.237   6.119
 5603SOL     OW17704   3.639   2.204   7.228
 5603SOL    HW117705   3.622   2.235   7.134
 5603SOL    HW217706   3.555   2.167   7.266
 5604SOL     OW17707   3.592   2.796   7.103
 5604SOL    HW117708   3.630   2.887   7.118
 5604SOL    HW217709   3.584   2.779   7.004
 5605SOL     OW17710   2.721   3.236   5.602
 5605SOL    HW117711   2.675   3.251   5.690
 5605SOL    HW217712   2.765   3.321   5.572
 5606SOL     OW17713   2.523   3.652   6.539
 5606SOL    HW117714   2.477   3.740   6.526
 5606SOL    HW217715   2.622   3.664   6.532
 5607SOL     OW17716   2.721   2.818   6.447
 5607SOL    HW117717   2.775   2.749   6.495
 5607SOL    HW217718   2.689   2.887   6.513
 5608SOL     OW17719   2.945   2.846   5.673
 5608SOL    HW117720   2.922   2.899   5.591
 5608SOL    HW217721   3.026   2.790   5.654
 5609SOL     OW17722   3.723   3.431   6.437
 5609SOL    HW117723   3.652   3.419   6.367
 5609SOL    HW217724   3.724   3.352   6.497
 5610SOL     OW17725   2.083   3.176   7.430
 5610SOL    HW117726   2.018   3.103   7.409
 5610SOL    HW217727   2.087   3.190   7.528
 5611SOL     OW17728   1.941   3.102   6.239
 5611SOL    HW117729   1.940   3.055   6.327
 5611SOL    HW217730   2.023   3.074   6.188
 5612SOL     OW17731   2.534   3.253   7.210
 5612SOL    HW117732   2.456   3.203   7.248
 5612SOL    HW217733   2.531   3.348   7.241
 5613SOL     OW17734   3.686   2.054   6.813
 5613SOL    HW117735   3.682   1.964   6.857
 5613SOL    HW217736   3.689   2.043   6.714
 5614SOL     OW17737   3.567   3.349   6.690
 5614SOL    HW117738   3.474   3.324   6.663
 5614SOL    HW217739   3.593   3.299   6.772
 5615SOL     OW17740   2.674   3.448   6.273
 5615SOL    HW117741   2.706   3.458   6.179
 5615SOL    HW217742   2.595   3.386   6.275
 5616SOL     OW17743   3.286   2.076   6.698
 5616SOL    HW117744   3.338   2.011   6.753
 5616SOL    HW217745   3.237   2.139   6.759
 5617SOL     OW17746   2.863   1.896   6.740
 5617SOL    HW117747   2.800   1.824   6.709
 5617SOL    HW217748   2.956   1.860   6.740
 5618SOL     OW17749   2.632   3.192   5.887
 5618SOL    HW117750   2.586   3.105   5.904
 5618SOL    HW217751   2.723   3.189   5.928
 5619SOL     OW17752   2.480   3.429   6.870
 5619SOL    HW117753   2.475   3.511   6.927
 5619SOL    HW217754   2.569   3.426   6.825
 5620SOL     OW17755   3.214   1.914   5.754
 5620SOL    HW117756   3.249   1.873   5.670
 5620SOL    HW217757   3.124   1.876   5.774
 5621SOL     OW17758   3.162   2.315   6.277
 5621SOL    HW117759   3.103   2.395   6.281
 5621SOL    HW217760   3.177   2.280   6.370
 5622SOL     OW17761   3.455   2.083   6.468
 5622SOL    HW117762   3.371   2.082   6.522
 5622SOL    HW217763   3.457   2.166   6.412
 5623SOL     OW17764   1.901   2.939   5.886
 5623SOL    HW117765   2.000   2.928   5.877
 5623SOL    HW217766   1.861   2.853   5.918
 5624SOL     OW17767   2.737   3.508   5.923
 5624SOL    HW117768   2.660   3.473   5.869
 5624SOL    HW217769   2.705   3.579   5.985
 5625SOL     OW17770   1.881   2.230   8.095
 5625SOL    HW117771   1.799   2.273   8.134
 5625SOL    HW217772   1.853   2.157   8.032
 5626SOL     OW17773   2.431   3.137   8.613
 5626SOL    HW117774   2.338   3.130   8.576
 5626SOL    HW217775   2.442   3.226   8.657
 5627SOL     OW17776   3.417   3.373   8.151
 5627SOL    HW117777   3.360   3.357   8.232
 5627SOL    HW217778   3.358   3.383   8.071
 5628SOL     OW17779   2.997   2.565   8.165
 5628SOL    HW117780   3.054   2.643   8.140
 5628SOL    HW217781   2.937   2.591   8.241
 5629SOL     OW17782   3.617   2.469   7.679
 5629SOL    HW117783   3.605   2.456   7.580
 5629SOL    HW217784   3.587   2.388   7.728
 5630SOL     OW17785   2.630   3.006   8.471
 5630SOL    HW117786   2.552   3.023   8.531
 5630SOL    HW217787   2.664   3.093   8.435
 5631SOL     OW17788   2.712   2.660   9.271
 5631SOL    HW117789   2.708   2.736   9.336
 5631SOL    HW217790   2.734   2.696   9.180
 5632SOL     OW17791   2.547   2.874   8.113
 5632SOL    HW117792   2.616   2.858   8.183
 5632SOL    HW217793   2.474   2.931   8.151
 5633SOL     OW17794   2.548   3.023   9.251
 5633SOL    HW117795   2.608   3.102   9.265
 5633SOL    HW217796   2.462   3.054   9.210
 5634SOL     OW17797   2.197   3.297   8.509
 5634SOL    HW117798   2.119   3.266   8.456
 5634SOL    HW217799   2.255   3.355   8.452
 5635SOL     OW17800   3.322   3.367   8.787
 5635SOL    HW117801   3.346   3.461   8.813
 5635SOL    HW217802   3.306   3.313   8.869
 5636SOL     OW17803   3.465   2.309   8.185
 5636SOL    HW117804   3.391   2.355   8.135
 5636SOL    HW217805   3.516   2.377   8.238
 5637SOL     OW17806   2.093   3.575   7.931
 5637SOL    HW117807   2.127   3.652   7.985
 5637SOL    HW217808   2.137   3.575   7.841
 5638SOL     OW17809   2.989   3.203   9.138
 5638SOL    HW117810   3.036   3.203   9.226
 5638SOL    HW217811   2.941   3.116   9.127
 5639SOL     OW17812   2.092   3.296   7.986
 5639SOL    HW117813   2.066   3.392   7.986
 5639SOL    HW217814   2.021   3.242   8.031
 5640SOL     OW17815   2.102   2.953   8.334
 5640SOL    HW117816   2.116   2.869   8.386
 5640SOL    HW217817   2.047   3.017   8.389
 5641SOL     OW17818   2.482   3.648   8.887
 5641SOL    HW117819   2.390   3.631   8.922
 5641SOL    HW217820   2.510   3.740   8.913
 5642SOL     OW17821   2.468   2.826   7.571
 5642SOL    HW117822   2.475   2.910   7.517
 5642SOL    HW217823   2.514   2.839   7.659
 5643SOL     OW17824   3.456   1.976   8.928
 5643SOL    HW117825   3.438   2.043   8.856
 5643SOL    HW217826   3.453   2.022   9.017
 5644SOL     OW17827   3.704   3.629   7.807
 5644SOL    HW117828   3.758   3.600   7.887
 5644SOL    HW217829   3.734   3.719   7.778
 5645SOL     OW17830   1.889   3.458   7.565
 5645SOL    HW117831   1.870   3.362   7.586
 5645SOL    HW217832   1.856   3.516   7.640
 5646SOL     OW17833   3.551   2.784   8.060
 5646SOL    HW117834   3.646   2.755   8.068
 5646SOL    HW217835   3.543   2.849   7.985
 5647SOL     OW17836   3.503   2.970   7.880
 5647SOL    HW117837   3.589   2.972   7.828
 5647SOL    HW217838   3.517   3.017   7.968
 5648SOL     OW17839   1.975   2.599   9.045
 5648SOL    HW117840   2.063   2.586   9.090
 5648SOL    HW217841   1.962   2.696   9.023
 5649SOL     OW17842   2.475   3.227   8.174
 5649SOL    HW117843   2.426   3.140   8.183
 5649SOL    HW217844   2.452   3.270   8.087
 5650SOL     OW17845   3.155   3.090   8.871
 5650SOL    HW117846   3.192   3.017   8.813
 5650SOL    HW217847   3.207   3.095   8.956
 5651SOL     OW17848   2.059   2.838   8.712
 5651SOL    HW117849   2.148   2.793   8.698
 5651SOL    HW217850   1.986   2.773   8.693
 5652SOL     OW17851   3.387   2.861   7.638
 5652SOL    HW117852   3.324   2.785   7.651
 5652SOL    HW217853   3.435   2.879   7.724
 5653SOL     OW17854   3.049   3.654   9.064
 5653SOL    HW117855   3.073   3.714   8.988
 5653SOL    HW217856   3.056   3.559   9.034
 5654SOL     OW17857   3.328   3.279   8.401
 5654SOL    HW117858   3.269   3.285   8.481
 5654SOL    HW217859   3.313   3.191   8.355
 5655SOL     OW17860   3.529   3.576   8.020
 5655SOL    HW117861   3.488   3.553   7.932
 5655SOL    HW217862   3.511   3.502   8.085
 5656SOL     OW17863   3.143   2.207   8.392
 5656SOL    HW117864   3.057   2.157   8.379
 5656SOL    HW217865   3.205   2.153   8.448
 5657SOL     OW17866   3.438   3.524   7.755
 5657SOL    HW117867   3.527   3.570   7.758
 5657SOL    HW217868   3.417   3.500   7.660
 5658SOL     OW17869   2.669   2.467   8.913
 5658SOL    HW117870   2.622   2.464   9.002
 5658SOL    HW217871   2.618   2.412   8.847
 5659SOL     OW17872   3.256   2.331   9.122
 5659SOL    HW117873   3.236   2.374   9.210
 5659SOL    HW217874   3.334   2.269   9.131
 5660SOL     OW17875   2.835   2.752   9.020
 5660SOL    HW117876   2.881   2.668   8.991
 5660SOL    HW217877   2.779   2.786   8.945
 5661SOL     OW17878   2.853   2.272   8.690
 5661SOL    HW117879   2.776   2.306   8.744
 5661SOL    HW217880   2.819   2.221   8.611
 5662SOL     OW17881   2.903   2.563   7.877
 5662SOL    HW117882   2.929   2.559   7.973
 5662SOL    HW217883   2.818   2.512   7.863
 5663SOL     OW17884   1.938   2.673   8.237
 5663SOL    HW117885   2.037   2.661   8.246
 5663SOL    HW217886   1.914   2.768   8.258
 5664SOL     OW17887   1.992   3.683   9.019
 5664SOL    HW117888   1.982   3.668   9.118
 5664SOL    HW217889   1.906   3.719   8.983
 5665SOL     OW17890   3.581   2.447   9.279
 5665SOL    HW117891   3.555   2.536   9.243
 5665SOL    HW217892   3.579   2.379   9.206
 5666SOL     OW17893   3.224   3.006   7.993
 5666SOL    HW117894   3.307   2.977   7.945
 5666SOL    HW217895   3.175   3.073   7.937
 5667SOL     OW17896   2.412   2.058   8.333
 5667SOL    HW117897   2.407   2.053   8.433
 5667SOL    HW217898   2.414   2.154   8.304
 5668SOL     OW17899   2.870   3.318   7.925
 5668SOL    HW117900   2.824   3.390   7.873
 5668SOL    HW217901   2.866   3.338   8.023
 5669SOL     OW17902   2.213   3.663   8.301
 5669SOL    HW117903   2.263   3.577   8.307
 5669SOL    HW217904   2.278   3.740   8.298
 5670SOL     OW17905   3.657   2.928   8.321
 5670SOL    HW117906   3.595   2.913   8.245
 5670SOL    HW217907   3.605   2.939   8.406
 5671SOL     OW17908   3.089   3.412   8.954
 5671SOL    HW117909   3.095   3.335   9.018
 5671SOL    HW217910   3.037   3.386   8.874
 5672SOL     OW17911   3.320   2.597   8.176
 5672SOL    HW117912   3.315   2.532   8.251
 5672SOL    HW217913   3.400   2.656   8.189
 5673SOL     OW17914   2.323   3.128   9.175
 5673SOL    HW117915   2.273   3.129   9.089
 5673SOL    HW217916   2.260   3.110   9.251
 5674SOL     OW17917   2.973   3.638   7.685
 5674SOL    HW117918   2.913   3.576   7.735
 5674SOL    HW217919   3.004   3.594   7.600
 5675SOL     OW17920   3.494   3.239   7.529
 5675SOL    HW117921   3.462   3.333   7.519
 5675SOL    HW217922   3.418   3.176   7.517
 5676SOL     OW17923   2.326   3.605   7.771
 5676SOL    HW117924   2.359   3.644   7.857
 5676SOL    HW217925   2.402   3.598   7.706
 5677SOL     OW17926   3.262   1.969   7.874
 5677SOL    HW117927   3.238   1.932   7.784
 5677SOL    HW217928   3.361   1.985   7.878
 5678SOL     OW17929   2.111   3.647   8.689
 5678SOL    HW117930   2.168   3.582   8.739
 5678SOL    HW217931   2.095   3.614   8.596
 5679SOL     OW17932   2.802   3.560   8.352
 5679SOL    HW117933   2.882   3.503   8.373
 5679SOL    HW217934   2.753   3.520   8.275
 5680SOL     OW17935   3.409   2.084   9.177
 5680SOL    HW117936   3.404   2.121   9.269
 5680SOL    HW217937   3.337   2.015   9.165
 5681SOL     OW17938   2.643   2.126   9.197
 5681SOL    HW117939   2.710   2.065   9.240
 5681SOL    HW217940   2.570   2.145   9.262
 5682SOL     OW17941   2.750   3.376   8.643
 5682SOL    HW117942   2.727   3.351   8.549
 5682SOL    HW217943   2.811   3.307   8.682
 5683SOL     OW17944   3.213   2.452   8.881
 5683SOL    HW117945   3.241   2.409   8.966
 5683SOL    HW217946   3.238   2.548   8.882
 5684SOL     OW17947   2.665   3.264   8.372
 5684SOL    HW117948   2.755   3.278   8.330
 5684SOL    HW217949   2.594   3.266   8.301
 5685SOL     OW17950   2.784   2.365   8.347
 5685SOL    HW117951   2.759   2.356   8.251
 5685SOL    HW217952   2.832   2.283   8.378
 5686SOL     OW17953   2.401   1.926   7.960
 5686SOL    HW117954   2.320   1.927   8.018
 5686SOL    HW217955   2.404   2.009   7.905
 5687SOL     OW17956   3.296   3.050   7.489
 5687SOL    HW117957   3.328   2.974   7.546
 5687SOL    HW217958   3.204   3.077   7.519
 5688SOL     OW17959   2.938   2.545   8.912
 5688SOL    HW117960   2.858   2.484   8.915
 5688SOL    HW217961   3.019   2.492   8.888
 5689SOL     OW17962   3.089   3.432   8.241
 5689SOL    HW117963   3.110   3.506   8.176
 5689SOL    HW217964   3.157   3.432   8.314
 5690SOL     OW17965   2.321   3.014   8.189
 5690SOL    HW117966   2.250   2.987   8.254
 5690SOL    HW217967   2.295   2.986   8.096
 5691SOL     OW17968   3.133   3.659   8.039
 5691SOL    HW117969   3.177   3.723   7.975
 5691SOL    HW217970   3.083   3.711   8.109
 5692SOL     OW17971   2.894   2.411   7.464
 5692SOL    HW117972   2.853   2.493   7.425
 5692SOL    HW217973   2.958   2.437   7.537
 5693SOL     OW17974   1.940   2.418   8.834
 5693SOL    HW117975   2.032   2.417   8.793
 5693SOL    HW217976   1.934   2.492   8.901
 5694SOL     OW17977   2.728   2.316   8.090
 5694SOL    HW117978   2.696   2.388   8.028
 5694SOL    HW217979   2.752   2.235   8.037
 5695SOL     OW17980   2.879   1.901   8.201
 5695SOL    HW117981   2.807   1.906   8.132
 5695SOL    HW217982   2.855   1.832   8.270
 5696SOL     OW17983   3.291   3.035   8.315
 5696SOL    HW117984   3.236   2.951   8.308
 5696SOL    HW217985   3.317   3.064   8.223
 5697SOL     OW17986   3.328   2.452   8.440
 5697SOL    HW117987   3.298   2.357   8.447
 5697SOL    HW217988   3.401   2.468   8.506
 5698SOL     OW17989   3.719   2.695   7.825
 5698SOL    HW117990   3.761   2.631   7.889
 5698SOL    HW217991   3.681   2.644   7.747
 5699SOL     OW17992   2.350   3.247   7.622
 5699SOL    HW117993   2.263   3.232   7.669
 5699SOL    HW217994   2.333   3.273   7.527
 5700SOL     OW17995   3.526   3.142   8.105
 5700SOL    HW117996   3.625   3.150   8.119
 5700SOL    HW217997   3.481   3.226   8.136
 5701SOL     OW17998   3.252   2.437   7.526
 5701SOL    HW117999   3.198   2.416   7.607
 5701SOL    HW218000   3.343   2.396   7.535
 5702SOL     OW18001   3.616   3.085   9.036
 5702SOL    HW118002   3.707   3.046   9.023
 5702SOL    HW218003   3.624   3.181   9.060
 5703SOL     OW18004   2.926   3.209   8.788
 5703SOL    HW118005   2.846   3.186   8.843
 5703SOL    HW218006   3.009   3.183   8.837
 5704SOL     OW18007   3.454   3.491   9.073
 5704SOL    HW118008   3.481   3.525   8.983
 5704SOL    HW218009   3.533   3.453   9.119
 5705SOL     OW18010   2.973   3.057   8.548
 5705SOL    HW118011   2.933   3.101   8.629
 5705SOL    HW218012   2.932   3.094   8.465
 5706SOL     OW18013   3.500   2.961   8.527
 5706SOL    HW118014   3.505   3.042   8.586
 5706SOL    HW218015   3.414   2.963   8.476
 5707SOL     OW18016   2.777   1.951   8.850
 5707SOL    HW118017   2.802   1.931   8.755
 5707SOL    HW218018   2.849   2.007   8.892
 5708SOL     OW18019   2.842   2.978   9.167
 5708SOL    HW118020   2.743   2.984   9.177
 5708SOL    HW218021   2.865   2.898   9.111
 5709SOL     OW18022   2.567   2.912   7.816
 5709SOL    HW118023   2.553   2.919   7.915
 5709SOL    HW218024   2.651   2.861   7.798
 5710SOL     OW18025   2.272   2.675   8.699
 5710SOL    HW118026   2.358   2.687   8.749
 5710SOL    HW218027   2.230   2.588   8.726
 5711SOL     OW18028   3.136   2.248   8.710
 5711SOL    HW118029   3.157   2.322   8.774
 5711SOL    HW218030   3.047   2.265   8.667
 5712SOL     OW18031   1.926   3.426   8.779
 5712SOL    HW118032   1.880   3.508   8.745
 5712SOL    HW218033   2.024   3.445   8.788
 5713SOL     OW18034   2.229   2.962   7.949
 5713SOL    HW118035   2.222   3.045   7.893
 5713SOL    HW218036   2.233   2.882   7.889
 5714SOL     OW18037   2.428   2.399   8.313
 5714SOL    HW118038   2.440   2.465   8.239
 5714SOL    HW218039   2.474   2.433   8.396
 5715SOL     OW18040   3.114   3.210   7.836
 5715SOL    HW118041   3.164   3.287   7.876
 5715SOL    HW218042   3.019   3.212   7.868
 5716SOL     OW18043   3.134   3.307   8.590
 5716SOL    HW118044   3.181   3.320   8.677
 5716SOL    HW218045   3.068   3.233   8.599
 5717SOL     OW18046   3.444   2.501   7.920
 5717SOL    HW118047   3.413   2.562   7.993
 5717SOL    HW218048   3.494   2.553   7.851
 5718SOL     OW18049   2.216   3.372   8.777
 5718SOL    HW118050   2.195   3.328   8.690
 5718SOL    HW218051   2.313   3.398   8.780
 5719SOL     OW18052   2.264   2.613   9.046
 5719SOL    HW118053   2.332   2.668   8.999
 5719SOL    HW218054   2.304   2.525   9.073
 5720SOL     OW18055   3.449   2.641   9.118
 5720SOL    HW118056   3.357   2.679   9.113
 5720SOL    HW218057   3.509   2.688   9.053
 5721SOL     OW18058   2.875   1.967   9.218
 5721SOL    HW118059   2.881   2.052   9.166
 5721SOL    HW218060   2.907   1.891   9.161
 5722SOL     OW18061   2.366   1.912   9.188
 5722SOL    HW118062   2.324   1.855   9.118
 5722SOL    HW218063   2.300   1.981   9.220
 5723SOL     OW18064   2.435   2.732   8.477
 5723SOL    HW118065   2.479   2.821   8.468
 5723SOL    HW218066   2.372   2.732   8.554
 5724SOL     OW18067   3.222   2.724   8.493
 5724SOL    HW118068   3.147   2.724   8.427
 5724SOL    HW218069   3.259   2.632   8.502
 5725SOL     OW18070   3.071   2.387   7.723
 5725SOL    HW118071   3.084   2.303   7.777
 5725SOL    HW218072   3.042   2.461   7.783
 5726SOL     OW18073   1.899   3.172   8.730
 5726SOL    HW118074   1.952   3.123   8.798
 5726SOL    HW218075   1.921   3.270   8.735
 5727SOL     OW18076   2.594   2.496   8.512
 5727SOL    HW118077   2.653   2.470   8.436
 5727SOL    HW218078   2.566   2.592   8.501
 5728SOL     OW18079   3.590   2.797   9.302
 5728SOL    HW118080   3.544   2.790   9.213
 5728SOL    HW218081   3.528   2.841   9.368
 5729SOL     OW18082   3.484   2.229   7.822
 5729SOL    HW118083   3.486   2.153   7.886
 5729SOL    HW218084   3.436   2.306   7.862
 5730SOL     OW18085   2.885   2.628   8.414
 5730SOL    HW118086   2.900   2.649   8.510
 5730SOL    HW218087   2.855   2.533   8.405
 5731SOL     OW18088   2.842   3.435   9.148
 5731SOL    HW118089   2.822   3.479   9.060
 5731SOL    HW218090   2.881   3.344   9.132
 5732SOL     OW18091   3.721   3.380   9.053
 5732SOL    HW118092   3.735   3.407   8.958
 5732SOL    HW218093   3.804   3.402   9.106
 5733SOL     OW18094   2.212   2.760   9.252
 5733SOL    HW118095   2.288   2.804   9.300
 5733SOL    HW218096   2.247   2.713   9.170
 5734SOL     OW18097   3.402   2.136   7.573
 5734SOL    HW118098   3.341   2.061   7.596
 5734SOL    HW218099   3.424   2.188   7.656
 5735SOL     OW18100   3.165   2.700   7.490
 5735SOL    HW118101   3.199   2.607   7.505
 5735SOL    HW218102   3.183   2.727   7.395
 5736SOL     OW18103   2.930   3.195   8.297
 5736SOL    HW118104   2.937   3.111   8.242
 5736SOL    HW218105   2.992   3.264   8.261
 5737SOL     OW18106   2.181   2.672   8.397
 5737SOL    HW118107   2.274   2.708   8.402
 5737SOL    HW218108   2.175   2.587   8.449
 5738SOL     OW18109   3.000   2.242   9.126
 5738SOL    HW118110   2.955   2.305   9.190
 5738SOL    HW218111   3.093   2.273   9.109
 5739SOL     OW18112   3.022   2.069   8.925
 5739SOL    HW118113   3.022   2.133   9.002
 5739SOL    HW218114   3.050   2.117   8.842
 5740SOL     OW18115   1.870   3.188   7.648
 5740SOL    HW118116   1.777   3.209   7.617
 5740SOL    HW218117   1.880   3.089   7.661
 5741SOL     OW18118   1.950   3.663   8.375
 5741SOL    HW118119   1.908   3.577   8.348
 5741SOL    HW218120   2.044   3.666   8.341
 5742SOL     OW18121   2.366   3.430   8.358
 5742SOL    HW118122   2.432   3.504   8.367
 5742SOL    HW218123   2.410   3.351   8.316
 5743SOL     OW18124   2.864   2.658   8.686
 5743SOL    HW118125   2.905   2.626   8.772
 5743SOL    HW218126   2.768   2.631   8.683
 5744SOL     OW18127   1.902   2.406   8.562
 5744SOL    HW118128   1.987   2.373   8.521
 5744SOL    HW218129   1.915   2.421   8.660
 5745SOL     OW18130   3.231   2.812   9.108
 5745SOL    HW118131   3.270   2.901   9.128
 5745SOL    HW218132   3.241   2.792   9.011
 5746SOL     OW18133   3.519   2.466   8.654
 5746SOL    HW118134   3.481   2.397   8.716
 5746SOL    HW218135   3.601   2.430   8.610
 5747SOL     OW18136   2.114   3.426   9.192
 5747SOL    HW118137   2.084   3.483   9.268
 5747SOL    HW218138   2.107   3.329   9.218
 5748SOL     OW18139   2.533   2.326   8.717
 5748SOL    HW118140   2.499   2.237   8.687
 5748SOL    HW218141   2.559   2.380   8.637
 5749SOL     OW18142   2.792   3.540   8.913
 5749SOL    HW118143   2.768   3.522   8.818
 5749SOL    HW218144   2.822   3.634   8.923
 5750SOL     OW18145   2.021   2.999   8.914
 5750SOL    HW118146   2.043   2.938   8.990
 5750SOL    HW218147   2.031   2.950   8.828
 5751SOL     OW18148   3.209   2.921   8.682
 5751SOL    HW118149   3.233   2.858   8.608
 5751SOL    HW218150   3.119   2.961   8.664
 5752SOL     OW18151   3.164   2.717   7.757
 5752SOL    HW118152   3.078   2.686   7.799
 5752SOL    HW218153   3.160   2.703   7.658
 5753SOL     OW18154   3.621   3.609   8.602
 5753SOL    HW118155   3.682   3.639   8.529
 5753SOL    HW218156   3.583   3.520   8.580
 5754SOL     OW18157   3.114   3.593   8.576
 5754SOL    HW118158   3.198   3.598   8.522
 5754SOL    HW218159   3.091   3.497   8.594
 5755SOL     OW18160   1.945   3.120   8.470
 5755SOL    HW118161   1.940   3.119   8.570
 5755SOL    HW218162   1.862   3.079   8.432
 5756SOL     OW18163   2.550   3.524   9.164
 5756SOL    HW118164   2.494   3.605   9.173
 5756SOL    HW218165   2.602   3.528   9.078
 5757SOL     OW18166   3.588   1.997   7.971
 5757SOL    HW118167   3.661   1.980   7.904
 5757SOL    HW218168   3.557   1.910   8.009
 5758SOL     OW18169   3.250   3.435   7.925
 5758SOL    HW118170   3.317   3.447   7.851
 5758SOL    HW218171   3.210   3.524   7.948
 5759SOL     OW18172   1.992   3.656   9.299
 5759SOL    HW118173   1.951   3.582   9.352
 5759SOL    HW218174   2.056   3.707   9.357
 5760SOL     OW18175   3.142   2.789   8.120
 5760SOL    HW118176   3.202   2.708   8.122
 5760SOL    HW218177   3.182   2.858   8.060
 5761SOL     OW18178   2.692   3.135   8.870
 5761SOL    HW118179   2.687   3.168   8.965
 5761SOL    HW218180   2.606   3.154   8.824
 5762SOL     OW18181   2.534   3.478   7.602
 5762SOL    HW118182   2.543   3.488   7.503
 5762SOL    HW218183   2.494   3.389   7.623
 5763SOL     OW18184   3.512   3.582   8.842
 5763SOL    HW118185   3.565   3.592   8.758
 5763SOL    HW218186   3.485   3.672   8.876
 5764SOL     OW18187   3.703   2.037   8.411
 5764SOL    HW118188   3.742   1.952   8.375
 5764SOL    HW218189   3.605   2.039   8.392
 5765SOL     OW18190   3.056   3.474   7.479
 5765SOL    HW118191   3.062   3.381   7.516
 5765SOL    HW218192   2.997   3.474   7.399
 5766SOL     OW18193   2.684   2.864   8.820
 5766SOL    HW118194   2.724   2.863   8.728
 5766SOL    HW218195   2.694   2.956   8.860
 5767SOL     OW18196   2.778   2.772   7.739
 5767SOL    HW118197   2.841   2.810   7.671
 5767SOL    HW218198   2.818   2.689   7.778
 5768SOL     OW18199   3.366   3.469   7.492
 5768SOL    HW118200   3.274   3.506   7.499
 5768SOL    HW218201   3.404   3.489   7.402
 5769SOL     OW18202   2.234   3.150   8.938
 5769SOL    HW118203   2.221   3.243   8.904
 5769SOL    HW218204   2.150   3.098   8.925
 5770SOL     OW18205   3.476   3.154   8.737
 5770SOL    HW118206   3.536   3.157   8.817
 5770SOL    HW218207   3.401   3.218   8.750
 5771SOL     OW18208   2.901   2.960   8.144
 5771SOL    HW118209   2.831   2.913   8.198
 5771SOL    HW218210   2.960   2.892   8.101
 5772SOL     OW18211   2.876   2.098   8.419
 5772SOL    HW118212   2.868   2.062   8.326
 5772SOL    HW218213   2.874   2.022   8.484
 5773SOL     OW18214   2.452   3.349   7.939
 5773SOL    HW118215   2.494   3.291   7.869
 5773SOL    HW218216   2.408   3.428   7.895
 5774SOL     OW18217   3.571   2.247   8.829
 5774SOL    HW118218   3.644   2.316   8.833
 5774SOL    HW218219   3.599   2.172   8.770
 5775SOL     OW18220   2.117   3.210   7.738
 5775SOL    HW118221   2.021   3.211   7.711
 5775SOL    HW218222   2.129   3.263   7.822
 5776SOL     OW18223   1.967   2.875   9.174
 5776SOL    HW118224   1.890   2.842   9.228
 5776SOL    HW218225   2.052   2.845   9.216
 5777SOL     OW18226   2.534   2.065   8.937
 5777SOL    HW118227   2.624   2.049   8.897
 5777SOL    HW218228   2.542   2.070   9.036
 5778SOL     OW18229   3.302   2.718   8.846
 5778SOL    HW118230   3.245   2.770   8.783
 5778SOL    HW218231   3.398   2.730   8.822
 5779SOL     OW18232   3.045   3.197   7.567
 5779SOL    HW118233   2.946   3.186   7.569
 5779SOL    HW218234   3.079   3.212   7.660
 5780SOL     OW18235   2.475   2.704   8.879
 5780SOL    HW118236   2.531   2.785   8.862
 5780SOL    HW218237   2.534   2.624   8.882
 5781SOL     OW18238   3.355   3.629   8.407
 5781SOL    HW118239   3.388   3.693   8.338
 5781SOL    HW218240   3.421   3.623   8.482
 5782SOL     OW18241   2.578   2.427   9.156
 5782SOL    HW118242   2.597   2.492   9.230
 5782SOL    HW218243   2.638   2.347   9.165
 5783SOL     OW18244   3.312   3.082   9.081
 5783SOL    HW118245   3.303   3.072   9.180
 5783SOL    HW218246   3.408   3.075   9.055
 5784SOL     OW18247   2.252   3.603   9.008
 5784SOL    HW118248   2.161   3.644   9.006
 5784SOL    HW218249   2.245   3.509   9.040
 5785SOL     OW18250   3.536   2.745   8.702
 5785SOL    HW118251   3.509   2.656   8.665
 5785SOL    HW218252   3.537   2.813   8.629
 5786SOL     OW18253   3.087   2.187   7.897
 5786SOL    HW118254   3.152   2.113   7.886
 5786SOL    HW218255   3.107   2.237   7.981
 5787SOL     OW18256   2.456   2.607   8.100
 5787SOL    HW118257   2.506   2.692   8.081
 5787SOL    HW218258   2.368   2.609   8.052
 5788SOL     OW18259   3.639   2.204   9.090
 5788SOL    HW118260   3.622   2.235   8.996
 5788SOL    HW218261   3.555   2.167   9.128
 5789SOL     OW18262   3.592   2.796   8.965
 5789SOL    HW118263   3.630   2.887   8.980
 5789SOL    HW218264   3.584   2.779   8.866
 5790SOL     OW18265   2.721   3.236   7.464
 5790SOL    HW118266   2.675   3.251   7.552
 5790SOL    HW218267   2.765   3.321   7.434
 5791SOL     OW18268   2.523   3.652   8.401
 5791SOL    HW118269   2.477   3.740   8.388
 5791SOL    HW218270   2.622   3.664   8.394
 5792SOL     OW18271   2.721   2.818   8.309
 5792SOL    HW118272   2.775   2.749   8.357
 5792SOL    HW218273   2.689   2.887   8.375
 5793SOL     OW18274   2.945   2.846   7.535
 5793SOL    HW118275   2.922   2.899   7.453
 5793SOL    HW218276   3.026   2.790   7.516
 5794SOL     OW18277   3.723   3.431   8.299
 5794SOL    HW118278   3.652   3.419   8.229
 5794SOL    HW218279   3.724   3.352   8.359
 5795SOL     OW18280   2.083   3.176   9.292
 5795SOL    HW118281   2.018   3.103   9.271
 5795SOL    HW218282   2.087   3.190   9.390
 5796SOL     OW18283   1.941   3.102   8.101
 5796SOL    HW118284   1.940   3.055   8.189
 5796SOL    HW218285   2.023   3.074   8.050
 5797SOL     OW18286   2.534   3.253   9.072
 5797SOL    HW118287   2.456   3.203   9.110
 5797SOL    HW218288   2.531   3.348   9.103
 5798SOL     OW18289   3.686   2.054   8.675
 5798SOL    HW118290   3.682   1.964   8.719
 5798SOL    HW218291   3.689   2.043   8.576
 5799SOL     OW18292   3.567   3.349   8.552
 5799SOL    HW118293   3.474   3.324   8.525
 5799SOL    HW218294   3.593   3.299   8.634
 5800SOL     OW18295   2.179   2.409   8.728
 5800SOL    HW118296   2.217   2.350   8.800
 5800SOL    HW218297   2.219   2.383   8.640
 5801SOL     OW18298   2.674   3.448   8.135
 5801SOL    HW118299   2.706   3.458   8.041
 5801SOL    HW218300   2.595   3.386   8.137
 5802SOL     OW18301   3.286   2.076   8.560
 5802SOL    HW118302   3.338   2.011   8.615
 5802SOL    HW218303   3.237   2.139   8.621
 5803SOL     OW18304   2.863   1.896   8.602
 5803SOL    HW118305   2.800   1.824   8.571
 5803SOL    HW218306   2.956   1.860   8.602
 5804SOL     OW18307   2.632   3.192   7.749
 5804SOL    HW118308   2.586   3.105   7.766
 5804SOL    HW218309   2.723   3.189   7.790
 5805SOL     OW18310   2.480   3.429   8.732
 5805SOL    HW118311   2.475   3.511   8.789
 5805SOL    HW218312   2.569   3.426   8.687
 5806SOL     OW18313   3.214   1.914   7.616
 5806SOL    HW118314   3.249   1.873   7.532
 5806SOL    HW218315   3.124   1.876   7.636
 5807SOL     OW18316   3.162   2.315   8.139
 5807SOL    HW118317   3.103   2.395   8.143
 5807SOL    HW218318   3.177   2.280   8.232
 5808SOL     OW18319   3.455   2.083   8.330
 5808SOL    HW118320   3.371   2.082   8.384
 5808SOL    HW218321   3.457   2.166   8.274
 5809SOL     OW18322   1.901   2.939   7.748
 5809SOL    HW118323   2.000   2.928   7.739
 5809SOL    HW218324   1.861   2.853   7.780
 5810SOL     OW18325   2.737   3.508   7.785
 5810SOL    HW118326   2.660   3.473   7.731
 5810SOL    HW218327   2.705   3.579   7.847
 5811SOL     OW18328   2.092   2.490   9.423
 5811SOL    HW118329   1.999   2.488   9.460
 5811SOL    HW218330   2.093   2.451   9.331
 5812SOL     OW18331   1.881   2.230   9.957
 5812SOL    HW118332   1.799   2.273   9.996
 5812SOL    HW218333   1.853   2.157   9.894
 5813SOL     OW18334   2.431   3.137  10.475
 5813SOL    HW118335   2.338   3.130  10.438
 5813SOL    HW218336   2.442   3.226  10.519
 5814SOL     OW18337   3.417   3.373  10.013
 5814SOL    HW118338   3.360   3.357  10.094
 5814SOL    HW218339   3.358   3.383   9.933
 5815SOL     OW18340   2.997   2.565  10.027
 5815SOL    HW118341   3.054   2.643  10.002
 5815SOL    HW218342   2.937   2.591  10.103
 5816SOL     OW18343   3.617   2.469   9.541
 5816SOL    HW118344   3.605   2.456   9.442
 5816SOL    HW218345   3.587   2.388   9.590
 5817SOL     OW18346   2.630   3.006  10.333
 5817SOL    HW118347   2.552   3.023  10.393
 5817SOL    HW218348   2.664   3.093  10.297
 5818SOL     OW18349   2.712   2.660  11.133
 5818SOL    HW118350   2.708   2.736  11.198
 5818SOL    HW218351   2.734   2.696  11.042
 5819SOL     OW18352   2.547   2.874   9.975
 5819SOL    HW118353   2.616   2.858  10.045
 5819SOL    HW218354   2.474   2.931  10.013
 5820SOL     OW18355   2.548   3.023  11.113
 5820SOL    HW118356   2.608   3.102  11.127
 5820SOL    HW218357   2.462   3.054  11.072
 5821SOL     OW18358   2.197   3.297  10.371
 5821SOL    HW118359   2.119   3.266  10.318
 5821SOL    HW218360   2.255   3.355  10.314
 5822SOL     OW18361   3.322   3.367  10.649
 5822SOL    HW118362   3.346   3.461  10.675
 5822SOL    HW218363   3.306   3.313  10.731
 5823SOL     OW18364   3.465   2.309  10.047
 5823SOL    HW118365   3.391   2.355   9.997
 5823SOL    HW218366   3.516   2.377  10.100
 5824SOL     OW18367   2.093   3.575   9.793
 5824SOL    HW118368   2.127   3.652   9.847
 5824SOL    HW218369   2.137   3.575   9.703
 5825SOL     OW18370   2.989   3.203  11.000
 5825SOL    HW118371   3.036   3.203  11.088
 5825SOL    HW218372   2.941   3.116  10.989
 5826SOL     OW18373   2.092   3.296   9.848
 5826SOL    HW118374   2.066   3.392   9.848
 5826SOL    HW218375   2.021   3.242   9.893
 5827SOL     OW18376   2.102   2.953  10.196
 5827SOL    HW118377   2.116   2.869  10.248
 5827SOL    HW218378   2.047   3.017  10.251
 5828SOL     OW18379   2.482   3.648  10.749
 5828SOL    HW118380   2.390   3.631  10.784
 5828SOL    HW218381   2.510   3.740  10.775
 5829SOL     OW18382   2.468   2.826   9.433
 5829SOL    HW118383   2.475   2.910   9.379
 5829SOL    HW218384   2.514   2.839   9.521
 5830SOL     OW18385   3.456   1.976  10.790
 5830SOL    HW118386   3.438   2.043  10.718
 5830SOL    HW218387   3.453   2.022  10.879
 5831SOL     OW18388   1.984   2.505   9.873
 5831SOL    HW118389   1.939   2.417   9.890
 5831SOL    HW218390   1.983   2.559   9.957
 5832SOL     OW18391   3.704   3.629   9.669
 5832SOL    HW118392   3.758   3.600   9.749
 5832SOL    HW218393   3.734   3.719   9.640
 5833SOL     OW18394   1.889   3.458   9.427
 5833SOL    HW118395   1.870   3.362   9.448
 5833SOL    HW218396   1.856   3.516   9.502
 5834SOL     OW18397   3.551   2.784   9.922
 5834SOL    HW118398   3.646   2.755   9.930
 5834SOL    HW218399   3.543   2.849   9.847
 5835SOL     OW18400   3.503   2.970   9.742
 5835SOL    HW118401   3.589   2.972   9.690
 5835SOL    HW218402   3.517   3.017   9.830
 5836SOL     OW18403   1.975   2.599  10.907
 5836SOL    HW118404   2.063   2.586  10.952
 5836SOL    HW218405   1.962   2.696  10.885
 5837SOL     OW18406   2.475   3.227  10.036
 5837SOL    HW118407   2.426   3.140  10.045
 5837SOL    HW218408   2.452   3.270   9.949
 5838SOL     OW18409   3.155   3.090  10.733
 5838SOL    HW118410   3.192   3.017  10.675
 5838SOL    HW218411   3.207   3.095  10.818
 5839SOL     OW18412   2.671   1.866   9.812
 5839SOL    HW118413   2.711   1.957   9.803
 5839SOL    HW218414   2.571   1.874   9.818
 5840SOL     OW18415   2.059   2.838  10.574
 5840SOL    HW118416   2.148   2.793  10.560
 5840SOL    HW218417   1.986   2.773  10.555
 5841SOL     OW18418   3.387   2.861   9.500
 5841SOL    HW118419   3.324   2.785   9.513
 5841SOL    HW218420   3.435   2.879   9.586
 5842SOL     OW18421   3.049   3.654  10.926
 5842SOL    HW118422   3.073   3.714  10.850
 5842SOL    HW218423   3.056   3.559  10.896
 5843SOL     OW18424   3.328   3.279  10.263
 5843SOL    HW118425   3.269   3.285  10.343
 5843SOL    HW218426   3.313   3.191  10.217
 5844SOL     OW18427   3.529   3.576   9.882
 5844SOL    HW118428   3.488   3.553   9.794
 5844SOL    HW218429   3.511   3.502   9.947
 5845SOL     OW18430   2.460   2.591   9.580
 5845SOL    HW118431   2.484   2.660   9.512
 5845SOL    HW218432   2.382   2.624   9.634
 5846SOL     OW18433   3.143   2.207  10.254
 5846SOL    HW118434   3.057   2.157  10.241
 5846SOL    HW218435   3.205   2.153  10.310
 5847SOL     OW18436   3.438   3.524   9.617
 5847SOL    HW118437   3.527   3.570   9.620
 5847SOL    HW218438   3.417   3.500   9.522
 5848SOL     OW18439   2.669   2.467  10.775
 5848SOL    HW118440   2.622   2.464  10.864
 5848SOL    HW218441   2.618   2.412  10.709
 5849SOL     OW18442   3.256   2.331  10.984
 5849SOL    HW118443   3.236   2.374  11.072
 5849SOL    HW218444   3.334   2.269  10.993
 5850SOL     OW18445   2.835   2.752  10.882
 5850SOL    HW118446   2.881   2.668  10.853
 5850SOL    HW218447   2.779   2.786  10.807
 5851SOL     OW18448   2.853   2.272  10.552
 5851SOL    HW118449   2.776   2.306  10.606
 5851SOL    HW218450   2.819   2.221  10.473
 5852SOL     OW18451   2.903   2.563   9.739
 5852SOL    HW118452   2.929   2.559   9.835
 5852SOL    HW218453   2.818   2.512   9.725
 5853SOL     OW18454   1.938   2.673  10.099
 5853SOL    HW118455   2.037   2.661  10.108
 5853SOL    HW218456   1.914   2.768  10.120
 5854SOL     OW18457   1.992   3.683  10.881
 5854SOL    HW118458   1.982   3.668  10.980
 5854SOL    HW218459   1.906   3.719  10.845
 5855SOL     OW18460   2.727   2.210   9.505
 5855SOL    HW118461   2.786   2.273   9.456
 5855SOL    HW218462   2.746   2.116   9.476
 5856SOL     OW18463   3.581   2.447  11.141
 5856SOL    HW118464   3.555   2.536  11.105
 5856SOL    HW218465   3.579   2.379  11.068
 5857SOL     OW18466   3.224   3.006   9.855
 5857SOL    HW118467   3.307   2.977   9.807
 5857SOL    HW218468   3.175   3.073   9.799
 5858SOL     OW18469   2.412   2.058  10.195
 5858SOL    HW118470   2.407   2.053  10.295
 5858SOL    HW218471   2.414   2.154  10.166
 5859SOL     OW18472   2.870   3.318   9.787
 5859SOL    HW118473   2.824   3.390   9.735
 5859SOL    HW218474   2.866   3.338   9.885
 5860SOL     OW18475   2.213   3.663  10.163
 5860SOL    HW118476   2.263   3.577  10.169
 5860SOL    HW218477   2.278   3.740  10.160
 5861SOL     OW18478   3.657   2.928  10.183
 5861SOL    HW118479   3.595   2.913  10.107
 5861SOL    HW218480   3.605   2.939  10.268
 5862SOL     OW18481   3.089   3.412  10.816
 5862SOL    HW118482   3.095   3.335  10.880
 5862SOL    HW218483   3.037   3.386  10.736
 5863SOL     OW18484   2.183   2.805   9.552
 5863SOL    HW118485   2.265   2.844   9.510
 5863SOL    HW218486   2.156   2.723   9.503
 5864SOL     OW18487   3.320   2.597  10.038
 5864SOL    HW118488   3.315   2.532  10.113
 5864SOL    HW218489   3.400   2.656  10.051
 5865SOL     OW18490   2.323   3.128  11.037
 5865SOL    HW118491   2.273   3.129  10.951
 5865SOL    HW218492   2.260   3.110  11.113
 5866SOL     OW18493   2.973   3.638   9.547
 5866SOL    HW118494   2.913   3.576   9.597
 5866SOL    HW218495   3.004   3.594   9.462
 5867SOL     OW18496   3.494   3.239   9.391
 5867SOL    HW118497   3.462   3.333   9.381
 5867SOL    HW218498   3.418   3.176   9.379
 5868SOL     OW18499   2.326   3.605   9.633
 5868SOL    HW118500   2.359   3.644   9.719
 5868SOL    HW218501   2.402   3.598   9.568
 5869SOL     OW18502   3.262   1.969   9.736
 5869SOL    HW118503   3.238   1.932   9.646
 5869SOL    HW218504   3.361   1.985   9.740
 5870SOL     OW18505   2.111   3.647  10.551
 5870SOL    HW118506   2.168   3.582  10.601
 5870SOL    HW218507   2.095   3.614  10.458
 5871SOL     OW18508   2.802   3.560  10.214
 5871SOL    HW118509   2.882   3.503  10.235
 5871SOL    HW218510   2.753   3.520  10.137
 5872SOL     OW18511   2.244   2.562   9.790
 5872SOL    HW118512   2.289   2.472   9.787
 5872SOL    HW218513   2.150   2.551   9.823
 5873SOL     OW18514   3.409   2.084  11.039
 5873SOL    HW118515   3.404   2.121  11.131
 5873SOL    HW218516   3.337   2.015  11.027
 5874SOL     OW18517   2.476   1.984   9.427
 5874SOL    HW118518   2.574   1.962   9.434
 5874SOL    HW218519   2.445   1.967   9.334
 5875SOL     OW18520   2.643   2.126  11.059
 5875SOL    HW118521   2.710   2.065  11.102
 5875SOL    HW218522   2.570   2.145  11.124
 5876SOL     OW18523   2.750   3.376  10.505
 5876SOL    HW118524   2.727   3.351  10.411
 5876SOL    HW218525   2.811   3.307  10.544
 5877SOL     OW18526   3.213   2.452  10.743
 5877SOL    HW118527   3.241   2.409  10.828
 5877SOL    HW218528   3.238   2.548  10.744
 5878SOL     OW18529   2.665   3.264  10.234
 5878SOL    HW118530   2.755   3.278  10.192
 5878SOL    HW218531   2.594   3.266  10.163
 5879SOL     OW18532   2.784   2.365  10.209
 5879SOL    HW118533   2.759   2.356  10.113
 5879SOL    HW218534   2.832   2.283  10.240
 5880SOL     OW18535   2.401   1.926   9.822
 5880SOL    HW118536   2.320   1.927   9.880
 5880SOL    HW218537   2.404   2.009   9.767
 5881SOL     OW18538   3.296   3.050   9.351
 5881SOL    HW118539   3.328   2.974   9.408
 5881SOL    HW218540   3.204   3.077   9.381
 5882SOL     OW18541   2.797   2.098   9.790
 5882SOL    HW118542   2.749   2.139   9.712
 5882SOL    HW218543   2.896   2.096   9.771
 5883SOL     OW18544   2.938   2.545  10.774
 5883SOL    HW118545   2.858   2.484  10.777
 5883SOL    HW218546   3.019   2.492  10.750
 5884SOL     OW18547   3.089   3.432  10.103
 5884SOL    HW118548   3.110   3.506  10.038
 5884SOL    HW218549   3.157   3.432  10.176
 5885SOL     OW18550   2.321   3.014  10.051
 5885SOL    HW118551   2.250   2.987  10.116
 5885SOL    HW218552   2.295   2.986   9.958
 5886SOL     OW18553   3.133   3.659   9.901
 5886SOL    HW118554   3.177   3.723   9.837
 5886SOL    HW218555   3.083   3.711   9.971
 5887SOL     OW18556   2.894   2.411   9.326
 5887SOL    HW118557   2.853   2.493   9.287
 5887SOL    HW218558   2.958   2.437   9.399
 5888SOL     OW18559   1.940   2.418  10.696
 5888SOL    HW118560   2.032   2.417  10.655
 5888SOL    HW218561   1.934   2.492  10.763
 5889SOL     OW18562   2.728   2.316   9.952
 5889SOL    HW118563   2.696   2.388   9.890
 5889SOL    HW218564   2.752   2.235   9.899
 5890SOL     OW18565   2.879   1.901  10.063
 5890SOL    HW118566   2.807   1.906   9.994
 5890SOL    HW218567   2.855   1.832  10.132
 5891SOL     OW18568   3.291   3.035  10.177
 5891SOL    HW118569   3.236   2.951  10.170
 5891SOL    HW218570   3.317   3.064  10.085
 5892SOL     OW18571   3.328   2.452  10.302
 5892SOL    HW118572   3.298   2.357  10.309
 5892SOL    HW218573   3.401   2.468  10.368
 5893SOL     OW18574   3.719   2.695   9.687
 5893SOL    HW118575   3.761   2.631   9.751
 5893SOL    HW218576   3.681   2.644   9.609
 5894SOL     OW18577   2.350   3.247   9.484
 5894SOL    HW118578   2.263   3.232   9.531
 5894SOL    HW218579   2.333   3.273   9.389
 5895SOL     OW18580   3.526   3.142   9.967
 5895SOL    HW118581   3.625   3.150   9.981
 5895SOL    HW218582   3.481   3.226   9.998
 5896SOL     OW18583   3.252   2.437   9.388
 5896SOL    HW118584   3.198   2.416   9.469
 5896SOL    HW218585   3.343   2.396   9.397
 5897SOL     OW18586   3.616   3.085  10.898
 5897SOL    HW118587   3.707   3.046  10.885
 5897SOL    HW218588   3.624   3.181  10.922
 5898SOL     OW18589   2.926   3.209  10.650
 5898SOL    HW118590   2.846   3.186  10.705
 5898SOL    HW218591   3.009   3.183  10.699
 5899SOL     OW18592   3.454   3.491  10.935
 5899SOL    HW118593   3.481   3.525  10.845
 5899SOL    HW218594   3.533   3.453  10.981
 5900SOL     OW18595   2.973   3.057  10.410
 5900SOL    HW118596   2.933   3.101  10.491
 5900SOL    HW218597   2.932   3.094  10.327
 5901SOL     OW18598   3.500   2.961  10.389
 5901SOL    HW118599   3.505   3.042  10.448
 5901SOL    HW218600   3.414   2.963  10.338
 5902SOL     OW18601   2.777   1.951  10.712
 5902SOL    HW118602   2.802   1.931  10.617
 5902SOL    HW218603   2.849   2.007  10.754
 5903SOL     OW18604   2.842   2.978  11.029
 5903SOL    HW118605   2.743   2.984  11.039
 5903SOL    HW218606   2.865   2.898  10.973
 5904SOL     OW18607   2.567   2.912   9.678
 5904SOL    HW118608   2.553   2.919   9.777
 5904SOL    HW218609   2.651   2.861   9.660
 5905SOL     OW18610   2.272   2.675  10.561
 5905SOL    HW118611   2.358   2.687  10.611
 5905SOL    HW218612   2.230   2.588  10.588
 5906SOL     OW18613   3.136   2.248  10.572
 5906SOL    HW118614   3.157   2.322  10.636
 5906SOL    HW218615   3.047   2.265  10.529
 5907SOL     OW18616   1.926   3.426  10.641
 5907SOL    HW118617   1.880   3.508  10.607
 5907SOL    HW218618   2.024   3.445  10.650
 5908SOL     OW18619   2.229   2.962   9.811
 5908SOL    HW118620   2.222   3.045   9.755
 5908SOL    HW218621   2.233   2.882   9.751
 5909SOL     OW18622   2.428   2.399  10.175
 5909SOL    HW118623   2.440   2.465  10.101
 5909SOL    HW218624   2.474   2.433  10.258
 5910SOL     OW18625   3.114   3.210   9.698
 5910SOL    HW118626   3.164   3.287   9.738
 5910SOL    HW218627   3.019   3.212   9.730
 5911SOL     OW18628   3.134   3.307  10.452
 5911SOL    HW118629   3.181   3.320  10.539
 5911SOL    HW218630   3.068   3.233  10.461
 5912SOL     OW18631   3.444   2.501   9.782
 5912SOL    HW118632   3.413   2.562   9.855
 5912SOL    HW218633   3.494   2.553   9.713
 5913SOL     OW18634   2.216   3.372  10.639
 5913SOL    HW118635   2.195   3.328  10.552
 5913SOL    HW218636   2.313   3.398  10.642
 5914SOL     OW18637   2.264   2.613  10.908
 5914SOL    HW118638   2.332   2.668  10.861
 5914SOL    HW218639   2.304   2.525  10.935
 5915SOL     OW18640   3.449   2.641  10.980
 5915SOL    HW118641   3.357   2.679  10.975
 5915SOL    HW218642   3.509   2.688  10.915
 5916SOL     OW18643   2.875   1.967  11.080
 5916SOL    HW118644   2.881   2.052  11.028
 5916SOL    HW218645   2.907   1.891  11.023
 5917SOL     OW18646   2.366   1.912  11.050
 5917SOL    HW118647   2.324   1.855  10.980
 5917SOL    HW218648   2.300   1.981  11.082
 5918SOL     OW18649   2.435   2.732  10.339
 5918SOL    HW118650   2.479   2.821  10.330
 5918SOL    HW218651   2.372   2.732  10.416
 5919SOL     OW18652   3.222   2.724  10.355
 5919SOL    HW118653   3.147   2.724  10.289
 5919SOL    HW218654   3.259   2.632  10.364
 5920SOL     OW18655   3.071   2.387   9.585
 5920SOL    HW118656   3.084   2.303   9.639
 5920SOL    HW218657   3.042   2.461   9.645
 5921SOL     OW18658   1.899   3.172  10.592
 5921SOL    HW118659   1.952   3.123  10.660
 5921SOL    HW218660   1.921   3.270  10.597
 5922SOL     OW18661   2.594   2.496  10.374
 5922SOL    HW118662   2.653   2.470  10.298
 5922SOL    HW218663   2.566   2.592  10.363
 5923SOL     OW18664   3.590   2.797  11.164
 5923SOL    HW118665   3.544   2.790  11.075
 5923SOL    HW218666   3.528   2.841  11.230
 5924SOL     OW18667   3.484   2.229   9.684
 5924SOL    HW118668   3.486   2.153   9.748
 5924SOL    HW218669   3.436   2.306   9.724
 5925SOL     OW18670   2.885   2.628  10.276
 5925SOL    HW118671   2.900   2.649  10.372
 5925SOL    HW218672   2.855   2.533  10.267
 5926SOL     OW18673   2.842   3.435  11.010
 5926SOL    HW118674   2.822   3.479  10.922
 5926SOL    HW218675   2.881   3.344  10.994
 5927SOL     OW18676   3.721   3.380  10.915
 5927SOL    HW118677   3.735   3.407  10.820
 5927SOL    HW218678   3.804   3.402  10.968
 5928SOL     OW18679   2.212   2.760  11.114
 5928SOL    HW118680   2.288   2.804  11.162
 5928SOL    HW218681   2.247   2.713  11.032
 5929SOL     OW18682   3.402   2.136   9.435
 5929SOL    HW118683   3.341   2.061   9.458
 5929SOL    HW218684   3.424   2.188   9.518
 5930SOL     OW18685   3.165   2.700   9.352
 5930SOL    HW118686   3.199   2.607   9.367
 5930SOL    HW218687   3.183   2.727   9.257
 5931SOL     OW18688   2.930   3.195  10.159
 5931SOL    HW118689   2.937   3.111  10.104
 5931SOL    HW218690   2.992   3.264  10.123
 5932SOL     OW18691   2.181   2.672  10.259
 5932SOL    HW118692   2.274   2.708  10.264
 5932SOL    HW218693   2.175   2.587  10.311
 5933SOL     OW18694   3.000   2.242  10.988
 5933SOL    HW118695   2.955   2.305  11.052
 5933SOL    HW218696   3.093   2.273  10.971
 5934SOL     OW18697   3.022   2.069  10.787
 5934SOL    HW118698   3.022   2.133  10.864
 5934SOL    HW218699   3.050   2.117  10.704
 5935SOL     OW18700   1.870   3.188   9.510
 5935SOL    HW118701   1.777   3.209   9.479
 5935SOL    HW218702   1.880   3.089   9.523
 5936SOL     OW18703   1.950   3.663  10.237
 5936SOL    HW118704   1.908   3.577  10.210
 5936SOL    HW218705   2.044   3.666  10.203
 5937SOL     OW18706   2.366   3.430  10.220
 5937SOL    HW118707   2.432   3.504  10.229
 5937SOL    HW218708   2.410   3.351  10.178
 5938SOL     OW18709   2.864   2.658  10.548
 5938SOL    HW118710   2.905   2.626  10.634
 5938SOL    HW218711   2.768   2.631  10.545
 5939SOL     OW18712   1.902   2.406  10.424
 5939SOL    HW118713   1.987   2.373  10.383
 5939SOL    HW218714   1.915   2.421  10.522
 5940SOL     OW18715   3.231   2.812  10.970
 5940SOL    HW118716   3.270   2.901  10.990
 5940SOL    HW218717   3.241   2.792  10.873
 5941SOL     OW18718   2.677   2.434   9.635
 5941SOL    HW118719   2.684   2.345   9.589
 5941SOL    HW218720   2.583   2.468   9.627
 5942SOL     OW18721   3.519   2.466  10.516
 5942SOL    HW118722   3.481   2.397  10.578
 5942SOL    HW218723   3.601   2.430  10.472
 5943SOL     OW18724   2.114   3.426  11.054
 5943SOL    HW118725   2.084   3.483  11.130
 5943SOL    HW218726   2.107   3.329  11.080
 5944SOL     OW18727   2.533   2.326  10.579
 5944SOL    HW118728   2.499   2.237  10.549
 5944SOL    HW218729   2.559   2.380  10.499
 5945SOL     OW18730   2.792   3.540  10.775
 5945SOL    HW118731   2.768   3.522  10.680
 5945SOL    HW218732   2.822   3.634  10.785
 5946SOL     OW18733   2.335   2.362   9.501
 5946SOL    HW118734   2.396   2.442   9.505
 5946SOL    HW218735   2.240   2.393   9.508
 5947SOL     OW18736   2.021   2.999  10.776
 5947SOL    HW118737   2.043   2.938  10.852
 5947SOL    HW218738   2.031   2.950  10.690
 5948SOL     OW18739   3.209   2.921  10.544
 5948SOL    HW118740   3.233   2.858  10.470
 5948SOL    HW218741   3.119   2.961  10.526
 5949SOL     OW18742   3.164   2.717   9.619
 5949SOL    HW118743   3.078   2.686   9.661
 5949SOL    HW218744   3.160   2.703   9.520
 5950SOL     OW18745   3.621   3.609  10.464
 5950SOL    HW118746   3.682   3.639  10.391
 5950SOL    HW218747   3.583   3.520  10.442
 5951SOL     OW18748   3.114   3.593  10.438
 5951SOL    HW118749   3.198   3.598  10.384
 5951SOL    HW218750   3.091   3.497  10.456
 5952SOL     OW18751   1.945   3.120  10.332
 5952SOL    HW118752   1.940   3.119  10.432
 5952SOL    HW218753   1.862   3.079  10.294
 5953SOL     OW18754   2.550   3.524  11.026
 5953SOL    HW118755   2.494   3.605  11.035
 5953SOL    HW218756   2.602   3.528  10.940
 5954SOL     OW18757   3.588   1.997   9.833
 5954SOL    HW118758   3.661   1.980   9.766
 5954SOL    HW218759   3.557   1.910   9.871
 5955SOL     OW18760   3.250   3.435   9.787
 5955SOL    HW118761   3.317   3.447   9.713
 5955SOL    HW218762   3.210   3.524   9.810
 5956SOL     OW18763   1.992   3.656  11.161
 5956SOL    HW118764   1.951   3.582  11.214
 5956SOL    HW218765   2.056   3.707  11.219
 5957SOL     OW18766   3.142   2.789   9.982
 5957SOL    HW118767   3.202   2.708   9.984
 5957SOL    HW218768   3.182   2.858   9.922
 5958SOL     OW18769   2.692   3.135  10.732
 5958SOL    HW118770   2.687   3.168  10.827
 5958SOL    HW218771   2.606   3.154  10.686
 5959SOL     OW18772   2.534   3.478   9.464
 5959SOL    HW118773   2.543   3.488   9.365
 5959SOL    HW218774   2.494   3.389   9.485
 5960SOL     OW18775   3.512   3.582  10.704
 5960SOL    HW118776   3.565   3.592  10.620
 5960SOL    HW218777   3.485   3.672  10.738
 5961SOL     OW18778   3.703   2.037  10.273
 5961SOL    HW118779   3.742   1.952  10.237
 5961SOL    HW218780   3.605   2.039  10.254
 5962SOL     OW18781   3.056   3.474   9.341
 5962SOL    HW118782   3.062   3.381   9.378
 5962SOL    HW218783   2.997   3.474   9.261
 5963SOL     OW18784   2.684   2.864  10.682
 5963SOL    HW118785   2.724   2.863  10.590
 5963SOL    HW218786   2.694   2.956  10.722
 5964SOL     OW18787   2.778   2.772   9.601
 5964SOL    HW118788   2.841   2.810   9.533
 5964SOL    HW218789   2.818   2.689   9.640
 5965SOL     OW18790   3.366   3.469   9.354
 5965SOL    HW118791   3.274   3.506   9.361
 5965SOL    HW218792   3.404   3.489   9.264
 5966SOL     OW18793   2.234   3.150  10.800
 5966SOL    HW118794   2.221   3.243  10.766
 5966SOL    HW218795   2.150   3.098  10.787
 5967SOL     OW18796   3.476   3.154  10.599
 5967SOL    HW118797   3.536   3.157  10.679
 5967SOL    HW218798   3.401   3.218  10.612
 5968SOL     OW18799   2.901   2.960  10.006
 5968SOL    HW118800   2.831   2.913  10.060
 5968SOL    HW218801   2.960   2.892   9.963
 5969SOL     OW18802   2.876   2.098  10.281
 5969SOL    HW118803   2.868   2.062  10.188
 5969SOL    HW218804   2.874   2.022  10.346
 5970SOL     OW18805   2.452   3.349   9.801
 5970SOL    HW118806   2.494   3.291   9.731
 5970SOL    HW218807   2.408   3.428   9.757
 5971SOL     OW18808   3.571   2.247  10.691
 5971SOL    HW118809   3.644   2.316  10.695
 5971SOL    HW218810   3.599   2.172  10.632
 5972SOL     OW18811   2.117   3.210   9.600
 5972SOL    HW118812   2.021   3.211   9.573
 5972SOL    HW218813   2.129   3.263   9.684
 5973SOL     OW18814   1.967   2.875  11.036
 5973SOL    HW118815   1.890   2.842  11.090
 5973SOL    HW218816   2.052   2.845  11.078
 5974SOL     OW18817   2.534   2.065  10.799
 5974SOL    HW118818   2.624   2.049  10.759
 5974SOL    HW218819   2.542   2.070  10.898
 5975SOL     OW18820   1.937   2.207   9.343
 5975SOL    HW118821   1.845   2.179   9.314
 5975SOL    HW218822   1.968   2.284   9.287
 5976SOL     OW18823   3.302   2.718  10.708
 5976SOL    HW118824   3.245   2.770  10.645
 5976SOL    HW218825   3.398   2.730  10.684
 5977SOL     OW18826   3.045   3.197   9.429
 5977SOL    HW118827   2.946   3.186   9.431
 5977SOL    HW218828   3.079   3.212   9.522
 5978SOL     OW18829   2.475   2.704  10.741
 5978SOL    HW118830   2.531   2.785  10.724
 5978SOL    HW218831   2.534   2.624  10.744
 5979SOL     OW18832   3.355   3.629  10.269
 5979SOL    HW118833   3.388   3.693  10.200
 5979SOL    HW218834   3.421   3.623  10.344
 5980SOL     OW18835   2.578   2.427  11.018
 5980SOL    HW118836   2.597   2.492  11.092
 5980SOL    HW218837   2.638   2.347  11.027
 5981SOL     OW18838   3.312   3.082  10.943
 5981SOL    HW118839   3.303   3.072  11.042
 5981SOL    HW218840   3.408   3.075  10.917
 5982SOL     OW18841   2.252   3.603  10.870
 5982SOL    HW118842   2.161   3.644  10.868
 5982SOL    HW218843   2.245   3.509  10.902
 5983SOL     OW18844   3.536   2.745  10.564
 5983SOL    HW118845   3.509   2.656  10.527
 5983SOL    HW218846   3.537   2.813  10.491
 5984SOL     OW18847   3.087   2.187   9.759
 5984SOL    HW118848   3.152   2.113   9.748
 5984SOL    HW218849   3.107   2.237   9.843
 5985SOL     OW18850   2.456   2.607   9.962
 5985SOL    HW118851   2.506   2.692   9.943
 5985SOL    HW218852   2.368   2.609   9.914
 5986SOL     OW18853   3.639   2.204  10.952
 5986SOL    HW118854   3.622   2.235  10.858
 5986SOL    HW218855   3.555   2.167  10.990
 5987SOL     OW18856   3.592   2.796  10.827
 5987SOL    HW118857   3.630   2.887  10.842
 5987SOL    HW218858   3.584   2.779  10.728
 5988SOL     OW18859   2.721   3.236   9.326
 5988SOL    HW118860   2.675   3.251   9.414
 5988SOL    HW218861   2.765   3.321   9.296
 5989SOL     OW18862   2.523   3.652  10.263
 5989SOL    HW118863   2.477   3.740  10.250
 5989SOL    HW218864   2.622   3.664  10.256
 5990SOL     OW18865   2.721   2.818  10.171
 5990SOL    HW118866   2.775   2.749  10.219
 5990SOL    HW218867   2.689   2.887  10.237
 5991SOL     OW18868   2.945   2.846   9.397
 5991SOL    HW118869   2.922   2.899   9.315
 5991SOL    HW218870   3.026   2.790   9.378
 5992SOL     OW18871   3.723   3.431  10.161
 5992SOL    HW118872   3.652   3.419  10.091
 5992SOL    HW218873   3.724   3.352  10.221
 5993SOL     OW18874   2.083   3.176  11.154
 5993SOL    HW118875   2.018   3.103  11.133
 5993SOL    HW218876   2.087   3.190  11.252
 5994SOL     OW18877   1.941   3.102   9.963
 5994SOL    HW118878   1.940   3.055  10.051
 5994SOL    HW218879   2.023   3.074   9.912
 5995SOL     OW18880   2.534   3.253  10.934
 5995SOL    HW118881   2.456   3.203  10.972
 5995SOL    HW218882   2.531   3.348  10.965
 5996SOL     OW18883   3.686   2.054  10.537
 5996SOL    HW118884   3.682   1.964  10.581
 5996SOL    HW218885   3.689   2.043  10.438
 5997SOL     OW18886   3.567   3.349  10.414
 5997SOL    HW118887   3.474   3.324  10.387
 5997SOL    HW218888   3.593   3.299  10.496
 5998SOL     OW18889   2.179   2.409  10.590
 5998SOL    HW118890   2.217   2.350  10.662
 5998SOL    HW218891   2.219   2.383  10.502
 5999SOL     OW18892   2.674   3.448   9.997
 5999SOL    HW118893   2.706   3.458   9.903
 5999SOL    HW218894   2.595   3.386   9.999
 6000SOL     OW18895   3.286   2.076  10.422
 6000SOL    HW118896   3.338   2.011  10.477
 6000SOL    HW218897   3.237   2.139  10.483
 6001SOL     OW18898   2.863   1.896  10.464
 6001SOL    HW118899   2.800   1.824  10.433
 6001SOL    HW218900   2.956   1.860  10.464
 6002SOL     OW18901   2.632   3.192   9.611
 6002SOL    HW118902   2.586   3.105   9.628
 6002SOL    HW218903   2.723   3.189   9.652
 6003SOL     OW18904   2.480   3.429  10.594
 6003SOL    HW118905   2.475   3.511  10.651
 6003SOL    HW218906   2.569   3.426  10.549
 6004SOL     OW18907   3.214   1.914   9.478
 6004SOL    HW118908   3.249   1.873   9.394
 6004SOL    HW218909   3.124   1.876   9.498
 6005SOL     OW18910   3.162   2.315  10.001
 6005SOL    HW118911   3.103   2.395  10.005
 6005SOL    HW218912   3.177   2.280  10.094
 6006SOL     OW18913   3.455   2.083  10.192
 6006SOL    HW118914   3.371   2.082  10.246
 6006SOL    HW218915   3.457   2.166  10.136
 6007SOL     OW18916   1.901   2.939   9.610
 6007SOL    HW118917   2.000   2.928   9.601
 6007SOL    HW218918   1.861   2.853   9.642
 6008SOL     OW18919   2.737   3.508   9.647
 6008SOL    HW118920   2.660   3.473   9.593
 6008SOL    HW218921   2.705   3.579   9.709
 6009SOL     OW18922   2.092   2.490  11.285
 6009SOL    HW118923   1.999   2.488  11.322
 6009SOL    HW218924   2.093   2.451  11.193
 6010SOL     OW18925   1.881   2.230  11.819
 6010SOL    HW118926   1.799   2.273  11.858
 6010SOL    HW218927   1.853   2.157  11.756
 6011SOL     OW18928   2.431   3.137  12.337
 6011SOL    HW118929   2.338   3.130  12.300
 6011SOL    HW218930   2.442   3.226  12.381
 6012SOL     OW18931   3.417   3.373  11.875
 6012SOL    HW118932   3.360   3.357  11.956
 6012SOL    HW218933   3.358   3.383  11.795
 6013SOL     OW18934   2.997   2.565  11.889
 6013SOL    HW118935   3.054   2.643  11.864
 6013SOL    HW218936   2.937   2.591  11.965
 6014SOL     OW18937   3.617   2.469  11.403
 6014SOL    HW118938   3.605   2.456  11.304
 6014SOL    HW218939   3.587   2.388  11.452
 6015SOL     OW18940   2.630   3.006  12.195
 6015SOL    HW118941   2.552   3.023  12.255
 6015SOL    HW218942   2.664   3.093  12.159
 6016SOL     OW18943   2.712   2.660  12.995
 6016SOL    HW118944   2.708   2.736  13.060
 6016SOL    HW218945   2.734   2.696  12.904
 6017SOL     OW18946   2.547   2.874  11.837
 6017SOL    HW118947   2.616   2.858  11.907
 6017SOL    HW218948   2.474   2.931  11.875
 6018SOL     OW18949   2.548   3.023  12.975
 6018SOL    HW118950   2.608   3.102  12.989
 6018SOL    HW218951   2.462   3.054  12.934
 6019SOL     OW18952   2.197   3.297  12.233
 6019SOL    HW118953   2.119   3.266  12.180
 6019SOL    HW218954   2.255   3.355  12.176
 6020SOL     OW18955   3.322   3.367  12.511
 6020SOL    HW118956   3.346   3.461  12.537
 6020SOL    HW218957   3.306   3.313  12.593
 6021SOL     OW18958   3.465   2.309  11.909
 6021SOL    HW118959   3.391   2.355  11.859
 6021SOL    HW218960   3.516   2.377  11.962
 6022SOL     OW18961   2.093   3.575  11.655
 6022SOL    HW118962   2.127   3.652  11.709
 6022SOL    HW218963   2.137   3.575  11.565
 6023SOL     OW18964   2.989   3.203  12.862
 6023SOL    HW118965   3.036   3.203  12.950
 6023SOL    HW218966   2.941   3.116  12.851
 6024SOL     OW18967   2.092   3.296  11.710
 6024SOL    HW118968   2.066   3.392  11.710
 6024SOL    HW218969   2.021   3.242  11.755
 6025SOL     OW18970   2.102   2.953  12.058
 6025SOL    HW118971   2.116   2.869  12.110
 6025SOL    HW218972   2.047   3.017  12.113
 6026SOL     OW18973   2.482   3.648  12.611
 6026SOL    HW118974   2.390   3.631  12.646
 6026SOL    HW218975   2.510   3.740  12.637
 6027SOL     OW18976   2.468   2.826  11.295
 6027SOL    HW118977   2.475   2.910  11.241
 6027SOL    HW218978   2.514   2.839  11.383
 6028SOL     OW18979   3.456   1.976  12.652
 6028SOL    HW118980   3.438   2.043  12.580
 6028SOL    HW218981   3.453   2.022  12.741
 6029SOL     OW18982   1.984   2.505  11.735
 6029SOL    HW118983   1.939   2.417  11.752
 6029SOL    HW218984   1.983   2.559  11.819
 6030SOL     OW18985   3.704   3.629  11.531
 6030SOL    HW118986   3.758   3.600  11.611
 6030SOL    HW218987   3.734   3.719  11.502
 6031SOL     OW18988   1.889   3.458  11.289
 6031SOL    HW118989   1.870   3.362  11.310
 6031SOL    HW218990   1.856   3.516  11.364
 6032SOL     OW18991   3.551   2.784  11.784
 6032SOL    HW118992   3.646   2.755  11.792
 6032SOL    HW218993   3.543   2.849  11.709
 6033SOL     OW18994   3.503   2.970  11.604
 6033SOL    HW118995   3.589   2.972  11.552
 6033SOL    HW218996   3.517   3.017  11.692
 6034SOL     OW18997   1.975   2.599  12.769
 6034SOL    HW118998   2.063   2.586  12.814
 6034SOL    HW218999   1.962   2.696  12.747
 6035SOL     OW19000   2.475   3.227  11.898
 6035SOL    HW119001   2.426   3.140  11.907
 6035SOL    HW219002   2.452   3.270  11.811
 6036SOL     OW19003   3.155   3.090  12.595
 6036SOL    HW119004   3.192   3.017  12.537
 6036SOL    HW219005   3.207   3.095  12.680
 6037SOL     OW19006   2.671   1.866  11.674
 6037SOL    HW119007   2.711   1.957  11.665
 6037SOL    HW219008   2.571   1.874  11.680
 6038SOL     OW19009   2.059   2.838  12.436
 6038SOL    HW119010   2.148   2.793  12.422
 6038SOL    HW219011   1.986   2.773  12.417
 6039SOL     OW19012   3.387   2.861  11.362
 6039SOL    HW119013   3.324   2.785  11.375
 6039SOL    HW219014   3.435   2.879  11.448
 6040SOL     OW19015   3.049   3.654  12.788
 6040SOL    HW119016   3.073   3.714  12.712
 6040SOL    HW219017   3.056   3.559  12.758
 6041SOL     OW19018   3.328   3.279  12.125
 6041SOL    HW119019   3.269   3.285  12.205
 6041SOL    HW219020   3.313   3.191  12.079
 6042SOL     OW19021   3.529   3.576  11.744
 6042SOL    HW119022   3.488   3.553  11.656
 6042SOL    HW219023   3.511   3.502  11.809
 6043SOL     OW19024   2.460   2.591  11.442
 6043SOL    HW119025   2.484   2.660  11.374
 6043SOL    HW219026   2.382   2.624  11.496
 6044SOL     OW19027   3.143   2.207  12.116
 6044SOL    HW119028   3.057   2.157  12.103
 6044SOL    HW219029   3.205   2.153  12.172
 6045SOL     OW19030   3.438   3.524  11.479
 6045SOL    HW119031   3.527   3.570  11.482
 6045SOL    HW219032   3.417   3.500  11.384
 6046SOL     OW19033   2.669   2.467  12.637
 6046SOL    HW119034   2.622   2.464  12.726
 6046SOL    HW219035   2.618   2.412  12.571
 6047SOL     OW19036   3.256   2.331  12.846
 6047SOL    HW119037   3.236   2.374  12.934
 6047SOL    HW219038   3.334   2.269  12.855
 6048SOL     OW19039   2.835   2.752  12.744
 6048SOL    HW119040   2.881   2.668  12.715
 6048SOL    HW219041   2.779   2.786  12.669
 6049SOL     OW19042   2.853   2.272  12.414
 6049SOL    HW119043   2.776   2.306  12.468
 6049SOL    HW219044   2.819   2.221  12.335
 6050SOL     OW19045   2.903   2.563  11.601
 6050SOL    HW119046   2.929   2.559  11.697
 6050SOL    HW219047   2.818   2.512  11.587
 6051SOL     OW19048   1.938   2.673  11.961
 6051SOL    HW119049   2.037   2.661  11.970
 6051SOL    HW219050   1.914   2.768  11.982
 6052SOL     OW19051   1.992   3.683  12.743
 6052SOL    HW119052   1.982   3.668  12.842
 6052SOL    HW219053   1.906   3.719  12.707
 6053SOL     OW19054   2.727   2.210  11.367
 6053SOL    HW119055   2.786   2.273  11.318
 6053SOL    HW219056   2.746   2.116  11.338
 6054SOL     OW19057   3.581   2.447  13.003
 6054SOL    HW119058   3.555   2.536  12.967
 6054SOL    HW219059   3.579   2.379  12.930
 6055SOL     OW19060   3.224   3.006  11.717
 6055SOL    HW119061   3.307   2.977  11.669
 6055SOL    HW219062   3.175   3.073  11.661
 6056SOL     OW19063   2.412   2.058  12.057
 6056SOL    HW119064   2.407   2.053  12.157
 6056SOL    HW219065   2.414   2.154  12.028
 6057SOL     OW19066   2.870   3.318  11.649
 6057SOL    HW119067   2.824   3.390  11.597
 6057SOL    HW219068   2.866   3.338  11.747
 6058SOL     OW19069   2.213   3.663  12.025
 6058SOL    HW119070   2.263   3.577  12.031
 6058SOL    HW219071   2.278   3.740  12.022
 6059SOL     OW19072   3.657   2.928  12.045
 6059SOL    HW119073   3.595   2.913  11.969
 6059SOL    HW219074   3.605   2.939  12.130
 6060SOL     OW19075   3.089   3.412  12.678
 6060SOL    HW119076   3.095   3.335  12.742
 6060SOL    HW219077   3.037   3.386  12.598
 6061SOL     OW19078   2.183   2.805  11.414
 6061SOL    HW119079   2.265   2.844  11.372
 6061SOL    HW219080   2.156   2.723  11.365
 6062SOL     OW19081   3.320   2.597  11.900
 6062SOL    HW119082   3.315   2.532  11.975
 6062SOL    HW219083   3.400   2.656  11.913
 6063SOL     OW19084   2.323   3.128  12.899
 6063SOL    HW119085   2.273   3.129  12.813
 6063SOL    HW219086   2.260   3.110  12.975
 6064SOL     OW19087   2.973   3.638  11.409
 6064SOL    HW119088   2.913   3.576  11.459
 6064SOL    HW219089   3.004   3.594  11.324
 6065SOL     OW19090   3.494   3.239  11.253
 6065SOL    HW119091   3.462   3.333  11.243
 6065SOL    HW219092   3.418   3.176  11.241
 6066SOL     OW19093   2.326   3.605  11.495
 6066SOL    HW119094   2.359   3.644  11.581
 6066SOL    HW219095   2.402   3.598  11.430
 6067SOL     OW19096   3.262   1.969  11.598
 6067SOL    HW119097   3.238   1.932  11.508
 6067SOL    HW219098   3.361   1.985  11.602
 6068SOL     OW19099   2.111   3.647  12.413
 6068SOL    HW119100   2.168   3.582  12.463
 6068SOL    HW219101   2.095   3.614  12.320
 6069SOL     OW19102   2.802   3.560  12.076
 6069SOL    HW119103   2.882   3.503  12.097
 6069SOL    HW219104   2.753   3.520  11.999
 6070SOL     OW19105   2.244   2.562  11.652
 6070SOL    HW119106   2.289   2.472  11.649
 6070SOL    HW219107   2.150   2.551  11.685
 6071SOL     OW19108   3.409   2.084  12.901
 6071SOL    HW119109   3.404   2.121  12.993
 6071SOL    HW219110   3.337   2.015  12.889
 6072SOL     OW19111   2.476   1.984  11.289
 6072SOL    HW119112   2.574   1.962  11.296
 6072SOL    HW219113   2.445   1.967  11.196
 6073SOL     OW19114   2.643   2.126  12.921
 6073SOL    HW119115   2.710   2.065  12.964
 6073SOL    HW219116   2.570   2.145  12.986
 6074SOL     OW19117   2.750   3.376  12.367
 6074SOL    HW119118   2.727   3.351  12.273
 6074SOL    HW219119   2.811   3.307  12.406
 6075SOL     OW19120   3.213   2.452  12.605
 6075SOL    HW119121   3.241   2.409  12.690
 6075SOL    HW219122   3.238   2.548  12.606
 6076SOL     OW19123   2.665   3.264  12.096
 6076SOL    HW119124   2.755   3.278  12.054
 6076SOL    HW219125   2.594   3.266  12.025
 6077SOL     OW19126   2.784   2.365  12.071
 6077SOL    HW119127   2.759   2.356  11.975
 6077SOL    HW219128   2.832   2.283  12.102
 6078SOL     OW19129   2.401   1.926  11.684
 6078SOL    HW119130   2.320   1.927  11.742
 6078SOL    HW219131   2.404   2.009  11.629
 6079SOL     OW19132   3.296   3.050  11.213
 6079SOL    HW119133   3.328   2.974  11.270
 6079SOL    HW219134   3.204   3.077  11.243
 6080SOL     OW19135   2.797   2.098  11.652
 6080SOL    HW119136   2.749   2.139  11.574
 6080SOL    HW219137   2.896   2.096  11.633
 6081SOL     OW19138   2.938   2.545  12.636
 6081SOL    HW119139   2.858   2.484  12.639
 6081SOL    HW219140   3.019   2.492  12.612
 6082SOL     OW19141   3.089   3.432  11.965
 6082SOL    HW119142   3.110   3.506  11.900
 6082SOL    HW219143   3.157   3.432  12.038
 6083SOL     OW19144   2.321   3.014  11.913
 6083SOL    HW119145   2.250   2.987  11.978
 6083SOL    HW219146   2.295   2.986  11.820
 6084SOL     OW19147   3.133   3.659  11.763
 6084SOL    HW119148   3.177   3.723  11.699
 6084SOL    HW219149   3.083   3.711  11.833
 6085SOL     OW19150   2.894   2.411  11.188
 6085SOL    HW119151   2.853   2.493  11.149
 6085SOL    HW219152   2.958   2.437  11.261
 6086SOL     OW19153   1.940   2.418  12.558
 6086SOL    HW119154   2.032   2.417  12.517
 6086SOL    HW219155   1.934   2.492  12.625
 6087SOL     OW19156   2.728   2.316  11.814
 6087SOL    HW119157   2.696   2.388  11.752
 6087SOL    HW219158   2.752   2.235  11.761
 6088SOL     OW19159   2.879   1.901  11.925
 6088SOL    HW119160   2.807   1.906  11.856
 6088SOL    HW219161   2.855   1.832  11.994
 6089SOL     OW19162   3.291   3.035  12.039
 6089SOL    HW119163   3.236   2.951  12.032
 6089SOL    HW219164   3.317   3.064  11.947
 6090SOL     OW19165   3.328   2.452  12.164
 6090SOL    HW119166   3.298   2.357  12.171
 6090SOL    HW219167   3.401   2.468  12.230
 6091SOL     OW19168   3.719   2.695  11.549
 6091SOL    HW119169   3.761   2.631  11.613
 6091SOL    HW219170   3.681   2.644  11.471
 6092SOL     OW19171   2.350   3.247  11.346
 6092SOL    HW119172   2.263   3.232  11.393
 6092SOL    HW219173   2.333   3.273  11.251
 6093SOL     OW19174   3.526   3.142  11.829
 6093SOL    HW119175   3.625   3.150  11.843
 6093SOL    HW219176   3.481   3.226  11.860
 6094SOL     OW19177   3.252   2.437  11.250
 6094SOL    HW119178   3.198   2.416  11.331
 6094SOL    HW219179   3.343   2.396  11.259
 6095SOL     OW19180   3.616   3.085  12.760
 6095SOL    HW119181   3.707   3.046  12.747
 6095SOL    HW219182   3.624   3.181  12.784
 6096SOL     OW19183   2.926   3.209  12.512
 6096SOL    HW119184   2.846   3.186  12.567
 6096SOL    HW219185   3.009   3.183  12.561
 6097SOL     OW19186   3.454   3.491  12.797
 6097SOL    HW119187   3.481   3.525  12.707
 6097SOL    HW219188   3.533   3.453  12.843
 6098SOL     OW19189   2.973   3.057  12.272
 6098SOL    HW119190   2.933   3.101  12.353
 6098SOL    HW219191   2.932   3.094  12.189
 6099SOL     OW19192   3.500   2.961  12.251
 6099SOL    HW119193   3.505   3.042  12.310
 6099SOL    HW219194   3.414   2.963  12.200
 6100SOL     OW19195   2.777   1.951  12.574
 6100SOL    HW119196   2.802   1.931  12.479
 6100SOL    HW219197   2.849   2.007  12.616
 6101SOL     OW19198   2.842   2.978  12.891
 6101SOL    HW119199   2.743   2.984  12.901
 6101SOL    HW219200   2.865   2.898  12.835
 6102SOL     OW19201   2.567   2.912  11.540
 6102SOL    HW119202   2.553   2.919  11.639
 6102SOL    HW219203   2.651   2.861  11.522
 6103SOL     OW19204   2.272   2.675  12.423
 6103SOL    HW119205   2.358   2.687  12.473
 6103SOL    HW219206   2.230   2.588  12.450
 6104SOL     OW19207   3.136   2.248  12.434
 6104SOL    HW119208   3.157   2.322  12.498
 6104SOL    HW219209   3.047   2.265  12.391
 6105SOL     OW19210   1.926   3.426  12.503
 6105SOL    HW119211   1.880   3.508  12.469
 6105SOL    HW219212   2.024   3.445  12.512
 6106SOL     OW19213   2.229   2.962  11.673
 6106SOL    HW119214   2.222   3.045  11.617
 6106SOL    HW219215   2.233   2.882  11.613
 6107SOL     OW19216   2.428   2.399  12.037
 6107SOL    HW119217   2.440   2.465  11.963
 6107SOL    HW219218   2.474   2.433  12.120
 6108SOL     OW19219   3.114   3.210  11.560
 6108SOL    HW119220   3.164   3.287  11.600
 6108SOL    HW219221   3.019   3.212  11.592
 6109SOL     OW19222   3.134   3.307  12.314
 6109SOL    HW119223   3.181   3.320  12.401
 6109SOL    HW219224   3.068   3.233  12.323
 6110SOL     OW19225   3.444   2.501  11.644
 6110SOL    HW119226   3.413   2.562  11.717
 6110SOL    HW219227   3.494   2.553  11.575
 6111SOL     OW19228   2.216   3.372  12.501
 6111SOL    HW119229   2.195   3.328  12.414
 6111SOL    HW219230   2.313   3.398  12.504
 6112SOL     OW19231   2.264   2.613  12.770
 6112SOL    HW119232   2.332   2.668  12.723
 6112SOL    HW219233   2.304   2.525  12.797
 6113SOL     OW19234   3.449   2.641  12.842
 6113SOL    HW119235   3.357   2.679  12.837
 6113SOL    HW219236   3.509   2.688  12.777
 6114SOL     OW19237   2.875   1.967  12.942
 6114SOL    HW119238   2.881   2.052  12.890
 6114SOL    HW219239   2.907   1.891  12.885
 6115SOL     OW19240   2.366   1.912  12.912
 6115SOL    HW119241   2.324   1.855  12.842
 6115SOL    HW219242   2.300   1.981  12.944
 6116SOL     OW19243   2.435   2.732  12.201
 6116SOL    HW119244   2.479   2.821  12.192
 6116SOL    HW219245   2.372   2.732  12.278
 6117SOL     OW19246   3.222   2.724  12.217
 6117SOL    HW119247   3.147   2.724  12.151
 6117SOL    HW219248   3.259   2.632  12.226
 6118SOL     OW19249   3.071   2.387  11.447
 6118SOL    HW119250   3.084   2.303  11.501
 6118SOL    HW219251   3.042   2.461  11.507
 6119SOL     OW19252   1.899   3.172  12.454
 6119SOL    HW119253   1.952   3.123  12.522
 6119SOL    HW219254   1.921   3.270  12.459
 6120SOL     OW19255   2.594   2.496  12.236
 6120SOL    HW119256   2.653   2.470  12.160
 6120SOL    HW219257   2.566   2.592  12.225
 6121SOL     OW19258   3.590   2.797  13.026
 6121SOL    HW119259   3.544   2.790  12.937
 6121SOL    HW219260   3.528   2.841  13.092
 6122SOL     OW19261   3.484   2.229  11.546
 6122SOL    HW119262   3.486   2.153  11.610
 6122SOL    HW219263   3.436   2.306  11.586
 6123SOL     OW19264   2.885   2.628  12.138
 6123SOL    HW119265   2.900   2.649  12.234
 6123SOL    HW219266   2.855   2.533  12.129
 6124SOL     OW19267   2.842   3.435  12.872
 6124SOL    HW119268   2.822   3.479  12.784
 6124SOL    HW219269   2.881   3.344  12.856
 6125SOL     OW19270   3.721   3.380  12.777
 6125SOL    HW119271   3.735   3.407  12.682
 6125SOL    HW219272   3.804   3.402  12.830
 6126SOL     OW19273   2.212   2.760  12.976
 6126SOL    HW119274   2.288   2.804  13.024
 6126SOL    HW219275   2.247   2.713  12.894
 6127SOL     OW19276   3.402   2.136  11.297
 6127SOL    HW119277   3.341   2.061  11.320
 6127SOL    HW219278   3.424   2.188  11.380
 6128SOL     OW19279   3.165   2.700  11.214
 6128SOL    HW119280   3.199   2.607  11.229
 6128SOL    HW219281   3.183   2.727  11.119
 6129SOL     OW19282   2.930   3.195  12.021
 6129SOL    HW119283   2.937   3.111  11.966
 6129SOL    HW219284   2.992   3.264  11.985
 6130SOL     OW19285   2.181   2.672  12.121
 6130SOL    HW119286   2.274   2.708  12.126
 6130SOL    HW219287   2.175   2.587  12.173
 6131SOL     OW19288   3.000   2.242  12.850
 6131SOL    HW119289   2.955   2.305  12.914
 6131SOL    HW219290   3.093   2.273  12.833
 6132SOL     OW19291   3.022   2.069  12.649
 6132SOL    HW119292   3.022   2.133  12.726
 6132SOL    HW219293   3.050   2.117  12.566
 6133SOL     OW19294   1.870   3.188  11.372
 6133SOL    HW119295   1.777   3.209  11.341
 6133SOL    HW219296   1.880   3.089  11.385
 6134SOL     OW19297   1.950   3.663  12.099
 6134SOL    HW119298   1.908   3.577  12.072
 6134SOL    HW219299   2.044   3.666  12.065
 6135SOL     OW19300   2.366   3.430  12.082
 6135SOL    HW119301   2.432   3.504  12.091
 6135SOL    HW219302   2.410   3.351  12.040
 6136SOL     OW19303   2.864   2.658  12.410
 6136SOL    HW119304   2.905   2.626  12.496
 6136SOL    HW219305   2.768   2.631  12.407
 6137SOL     OW19306   1.902   2.406  12.286
 6137SOL    HW119307   1.987   2.373  12.245
 6137SOL    HW219308   1.915   2.421  12.384
 6138SOL     OW19309   3.231   2.812  12.832
 6138SOL    HW119310   3.270   2.901  12.852
 6138SOL    HW219311   3.241   2.792  12.735
 6139SOL     OW19312   2.677   2.434  11.497
 6139SOL    HW119313   2.684   2.345  11.451
 6139SOL    HW219314   2.583   2.468  11.489
 6140SOL     OW19315   3.519   2.466  12.378
 6140SOL    HW119316   3.481   2.397  12.440
 6140SOL    HW219317   3.601   2.430  12.334
 6141SOL     OW19318   2.114   3.426  12.916
 6141SOL    HW119319   2.084   3.483  12.992
 6141SOL    HW219320   2.107   3.329  12.942
 6142SOL     OW19321   2.533   2.326  12.441
 6142SOL    HW119322   2.499   2.237  12.411
 6142SOL    HW219323   2.559   2.380  12.361
 6143SOL     OW19324   2.792   3.540  12.637
 6143SOL    HW119325   2.768   3.522  12.542
 6143SOL    HW219326   2.822   3.634  12.647
 6144SOL     OW19327   2.335   2.362  11.363
 6144SOL    HW119328   2.396   2.442  11.367
 6144SOL    HW219329   2.240   2.393  11.370
 6145SOL     OW19330   2.021   2.999  12.638
 6145SOL    HW119331   2.043   2.938  12.714
 6145SOL    HW219332   2.031   2.950  12.552
 6146SOL     OW19333   3.209   2.921  12.406
 6146SOL    HW119334   3.233   2.858  12.332
 6146SOL    HW219335   3.119   2.961  12.388
 6147SOL     OW19336   3.164   2.717  11.481
 6147SOL    HW119337   3.078   2.686  11.523
 6147SOL    HW219338   3.160   2.703  11.382
 6148SOL     OW19339   3.621   3.609  12.326
 6148SOL    HW119340   3.682   3.639  12.253
 6148SOL    HW219341   3.583   3.520  12.304
 6149SOL     OW19342   3.114   3.593  12.300
 6149SOL    HW119343   3.198   3.598  12.246
 6149SOL    HW219344   3.091   3.497  12.318
 6150SOL     OW19345   1.945   3.120  12.194
 6150SOL    HW119346   1.940   3.119  12.294
 6150SOL    HW219347   1.862   3.079  12.156
 6151SOL     OW19348   2.550   3.524  12.888
 6151SOL    HW119349   2.494   3.605  12.897
 6151SOL    HW219350   2.602   3.528  12.802
 6152SOL     OW19351   3.588   1.997  11.695
 6152SOL    HW119352   3.661   1.980  11.628
 6152SOL    HW219353   3.557   1.910  11.733
 6153SOL     OW19354   3.250   3.435  11.649
 6153SOL    HW119355   3.317   3.447  11.575
 6153SOL    HW219356   3.210   3.524  11.672
 6154SOL     OW19357   1.992   3.656  13.023
 6154SOL    HW119358   1.951   3.582  13.076
 6154SOL    HW219359   2.056   3.707  13.081
 6155SOL     OW19360   3.142   2.789  11.844
 6155SOL    HW119361   3.202   2.708  11.846
 6155SOL    HW219362   3.182   2.858  11.784
 6156SOL     OW19363   2.692   3.135  12.594
 6156SOL    HW119364   2.687   3.168  12.689
 6156SOL    HW219365   2.606   3.154  12.548
 6157SOL     OW19366   2.534   3.478  11.326
 6157SOL    HW119367   2.543   3.488  11.227
 6157SOL    HW219368   2.494   3.389  11.347
 6158SOL     OW19369   3.512   3.582  12.566
 6158SOL    HW119370   3.565   3.592  12.482
 6158SOL    HW219371   3.485   3.672  12.600
 6159SOL     OW19372   3.703   2.037  12.135
 6159SOL    HW119373   3.742   1.952  12.099
 6159SOL    HW219374   3.605   2.039  12.116
 6160SOL     OW19375   3.056   3.474  11.203
 6160SOL    HW119376   3.062   3.381  11.240
 6160SOL    HW219377   2.997   3.474  11.123
 6161SOL     OW19378   2.684   2.864  12.544
 6161SOL    HW119379   2.724   2.863  12.452
 6161SOL    HW219380   2.694   2.956  12.584
 6162SOL     OW19381   2.778   2.772  11.463
 6162SOL    HW119382   2.841   2.810  11.395
 6162SOL    HW219383   2.818   2.689  11.502
 6163SOL     OW19384   3.366   3.469  11.216
 6163SOL    HW119385   3.274   3.506  11.223
 6163SOL    HW219386   3.404   3.489  11.126
 6164SOL     OW19387   2.234   3.150  12.662
 6164SOL    HW119388   2.221   3.243  12.628
 6164SOL    HW219389   2.150   3.098  12.649
 6165SOL     OW19390   3.476   3.154  12.461
 6165SOL    HW119391   3.536   3.157  12.541
 6165SOL    HW219392   3.401   3.218  12.474
 6166SOL     OW19393   2.901   2.960  11.868
 6166SOL    HW119394   2.831   2.913  11.922
 6166SOL    HW219395   2.960   2.892  11.825
 6167SOL     OW19396   2.876   2.098  12.143
 6167SOL    HW119397   2.868   2.062  12.050
 6167SOL    HW219398   2.874   2.022  12.208
 6168SOL     OW19399   2.452   3.349  11.663
 6168SOL    HW119400   2.494   3.291  11.593
 6168SOL    HW219401   2.408   3.428  11.619
 6169SOL     OW19402   3.571   2.247  12.553
 6169SOL    HW119403   3.644   2.316  12.557
 6169SOL    HW219404   3.599   2.172  12.494
 6170SOL     OW19405   2.117   3.210  11.462
 6170SOL    HW119406   2.021   3.211  11.435
 6170SOL    HW219407   2.129   3.263  11.546
 6171SOL     OW19408   1.967   2.875  12.898
 6171SOL    HW119409   1.890   2.842  12.952
 6171SOL    HW219410   2.052   2.845  12.940
 6172SOL     OW19411   2.534   2.065  12.661
 6172SOL    HW119412   2.624   2.049  12.621
 6172SOL    HW219413   2.542   2.070  12.760
 6173SOL     OW19414   1.937   2.207  11.205
 6173SOL    HW119415   1.845   2.179  11.176
 6173SOL    HW219416   1.968   2.284  11.149
 6174SOL     OW19417   3.302   2.718  12.570
 6174SOL    HW119418   3.245   2.770  12.507
 6174SOL    HW219419   3.398   2.730  12.546
 6175SOL     OW19420   3.045   3.197  11.291
 6175SOL    HW119421   2.946   3.186  11.293
 6175SOL    HW219422   3.079   3.212  11.384
 6176SOL     OW19423   2.475   2.704  12.603
 6176SOL    HW119424   2.531   2.785  12.586
 6176SOL    HW219425   2.534   2.624  12.606
 6177SOL     OW19426   3.355   3.629  12.131
 6177SOL    HW119427   3.388   3.693  12.062
 6177SOL    HW219428   3.421   3.623  12.206
 6178SOL     OW19429   2.578   2.427  12.880
 6178SOL    HW119430   2.597   2.492  12.954
 6178SOL    HW219431   2.638   2.347  12.889
 6179SOL     OW19432   3.312   3.082  12.805
 6179SOL    HW119433   3.303   3.072  12.904
 6179SOL    HW219434   3.408   3.075  12.779
 6180SOL     OW19435   2.252   3.603  12.732
 6180SOL    HW119436   2.161   3.644  12.730
 6180SOL    HW219437   2.245   3.509  12.764
 6181SOL     OW19438   3.536   2.745  12.426
 6181SOL    HW119439   3.509   2.656  12.389
 6181SOL    HW219440   3.537   2.813  12.353
 6182SOL     OW19441   3.087   2.187  11.621
 6182SOL    HW119442   3.152   2.113  11.610
 6182SOL    HW219443   3.107   2.237  11.705
 6183SOL     OW19444   2.456   2.607  11.824
 6183SOL    HW119445   2.506   2.692  11.805
 6183SOL    HW219446   2.368   2.609  11.776
 6184SOL     OW19447   3.639   2.204  12.814
 6184SOL    HW119448   3.622   2.235  12.720
 6184SOL    HW219449   3.555   2.167  12.852
 6185SOL     OW19450   3.592   2.796  12.689
 6185SOL    HW119451   3.630   2.887  12.704
 6185SOL    HW219452   3.584   2.779  12.590
 6186SOL     OW19453   2.721   3.236  11.188
 6186SOL    HW119454   2.675   3.251  11.276
 6186SOL    HW219455   2.765   3.321  11.158
 6187SOL     OW19456   2.523   3.652  12.125
 6187SOL    HW119457   2.477   3.740  12.112
 6187SOL    HW219458   2.622   3.664  12.118
 6188SOL     OW19459   2.721   2.818  12.033
 6188SOL    HW119460   2.775   2.749  12.081
 6188SOL    HW219461   2.689   2.887  12.099
 6189SOL     OW19462   2.945   2.846  11.259
 6189SOL    HW119463   2.922   2.899  11.177
 6189SOL    HW219464   3.026   2.790  11.240
 6190SOL     OW19465   3.723   3.431  12.023
 6190SOL    HW119466   3.652   3.419  11.953
 6190SOL    HW219467   3.724   3.352  12.083
 6191SOL     OW19468   2.083   3.176  13.016
 6191SOL    HW119469   2.018   3.103  12.995
 6191SOL    HW219470   2.087   3.190  13.114
 6192SOL     OW19471   1.941   3.102  11.825
 6192SOL    HW119472   1.940   3.055  11.913
 6192SOL    HW219473   2.023   3.074  11.774
 6193SOL     OW19474   2.534   3.253  12.796
 6193SOL    HW119475   2.456   3.203  12.834
 6193SOL    HW219476   2.531   3.348  12.827
 6194SOL     OW19477   3.686   2.054  12.399
 6194SOL    HW119478   3.682   1.964  12.443
 6194SOL    HW219479   3.689   2.043  12.300
 6195SOL     OW19480   3.567   3.349  12.276
 6195SOL    HW119481   3.474   3.324  12.249
 6195SOL    HW219482   3.593   3.299  12.358
 6196SOL     OW19483   2.179   2.409  12.452
 6196SOL    HW119484   2.217   2.350  12.524
 6196SOL    HW219485   2.219   2.383  12.364
 6197SOL     OW19486   2.674   3.448  11.859
 6197SOL    HW119487   2.706   3.458  11.765
 6197SOL    HW219488   2.595   3.386  11.861
 6198SOL     OW19489   3.286   2.076  12.284
 6198SOL    HW119490   3.338   2.011  12.339
 6198SOL    HW219491   3.237   2.139  12.345
 6199SOL     OW19492   2.863   1.896  12.326
 6199SOL    HW119493   2.800   1.824  12.295
 6199SOL    HW219494   2.956   1.860  12.326
 6200SOL     OW19495   2.632   3.192  11.473
 6200SOL    HW119496   2.586   3.105  11.490
 6200SOL    HW219497   2.723   3.189  11.514
 6201SOL     OW19498   2.480   3.429  12.456
 6201SOL    HW119499   2.475   3.511  12.513
 6201SOL    HW219500   2.569   3.426  12.411
 6202SOL     OW19501   3.214   1.914  11.340
 6202SOL    HW119502   3.249   1.873  11.256
 6202SOL    HW219503   3.124   1.876  11.360
 6203SOL     OW19504   3.162   2.315  11.863
 6203SOL    HW119505   3.103   2.395  11.867
 6203SOL    HW219506   3.177   2.280  11.956
 6204SOL     OW19507   3.455   2.083  12.054
 6204SOL    HW119508   3.371   2.082  12.108
 6204SOL    HW219509   3.457   2.166  11.998
 6205SOL     OW19510   1.901   2.939  11.472
 6205SOL    HW119511   2.000   2.928  11.463
 6205SOL    HW219512   1.861   2.853  11.504
 6206SOL     OW19513   2.737   3.508  11.509
 6206SOL    HW119514   2.660   3.473  11.455
 6206SOL    HW219515   2.705   3.579  11.571
 6207SOL     OW19516   2.092   2.490  13.147
 6207SOL    HW119517   1.999   2.488  13.184
 6207SOL    HW219518   2.093   2.451  13.055
 6208SOL     OW19519   1.881   2.230  13.681
 6208SOL    HW119520   1.799   2.273  13.720
 6208SOL    HW219521   1.853   2.157  13.618
 6209SOL     OW19522   3.417   3.373  13.737
 6209SOL    HW119523   3.360   3.357  13.818
 6209SOL    HW219524   3.358   3.383  13.657
 6210SOL     OW19525   2.997   2.565  13.751
 6210SOL    HW119526   3.054   2.643  13.726
 6210SOL    HW219527   2.937   2.591  13.827
 6211SOL     OW19528   3.617   2.469  13.265
 6211SOL    HW119529   3.605   2.456  13.166
 6211SOL    HW219530   3.587   2.388  13.314
 6212SOL     OW19531   2.547   2.874  13.699
 6212SOL    HW119532   2.616   2.858  13.769
 6212SOL    HW219533   2.474   2.931  13.737
 6213SOL     OW19534   3.465   2.309  13.771
 6213SOL    HW119535   3.391   2.355  13.721
 6213SOL    HW219536   3.516   2.377  13.824
 6214SOL     OW19537   2.093   3.575  13.517
 6214SOL    HW119538   2.127   3.652  13.571
 6214SOL    HW219539   2.137   3.575  13.427
 6215SOL     OW19540   2.092   3.296  13.572
 6215SOL    HW119541   2.066   3.392  13.572
 6215SOL    HW219542   2.021   3.242  13.617
 6216SOL     OW19543   2.102   2.953  13.920
 6216SOL    HW119544   2.116   2.869  13.972
 6216SOL    HW219545   2.047   3.017  13.975
 6217SOL     OW19546   2.468   2.826  13.157
 6217SOL    HW119547   2.475   2.910  13.103
 6217SOL    HW219548   2.514   2.839  13.245
 6218SOL     OW19549   1.984   2.505  13.597
 6218SOL    HW119550   1.939   2.417  13.614
 6218SOL    HW219551   1.983   2.559  13.681
 6219SOL     OW19552   3.704   3.629  13.393
 6219SOL    HW119553   3.758   3.600  13.473
 6219SOL    HW219554   3.734   3.719  13.364
 6220SOL     OW19555   1.889   3.458  13.151
 6220SOL    HW119556   1.870   3.362  13.172
 6220SOL    HW219557   1.856   3.516  13.226
 6221SOL     OW19558   3.551   2.784  13.646
 6221SOL    HW119559   3.646   2.755  13.654
 6221SOL    HW219560   3.543   2.849  13.571
 6222SOL     OW19561   3.503   2.970  13.466
 6222SOL    HW119562   3.589   2.972  13.414
 6222SOL    HW219563   3.517   3.017  13.554
 6223SOL     OW19564   2.475   3.227  13.760
 6223SOL    HW119565   2.426   3.140  13.769
 6223SOL    HW219566   2.452   3.270  13.673
 6224SOL     OW19567   2.671   1.866  13.536
 6224SOL    HW119568   2.711   1.957  13.527
 6224SOL    HW219569   2.571   1.874  13.542
 6225SOL     OW19570   3.387   2.861  13.224
 6225SOL    HW119571   3.324   2.785  13.237
 6225SOL    HW219572   3.435   2.879  13.310
 6226SOL     OW19573   3.529   3.576  13.606
 6226SOL    HW119574   3.488   3.553  13.518
 6226SOL    HW219575   3.511   3.502  13.671
 6227SOL     OW19576   2.460   2.591  13.304
 6227SOL    HW119577   2.484   2.660  13.236
 6227SOL    HW219578   2.382   2.624  13.358
 6228SOL     OW19579   3.143   2.207  13.978
 6228SOL    HW119580   3.057   2.157  13.965
 6228SOL    HW219581   3.205   2.153  14.034
 6229SOL     OW19582   3.438   3.524  13.341
 6229SOL    HW119583   3.527   3.570  13.344
 6229SOL    HW219584   3.417   3.500  13.246
 6230SOL     OW19585   2.903   2.563  13.463
 6230SOL    HW119586   2.929   2.559  13.559
 6230SOL    HW219587   2.818   2.512  13.449
 6231SOL     OW19588   1.938   2.673  13.823
 6231SOL    HW119589   2.037   2.661  13.832
 6231SOL    HW219590   1.914   2.768  13.844
 6232SOL     OW19591   2.727   2.210  13.229
 6232SOL    HW119592   2.786   2.273  13.180
 6232SOL    HW219593   2.746   2.116  13.200
 6233SOL     OW19594   3.224   3.006  13.579
 6233SOL    HW119595   3.307   2.977  13.531
 6233SOL    HW219596   3.175   3.073  13.523
 6234SOL     OW19597   2.870   3.318  13.511
 6234SOL    HW119598   2.824   3.390  13.459
 6234SOL    HW219599   2.866   3.338  13.609
 6235SOL     OW19600   2.213   3.663  13.887
 6235SOL    HW119601   2.263   3.577  13.893
 6235SOL    HW219602   2.278   3.740  13.884
 6236SOL     OW19603   3.657   2.928  13.907
 6236SOL    HW119604   3.595   2.913  13.831
 6236SOL    HW219605   3.605   2.939  13.992
 6237SOL     OW19606   2.183   2.805  13.276
 6237SOL    HW119607   2.265   2.844  13.234
 6237SOL    HW219608   2.156   2.723  13.227
 6238SOL     OW19609   3.320   2.597  13.762
 6238SOL    HW119610   3.315   2.532  13.837
 6238SOL    HW219611   3.400   2.656  13.775
 6239SOL     OW19612   2.973   3.638  13.271
 6239SOL    HW119613   2.913   3.576  13.321
 6239SOL    HW219614   3.004   3.594  13.186
 6240SOL     OW19615   3.494   3.239  13.115
 6240SOL    HW119616   3.462   3.333  13.105
 6240SOL    HW219617   3.418   3.176  13.103
 6241SOL     OW19618   2.326   3.605  13.357
 6241SOL    HW119619   2.359   3.644  13.443
 6241SOL    HW219620   2.402   3.598  13.292
 6242SOL     OW19621   3.262   1.969  13.460
 6242SOL    HW119622   3.238   1.932  13.370
 6242SOL    HW219623   3.361   1.985  13.464
 6243SOL     OW19624   2.802   3.560  13.938
 6243SOL    HW119625   2.882   3.503  13.959
 6243SOL    HW219626   2.753   3.520  13.861
 6244SOL     OW19627   2.244   2.562  13.514
 6244SOL    HW119628   2.289   2.472  13.511
 6244SOL    HW219629   2.150   2.551  13.547
 6245SOL     OW19630   2.476   1.984  13.151
 6245SOL    HW119631   2.574   1.962  13.158
 6245SOL    HW219632   2.445   1.967  13.058
 6246SOL     OW19633   2.401   1.926  13.546
 6246SOL    HW119634   2.320   1.927  13.604
 6246SOL    HW219635   2.404   2.009  13.491
 6247SOL     OW19636   3.296   3.050  13.075
 6247SOL    HW119637   3.328   2.974  13.132
 6247SOL    HW219638   3.204   3.077  13.105
 6248SOL     OW19639   2.797   2.098  13.514
 6248SOL    HW119640   2.749   2.139  13.436
 6248SOL    HW219641   2.896   2.096  13.495
 6249SOL     OW19642   2.321   3.014  13.775
 6249SOL    HW119643   2.250   2.987  13.840
 6249SOL    HW219644   2.295   2.986  13.682
 6250SOL     OW19645   3.133   3.659  13.625
 6250SOL    HW119646   3.177   3.723  13.561
 6250SOL    HW219647   3.083   3.711  13.695
 6251SOL     OW19648   2.894   2.411  13.050
 6251SOL    HW119649   2.853   2.493  13.011
 6251SOL    HW219650   2.958   2.437  13.123
 6252SOL     OW19651   2.728   2.316  13.676
 6252SOL    HW119652   2.696   2.388  13.614
 6252SOL    HW219653   2.752   2.235  13.623
 6253SOL     OW19654   2.879   1.901  13.787
 6253SOL    HW119655   2.807   1.906  13.718
 6253SOL    HW219656   2.855   1.832  13.856
 6254SOL     OW19657   3.719   2.695  13.411
 6254SOL    HW119658   3.761   2.631  13.475
 6254SOL    HW219659   3.681   2.644  13.333
 6255SOL     OW19660   2.350   3.247  13.208
 6255SOL    HW119661   2.263   3.232  13.255
 6255SOL    HW219662   2.333   3.273  13.113
 6256SOL     OW19663   3.526   3.142  13.691
 6256SOL    HW119664   3.625   3.150  13.705
 6256SOL    HW219665   3.481   3.226  13.722
 6257SOL     OW19666   3.252   2.437  13.112
 6257SOL    HW119667   3.198   2.416  13.193
 6257SOL    HW219668   3.343   2.396  13.121
 6258SOL     OW19669   2.567   2.912  13.402
 6258SOL    HW119670   2.553   2.919  13.501
 6258SOL    HW219671   2.651   2.861  13.384
 6259SOL     OW19672   2.229   2.962  13.535
 6259SOL    HW119673   2.222   3.045  13.479
 6259SOL    HW219674   2.233   2.882  13.475
 6260SOL     OW19675   2.428   2.399  13.899
 6260SOL    HW119676   2.440   2.465  13.825
 6260SOL    HW219677   2.474   2.433  13.982
 6261SOL     OW19678   3.114   3.210  13.422
 6261SOL    HW119679   3.164   3.287  13.462
 6261SOL    HW219680   3.019   3.212  13.454
 6262SOL     OW19681   3.444   2.501  13.506
 6262SOL    HW119682   3.413   2.562  13.579
 6262SOL    HW219683   3.494   2.553  13.437
 6263SOL     OW19684   3.071   2.387  13.309
 6263SOL    HW119685   3.084   2.303  13.363
 6263SOL    HW219686   3.042   2.461  13.369
 6264SOL     OW19687   3.484   2.229  13.408
 6264SOL    HW119688   3.486   2.153  13.472
 6264SOL    HW219689   3.436   2.306  13.448
 6265SOL     OW19690   3.402   2.136  13.159
 6265SOL    HW119691   3.341   2.061  13.182
 6265SOL    HW219692   3.424   2.188  13.242
 6266SOL     OW19693   3.165   2.700  13.076
 6266SOL    HW119694   3.199   2.607  13.091
 6266SOL    HW219695   3.183   2.727  12.981
 6267SOL     OW19696   1.870   3.188  13.234
 6267SOL    HW119697   1.777   3.209  13.203
 6267SOL    HW219698   1.880   3.089  13.247
 6268SOL     OW19699   2.677   2.434  13.359
 6268SOL    HW119700   2.684   2.345  13.313
 6268SOL    HW219701   2.583   2.468  13.351
 6269SOL     OW19702   2.335   2.362  13.225
 6269SOL    HW119703   2.396   2.442  13.229
 6269SOL    HW219704   2.240   2.393  13.232
 6270SOL     OW19705   3.164   2.717  13.343
 6270SOL    HW119706   3.078   2.686  13.385
 6270SOL    HW219707   3.160   2.703  13.244
 6271SOL     OW19708   3.588   1.997  13.557
 6271SOL    HW119709   3.661   1.980  13.490
 6271SOL    HW219710   3.557   1.910  13.595
 6272SOL     OW19711   3.250   3.435  13.511
 6272SOL    HW119712   3.317   3.447  13.437
 6272SOL    HW219713   3.210   3.524  13.534
 6273SOL     OW19714   3.142   2.789  13.706
 6273SOL    HW119715   3.202   2.708  13.708
 6273SOL    HW219716   3.182   2.858  13.646
 6274SOL     OW19717   2.534   3.478  13.188
 6274SOL    HW119718   2.543   3.488  13.089
 6274SOL    HW219719   2.494   3.389  13.209
 6275SOL     OW19720   3.703   2.037  13.997
 6275SOL    HW119721   3.742   1.952  13.961
 6275SOL    HW219722   3.605   2.039  13.978
 6276SOL     OW19723   3.056   3.474  13.065
 6276SOL    HW119724   3.062   3.381  13.102
 6276SOL    HW219725   2.997   3.474  12.985
 6277SOL     OW19726   2.778   2.772  13.325
 6277SOL    HW119727   2.841   2.810  13.257
 6277SOL    HW219728   2.818   2.689  13.364
 6278SOL     OW19729   3.366   3.469  13.078
 6278SOL    HW119730   3.274   3.506  13.085
 6278SOL    HW219731   3.404   3.489  12.988
 6279SOL     OW19732   2.901   2.960  13.730
 6279SOL    HW119733   2.831   2.913  13.784
 6279SOL    HW219734   2.960   2.892  13.687
 6280SOL     OW19735   2.452   3.349  13.525
 6280SOL    HW119736   2.494   3.291  13.455
 6280SOL    HW219737   2.408   3.428  13.481
 6281SOL     OW19738   2.117   3.210  13.324
 6281SOL    HW119739   2.021   3.211  13.297
 6281SOL    HW219740   2.129   3.263  13.408
 6282SOL     OW19741   3.045   3.197  13.153
 6282SOL    HW119742   2.946   3.186  13.155
 6282SOL    HW219743   3.079   3.212  13.246
 6283SOL     OW19744   3.087   2.187  13.483
 6283SOL    HW119745   3.152   2.113  13.472
 6283SOL    HW219746   3.107   2.237  13.567
 6284SOL     OW19747   2.456   2.607  13.686
 6284SOL    HW119748   2.506   2.692  13.667
 6284SOL    HW219749   2.368   2.609  13.638
 6285SOL     OW19750   2.721   3.236  13.050
 6285SOL    HW119751   2.675   3.251  13.138
 6285SOL    HW219752   2.765   3.321  13.020
 6286SOL     OW19753   2.523   3.652  13.987
 6286SOL    HW119754   2.477   3.740  13.974
 6286SOL    HW219755   2.622   3.664  13.980
 6287SOL     OW19756   2.721   2.818  13.895
 6287SOL    HW119757   2.775   2.749  13.943
 6287SOL    HW219758   2.689   2.887  13.961
 6288SOL     OW19759   2.945   2.846  13.121
 6288SOL    HW119760   2.922   2.899  13.039
 6288SOL    HW219761   3.026   2.790  13.102
 6289SOL     OW19762   1.941   3.102  13.687
 6289SOL    HW119763   1.940   3.055  13.775
 6289SOL    HW219764   2.023   3.074  13.636
 6290SOL     OW19765   3.567   3.349  14.138
 6290SOL    HW119766   3.474   3.324  14.111
 6290SOL    HW219767   3.593   3.299  14.220
 6291SOL     OW19768   2.674   3.448  13.721
 6291SOL    HW119769   2.706   3.458  13.627
 6291SOL    HW219770   2.595   3.386  13.723
 6292SOL     OW19771   2.632   3.192  13.335
 6292SOL    HW119772   2.586   3.105  13.352
 6292SOL    HW219773   2.723   3.189  13.376
 6293SOL     OW19774   3.214   1.914  13.202
 6293SOL    HW119775   3.249   1.873  13.118
 6293SOL    HW219776   3.124   1.876  13.222
 6294SOL     OW19777   3.162   2.315  13.725
 6294SOL    HW119778   3.103   2.395  13.729
 6294SOL    HW219779   3.177   2.280  13.818
 6295SOL     OW19780   1.901   2.939  13.334
 6295SOL    HW119781   2.000   2.928  13.325
 6295SOL    HW219782   1.861   2.853  13.366
 6296SOL     OW19783   2.737   3.508  13.371
 6296SOL    HW119784   2.660   3.473  13.317
 6296SOL    HW219785   2.705   3.579  13.433
 6297SOL     OW19786   2.087   3.999   0.996
 6297SOL    HW119787   2.122   3.982   1.088
 6297SOL    HW219788   1.999   3.954   0.984
 6298SOL     OW19789   1.881   4.092   0.647
 6298SOL    HW119790   1.799   4.135   0.686
 6298SOL    HW219791   1.853   4.019   0.584
 6299SOL     OW19792   3.617   4.331   0.231
 6299SOL    HW119793   3.605   4.318   0.132
 6299SOL    HW219794   3.587   4.250   0.280
 6300SOL     OW19795   2.300   4.116   1.499
 6300SOL    HW119796   2.382   4.060   1.508
 6300SOL    HW219797   2.219   4.058   1.503
 6301SOL     OW19798   3.456   3.838   1.480
 6301SOL    HW119799   3.438   3.905   1.408
 6301SOL    HW219800   3.453   3.884   1.569
 6302SOL     OW19801   2.671   3.728   0.502
 6302SOL    HW119802   2.711   3.819   0.493
 6302SOL    HW219803   2.571   3.736   0.508
 6303SOL     OW19804   3.143   4.069   0.944
 6303SOL    HW119805   3.057   4.019   0.931
 6303SOL    HW219806   3.205   4.015   1.000
 6304SOL     OW19807   2.412   3.920   0.885
 6304SOL    HW119808   2.407   3.915   0.985
 6304SOL    HW219809   2.414   4.016   0.856
 6305SOL     OW19810   2.064   4.009   1.498
 6305SOL    HW119811   1.984   4.069   1.485
 6305SOL    HW219812   2.054   3.960   1.584
 6306SOL     OW19813   3.262   3.831   0.426
 6306SOL    HW119814   3.238   3.794   0.336
 6306SOL    HW219815   3.361   3.847   0.430
 6307SOL     OW19816   3.409   3.946   1.729
 6307SOL    HW119817   3.404   3.983   1.821
 6307SOL    HW219818   3.337   3.877   1.717
 6308SOL     OW19819   2.643   3.988   1.749
 6308SOL    HW119820   2.710   3.927   1.792
 6308SOL    HW219821   2.570   4.007   1.814
 6309SOL     OW19822   2.401   3.788   0.512
 6309SOL    HW119823   2.320   3.789   0.570
 6309SOL    HW219824   2.404   3.871   0.457
 6310SOL     OW19825   2.159   3.759   0.171
 6310SOL    HW119826   2.208   3.843   0.150
 6310SOL    HW219827   2.221   3.694   0.216
 6311SOL     OW19828   2.423   3.946   1.147
 6311SOL    HW119829   2.461   3.862   1.184
 6311SOL    HW219830   2.335   3.965   1.191
 6312SOL     OW19831   2.879   3.763   0.753
 6312SOL    HW119832   2.807   3.768   0.684
 6312SOL    HW219833   2.855   3.694   0.822
 6313SOL     OW19834   2.777   3.813   1.402
 6313SOL    HW119835   2.802   3.793   1.307
 6313SOL    HW219836   2.849   3.869   1.444
 6314SOL     OW19837   3.136   4.110   1.262
 6314SOL    HW119838   3.157   4.184   1.326
 6314SOL    HW219839   3.047   4.127   1.219
 6315SOL     OW19840   2.366   3.774   1.740
 6315SOL    HW119841   2.324   3.717   1.670
 6315SOL    HW219842   2.300   3.843   1.772
 6316SOL     OW19843   2.169   3.937   1.231
 6316SOL    HW119844   2.146   3.974   1.321
 6316SOL    HW219845   2.139   3.842   1.225
 6317SOL     OW19846   3.402   3.998   0.125
 6317SOL    HW119847   3.341   3.923   0.148
 6317SOL    HW219848   3.424   4.050   0.208
 6318SOL     OW19849   3.022   3.931   1.477
 6318SOL    HW119850   3.022   3.995   1.554
 6318SOL    HW219851   3.050   3.979   1.394
 6319SOL     OW19852   2.765   3.810   0.133
 6319SOL    HW119853   2.816   3.811   0.047
 6319SOL    HW219854   2.821   3.768   0.204
 6320SOL     OW19855   3.588   3.859   0.523
 6320SOL    HW119856   3.661   3.842   0.456
 6320SOL    HW219857   3.557   3.772   0.561
 6321SOL     OW19858   3.703   3.899   0.963
 6321SOL    HW119859   3.742   3.814   0.927
 6321SOL    HW219860   3.605   3.901   0.944
 6322SOL     OW19861   2.534   3.927   1.489
 6322SOL    HW119862   2.624   3.911   1.449
 6322SOL    HW219863   2.542   3.932   1.588
 6323SOL     OW19864   1.934   3.890   0.318
 6323SOL    HW119865   1.917   3.973   0.264
 6323SOL    HW219866   2.024   3.853   0.296
 6324SOL     OW19867   3.087   4.049   0.449
 6324SOL    HW119868   3.152   3.975   0.438
 6324SOL    HW219869   3.107   4.099   0.533
 6325SOL     OW19870   3.639   4.066   1.642
 6325SOL    HW119871   3.622   4.097   1.548
 6325SOL    HW219872   3.555   4.029   1.680
 6326SOL     OW19873   3.686   3.916   1.227
 6326SOL    HW119874   3.682   3.826   1.271
 6326SOL    HW219875   3.689   3.905   1.128
 6327SOL     OW19876   3.286   3.938   1.112
 6327SOL    HW119877   3.338   3.873   1.167
 6327SOL    HW219878   3.237   4.001   1.173
 6328SOL     OW19879   2.863   3.758   1.154
 6328SOL    HW119880   2.800   3.686   1.123
 6328SOL    HW219881   2.956   3.722   1.154
 6329SOL     OW19882   3.214   3.776   0.168
 6329SOL    HW119883   3.249   3.735   0.084
 6329SOL    HW219884   3.124   3.738   0.188
 6330SOL     OW19885   3.162   4.177   0.691
 6330SOL    HW119886   3.103   4.257   0.695
 6330SOL    HW219887   3.177   4.142   0.784
 6331SOL     OW19888   3.455   3.945   0.882
 6331SOL    HW119889   3.371   3.944   0.936
 6331SOL    HW219890   3.457   4.028   0.826
 6332SOL     OW19891   2.087   3.999   2.858
 6332SOL    HW119892   2.122   3.982   2.950
 6332SOL    HW219893   1.999   3.954   2.846
 6333SOL     OW19894   1.881   4.092   2.509
 6333SOL    HW119895   1.799   4.135   2.548
 6333SOL    HW219896   1.853   4.019   2.446
 6334SOL     OW19897   3.617   4.331   2.093
 6334SOL    HW119898   3.605   4.318   1.994
 6334SOL    HW219899   3.587   4.250   2.142
 6335SOL     OW19900   2.300   4.116   3.361
 6335SOL    HW119901   2.382   4.060   3.370
 6335SOL    HW219902   2.219   4.058   3.365
 6336SOL     OW19903   3.456   3.838   3.342
 6336SOL    HW119904   3.438   3.905   3.270
 6336SOL    HW219905   3.453   3.884   3.431
 6337SOL     OW19906   2.671   3.728   2.364
 6337SOL    HW119907   2.711   3.819   2.355
 6337SOL    HW219908   2.571   3.736   2.370
 6338SOL     OW19909   3.143   4.069   2.806
 6338SOL    HW119910   3.057   4.019   2.793
 6338SOL    HW219911   3.205   4.015   2.862
 6339SOL     OW19912   2.412   3.920   2.747
 6339SOL    HW119913   2.407   3.915   2.847
 6339SOL    HW219914   2.414   4.016   2.718
 6340SOL     OW19915   2.064   4.009   3.360
 6340SOL    HW119916   1.984   4.069   3.347
 6340SOL    HW219917   2.054   3.960   3.446
 6341SOL     OW19918   3.262   3.831   2.288
 6341SOL    HW119919   3.238   3.794   2.198
 6341SOL    HW219920   3.361   3.847   2.292
 6342SOL     OW19921   3.409   3.946   3.591
 6342SOL    HW119922   3.404   3.983   3.683
 6342SOL    HW219923   3.337   3.877   3.579
 6343SOL     OW19924   2.476   3.846   1.979
 6343SOL    HW119925   2.574   3.824   1.986
 6343SOL    HW219926   2.445   3.829   1.886
 6344SOL     OW19927   2.643   3.988   3.611
 6344SOL    HW119928   2.710   3.927   3.654
 6344SOL    HW219929   2.570   4.007   3.676
 6345SOL     OW19930   2.401   3.788   2.374
 6345SOL    HW119931   2.320   3.789   2.432
 6345SOL    HW219932   2.404   3.871   2.319
 6346SOL     OW19933   2.159   3.759   2.033
 6346SOL    HW119934   2.208   3.843   2.012
 6346SOL    HW219935   2.221   3.694   2.078
 6347SOL     OW19936   2.423   3.946   3.009
 6347SOL    HW119937   2.461   3.862   3.046
 6347SOL    HW219938   2.335   3.965   3.053
 6348SOL     OW19939   2.879   3.763   2.615
 6348SOL    HW119940   2.807   3.768   2.546
 6348SOL    HW219941   2.855   3.694   2.684
 6349SOL     OW19942   2.777   3.813   3.264
 6349SOL    HW119943   2.802   3.793   3.169
 6349SOL    HW219944   2.849   3.869   3.306
 6350SOL     OW19945   3.136   4.110   3.124
 6350SOL    HW119946   3.157   4.184   3.188
 6350SOL    HW219947   3.047   4.127   3.081
 6351SOL     OW19948   2.366   3.774   3.602
 6351SOL    HW119949   2.324   3.717   3.532
 6351SOL    HW219950   2.300   3.843   3.634
 6352SOL     OW19951   2.169   3.937   3.093
 6352SOL    HW119952   2.146   3.974   3.183
 6352SOL    HW219953   2.139   3.842   3.087
 6353SOL     OW19954   3.402   3.998   1.987
 6353SOL    HW119955   3.341   3.923   2.010
 6353SOL    HW219956   3.424   4.050   2.070
 6354SOL     OW19957   3.022   3.931   3.339
 6354SOL    HW119958   3.022   3.995   3.416
 6354SOL    HW219959   3.050   3.979   3.256
 6355SOL     OW19960   2.765   3.810   1.995
 6355SOL    HW119961   2.816   3.811   1.909
 6355SOL    HW219962   2.821   3.768   2.066
 6356SOL     OW19963   3.588   3.859   2.385
 6356SOL    HW119964   3.661   3.842   2.318
 6356SOL    HW219965   3.557   3.772   2.423
 6357SOL     OW19966   3.703   3.899   2.825
 6357SOL    HW119967   3.742   3.814   2.789
 6357SOL    HW219968   3.605   3.901   2.806
 6358SOL     OW19969   2.534   3.927   3.351
 6358SOL    HW119970   2.624   3.911   3.311
 6358SOL    HW219971   2.542   3.932   3.450
 6359SOL     OW19972   1.937   4.069   1.895
 6359SOL    HW119973   1.845   4.041   1.866
 6359SOL    HW219974   1.968   4.146   1.839
 6360SOL     OW19975   1.934   3.890   2.180
 6360SOL    HW119976   1.917   3.973   2.126
 6360SOL    HW219977   2.024   3.853   2.158
 6361SOL     OW19978   3.087   4.049   2.311
 6361SOL    HW119979   3.152   3.975   2.300
 6361SOL    HW219980   3.107   4.099   2.395
 6362SOL     OW19981   3.639   4.066   3.504
 6362SOL    HW119982   3.622   4.097   3.410
 6362SOL    HW219983   3.555   4.029   3.542
 6363SOL     OW19984   3.686   3.916   3.089
 6363SOL    HW119985   3.682   3.826   3.133
 6363SOL    HW219986   3.689   3.905   2.990
 6364SOL     OW19987   3.286   3.938   2.974
 6364SOL    HW119988   3.338   3.873   3.029
 6364SOL    HW219989   3.237   4.001   3.035
 6365SOL     OW19990   2.863   3.758   3.016
 6365SOL    HW119991   2.800   3.686   2.985
 6365SOL    HW219992   2.956   3.722   3.016
 6366SOL     OW19993   3.214   3.776   2.030
 6366SOL    HW119994   3.249   3.735   1.946
 6366SOL    HW219995   3.124   3.738   2.050
 6367SOL     OW19996   3.162   4.177   2.553
 6367SOL    HW119997   3.103   4.257   2.557
 6367SOL    HW219998   3.177   4.142   2.646
 6368SOL     OW19999   3.455   3.945   2.744
 6368SOL    HW120000   3.371   3.944   2.798
 6368SOL    HW220001   3.457   4.028   2.688
 6369SOL     OW20002   2.087   3.999   4.720
 6369SOL    HW120003   2.122   3.982   4.812
 6369SOL    HW220004   1.999   3.954   4.708
 6370SOL     OW20005   1.881   4.092   4.371
 6370SOL    HW120006   1.799   4.135   4.410
 6370SOL    HW220007   1.853   4.019   4.308
 6371SOL     OW20008   3.617   4.331   3.955
 6371SOL    HW120009   3.605   4.318   3.856
 6371SOL    HW220010   3.587   4.250   4.004
 6372SOL     OW20011   2.300   4.116   5.223
 6372SOL    HW120012   2.382   4.060   5.232
 6372SOL    HW220013   2.219   4.058   5.227
 6373SOL     OW20014   3.456   3.838   5.204
 6373SOL    HW120015   3.438   3.905   5.132
 6373SOL    HW220016   3.453   3.884   5.293
 6374SOL     OW20017   2.671   3.728   4.226
 6374SOL    HW120018   2.711   3.819   4.217
 6374SOL    HW220019   2.571   3.736   4.232
 6375SOL     OW20020   3.143   4.069   4.668
 6375SOL    HW120021   3.057   4.019   4.655
 6375SOL    HW220022   3.205   4.015   4.724
 6376SOL     OW20023   2.412   3.920   4.609
 6376SOL    HW120024   2.407   3.915   4.709
 6376SOL    HW220025   2.414   4.016   4.580
 6377SOL     OW20026   2.064   4.009   5.222
 6377SOL    HW120027   1.984   4.069   5.209
 6377SOL    HW220028   2.054   3.960   5.308
 6378SOL     OW20029   3.262   3.831   4.150
 6378SOL    HW120030   3.238   3.794   4.060
 6378SOL    HW220031   3.361   3.847   4.154
 6379SOL     OW20032   3.409   3.946   5.453
 6379SOL    HW120033   3.404   3.983   5.545
 6379SOL    HW220034   3.337   3.877   5.441
 6380SOL     OW20035   2.476   3.846   3.841
 6380SOL    HW120036   2.574   3.824   3.848
 6380SOL    HW220037   2.445   3.829   3.748
 6381SOL     OW20038   2.643   3.988   5.473
 6381SOL    HW120039   2.710   3.927   5.516
 6381SOL    HW220040   2.570   4.007   5.538
 6382SOL     OW20041   2.401   3.788   4.236
 6382SOL    HW120042   2.320   3.789   4.294
 6382SOL    HW220043   2.404   3.871   4.181
 6383SOL     OW20044   2.159   3.759   3.895
 6383SOL    HW120045   2.208   3.843   3.874
 6383SOL    HW220046   2.221   3.694   3.940
 6384SOL     OW20047   2.423   3.946   4.871
 6384SOL    HW120048   2.461   3.862   4.908
 6384SOL    HW220049   2.335   3.965   4.915
 6385SOL     OW20050   2.879   3.763   4.477
 6385SOL    HW120051   2.807   3.768   4.408
 6385SOL    HW220052   2.855   3.694   4.546
 6386SOL     OW20053   2.777   3.813   5.126
 6386SOL    HW120054   2.802   3.793   5.031
 6386SOL    HW220055   2.849   3.869   5.168
 6387SOL     OW20056   3.136   4.110   4.986
 6387SOL    HW120057   3.157   4.184   5.050
 6387SOL    HW220058   3.047   4.127   4.943
 6388SOL     OW20059   2.366   3.774   5.464
 6388SOL    HW120060   2.324   3.717   5.394
 6388SOL    HW220061   2.300   3.843   5.496
 6389SOL     OW20062   2.169   3.937   4.955
 6389SOL    HW120063   2.146   3.974   5.045
 6389SOL    HW220064   2.139   3.842   4.949
 6390SOL     OW20065   3.402   3.998   3.849
 6390SOL    HW120066   3.341   3.923   3.872
 6390SOL    HW220067   3.424   4.050   3.932
 6391SOL     OW20068   3.022   3.931   5.201
 6391SOL    HW120069   3.022   3.995   5.278
 6391SOL    HW220070   3.050   3.979   5.118
 6392SOL     OW20071   2.765   3.810   3.857
 6392SOL    HW120072   2.816   3.811   3.771
 6392SOL    HW220073   2.821   3.768   3.928
 6393SOL     OW20074   3.588   3.859   4.247
 6393SOL    HW120075   3.661   3.842   4.180
 6393SOL    HW220076   3.557   3.772   4.285
 6394SOL     OW20077   3.703   3.899   4.687
 6394SOL    HW120078   3.742   3.814   4.651
 6394SOL    HW220079   3.605   3.901   4.668
 6395SOL     OW20080   2.534   3.927   5.213
 6395SOL    HW120081   2.624   3.911   5.173
 6395SOL    HW220082   2.542   3.932   5.312
 6396SOL     OW20083   1.937   4.069   3.757
 6396SOL    HW120084   1.845   4.041   3.728
 6396SOL    HW220085   1.968   4.146   3.701
 6397SOL     OW20086   1.934   3.890   4.042
 6397SOL    HW120087   1.917   3.973   3.988
 6397SOL    HW220088   2.024   3.853   4.020
 6398SOL     OW20089   3.087   4.049   4.173
 6398SOL    HW120090   3.152   3.975   4.162
 6398SOL    HW220091   3.107   4.099   4.257
 6399SOL     OW20092   3.639   4.066   5.366
 6399SOL    HW120093   3.622   4.097   5.272
 6399SOL    HW220094   3.555   4.029   5.404
 6400SOL     OW20095   3.686   3.916   4.951
 6400SOL    HW120096   3.682   3.826   4.995
 6400SOL    HW220097   3.689   3.905   4.852
 6401SOL     OW20098   3.286   3.938   4.836
 6401SOL    HW120099   3.338   3.873   4.891
 6401SOL    HW220100   3.237   4.001   4.897
 6402SOL     OW20101   2.863   3.758   4.878
 6402SOL    HW120102   2.800   3.686   4.847
 6402SOL    HW220103   2.956   3.722   4.878
 6403SOL     OW20104   3.214   3.776   3.892
 6403SOL    HW120105   3.249   3.735   3.808
 6403SOL    HW220106   3.124   3.738   3.912
 6404SOL     OW20107   3.162   4.177   4.415
 6404SOL    HW120108   3.103   4.257   4.419
 6404SOL    HW220109   3.177   4.142   4.508
 6405SOL     OW20110   3.455   3.945   4.606
 6405SOL    HW120111   3.371   3.944   4.660
 6405SOL    HW220112   3.457   4.028   4.550
 6406SOL     OW20113   2.087   3.999   6.582
 6406SOL    HW120114   2.122   3.982   6.674
 6406SOL    HW220115   1.999   3.954   6.570
 6407SOL     OW20116   1.881   4.092   6.233
 6407SOL    HW120117   1.799   4.135   6.272
 6407SOL    HW220118   1.853   4.019   6.170
 6408SOL     OW20119   3.617   4.331   5.817
 6408SOL    HW120120   3.605   4.318   5.718
 6408SOL    HW220121   3.587   4.250   5.866
 6409SOL     OW20122   2.300   4.116   7.085
 6409SOL    HW120123   2.382   4.060   7.094
 6409SOL    HW220124   2.219   4.058   7.089
 6410SOL     OW20125   3.456   3.838   7.066
 6410SOL    HW120126   3.438   3.905   6.994
 6410SOL    HW220127   3.453   3.884   7.155
 6411SOL     OW20128   2.671   3.728   6.088
 6411SOL    HW120129   2.711   3.819   6.079
 6411SOL    HW220130   2.571   3.736   6.094
 6412SOL     OW20131   3.143   4.069   6.530
 6412SOL    HW120132   3.057   4.019   6.517
 6412SOL    HW220133   3.205   4.015   6.586
 6413SOL     OW20134   2.412   3.920   6.471
 6413SOL    HW120135   2.407   3.915   6.571
 6413SOL    HW220136   2.414   4.016   6.442
 6414SOL     OW20137   2.064   4.009   7.084
 6414SOL    HW120138   1.984   4.069   7.071
 6414SOL    HW220139   2.054   3.960   7.170
 6415SOL     OW20140   3.262   3.831   6.012
 6415SOL    HW120141   3.238   3.794   5.922
 6415SOL    HW220142   3.361   3.847   6.016
 6416SOL     OW20143   3.409   3.946   7.315
 6416SOL    HW120144   3.404   3.983   7.407
 6416SOL    HW220145   3.337   3.877   7.303
 6417SOL     OW20146   2.476   3.846   5.703
 6417SOL    HW120147   2.574   3.824   5.710
 6417SOL    HW220148   2.445   3.829   5.610
 6418SOL     OW20149   2.643   3.988   7.335
 6418SOL    HW120150   2.710   3.927   7.378
 6418SOL    HW220151   2.570   4.007   7.400
 6419SOL     OW20152   2.401   3.788   6.098
 6419SOL    HW120153   2.320   3.789   6.156
 6419SOL    HW220154   2.404   3.871   6.043
 6420SOL     OW20155   2.159   3.759   5.757
 6420SOL    HW120156   2.208   3.843   5.736
 6420SOL    HW220157   2.221   3.694   5.802
 6421SOL     OW20158   2.423   3.946   6.733
 6421SOL    HW120159   2.461   3.862   6.770
 6421SOL    HW220160   2.335   3.965   6.777
 6422SOL     OW20161   2.879   3.763   6.339
 6422SOL    HW120162   2.807   3.768   6.270
 6422SOL    HW220163   2.855   3.694   6.408
 6423SOL     OW20164   2.777   3.813   6.988
 6423SOL    HW120165   2.802   3.793   6.893
 6423SOL    HW220166   2.849   3.869   7.030
 6424SOL     OW20167   3.136   4.110   6.848
 6424SOL    HW120168   3.157   4.184   6.912
 6424SOL    HW220169   3.047   4.127   6.805
 6425SOL     OW20170   2.366   3.774   7.326
 6425SOL    HW120171   2.324   3.717   7.256
 6425SOL    HW220172   2.300   3.843   7.358
 6426SOL     OW20173   2.169   3.937   6.817
 6426SOL    HW120174   2.146   3.974   6.907
 6426SOL    HW220175   2.139   3.842   6.811
 6427SOL     OW20176   3.402   3.998   5.711
 6427SOL    HW120177   3.341   3.923   5.734
 6427SOL    HW220178   3.424   4.050   5.794
 6428SOL     OW20179   3.022   3.931   7.063
 6428SOL    HW120180   3.022   3.995   7.140
 6428SOL    HW220181   3.050   3.979   6.980
 6429SOL     OW20182   2.765   3.810   5.719
 6429SOL    HW120183   2.816   3.811   5.633
 6429SOL    HW220184   2.821   3.768   5.790
 6430SOL     OW20185   3.588   3.859   6.109
 6430SOL    HW120186   3.661   3.842   6.042
 6430SOL    HW220187   3.557   3.772   6.147
 6431SOL     OW20188   3.703   3.899   6.549
 6431SOL    HW120189   3.742   3.814   6.513
 6431SOL    HW220190   3.605   3.901   6.530
 6432SOL     OW20191   2.534   3.927   7.075
 6432SOL    HW120192   2.624   3.911   7.035
 6432SOL    HW220193   2.542   3.932   7.174
 6433SOL     OW20194   1.937   4.069   5.619
 6433SOL    HW120195   1.845   4.041   5.590
 6433SOL    HW220196   1.968   4.146   5.563
 6434SOL     OW20197   1.934   3.890   5.904
 6434SOL    HW120198   1.917   3.973   5.850
 6434SOL    HW220199   2.024   3.853   5.882
 6435SOL     OW20200   3.087   4.049   6.035
 6435SOL    HW120201   3.152   3.975   6.024
 6435SOL    HW220202   3.107   4.099   6.119
 6436SOL     OW20203   3.639   4.066   7.228
 6436SOL    HW120204   3.622   4.097   7.134
 6436SOL    HW220205   3.555   4.029   7.266
 6437SOL     OW20206   3.686   3.916   6.813
 6437SOL    HW120207   3.682   3.826   6.857
 6437SOL    HW220208   3.689   3.905   6.714
 6438SOL     OW20209   3.286   3.938   6.698
 6438SOL    HW120210   3.338   3.873   6.753
 6438SOL    HW220211   3.237   4.001   6.759
 6439SOL     OW20212   2.863   3.758   6.740
 6439SOL    HW120213   2.800   3.686   6.709
 6439SOL    HW220214   2.956   3.722   6.740
 6440SOL     OW20215   3.214   3.776   5.754
 6440SOL    HW120216   3.249   3.735   5.670
 6440SOL    HW220217   3.124   3.738   5.774
 6441SOL     OW20218   3.162   4.177   6.277
 6441SOL    HW120219   3.103   4.257   6.281
 6441SOL    HW220220   3.177   4.142   6.370
 6442SOL     OW20221   3.455   3.945   6.468
 6442SOL    HW120222   3.371   3.944   6.522
 6442SOL    HW220223   3.457   4.028   6.412
 6443SOL     OW20224   2.087   3.999   8.444
 6443SOL    HW120225   2.122   3.982   8.536
 6443SOL    HW220226   1.999   3.954   8.432
 6444SOL     OW20227   1.881   4.092   8.095
 6444SOL    HW120228   1.799   4.135   8.134
 6444SOL    HW220229   1.853   4.019   8.032
 6445SOL     OW20230   3.617   4.331   7.679
 6445SOL    HW120231   3.605   4.318   7.580
 6445SOL    HW220232   3.587   4.250   7.728
 6446SOL     OW20233   2.300   4.116   8.947
 6446SOL    HW120234   2.382   4.060   8.956
 6446SOL    HW220235   2.219   4.058   8.951
 6447SOL     OW20236   3.456   3.838   8.928
 6447SOL    HW120237   3.438   3.905   8.856
 6447SOL    HW220238   3.453   3.884   9.017
 6448SOL     OW20239   2.671   3.728   7.950
 6448SOL    HW120240   2.711   3.819   7.941
 6448SOL    HW220241   2.571   3.736   7.956
 6449SOL     OW20242   3.143   4.069   8.392
 6449SOL    HW120243   3.057   4.019   8.379
 6449SOL    HW220244   3.205   4.015   8.448
 6450SOL     OW20245   2.412   3.920   8.333
 6450SOL    HW120246   2.407   3.915   8.433
 6450SOL    HW220247   2.414   4.016   8.304
 6451SOL     OW20248   2.064   4.009   8.946
 6451SOL    HW120249   1.984   4.069   8.933
 6451SOL    HW220250   2.054   3.960   9.032
 6452SOL     OW20251   3.262   3.831   7.874
 6452SOL    HW120252   3.238   3.794   7.784
 6452SOL    HW220253   3.361   3.847   7.878
 6453SOL     OW20254   3.409   3.946   9.177
 6453SOL    HW120255   3.404   3.983   9.269
 6453SOL    HW220256   3.337   3.877   9.165
 6454SOL     OW20257   2.476   3.846   7.565
 6454SOL    HW120258   2.574   3.824   7.572
 6454SOL    HW220259   2.445   3.829   7.472
 6455SOL     OW20260   2.643   3.988   9.197
 6455SOL    HW120261   2.710   3.927   9.240
 6455SOL    HW220262   2.570   4.007   9.262
 6456SOL     OW20263   2.401   3.788   7.960
 6456SOL    HW120264   2.320   3.789   8.018
 6456SOL    HW220265   2.404   3.871   7.905
 6457SOL     OW20266   2.159   3.759   7.619
 6457SOL    HW120267   2.208   3.843   7.598
 6457SOL    HW220268   2.221   3.694   7.664
 6458SOL     OW20269   2.423   3.946   8.595
 6458SOL    HW120270   2.461   3.862   8.632
 6458SOL    HW220271   2.335   3.965   8.639
 6459SOL     OW20272   2.879   3.763   8.201
 6459SOL    HW120273   2.807   3.768   8.132
 6459SOL    HW220274   2.855   3.694   8.270
 6460SOL     OW20275   2.777   3.813   8.850
 6460SOL    HW120276   2.802   3.793   8.755
 6460SOL    HW220277   2.849   3.869   8.892
 6461SOL     OW20278   3.136   4.110   8.710
 6461SOL    HW120279   3.157   4.184   8.774
 6461SOL    HW220280   3.047   4.127   8.667
 6462SOL     OW20281   2.366   3.774   9.188
 6462SOL    HW120282   2.324   3.717   9.118
 6462SOL    HW220283   2.300   3.843   9.220
 6463SOL     OW20284   2.169   3.937   8.679
 6463SOL    HW120285   2.146   3.974   8.769
 6463SOL    HW220286   2.139   3.842   8.673
 6464SOL     OW20287   3.402   3.998   7.573
 6464SOL    HW120288   3.341   3.923   7.596
 6464SOL    HW220289   3.424   4.050   7.656
 6465SOL     OW20290   3.022   3.931   8.925
 6465SOL    HW120291   3.022   3.995   9.002
 6465SOL    HW220292   3.050   3.979   8.842
 6466SOL     OW20293   2.765   3.810   7.581
 6466SOL    HW120294   2.816   3.811   7.495
 6466SOL    HW220295   2.821   3.768   7.652
 6467SOL     OW20296   3.588   3.859   7.971
 6467SOL    HW120297   3.661   3.842   7.904
 6467SOL    HW220298   3.557   3.772   8.009
 6468SOL     OW20299   3.703   3.899   8.411
 6468SOL    HW120300   3.742   3.814   8.375
 6468SOL    HW220301   3.605   3.901   8.392
 6469SOL     OW20302   2.534   3.927   8.937
 6469SOL    HW120303   2.624   3.911   8.897
 6469SOL    HW220304   2.542   3.932   9.036
 6470SOL     OW20305   1.937   4.069   7.481
 6470SOL    HW120306   1.845   4.041   7.452
 6470SOL    HW220307   1.968   4.146   7.425
 6471SOL     OW20308   1.934   3.890   7.766
 6471SOL    HW120309   1.917   3.973   7.712
 6471SOL    HW220310   2.024   3.853   7.744
 6472SOL     OW20311   3.087   4.049   7.897
 6472SOL    HW120312   3.152   3.975   7.886
 6472SOL    HW220313   3.107   4.099   7.981
 6473SOL     OW20314   3.639   4.066   9.090
 6473SOL    HW120315   3.622   4.097   8.996
 6473SOL    HW220316   3.555   4.029   9.128
 6474SOL     OW20317   3.686   3.916   8.675
 6474SOL    HW120318   3.682   3.826   8.719
 6474SOL    HW220319   3.689   3.905   8.576
 6475SOL     OW20320   3.286   3.938   8.560
 6475SOL    HW120321   3.338   3.873   8.615
 6475SOL    HW220322   3.237   4.001   8.621
 6476SOL     OW20323   2.863   3.758   8.602
 6476SOL    HW120324   2.800   3.686   8.571
 6476SOL    HW220325   2.956   3.722   8.602
 6477SOL     OW20326   3.214   3.776   7.616
 6477SOL    HW120327   3.249   3.735   7.532
 6477SOL    HW220328   3.124   3.738   7.636
 6478SOL     OW20329   3.162   4.177   8.139
 6478SOL    HW120330   3.103   4.257   8.143
 6478SOL    HW220331   3.177   4.142   8.232
 6479SOL     OW20332   3.455   3.945   8.330
 6479SOL    HW120333   3.371   3.944   8.384
 6479SOL    HW220334   3.457   4.028   8.274
 6480SOL     OW20335   2.087   3.999  10.306
 6480SOL    HW120336   2.122   3.982  10.398
 6480SOL    HW220337   1.999   3.954  10.294
 6481SOL     OW20338   1.881   4.092   9.957
 6481SOL    HW120339   1.799   4.135   9.996
 6481SOL    HW220340   1.853   4.019   9.894
 6482SOL     OW20341   3.617   4.331   9.541
 6482SOL    HW120342   3.605   4.318   9.442
 6482SOL    HW220343   3.587   4.250   9.590
 6483SOL     OW20344   2.300   4.116  10.809
 6483SOL    HW120345   2.382   4.060  10.818
 6483SOL    HW220346   2.219   4.058  10.813
 6484SOL     OW20347   3.456   3.838  10.790
 6484SOL    HW120348   3.438   3.905  10.718
 6484SOL    HW220349   3.453   3.884  10.879
 6485SOL     OW20350   2.671   3.728   9.812
 6485SOL    HW120351   2.711   3.819   9.803
 6485SOL    HW220352   2.571   3.736   9.818
 6486SOL     OW20353   3.143   4.069  10.254
 6486SOL    HW120354   3.057   4.019  10.241
 6486SOL    HW220355   3.205   4.015  10.310
 6487SOL     OW20356   2.412   3.920  10.195
 6487SOL    HW120357   2.407   3.915  10.295
 6487SOL    HW220358   2.414   4.016  10.166
 6488SOL     OW20359   2.064   4.009  10.808
 6488SOL    HW120360   1.984   4.069  10.795
 6488SOL    HW220361   2.054   3.960  10.894
 6489SOL     OW20362   3.262   3.831   9.736
 6489SOL    HW120363   3.238   3.794   9.646
 6489SOL    HW220364   3.361   3.847   9.740
 6490SOL     OW20365   3.409   3.946  11.039
 6490SOL    HW120366   3.404   3.983  11.131
 6490SOL    HW220367   3.337   3.877  11.027
 6491SOL     OW20368   2.476   3.846   9.427
 6491SOL    HW120369   2.574   3.824   9.434
 6491SOL    HW220370   2.445   3.829   9.334
 6492SOL     OW20371   2.643   3.988  11.059
 6492SOL    HW120372   2.710   3.927  11.102
 6492SOL    HW220373   2.570   4.007  11.124
 6493SOL     OW20374   2.401   3.788   9.822
 6493SOL    HW120375   2.320   3.789   9.880
 6493SOL    HW220376   2.404   3.871   9.767
 6494SOL     OW20377   2.159   3.759   9.481
 6494SOL    HW120378   2.208   3.843   9.460
 6494SOL    HW220379   2.221   3.694   9.526
 6495SOL     OW20380   2.423   3.946  10.457
 6495SOL    HW120381   2.461   3.862  10.494
 6495SOL    HW220382   2.335   3.965  10.501
 6496SOL     OW20383   2.879   3.763  10.063
 6496SOL    HW120384   2.807   3.768   9.994
 6496SOL    HW220385   2.855   3.694  10.132
 6497SOL     OW20386   2.777   3.813  10.712
 6497SOL    HW120387   2.802   3.793  10.617
 6497SOL    HW220388   2.849   3.869  10.754
 6498SOL     OW20389   3.136   4.110  10.572
 6498SOL    HW120390   3.157   4.184  10.636
 6498SOL    HW220391   3.047   4.127  10.529
 6499SOL     OW20392   2.366   3.774  11.050
 6499SOL    HW120393   2.324   3.717  10.980
 6499SOL    HW220394   2.300   3.843  11.082
 6500SOL     OW20395   2.169   3.937  10.541
 6500SOL    HW120396   2.146   3.974  10.631
 6500SOL    HW220397   2.139   3.842  10.535
 6501SOL     OW20398   3.402   3.998   9.435
 6501SOL    HW120399   3.341   3.923   9.458
 6501SOL    HW220400   3.424   4.050   9.518
 6502SOL     OW20401   3.022   3.931  10.787
 6502SOL    HW120402   3.022   3.995  10.864
 6502SOL    HW220403   3.050   3.979  10.704
 6503SOL     OW20404   2.765   3.810   9.443
 6503SOL    HW120405   2.816   3.811   9.357
 6503SOL    HW220406   2.821   3.768   9.514
 6504SOL     OW20407   3.588   3.859   9.833
 6504SOL    HW120408   3.661   3.842   9.766
 6504SOL    HW220409   3.557   3.772   9.871
 6505SOL     OW20410   3.703   3.899  10.273
 6505SOL    HW120411   3.742   3.814  10.237
 6505SOL    HW220412   3.605   3.901  10.254
 6506SOL     OW20413   2.534   3.927  10.799
 6506SOL    HW120414   2.624   3.911  10.759
 6506SOL    HW220415   2.542   3.932  10.898
 6507SOL     OW20416   1.937   4.069   9.343
 6507SOL    HW120417   1.845   4.041   9.314
 6507SOL    HW220418   1.968   4.146   9.287
 6508SOL     OW20419   1.934   3.890   9.628
 6508SOL    HW120420   1.917   3.973   9.574
 6508SOL    HW220421   2.024   3.853   9.606
 6509SOL     OW20422   3.087   4.049   9.759
 6509SOL    HW120423   3.152   3.975   9.748
 6509SOL    HW220424   3.107   4.099   9.843
 6510SOL     OW20425   3.639   4.066  10.952
 6510SOL    HW120426   3.622   4.097  10.858
 6510SOL    HW220427   3.555   4.029  10.990
 6511SOL     OW20428   3.686   3.916  10.537
 6511SOL    HW120429   3.682   3.826  10.581
 6511SOL    HW220430   3.689   3.905  10.438
 6512SOL     OW20431   3.286   3.938  10.422
 6512SOL    HW120432   3.338   3.873  10.477
 6512SOL    HW220433   3.237   4.001  10.483
 6513SOL     OW20434   2.863   3.758  10.464
 6513SOL    HW120435   2.800   3.686  10.433
 6513SOL    HW220436   2.956   3.722  10.464
 6514SOL     OW20437   3.214   3.776   9.478
 6514SOL    HW120438   3.249   3.735   9.394
 6514SOL    HW220439   3.124   3.738   9.498
 6515SOL     OW20440   3.162   4.177  10.001
 6515SOL    HW120441   3.103   4.257  10.005
 6515SOL    HW220442   3.177   4.142  10.094
 6516SOL     OW20443   3.455   3.945  10.192
 6516SOL    HW120444   3.371   3.944  10.246
 6516SOL    HW220445   3.457   4.028  10.136
 6517SOL     OW20446   2.087   3.999  12.168
 6517SOL    HW120447   2.122   3.982  12.260
 6517SOL    HW220448   1.999   3.954  12.156
 6518SOL     OW20449   1.881   4.092  11.819
 6518SOL    HW120450   1.799   4.135  11.858
 6518SOL    HW220451   1.853   4.019  11.756
 6519SOL     OW20452   3.617   4.331  11.403
 6519SOL    HW120453   3.605   4.318  11.304
 6519SOL    HW220454   3.587   4.250  11.452
 6520SOL     OW20455   2.300   4.116  12.671
 6520SOL    HW120456   2.382   4.060  12.680
 6520SOL    HW220457   2.219   4.058  12.675
 6521SOL     OW20458   3.456   3.838  12.652
 6521SOL    HW120459   3.438   3.905  12.580
 6521SOL    HW220460   3.453   3.884  12.741
 6522SOL     OW20461   2.671   3.728  11.674
 6522SOL    HW120462   2.711   3.819  11.665
 6522SOL    HW220463   2.571   3.736  11.680
 6523SOL     OW20464   3.143   4.069  12.116
 6523SOL    HW120465   3.057   4.019  12.103
 6523SOL    HW220466   3.205   4.015  12.172
 6524SOL     OW20467   2.412   3.920  12.057
 6524SOL    HW120468   2.407   3.915  12.157
 6524SOL    HW220469   2.414   4.016  12.028
 6525SOL     OW20470   2.064   4.009  12.670
 6525SOL    HW120471   1.984   4.069  12.657
 6525SOL    HW220472   2.054   3.960  12.756
 6526SOL     OW20473   3.262   3.831  11.598
 6526SOL    HW120474   3.238   3.794  11.508
 6526SOL    HW220475   3.361   3.847  11.602
 6527SOL     OW20476   3.409   3.946  12.901
 6527SOL    HW120477   3.404   3.983  12.993
 6527SOL    HW220478   3.337   3.877  12.889
 6528SOL     OW20479   2.476   3.846  11.289
 6528SOL    HW120480   2.574   3.824  11.296
 6528SOL    HW220481   2.445   3.829  11.196
 6529SOL     OW20482   2.643   3.988  12.921
 6529SOL    HW120483   2.710   3.927  12.964
 6529SOL    HW220484   2.570   4.007  12.986
 6530SOL     OW20485   2.401   3.788  11.684
 6530SOL    HW120486   2.320   3.789  11.742
 6530SOL    HW220487   2.404   3.871  11.629
 6531SOL     OW20488   2.159   3.759  11.343
 6531SOL    HW120489   2.208   3.843  11.322
 6531SOL    HW220490   2.221   3.694  11.388
 6532SOL     OW20491   2.423   3.946  12.319
 6532SOL    HW120492   2.461   3.862  12.356
 6532SOL    HW220493   2.335   3.965  12.363
 6533SOL     OW20494   2.879   3.763  11.925
 6533SOL    HW120495   2.807   3.768  11.856
 6533SOL    HW220496   2.855   3.694  11.994
 6534SOL     OW20497   2.777   3.813  12.574
 6534SOL    HW120498   2.802   3.793  12.479
 6534SOL    HW220499   2.849   3.869  12.616
 6535SOL     OW20500   3.136   4.110  12.434
 6535SOL    HW120501   3.157   4.184  12.498
 6535SOL    HW220502   3.047   4.127  12.391
 6536SOL     OW20503   2.366   3.774  12.912
 6536SOL    HW120504   2.324   3.717  12.842
 6536SOL    HW220505   2.300   3.843  12.944
 6537SOL     OW20506   2.169   3.937  12.403
 6537SOL    HW120507   2.146   3.974  12.493
 6537SOL    HW220508   2.139   3.842  12.397
 6538SOL     OW20509   3.402   3.998  11.297
 6538SOL    HW120510   3.341   3.923  11.320
 6538SOL    HW220511   3.424   4.050  11.380
 6539SOL     OW20512   3.022   3.931  12.649
 6539SOL    HW120513   3.022   3.995  12.726
 6539SOL    HW220514   3.050   3.979  12.566
 6540SOL     OW20515   2.765   3.810  11.305
 6540SOL    HW120516   2.816   3.811  11.219
 6540SOL    HW220517   2.821   3.768  11.376
 6541SOL     OW20518   3.588   3.859  11.695
 6541SOL    HW120519   3.661   3.842  11.628
 6541SOL    HW220520   3.557   3.772  11.733
 6542SOL     OW20521   3.703   3.899  12.135
 6542SOL    HW120522   3.742   3.814  12.099
 6542SOL    HW220523   3.605   3.901  12.116
 6543SOL     OW20524   2.534   3.927  12.661
 6543SOL    HW120525   2.624   3.911  12.621
 6543SOL    HW220526   2.542   3.932  12.760
 6544SOL     OW20527   1.937   4.069  11.205
 6544SOL    HW120528   1.845   4.041  11.176
 6544SOL    HW220529   1.968   4.146  11.149
 6545SOL     OW20530   1.934   3.890  11.490
 6545SOL    HW120531   1.917   3.973  11.436
 6545SOL    HW220532   2.024   3.853  11.468
 6546SOL     OW20533   3.087   4.049  11.621
 6546SOL    HW120534   3.152   3.975  11.610
 6546SOL    HW220535   3.107   4.099  11.705
 6547SOL     OW20536   3.639   4.066  12.814
 6547SOL    HW120537   3.622   4.097  12.720
 6547SOL    HW220538   3.555   4.029  12.852
 6548SOL     OW20539   3.686   3.916  12.399
 6548SOL    HW120540   3.682   3.826  12.443
 6548SOL    HW220541   3.689   3.905  12.300
 6549SOL     OW20542   3.286   3.938  12.284
 6549SOL    HW120543   3.338   3.873  12.339
 6549SOL    HW220544   3.237   4.001  12.345
 6550SOL     OW20545   2.863   3.758  12.326
 6550SOL    HW120546   2.800   3.686  12.295
 6550SOL    HW220547   2.956   3.722  12.326
 6551SOL     OW20548   3.214   3.776  11.340
 6551SOL    HW120549   3.249   3.735  11.256
 6551SOL    HW220550   3.124   3.738  11.360
 6552SOL     OW20551   3.162   4.177  11.863
 6552SOL    HW120552   3.103   4.257  11.867
 6552SOL    HW220553   3.177   4.142  11.956
 6553SOL     OW20554   3.455   3.945  12.054
 6553SOL    HW120555   3.371   3.944  12.108
 6553SOL    HW220556   3.457   4.028  11.998
 6554SOL     OW20557   1.881   4.092  13.681
 6554SOL    HW120558   1.799   4.135  13.720
 6554SOL    HW220559   1.853   4.019  13.618
 6555SOL     OW20560   3.617   4.331  13.265
 6555SOL    HW120561   3.605   4.318  13.166
 6555SOL    HW220562   3.587   4.250  13.314
 6556SOL     OW20563   3.465   4.171  13.771
 6556SOL    HW120564   3.391   4.217  13.721
 6556SOL    HW220565   3.516   4.239  13.824
 6557SOL     OW20566   2.671   3.728  13.536
 6557SOL    HW120567   2.711   3.819  13.527
 6557SOL    HW220568   2.571   3.736  13.542
 6558SOL     OW20569   3.262   3.831  13.460
 6558SOL    HW120570   3.238   3.794  13.370
 6558SOL    HW220571   3.361   3.847  13.464
 6559SOL     OW20572   2.476   3.846  13.151
 6559SOL    HW120573   2.574   3.824  13.158
 6559SOL    HW220574   2.445   3.829  13.058
 6560SOL     OW20575   2.401   3.788  13.546
 6560SOL    HW120576   2.320   3.789  13.604
 6560SOL    HW220577   2.404   3.871  13.491
 6561SOL     OW20578   2.159   3.759  13.205
 6561SOL    HW120579   2.208   3.843  13.184
 6561SOL    HW220580   2.221   3.694  13.250
 6562SOL     OW20581   2.879   3.763  13.787
 6562SOL    HW120582   2.807   3.768  13.718
 6562SOL    HW220583   2.855   3.694  13.856
 6563SOL     OW20584   3.402   3.998  13.159
 6563SOL    HW120585   3.341   3.923  13.182
 6563SOL    HW220586   3.424   4.050  13.242
 6564SOL     OW20587   2.765   3.810  13.167
 6564SOL    HW120588   2.816   3.811  13.081
 6564SOL    HW220589   2.821   3.768  13.238
 6565SOL     OW20590   3.588   3.859  13.557
 6565SOL    HW120591   3.661   3.842  13.490
 6565SOL    HW220592   3.557   3.772  13.595
 6566SOL     OW20593   3.703   3.899  13.997
 6566SOL    HW120594   3.742   3.814  13.961
 6566SOL    HW220595   3.605   3.901  13.978
 6567SOL     OW20596   1.937   4.069  13.067
 6567SOL    HW120597   1.845   4.041  13.038
 6567SOL    HW220598   1.968   4.146  13.011
 6568SOL     OW20599   1.934   3.890  13.352
 6568SOL    HW120600   1.917   3.973  13.298
 6568SOL    HW220601   2.024   3.853  13.330
 6569SOL     OW20602   3.087   4.049  13.483
 6569SOL    HW120603   3.152   3.975  13.472
 6569SOL    HW220604   3.107   4.099  13.567
 6570SOL     OW20605   3.214   3.776  13.202
 6570SOL    HW120606   3.249   3.735  13.118
 6570SOL    HW220607   3.124   3.738  13.222
 6571SOL     OW20608   3.162   4.177  13.725
 6571SOL    HW120609   3.103   4.257  13.729
 6571SOL    HW220610   3.177   4.142  13.818
 6572SOL     OW20611   3.954   0.628   0.113
 6572SOL    HW120612   3.861   0.626   0.150
 6572SOL    HW220613   3.955   0.589   0.021
 6573SOL     OW20614   3.949   0.275   0.996
 6573SOL    HW120615   3.984   0.258   1.088
 6573SOL    HW220616   3.861   0.230   0.984
 6574SOL     OW20617   3.743   0.368   0.647
 6574SOL    HW120618   3.661   0.411   0.686
 6574SOL    HW220619   3.715   0.295   0.584
 6575SOL     OW20620   4.059   1.435   1.061
 6575SOL    HW120621   3.981   1.404   1.008
 6575SOL    HW220622   4.117   1.493   1.004
 6576SOL     OW20623   3.955   1.713   0.483
 6576SOL    HW120624   3.989   1.790   0.537
 6576SOL    HW220625   3.999   1.713   0.393
 6577SOL     OW20626   3.954   1.434   0.538
 6577SOL    HW120627   3.928   1.530   0.538
 6577SOL    HW220628   3.883   1.380   0.583
 6578SOL     OW20629   3.846   0.643   0.563
 6578SOL    HW120630   3.801   0.555   0.580
 6578SOL    HW220631   3.845   0.697   0.647
 6579SOL     OW20632   3.751   1.596   0.117
 6579SOL    HW120633   3.732   1.500   0.138
 6579SOL    HW220634   3.718   1.654   0.192
 6580SOL     OW20635   3.837   0.737   1.597
 6580SOL    HW120636   3.925   0.724   1.642
 6580SOL    HW220637   3.824   0.834   1.575
 6581SOL     OW20638   3.800   0.811   0.789
 6581SOL    HW120639   3.899   0.799   0.798
 6581SOL    HW220640   3.776   0.906   0.810
 6582SOL     OW20641   3.854   1.821   1.571
 6582SOL    HW120642   3.844   1.806   1.670
 6582SOL    HW220643   3.768   1.857   1.535
 6583SOL     OW20644   3.926   0.285   1.498
 6583SOL    HW120645   3.846   0.345   1.485
 6583SOL    HW220646   3.916   0.236   1.584
 6584SOL     OW20647   3.802   0.556   1.386
 6584SOL    HW120648   3.894   0.555   1.345
 6584SOL    HW220649   3.796   0.630   1.453
 6585SOL     OW20650   3.788   1.564   1.331
 6585SOL    HW120651   3.742   1.646   1.297
 6585SOL    HW220652   3.886   1.583   1.340
 6586SOL     OW20653   4.091   1.100   0.501
 6586SOL    HW120654   4.084   1.183   0.445
 6586SOL    HW220655   4.095   1.020   0.441
 6587SOL     OW20656   4.031   0.213   1.231
 6587SOL    HW120657   4.008   0.250   1.321
 6587SOL    HW220658   4.001   0.118   1.225
 6588SOL     OW20659   3.761   1.310   1.282
 6588SOL    HW120660   3.814   1.261   1.350
 6588SOL    HW220661   3.783   1.408   1.287
 6589SOL     OW20662   3.732   1.326   0.200
 6589SOL    HW120663   3.639   1.347   0.169
 6589SOL    HW220664   3.742   1.227   0.213
 6590SOL     OW20665   3.812   1.801   0.927
 6590SOL    HW120666   3.770   1.715   0.900
 6590SOL    HW220667   3.906   1.804   0.893
 6591SOL     OW20668   4.228   1.568   0.910
 6591SOL    HW120669   4.294   1.642   0.919
 6591SOL    HW220670   4.272   1.489   0.868
 6592SOL     OW20671   3.764   0.544   1.114
 6592SOL    HW120672   3.849   0.511   1.073
 6592SOL    HW220673   3.777   0.559   1.212
 6593SOL     OW20674   3.913   0.520   1.722
 6593SOL    HW120675   3.972   0.480   1.652
 6593SOL    HW220676   3.855   0.591   1.681
 6594SOL     OW20677   3.976   1.564   1.744
 6594SOL    HW120678   3.946   1.621   1.820
 6594SOL    HW220679   3.969   1.467   1.770
 6595SOL     OW20680   3.883   1.137   1.466
 6595SOL    HW120681   3.905   1.076   1.542
 6595SOL    HW220682   3.893   1.088   1.380
 6596SOL     OW20683   3.807   1.258   1.022
 6596SOL    HW120684   3.802   1.257   1.122
 6596SOL    HW220685   3.724   1.217   0.984
 6597SOL     OW20686   3.854   1.794   1.851
 6597SOL    HW120687   3.813   1.720   1.904
 6597SOL    HW220688   3.918   1.845   1.909
 6598SOL     OW20689   3.799   0.345   0.033
 6598SOL    HW120690   3.707   0.317   0.004
 6598SOL    HW220691   3.830   0.422  -0.023
 6599SOL     OW20692   3.796   0.166   0.318
 6599SOL    HW120693   3.779   0.249   0.264
 6599SOL    HW220694   3.886   0.129   0.296
 6600SOL     OW20695   3.803   1.240   0.653
 6600SOL    HW120696   3.802   1.193   0.741
 6600SOL    HW220697   3.885   1.212   0.602
 6601SOL     OW20698   3.763   1.077   0.300
 6601SOL    HW120699   3.862   1.066   0.291
 6601SOL    HW220700   3.723   0.991   0.332
 6602SOL     OW20701   3.954   0.628   1.975
 6602SOL    HW120702   3.861   0.626   2.012
 6602SOL    HW220703   3.955   0.589   1.883
 6603SOL     OW20704   3.949   0.275   2.858
 6603SOL    HW120705   3.984   0.258   2.950
 6603SOL    HW220706   3.861   0.230   2.846
 6604SOL     OW20707   3.743   0.368   2.509
 6604SOL    HW120708   3.661   0.411   2.548
 6604SOL    HW220709   3.715   0.295   2.446
 6605SOL     OW20710   4.059   1.435   2.923
 6605SOL    HW120711   3.981   1.404   2.870
 6605SOL    HW220712   4.117   1.493   2.866
 6606SOL     OW20713   3.955   1.713   2.345
 6606SOL    HW120714   3.989   1.790   2.399
 6606SOL    HW220715   3.999   1.713   2.255
 6607SOL     OW20716   3.954   1.434   2.400
 6607SOL    HW120717   3.928   1.530   2.400
 6607SOL    HW220718   3.883   1.380   2.445
 6608SOL     OW20719   3.846   0.643   2.425
 6608SOL    HW120720   3.801   0.555   2.442
 6608SOL    HW220721   3.845   0.697   2.509
 6609SOL     OW20722   3.751   1.596   1.979
 6609SOL    HW120723   3.732   1.500   2.000
 6609SOL    HW220724   3.718   1.654   2.054
 6610SOL     OW20725   3.837   0.737   3.459
 6610SOL    HW120726   3.925   0.724   3.504
 6610SOL    HW220727   3.824   0.834   3.437
 6611SOL     OW20728   3.800   0.811   2.651
 6611SOL    HW120729   3.899   0.799   2.660
 6611SOL    HW220730   3.776   0.906   2.672
 6612SOL     OW20731   3.854   1.821   3.433
 6612SOL    HW120732   3.844   1.806   3.532
 6612SOL    HW220733   3.768   1.857   3.397
 6613SOL     OW20734   3.926   0.285   3.360
 6613SOL    HW120735   3.846   0.345   3.347
 6613SOL    HW220736   3.916   0.236   3.446
 6614SOL     OW20737   3.802   0.556   3.248
 6614SOL    HW120738   3.894   0.555   3.207
 6614SOL    HW220739   3.796   0.630   3.315
 6615SOL     OW20740   4.251   0.256   2.190
 6615SOL    HW120741   4.278   0.197   2.115
 6615SOL    HW220742   4.251   0.351   2.159
 6616SOL     OW20743   3.788   1.564   3.193
 6616SOL    HW120744   3.742   1.646   3.159
 6616SOL    HW220745   3.886   1.583   3.202
 6617SOL     OW20746   4.091   1.100   2.363
 6617SOL    HW120747   4.084   1.183   2.307
 6617SOL    HW220748   4.095   1.020   2.303
 6618SOL     OW20749   4.031   0.213   3.093
 6618SOL    HW120750   4.008   0.250   3.183
 6618SOL    HW220751   4.001   0.118   3.087
 6619SOL     OW20752   3.761   1.310   3.144
 6619SOL    HW120753   3.814   1.261   3.212
 6619SOL    HW220754   3.783   1.408   3.149
 6620SOL     OW20755   3.732   1.326   2.062
 6620SOL    HW120756   3.639   1.347   2.031
 6620SOL    HW220757   3.742   1.227   2.075
 6621SOL     OW20758   3.812   1.801   2.789
 6621SOL    HW120759   3.770   1.715   2.762
 6621SOL    HW220760   3.906   1.804   2.755
 6622SOL     OW20761   4.228   1.568   2.772
 6622SOL    HW120762   4.294   1.642   2.781
 6622SOL    HW220763   4.272   1.489   2.730
 6623SOL     OW20764   3.764   0.544   2.976
 6623SOL    HW120765   3.849   0.511   2.935
 6623SOL    HW220766   3.777   0.559   3.074
 6624SOL     OW20767   3.913   0.520   3.584
 6624SOL    HW120768   3.972   0.480   3.514
 6624SOL    HW220769   3.855   0.591   3.543
 6625SOL     OW20770   3.976   1.564   3.606
 6625SOL    HW120771   3.946   1.621   3.682
 6625SOL    HW220772   3.969   1.467   3.632
 6626SOL     OW20773   3.883   1.137   3.328
 6626SOL    HW120774   3.905   1.076   3.404
 6626SOL    HW220775   3.893   1.088   3.242
 6627SOL     OW20776   3.807   1.258   2.884
 6627SOL    HW120777   3.802   1.257   2.984
 6627SOL    HW220778   3.724   1.217   2.846
 6628SOL     OW20779   3.854   1.794   3.713
 6628SOL    HW120780   3.813   1.720   3.766
 6628SOL    HW220781   3.918   1.845   3.771
 6629SOL     OW20782   3.799   0.345   1.895
 6629SOL    HW120783   3.707   0.317   1.866
 6629SOL    HW220784   3.830   0.422   1.839
 6630SOL     OW20785   3.796   0.166   2.180
 6630SOL    HW120786   3.779   0.249   2.126
 6630SOL    HW220787   3.886   0.129   2.158
 6631SOL     OW20788   3.803   1.240   2.515
 6631SOL    HW120789   3.802   1.193   2.603
 6631SOL    HW220790   3.885   1.212   2.464
 6632SOL     OW20791   3.763   1.077   2.162
 6632SOL    HW120792   3.862   1.066   2.153
 6632SOL    HW220793   3.723   0.991   2.194
 6633SOL     OW20794   3.954   0.628   3.837
 6633SOL    HW120795   3.861   0.626   3.874
 6633SOL    HW220796   3.955   0.589   3.745
 6634SOL     OW20797   3.949   0.275   4.720
 6634SOL    HW120798   3.984   0.258   4.812
 6634SOL    HW220799   3.861   0.230   4.708
 6635SOL     OW20800   3.743   0.368   4.371
 6635SOL    HW120801   3.661   0.411   4.410
 6635SOL    HW220802   3.715   0.295   4.308
 6636SOL     OW20803   4.059   1.435   4.785
 6636SOL    HW120804   3.981   1.404   4.732
 6636SOL    HW220805   4.117   1.493   4.728
 6637SOL     OW20806   3.955   1.713   4.207
 6637SOL    HW120807   3.989   1.790   4.261
 6637SOL    HW220808   3.999   1.713   4.117
 6638SOL     OW20809   3.954   1.434   4.262
 6638SOL    HW120810   3.928   1.530   4.262
 6638SOL    HW220811   3.883   1.380   4.307
 6639SOL     OW20812   3.846   0.643   4.287
 6639SOL    HW120813   3.801   0.555   4.304
 6639SOL    HW220814   3.845   0.697   4.371
 6640SOL     OW20815   3.751   1.596   3.841
 6640SOL    HW120816   3.732   1.500   3.862
 6640SOL    HW220817   3.718   1.654   3.916
 6641SOL     OW20818   3.837   0.737   5.321
 6641SOL    HW120819   3.925   0.724   5.366
 6641SOL    HW220820   3.824   0.834   5.299
 6642SOL     OW20821   3.800   0.811   4.513
 6642SOL    HW120822   3.899   0.799   4.522
 6642SOL    HW220823   3.776   0.906   4.534
 6643SOL     OW20824   3.854   1.821   5.295
 6643SOL    HW120825   3.844   1.806   5.394
 6643SOL    HW220826   3.768   1.857   5.259
 6644SOL     OW20827   3.926   0.285   5.222
 6644SOL    HW120828   3.846   0.345   5.209
 6644SOL    HW220829   3.916   0.236   5.308
 6645SOL     OW20830   3.802   0.556   5.110
 6645SOL    HW120831   3.894   0.555   5.069
 6645SOL    HW220832   3.796   0.630   5.177
 6646SOL     OW20833   4.251   0.256   4.052
 6646SOL    HW120834   4.278   0.197   3.977
 6646SOL    HW220835   4.251   0.351   4.021
 6647SOL     OW20836   3.788   1.564   5.055
 6647SOL    HW120837   3.742   1.646   5.021
 6647SOL    HW220838   3.886   1.583   5.064
 6648SOL     OW20839   4.091   1.100   4.225
 6648SOL    HW120840   4.084   1.183   4.169
 6648SOL    HW220841   4.095   1.020   4.165
 6649SOL     OW20842   4.031   0.213   4.955
 6649SOL    HW120843   4.008   0.250   5.045
 6649SOL    HW220844   4.001   0.118   4.949
 6650SOL     OW20845   3.761   1.310   5.006
 6650SOL    HW120846   3.814   1.261   5.074
 6650SOL    HW220847   3.783   1.408   5.011
 6651SOL     OW20848   3.732   1.326   3.924
 6651SOL    HW120849   3.639   1.347   3.893
 6651SOL    HW220850   3.742   1.227   3.937
 6652SOL     OW20851   3.812   1.801   4.651
 6652SOL    HW120852   3.770   1.715   4.624
 6652SOL    HW220853   3.906   1.804   4.617
 6653SOL     OW20854   4.228   1.568   4.634
 6653SOL    HW120855   4.294   1.642   4.643
 6653SOL    HW220856   4.272   1.489   4.592
 6654SOL     OW20857   3.764   0.544   4.838
 6654SOL    HW120858   3.849   0.511   4.797
 6654SOL    HW220859   3.777   0.559   4.936
 6655SOL     OW20860   3.913   0.520   5.446
 6655SOL    HW120861   3.972   0.480   5.376
 6655SOL    HW220862   3.855   0.591   5.405
 6656SOL     OW20863   3.976   1.564   5.468
 6656SOL    HW120864   3.946   1.621   5.544
 6656SOL    HW220865   3.969   1.467   5.494
 6657SOL     OW20866   3.883   1.137   5.190
 6657SOL    HW120867   3.905   1.076   5.266
 6657SOL    HW220868   3.893   1.088   5.104
 6658SOL     OW20869   3.807   1.258   4.746
 6658SOL    HW120870   3.802   1.257   4.846
 6658SOL    HW220871   3.724   1.217   4.708
 6659SOL     OW20872   3.854   1.794   5.575
 6659SOL    HW120873   3.813   1.720   5.628
 6659SOL    HW220874   3.918   1.845   5.633
 6660SOL     OW20875   3.799   0.345   3.757
 6660SOL    HW120876   3.707   0.317   3.728
 6660SOL    HW220877   3.830   0.422   3.701
 6661SOL     OW20878   3.796   0.166   4.042
 6661SOL    HW120879   3.779   0.249   3.988
 6661SOL    HW220880   3.886   0.129   4.020
 6662SOL     OW20881   3.803   1.240   4.377
 6662SOL    HW120882   3.802   1.193   4.465
 6662SOL    HW220883   3.885   1.212   4.326
 6663SOL     OW20884   3.763   1.077   4.024
 6663SOL    HW120885   3.862   1.066   4.015
 6663SOL    HW220886   3.723   0.991   4.056
 6664SOL     OW20887   3.954   0.628   5.699
 6664SOL    HW120888   3.861   0.626   5.736
 6664SOL    HW220889   3.955   0.589   5.607
 6665SOL     OW20890   3.949   0.275   6.582
 6665SOL    HW120891   3.984   0.258   6.674
 6665SOL    HW220892   3.861   0.230   6.570
 6666SOL     OW20893   3.743   0.368   6.233
 6666SOL    HW120894   3.661   0.411   6.272
 6666SOL    HW220895   3.715   0.295   6.170
 6667SOL     OW20896   4.059   1.435   6.647
 6667SOL    HW120897   3.981   1.404   6.594
 6667SOL    HW220898   4.117   1.493   6.590
 6668SOL     OW20899   3.955   1.713   6.069
 6668SOL    HW120900   3.989   1.790   6.123
 6668SOL    HW220901   3.999   1.713   5.979
 6669SOL     OW20902   3.954   1.434   6.124
 6669SOL    HW120903   3.928   1.530   6.124
 6669SOL    HW220904   3.883   1.380   6.169
 6670SOL     OW20905   3.846   0.643   6.149
 6670SOL    HW120906   3.801   0.555   6.166
 6670SOL    HW220907   3.845   0.697   6.233
 6671SOL     OW20908   3.751   1.596   5.703
 6671SOL    HW120909   3.732   1.500   5.724
 6671SOL    HW220910   3.718   1.654   5.778
 6672SOL     OW20911   3.837   0.737   7.183
 6672SOL    HW120912   3.925   0.724   7.228
 6672SOL    HW220913   3.824   0.834   7.161
 6673SOL     OW20914   3.800   0.811   6.375
 6673SOL    HW120915   3.899   0.799   6.384
 6673SOL    HW220916   3.776   0.906   6.396
 6674SOL     OW20917   3.854   1.821   7.157
 6674SOL    HW120918   3.844   1.806   7.256
 6674SOL    HW220919   3.768   1.857   7.121
 6675SOL     OW20920   3.926   0.285   7.084
 6675SOL    HW120921   3.846   0.345   7.071
 6675SOL    HW220922   3.916   0.236   7.170
 6676SOL     OW20923   3.802   0.556   6.972
 6676SOL    HW120924   3.894   0.555   6.931
 6676SOL    HW220925   3.796   0.630   7.039
 6677SOL     OW20926   4.251   0.256   5.914
 6677SOL    HW120927   4.278   0.197   5.839
 6677SOL    HW220928   4.251   0.351   5.883
 6678SOL     OW20929   3.788   1.564   6.917
 6678SOL    HW120930   3.742   1.646   6.883
 6678SOL    HW220931   3.886   1.583   6.926
 6679SOL     OW20932   4.091   1.100   6.087
 6679SOL    HW120933   4.084   1.183   6.031
 6679SOL    HW220934   4.095   1.020   6.027
 6680SOL     OW20935   4.031   0.213   6.817
 6680SOL    HW120936   4.008   0.250   6.907
 6680SOL    HW220937   4.001   0.118   6.811
 6681SOL     OW20938   3.761   1.310   6.868
 6681SOL    HW120939   3.814   1.261   6.936
 6681SOL    HW220940   3.783   1.408   6.873
 6682SOL     OW20941   3.732   1.326   5.786
 6682SOL    HW120942   3.639   1.347   5.755
 6682SOL    HW220943   3.742   1.227   5.799
 6683SOL     OW20944   3.812   1.801   6.513
 6683SOL    HW120945   3.770   1.715   6.486
 6683SOL    HW220946   3.906   1.804   6.479
 6684SOL     OW20947   4.228   1.568   6.496
 6684SOL    HW120948   4.294   1.642   6.505
 6684SOL    HW220949   4.272   1.489   6.454
 6685SOL     OW20950   3.764   0.544   6.700
 6685SOL    HW120951   3.849   0.511   6.659
 6685SOL    HW220952   3.777   0.559   6.798
 6686SOL     OW20953   3.913   0.520   7.308
 6686SOL    HW120954   3.972   0.480   7.238
 6686SOL    HW220955   3.855   0.591   7.267
 6687SOL     OW20956   3.976   1.564   7.330
 6687SOL    HW120957   3.946   1.621   7.406
 6687SOL    HW220958   3.969   1.467   7.356
 6688SOL     OW20959   3.883   1.137   7.052
 6688SOL    HW120960   3.905   1.076   7.128
 6688SOL    HW220961   3.893   1.088   6.966
 6689SOL     OW20962   3.807   1.258   6.608
 6689SOL    HW120963   3.802   1.257   6.708
 6689SOL    HW220964   3.724   1.217   6.570
 6690SOL     OW20965   3.854   1.794   7.437
 6690SOL    HW120966   3.813   1.720   7.490
 6690SOL    HW220967   3.918   1.845   7.495
 6691SOL     OW20968   3.799   0.345   5.619
 6691SOL    HW120969   3.707   0.317   5.590
 6691SOL    HW220970   3.830   0.422   5.563
 6692SOL     OW20971   3.796   0.166   5.904
 6692SOL    HW120972   3.779   0.249   5.850
 6692SOL    HW220973   3.886   0.129   5.882
 6693SOL     OW20974   3.803   1.240   6.239
 6693SOL    HW120975   3.802   1.193   6.327
 6693SOL    HW220976   3.885   1.212   6.188
 6694SOL     OW20977   3.763   1.077   5.886
 6694SOL    HW120978   3.862   1.066   5.877
 6694SOL    HW220979   3.723   0.991   5.918
 6695SOL     OW20980   3.954   0.628   7.561
 6695SOL    HW120981   3.861   0.626   7.598
 6695SOL    HW220982   3.955   0.589   7.469
 6696SOL     OW20983   3.949   0.275   8.444
 6696SOL    HW120984   3.984   0.258   8.536
 6696SOL    HW220985   3.861   0.230   8.432
 6697SOL     OW20986   3.743   0.368   8.095
 6697SOL    HW120987   3.661   0.411   8.134
 6697SOL    HW220988   3.715   0.295   8.032
 6698SOL     OW20989   4.059   1.435   8.509
 6698SOL    HW120990   3.981   1.404   8.456
 6698SOL    HW220991   4.117   1.493   8.452
 6699SOL     OW20992   3.955   1.713   7.931
 6699SOL    HW120993   3.989   1.790   7.985
 6699SOL    HW220994   3.999   1.713   7.841
 6700SOL     OW20995   3.954   1.434   7.986
 6700SOL    HW120996   3.928   1.530   7.986
 6700SOL    HW220997   3.883   1.380   8.031
 6701SOL     OW20998   3.846   0.643   8.011
 6701SOL    HW120999   3.801   0.555   8.028
 6701SOL    HW221000   3.845   0.697   8.095
 6702SOL     OW21001   3.751   1.596   7.565
 6702SOL    HW121002   3.732   1.500   7.586
 6702SOL    HW221003   3.718   1.654   7.640
 6703SOL     OW21004   3.837   0.737   9.045
 6703SOL    HW121005   3.925   0.724   9.090
 6703SOL    HW221006   3.824   0.834   9.023
 6704SOL     OW21007   3.800   0.811   8.237
 6704SOL    HW121008   3.899   0.799   8.246
 6704SOL    HW221009   3.776   0.906   8.258
 6705SOL     OW21010   3.854   1.821   9.019
 6705SOL    HW121011   3.844   1.806   9.118
 6705SOL    HW221012   3.768   1.857   8.983
 6706SOL     OW21013   3.926   0.285   8.946
 6706SOL    HW121014   3.846   0.345   8.933
 6706SOL    HW221015   3.916   0.236   9.032
 6707SOL     OW21016   3.802   0.556   8.834
 6707SOL    HW121017   3.894   0.555   8.793
 6707SOL    HW221018   3.796   0.630   8.901
 6708SOL     OW21019   4.251   0.256   7.776
 6708SOL    HW121020   4.278   0.197   7.701
 6708SOL    HW221021   4.251   0.351   7.745
 6709SOL     OW21022   3.788   1.564   8.779
 6709SOL    HW121023   3.742   1.646   8.745
 6709SOL    HW221024   3.886   1.583   8.788
 6710SOL     OW21025   4.091   1.100   7.949
 6710SOL    HW121026   4.084   1.183   7.893
 6710SOL    HW221027   4.095   1.020   7.889
 6711SOL     OW21028   4.031   0.213   8.679
 6711SOL    HW121029   4.008   0.250   8.769
 6711SOL    HW221030   4.001   0.118   8.673
 6712SOL     OW21031   3.761   1.310   8.730
 6712SOL    HW121032   3.814   1.261   8.798
 6712SOL    HW221033   3.783   1.408   8.735
 6713SOL     OW21034   3.732   1.326   7.648
 6713SOL    HW121035   3.639   1.347   7.617
 6713SOL    HW221036   3.742   1.227   7.661
 6714SOL     OW21037   3.812   1.801   8.375
 6714SOL    HW121038   3.770   1.715   8.348
 6714SOL    HW221039   3.906   1.804   8.341
 6715SOL     OW21040   4.228   1.568   8.358
 6715SOL    HW121041   4.294   1.642   8.367
 6715SOL    HW221042   4.272   1.489   8.316
 6716SOL     OW21043   3.764   0.544   8.562
 6716SOL    HW121044   3.849   0.511   8.521
 6716SOL    HW221045   3.777   0.559   8.660
 6717SOL     OW21046   3.913   0.520   9.170
 6717SOL    HW121047   3.972   0.480   9.100
 6717SOL    HW221048   3.855   0.591   9.129
 6718SOL     OW21049   3.976   1.564   9.192
 6718SOL    HW121050   3.946   1.621   9.268
 6718SOL    HW221051   3.969   1.467   9.218
 6719SOL     OW21052   3.883   1.137   8.914
 6719SOL    HW121053   3.905   1.076   8.990
 6719SOL    HW221054   3.893   1.088   8.828
 6720SOL     OW21055   3.807   1.258   8.470
 6720SOL    HW121056   3.802   1.257   8.570
 6720SOL    HW221057   3.724   1.217   8.432
 6721SOL     OW21058   3.854   1.794   9.299
 6721SOL    HW121059   3.813   1.720   9.352
 6721SOL    HW221060   3.918   1.845   9.357
 6722SOL     OW21061   3.799   0.345   7.481
 6722SOL    HW121062   3.707   0.317   7.452
 6722SOL    HW221063   3.830   0.422   7.425
 6723SOL     OW21064   3.796   0.166   7.766
 6723SOL    HW121065   3.779   0.249   7.712
 6723SOL    HW221066   3.886   0.129   7.744
 6724SOL     OW21067   3.803   1.240   8.101
 6724SOL    HW121068   3.802   1.193   8.189
 6724SOL    HW221069   3.885   1.212   8.050
 6725SOL     OW21070   3.763   1.077   7.748
 6725SOL    HW121071   3.862   1.066   7.739
 6725SOL    HW221072   3.723   0.991   7.780
 6726SOL     OW21073   3.954   0.628   9.423
 6726SOL    HW121074   3.861   0.626   9.460
 6726SOL    HW221075   3.955   0.589   9.331
 6727SOL     OW21076   3.949   0.275  10.306
 6727SOL    HW121077   3.984   0.258  10.398
 6727SOL    HW221078   3.861   0.230  10.294
 6728SOL     OW21079   3.743   0.368   9.957
 6728SOL    HW121080   3.661   0.411   9.996
 6728SOL    HW221081   3.715   0.295   9.894
 6729SOL     OW21082   4.059   1.435  10.371
 6729SOL    HW121083   3.981   1.404  10.318
 6729SOL    HW221084   4.117   1.493  10.314
 6730SOL     OW21085   3.955   1.713   9.793
 6730SOL    HW121086   3.989   1.790   9.847
 6730SOL    HW221087   3.999   1.713   9.703
 6731SOL     OW21088   3.954   1.434   9.848
 6731SOL    HW121089   3.928   1.530   9.848
 6731SOL    HW221090   3.883   1.380   9.893
 6732SOL     OW21091   3.846   0.643   9.873
 6732SOL    HW121092   3.801   0.555   9.890
 6732SOL    HW221093   3.845   0.697   9.957
 6733SOL     OW21094   3.751   1.596   9.427
 6733SOL    HW121095   3.732   1.500   9.448
 6733SOL    HW221096   3.718   1.654   9.502
 6734SOL     OW21097   3.837   0.737  10.907
 6734SOL    HW121098   3.925   0.724  10.952
 6734SOL    HW221099   3.824   0.834  10.885
 6735SOL     OW21100   3.800   0.811  10.099
 6735SOL    HW121101   3.899   0.799  10.108
 6735SOL    HW221102   3.776   0.906  10.120
 6736SOL     OW21103   3.854   1.821  10.881
 6736SOL    HW121104   3.844   1.806  10.980
 6736SOL    HW221105   3.768   1.857  10.845
 6737SOL     OW21106   3.926   0.285  10.808
 6737SOL    HW121107   3.846   0.345  10.795
 6737SOL    HW221108   3.916   0.236  10.894
 6738SOL     OW21109   3.802   0.556  10.696
 6738SOL    HW121110   3.894   0.555  10.655
 6738SOL    HW221111   3.796   0.630  10.763
 6739SOL     OW21112   4.251   0.256   9.638
 6739SOL    HW121113   4.278   0.197   9.563
 6739SOL    HW221114   4.251   0.351   9.607
 6740SOL     OW21115   3.788   1.564  10.641
 6740SOL    HW121116   3.742   1.646  10.607
 6740SOL    HW221117   3.886   1.583  10.650
 6741SOL     OW21118   4.091   1.100   9.811
 6741SOL    HW121119   4.084   1.183   9.755
 6741SOL    HW221120   4.095   1.020   9.751
 6742SOL     OW21121   4.031   0.213  10.541
 6742SOL    HW121122   4.008   0.250  10.631
 6742SOL    HW221123   4.001   0.118  10.535
 6743SOL     OW21124   3.761   1.310  10.592
 6743SOL    HW121125   3.814   1.261  10.660
 6743SOL    HW221126   3.783   1.408  10.597
 6744SOL     OW21127   3.732   1.326   9.510
 6744SOL    HW121128   3.639   1.347   9.479
 6744SOL    HW221129   3.742   1.227   9.523
 6745SOL     OW21130   3.812   1.801  10.237
 6745SOL    HW121131   3.770   1.715  10.210
 6745SOL    HW221132   3.906   1.804  10.203
 6746SOL     OW21133   4.228   1.568  10.220
 6746SOL    HW121134   4.294   1.642  10.229
 6746SOL    HW221135   4.272   1.489  10.178
 6747SOL     OW21136   3.764   0.544  10.424
 6747SOL    HW121137   3.849   0.511  10.383
 6747SOL    HW221138   3.777   0.559  10.522
 6748SOL     OW21139   3.913   0.520  11.032
 6748SOL    HW121140   3.972   0.480  10.962
 6748SOL    HW221141   3.855   0.591  10.991
 6749SOL     OW21142   3.976   1.564  11.054
 6749SOL    HW121143   3.946   1.621  11.130
 6749SOL    HW221144   3.969   1.467  11.080
 6750SOL     OW21145   3.883   1.137  10.776
 6750SOL    HW121146   3.905   1.076  10.852
 6750SOL    HW221147   3.893   1.088  10.690
 6751SOL     OW21148   3.807   1.258  10.332
 6751SOL    HW121149   3.802   1.257  10.432
 6751SOL    HW221150   3.724   1.217  10.294
 6752SOL     OW21151   3.854   1.794  11.161
 6752SOL    HW121152   3.813   1.720  11.214
 6752SOL    HW221153   3.918   1.845  11.219
 6753SOL     OW21154   3.799   0.345   9.343
 6753SOL    HW121155   3.707   0.317   9.314
 6753SOL    HW221156   3.830   0.422   9.287
 6754SOL     OW21157   3.796   0.166   9.628
 6754SOL    HW121158   3.779   0.249   9.574
 6754SOL    HW221159   3.886   0.129   9.606
 6755SOL     OW21160   3.803   1.240   9.963
 6755SOL    HW121161   3.802   1.193  10.051
 6755SOL    HW221162   3.885   1.212   9.912
 6756SOL     OW21163   3.763   1.077   9.610
 6756SOL    HW121164   3.862   1.066   9.601
 6756SOL    HW221165   3.723   0.991   9.642
 6757SOL     OW21166   3.954   0.628  11.285
 6757SOL    HW121167   3.861   0.626  11.322
 6757SOL    HW221168   3.955   0.589  11.193
 6758SOL     OW21169   3.949   0.275  12.168
 6758SOL    HW121170   3.984   0.258  12.260
 6758SOL    HW221171   3.861   0.230  12.156
 6759SOL     OW21172   3.743   0.368  11.819
 6759SOL    HW121173   3.661   0.411  11.858
 6759SOL    HW221174   3.715   0.295  11.756
 6760SOL     OW21175   4.059   1.435  12.233
 6760SOL    HW121176   3.981   1.404  12.180
 6760SOL    HW221177   4.117   1.493  12.176
 6761SOL     OW21178   3.955   1.713  11.655
 6761SOL    HW121179   3.989   1.790  11.709
 6761SOL    HW221180   3.999   1.713  11.565
 6762SOL     OW21181   3.954   1.434  11.710
 6762SOL    HW121182   3.928   1.530  11.710
 6762SOL    HW221183   3.883   1.380  11.755
 6763SOL     OW21184   3.846   0.643  11.735
 6763SOL    HW121185   3.801   0.555  11.752
 6763SOL    HW221186   3.845   0.697  11.819
 6764SOL     OW21187   3.751   1.596  11.289
 6764SOL    HW121188   3.732   1.500  11.310
 6764SOL    HW221189   3.718   1.654  11.364
 6765SOL     OW21190   3.837   0.737  12.769
 6765SOL    HW121191   3.925   0.724  12.814
 6765SOL    HW221192   3.824   0.834  12.747
 6766SOL     OW21193   3.800   0.811  11.961
 6766SOL    HW121194   3.899   0.799  11.970
 6766SOL    HW221195   3.776   0.906  11.982
 6767SOL     OW21196   3.854   1.821  12.743
 6767SOL    HW121197   3.844   1.806  12.842
 6767SOL    HW221198   3.768   1.857  12.707
 6768SOL     OW21199   3.926   0.285  12.670
 6768SOL    HW121200   3.846   0.345  12.657
 6768SOL    HW221201   3.916   0.236  12.756
 6769SOL     OW21202   3.802   0.556  12.558
 6769SOL    HW121203   3.894   0.555  12.517
 6769SOL    HW221204   3.796   0.630  12.625
 6770SOL     OW21205   4.251   0.256  11.500
 6770SOL    HW121206   4.278   0.197  11.425
 6770SOL    HW221207   4.251   0.351  11.469
 6771SOL     OW21208   3.788   1.564  12.503
 6771SOL    HW121209   3.742   1.646  12.469
 6771SOL    HW221210   3.886   1.583  12.512
 6772SOL     OW21211   4.091   1.100  11.673
 6772SOL    HW121212   4.084   1.183  11.617
 6772SOL    HW221213   4.095   1.020  11.613
 6773SOL     OW21214   4.031   0.213  12.403
 6773SOL    HW121215   4.008   0.250  12.493
 6773SOL    HW221216   4.001   0.118  12.397
 6774SOL     OW21217   3.761   1.310  12.454
 6774SOL    HW121218   3.814   1.261  12.522
 6774SOL    HW221219   3.783   1.408  12.459
 6775SOL     OW21220   3.732   1.326  11.372
 6775SOL    HW121221   3.639   1.347  11.341
 6775SOL    HW221222   3.742   1.227  11.385
 6776SOL     OW21223   3.812   1.801  12.099
 6776SOL    HW121224   3.770   1.715  12.072
 6776SOL    HW221225   3.906   1.804  12.065
 6777SOL     OW21226   4.228   1.568  12.082
 6777SOL    HW121227   4.294   1.642  12.091
 6777SOL    HW221228   4.272   1.489  12.040
 6778SOL     OW21229   3.764   0.544  12.286
 6778SOL    HW121230   3.849   0.511  12.245
 6778SOL    HW221231   3.777   0.559  12.384
 6779SOL     OW21232   3.913   0.520  12.894
 6779SOL    HW121233   3.972   0.480  12.824
 6779SOL    HW221234   3.855   0.591  12.853
 6780SOL     OW21235   3.976   1.564  12.916
 6780SOL    HW121236   3.946   1.621  12.992
 6780SOL    HW221237   3.969   1.467  12.942
 6781SOL     OW21238   3.883   1.137  12.638
 6781SOL    HW121239   3.905   1.076  12.714
 6781SOL    HW221240   3.893   1.088  12.552
 6782SOL     OW21241   3.807   1.258  12.194
 6782SOL    HW121242   3.802   1.257  12.294
 6782SOL    HW221243   3.724   1.217  12.156
 6783SOL     OW21244   3.854   1.794  13.023
 6783SOL    HW121245   3.813   1.720  13.076
 6783SOL    HW221246   3.918   1.845  13.081
 6784SOL     OW21247   3.799   0.345  11.205
 6784SOL    HW121248   3.707   0.317  11.176
 6784SOL    HW221249   3.830   0.422  11.149
 6785SOL     OW21250   3.796   0.166  11.490
 6785SOL    HW121251   3.779   0.249  11.436
 6785SOL    HW221252   3.886   0.129  11.468
 6786SOL     OW21253   3.803   1.240  11.825
 6786SOL    HW121254   3.802   1.193  11.913
 6786SOL    HW221255   3.885   1.212  11.774
 6787SOL     OW21256   3.763   1.077  11.472
 6787SOL    HW121257   3.862   1.066  11.463
 6787SOL    HW221258   3.723   0.991  11.504
 6788SOL     OW21259   3.954   0.628  13.147
 6788SOL    HW121260   3.861   0.626  13.184
 6788SOL    HW221261   3.955   0.589  13.055
 6789SOL     OW21262   3.743   0.368  13.681
 6789SOL    HW121263   3.661   0.411  13.720
 6789SOL    HW221264   3.715   0.295  13.618
 6790SOL     OW21265   3.955   1.713  13.517
 6790SOL    HW121266   3.989   1.790  13.571
 6790SOL    HW221267   3.999   1.713  13.427
 6791SOL     OW21268   3.954   1.434  13.572
 6791SOL    HW121269   3.928   1.530  13.572
 6791SOL    HW221270   3.883   1.380  13.617
 6792SOL     OW21271   3.964   1.091  13.920
 6792SOL    HW121272   3.978   1.007  13.972
 6792SOL    HW221273   3.909   1.155  13.975
 6793SOL     OW21274   3.846   0.643  13.597
 6793SOL    HW121275   3.801   0.555  13.614
 6793SOL    HW221276   3.845   0.697  13.681
 6794SOL     OW21277   3.751   1.596  13.151
 6794SOL    HW121278   3.732   1.500  13.172
 6794SOL    HW221279   3.718   1.654  13.226
 6795SOL     OW21280   3.800   0.811  13.823
 6795SOL    HW121281   3.899   0.799  13.832
 6795SOL    HW221282   3.776   0.906  13.844
 6796SOL     OW21283   4.075   1.801  13.887
 6796SOL    HW121284   4.125   1.715  13.893
 6796SOL    HW221285   4.140   1.878  13.884
 6797SOL     OW21286   4.251   0.256  13.362
 6797SOL    HW121287   4.278   0.197  13.287
 6797SOL    HW221288   4.251   0.351  13.331
 6798SOL     OW21289   4.091   1.100  13.535
 6798SOL    HW121290   4.084   1.183  13.479
 6798SOL    HW221291   4.095   1.020  13.475
 6799SOL     OW21292   3.732   1.326  13.234
 6799SOL    HW121293   3.639   1.347  13.203
 6799SOL    HW221294   3.742   1.227  13.247
 6800SOL     OW21295   4.228   1.568  13.944
 6800SOL    HW121296   4.294   1.642  13.953
 6800SOL    HW221297   4.272   1.489  13.902
 6801SOL     OW21298   3.799   0.345  13.067
 6801SOL    HW121299   3.707   0.317  13.038
 6801SOL    HW221300   3.830   0.422  13.011
 6802SOL     OW21301   3.796   0.166  13.352
 6802SOL    HW121302   3.779   0.249  13.298
 6802SOL    HW221303   3.886   0.129  13.330
 6803SOL     OW21304   3.803   1.240  13.687
 6803SOL    HW121305   3.802   1.193  13.775
 6803SOL    HW221306   3.885   1.212  13.636
 6804SOL     OW21307   3.763   1.077  13.334
 6804SOL    HW121308   3.862   1.066  13.325
 6804SOL    HW221309   3.723   0.991  13.366
 6805SOL     OW21310   3.954   2.490   0.113
 6805SOL    HW121311   3.861   2.488   0.150
 6805SOL    HW221312   3.955   2.451   0.021
 6806SOL     OW21313   3.949   2.137   0.996
 6806SOL    HW121314   3.984   2.120   1.088
 6806SOL    HW221315   3.861   2.092   0.984
 6807SOL     OW21316   3.743   2.230   0.647
 6807SOL    HW121317   3.661   2.273   0.686
 6807SOL    HW221318   3.715   2.157   0.584
 6808SOL     OW21319   4.059   3.297   1.061
 6808SOL    HW121320   3.981   3.266   1.008
 6808SOL    HW221321   4.117   3.355   1.004
 6809SOL     OW21322   3.955   3.575   0.483
 6809SOL    HW121323   3.989   3.652   0.537
 6809SOL    HW221324   3.999   3.575   0.393
 6810SOL     OW21325   3.954   3.296   0.538
 6810SOL    HW121326   3.928   3.392   0.538
 6810SOL    HW221327   3.883   3.242   0.583
 6811SOL     OW21328   3.846   2.505   0.563
 6811SOL    HW121329   3.801   2.417   0.580
 6811SOL    HW221330   3.845   2.559   0.647
 6812SOL     OW21331   3.751   3.458   0.117
 6812SOL    HW121332   3.732   3.362   0.138
 6812SOL    HW221333   3.718   3.516   0.192
 6813SOL     OW21334   3.837   2.599   1.597
 6813SOL    HW121335   3.925   2.586   1.642
 6813SOL    HW221336   3.824   2.696   1.575
 6814SOL     OW21337   3.800   2.673   0.789
 6814SOL    HW121338   3.899   2.661   0.798
 6814SOL    HW221339   3.776   2.768   0.810
 6815SOL     OW21340   3.854   3.683   1.571
 6815SOL    HW121341   3.844   3.668   1.670
 6815SOL    HW221342   3.768   3.719   1.535
 6816SOL     OW21343   3.926   2.147   1.498
 6816SOL    HW121344   3.846   2.207   1.485
 6816SOL    HW221345   3.916   2.098   1.584
 6817SOL     OW21346   3.802   2.418   1.386
 6817SOL    HW121347   3.894   2.417   1.345
 6817SOL    HW221348   3.796   2.492   1.453
 6818SOL     OW21349   3.788   3.426   1.331
 6818SOL    HW121350   3.742   3.508   1.297
 6818SOL    HW221351   3.886   3.445   1.340
 6819SOL     OW21352   4.091   2.962   0.501
 6819SOL    HW121353   4.084   3.045   0.445
 6819SOL    HW221354   4.095   2.882   0.441
 6820SOL     OW21355   4.031   2.075   1.231
 6820SOL    HW121356   4.008   2.112   1.321
 6820SOL    HW221357   4.001   1.980   1.225
 6821SOL     OW21358   3.761   3.172   1.282
 6821SOL    HW121359   3.814   3.123   1.350
 6821SOL    HW221360   3.783   3.270   1.287
 6822SOL     OW21361   4.031   1.925   0.618
 6822SOL    HW121362   4.020   2.019   0.651
 6822SOL    HW221363   4.026   1.862   0.695
 6823SOL     OW21364   3.732   3.188   0.200
 6823SOL    HW121365   3.639   3.209   0.169
 6823SOL    HW221366   3.742   3.089   0.213
 6824SOL     OW21367   3.812   3.663   0.927
 6824SOL    HW121368   3.770   3.577   0.900
 6824SOL    HW221369   3.906   3.666   0.893
 6825SOL     OW21370   4.228   3.430   0.910
 6825SOL    HW121371   4.294   3.504   0.919
 6825SOL    HW221372   4.272   3.351   0.868
 6826SOL     OW21373   3.764   2.406   1.114
 6826SOL    HW121374   3.849   2.373   1.073
 6826SOL    HW221375   3.777   2.421   1.212
 6827SOL     OW21376   3.913   2.382   1.722
 6827SOL    HW121377   3.972   2.342   1.652
 6827SOL    HW221378   3.855   2.453   1.681
 6828SOL     OW21379   3.976   3.426   1.744
 6828SOL    HW121380   3.946   3.483   1.820
 6828SOL    HW221381   3.969   3.329   1.770
 6829SOL     OW21382   3.883   2.999   1.466
 6829SOL    HW121383   3.905   2.938   1.542
 6829SOL    HW221384   3.893   2.950   1.380
 6830SOL     OW21385   3.807   3.120   1.022
 6830SOL    HW121386   3.802   3.119   1.122
 6830SOL    HW221387   3.724   3.079   0.984
 6831SOL     OW21388   3.854   3.656   1.851
 6831SOL    HW121389   3.813   3.582   1.904
 6831SOL    HW221390   3.918   3.707   1.909
 6832SOL     OW21391   3.799   2.207   0.033
 6832SOL    HW121392   3.707   2.179   0.004
 6832SOL    HW221393   3.830   2.284  -0.023
 6833SOL     OW21394   3.796   2.028   0.318
 6833SOL    HW121395   3.779   2.111   0.264
 6833SOL    HW221396   3.886   1.991   0.296
 6834SOL     OW21397   3.803   3.102   0.653
 6834SOL    HW121398   3.802   3.055   0.741
 6834SOL    HW221399   3.885   3.074   0.602
 6835SOL     OW21400   3.763   2.939   0.300
 6835SOL    HW121401   3.862   2.928   0.291
 6835SOL    HW221402   3.723   2.853   0.332
 6836SOL     OW21403   3.954   2.490   1.975
 6836SOL    HW121404   3.861   2.488   2.012
 6836SOL    HW221405   3.955   2.451   1.883
 6837SOL     OW21406   3.949   2.137   2.858
 6837SOL    HW121407   3.984   2.120   2.950
 6837SOL    HW221408   3.861   2.092   2.846
 6838SOL     OW21409   3.743   2.230   2.509
 6838SOL    HW121410   3.661   2.273   2.548
 6838SOL    HW221411   3.715   2.157   2.446
 6839SOL     OW21412   4.059   3.297   2.923
 6839SOL    HW121413   3.981   3.266   2.870
 6839SOL    HW221414   4.117   3.355   2.866
 6840SOL     OW21415   3.955   3.575   2.345
 6840SOL    HW121416   3.989   3.652   2.399
 6840SOL    HW221417   3.999   3.575   2.255
 6841SOL     OW21418   3.954   3.296   2.400
 6841SOL    HW121419   3.928   3.392   2.400
 6841SOL    HW221420   3.883   3.242   2.445
 6842SOL     OW21421   3.846   2.505   2.425
 6842SOL    HW121422   3.801   2.417   2.442
 6842SOL    HW221423   3.845   2.559   2.509
 6843SOL     OW21424   3.751   3.458   1.979
 6843SOL    HW121425   3.732   3.362   2.000
 6843SOL    HW221426   3.718   3.516   2.054
 6844SOL     OW21427   3.837   2.599   3.459
 6844SOL    HW121428   3.925   2.586   3.504
 6844SOL    HW221429   3.824   2.696   3.437
 6845SOL     OW21430   3.800   2.673   2.651
 6845SOL    HW121431   3.899   2.661   2.660
 6845SOL    HW221432   3.776   2.768   2.672
 6846SOL     OW21433   3.854   3.683   3.433
 6846SOL    HW121434   3.844   3.668   3.532
 6846SOL    HW221435   3.768   3.719   3.397
 6847SOL     OW21436   3.926   2.147   3.360
 6847SOL    HW121437   3.846   2.207   3.347
 6847SOL    HW221438   3.916   2.098   3.446
 6848SOL     OW21439   4.021   1.897   2.033
 6848SOL    HW121440   4.070   1.981   2.012
 6848SOL    HW221441   4.083   1.832   2.078
 6849SOL     OW21442   3.802   2.418   3.248
 6849SOL    HW121443   3.894   2.417   3.207
 6849SOL    HW221444   3.796   2.492   3.315
 6850SOL     OW21445   4.251   2.118   2.190
 6850SOL    HW121446   4.278   2.059   2.115
 6850SOL    HW221447   4.251   2.213   2.159
 6851SOL     OW21448   3.788   3.426   3.193
 6851SOL    HW121449   3.742   3.508   3.159
 6851SOL    HW221450   3.886   3.445   3.202
 6852SOL     OW21451   4.091   2.962   2.363
 6852SOL    HW121452   4.084   3.045   2.307
 6852SOL    HW221453   4.095   2.882   2.303
 6853SOL     OW21454   4.031   2.075   3.093
 6853SOL    HW121455   4.008   2.112   3.183
 6853SOL    HW221456   4.001   1.980   3.087
 6854SOL     OW21457   3.761   3.172   3.144
 6854SOL    HW121458   3.814   3.123   3.212
 6854SOL    HW221459   3.783   3.270   3.149
 6855SOL     OW21460   4.031   1.925   2.480
 6855SOL    HW121461   4.020   2.019   2.513
 6855SOL    HW221462   4.026   1.862   2.557
 6856SOL     OW21463   3.732   3.188   2.062
 6856SOL    HW121464   3.639   3.209   2.031
 6856SOL    HW221465   3.742   3.089   2.075
 6857SOL     OW21466   3.812   3.663   2.789
 6857SOL    HW121467   3.770   3.577   2.762
 6857SOL    HW221468   3.906   3.666   2.755
 6858SOL     OW21469   4.228   3.430   2.772
 6858SOL    HW121470   4.294   3.504   2.781
 6858SOL    HW221471   4.272   3.351   2.730
 6859SOL     OW21472   3.764   2.406   2.976
 6859SOL    HW121473   3.849   2.373   2.935
 6859SOL    HW221474   3.777   2.421   3.074
 6860SOL     OW21475   3.913   2.382   3.584
 6860SOL    HW121476   3.972   2.342   3.514
 6860SOL    HW221477   3.855   2.453   3.543
 6861SOL     OW21478   3.976   3.426   3.606
 6861SOL    HW121479   3.946   3.483   3.682
 6861SOL    HW221480   3.969   3.329   3.632
 6862SOL     OW21481   3.883   2.999   3.328
 6862SOL    HW121482   3.905   2.938   3.404
 6862SOL    HW221483   3.893   2.950   3.242
 6863SOL     OW21484   3.807   3.120   2.884
 6863SOL    HW121485   3.802   3.119   2.984
 6863SOL    HW221486   3.724   3.079   2.846
 6864SOL     OW21487   3.854   3.656   3.713
 6864SOL    HW121488   3.813   3.582   3.766
 6864SOL    HW221489   3.918   3.707   3.771
 6865SOL     OW21490   3.799   2.207   1.895
 6865SOL    HW121491   3.707   2.179   1.866
 6865SOL    HW221492   3.830   2.284   1.839
 6866SOL     OW21493   3.796   2.028   2.180
 6866SOL    HW121494   3.779   2.111   2.126
 6866SOL    HW221495   3.886   1.991   2.158
 6867SOL     OW21496   3.803   3.102   2.515
 6867SOL    HW121497   3.802   3.055   2.603
 6867SOL    HW221498   3.885   3.074   2.464
 6868SOL     OW21499   3.763   2.939   2.162
 6868SOL    HW121500   3.862   2.928   2.153
 6868SOL    HW221501   3.723   2.853   2.194
 6869SOL     OW21502   3.954   2.490   3.837
 6869SOL    HW121503   3.861   2.488   3.874
 6869SOL    HW221504   3.955   2.451   3.745
 6870SOL     OW21505   3.949   2.137   4.720
 6870SOL    HW121506   3.984   2.120   4.812
 6870SOL    HW221507   3.861   2.092   4.708
 6871SOL     OW21508   3.743   2.230   4.371
 6871SOL    HW121509   3.661   2.273   4.410
 6871SOL    HW221510   3.715   2.157   4.308
 6872SOL     OW21511   4.059   3.297   4.785
 6872SOL    HW121512   3.981   3.266   4.732
 6872SOL    HW221513   4.117   3.355   4.728
 6873SOL     OW21514   3.955   3.575   4.207
 6873SOL    HW121515   3.989   3.652   4.261
 6873SOL    HW221516   3.999   3.575   4.117
 6874SOL     OW21517   3.954   3.296   4.262
 6874SOL    HW121518   3.928   3.392   4.262
 6874SOL    HW221519   3.883   3.242   4.307
 6875SOL     OW21520   3.846   2.505   4.287
 6875SOL    HW121521   3.801   2.417   4.304
 6875SOL    HW221522   3.845   2.559   4.371
 6876SOL     OW21523   3.751   3.458   3.841
 6876SOL    HW121524   3.732   3.362   3.862
 6876SOL    HW221525   3.718   3.516   3.916
 6877SOL     OW21526   3.837   2.599   5.321
 6877SOL    HW121527   3.925   2.586   5.366
 6877SOL    HW221528   3.824   2.696   5.299
 6878SOL     OW21529   3.800   2.673   4.513
 6878SOL    HW121530   3.899   2.661   4.522
 6878SOL    HW221531   3.776   2.768   4.534
 6879SOL     OW21532   3.854   3.683   5.295
 6879SOL    HW121533   3.844   3.668   5.394
 6879SOL    HW221534   3.768   3.719   5.259
 6880SOL     OW21535   3.926   2.147   5.222
 6880SOL    HW121536   3.846   2.207   5.209
 6880SOL    HW221537   3.916   2.098   5.308
 6881SOL     OW21538   4.021   1.897   3.895
 6881SOL    HW121539   4.070   1.981   3.874
 6881SOL    HW221540   4.083   1.832   3.940
 6882SOL     OW21541   3.802   2.418   5.110
 6882SOL    HW121542   3.894   2.417   5.069
 6882SOL    HW221543   3.796   2.492   5.177
 6883SOL     OW21544   4.251   2.118   4.052
 6883SOL    HW121545   4.278   2.059   3.977
 6883SOL    HW221546   4.251   2.213   4.021
 6884SOL     OW21547   3.788   3.426   5.055
 6884SOL    HW121548   3.742   3.508   5.021
 6884SOL    HW221549   3.886   3.445   5.064
 6885SOL     OW21550   4.091   2.962   4.225
 6885SOL    HW121551   4.084   3.045   4.169
 6885SOL    HW221552   4.095   2.882   4.165
 6886SOL     OW21553   4.031   2.075   4.955
 6886SOL    HW121554   4.008   2.112   5.045
 6886SOL    HW221555   4.001   1.980   4.949
 6887SOL     OW21556   3.761   3.172   5.006
 6887SOL    HW121557   3.814   3.123   5.074
 6887SOL    HW221558   3.783   3.270   5.011
 6888SOL     OW21559   4.031   1.925   4.342
 6888SOL    HW121560   4.020   2.019   4.375
 6888SOL    HW221561   4.026   1.862   4.419
 6889SOL     OW21562   3.732   3.188   3.924
 6889SOL    HW121563   3.639   3.209   3.893
 6889SOL    HW221564   3.742   3.089   3.937
 6890SOL     OW21565   3.812   3.663   4.651
 6890SOL    HW121566   3.770   3.577   4.624
 6890SOL    HW221567   3.906   3.666   4.617
 6891SOL     OW21568   4.228   3.430   4.634
 6891SOL    HW121569   4.294   3.504   4.643
 6891SOL    HW221570   4.272   3.351   4.592
 6892SOL     OW21571   3.764   2.406   4.838
 6892SOL    HW121572   3.849   2.373   4.797
 6892SOL    HW221573   3.777   2.421   4.936
 6893SOL     OW21574   3.913   2.382   5.446
 6893SOL    HW121575   3.972   2.342   5.376
 6893SOL    HW221576   3.855   2.453   5.405
 6894SOL     OW21577   3.976   3.426   5.468
 6894SOL    HW121578   3.946   3.483   5.544
 6894SOL    HW221579   3.969   3.329   5.494
 6895SOL     OW21580   3.883   2.999   5.190
 6895SOL    HW121581   3.905   2.938   5.266
 6895SOL    HW221582   3.893   2.950   5.104
 6896SOL     OW21583   3.807   3.120   4.746
 6896SOL    HW121584   3.802   3.119   4.846
 6896SOL    HW221585   3.724   3.079   4.708
 6897SOL     OW21586   3.854   3.656   5.575
 6897SOL    HW121587   3.813   3.582   5.628
 6897SOL    HW221588   3.918   3.707   5.633
 6898SOL     OW21589   3.799   2.207   3.757
 6898SOL    HW121590   3.707   2.179   3.728
 6898SOL    HW221591   3.830   2.284   3.701
 6899SOL     OW21592   3.796   2.028   4.042
 6899SOL    HW121593   3.779   2.111   3.988
 6899SOL    HW221594   3.886   1.991   4.020
 6900SOL     OW21595   3.803   3.102   4.377
 6900SOL    HW121596   3.802   3.055   4.465
 6900SOL    HW221597   3.885   3.074   4.326
 6901SOL     OW21598   3.763   2.939   4.024
 6901SOL    HW121599   3.862   2.928   4.015
 6901SOL    HW221600   3.723   2.853   4.056
 6902SOL     OW21601   3.954   2.490   5.699
 6902SOL    HW121602   3.861   2.488   5.736
 6902SOL    HW221603   3.955   2.451   5.607
 6903SOL     OW21604   3.949   2.137   6.582
 6903SOL    HW121605   3.984   2.120   6.674
 6903SOL    HW221606   3.861   2.092   6.570
 6904SOL     OW21607   3.743   2.230   6.233
 6904SOL    HW121608   3.661   2.273   6.272
 6904SOL    HW221609   3.715   2.157   6.170
 6905SOL     OW21610   4.059   3.297   6.647
 6905SOL    HW121611   3.981   3.266   6.594
 6905SOL    HW221612   4.117   3.355   6.590
 6906SOL     OW21613   3.955   3.575   6.069
 6906SOL    HW121614   3.989   3.652   6.123
 6906SOL    HW221615   3.999   3.575   5.979
 6907SOL     OW21616   3.954   3.296   6.124
 6907SOL    HW121617   3.928   3.392   6.124
 6907SOL    HW221618   3.883   3.242   6.169
 6908SOL     OW21619   3.846   2.505   6.149
 6908SOL    HW121620   3.801   2.417   6.166
 6908SOL    HW221621   3.845   2.559   6.233
 6909SOL     OW21622   3.751   3.458   5.703
 6909SOL    HW121623   3.732   3.362   5.724
 6909SOL    HW221624   3.718   3.516   5.778
 6910SOL     OW21625   3.837   2.599   7.183
 6910SOL    HW121626   3.925   2.586   7.228
 6910SOL    HW221627   3.824   2.696   7.161
 6911SOL     OW21628   3.800   2.673   6.375
 6911SOL    HW121629   3.899   2.661   6.384
 6911SOL    HW221630   3.776   2.768   6.396
 6912SOL     OW21631   3.854   3.683   7.157
 6912SOL    HW121632   3.844   3.668   7.256
 6912SOL    HW221633   3.768   3.719   7.121
 6913SOL     OW21634   3.926   2.147   7.084
 6913SOL    HW121635   3.846   2.207   7.071
 6913SOL    HW221636   3.916   2.098   7.170
 6914SOL     OW21637   4.021   1.897   5.757
 6914SOL    HW121638   4.070   1.981   5.736
 6914SOL    HW221639   4.083   1.832   5.802
 6915SOL     OW21640   3.802   2.418   6.972
 6915SOL    HW121641   3.894   2.417   6.931
 6915SOL    HW221642   3.796   2.492   7.039
 6916SOL     OW21643   4.251   2.118   5.914
 6916SOL    HW121644   4.278   2.059   5.839
 6916SOL    HW221645   4.251   2.213   5.883
 6917SOL     OW21646   3.788   3.426   6.917
 6917SOL    HW121647   3.742   3.508   6.883
 6917SOL    HW221648   3.886   3.445   6.926
 6918SOL     OW21649   4.091   2.962   6.087
 6918SOL    HW121650   4.084   3.045   6.031
 6918SOL    HW221651   4.095   2.882   6.027
 6919SOL     OW21652   4.031   2.075   6.817
 6919SOL    HW121653   4.008   2.112   6.907
 6919SOL    HW221654   4.001   1.980   6.811
 6920SOL     OW21655   3.761   3.172   6.868
 6920SOL    HW121656   3.814   3.123   6.936
 6920SOL    HW221657   3.783   3.270   6.873
 6921SOL     OW21658   4.031   1.925   6.204
 6921SOL    HW121659   4.020   2.019   6.237
 6921SOL    HW221660   4.026   1.862   6.281
 6922SOL     OW21661   3.732   3.188   5.786
 6922SOL    HW121662   3.639   3.209   5.755
 6922SOL    HW221663   3.742   3.089   5.799
 6923SOL     OW21664   3.812   3.663   6.513
 6923SOL    HW121665   3.770   3.577   6.486
 6923SOL    HW221666   3.906   3.666   6.479
 6924SOL     OW21667   4.228   3.430   6.496
 6924SOL    HW121668   4.294   3.504   6.505
 6924SOL    HW221669   4.272   3.351   6.454
 6925SOL     OW21670   3.764   2.406   6.700
 6925SOL    HW121671   3.849   2.373   6.659
 6925SOL    HW221672   3.777   2.421   6.798
 6926SOL     OW21673   3.913   2.382   7.308
 6926SOL    HW121674   3.972   2.342   7.238
 6926SOL    HW221675   3.855   2.453   7.267
 6927SOL     OW21676   3.976   3.426   7.330
 6927SOL    HW121677   3.946   3.483   7.406
 6927SOL    HW221678   3.969   3.329   7.356
 6928SOL     OW21679   3.883   2.999   7.052
 6928SOL    HW121680   3.905   2.938   7.128
 6928SOL    HW221681   3.893   2.950   6.966
 6929SOL     OW21682   3.807   3.120   6.608
 6929SOL    HW121683   3.802   3.119   6.708
 6929SOL    HW221684   3.724   3.079   6.570
 6930SOL     OW21685   3.854   3.656   7.437
 6930SOL    HW121686   3.813   3.582   7.490
 6930SOL    HW221687   3.918   3.707   7.495
 6931SOL     OW21688   3.799   2.207   5.619
 6931SOL    HW121689   3.707   2.179   5.590
 6931SOL    HW221690   3.830   2.284   5.563
 6932SOL     OW21691   3.796   2.028   5.904
 6932SOL    HW121692   3.779   2.111   5.850
 6932SOL    HW221693   3.886   1.991   5.882
 6933SOL     OW21694   3.803   3.102   6.239
 6933SOL    HW121695   3.802   3.055   6.327
 6933SOL    HW221696   3.885   3.074   6.188
 6934SOL     OW21697   3.763   2.939   5.886
 6934SOL    HW121698   3.862   2.928   5.877
 6934SOL    HW221699   3.723   2.853   5.918
 6935SOL     OW21700   3.954   2.490   7.561
 6935SOL    HW121701   3.861   2.488   7.598
 6935SOL    HW221702   3.955   2.451   7.469
 6936SOL     OW21703   3.949   2.137   8.444
 6936SOL    HW121704   3.984   2.120   8.536
 6936SOL    HW221705   3.861   2.092   8.432
 6937SOL     OW21706   3.743   2.230   8.095
 6937SOL    HW121707   3.661   2.273   8.134
 6937SOL    HW221708   3.715   2.157   8.032
 6938SOL     OW21709   4.059   3.297   8.509
 6938SOL    HW121710   3.981   3.266   8.456
 6938SOL    HW221711   4.117   3.355   8.452
 6939SOL     OW21712   3.955   3.575   7.931
 6939SOL    HW121713   3.989   3.652   7.985
 6939SOL    HW221714   3.999   3.575   7.841
 6940SOL     OW21715   3.954   3.296   7.986
 6940SOL    HW121716   3.928   3.392   7.986
 6940SOL    HW221717   3.883   3.242   8.031
 6941SOL     OW21718   3.846   2.505   8.011
 6941SOL    HW121719   3.801   2.417   8.028
 6941SOL    HW221720   3.845   2.559   8.095
 6942SOL     OW21721   3.751   3.458   7.565
 6942SOL    HW121722   3.732   3.362   7.586
 6942SOL    HW221723   3.718   3.516   7.640
 6943SOL     OW21724   3.837   2.599   9.045
 6943SOL    HW121725   3.925   2.586   9.090
 6943SOL    HW221726   3.824   2.696   9.023
 6944SOL     OW21727   3.800   2.673   8.237
 6944SOL    HW121728   3.899   2.661   8.246
 6944SOL    HW221729   3.776   2.768   8.258
 6945SOL     OW21730   3.854   3.683   9.019
 6945SOL    HW121731   3.844   3.668   9.118
 6945SOL    HW221732   3.768   3.719   8.983
 6946SOL     OW21733   3.926   2.147   8.946
 6946SOL    HW121734   3.846   2.207   8.933
 6946SOL    HW221735   3.916   2.098   9.032
 6947SOL     OW21736   4.021   1.897   7.619
 6947SOL    HW121737   4.070   1.981   7.598
 6947SOL    HW221738   4.083   1.832   7.664
 6948SOL     OW21739   3.802   2.418   8.834
 6948SOL    HW121740   3.894   2.417   8.793
 6948SOL    HW221741   3.796   2.492   8.901
 6949SOL     OW21742   4.251   2.118   7.776
 6949SOL    HW121743   4.278   2.059   7.701
 6949SOL    HW221744   4.251   2.213   7.745
 6950SOL     OW21745   3.788   3.426   8.779
 6950SOL    HW121746   3.742   3.508   8.745
 6950SOL    HW221747   3.886   3.445   8.788
 6951SOL     OW21748   4.091   2.962   7.949
 6951SOL    HW121749   4.084   3.045   7.893
 6951SOL    HW221750   4.095   2.882   7.889
 6952SOL     OW21751   4.031   2.075   8.679
 6952SOL    HW121752   4.008   2.112   8.769
 6952SOL    HW221753   4.001   1.980   8.673
 6953SOL     OW21754   3.761   3.172   8.730
 6953SOL    HW121755   3.814   3.123   8.798
 6953SOL    HW221756   3.783   3.270   8.735
 6954SOL     OW21757   4.031   1.925   8.066
 6954SOL    HW121758   4.020   2.019   8.099
 6954SOL    HW221759   4.026   1.862   8.143
 6955SOL     OW21760   3.732   3.188   7.648
 6955SOL    HW121761   3.639   3.209   7.617
 6955SOL    HW221762   3.742   3.089   7.661
 6956SOL     OW21763   3.812   3.663   8.375
 6956SOL    HW121764   3.770   3.577   8.348
 6956SOL    HW221765   3.906   3.666   8.341
 6957SOL     OW21766   4.228   3.430   8.358
 6957SOL    HW121767   4.294   3.504   8.367
 6957SOL    HW221768   4.272   3.351   8.316
 6958SOL     OW21769   3.764   2.406   8.562
 6958SOL    HW121770   3.849   2.373   8.521
 6958SOL    HW221771   3.777   2.421   8.660
 6959SOL     OW21772   3.913   2.382   9.170
 6959SOL    HW121773   3.972   2.342   9.100
 6959SOL    HW221774   3.855   2.453   9.129
 6960SOL     OW21775   3.976   3.426   9.192
 6960SOL    HW121776   3.946   3.483   9.268
 6960SOL    HW221777   3.969   3.329   9.218
 6961SOL     OW21778   3.883   2.999   8.914
 6961SOL    HW121779   3.905   2.938   8.990
 6961SOL    HW221780   3.893   2.950   8.828
 6962SOL     OW21781   3.807   3.120   8.470
 6962SOL    HW121782   3.802   3.119   8.570
 6962SOL    HW221783   3.724   3.079   8.432
 6963SOL     OW21784   3.854   3.656   9.299
 6963SOL    HW121785   3.813   3.582   9.352
 6963SOL    HW221786   3.918   3.707   9.357
 6964SOL     OW21787   3.799   2.207   7.481
 6964SOL    HW121788   3.707   2.179   7.452
 6964SOL    HW221789   3.830   2.284   7.425
 6965SOL     OW21790   3.796   2.028   7.766
 6965SOL    HW121791   3.779   2.111   7.712
 6965SOL    HW221792   3.886   1.991   7.744
 6966SOL     OW21793   3.803   3.102   8.101
 6966SOL    HW121794   3.802   3.055   8.189
 6966SOL    HW221795   3.885   3.074   8.050
 6967SOL     OW21796   3.763   2.939   7.748
 6967SOL    HW121797   3.862   2.928   7.739
 6967SOL    HW221798   3.723   2.853   7.780
 6968SOL     OW21799   3.954   2.490   9.423
 6968SOL    HW121800   3.861   2.488   9.460
 6968SOL    HW221801   3.955   2.451   9.331
 6969SOL     OW21802   3.949   2.137  10.306
 6969SOL    HW121803   3.984   2.120  10.398
 6969SOL    HW221804   3.861   2.092  10.294
 6970SOL     OW21805   3.743   2.230   9.957
 6970SOL    HW121806   3.661   2.273   9.996
 6970SOL    HW221807   3.715   2.157   9.894
 6971SOL     OW21808   4.059   3.297  10.371
 6971SOL    HW121809   3.981   3.266  10.318
 6971SOL    HW221810   4.117   3.355  10.314
 6972SOL     OW21811   3.955   3.575   9.793
 6972SOL    HW121812   3.989   3.652   9.847
 6972SOL    HW221813   3.999   3.575   9.703
 6973SOL     OW21814   3.954   3.296   9.848
 6973SOL    HW121815   3.928   3.392   9.848
 6973SOL    HW221816   3.883   3.242   9.893
 6974SOL     OW21817   3.846   2.505   9.873
 6974SOL    HW121818   3.801   2.417   9.890
 6974SOL    HW221819   3.845   2.559   9.957
 6975SOL     OW21820   3.751   3.458   9.427
 6975SOL    HW121821   3.732   3.362   9.448
 6975SOL    HW221822   3.718   3.516   9.502
 6976SOL     OW21823   3.837   2.599  10.907
 6976SOL    HW121824   3.925   2.586  10.952
 6976SOL    HW221825   3.824   2.696  10.885
 6977SOL     OW21826   3.800   2.673  10.099
 6977SOL    HW121827   3.899   2.661  10.108
 6977SOL    HW221828   3.776   2.768  10.120
 6978SOL     OW21829   3.854   3.683  10.881
 6978SOL    HW121830   3.844   3.668  10.980
 6978SOL    HW221831   3.768   3.719  10.845
 6979SOL     OW21832   3.926   2.147  10.808
 6979SOL    HW121833   3.846   2.207  10.795
 6979SOL    HW221834   3.916   2.098  10.894
 6980SOL     OW21835   4.021   1.897   9.481
 6980SOL    HW121836   4.070   1.981   9.460
 6980SOL    HW221837   4.083   1.832   9.526
 6981SOL     OW21838   3.802   2.418  10.696
 6981SOL    HW121839   3.894   2.417  10.655
 6981SOL    HW221840   3.796   2.492  10.763
 6982SOL     OW21841   4.251   2.118   9.638
 6982SOL    HW121842   4.278   2.059   9.563
 6982SOL    HW221843   4.251   2.213   9.607
 6983SOL     OW21844   3.788   3.426  10.641
 6983SOL    HW121845   3.742   3.508  10.607
 6983SOL    HW221846   3.886   3.445  10.650
 6984SOL     OW21847   4.091   2.962   9.811
 6984SOL    HW121848   4.084   3.045   9.755
 6984SOL    HW221849   4.095   2.882   9.751
 6985SOL     OW21850   4.031   2.075  10.541
 6985SOL    HW121851   4.008   2.112  10.631
 6985SOL    HW221852   4.001   1.980  10.535
 6986SOL     OW21853   3.761   3.172  10.592
 6986SOL    HW121854   3.814   3.123  10.660
 6986SOL    HW221855   3.783   3.270  10.597
 6987SOL     OW21856   4.031   1.925   9.928
 6987SOL    HW121857   4.020   2.019   9.961
 6987SOL    HW221858   4.026   1.862  10.005
 6988SOL     OW21859   3.732   3.188   9.510
 6988SOL    HW121860   3.639   3.209   9.479
 6988SOL    HW221861   3.742   3.089   9.523
 6989SOL     OW21862   3.812   3.663  10.237
 6989SOL    HW121863   3.770   3.577  10.210
 6989SOL    HW221864   3.906   3.666  10.203
 6990SOL     OW21865   4.228   3.430  10.220
 6990SOL    HW121866   4.294   3.504  10.229
 6990SOL    HW221867   4.272   3.351  10.178
 6991SOL     OW21868   3.764   2.406  10.424
 6991SOL    HW121869   3.849   2.373  10.383
 6991SOL    HW221870   3.777   2.421  10.522
 6992SOL     OW21871   3.913   2.382  11.032
 6992SOL    HW121872   3.972   2.342  10.962
 6992SOL    HW221873   3.855   2.453  10.991
 6993SOL     OW21874   3.976   3.426  11.054
 6993SOL    HW121875   3.946   3.483  11.130
 6993SOL    HW221876   3.969   3.329  11.080
 6994SOL     OW21877   3.883   2.999  10.776
 6994SOL    HW121878   3.905   2.938  10.852
 6994SOL    HW221879   3.893   2.950  10.690
 6995SOL     OW21880   3.807   3.120  10.332
 6995SOL    HW121881   3.802   3.119  10.432
 6995SOL    HW221882   3.724   3.079  10.294
 6996SOL     OW21883   3.854   3.656  11.161
 6996SOL    HW121884   3.813   3.582  11.214
 6996SOL    HW221885   3.918   3.707  11.219
 6997SOL     OW21886   3.799   2.207   9.343
 6997SOL    HW121887   3.707   2.179   9.314
 6997SOL    HW221888   3.830   2.284   9.287
 6998SOL     OW21889   3.796   2.028   9.628
 6998SOL    HW121890   3.779   2.111   9.574
 6998SOL    HW221891   3.886   1.991   9.606
 6999SOL     OW21892   3.803   3.102   9.963
 6999SOL    HW121893   3.802   3.055  10.051
 6999SOL    HW221894   3.885   3.074   9.912
 7000SOL     OW21895   3.763   2.939   9.610
 7000SOL    HW121896   3.862   2.928   9.601
 7000SOL    HW221897   3.723   2.853   9.642
 7001SOL     OW21898   3.954   2.490  11.285
 7001SOL    HW121899   3.861   2.488  11.322
 7001SOL    HW221900   3.955   2.451  11.193
 7002SOL     OW21901   3.949   2.137  12.168
 7002SOL    HW121902   3.984   2.120  12.260
 7002SOL    HW221903   3.861   2.092  12.156
 7003SOL     OW21904   3.743   2.230  11.819
 7003SOL    HW121905   3.661   2.273  11.858
 7003SOL    HW221906   3.715   2.157  11.756
 7004SOL     OW21907   4.059   3.297  12.233
 7004SOL    HW121908   3.981   3.266  12.180
 7004SOL    HW221909   4.117   3.355  12.176
 7005SOL     OW21910   3.955   3.575  11.655
 7005SOL    HW121911   3.989   3.652  11.709
 7005SOL    HW221912   3.999   3.575  11.565
 7006SOL     OW21913   3.954   3.296  11.710
 7006SOL    HW121914   3.928   3.392  11.710
 7006SOL    HW221915   3.883   3.242  11.755
 7007SOL     OW21916   3.846   2.505  11.735
 7007SOL    HW121917   3.801   2.417  11.752
 7007SOL    HW221918   3.845   2.559  11.819
 7008SOL     OW21919   3.751   3.458  11.289
 7008SOL    HW121920   3.732   3.362  11.310
 7008SOL    HW221921   3.718   3.516  11.364
 7009SOL     OW21922   3.837   2.599  12.769
 7009SOL    HW121923   3.925   2.586  12.814
 7009SOL    HW221924   3.824   2.696  12.747
 7010SOL     OW21925   3.800   2.673  11.961
 7010SOL    HW121926   3.899   2.661  11.970
 7010SOL    HW221927   3.776   2.768  11.982
 7011SOL     OW21928   3.854   3.683  12.743
 7011SOL    HW121929   3.844   3.668  12.842
 7011SOL    HW221930   3.768   3.719  12.707
 7012SOL     OW21931   3.926   2.147  12.670
 7012SOL    HW121932   3.846   2.207  12.657
 7012SOL    HW221933   3.916   2.098  12.756
 7013SOL     OW21934   4.021   1.897  11.343
 7013SOL    HW121935   4.070   1.981  11.322
 7013SOL    HW221936   4.083   1.832  11.388
 7014SOL     OW21937   3.802   2.418  12.558
 7014SOL    HW121938   3.894   2.417  12.517
 7014SOL    HW221939   3.796   2.492  12.625
 7015SOL     OW21940   4.251   2.118  11.500
 7015SOL    HW121941   4.278   2.059  11.425
 7015SOL    HW221942   4.251   2.213  11.469
 7016SOL     OW21943   3.788   3.426  12.503
 7016SOL    HW121944   3.742   3.508  12.469
 7016SOL    HW221945   3.886   3.445  12.512
 7017SOL     OW21946   4.091   2.962  11.673
 7017SOL    HW121947   4.084   3.045  11.617
 7017SOL    HW221948   4.095   2.882  11.613
 7018SOL     OW21949   4.031   2.075  12.403
 7018SOL    HW121950   4.008   2.112  12.493
 7018SOL    HW221951   4.001   1.980  12.397
 7019SOL     OW21952   3.761   3.172  12.454
 7019SOL    HW121953   3.814   3.123  12.522
 7019SOL    HW221954   3.783   3.270  12.459
 7020SOL     OW21955   4.031   1.925  11.790
 7020SOL    HW121956   4.020   2.019  11.823
 7020SOL    HW221957   4.026   1.862  11.867
 7021SOL     OW21958   3.732   3.188  11.372
 7021SOL    HW121959   3.639   3.209  11.341
 7021SOL    HW221960   3.742   3.089  11.385
 7022SOL     OW21961   3.812   3.663  12.099
 7022SOL    HW121962   3.770   3.577  12.072
 7022SOL    HW221963   3.906   3.666  12.065
 7023SOL     OW21964   4.228   3.430  12.082
 7023SOL    HW121965   4.294   3.504  12.091
 7023SOL    HW221966   4.272   3.351  12.040
 7024SOL     OW21967   3.764   2.406  12.286
 7024SOL    HW121968   3.849   2.373  12.245
 7024SOL    HW221969   3.777   2.421  12.384
 7025SOL     OW21970   3.913   2.382  12.894
 7025SOL    HW121971   3.972   2.342  12.824
 7025SOL    HW221972   3.855   2.453  12.853
 7026SOL     OW21973   3.976   3.426  12.916
 7026SOL    HW121974   3.946   3.483  12.992
 7026SOL    HW221975   3.969   3.329  12.942
 7027SOL     OW21976   3.883   2.999  12.638
 7027SOL    HW121977   3.905   2.938  12.714
 7027SOL    HW221978   3.893   2.950  12.552
 7028SOL     OW21979   3.807   3.120  12.194
 7028SOL    HW121980   3.802   3.119  12.294
 7028SOL    HW221981   3.724   3.079  12.156
 7029SOL     OW21982   3.854   3.656  13.023
 7029SOL    HW121983   3.813   3.582  13.076
 7029SOL    HW221984   3.918   3.707  13.081
 7030SOL     OW21985   3.799   2.207  11.205
 7030SOL    HW121986   3.707   2.179  11.176
 7030SOL    HW221987   3.830   2.284  11.149
 7031SOL     OW21988   3.796   2.028  11.490
 7031SOL    HW121989   3.779   2.111  11.436
 7031SOL    HW221990   3.886   1.991  11.468
 7032SOL     OW21991   3.803   3.102  11.825
 7032SOL    HW121992   3.802   3.055  11.913
 7032SOL    HW221993   3.885   3.074  11.774
 7033SOL     OW21994   3.763   2.939  11.472
 7033SOL    HW121995   3.862   2.928  11.463
 7033SOL    HW221996   3.723   2.853  11.504
 7034SOL     OW21997   3.954   2.490  13.147
 7034SOL    HW121998   3.861   2.488  13.184
 7034SOL    HW221999   3.955   2.451  13.055
 7035SOL     OW22000   3.743   2.230  13.681
 7035SOL    HW122001   3.661   2.273  13.720
 7035SOL    HW222002   3.715   2.157  13.618
 7036SOL     OW22003   3.955   3.575  13.517
 7036SOL    HW122004   3.989   3.652  13.571
 7036SOL    HW222005   3.999   3.575  13.427
 7037SOL     OW22006   3.954   3.296  13.572
 7037SOL    HW122007   3.928   3.392  13.572
 7037SOL    HW222008   3.883   3.242  13.617
 7038SOL     OW22009   3.964   2.953  13.920
 7038SOL    HW122010   3.978   2.869  13.972
 7038SOL    HW222011   3.909   3.017  13.975
 7039SOL     OW22012   3.846   2.505  13.597
 7039SOL    HW122013   3.801   2.417  13.614
 7039SOL    HW222014   3.845   2.559  13.681
 7040SOL     OW22015   3.751   3.458  13.151
 7040SOL    HW122016   3.732   3.362  13.172
 7040SOL    HW222017   3.718   3.516  13.226
 7041SOL     OW22018   3.800   2.673  13.823
 7041SOL    HW122019   3.899   2.661  13.832
 7041SOL    HW222020   3.776   2.768  13.844
 7042SOL     OW22021   4.075   3.663  13.887
 7042SOL    HW122022   4.125   3.577  13.893
 7042SOL    HW222023   4.140   3.740  13.884
 7043SOL     OW22024   4.021   1.897  13.205
 7043SOL    HW122025   4.070   1.981  13.184
 7043SOL    HW222026   4.083   1.832  13.250
 7044SOL     OW22027   4.251   2.118  13.362
 7044SOL    HW122028   4.278   2.059  13.287
 7044SOL    HW222029   4.251   2.213  13.331
 7045SOL     OW22030   4.091   2.962  13.535
 7045SOL    HW122031   4.084   3.045  13.479
 7045SOL    HW222032   4.095   2.882  13.475
 7046SOL     OW22033   4.031   1.925  13.652
 7046SOL    HW122034   4.020   2.019  13.685
 7046SOL    HW222035   4.026   1.862  13.729
 7047SOL     OW22036   3.732   3.188  13.234
 7047SOL    HW122037   3.639   3.209  13.203
 7047SOL    HW222038   3.742   3.089  13.247
 7048SOL     OW22039   4.228   3.430  13.944
 7048SOL    HW122040   4.294   3.504  13.953
 7048SOL    HW222041   4.272   3.351  13.902
 7049SOL     OW22042   3.799   2.207  13.067
 7049SOL    HW122043   3.707   2.179  13.038
 7049SOL    HW222044   3.830   2.284  13.011
 7050SOL     OW22045   3.796   2.028  13.352
 7050SOL    HW122046   3.779   2.111  13.298
 7050SOL    HW222047   3.886   1.991  13.330
 7051SOL     OW22048   3.803   3.102  13.687
 7051SOL    HW122049   3.802   3.055  13.775
 7051SOL    HW222050   3.885   3.074  13.636
 7052SOL     OW22051   3.763   2.939  13.334
 7052SOL    HW122052   3.862   2.928  13.325
 7052SOL    HW222053   3.723   2.853  13.366
 7053SOL     OW22054   3.949   3.999   0.996
 7053SOL    HW122055   3.984   3.982   1.088
 7053SOL    HW222056   3.861   3.954   0.984
 7054SOL     OW22057   3.743   4.092   0.647
 7054SOL    HW122058   3.661   4.135   0.686
 7054SOL    HW222059   3.715   4.019   0.584
 7055SOL     OW22060   3.926   4.009   1.498
 7055SOL    HW122061   3.846   4.069   1.485
 7055SOL    HW222062   3.916   3.960   1.584
 7056SOL     OW22063   4.021   3.759   0.171
 7056SOL    HW122064   4.070   3.843   0.150
 7056SOL    HW222065   4.083   3.694   0.216
 7057SOL     OW22066   4.031   3.937   1.231
 7057SOL    HW122067   4.008   3.974   1.321
 7057SOL    HW222068   4.001   3.842   1.225
 7058SOL     OW22069   4.031   3.787   0.618
 7058SOL    HW122070   4.020   3.881   0.651
 7058SOL    HW222071   4.026   3.724   0.695
 7059SOL     OW22072   3.796   3.890   0.318
 7059SOL    HW122073   3.779   3.973   0.264
 7059SOL    HW222074   3.886   3.853   0.296
 7060SOL     OW22075   3.949   3.999   2.858
 7060SOL    HW122076   3.984   3.982   2.950
 7060SOL    HW222077   3.861   3.954   2.846
 7061SOL     OW22078   3.743   4.092   2.509
 7061SOL    HW122079   3.661   4.135   2.548
 7061SOL    HW222080   3.715   4.019   2.446
 7062SOL     OW22081   3.926   4.009   3.360
 7062SOL    HW122082   3.846   4.069   3.347
 7062SOL    HW222083   3.916   3.960   3.446
 7063SOL     OW22084   4.021   3.759   2.033
 7063SOL    HW122085   4.070   3.843   2.012
 7063SOL    HW222086   4.083   3.694   2.078
 7064SOL     OW22087   4.031   3.937   3.093
 7064SOL    HW122088   4.008   3.974   3.183
 7064SOL    HW222089   4.001   3.842   3.087
 7065SOL     OW22090   4.031   3.787   2.480
 7065SOL    HW122091   4.020   3.881   2.513
 7065SOL    HW222092   4.026   3.724   2.557
 7066SOL     OW22093   3.799   4.069   1.895
 7066SOL    HW122094   3.707   4.041   1.866
 7066SOL    HW222095   3.830   4.146   1.839
 7067SOL     OW22096   3.796   3.890   2.180
 7067SOL    HW122097   3.779   3.973   2.126
 7067SOL    HW222098   3.886   3.853   2.158
 7068SOL     OW22099   3.949   3.999   4.720
 7068SOL    HW122100   3.984   3.982   4.812
 7068SOL    HW222101   3.861   3.954   4.708
 7069SOL     OW22102   3.743   4.092   4.371
 7069SOL    HW122103   3.661   4.135   4.410
 7069SOL    HW222104   3.715   4.019   4.308
 7070SOL     OW22105   3.926   4.009   5.222
 7070SOL    HW122106   3.846   4.069   5.209
 7070SOL    HW222107   3.916   3.960   5.308
 7071SOL     OW22108   4.021   3.759   3.895
 7071SOL    HW122109   4.070   3.843   3.874
 7071SOL    HW222110   4.083   3.694   3.940
 7072SOL     OW22111   4.031   3.937   4.955
 7072SOL    HW122112   4.008   3.974   5.045
 7072SOL    HW222113   4.001   3.842   4.949
 7073SOL     OW22114   4.031   3.787   4.342
 7073SOL    HW122115   4.020   3.881   4.375
 7073SOL    HW222116   4.026   3.724   4.419
 7074SOL     OW22117   3.799   4.069   3.757
 7074SOL    HW122118   3.707   4.041   3.728
 7074SOL    HW222119   3.830   4.146   3.701
 7075SOL     OW22120   3.796   3.890   4.042
 7075SOL    HW122121   3.779   3.973   3.988
 7075SOL    HW222122   3.886   3.853   4.020
 7076SOL     OW22123   3.949   3.999   6.582
 7076SOL    HW122124   3.984   3.982   6.674
 7076SOL    HW222125   3.861   3.954   6.570
 7077SOL     OW22126   3.743   4.092   6.233
 7077SOL    HW122127   3.661   4.135   6.272
 7077SOL    HW222128   3.715   4.019   6.170
 7078SOL     OW22129   3.926   4.009   7.084
 7078SOL    HW122130   3.846   4.069   7.071
 7078SOL    HW222131   3.916   3.960   7.170
 7079SOL     OW22132   4.021   3.759   5.757
 7079SOL    HW122133   4.070   3.843   5.736
 7079SOL    HW222134   4.083   3.694   5.802
 7080SOL     OW22135   4.031   3.937   6.817
 7080SOL    HW122136   4.008   3.974   6.907
 7080SOL    HW222137   4.001   3.842   6.811
 7081SOL     OW22138   4.031   3.787   6.204
 7081SOL    HW122139   4.020   3.881   6.237
 7081SOL    HW222140   4.026   3.724   6.281
 7082SOL     OW22141   3.799   4.069   5.619
 7082SOL    HW122142   3.707   4.041   5.590
 7082SOL    HW222143   3.830   4.146   5.563
 7083SOL     OW22144   3.796   3.890   5.904
 7083SOL    HW122145   3.779   3.973   5.850
 7083SOL    HW222146   3.886   3.853   5.882
 7084SOL     OW22147   3.949   3.999   8.444
 7084SOL    HW122148   3.984   3.982   8.536
 7084SOL    HW222149   3.861   3.954   8.432
 7085SOL     OW22150   3.743   4.092   8.095
 7085SOL    HW122151   3.661   4.135   8.134
 7085SOL    HW222152   3.715   4.019   8.032
 7086SOL     OW22153   3.926   4.009   8.946
 7086SOL    HW122154   3.846   4.069   8.933
 7086SOL    HW222155   3.916   3.960   9.032
 7087SOL     OW22156   4.021   3.759   7.619
 7087SOL    HW122157   4.070   3.843   7.598
 7087SOL    HW222158   4.083   3.694   7.664
 7088SOL     OW22159   4.031   3.937   8.679
 7088SOL    HW122160   4.008   3.974   8.769
 7088SOL    HW222161   4.001   3.842   8.673
 7089SOL     OW22162   4.031   3.787   8.066
 7089SOL    HW122163   4.020   3.881   8.099
 7089SOL    HW222164   4.026   3.724   8.143
 7090SOL     OW22165   3.799   4.069   7.481
 7090SOL    HW122166   3.707   4.041   7.452
 7090SOL    HW222167   3.830   4.146   7.425
 7091SOL     OW22168   3.796   3.890   7.766
 7091SOL    HW122169   3.779   3.973   7.712
 7091SOL    HW222170   3.886   3.853   7.744
 7092SOL     OW22171   3.949   3.999  10.306
 7092SOL    HW122172   3.984   3.982  10.398
 7092SOL    HW222173   3.861   3.954  10.294
 7093SOL     OW22174   3.743   4.092   9.957
 7093SOL    HW122175   3.661   4.135   9.996
 7093SOL    HW222176   3.715   4.019   9.894
 7094SOL     OW22177   3.926   4.009  10.808
 7094SOL    HW122178   3.846   4.069  10.795
 7094SOL    HW222179   3.916   3.960  10.894
 7095SOL     OW22180   4.021   3.759   9.481
 7095SOL    HW122181   4.070   3.843   9.460
 7095SOL    HW222182   4.083   3.694   9.526
 7096SOL     OW22183   4.031   3.937  10.541
 7096SOL    HW122184   4.008   3.974  10.631
 7096SOL    HW222185   4.001   3.842  10.535
 7097SOL     OW22186   4.031   3.787   9.928
 7097SOL    HW122187   4.020   3.881   9.961
 7097SOL    HW222188   4.026   3.724  10.005
 7098SOL     OW22189   3.799   4.069   9.343
 7098SOL    HW122190   3.707   4.041   9.314
 7098SOL    HW222191   3.830   4.146   9.287
 7099SOL     OW22192   3.796   3.890   9.628
 7099SOL    HW122193   3.779   3.973   9.574
 7099SOL    HW222194   3.886   3.853   9.606
 7100SOL     OW22195   3.949   3.999  12.168
 7100SOL    HW122196   3.984   3.982  12.260
 7100SOL    HW222197   3.861   3.954  12.156
 7101SOL     OW22198   3.743   4.092  11.819
 7101SOL    HW122199   3.661   4.135  11.858
 7101SOL    HW222200   3.715   4.019  11.756
 7102SOL     OW22201   3.926   4.009  12.670
 7102SOL    HW122202   3.846   4.069  12.657
 7102SOL    HW222203   3.916   3.960  12.756
 7103SOL     OW22204   4.021   3.759  11.343
 7103SOL    HW122205   4.070   3.843  11.322
 7103SOL    HW222206   4.083   3.694  11.388
 7104SOL     OW22207   4.031   3.937  12.403
 7104SOL    HW122208   4.008   3.974  12.493
 7104SOL    HW222209   4.001   3.842  12.397
 7105SOL     OW22210   4.031   3.787  11.790
 7105SOL    HW122211   4.020   3.881  11.823
 7105SOL    HW222212   4.026   3.724  11.867
 7106SOL     OW22213   3.799   4.069  11.205
 7106SOL    HW122214   3.707   4.041  11.176
 7106SOL    HW222215   3.830   4.146  11.149
 7107SOL     OW22216   3.796   3.890  11.490
 7107SOL    HW122217   3.779   3.973  11.436
 7107SOL    HW222218   3.886   3.853  11.468
 7108SOL     OW22219   3.743   4.092  13.681
 7108SOL    HW122220   3.661   4.135  13.720
 7108SOL    HW222221   3.715   4.019  13.618
 7109SOL     OW22222   4.021   3.759  13.205
 7109SOL    HW122223   4.070   3.843  13.184
 7109SOL    HW222224   4.083   3.694  13.250
 7110SOL     OW22225   4.031   3.787  13.652
 7110SOL    HW122226   4.020   3.881  13.685
 7110SOL    HW222227   4.026   3.724  13.729
 7111SOL     OW22228   3.799   4.069  13.067
 7111SOL    HW122229   3.707   4.041  13.038
 7111SOL    HW222230   3.830   4.146  13.011
 7112SOL     OW22231   3.796   3.890  13.352
 7112SOL    HW122232   3.779   3.973  13.298
 7112SOL    HW222233   3.886   3.853  13.330
   4.00000   4.00000  13.90000
