Built with Packmol
21936
    1LIG      O    1   2.227   2.220   0.053
    1LIG      C    2   2.292   2.270   0.173
    1LIG     C1    3   2.221   2.217   0.301
    1LIG     O1    4   2.285   2.267   0.423
    1LIG     C2    5   2.220   2.218   0.544
    1LIG     C3    6   2.291   2.273   0.670
    1LIG     O2    7   2.227   2.225   0.791
    1LIG     C4    8   2.290   2.275   0.912
    1LIG     C5    9   2.218   2.220   1.038
    1LIG     O3   10   2.281   2.270   1.160
    1LIG     C6   11   2.216   2.221   1.280
    1LIG     C7   12   2.288   2.277   1.406
    1LIG     O4   13   2.224   2.229   1.528
    1LIG     C8   14   2.288   2.279   1.649
    1LIG     C9   15   2.215   2.223   1.774
    1LIG     O5   16   2.278   2.273   1.895
    1LIG    C10   17   2.214   2.224   2.016
    1LIG    C11   18   2.287   2.280   2.141
    1LIG     O6   19   2.223   2.231   2.263
    1LIG    C12   20   2.286   2.280   2.384
    1LIG    C13   21   2.213   2.225   2.509
    1LIG     O7   22   2.277   2.274   2.630
    1LIG    C14   23   2.213   2.225   2.752
    1LIG    C15   24   2.285   2.280   2.878
    1LIG     O8   25   2.221   2.231   3.000
    1LIG    C16   26   2.285   2.281   3.121
    1LIG    C17   27   2.214   2.226   3.247
    1LIG     O9   28   2.277   2.275   3.369
    1LIG    C18   29   2.212   2.226   3.489
    1LIG    C19   30   2.284   2.281   3.614
    1LIG    O10   31   2.220   2.232   3.736
    1LIG    C20   32   2.284   2.282   3.857
    1LIG    C21   33   2.212   2.226   3.982
    1LIG    O11   34   2.276   2.275   4.103
    1LIG    C22   35   2.212   2.226   4.224
    1LIG    C23   36   2.284   2.282   4.350
    1LIG    O12   37   2.220   2.233   4.471
    1LIG    C24   38   2.284   2.282   4.593
    1LIG    C25   39   2.212   2.227   4.719
    1LIG    O13   40   2.275   2.276   4.840
    1LIG    C26   41   2.211   2.227   4.961
    1LIG    C27   42   2.283   2.282   5.086
    1LIG    O14   43   2.219   2.233   5.208
    1LIG    C28   44   2.284   2.282   5.329
    1LIG    C29   45   2.212   2.226   5.455
    1LIG    O15   46   2.276   2.275   5.577
    1LIG    C30   47   2.212   2.226   5.697
    1LIG    C31   48   2.284   2.281   5.822
    1LIG    O16   49   2.220   2.232   5.943
    1LIG    C32   50   2.284   2.281   6.065
    1LIG    C33   51   2.212   2.226   6.190
    1LIG    O17   52   2.276   2.275   6.312
    1LIG    C34   53   2.212   2.225   6.433
    1LIG    C35   54   2.283   2.280   6.559
    1LIG    O18   55   2.220   2.231   6.680
    1LIG    C36   56   2.284   2.280   6.801
    1LIG    C37   57   2.213   2.225   6.927
    1LIG    O19   58   2.277   2.274   7.049
    1LIG    C38   59   2.213   2.224   7.169
    1LIG    C39   60   2.284   2.279   7.295
    1LIG    O20   61   2.221   2.230   7.417
    1LIG    C40   62   2.285   2.279   7.538
    1LIG    C41   63   2.214   2.224   7.664
    1LIG    O21   64   2.277   2.273   7.785
    1LIG    C42   65   2.213   2.223   7.906
    1LIG    C43   66   2.285   2.278   8.031
    1LIG    O22   67   2.222   2.229   8.153
    1LIG    C44   68   2.286   2.278   8.274
    1LIG    C45   69   2.214   2.222   8.399
    1LIG    O23   70   2.277   2.271   8.521
    1LIG    C46   71   2.214   2.222   8.642
    1LIG    C47   72   2.286   2.278   8.767
    1LIG    O24   73   2.223   2.228   8.888
    1LIG    C48   74   2.286   2.277   9.010
    1LIG    C49   75   2.214   2.221   9.135
    1LIG    O25   76   2.278   2.270   9.256
    1LIG    C50   77   2.215   2.221   9.378
    1LIG    C51   78   2.287   2.277   9.503
    1LIG    O26   79   2.223   2.227   9.624
    1LIG    C52   80   2.287   2.276   9.745
    1LIG    C53   81   2.215   2.219   9.870
    1LIG    O27   82   2.279   2.269   9.991
    1LIG    C54   83   2.216   2.219  10.113
    1LIG    C55   84   2.288   2.275  10.240
    1LIG    O28   85   2.224   2.225  10.361
    1LIG    C56   86   2.288   2.274  10.482
    1LIG    C57   87   2.217   2.218  10.609
    1LIG    O29   88   2.281   2.267  10.731
    1LIG    C58   89   2.217   2.217  10.852
    1LIG    C59   90   2.288   2.272  10.978
    1LIG      H   91   2.289   2.380   0.171
    1LIG     H1   92   2.397   2.239   0.172
    1LIG     H2   93   2.224   2.108   0.301
    1LIG     H3   94   2.116   2.248   0.300
    1LIG     H4   95   2.222   2.108   0.546
    1LIG     H5   96   2.115   2.249   0.545
    1LIG     H6   97   2.289   2.383   0.667
    1LIG     H7   98   2.396   2.242   0.669
    1LIG     H8   99   2.288   2.384   0.913
    1LIG     H9  100   2.395   2.244   0.914
    1LIG    H10  101   2.221   2.111   1.037
    1LIG    H11  102   2.113   2.251   1.036
    1LIG    H12  103   2.219   2.112   1.282
    1LIG    H13  104   2.111   2.252   1.281
    1LIG    H14  105   2.285   2.387   1.404
    1LIG    H15  106   2.393   2.246   1.405
    1LIG    H16  107   2.285   2.388   1.650
    1LIG    H17  108   2.393   2.248   1.651
    1LIG    H18  109   2.218   2.114   1.772
    1LIG    H19  110   2.110   2.254   1.772
    1LIG    H20  111   2.217   2.114   2.018
    1LIG    H21  112   2.109   2.255   2.018
    1LIG    H22  113   2.284   2.389   2.140
    1LIG    H23  114   2.392   2.249   2.140
    1LIG    H24  115   2.283   2.389   2.385
    1LIG    H25  116   2.391   2.249   2.386
    1LIG    H26  117   2.216   2.115   2.508
    1LIG    H27  118   2.108   2.256   2.508
    1LIG    H28  119   2.216   2.115   2.754
    1LIG    H29  120   2.108   2.256   2.753
    1LIG    H30  121   2.282   2.390   2.877
    1LIG    H31  122   2.390   2.249   2.877
    1LIG    H32  123   2.282   2.391   3.122
    1LIG    H33  124   2.390   2.250   3.122
    1LIG    H34  125   2.216   2.117   3.245
    1LIG    H35  126   2.108   2.257   3.245
    1LIG    H36  127   2.215   2.116   3.490
    1LIG    H37  128   2.107   2.257   3.490
    1LIG    H38  129   2.281   2.391   3.613
    1LIG    H39  130   2.389   2.250   3.613
    1LIG    H40  131   2.282   2.391   3.858
    1LIG    H41  132   2.390   2.251   3.858
    1LIG    H42  133   2.215   2.117   3.980
    1LIG    H43  134   2.107   2.257   3.980
    1LIG    H44  135   2.215   2.117   4.226
    1LIG    H45  136   2.107   2.257   4.226
    1LIG    H46  137   2.281   2.392   4.348
    1LIG    H47  138   2.389   2.251   4.348
    1LIG    H48  139   2.281   2.391   4.594
    1LIG    H49  140   2.389   2.251   4.594
    1LIG    H50  141   2.214   2.117   4.717
    1LIG    H51  142   2.107   2.258   4.717
    1LIG    H52  143   2.214   2.117   4.963
    1LIG    H53  144   2.106   2.258   4.963
    1LIG    H54  145   2.280   2.392   5.085
    1LIG    H55  146   2.388   2.251   5.085
    1LIG    H56  147   2.281   2.391   5.331
    1LIG    H57  148   2.389   2.251   5.330
    1LIG    H58  149   2.215   2.117   5.453
    1LIG    H59  150   2.107   2.257   5.454
    1LIG    H60  151   2.215   2.116   5.699
    1LIG    H61  152   2.107   2.257   5.699
    1LIG    H62  153   2.281   2.391   5.821
    1LIG    H63  154   2.389   2.250   5.821
    1LIG    H64  155   2.281   2.390   6.066
    1LIG    H65  156   2.389   2.250   6.066
    1LIG    H66  157   2.215   2.116   6.189
    1LIG    H67  158   2.107   2.257   6.189
    1LIG    H68  159   2.215   2.116   6.434
    1LIG    H69  160   2.107   2.256   6.434
    1LIG    H70  161   2.280   2.390   6.558
    1LIG    H71  162   2.389   2.250   6.557
    1LIG    H72  163   2.281   2.390   6.802
    1LIG    H73  164   2.389   2.250   6.802
    1LIG    H74  165   2.216   2.116   6.926
    1LIG    H75  166   2.108   2.256   6.926
    1LIG    H76  167   2.216   2.115   7.170
    1LIG    H77  168   2.107   2.255   7.171
    1LIG    H78  169   2.281   2.388   7.294
    1LIG    H79  170   2.389   2.248   7.294
    1LIG    H80  171   2.282   2.389   7.539
    1LIG    H81  172   2.390   2.249   7.539
    1LIG    H82  173   2.217   2.114   7.662
    1LIG    H83  174   2.108   2.254   7.663
    1LIG    H84  175   2.217   2.113   7.907
    1LIG    H85  176   2.108   2.253   7.907
    1LIG    H86  177   2.282   2.388   8.030
    1LIG    H87  178   2.391   2.248   8.029
    1LIG    H88  179   2.283   2.388   8.276
    1LIG    H89  180   2.391   2.248   8.275
    1LIG    H90  181   2.217   2.113   8.397
    1LIG    H91  182   2.109   2.253   8.398
    1LIG    H92  183   2.217   2.112   8.644
    1LIG    H93  184   2.109   2.252   8.644
    1LIG    H94  185   2.283   2.387   8.766
    1LIG    H95  186   2.392   2.247   8.766
    1LIG    H96  187   2.283   2.386   9.012
    1LIG    H97  188   2.391   2.246   9.011
    1LIG    H98  189   2.217   2.111   9.133
    1LIG    H99  190   2.109   2.251   9.134
    1LIG   H100  191   2.218   2.111   9.379
    1LIG   H101  192   2.110   2.251   9.380
    1LIG   H102  193   2.284   2.386   9.502
    1LIG   H103  194   2.392   2.246   9.501
    1LIG   H104  195   2.284   2.385   9.747
    1LIG   H105  196   2.392   2.245   9.747
    1LIG   H106  197   2.219   2.110   9.869
    1LIG   H107  198   2.110   2.250   9.869
    1LIG   H108  199   2.219   2.110  10.114
    1LIG   H109  200   2.111   2.250  10.115
    1LIG   H110  201   2.284   2.384  10.238
    1LIG   H111  202   2.393   2.244  10.238
    1LIG   H112  203   2.285   2.384  10.484
    1LIG   H113  204   2.394   2.244  10.483
    1LIG   H114  205   2.221   2.109  10.607
    1LIG   H115  206   2.112   2.249  10.608
    1LIG   H116  207   2.221   2.107  10.852
    1LIG   H117  208   2.112   2.249  10.853
    1LIG   H118  209   2.393   2.242  10.978
    1LIG   H119  210   2.241   2.235  11.073
    1MOL     C1  211   1.570   2.448   5.534
    1MOL     H1  212   1.465   2.418   5.542
    1MOL     O1  213   1.603   2.507   5.658
    1MOL     C2  214   1.736   2.560   5.667
    1MOL     H2  215   1.809   2.478   5.655
    1MOL     C3  216   1.754   2.617   5.807
    1MOL     H3  217   1.861   2.638   5.822
    1MOL     H4  218   1.723   2.540   5.880
    1MOL     O2  219   1.676   2.735   5.820
    1MOL     H5  220   1.699   2.777   5.904
    1MOL     C4  221   1.589   2.548   5.419
    1MOL     H6  222   1.520   2.632   5.438
    1MOL     O3  223   1.555   2.497   5.292
    1MOL     H7  224   1.587   2.405   5.283
    1MOL     C5  225   1.731   2.603   5.421
    1MOL     H8  226   1.802   2.521   5.402
    1MOL     O4  227   1.746   2.703   5.320
    1MOL     H9  228   1.698   2.669   5.242
    1MOL     C6  229   1.761   2.665   5.556
    1MOL    H10  230   1.693   2.750   5.572
    1MOL     O5  231   1.897   2.709   5.557
    1MOL     C7  232   1.926   2.836   5.613
    1MOL    H11  233   1.836   2.878   5.660
    1MOL     O6  234   2.020   2.824   5.717
    1MOL     C8  235   2.148   2.772   5.677
    1MOL    H12  236   2.134   2.673   5.631
    1MOL     C9  237   2.234   2.753   5.804
    1MOL    H13  238   2.306   2.673   5.784
    1MOL    H14  239   2.167   2.719   5.884
    1MOL     O7  240   2.299   2.871   5.849
    1MOL    H15  241   2.387   2.874   5.806
    1MOL    C10  242   1.978   2.928   5.502
    1MOL    H16  243   1.990   3.028   5.544
    1MOL     O8  244   1.890   2.942   5.392
    1MOL    H17  245   1.857   2.853   5.365
    1MOL    C11  246   2.116   2.880   5.455
    1MOL    H18  247   2.106   2.781   5.408
    1MOL     O9  248   2.173   2.972   5.362
    1MOL    H19  249   2.100   2.995   5.301
    1MOL    C12  250   2.209   2.869   5.575
    1MOL    H20  251   2.219   2.967   5.623
    1MOL    O10  252   2.337   2.824   5.529
    1MOL    C13  253   2.449   2.905   5.556
    1MOL    H21  254   2.417   3.005   5.588
    1MOL    O11  255   2.526   2.854   5.664
    1MOL    C14  256   2.580   2.722   5.640
    1MOL    H22  257   2.497   2.653   5.618
    1MOL    C15  258   2.649   2.674   5.769
    1MOL    H23  259   2.643   2.564   5.773
    1MOL    H24  260   2.591   2.713   5.854
    1MOL    O12  261   2.783   2.718   5.784
    1MOL    H25  262   2.840   2.647   5.749
    1MOL    C16  263   2.534   2.915   5.429
    1MOL    H26  264   2.616   2.985   5.448
    1MOL    O13  265   2.462   2.965   5.317
    1MOL    H27  266   2.367   2.943   5.327
    1MOL    C17  267   2.596   2.778   5.398
    1MOL    H28  268   2.516   2.706   5.375
    1MOL    O14  269   2.685   2.788   5.287
    1MOL    H29  270   2.637   2.838   5.218
    1MOL    C18  271   2.674   2.729   5.519
    1MOL    H30  272   2.754   2.800   5.542
    1MOL    O15  273   2.729   2.601   5.487
    1MOL    C19  274   2.868   2.583   5.502
    1MOL    H31  275   2.919   2.679   5.516
    1MOL    O16  276   2.898   2.507   5.618
    1MOL    C20  277   2.841   2.374   5.619
    1MOL    H32  278   2.732   2.383   5.608
    1MOL    C21  279   2.871   2.308   5.755
    1MOL    H33  280   2.788   2.240   5.778
    1MOL    H34  281   2.869   2.388   5.831
    1MOL    O17  282   2.996   2.243   5.763
    1MOL    H35  283   2.980   2.149   5.742
    1MOL    C22  284   2.920   2.512   5.376
    1MOL    H36  285   3.029   2.505   5.384
    1MOL    O18  286   2.892   2.583   5.257
    1MOL    H37  287   2.808   2.632   5.267
    1MOL    C23  288   2.864   2.370   5.370
    1MOL    H38  289   2.755   2.374   5.359
    1MOL    O19  290   2.921   2.298   5.261
    1MOL    H39  291   2.916   2.358   5.184
    1MOL    C24  292   2.898   2.296   5.499
    1MOL    H40  293   3.006   2.290   5.511
    1MOL    O20  294   2.841   2.165   5.492
    1MOL    C25  295   2.926   2.054   5.510
    1MOL    H41  296   3.031   2.085   5.508
    1MOL    O21  297   2.906   1.994   5.637
    1MOL    C26  298   2.773   1.943   5.659
    1MOL    H42  299   2.701   2.025   5.653
    1MOL    C27  300   2.767   1.886   5.800
    1MOL    H43  301   2.662   1.866   5.824
    1MOL    H44  302   2.805   1.962   5.870
    1MOL    O22  303   2.845   1.767   5.806
    1MOL    H45  304   2.836   1.730   5.895
    1MOL    C28  305   2.898   1.954   5.398
    1MOL    H46  306   2.968   1.870   5.410
    1MOL    O23  307   2.920   2.006   5.268
    1MOL    H47  308   2.897   2.101   5.267
    1MOL    C29  309   2.756   1.899   5.412
    1MOL    H48  310   2.684   1.982   5.399
    1MOL    O24  311   2.732   1.799   5.314
    1MOL    H49  312   2.770   1.833   5.231
    1MOL    C30  313   2.737   1.839   5.551
    1MOL    H50  314   2.801   1.751   5.561
    1MOL    O25  315   2.600   1.802   5.563
    1MOL    C31  316   2.569   1.677   5.625
    1MOL    H51  317   2.657   1.638   5.676
    1MOL    O26  318   2.471   1.696   5.725
    1MOL    C32  319   2.344   1.747   5.678
    1MOL    H52  320   2.361   1.843   5.627
    1MOL    C33  321   2.255   1.772   5.800
    1MOL    H53  322   2.179   1.846   5.772
    1MOL    H54  323   2.319   1.818   5.877
    1MOL    O27  324   2.195   1.655   5.851
    1MOL    H55  325   2.099   1.666   5.844
    1MOL    C34  326   2.519   1.579   5.517
    1MOL    H56  327   2.505   1.482   5.565
    1MOL    O28  328   2.611   1.558   5.412
    1MOL    H57  329   2.639   1.645   5.375
    1MOL    C35  330   2.384   1.626   5.463
    1MOL    H58  331   2.397   1.722   5.412
    1MOL    O29  332   2.330   1.530   5.372
    1MOL    H59  333   2.405   1.502   5.317
    1MOL    C36  334   2.286   1.646   5.578
    1MOL    H60  335   2.271   1.551   5.632
    1MOL    O30  336   2.161   1.691   5.524
    1MOL    C37  337   2.054   1.600   5.527
    1MOL    H61  338   2.090   1.498   5.546
    1MOL    O31  339   1.964   1.628   5.632
    1MOL    C38  340   1.903   1.758   5.627
    1MOL    H62  341   1.981   1.835   5.624
    1MOL    C39  342   1.826   1.774   5.756
    1MOL    H63  343   1.758   1.688   5.769
    1MOL    H64  344   1.768   1.866   5.755
    1MOL    O32  345   1.924   1.776   5.861
    1MOL    H65  346   1.880   1.798   5.944
    1MOL    C40  347   1.980   1.606   5.393
    1MOL    H66  348   1.902   1.529   5.396
    1MOL    O33  349   2.061   1.582   5.280
    1MOL    H67  350   2.155   1.581   5.306
    1MOL    C41  351   1.911   1.742   5.379
    1MOL    H68  352   1.988   1.820   5.375
    1MOL    O34  353   1.832   1.745   5.260
    1MOL    H69  354   1.890   1.711   5.189
    1MOL    C42  355   1.820   1.769   5.498
    1MOL    H70  356   1.739   1.694   5.500
    1MOL    O35  357   1.765   1.900   5.482
    1MOL    C43  358   1.625   1.916   5.486
    1MOL    H71  359   1.575   1.819   5.489
    1MOL    O36  360   1.584   1.983   5.604
    1MOL    C44  361   1.635   2.116   5.621
    1MOL    H72  362   1.745   2.113   5.623
    1MOL    C45  363   1.585   2.165   5.755
    1MOL    H73  364   1.477   2.145   5.762
    1MOL    H74  365   1.602   2.273   5.763
    1MOL    O37  366   1.658   2.095   5.857
    1MOL    H75  367   1.620   2.121   5.942
    1MOL    C46  368   1.581   1.996   5.363
    1MOL    H76  369   1.472   2.001   5.363
    1MOL    O38  370   1.618   1.937   5.240
    1MOL    H77  371   1.704   1.890   5.250
    1MOL    C47  372   1.635   2.139   5.372
    1MOL    H78  373   1.745   2.136   5.370
    1MOL    O39  374   1.587   2.216   5.262
    1MOL    H79  375   1.598   2.160   5.184
    1MOL    C48  376   1.591   2.205   5.502
    1MOL    H80  377   1.482   2.215   5.502
    1MOL    O40  378   1.652   2.334   5.509
    2SOL     OW  379   0.230   0.628   0.113
    2SOL    HW1  380   0.137   0.626   0.150
    2SOL    HW2  381   0.231   0.589   0.021
    3SOL     OW  382   0.225   0.275   0.996
    3SOL    HW1  383   0.260   0.258   1.088
    3SOL    HW2  384   0.137   0.230   0.984
    4SOL     OW  385   0.019   0.368   0.647
    4SOL    HW1  386  -0.063   0.411   0.686
    4SOL    HW2  387  -0.009   0.295   0.584
    5SOL     OW  388   0.569   1.275   1.165
    5SOL    HW1  389   0.476   1.268   1.128
    5SOL    HW2  390   0.580   1.364   1.209
    6SOL     OW  391   1.555   1.511   0.703
    6SOL    HW1  392   1.498   1.495   0.784
    6SOL    HW2  393   1.496   1.521   0.623
    7SOL     OW  394   1.135   0.703   0.717
    7SOL    HW1  395   1.192   0.781   0.692
    7SOL    HW2  396   1.075   0.729   0.793
    8SOL     OW  397   1.755   0.607   0.231
    8SOL    HW1  398   1.743   0.594   0.132
    8SOL    HW2  399   1.725   0.526   0.280
    9SOL     OW  400   0.768   1.144   1.023
    9SOL    HW1  401   0.690   1.161   1.083
    9SOL    HW2  402   0.802   1.231   0.987
   10SOL     OW  403   0.850   0.798   1.823
   10SOL    HW1  404   0.846   0.874   1.888
   10SOL    HW2  405   0.872   0.834   1.732
   11SOL     OW  406   0.685   1.012   0.665
   11SOL    HW1  407   0.754   0.996   0.735
   11SOL    HW2  408   0.612   1.069   0.703
   12SOL     OW  409   0.686   1.161   1.803
   12SOL    HW1  410   0.746   1.240   1.817
   12SOL    HW2  411   0.600   1.192   1.762
   13SOL     OW  412   0.335   1.435   1.061
   13SOL    HW1  413   0.257   1.404   1.008
   13SOL    HW2  414   0.393   1.493   1.004
   14SOL     OW  415   1.460   1.505   1.339
   14SOL    HW1  416   1.484   1.599   1.365
   14SOL    HW2  417   1.444   1.451   1.421
   15SOL     OW  418   0.438   0.392   1.499
   15SOL    HW1  419   0.520   0.336   1.508
   15SOL    HW2  420   0.357   0.334   1.503
   16SOL     OW  421   1.603   0.447   0.737
   16SOL    HW1  422   1.529   0.493   0.687
   16SOL    HW2  423   1.654   0.515   0.790
   17SOL     OW  424   0.231   1.713   0.483
   17SOL    HW1  425   0.265   1.790   0.537
   17SOL    HW2  426   0.275   1.713   0.393
   18SOL     OW  427   1.127   1.341   1.690
   18SOL    HW1  428   1.174   1.341   1.778
   18SOL    HW2  429   1.079   1.254   1.679
   19SOL     OW  430   0.230   1.434   0.538
   19SOL    HW1  431   0.204   1.530   0.538
   19SOL    HW2  432   0.159   1.380   0.583
   20SOL     OW  433   0.240   1.091   0.886
   20SOL    HW1  434   0.254   1.007   0.938
   20SOL    HW2  435   0.185   1.155   0.941
   21SOL     OW  436   0.620   1.786   1.439
   21SOL    HW1  437   0.528   1.769   1.474
   21SOL    HW2  438   0.648   1.878   1.465
   22SOL     OW  439   0.606   0.964   0.123
   22SOL    HW1  440   0.613   1.048   0.069
   22SOL    HW2  441   0.652   0.977   0.211
   23SOL     OW  442   1.594   0.114   1.480
   23SOL    HW1  443   1.576   0.181   1.408
   23SOL    HW2  444   1.591   0.160   1.569
   24SOL     OW  445   0.122   0.643   0.563
   24SOL    HW1  446   0.077   0.555   0.580
   24SOL    HW2  447   0.121   0.697   0.647
   25SOL     OW  448   1.842   1.767   0.359
   25SOL    HW1  449   1.896   1.738   0.439
   25SOL    HW2  450   1.872   1.857   0.330
   26SOL     OW  451   0.027   1.596   0.117
   26SOL    HW1  452   0.008   1.500   0.138
   26SOL    HW2  453  -0.006   1.654   0.192
   27SOL     OW  454   1.689   0.922   0.612
   27SOL    HW1  455   1.784   0.893   0.620
   27SOL    HW2  456   1.681   0.987   0.537
   28SOL     OW  457   1.641   1.108   0.432
   28SOL    HW1  458   1.727   1.110   0.380
   28SOL    HW2  459   1.655   1.155   0.520
   29SOL     OW  460   0.113   0.737   1.597
   29SOL    HW1  461   0.201   0.724   1.642
   29SOL    HW2  462   0.100   0.834   1.575
   30SOL     OW  463   0.613   1.365   0.726
   30SOL    HW1  464   0.564   1.278   0.735
   30SOL    HW2  465   0.590   1.408   0.639
   31SOL     OW  466   1.293   1.228   1.423
   31SOL    HW1  467   1.330   1.155   1.365
   31SOL    HW2  468   1.345   1.233   1.508
   32SOL     OW  469   0.809   0.004   0.502
   32SOL    HW1  470   0.849   0.095   0.493
   32SOL    HW2  471   0.709   0.012   0.508
   33SOL     OW  472   0.197   0.976   1.264
   33SOL    HW1  473   0.286   0.931   1.250
   33SOL    HW2  474   0.124   0.911   1.245
   34SOL     OW  475   1.525   0.999   0.190
   34SOL    HW1  476   1.462   0.923   0.203
   34SOL    HW2  477   1.573   1.017   0.276
   35SOL     OW  478   1.187   1.792   1.616
   35SOL    HW1  479   1.211   1.852   1.540
   35SOL    HW2  480   1.194   1.697   1.586
   36SOL     OW  481   0.317   0.251   1.801
   36SOL    HW1  482   0.388   0.322   1.807
   36SOL    HW2  483   0.229   0.290   1.829
   37SOL     OW  484   1.466   1.417   0.953
   37SOL    HW1  485   1.407   1.423   1.033
   37SOL    HW2  486   1.451   1.329   0.907
   38SOL     OW  487   1.667   1.714   0.572
   38SOL    HW1  488   1.626   1.691   0.484
   38SOL    HW2  489   1.649   1.640   0.637
   39SOL     OW  490   0.598   0.729   0.270
   39SOL    HW1  491   0.622   0.798   0.202
   39SOL    HW2  492   0.520   0.762   0.324
   40SOL     OW  493   1.281   0.345   0.944
   40SOL    HW1  494   1.195   0.295   0.931
   40SOL    HW2  495   1.343   0.291   1.000
   41SOL     OW  496   1.576   1.662   0.307
   41SOL    HW1  497   1.665   1.708   0.310
   41SOL    HW2  498   1.555   1.638   0.212
   42SOL     OW  499   0.807   0.605   1.465
   42SOL    HW1  500   0.760   0.602   1.554
   42SOL    HW2  501   0.756   0.550   1.399
   43SOL     OW  502   1.394   0.469   1.674
   43SOL    HW1  503   1.374   0.512   1.762
   43SOL    HW2  504   1.472   0.407   1.683
   44SOL     OW  505   0.973   0.890   1.572
   44SOL    HW1  506   1.019   0.806   1.543
   44SOL    HW2  507   0.917   0.924   1.497
   45SOL     OW  508   0.991   0.410   1.242
   45SOL    HW1  509   0.914   0.444   1.296
   45SOL    HW2  510   0.957   0.359   1.163
   46SOL     OW  511   1.041   0.701   0.429
   46SOL    HW1  512   1.067   0.697   0.525
   46SOL    HW2  513   0.956   0.650   0.415
   47SOL     OW  514   0.076   0.811   0.789
   47SOL    HW1  515   0.175   0.799   0.798
   47SOL    HW2  516   0.052   0.906   0.810
   48SOL     OW  517   0.130   1.821   1.571
   48SOL    HW1  518   0.120   1.806   1.670
   48SOL    HW2  519   0.044   1.857   1.535
   49SOL     OW  520   0.865   0.348   0.195
   49SOL    HW1  521   0.924   0.411   0.146
   49SOL    HW2  522   0.884   0.254   0.166
   50SOL     OW  523   1.719   0.585   1.831
   50SOL    HW1  524   1.693   0.674   1.795
   50SOL    HW2  525   1.717   0.517   1.758
   51SOL     OW  526   1.362   1.144   0.545
   51SOL    HW1  527   1.445   1.115   0.497
   51SOL    HW2  528   1.313   1.211   0.489
   52SOL     OW  529   0.550   0.196   0.885
   52SOL    HW1  530   0.545   0.191   0.985
   52SOL    HW2  531   0.552   0.292   0.856
   53SOL     OW  532   1.008   1.456   0.477
   53SOL    HW1  533   0.962   1.528   0.425
   53SOL    HW2  534   1.004   1.476   0.575
   54SOL     OW  535   0.351   1.801   0.853
   54SOL    HW1  536   0.401   1.715   0.859
   54SOL    HW2  537   0.416   1.878   0.850
   55SOL     OW  538   1.795   1.066   0.873
   55SOL    HW1  539   1.733   1.051   0.797
   55SOL    HW2  540   1.743   1.077   0.958
   56SOL     OW  541   1.227   1.550   1.506
   56SOL    HW1  542   1.233   1.473   1.570
   56SOL    HW2  543   1.175   1.524   1.426
   57SOL     OW  544   0.321   0.943   0.242
   57SOL    HW1  545   0.403   0.982   0.200
   57SOL    HW2  546   0.294   0.861   0.193
   58SOL     OW  547   1.458   0.735   0.728
   58SOL    HW1  548   1.453   0.670   0.803
   58SOL    HW2  549   1.538   0.794   0.741
   59SOL     OW  550   0.461   1.266   1.727
   59SOL    HW1  551   0.411   1.267   1.641
   59SOL    HW2  552   0.398   1.248   1.803
   60SOL     OW  553   1.111   1.776   0.237
   60SOL    HW1  554   1.051   1.714   0.287
   60SOL    HW2  555   1.142   1.732   0.152
   61SOL     OW  556   0.202   0.285   1.498
   61SOL    HW1  557   0.122   0.345   1.485
   61SOL    HW2  558   0.192   0.236   1.584
   62SOL     OW  559   1.632   1.377   0.081
   62SOL    HW1  560   1.600   1.471   0.071
   62SOL    HW2  561   1.556   1.314   0.069
   63SOL     OW  562   0.464   1.743   0.323
   63SOL    HW1  563   0.497   1.782   0.409
   63SOL    HW2  564   0.540   1.736   0.258
   64SOL     OW  565   1.400   0.107   0.426
   64SOL    HW1  566   1.376   0.070   0.336
   64SOL    HW2  567   1.499   0.123   0.430
   65SOL     OW  568   0.249   1.785   1.241
   65SOL    HW1  569   0.306   1.720   1.291
   65SOL    HW2  570   0.233   1.752   1.148
   66SOL     OW  571   0.940   1.698   0.904
   66SOL    HW1  572   1.020   1.641   0.925
   66SOL    HW2  573   0.891   1.658   0.827
   67SOL     OW  574   0.382   0.700   0.480
   67SOL    HW1  575   0.427   0.610   0.477
   67SOL    HW2  576   0.288   0.689   0.513
   68SOL     OW  577   1.547   0.222   1.729
   68SOL    HW1  578   1.542   0.259   1.821
   68SOL    HW2  579   1.475   0.153   1.717
   69SOL     OW  580   0.614   0.122   0.117
   69SOL    HW1  581   0.712   0.100   0.124
   69SOL    HW2  582   0.583   0.105   0.024
   70SOL     OW  583   0.781   0.264   1.749
   70SOL    HW1  584   0.848   0.203   1.792
   70SOL    HW2  585   0.708   0.283   1.814
   71SOL     OW  586   0.888   1.514   1.195
   71SOL    HW1  587   0.865   1.489   1.101
   71SOL    HW2  588   0.949   1.445   1.234
   72SOL     OW  589   1.351   0.590   1.433
   72SOL    HW1  590   1.379   0.547   1.518
   72SOL    HW2  591   1.376   0.686   1.434
   73SOL     OW  592   0.803   1.402   0.924
   73SOL    HW1  593   0.893   1.416   0.882
   73SOL    HW2  594   0.732   1.404   0.853
   74SOL     OW  595   0.922   0.503   0.899
   74SOL    HW1  596   0.897   0.494   0.803
   74SOL    HW2  597   0.970   0.421   0.930
   75SOL     OW  598   0.539   0.064   0.512
   75SOL    HW1  599   0.458   0.065   0.570
   75SOL    HW2  600   0.542   0.147   0.457
   76SOL     OW  601   1.434   1.188   0.041
   76SOL    HW1  602   1.466   1.112   0.098
   76SOL    HW2  603   1.342   1.215   0.071
   77SOL     OW  604   0.297   0.035   0.171
   77SOL    HW1  605   0.346   0.119   0.150
   77SOL    HW2  606   0.359  -0.030   0.216
   78SOL     OW  607   0.935   0.236   0.480
   78SOL    HW1  608   0.887   0.277   0.402
   78SOL    HW2  609   1.034   0.234   0.461
   79SOL     OW  610   1.076   0.683   1.464
   79SOL    HW1  611   0.996   0.622   1.467
   79SOL    HW2  612   1.157   0.630   1.440
   80SOL     OW  613   1.227   1.570   0.793
   80SOL    HW1  614   1.248   1.644   0.728
   80SOL    HW2  615   1.295   1.570   0.866
   81SOL     OW  616   0.459   1.152   0.741
   81SOL    HW1  617   0.388   1.125   0.806
   81SOL    HW2  618   0.433   1.124   0.648
   82SOL     OW  619   1.271   1.797   0.591
   82SOL    HW1  620   1.315   1.861   0.527
   82SOL    HW2  621   1.221   1.849   0.661
   83SOL     OW  622   1.032   0.549   0.016
   83SOL    HW1  623   0.991   0.631  -0.023
   83SOL    HW2  624   1.096   0.575   0.089
   84SOL     OW  625   0.078   0.556   1.386
   84SOL    HW1  626   0.170   0.555   1.345
   84SOL    HW2  627   0.072   0.630   1.453
   85SOL     OW  628   0.561   0.222   1.147
   85SOL    HW1  629   0.599   0.138   1.184
   85SOL    HW2  630   0.473   0.241   1.191
   86SOL     OW  631   0.866   0.454   0.642
   86SOL    HW1  632   0.834   0.526   0.580
   86SOL    HW2  633   0.890   0.373   0.589
   87SOL     OW  634   1.017   0.039   0.753
   87SOL    HW1  635   0.945   0.044   0.684
   87SOL    HW2  636   0.993  -0.030   0.822
   88SOL     OW  637   1.429   1.173   0.867
   88SOL    HW1  638   1.374   1.089   0.860
   88SOL    HW2  639   1.455   1.202   0.775
   89SOL     OW  640   1.466   0.590   0.992
   89SOL    HW1  641   1.436   0.495   0.999
   89SOL    HW2  642   1.539   0.606   1.058
   90SOL     OW  643   1.857   0.833   0.377
   90SOL    HW1  644   1.899   0.769   0.441
   90SOL    HW2  645   1.819   0.782   0.299
   91SOL     OW  646   0.488   1.385   0.174
   91SOL    HW1  647   0.401   1.370   0.221
   91SOL    HW2  648   0.471   1.411   0.079
   92SOL     OW  649   1.664   1.280   0.657
   92SOL    HW1  650   1.763   1.288   0.671
   92SOL    HW2  651   1.619   1.364   0.688
   93SOL     OW  652   1.390   0.575   0.078
   93SOL    HW1  653   1.336   0.554   0.159
   93SOL    HW2  654   1.481   0.534   0.087
   94SOL     OW  655   0.527   0.256   0.328
   94SOL    HW1  656   0.554   0.197   0.253
   94SOL    HW2  657   0.527   0.351   0.297
   95SOL     OW  658   1.754   1.223   1.588
   95SOL    HW1  659   1.845   1.184   1.575
   95SOL    HW2  660   1.762   1.319   1.612
   96SOL     OW  661   1.064   1.347   1.340
   96SOL    HW1  662   0.984   1.324   1.395
   96SOL    HW2  663   1.147   1.321   1.389
   97SOL     OW  664   1.592   1.629   1.625
   97SOL    HW1  665   1.619   1.663   1.535
   97SOL    HW2  666   1.671   1.591   1.671
   98SOL     OW  667   1.111   1.195   1.100
   98SOL    HW1  668   1.071   1.239   1.181
   98SOL    HW2  669   1.070   1.232   1.017
   99SOL     OW  670   1.638   1.099   1.079
   99SOL    HW1  671   1.643   1.180   1.138
   99SOL    HW2  672   1.552   1.101   1.028
  100SOL     OW  673   0.915   0.089   1.402
  100SOL    HW1  674   0.940   0.069   1.307
  100SOL    HW2  675   0.987   0.145   1.444
  101SOL     OW  676   0.980   1.116   1.719
  101SOL    HW1  677   0.881   1.122   1.729
  101SOL    HW2  678   1.003   1.036   1.663
  102SOL     OW  679   0.705   1.050   0.368
  102SOL    HW1  680   0.691   1.057   0.467
  102SOL    HW2  681   0.789   0.999   0.350
  103SOL     OW  682   0.410   0.813   1.251
  103SOL    HW1  683   0.496   0.825   1.301
  103SOL    HW2  684   0.368   0.726   1.278
  104SOL     OW  685   1.274   0.386   1.262
  104SOL    HW1  686   1.295   0.460   1.326
  104SOL    HW2  687   1.185   0.403   1.219
  105SOL     OW  688   0.064   1.564   1.331
  105SOL    HW1  689   0.018   1.646   1.297
  105SOL    HW2  690   0.162   1.583   1.340
  106SOL     OW  691   0.367   1.100   0.501
  106SOL    HW1  692   0.360   1.183   0.445
  106SOL    HW2  693   0.371   1.020   0.441
  107SOL     OW  694   0.566   0.537   0.865
  107SOL    HW1  695   0.578   0.603   0.791
  107SOL    HW2  696   0.612   0.571   0.948
  108SOL     OW  697   1.252   1.348   0.388
  108SOL    HW1  698   1.302   1.425   0.428
  108SOL    HW2  699   1.157   1.350   0.420
  109SOL     OW  700   1.272   1.445   1.142
  109SOL    HW1  701   1.319   1.458   1.229
  109SOL    HW2  702   1.206   1.371   1.151
  110SOL     OW  703   1.582   0.639   0.472
  110SOL    HW1  704   1.551   0.700   0.545
  110SOL    HW2  705   1.632   0.691   0.403
  111SOL     OW  706   0.354   1.510   1.329
  111SOL    HW1  707   0.333   1.466   1.242
  111SOL    HW2  708   0.451   1.536   1.332
  112SOL     OW  709   0.402   0.751   1.598
  112SOL    HW1  710   0.470   0.806   1.551
  112SOL    HW2  711   0.442   0.663   1.625
  113SOL     OW  712   1.587   0.779   1.670
  113SOL    HW1  713   1.495   0.817   1.665
  113SOL    HW2  714   1.647   0.826   1.605
  114SOL     OW  715   1.013   0.105   1.770
  114SOL    HW1  716   1.019   0.190   1.718
  114SOL    HW2  717   1.045   0.029   1.713
  115SOL     OW  718   0.504   0.050   1.740
  115SOL    HW1  719   0.462  -0.007   1.670
  115SOL    HW2  720   0.438   0.119   1.772
  116SOL     OW  721   0.573   0.870   1.029
  116SOL    HW1  722   0.617   0.959   1.020
  116SOL    HW2  723   0.510   0.870   1.106
  117SOL     OW  724   1.360   0.862   1.045
  117SOL    HW1  725   1.285   0.862   0.979
  117SOL    HW2  726   1.397   0.770   1.054
  118SOL     OW  727   1.209   0.525   0.275
  118SOL    HW1  728   1.222   0.441   0.329
  118SOL    HW2  729   1.180   0.599   0.335
  119SOL     OW  730   0.307   0.213   1.231
  119SOL    HW1  731   0.284   0.250   1.321
  119SOL    HW2  732   0.277   0.118   1.225
  120SOL     OW  733   0.037   1.310   1.282
  120SOL    HW1  734   0.090   1.261   1.350
  120SOL    HW2  735   0.059   1.408   1.287
  121SOL     OW  736   0.732   0.634   1.064
  121SOL    HW1  737   0.791   0.608   0.988
  121SOL    HW2  738   0.704   0.730   1.053
  122SOL     OW  739   1.728   0.935   1.854
  122SOL    HW1  740   1.682   0.928   1.765
  122SOL    HW2  741   1.666   0.979   1.920
  123SOL     OW  742   0.307   0.063   0.618
  123SOL    HW1  743   0.296   0.157   0.651
  123SOL    HW2  744   0.302   0.000   0.695
  124SOL     OW  745   1.622   0.367   0.374
  124SOL    HW1  746   1.624   0.291   0.438
  124SOL    HW2  747   1.574   0.444   0.414
  125SOL     OW  748   1.023   0.766   0.966
  125SOL    HW1  749   1.038   0.787   1.062
  125SOL    HW2  750   0.993   0.671   0.957
  126SOL     OW  751   0.980   1.573   1.700
  126SOL    HW1  752   0.960   1.617   1.612
  126SOL    HW2  753   1.019   1.482   1.684
  127SOL     OW  754   1.859   1.518   1.605
  127SOL    HW1  755   1.873   1.545   1.510
  127SOL    HW2  756   1.942   1.540   1.658
  128SOL     OW  757   0.350   0.898   1.804
  128SOL    HW1  758   0.426   0.942   1.852
  128SOL    HW2  759   0.385   0.851   1.722
  129SOL     OW  760   1.540   0.274   0.125
  129SOL    HW1  761   1.479   0.199   0.148
  129SOL    HW2  762   1.562   0.326   0.208
  130SOL     OW  763   1.303   0.838   0.042
  130SOL    HW1  764   1.337   0.745   0.057
  130SOL    HW2  765   1.321   0.865  -0.053
  131SOL     OW  766   1.068   1.333   0.849
  131SOL    HW1  767   1.075   1.249   0.794
  131SOL    HW2  768   1.130   1.402   0.813
  132SOL     OW  769   0.319   0.810   0.949
  132SOL    HW1  770   0.412   0.846   0.954
  132SOL    HW2  771   0.313   0.725   1.001
  133SOL     OW  772   0.339   0.509   1.006
  133SOL    HW1  773   0.287   0.426   0.989
  133SOL    HW2  774   0.416   0.514   0.942
  134SOL     OW  775   1.138   0.380   1.678
  134SOL    HW1  776   1.093   0.443   1.742
  134SOL    HW2  777   1.231   0.411   1.661
  135SOL     OW  778   1.160   0.207   1.477
  135SOL    HW1  779   1.160   0.271   1.554
  135SOL    HW2  780   1.188   0.255   1.394
  136SOL     OW  781   0.008   1.326   0.200
  136SOL    HW1  782  -0.085   1.347   0.169
  136SOL    HW2  783   0.018   1.227   0.213
  137SOL     OW  784   0.088   1.801   0.927
  137SOL    HW1  785   0.046   1.715   0.900
  137SOL    HW2  786   0.182   1.804   0.893
  138SOL     OW  787   0.504   1.568   0.910
  138SOL    HW1  788   0.570   1.642   0.919
  138SOL    HW2  789   0.548   1.489   0.868
  139SOL     OW  790   1.002   0.796   1.238
  139SOL    HW1  791   1.043   0.764   1.324
  139SOL    HW2  792   0.906   0.769   1.235
  140SOL     OW  793   0.040   0.544   1.114
  140SOL    HW1  794   0.125   0.511   1.073
  140SOL    HW2  795   0.053   0.559   1.212
  141SOL     OW  796   0.189   0.520   1.722
  141SOL    HW1  797   0.248   0.480   1.652
  141SOL    HW2  798   0.131   0.591   1.681
  142SOL     OW  799   1.369   0.950   1.660
  142SOL    HW1  800   1.408   1.039   1.680
  142SOL    HW2  801   1.379   0.930   1.563
  143SOL     OW  802   0.815   0.572   0.325
  143SOL    HW1  803   0.822   0.483   0.279
  143SOL    HW2  804   0.721   0.606   0.317
  144SOL     OW  805   1.657   0.604   1.206
  144SOL    HW1  806   1.619   0.535   1.268
  144SOL    HW2  807   1.739   0.568   1.162
  145SOL     OW  808   0.252   1.564   1.744
  145SOL    HW1  809   0.222   1.621   1.820
  145SOL    HW2  810   0.245   1.467   1.770
  146SOL     OW  811   0.671   0.464   1.269
  146SOL    HW1  812   0.637   0.375   1.239
  146SOL    HW2  813   0.697   0.518   1.189
  147SOL     OW  814   0.930   1.678   1.465
  147SOL    HW1  815   0.906   1.660   1.370
  147SOL    HW2  816   0.960   1.772   1.475
  148SOL     OW  817   0.473   0.500   0.191
  148SOL    HW1  818   0.534   0.580   0.195
  148SOL    HW2  819   0.378   0.531   0.198
  149SOL     OW  820   0.159   1.137   1.466
  149SOL    HW1  821   0.181   1.076   1.542
  149SOL    HW2  822   0.169   1.088   1.380
  150SOL     OW  823   1.347   1.059   1.234
  150SOL    HW1  824   1.371   0.996   1.160
  150SOL    HW2  825   1.257   1.099   1.216
  151SOL     OW  826   1.302   0.855   0.309
  151SOL    HW1  827   1.216   0.824   0.351
  151SOL    HW2  828   1.298   0.841   0.210
  152SOL     OW  829   1.759   1.747   1.154
  152SOL    HW1  830   1.820   1.777   1.081
  152SOL    HW2  831   1.721   1.658   1.132
  153SOL     OW  832   1.252   1.731   1.128
  153SOL    HW1  833   1.336   1.736   1.074
  153SOL    HW2  834   1.229   1.635   1.146
  154SOL     OW  835   0.083   1.258   1.022
  154SOL    HW1  836   0.078   1.257   1.122
  154SOL    HW2  837   0.000   1.217   0.984
  155SOL     OW  838   0.688   1.662   1.716
  155SOL    HW1  839   0.632   1.743   1.725
  155SOL    HW2  840   0.740   1.666   1.630
  156SOL     OW  841   0.903   0.086   0.133
  156SOL    HW1  842   0.954   0.087   0.047
  156SOL    HW2  843   0.959   0.044   0.204
  157SOL     OW  844   1.726   0.135   0.523
  157SOL    HW1  845   1.799   0.118   0.456
  157SOL    HW2  846   1.695   0.048   0.561
  158SOL     OW  847   1.388   1.573   0.477
  158SOL    HW1  848   1.455   1.585   0.403
  158SOL    HW2  849   1.348   1.662   0.500
  159SOL     OW  850   0.130   1.794   1.851
  159SOL    HW1  851   0.089   1.720   1.904
  159SOL    HW2  852   0.194   1.845   1.909
  160SOL     OW  853   1.280   0.927   0.672
  160SOL    HW1  854   1.340   0.846   0.674
  160SOL    HW2  855   1.320   0.996   0.612
  161SOL     OW  856   0.830   1.273   1.422
  161SOL    HW1  857   0.825   1.306   1.517
  161SOL    HW2  858   0.744   1.292   1.376
  162SOL     OW  859   0.672   1.616   0.154
  162SOL    HW1  860   0.681   1.626   0.055
  162SOL    HW2  861   0.632   1.527   0.175
  163SOL     OW  862   1.650   1.720   1.394
  163SOL    HW1  863   1.703   1.730   1.310
  163SOL    HW2  864   1.623   1.810   1.428
  164SOL     OW  865   1.841   0.175   0.963
  164SOL    HW1  866   1.880   0.090   0.927
  164SOL    HW2  867   1.743   0.177   0.944
  165SOL     OW  868   0.263   0.326   0.720
  165SOL    HW1  869   0.184   0.377   0.686
  165SOL    HW2  870   0.254   0.311   0.818
  166SOL     OW  871   1.194   1.612   0.031
  166SOL    HW1  872   1.200   1.519   0.068
  166SOL    HW2  873   1.135   1.612  -0.049
  167SOL     OW  874   0.822   1.002   1.372
  167SOL    HW1  875   0.862   1.001   1.280
  167SOL    HW2  876   0.832   1.094   1.412
  168SOL     OW  877   0.916   0.910   0.291
  168SOL    HW1  878   0.979   0.948   0.223
  168SOL    HW2  879   0.956   0.827   0.330
  169SOL     OW  880   1.504   1.607   0.044
  169SOL    HW1  881   1.412   1.644   0.051
  169SOL    HW2  882   1.542   1.627  -0.046
  170SOL     OW  883   0.372   1.288   1.490
  170SOL    HW1  884   0.359   1.381   1.456
  170SOL    HW2  885   0.288   1.236   1.477
  171SOL     OW  886   1.614   1.292   1.289
  171SOL    HW1  887   1.674   1.295   1.369
  171SOL    HW2  888   1.539   1.356   1.302
  172SOL     OW  889   1.039   1.098   0.696
  172SOL    HW1  890   0.969   1.051   0.750
  172SOL    HW2  891   1.098   1.030   0.653
  173SOL     OW  892   1.014   0.236   0.971
  173SOL    HW1  893   1.006   0.200   0.878
  173SOL    HW2  894   1.012   0.160   1.036
  174SOL     OW  895   0.590   1.487   0.491
  174SOL    HW1  896   0.632   1.429   0.421
  174SOL    HW2  897   0.546   1.566   0.447
  175SOL     OW  898   1.709   0.385   1.381
  175SOL    HW1  899   1.782   0.454   1.385
  175SOL    HW2  900   1.737   0.310   1.322
  176SOL     OW  901   0.255   1.348   0.290
  176SOL    HW1  902   0.159   1.349   0.263
  176SOL    HW2  903   0.267   1.401   0.374
  177SOL     OW  904   0.105   1.013   1.726
  177SOL    HW1  905   0.028   0.980   1.780
  177SOL    HW2  906   0.190   0.983   1.768
  178SOL     OW  907   0.672   0.203   1.489
  178SOL    HW1  908   0.762   0.187   1.449
  178SOL    HW2  909   0.680   0.208   1.588
  179SOL     OW  910   0.075   0.345   0.033
  179SOL    HW1  911  -0.017   0.317   0.004
  179SOL    HW2  912   0.106   0.422  -0.023
  180SOL     OW  913   1.440   0.856   1.398
  180SOL    HW1  914   1.383   0.908   1.335
  180SOL    HW2  915   1.536   0.868   1.374
  181SOL     OW  916   0.072   0.166   0.318
  181SOL    HW1  917   0.055   0.249   0.264
  181SOL    HW2  918   0.162   0.129   0.296
  182SOL     OW  919   1.183   1.335   0.119
  182SOL    HW1  920   1.084   1.324   0.121
  182SOL    HW2  921   1.217   1.350   0.212
  183SOL     OW  922   0.613   0.842   1.431
  183SOL    HW1  923   0.669   0.923   1.414
  183SOL    HW2  924   0.672   0.762   1.434
  184SOL     OW  925   1.493   1.767   0.959
  184SOL    HW1  926   1.526   1.831   0.890
  184SOL    HW2  927   1.559   1.761   1.034
  185SOL     OW  928   0.716   0.565   1.708
  185SOL    HW1  929   0.735   0.630   1.782
  185SOL    HW2  930   0.776   0.485   1.717
  186SOL     OW  931   1.450   1.220   1.633
  186SOL    HW1  932   1.441   1.210   1.732
  186SOL    HW2  933   1.546   1.213   1.607
  187SOL     OW  934   0.390   1.741   1.560
  187SOL    HW1  935   0.299   1.782   1.558
  187SOL    HW2  936   0.383   1.647   1.592
  188SOL     OW  937   1.674   0.883   1.254
  188SOL    HW1  938   1.647   0.794   1.217
  188SOL    HW2  939   1.675   0.951   1.181
  189SOL     OW  940   1.225   0.325   0.449
  189SOL    HW1  941   1.290   0.251   0.438
  189SOL    HW2  942   1.245   0.375   0.533
  190SOL     OW  943   0.594   0.745   0.652
  190SOL    HW1  944   0.644   0.830   0.633
  190SOL    HW2  945   0.506   0.747   0.604
  191SOL     OW  946   1.777   0.342   1.642
  191SOL    HW1  947   1.760   0.373   1.548
  191SOL    HW2  948   1.693   0.305   1.680
  192SOL     OW  949   1.730   0.934   1.517
  192SOL    HW1  950   1.768   1.025   1.532
  192SOL    HW2  951   1.722   0.917   1.418
  193SOL     OW  952   0.859   1.374   0.016
  193SOL    HW1  953   0.813   1.389   0.104
  193SOL    HW2  954   0.903   1.459  -0.014
  194SOL     OW  955   0.661   1.790   0.953
  194SOL    HW1  956   0.615   1.878   0.940
  194SOL    HW2  957   0.760   1.802   0.946
  195SOL     OW  958   0.859   0.956   0.861
  195SOL    HW1  959   0.913   0.887   0.909
  195SOL    HW2  960   0.827   1.025   0.927
  196SOL     OW  961   1.083   0.984   0.087
  196SOL    HW1  962   1.060   1.037   0.005
  196SOL    HW2  963   1.164   0.928   0.068
  197SOL     OW  964   1.861   1.569   0.851
  197SOL    HW1  965   1.790   1.557   0.781
  197SOL    HW2  966   1.862   1.490   0.911
  198SOL     OW  967   0.221   1.314   1.844
  198SOL    HW1  968   0.156   1.241   1.823
  198SOL    HW2  969   0.225   1.328   1.942
  199SOL     OW  970   0.079   1.240   0.653
  199SOL    HW1  971   0.078   1.193   0.741
  199SOL    HW2  972   0.161   1.212   0.602
  200SOL     OW  973   0.672   1.391   1.624
  200SOL    HW1  974   0.594   1.341   1.662
  200SOL    HW2  975   0.669   1.486   1.655
  201SOL     OW  976   1.824   0.192   1.227
  201SOL    HW1  977   1.820   0.102   1.271
  201SOL    HW2  978   1.827   0.181   1.128
  202SOL     OW  979   0.428   0.424   0.520
  202SOL    HW1  980   0.458   0.352   0.458
  202SOL    HW2  981   0.389   0.384   0.603
  203SOL     OW  982   1.705   1.487   1.104
  203SOL    HW1  983   1.612   1.462   1.077
  203SOL    HW2  984   1.731   1.437   1.186
  204SOL     OW  985   0.317   0.547   1.280
  204SOL    HW1  986   0.355   0.488   1.352
  204SOL    HW2  987   0.357   0.521   1.192
  205SOL     OW  988   0.812   1.586   0.687
  205SOL    HW1  989   0.844   1.596   0.593
  205SOL    HW2  990   0.733   1.524   0.689
  206SOL     OW  991   1.424   0.214   1.112
  206SOL    HW1  992   1.476   0.149   1.167
  206SOL    HW2  993   1.375   0.277   1.173
  207SOL     OW  994   1.001   0.034   1.154
  207SOL    HW1  995   0.938  -0.038   1.123
  207SOL    HW2  996   1.094  -0.002   1.154
  208SOL     OW  997   0.770   1.330   0.301
  208SOL    HW1  998   0.724   1.243   0.318
  208SOL    HW2  999   0.861   1.327   0.342
  209SOL     OW 1000   0.618   1.567   1.284
  209SOL    HW1 1001   0.613   1.649   1.341
  209SOL    HW2 1002   0.707   1.564   1.239
  210SOL     OW 1003   1.352   0.052   0.168
  210SOL    HW1 1004   1.387   0.011   0.084
  210SOL    HW2 1005   1.262   0.014   0.188
  211SOL     OW 1006   1.300   0.453   0.691
  211SOL    HW1 1007   1.241   0.533   0.695
  211SOL    HW2 1008   1.315   0.418   0.784
  212SOL     OW 1009   1.593   0.221   0.882
  212SOL    HW1 1010   1.509   0.220   0.936
  212SOL    HW2 1011   1.595   0.304   0.826
  213SOL     OW 1012   0.039   1.077   0.300
  213SOL    HW1 1013   0.138   1.066   0.291
  213SOL    HW2 1014  -0.001   0.991   0.332
  214SOL     OW 1015   0.875   1.646   0.337
  214SOL    HW1 1016   0.798   1.611   0.283
  214SOL    HW2 1017   0.843   1.717   0.399
  215SOL     OW 1018   0.230   0.628   1.975
  215SOL    HW1 1019   0.137   0.626   2.012
  215SOL    HW2 1020   0.231   0.589   1.883
  216SOL     OW 1021   0.225   0.275   2.858
  216SOL    HW1 1022   0.260   0.258   2.950
  216SOL    HW2 1023   0.137   0.230   2.846
  217SOL     OW 1024   0.019   0.368   2.509
  217SOL    HW1 1025  -0.063   0.411   2.548
  217SOL    HW2 1026  -0.009   0.295   2.446
  218SOL     OW 1027   0.569   1.275   3.027
  218SOL    HW1 1028   0.476   1.268   2.990
  218SOL    HW2 1029   0.580   1.364   3.071
  219SOL     OW 1030   1.555   1.511   2.565
  219SOL    HW1 1031   1.498   1.495   2.646
  219SOL    HW2 1032   1.496   1.521   2.485
  220SOL     OW 1033   1.135   0.703   2.579
  220SOL    HW1 1034   1.192   0.781   2.554
  220SOL    HW2 1035   1.075   0.729   2.655
  221SOL     OW 1036   1.755   0.607   2.093
  221SOL    HW1 1037   1.743   0.594   1.994
  221SOL    HW2 1038   1.725   0.526   2.142
  222SOL     OW 1039   0.768   1.144   2.885
  222SOL    HW1 1040   0.690   1.161   2.945
  222SOL    HW2 1041   0.802   1.231   2.849
  223SOL     OW 1042   0.850   0.798   3.685
  223SOL    HW1 1043   0.846   0.874   3.750
  223SOL    HW2 1044   0.872   0.834   3.594
  224SOL     OW 1045   0.685   1.012   2.527
  224SOL    HW1 1046   0.754   0.996   2.597
  224SOL    HW2 1047   0.612   1.069   2.565
  225SOL     OW 1048   0.686   1.161   3.665
  225SOL    HW1 1049   0.746   1.240   3.679
  225SOL    HW2 1050   0.600   1.192   3.624
  226SOL     OW 1051   0.335   1.435   2.923
  226SOL    HW1 1052   0.257   1.404   2.870
  226SOL    HW2 1053   0.393   1.493   2.866
  227SOL     OW 1054   1.460   1.505   3.201
  227SOL    HW1 1055   1.484   1.599   3.227
  227SOL    HW2 1056   1.444   1.451   3.283
  228SOL     OW 1057   0.438   0.392   3.361
  228SOL    HW1 1058   0.520   0.336   3.370
  228SOL    HW2 1059   0.357   0.334   3.365
  229SOL     OW 1060   1.603   0.447   2.599
  229SOL    HW1 1061   1.529   0.493   2.549
  229SOL    HW2 1062   1.654   0.515   2.652
  230SOL     OW 1063   0.231   1.713   2.345
  230SOL    HW1 1064   0.265   1.790   2.399
  230SOL    HW2 1065   0.275   1.713   2.255
  231SOL     OW 1066   1.127   1.341   3.552
  231SOL    HW1 1067   1.174   1.341   3.640
  231SOL    HW2 1068   1.079   1.254   3.541
  232SOL     OW 1069   0.230   1.434   2.400
  232SOL    HW1 1070   0.204   1.530   2.400
  232SOL    HW2 1071   0.159   1.380   2.445
  233SOL     OW 1072   0.240   1.091   2.748
  233SOL    HW1 1073   0.254   1.007   2.800
  233SOL    HW2 1074   0.185   1.155   2.803
  234SOL     OW 1075   0.620   1.786   3.301
  234SOL    HW1 1076   0.528   1.769   3.336
  234SOL    HW2 1077   0.648   1.878   3.327
  235SOL     OW 1078   0.606   0.964   1.985
  235SOL    HW1 1079   0.613   1.048   1.931
  235SOL    HW2 1080   0.652   0.977   2.073
  236SOL     OW 1081   1.594   0.114   3.342
  236SOL    HW1 1082   1.576   0.181   3.270
  236SOL    HW2 1083   1.591   0.160   3.431
  237SOL     OW 1084   0.122   0.643   2.425
  237SOL    HW1 1085   0.077   0.555   2.442
  237SOL    HW2 1086   0.121   0.697   2.509
  238SOL     OW 1087   1.842   1.767   2.221
  238SOL    HW1 1088   1.896   1.738   2.301
  238SOL    HW2 1089   1.872   1.857   2.192
  239SOL     OW 1090   0.027   1.596   1.979
  239SOL    HW1 1091   0.008   1.500   2.000
  239SOL    HW2 1092  -0.006   1.654   2.054
  240SOL     OW 1093   1.689   0.922   2.474
  240SOL    HW1 1094   1.784   0.893   2.482
  240SOL    HW2 1095   1.681   0.987   2.399
  241SOL     OW 1096   1.641   1.108   2.294
  241SOL    HW1 1097   1.727   1.110   2.242
  241SOL    HW2 1098   1.655   1.155   2.382
  242SOL     OW 1099   0.113   0.737   3.459
  242SOL    HW1 1100   0.201   0.724   3.504
  242SOL    HW2 1101   0.100   0.834   3.437
  243SOL     OW 1102   0.613   1.365   2.588
  243SOL    HW1 1103   0.564   1.278   2.597
  243SOL    HW2 1104   0.590   1.408   2.501
  244SOL     OW 1105   1.293   1.228   3.285
  244SOL    HW1 1106   1.330   1.155   3.227
  244SOL    HW2 1107   1.345   1.233   3.370
  245SOL     OW 1108   0.809   0.004   2.364
  245SOL    HW1 1109   0.849   0.095   2.355
  245SOL    HW2 1110   0.709   0.012   2.370
  246SOL     OW 1111   0.197   0.976   3.126
  246SOL    HW1 1112   0.286   0.931   3.112
  246SOL    HW2 1113   0.124   0.911   3.107
  247SOL     OW 1114   1.525   0.999   2.052
  247SOL    HW1 1115   1.462   0.923   2.065
  247SOL    HW2 1116   1.573   1.017   2.138
  248SOL     OW 1117   1.187   1.792   3.478
  248SOL    HW1 1118   1.211   1.852   3.402
  248SOL    HW2 1119   1.194   1.697   3.448
  249SOL     OW 1120   0.317   0.251   3.663
  249SOL    HW1 1121   0.388   0.322   3.669
  249SOL    HW2 1122   0.229   0.290   3.691
  250SOL     OW 1123   1.466   1.417   2.815
  250SOL    HW1 1124   1.407   1.423   2.895
  250SOL    HW2 1125   1.451   1.329   2.769
  251SOL     OW 1126   1.667   1.714   2.434
  251SOL    HW1 1127   1.626   1.691   2.346
  251SOL    HW2 1128   1.649   1.640   2.499
  252SOL     OW 1129   0.598   0.729   2.132
  252SOL    HW1 1130   0.622   0.798   2.064
  252SOL    HW2 1131   0.520   0.762   2.186
  253SOL     OW 1132   1.281   0.345   2.806
  253SOL    HW1 1133   1.195   0.295   2.793
  253SOL    HW2 1134   1.343   0.291   2.862
  254SOL     OW 1135   1.576   1.662   2.169
  254SOL    HW1 1136   1.665   1.708   2.172
  254SOL    HW2 1137   1.555   1.638   2.074
  255SOL     OW 1138   0.807   0.605   3.327
  255SOL    HW1 1139   0.760   0.602   3.416
  255SOL    HW2 1140   0.756   0.550   3.261
  256SOL     OW 1141   1.394   0.469   3.536
  256SOL    HW1 1142   1.374   0.512   3.624
  256SOL    HW2 1143   1.472   0.407   3.545
  257SOL     OW 1144   0.973   0.890   3.434
  257SOL    HW1 1145   1.019   0.806   3.405
  257SOL    HW2 1146   0.917   0.924   3.359
  258SOL     OW 1147   0.991   0.410   3.104
  258SOL    HW1 1148   0.914   0.444   3.158
  258SOL    HW2 1149   0.957   0.359   3.025
  259SOL     OW 1150   1.041   0.701   2.291
  259SOL    HW1 1151   1.067   0.697   2.387
  259SOL    HW2 1152   0.956   0.650   2.277
  260SOL     OW 1153   0.076   0.811   2.651
  260SOL    HW1 1154   0.175   0.799   2.660
  260SOL    HW2 1155   0.052   0.906   2.672
  261SOL     OW 1156   0.130   1.821   3.433
  261SOL    HW1 1157   0.120   1.806   3.532
  261SOL    HW2 1158   0.044   1.857   3.397
  262SOL     OW 1159   0.865   0.348   2.057
  262SOL    HW1 1160   0.924   0.411   2.008
  262SOL    HW2 1161   0.884   0.254   2.028
  263SOL     OW 1162   1.719   0.585   3.693
  263SOL    HW1 1163   1.693   0.674   3.657
  263SOL    HW2 1164   1.717   0.517   3.620
  264SOL     OW 1165   1.362   1.144   2.407
  264SOL    HW1 1166   1.445   1.115   2.359
  264SOL    HW2 1167   1.313   1.211   2.351
  265SOL     OW 1168   0.550   0.196   2.747
  265SOL    HW1 1169   0.545   0.191   2.847
  265SOL    HW2 1170   0.552   0.292   2.718
  266SOL     OW 1171   1.008   1.456   2.339
  266SOL    HW1 1172   0.962   1.528   2.287
  266SOL    HW2 1173   1.004   1.476   2.437
  267SOL     OW 1174   0.351   1.801   2.715
  267SOL    HW1 1175   0.401   1.715   2.721
  267SOL    HW2 1176   0.416   1.878   2.712
  268SOL     OW 1177   1.795   1.066   2.735
  268SOL    HW1 1178   1.733   1.051   2.659
  268SOL    HW2 1179   1.743   1.077   2.820
  269SOL     OW 1180   1.227   1.550   3.368
  269SOL    HW1 1181   1.233   1.473   3.432
  269SOL    HW2 1182   1.175   1.524   3.288
  270SOL     OW 1183   0.321   0.943   2.104
  270SOL    HW1 1184   0.403   0.982   2.062
  270SOL    HW2 1185   0.294   0.861   2.055
  271SOL     OW 1186   1.458   0.735   2.590
  271SOL    HW1 1187   1.453   0.670   2.665
  271SOL    HW2 1188   1.538   0.794   2.603
  272SOL     OW 1189   0.461   1.266   3.589
  272SOL    HW1 1190   0.411   1.267   3.503
  272SOL    HW2 1191   0.398   1.248   3.665
  273SOL     OW 1192   1.111   1.776   2.099
  273SOL    HW1 1193   1.051   1.714   2.149
  273SOL    HW2 1194   1.142   1.732   2.014
  274SOL     OW 1195   0.202   0.285   3.360
  274SOL    HW1 1196   0.122   0.345   3.347
  274SOL    HW2 1197   0.192   0.236   3.446
  275SOL     OW 1198   1.632   1.377   1.943
  275SOL    HW1 1199   1.600   1.471   1.933
  275SOL    HW2 1200   1.556   1.314   1.931
  276SOL     OW 1201   0.464   1.743   2.185
  276SOL    HW1 1202   0.497   1.782   2.271
  276SOL    HW2 1203   0.540   1.736   2.120
  277SOL     OW 1204   1.400   0.107   2.288
  277SOL    HW1 1205   1.376   0.070   2.198
  277SOL    HW2 1206   1.499   0.123   2.292
  278SOL     OW 1207   0.249   1.785   3.103
  278SOL    HW1 1208   0.306   1.720   3.153
  278SOL    HW2 1209   0.233   1.752   3.010
  279SOL     OW 1210   0.940   1.698   2.766
  279SOL    HW1 1211   1.020   1.641   2.787
  279SOL    HW2 1212   0.891   1.658   2.689
  280SOL     OW 1213   0.382   0.700   2.342
  280SOL    HW1 1214   0.427   0.610   2.339
  280SOL    HW2 1215   0.288   0.689   2.375
  281SOL     OW 1216   1.547   0.222   3.591
  281SOL    HW1 1217   1.542   0.259   3.683
  281SOL    HW2 1218   1.475   0.153   3.579
  282SOL     OW 1219   0.614   0.122   1.979
  282SOL    HW1 1220   0.712   0.100   1.986
  282SOL    HW2 1221   0.583   0.105   1.886
  283SOL     OW 1222   0.781   0.264   3.611
  283SOL    HW1 1223   0.848   0.203   3.654
  283SOL    HW2 1224   0.708   0.283   3.676
  284SOL     OW 1225   0.888   1.514   3.057
  284SOL    HW1 1226   0.865   1.489   2.963
  284SOL    HW2 1227   0.949   1.445   3.096
  285SOL     OW 1228   1.351   0.590   3.295
  285SOL    HW1 1229   1.379   0.547   3.380
  285SOL    HW2 1230   1.376   0.686   3.296
  286SOL     OW 1231   0.803   1.402   2.786
  286SOL    HW1 1232   0.893   1.416   2.744
  286SOL    HW2 1233   0.732   1.404   2.715
  287SOL     OW 1234   0.922   0.503   2.761
  287SOL    HW1 1235   0.897   0.494   2.665
  287SOL    HW2 1236   0.970   0.421   2.792
  288SOL     OW 1237   0.539   0.064   2.374
  288SOL    HW1 1238   0.458   0.065   2.432
  288SOL    HW2 1239   0.542   0.147   2.319
  289SOL     OW 1240   1.434   1.188   1.903
  289SOL    HW1 1241   1.466   1.112   1.960
  289SOL    HW2 1242   1.342   1.215   1.933
  290SOL     OW 1243   0.297   0.035   2.033
  290SOL    HW1 1244   0.346   0.119   2.012
  290SOL    HW2 1245   0.359  -0.030   2.078
  291SOL     OW 1246   0.935   0.236   2.342
  291SOL    HW1 1247   0.887   0.277   2.264
  291SOL    HW2 1248   1.034   0.234   2.323
  292SOL     OW 1249   1.076   0.683   3.326
  292SOL    HW1 1250   0.996   0.622   3.329
  292SOL    HW2 1251   1.157   0.630   3.302
  293SOL     OW 1252   1.227   1.570   2.655
  293SOL    HW1 1253   1.248   1.644   2.590
  293SOL    HW2 1254   1.295   1.570   2.728
  294SOL     OW 1255   0.459   1.152   2.603
  294SOL    HW1 1256   0.388   1.125   2.668
  294SOL    HW2 1257   0.433   1.124   2.510
  295SOL     OW 1258   1.271   1.797   2.453
  295SOL    HW1 1259   1.315   1.861   2.389
  295SOL    HW2 1260   1.221   1.849   2.523
  296SOL     OW 1261   1.032   0.549   1.878
  296SOL    HW1 1262   0.991   0.631   1.839
  296SOL    HW2 1263   1.096   0.575   1.951
  297SOL     OW 1264   0.078   0.556   3.248
  297SOL    HW1 1265   0.170   0.555   3.207
  297SOL    HW2 1266   0.072   0.630   3.315
  298SOL     OW 1267   0.561   0.222   3.009
  298SOL    HW1 1268   0.599   0.138   3.046
  298SOL    HW2 1269   0.473   0.241   3.053
  299SOL     OW 1270   0.866   0.454   2.504
  299SOL    HW1 1271   0.834   0.526   2.442
  299SOL    HW2 1272   0.890   0.373   2.451
  300SOL     OW 1273   1.017   0.039   2.615
  300SOL    HW1 1274   0.945   0.044   2.546
  300SOL    HW2 1275   0.993  -0.030   2.684
  301SOL     OW 1276   1.429   1.173   2.729
  301SOL    HW1 1277   1.374   1.089   2.722
  301SOL    HW2 1278   1.455   1.202   2.637
  302SOL     OW 1279   1.466   0.590   2.854
  302SOL    HW1 1280   1.436   0.495   2.861
  302SOL    HW2 1281   1.539   0.606   2.920
  303SOL     OW 1282   1.857   0.833   2.239
  303SOL    HW1 1283   1.899   0.769   2.303
  303SOL    HW2 1284   1.819   0.782   2.161
  304SOL     OW 1285   0.488   1.385   2.036
  304SOL    HW1 1286   0.401   1.370   2.083
  304SOL    HW2 1287   0.471   1.411   1.941
  305SOL     OW 1288   1.664   1.280   2.519
  305SOL    HW1 1289   1.763   1.288   2.533
  305SOL    HW2 1290   1.619   1.364   2.550
  306SOL     OW 1291   1.390   0.575   1.940
  306SOL    HW1 1292   1.336   0.554   2.021
  306SOL    HW2 1293   1.481   0.534   1.949
  307SOL     OW 1294   0.527   0.256   2.190
  307SOL    HW1 1295   0.554   0.197   2.115
  307SOL    HW2 1296   0.527   0.351   2.159
  308SOL     OW 1297   1.754   1.223   3.450
  308SOL    HW1 1298   1.845   1.184   3.437
  308SOL    HW2 1299   1.762   1.319   3.474
  309SOL     OW 1300   1.064   1.347   3.202
  309SOL    HW1 1301   0.984   1.324   3.257
  309SOL    HW2 1302   1.147   1.321   3.251
  310SOL     OW 1303   1.592   1.629   3.487
  310SOL    HW1 1304   1.619   1.663   3.397
  310SOL    HW2 1305   1.671   1.591   3.533
  311SOL     OW 1306   1.111   1.195   2.962
  311SOL    HW1 1307   1.071   1.239   3.043
  311SOL    HW2 1308   1.070   1.232   2.879
  312SOL     OW 1309   1.638   1.099   2.941
  312SOL    HW1 1310   1.643   1.180   3.000
  312SOL    HW2 1311   1.552   1.101   2.890
  313SOL     OW 1312   0.915   0.089   3.264
  313SOL    HW1 1313   0.940   0.069   3.169
  313SOL    HW2 1314   0.987   0.145   3.306
  314SOL     OW 1315   0.980   1.116   3.581
  314SOL    HW1 1316   0.881   1.122   3.591
  314SOL    HW2 1317   1.003   1.036   3.525
  315SOL     OW 1318   0.705   1.050   2.230
  315SOL    HW1 1319   0.691   1.057   2.329
  315SOL    HW2 1320   0.789   0.999   2.212
  316SOL     OW 1321   0.410   0.813   3.113
  316SOL    HW1 1322   0.496   0.825   3.163
  316SOL    HW2 1323   0.368   0.726   3.140
  317SOL     OW 1324   1.274   0.386   3.124
  317SOL    HW1 1325   1.295   0.460   3.188
  317SOL    HW2 1326   1.185   0.403   3.081
  318SOL     OW 1327   0.064   1.564   3.193
  318SOL    HW1 1328   0.018   1.646   3.159
  318SOL    HW2 1329   0.162   1.583   3.202
  319SOL     OW 1330   0.367   1.100   2.363
  319SOL    HW1 1331   0.360   1.183   2.307
  319SOL    HW2 1332   0.371   1.020   2.303
  320SOL     OW 1333   0.566   0.537   2.727
  320SOL    HW1 1334   0.578   0.603   2.653
  320SOL    HW2 1335   0.612   0.571   2.810
  321SOL     OW 1336   1.252   1.348   2.250
  321SOL    HW1 1337   1.302   1.425   2.290
  321SOL    HW2 1338   1.157   1.350   2.282
  322SOL     OW 1339   1.272   1.445   3.004
  322SOL    HW1 1340   1.319   1.458   3.091
  322SOL    HW2 1341   1.206   1.371   3.013
  323SOL     OW 1342   1.582   0.639   2.334
  323SOL    HW1 1343   1.551   0.700   2.407
  323SOL    HW2 1344   1.632   0.691   2.265
  324SOL     OW 1345   0.354   1.510   3.191
  324SOL    HW1 1346   0.333   1.466   3.104
  324SOL    HW2 1347   0.451   1.536   3.194
  325SOL     OW 1348   0.402   0.751   3.460
  325SOL    HW1 1349   0.470   0.806   3.413
  325SOL    HW2 1350   0.442   0.663   3.487
  326SOL     OW 1351   1.587   0.779   3.532
  326SOL    HW1 1352   1.495   0.817   3.527
  326SOL    HW2 1353   1.647   0.826   3.467
  327SOL     OW 1354   1.013   0.105   3.632
  327SOL    HW1 1355   1.019   0.190   3.580
  327SOL    HW2 1356   1.045   0.029   3.575
  328SOL     OW 1357   0.504   0.050   3.602
  328SOL    HW1 1358   0.462  -0.007   3.532
  328SOL    HW2 1359   0.438   0.119   3.634
  329SOL     OW 1360   0.573   0.870   2.891
  329SOL    HW1 1361   0.617   0.959   2.882
  329SOL    HW2 1362   0.510   0.870   2.968
  330SOL     OW 1363   1.360   0.862   2.907
  330SOL    HW1 1364   1.285   0.862   2.841
  330SOL    HW2 1365   1.397   0.770   2.916
  331SOL     OW 1366   1.209   0.525   2.137
  331SOL    HW1 1367   1.222   0.441   2.191
  331SOL    HW2 1368   1.180   0.599   2.197
  332SOL     OW 1369   0.307   0.213   3.093
  332SOL    HW1 1370   0.284   0.250   3.183
  332SOL    HW2 1371   0.277   0.118   3.087
  333SOL     OW 1372   0.037   1.310   3.144
  333SOL    HW1 1373   0.090   1.261   3.212
  333SOL    HW2 1374   0.059   1.408   3.149
  334SOL     OW 1375   0.732   0.634   2.926
  334SOL    HW1 1376   0.791   0.608   2.850
  334SOL    HW2 1377   0.704   0.730   2.915
  335SOL     OW 1378   1.728   0.935   3.716
  335SOL    HW1 1379   1.682   0.928   3.627
  335SOL    HW2 1380   1.666   0.979   3.782
  336SOL     OW 1381   0.307   0.063   2.480
  336SOL    HW1 1382   0.296   0.157   2.513
  336SOL    HW2 1383   0.302   0.000   2.557
  337SOL     OW 1384   1.622   0.367   2.236
  337SOL    HW1 1385   1.624   0.291   2.300
  337SOL    HW2 1386   1.574   0.444   2.276
  338SOL     OW 1387   1.023   0.766   2.828
  338SOL    HW1 1388   1.038   0.787   2.924
  338SOL    HW2 1389   0.993   0.671   2.819
  339SOL     OW 1390   0.980   1.573   3.562
  339SOL    HW1 1391   0.960   1.617   3.474
  339SOL    HW2 1392   1.019   1.482   3.546
  340SOL     OW 1393   1.859   1.518   3.467
  340SOL    HW1 1394   1.873   1.545   3.372
  340SOL    HW2 1395   1.942   1.540   3.520
  341SOL     OW 1396   0.350   0.898   3.666
  341SOL    HW1 1397   0.426   0.942   3.714
  341SOL    HW2 1398   0.385   0.851   3.584
  342SOL     OW 1399   1.540   0.274   1.987
  342SOL    HW1 1400   1.479   0.199   2.010
  342SOL    HW2 1401   1.562   0.326   2.070
  343SOL     OW 1402   1.303   0.838   1.904
  343SOL    HW1 1403   1.337   0.745   1.919
  343SOL    HW2 1404   1.321   0.865   1.809
  344SOL     OW 1405   1.068   1.333   2.711
  344SOL    HW1 1406   1.075   1.249   2.656
  344SOL    HW2 1407   1.130   1.402   2.675
  345SOL     OW 1408   0.319   0.810   2.811
  345SOL    HW1 1409   0.412   0.846   2.816
  345SOL    HW2 1410   0.313   0.725   2.863
  346SOL     OW 1411   0.339   0.509   2.868
  346SOL    HW1 1412   0.287   0.426   2.851
  346SOL    HW2 1413   0.416   0.514   2.804
  347SOL     OW 1414   1.138   0.380   3.540
  347SOL    HW1 1415   1.093   0.443   3.604
  347SOL    HW2 1416   1.231   0.411   3.523
  348SOL     OW 1417   1.160   0.207   3.339
  348SOL    HW1 1418   1.160   0.271   3.416
  348SOL    HW2 1419   1.188   0.255   3.256
  349SOL     OW 1420   0.008   1.326   2.062
  349SOL    HW1 1421  -0.085   1.347   2.031
  349SOL    HW2 1422   0.018   1.227   2.075
  350SOL     OW 1423   0.088   1.801   2.789
  350SOL    HW1 1424   0.046   1.715   2.762
  350SOL    HW2 1425   0.182   1.804   2.755
  351SOL     OW 1426   0.504   1.568   2.772
  351SOL    HW1 1427   0.570   1.642   2.781
  351SOL    HW2 1428   0.548   1.489   2.730
  352SOL     OW 1429   1.002   0.796   3.100
  352SOL    HW1 1430   1.043   0.764   3.186
  352SOL    HW2 1431   0.906   0.769   3.097
  353SOL     OW 1432   0.040   0.544   2.976
  353SOL    HW1 1433   0.125   0.511   2.935
  353SOL    HW2 1434   0.053   0.559   3.074
  354SOL     OW 1435   0.189   0.520   3.584
  354SOL    HW1 1436   0.248   0.480   3.514
  354SOL    HW2 1437   0.131   0.591   3.543
  355SOL     OW 1438   1.369   0.950   3.522
  355SOL    HW1 1439   1.408   1.039   3.542
  355SOL    HW2 1440   1.379   0.930   3.425
  356SOL     OW 1441   0.815   0.572   2.187
  356SOL    HW1 1442   0.822   0.483   2.141
  356SOL    HW2 1443   0.721   0.606   2.179
  357SOL     OW 1444   1.657   0.604   3.068
  357SOL    HW1 1445   1.619   0.535   3.130
  357SOL    HW2 1446   1.739   0.568   3.024
  358SOL     OW 1447   0.252   1.564   3.606
  358SOL    HW1 1448   0.222   1.621   3.682
  358SOL    HW2 1449   0.245   1.467   3.632
  359SOL     OW 1450   0.671   0.464   3.131
  359SOL    HW1 1451   0.637   0.375   3.101
  359SOL    HW2 1452   0.697   0.518   3.051
  360SOL     OW 1453   0.930   1.678   3.327
  360SOL    HW1 1454   0.906   1.660   3.232
  360SOL    HW2 1455   0.960   1.772   3.337
  361SOL     OW 1456   0.473   0.500   2.053
  361SOL    HW1 1457   0.534   0.580   2.057
  361SOL    HW2 1458   0.378   0.531   2.060
  362SOL     OW 1459   0.159   1.137   3.328
  362SOL    HW1 1460   0.181   1.076   3.404
  362SOL    HW2 1461   0.169   1.088   3.242
  363SOL     OW 1462   1.347   1.059   3.096
  363SOL    HW1 1463   1.371   0.996   3.022
  363SOL    HW2 1464   1.257   1.099   3.078
  364SOL     OW 1465   1.302   0.855   2.171
  364SOL    HW1 1466   1.216   0.824   2.213
  364SOL    HW2 1467   1.298   0.841   2.072
  365SOL     OW 1468   1.759   1.747   3.016
  365SOL    HW1 1469   1.820   1.777   2.943
  365SOL    HW2 1470   1.721   1.658   2.994
  366SOL     OW 1471   1.252   1.731   2.990
  366SOL    HW1 1472   1.336   1.736   2.936
  366SOL    HW2 1473   1.229   1.635   3.008
  367SOL     OW 1474   0.083   1.258   2.884
  367SOL    HW1 1475   0.078   1.257   2.984
  367SOL    HW2 1476   0.000   1.217   2.846
  368SOL     OW 1477   0.688   1.662   3.578
  368SOL    HW1 1478   0.632   1.743   3.587
  368SOL    HW2 1479   0.740   1.666   3.492
  369SOL     OW 1480   1.726   0.135   2.385
  369SOL    HW1 1481   1.799   0.118   2.318
  369SOL    HW2 1482   1.695   0.048   2.423
  370SOL     OW 1483   1.388   1.573   2.339
  370SOL    HW1 1484   1.455   1.585   2.265
  370SOL    HW2 1485   1.348   1.662   2.362
  371SOL     OW 1486   0.130   1.794   3.713
  371SOL    HW1 1487   0.089   1.720   3.766
  371SOL    HW2 1488   0.194   1.845   3.771
  372SOL     OW 1489   1.280   0.927   2.534
  372SOL    HW1 1490   1.340   0.846   2.536
  372SOL    HW2 1491   1.320   0.996   2.474
  373SOL     OW 1492   0.830   1.273   3.284
  373SOL    HW1 1493   0.825   1.306   3.379
  373SOL    HW2 1494   0.744   1.292   3.238
  374SOL     OW 1495   0.672   1.616   2.016
  374SOL    HW1 1496   0.681   1.626   1.917
  374SOL    HW2 1497   0.632   1.527   2.037
  375SOL     OW 1498   1.650   1.720   3.256
  375SOL    HW1 1499   1.703   1.730   3.172
  375SOL    HW2 1500   1.623   1.810   3.290
  376SOL     OW 1501   1.841   0.175   2.825
  376SOL    HW1 1502   1.880   0.090   2.789
  376SOL    HW2 1503   1.743   0.177   2.806
  377SOL     OW 1504   0.263   0.326   2.582
  377SOL    HW1 1505   0.184   0.377   2.548
  377SOL    HW2 1506   0.254   0.311   2.680
  378SOL     OW 1507   1.194   1.612   1.893
  378SOL    HW1 1508   1.200   1.519   1.930
  378SOL    HW2 1509   1.135   1.612   1.813
  379SOL     OW 1510   0.822   1.002   3.234
  379SOL    HW1 1511   0.862   1.001   3.142
  379SOL    HW2 1512   0.832   1.094   3.274
  380SOL     OW 1513   0.916   0.910   2.153
  380SOL    HW1 1514   0.979   0.948   2.085
  380SOL    HW2 1515   0.956   0.827   2.192
  381SOL     OW 1516   1.504   1.607   1.906
  381SOL    HW1 1517   1.412   1.644   1.913
  381SOL    HW2 1518   1.542   1.627   1.816
  382SOL     OW 1519   0.372   1.288   3.352
  382SOL    HW1 1520   0.359   1.381   3.318
  382SOL    HW2 1521   0.288   1.236   3.339
  383SOL     OW 1522   1.614   1.292   3.151
  383SOL    HW1 1523   1.674   1.295   3.231
  383SOL    HW2 1524   1.539   1.356   3.164
  384SOL     OW 1525   1.039   1.098   2.558
  384SOL    HW1 1526   0.969   1.051   2.612
  384SOL    HW2 1527   1.098   1.030   2.515
  385SOL     OW 1528   1.014   0.236   2.833
  385SOL    HW1 1529   1.006   0.200   2.740
  385SOL    HW2 1530   1.012   0.160   2.898
  386SOL     OW 1531   0.590   1.487   2.353
  386SOL    HW1 1532   0.632   1.429   2.283
  386SOL    HW2 1533   0.546   1.566   2.309
  387SOL     OW 1534   1.709   0.385   3.243
  387SOL    HW1 1535   1.782   0.454   3.247
  387SOL    HW2 1536   1.737   0.310   3.184
  388SOL     OW 1537   0.255   1.348   2.152
  388SOL    HW1 1538   0.159   1.349   2.125
  388SOL    HW2 1539   0.267   1.401   2.236
  389SOL     OW 1540   0.105   1.013   3.588
  389SOL    HW1 1541   0.028   0.980   3.642
  389SOL    HW2 1542   0.190   0.983   3.630
  390SOL     OW 1543   0.672   0.203   3.351
  390SOL    HW1 1544   0.762   0.187   3.311
  390SOL    HW2 1545   0.680   0.208   3.450
  391SOL     OW 1546   0.075   0.345   1.895
  391SOL    HW1 1547  -0.017   0.317   1.866
  391SOL    HW2 1548   0.106   0.422   1.839
  392SOL     OW 1549   1.440   0.856   3.260
  392SOL    HW1 1550   1.383   0.908   3.197
  392SOL    HW2 1551   1.536   0.868   3.236
  393SOL     OW 1552   0.072   0.166   2.180
  393SOL    HW1 1553   0.055   0.249   2.126
  393SOL    HW2 1554   0.162   0.129   2.158
  394SOL     OW 1555   1.183   1.335   1.981
  394SOL    HW1 1556   1.084   1.324   1.983
  394SOL    HW2 1557   1.217   1.350   2.074
  395SOL     OW 1558   0.613   0.842   3.293
  395SOL    HW1 1559   0.669   0.923   3.276
  395SOL    HW2 1560   0.672   0.762   3.296
  396SOL     OW 1561   1.493   1.767   2.821
  396SOL    HW1 1562   1.526   1.831   2.752
  396SOL    HW2 1563   1.559   1.761   2.896
  397SOL     OW 1564   0.716   0.565   3.570
  397SOL    HW1 1565   0.735   0.630   3.644
  397SOL    HW2 1566   0.776   0.485   3.579
  398SOL     OW 1567   1.450   1.220   3.495
  398SOL    HW1 1568   1.441   1.210   3.594
  398SOL    HW2 1569   1.546   1.213   3.469
  399SOL     OW 1570   0.390   1.741   3.422
  399SOL    HW1 1571   0.299   1.782   3.420
  399SOL    HW2 1572   0.383   1.647   3.454
  400SOL     OW 1573   1.674   0.883   3.116
  400SOL    HW1 1574   1.647   0.794   3.079
  400SOL    HW2 1575   1.675   0.951   3.043
  401SOL     OW 1576   1.225   0.325   2.311
  401SOL    HW1 1577   1.290   0.251   2.300
  401SOL    HW2 1578   1.245   0.375   2.395
  402SOL     OW 1579   0.594   0.745   2.514
  402SOL    HW1 1580   0.644   0.830   2.495
  402SOL    HW2 1581   0.506   0.747   2.466
  403SOL     OW 1582   1.777   0.342   3.504
  403SOL    HW1 1583   1.760   0.373   3.410
  403SOL    HW2 1584   1.693   0.305   3.542
  404SOL     OW 1585   1.730   0.934   3.379
  404SOL    HW1 1586   1.768   1.025   3.394
  404SOL    HW2 1587   1.722   0.917   3.280
  405SOL     OW 1588   0.859   1.374   1.878
  405SOL    HW1 1589   0.813   1.389   1.966
  405SOL    HW2 1590   0.903   1.459   1.848
  406SOL     OW 1591   0.661   1.790   2.815
  406SOL    HW1 1592   0.615   1.878   2.802
  406SOL    HW2 1593   0.760   1.802   2.808
  407SOL     OW 1594   0.859   0.956   2.723
  407SOL    HW1 1595   0.913   0.887   2.771
  407SOL    HW2 1596   0.827   1.025   2.789
  408SOL     OW 1597   1.083   0.984   1.949
  408SOL    HW1 1598   1.060   1.037   1.867
  408SOL    HW2 1599   1.164   0.928   1.930
  409SOL     OW 1600   1.861   1.569   2.713
  409SOL    HW1 1601   1.790   1.557   2.643
  409SOL    HW2 1602   1.862   1.490   2.773
  410SOL     OW 1603   0.221   1.314   3.706
  410SOL    HW1 1604   0.156   1.241   3.685
  410SOL    HW2 1605   0.225   1.328   3.804
  411SOL     OW 1606   0.079   1.240   2.515
  411SOL    HW1 1607   0.078   1.193   2.603
  411SOL    HW2 1608   0.161   1.212   2.464
  412SOL     OW 1609   0.672   1.391   3.486
  412SOL    HW1 1610   0.594   1.341   3.524
  412SOL    HW2 1611   0.669   1.486   3.517
  413SOL     OW 1612   1.824   0.192   3.089
  413SOL    HW1 1613   1.820   0.102   3.133
  413SOL    HW2 1614   1.827   0.181   2.990
  414SOL     OW 1615   0.428   0.424   2.382
  414SOL    HW1 1616   0.458   0.352   2.320
  414SOL    HW2 1617   0.389   0.384   2.465
  415SOL     OW 1618   1.705   1.487   2.966
  415SOL    HW1 1619   1.612   1.462   2.939
  415SOL    HW2 1620   1.731   1.437   3.048
  416SOL     OW 1621   0.317   0.547   3.142
  416SOL    HW1 1622   0.355   0.488   3.214
  416SOL    HW2 1623   0.357   0.521   3.054
  417SOL     OW 1624   0.812   1.586   2.549
  417SOL    HW1 1625   0.844   1.596   2.455
  417SOL    HW2 1626   0.733   1.524   2.551
  418SOL     OW 1627   1.424   0.214   2.974
  418SOL    HW1 1628   1.476   0.149   3.029
  418SOL    HW2 1629   1.375   0.277   3.035
  419SOL     OW 1630   1.001   0.034   3.016
  419SOL    HW1 1631   0.938  -0.038   2.985
  419SOL    HW2 1632   1.094  -0.002   3.016
  420SOL     OW 1633   0.770   1.330   2.163
  420SOL    HW1 1634   0.724   1.243   2.180
  420SOL    HW2 1635   0.861   1.327   2.204
  421SOL     OW 1636   0.618   1.567   3.146
  421SOL    HW1 1637   0.613   1.649   3.203
  421SOL    HW2 1638   0.707   1.564   3.101
  422SOL     OW 1639   1.352   0.052   2.030
  422SOL    HW1 1640   1.387   0.011   1.946
  422SOL    HW2 1641   1.262   0.014   2.050
  423SOL     OW 1642   1.300   0.453   2.553
  423SOL    HW1 1643   1.241   0.533   2.557
  423SOL    HW2 1644   1.315   0.418   2.646
  424SOL     OW 1645   1.593   0.221   2.744
  424SOL    HW1 1646   1.509   0.220   2.798
  424SOL    HW2 1647   1.595   0.304   2.688
  425SOL     OW 1648   0.039   1.077   2.162
  425SOL    HW1 1649   0.138   1.066   2.153
  425SOL    HW2 1650  -0.001   0.991   2.194
  426SOL     OW 1651   0.875   1.646   2.199
  426SOL    HW1 1652   0.798   1.611   2.145
  426SOL    HW2 1653   0.843   1.717   2.261
  427SOL     OW 1654   0.230   0.628   3.837
  427SOL    HW1 1655   0.137   0.626   3.874
  427SOL    HW2 1656   0.231   0.589   3.745
  428SOL     OW 1657   0.225   0.275   4.720
  428SOL    HW1 1658   0.260   0.258   4.812
  428SOL    HW2 1659   0.137   0.230   4.708
  429SOL     OW 1660   0.019   0.368   4.371
  429SOL    HW1 1661  -0.063   0.411   4.410
  429SOL    HW2 1662  -0.009   0.295   4.308
  430SOL     OW 1663   0.569   1.275   4.889
  430SOL    HW1 1664   0.476   1.268   4.852
  430SOL    HW2 1665   0.580   1.364   4.933
  431SOL     OW 1666   1.555   1.511   4.427
  431SOL    HW1 1667   1.498   1.495   4.508
  431SOL    HW2 1668   1.496   1.521   4.347
  432SOL     OW 1669   1.135   0.703   4.441
  432SOL    HW1 1670   1.192   0.781   4.416
  432SOL    HW2 1671   1.075   0.729   4.517
  433SOL     OW 1672   1.755   0.607   3.955
  433SOL    HW1 1673   1.743   0.594   3.856
  433SOL    HW2 1674   1.725   0.526   4.004
  434SOL     OW 1675   0.768   1.144   4.747
  434SOL    HW1 1676   0.690   1.161   4.807
  434SOL    HW2 1677   0.802   1.231   4.711
  435SOL     OW 1678   0.850   0.798   5.547
  435SOL    HW1 1679   0.846   0.874   5.612
  435SOL    HW2 1680   0.872   0.834   5.456
  436SOL     OW 1681   0.685   1.012   4.389
  436SOL    HW1 1682   0.754   0.996   4.459
  436SOL    HW2 1683   0.612   1.069   4.427
  437SOL     OW 1684   0.686   1.161   5.527
  437SOL    HW1 1685   0.746   1.240   5.541
  437SOL    HW2 1686   0.600   1.192   5.486
  438SOL     OW 1687   0.335   1.435   4.785
  438SOL    HW1 1688   0.257   1.404   4.732
  438SOL    HW2 1689   0.393   1.493   4.728
  439SOL     OW 1690   1.460   1.505   5.063
  439SOL    HW1 1691   1.484   1.599   5.089
  439SOL    HW2 1692   1.444   1.451   5.145
  440SOL     OW 1693   0.438   0.392   5.223
  440SOL    HW1 1694   0.520   0.336   5.232
  440SOL    HW2 1695   0.357   0.334   5.227
  441SOL     OW 1696   1.603   0.447   4.461
  441SOL    HW1 1697   1.529   0.493   4.411
  441SOL    HW2 1698   1.654   0.515   4.514
  442SOL     OW 1699   0.231   1.713   4.207
  442SOL    HW1 1700   0.265   1.790   4.261
  442SOL    HW2 1701   0.275   1.713   4.117
  443SOL     OW 1702   1.127   1.341   5.414
  443SOL    HW1 1703   1.174   1.341   5.502
  443SOL    HW2 1704   1.079   1.254   5.403
  444SOL     OW 1705   0.230   1.434   4.262
  444SOL    HW1 1706   0.204   1.530   4.262
  444SOL    HW2 1707   0.159   1.380   4.307
  445SOL     OW 1708   0.240   1.091   4.610
  445SOL    HW1 1709   0.254   1.007   4.662
  445SOL    HW2 1710   0.185   1.155   4.665
  446SOL     OW 1711   0.620   1.786   5.163
  446SOL    HW1 1712   0.528   1.769   5.198
  446SOL    HW2 1713   0.648   1.878   5.189
  447SOL     OW 1714   0.606   0.964   3.847
  447SOL    HW1 1715   0.613   1.048   3.793
  447SOL    HW2 1716   0.652   0.977   3.935
  448SOL     OW 1717   1.594   0.114   5.204
  448SOL    HW1 1718   1.576   0.181   5.132
  448SOL    HW2 1719   1.591   0.160   5.293
  449SOL     OW 1720   0.122   0.643   4.287
  449SOL    HW1 1721   0.077   0.555   4.304
  449SOL    HW2 1722   0.121   0.697   4.371
  450SOL     OW 1723   1.842   1.767   4.083
  450SOL    HW1 1724   1.896   1.738   4.163
  450SOL    HW2 1725   1.872   1.857   4.054
  451SOL     OW 1726   0.027   1.596   3.841
  451SOL    HW1 1727   0.008   1.500   3.862
  451SOL    HW2 1728  -0.006   1.654   3.916
  452SOL     OW 1729   1.689   0.922   4.336
  452SOL    HW1 1730   1.784   0.893   4.344
  452SOL    HW2 1731   1.681   0.987   4.261
  453SOL     OW 1732   1.641   1.108   4.156
  453SOL    HW1 1733   1.727   1.110   4.104
  453SOL    HW2 1734   1.655   1.155   4.244
  454SOL     OW 1735   0.113   0.737   5.321
  454SOL    HW1 1736   0.201   0.724   5.366
  454SOL    HW2 1737   0.100   0.834   5.299
  455SOL     OW 1738   0.613   1.365   4.450
  455SOL    HW1 1739   0.564   1.278   4.459
  455SOL    HW2 1740   0.590   1.408   4.363
  456SOL     OW 1741   1.293   1.228   5.147
  456SOL    HW1 1742   1.330   1.155   5.089
  456SOL    HW2 1743   1.345   1.233   5.232
  457SOL     OW 1744   0.809   0.004   4.226
  457SOL    HW1 1745   0.849   0.095   4.217
  457SOL    HW2 1746   0.709   0.012   4.232
  458SOL     OW 1747   0.197   0.976   4.988
  458SOL    HW1 1748   0.286   0.931   4.974
  458SOL    HW2 1749   0.124   0.911   4.969
  459SOL     OW 1750   1.525   0.999   3.914
  459SOL    HW1 1751   1.462   0.923   3.927
  459SOL    HW2 1752   1.573   1.017   4.000
  460SOL     OW 1753   1.187   1.792   5.340
  460SOL    HW1 1754   1.211   1.852   5.264
  460SOL    HW2 1755   1.194   1.697   5.310
  461SOL     OW 1756   0.317   0.251   5.525
  461SOL    HW1 1757   0.388   0.322   5.531
  461SOL    HW2 1758   0.229   0.290   5.553
  462SOL     OW 1759   1.466   1.417   4.677
  462SOL    HW1 1760   1.407   1.423   4.757
  462SOL    HW2 1761   1.451   1.329   4.631
  463SOL     OW 1762   1.667   1.714   4.296
  463SOL    HW1 1763   1.626   1.691   4.208
  463SOL    HW2 1764   1.649   1.640   4.361
  464SOL     OW 1765   0.598   0.729   3.994
  464SOL    HW1 1766   0.622   0.798   3.926
  464SOL    HW2 1767   0.520   0.762   4.048
  465SOL     OW 1768   1.281   0.345   4.668
  465SOL    HW1 1769   1.195   0.295   4.655
  465SOL    HW2 1770   1.343   0.291   4.724
  466SOL     OW 1771   1.576   1.662   4.031
  466SOL    HW1 1772   1.665   1.708   4.034
  466SOL    HW2 1773   1.555   1.638   3.936
  467SOL     OW 1774   0.807   0.605   5.189
  467SOL    HW1 1775   0.760   0.602   5.278
  467SOL    HW2 1776   0.756   0.550   5.123
  468SOL     OW 1777   1.394   0.469   5.398
  468SOL    HW1 1778   1.374   0.512   5.486
  468SOL    HW2 1779   1.472   0.407   5.407
  469SOL     OW 1780   0.973   0.890   5.296
  469SOL    HW1 1781   1.019   0.806   5.267
  469SOL    HW2 1782   0.917   0.924   5.221
  470SOL     OW 1783   0.991   0.410   4.966
  470SOL    HW1 1784   0.914   0.444   5.020
  470SOL    HW2 1785   0.957   0.359   4.887
  471SOL     OW 1786   1.041   0.701   4.153
  471SOL    HW1 1787   1.067   0.697   4.249
  471SOL    HW2 1788   0.956   0.650   4.139
  472SOL     OW 1789   0.076   0.811   4.513
  472SOL    HW1 1790   0.175   0.799   4.522
  472SOL    HW2 1791   0.052   0.906   4.534
  473SOL     OW 1792   0.130   1.821   5.295
  473SOL    HW1 1793   0.120   1.806   5.394
  473SOL    HW2 1794   0.044   1.857   5.259
  474SOL     OW 1795   0.865   0.348   3.919
  474SOL    HW1 1796   0.924   0.411   3.870
  474SOL    HW2 1797   0.884   0.254   3.890
  475SOL     OW 1798   1.719   0.585   5.555
  475SOL    HW1 1799   1.693   0.674   5.519
  475SOL    HW2 1800   1.717   0.517   5.482
  476SOL     OW 1801   1.362   1.144   4.269
  476SOL    HW1 1802   1.445   1.115   4.221
  476SOL    HW2 1803   1.313   1.211   4.213
  477SOL     OW 1804   0.550   0.196   4.609
  477SOL    HW1 1805   0.545   0.191   4.709
  477SOL    HW2 1806   0.552   0.292   4.580
  478SOL     OW 1807   1.008   1.456   4.201
  478SOL    HW1 1808   0.962   1.528   4.149
  478SOL    HW2 1809   1.004   1.476   4.299
  479SOL     OW 1810   0.351   1.801   4.577
  479SOL    HW1 1811   0.401   1.715   4.583
  479SOL    HW2 1812   0.416   1.878   4.574
  480SOL     OW 1813   1.795   1.066   4.597
  480SOL    HW1 1814   1.733   1.051   4.521
  480SOL    HW2 1815   1.743   1.077   4.682
  481SOL     OW 1816   1.227   1.550   5.230
  481SOL    HW1 1817   1.233   1.473   5.294
  481SOL    HW2 1818   1.175   1.524   5.150
  482SOL     OW 1819   0.321   0.943   3.966
  482SOL    HW1 1820   0.403   0.982   3.924
  482SOL    HW2 1821   0.294   0.861   3.917
  483SOL     OW 1822   1.458   0.735   4.452
  483SOL    HW1 1823   1.453   0.670   4.527
  483SOL    HW2 1824   1.538   0.794   4.465
  484SOL     OW 1825   0.461   1.266   5.451
  484SOL    HW1 1826   0.411   1.267   5.365
  484SOL    HW2 1827   0.398   1.248   5.527
  485SOL     OW 1828   1.111   1.776   3.961
  485SOL    HW1 1829   1.051   1.714   4.011
  485SOL    HW2 1830   1.142   1.732   3.876
  486SOL     OW 1831   0.202   0.285   5.222
  486SOL    HW1 1832   0.122   0.345   5.209
  486SOL    HW2 1833   0.192   0.236   5.308
  487SOL     OW 1834   1.632   1.377   3.805
  487SOL    HW1 1835   1.600   1.471   3.795
  487SOL    HW2 1836   1.556   1.314   3.793
  488SOL     OW 1837   0.464   1.743   4.047
  488SOL    HW1 1838   0.497   1.782   4.133
  488SOL    HW2 1839   0.540   1.736   3.982
  489SOL     OW 1840   1.400   0.107   4.150
  489SOL    HW1 1841   1.376   0.070   4.060
  489SOL    HW2 1842   1.499   0.123   4.154
  490SOL     OW 1843   0.249   1.785   4.965
  490SOL    HW1 1844   0.306   1.720   5.015
  490SOL    HW2 1845   0.233   1.752   4.872
  491SOL     OW 1846   0.940   1.698   4.628
  491SOL    HW1 1847   1.020   1.641   4.649
  491SOL    HW2 1848   0.891   1.658   4.551
  492SOL     OW 1849   0.382   0.700   4.204
  492SOL    HW1 1850   0.427   0.610   4.201
  492SOL    HW2 1851   0.288   0.689   4.237
  493SOL     OW 1852   1.547   0.222   5.453
  493SOL    HW1 1853   1.542   0.259   5.545
  493SOL    HW2 1854   1.475   0.153   5.441
  494SOL     OW 1855   0.614   0.122   3.841
  494SOL    HW1 1856   0.712   0.100   3.848
  494SOL    HW2 1857   0.583   0.105   3.748
  495SOL     OW 1858   0.781   0.264   5.473
  495SOL    HW1 1859   0.848   0.203   5.516
  495SOL    HW2 1860   0.708   0.283   5.538
  496SOL     OW 1861   0.888   1.514   4.919
  496SOL    HW1 1862   0.865   1.489   4.825
  496SOL    HW2 1863   0.949   1.445   4.958
  497SOL     OW 1864   1.351   0.590   5.157
  497SOL    HW1 1865   1.379   0.547   5.242
  497SOL    HW2 1866   1.376   0.686   5.158
  498SOL     OW 1867   0.803   1.402   4.648
  498SOL    HW1 1868   0.893   1.416   4.606
  498SOL    HW2 1869   0.732   1.404   4.577
  499SOL     OW 1870   0.922   0.503   4.623
  499SOL    HW1 1871   0.897   0.494   4.527
  499SOL    HW2 1872   0.970   0.421   4.654
  500SOL     OW 1873   0.539   0.064   4.236
  500SOL    HW1 1874   0.458   0.065   4.294
  500SOL    HW2 1875   0.542   0.147   4.181
  501SOL     OW 1876   1.434   1.188   3.765
  501SOL    HW1 1877   1.466   1.112   3.822
  501SOL    HW2 1878   1.342   1.215   3.795
  502SOL     OW 1879   0.297   0.035   3.895
  502SOL    HW1 1880   0.346   0.119   3.874
  502SOL    HW2 1881   0.359  -0.030   3.940
  503SOL     OW 1882   0.935   0.236   4.204
  503SOL    HW1 1883   0.887   0.277   4.126
  503SOL    HW2 1884   1.034   0.234   4.185
  504SOL     OW 1885   1.076   0.683   5.188
  504SOL    HW1 1886   0.996   0.622   5.191
  504SOL    HW2 1887   1.157   0.630   5.164
  505SOL     OW 1888   1.227   1.570   4.517
  505SOL    HW1 1889   1.248   1.644   4.452
  505SOL    HW2 1890   1.295   1.570   4.590
  506SOL     OW 1891   0.459   1.152   4.465
  506SOL    HW1 1892   0.388   1.125   4.530
  506SOL    HW2 1893   0.433   1.124   4.372
  507SOL     OW 1894   1.271   1.797   4.315
  507SOL    HW1 1895   1.315   1.861   4.251
  507SOL    HW2 1896   1.221   1.849   4.385
  508SOL     OW 1897   1.032   0.549   3.740
  508SOL    HW1 1898   0.991   0.631   3.701
  508SOL    HW2 1899   1.096   0.575   3.813
  509SOL     OW 1900   0.078   0.556   5.110
  509SOL    HW1 1901   0.170   0.555   5.069
  509SOL    HW2 1902   0.072   0.630   5.177
  510SOL     OW 1903   0.561   0.222   4.871
  510SOL    HW1 1904   0.599   0.138   4.908
  510SOL    HW2 1905   0.473   0.241   4.915
  511SOL     OW 1906   0.866   0.454   4.366
  511SOL    HW1 1907   0.834   0.526   4.304
  511SOL    HW2 1908   0.890   0.373   4.313
  512SOL     OW 1909   1.017   0.039   4.477
  512SOL    HW1 1910   0.945   0.044   4.408
  512SOL    HW2 1911   0.993  -0.030   4.546
  513SOL     OW 1912   1.429   1.173   4.591
  513SOL    HW1 1913   1.374   1.089   4.584
  513SOL    HW2 1914   1.455   1.202   4.499
  514SOL     OW 1915   1.466   0.590   4.716
  514SOL    HW1 1916   1.436   0.495   4.723
  514SOL    HW2 1917   1.539   0.606   4.782
  515SOL     OW 1918   1.857   0.833   4.101
  515SOL    HW1 1919   1.899   0.769   4.165
  515SOL    HW2 1920   1.819   0.782   4.023
  516SOL     OW 1921   0.488   1.385   3.898
  516SOL    HW1 1922   0.401   1.370   3.945
  516SOL    HW2 1923   0.471   1.411   3.803
  517SOL     OW 1924   1.664   1.280   4.381
  517SOL    HW1 1925   1.763   1.288   4.395
  517SOL    HW2 1926   1.619   1.364   4.412
  518SOL     OW 1927   1.390   0.575   3.802
  518SOL    HW1 1928   1.336   0.554   3.883
  518SOL    HW2 1929   1.481   0.534   3.811
  519SOL     OW 1930   0.527   0.256   4.052
  519SOL    HW1 1931   0.554   0.197   3.977
  519SOL    HW2 1932   0.527   0.351   4.021
  520SOL     OW 1933   1.754   1.223   5.312
  520SOL    HW1 1934   1.845   1.184   5.299
  520SOL    HW2 1935   1.762   1.319   5.336
  521SOL     OW 1936   1.064   1.347   5.064
  521SOL    HW1 1937   0.984   1.324   5.119
  521SOL    HW2 1938   1.147   1.321   5.113
  522SOL     OW 1939   1.592   1.629   5.349
  522SOL    HW1 1940   1.619   1.663   5.259
  522SOL    HW2 1941   1.671   1.591   5.395
  523SOL     OW 1942   1.111   1.195   4.824
  523SOL    HW1 1943   1.071   1.239   4.905
  523SOL    HW2 1944   1.070   1.232   4.741
  524SOL     OW 1945   1.638   1.099   4.803
  524SOL    HW1 1946   1.643   1.180   4.862
  524SOL    HW2 1947   1.552   1.101   4.752
  525SOL     OW 1948   0.915   0.089   5.126
  525SOL    HW1 1949   0.940   0.069   5.031
  525SOL    HW2 1950   0.987   0.145   5.168
  526SOL     OW 1951   0.980   1.116   5.443
  526SOL    HW1 1952   0.881   1.122   5.453
  526SOL    HW2 1953   1.003   1.036   5.387
  527SOL     OW 1954   0.705   1.050   4.092
  527SOL    HW1 1955   0.691   1.057   4.191
  527SOL    HW2 1956   0.789   0.999   4.074
  528SOL     OW 1957   0.410   0.813   4.975
  528SOL    HW1 1958   0.496   0.825   5.025
  528SOL    HW2 1959   0.368   0.726   5.002
  529SOL     OW 1960   1.274   0.386   4.986
  529SOL    HW1 1961   1.295   0.460   5.050
  529SOL    HW2 1962   1.185   0.403   4.943
  530SOL     OW 1963   0.064   1.564   5.055
  530SOL    HW1 1964   0.018   1.646   5.021
  530SOL    HW2 1965   0.162   1.583   5.064
  531SOL     OW 1966   0.367   1.100   4.225
  531SOL    HW1 1967   0.360   1.183   4.169
  531SOL    HW2 1968   0.371   1.020   4.165
  532SOL     OW 1969   0.566   0.537   4.589
  532SOL    HW1 1970   0.578   0.603   4.515
  532SOL    HW2 1971   0.612   0.571   4.672
  533SOL     OW 1972   1.252   1.348   4.112
  533SOL    HW1 1973   1.302   1.425   4.152
  533SOL    HW2 1974   1.157   1.350   4.144
  534SOL     OW 1975   1.272   1.445   4.866
  534SOL    HW1 1976   1.319   1.458   4.953
  534SOL    HW2 1977   1.206   1.371   4.875
  535SOL     OW 1978   1.582   0.639   4.196
  535SOL    HW1 1979   1.551   0.700   4.269
  535SOL    HW2 1980   1.632   0.691   4.127
  536SOL     OW 1981   0.354   1.510   5.053
  536SOL    HW1 1982   0.333   1.466   4.966
  536SOL    HW2 1983   0.451   1.536   5.056
  537SOL     OW 1984   0.402   0.751   5.322
  537SOL    HW1 1985   0.470   0.806   5.275
  537SOL    HW2 1986   0.442   0.663   5.349
  538SOL     OW 1987   1.587   0.779   5.394
  538SOL    HW1 1988   1.495   0.817   5.389
  538SOL    HW2 1989   1.647   0.826   5.329
  539SOL     OW 1990   1.013   0.105   5.494
  539SOL    HW1 1991   1.019   0.190   5.442
  539SOL    HW2 1992   1.045   0.029   5.437
  540SOL     OW 1993   0.504   0.050   5.464
  540SOL    HW1 1994   0.462  -0.007   5.394
  540SOL    HW2 1995   0.438   0.119   5.496
  541SOL     OW 1996   0.573   0.870   4.753
  541SOL    HW1 1997   0.617   0.959   4.744
  541SOL    HW2 1998   0.510   0.870   4.830
  542SOL     OW 1999   1.360   0.862   4.769
  542SOL    HW1 2000   1.285   0.862   4.703
  542SOL    HW2 2001   1.397   0.770   4.778
  543SOL     OW 2002   1.209   0.525   3.999
  543SOL    HW1 2003   1.222   0.441   4.053
  543SOL    HW2 2004   1.180   0.599   4.059
  544SOL     OW 2005   0.307   0.213   4.955
  544SOL    HW1 2006   0.284   0.250   5.045
  544SOL    HW2 2007   0.277   0.118   4.949
  545SOL     OW 2008   0.037   1.310   5.006
  545SOL    HW1 2009   0.090   1.261   5.074
  545SOL    HW2 2010   0.059   1.408   5.011
  546SOL     OW 2011   0.732   0.634   4.788
  546SOL    HW1 2012   0.791   0.608   4.712
  546SOL    HW2 2013   0.704   0.730   4.777
  547SOL     OW 2014   1.728   0.935   5.578
  547SOL    HW1 2015   1.682   0.928   5.489
  547SOL    HW2 2016   1.666   0.979   5.644
  548SOL     OW 2017   0.307   0.063   4.342
  548SOL    HW1 2018   0.296   0.157   4.375
  548SOL    HW2 2019   0.302   0.000   4.419
  549SOL     OW 2020   1.622   0.367   4.098
  549SOL    HW1 2021   1.624   0.291   4.162
  549SOL    HW2 2022   1.574   0.444   4.138
  550SOL     OW 2023   1.023   0.766   4.690
  550SOL    HW1 2024   1.038   0.787   4.786
  550SOL    HW2 2025   0.993   0.671   4.681
  551SOL     OW 2026   0.980   1.573   5.424
  551SOL    HW1 2027   0.960   1.617   5.336
  551SOL    HW2 2028   1.019   1.482   5.408
  552SOL     OW 2029   0.350   0.898   5.528
  552SOL    HW1 2030   0.426   0.942   5.576
  552SOL    HW2 2031   0.385   0.851   5.446
  553SOL     OW 2032   1.540   0.274   3.849
  553SOL    HW1 2033   1.479   0.199   3.872
  553SOL    HW2 2034   1.562   0.326   3.932
  554SOL     OW 2035   1.303   0.838   3.766
  554SOL    HW1 2036   1.337   0.745   3.781
  554SOL    HW2 2037   1.321   0.865   3.671
  555SOL     OW 2038   1.068   1.333   4.573
  555SOL    HW1 2039   1.075   1.249   4.518
  555SOL    HW2 2040   1.130   1.402   4.537
  556SOL     OW 2041   0.319   0.810   4.673
  556SOL    HW1 2042   0.412   0.846   4.678
  556SOL    HW2 2043   0.313   0.725   4.725
  557SOL     OW 2044   0.339   0.509   4.730
  557SOL    HW1 2045   0.287   0.426   4.713
  557SOL    HW2 2046   0.416   0.514   4.666
  558SOL     OW 2047   1.138   0.380   5.402
  558SOL    HW1 2048   1.093   0.443   5.466
  558SOL    HW2 2049   1.231   0.411   5.385
  559SOL     OW 2050   1.160   0.207   5.201
  559SOL    HW1 2051   1.160   0.271   5.278
  559SOL    HW2 2052   1.188   0.255   5.118
  560SOL     OW 2053   0.008   1.326   3.924
  560SOL    HW1 2054  -0.085   1.347   3.893
  560SOL    HW2 2055   0.018   1.227   3.937
  561SOL     OW 2056   0.088   1.801   4.651
  561SOL    HW1 2057   0.046   1.715   4.624
  561SOL    HW2 2058   0.182   1.804   4.617
  562SOL     OW 2059   0.504   1.568   4.634
  562SOL    HW1 2060   0.570   1.642   4.643
  562SOL    HW2 2061   0.548   1.489   4.592
  563SOL     OW 2062   1.002   0.796   4.962
  563SOL    HW1 2063   1.043   0.764   5.048
  563SOL    HW2 2064   0.906   0.769   4.959
  564SOL     OW 2065   0.040   0.544   4.838
  564SOL    HW1 2066   0.125   0.511   4.797
  564SOL    HW2 2067   0.053   0.559   4.936
  565SOL     OW 2068   0.189   0.520   5.446
  565SOL    HW1 2069   0.248   0.480   5.376
  565SOL    HW2 2070   0.131   0.591   5.405
  566SOL     OW 2071   1.369   0.950   5.384
  566SOL    HW1 2072   1.408   1.039   5.404
  566SOL    HW2 2073   1.379   0.930   5.287
  567SOL     OW 2074   0.815   0.572   4.049
  567SOL    HW1 2075   0.822   0.483   4.003
  567SOL    HW2 2076   0.721   0.606   4.041
  568SOL     OW 2077   1.657   0.604   4.930
  568SOL    HW1 2078   1.619   0.535   4.992
  568SOL    HW2 2079   1.739   0.568   4.886
  569SOL     OW 2080   0.252   1.564   5.468
  569SOL    HW1 2081   0.222   1.621   5.544
  569SOL    HW2 2082   0.245   1.467   5.494
  570SOL     OW 2083   0.671   0.464   4.993
  570SOL    HW1 2084   0.637   0.375   4.963
  570SOL    HW2 2085   0.697   0.518   4.913
  571SOL     OW 2086   0.930   1.678   5.189
  571SOL    HW1 2087   0.906   1.660   5.094
  571SOL    HW2 2088   0.960   1.772   5.199
  572SOL     OW 2089   0.473   0.500   3.915
  572SOL    HW1 2090   0.534   0.580   3.919
  572SOL    HW2 2091   0.378   0.531   3.922
  573SOL     OW 2092   0.159   1.137   5.190
  573SOL    HW1 2093   0.181   1.076   5.266
  573SOL    HW2 2094   0.169   1.088   5.104
  574SOL     OW 2095   1.347   1.059   4.958
  574SOL    HW1 2096   1.371   0.996   4.884
  574SOL    HW2 2097   1.257   1.099   4.940
  575SOL     OW 2098   1.302   0.855   4.033
  575SOL    HW1 2099   1.216   0.824   4.075
  575SOL    HW2 2100   1.298   0.841   3.934
  576SOL     OW 2101   1.759   1.747   4.878
  576SOL    HW1 2102   1.820   1.777   4.805
  576SOL    HW2 2103   1.721   1.658   4.856
  577SOL     OW 2104   1.252   1.731   4.852
  577SOL    HW1 2105   1.336   1.736   4.798
  577SOL    HW2 2106   1.229   1.635   4.870
  578SOL     OW 2107   0.083   1.258   4.746
  578SOL    HW1 2108   0.078   1.257   4.846
  578SOL    HW2 2109   0.000   1.217   4.708
  579SOL     OW 2110   0.688   1.662   5.440
  579SOL    HW1 2111   0.632   1.743   5.449
  579SOL    HW2 2112   0.740   1.666   5.354
  580SOL     OW 2113   1.726   0.135   4.247
  580SOL    HW1 2114   1.799   0.118   4.180
  580SOL    HW2 2115   1.695   0.048   4.285
  581SOL     OW 2116   1.388   1.573   4.201
  581SOL    HW1 2117   1.455   1.585   4.127
  581SOL    HW2 2118   1.348   1.662   4.224
  582SOL     OW 2119   0.130   1.794   5.575
  582SOL    HW1 2120   0.089   1.720   5.628
  582SOL    HW2 2121   0.194   1.845   5.633
  583SOL     OW 2122   1.280   0.927   4.396
  583SOL    HW1 2123   1.340   0.846   4.398
  583SOL    HW2 2124   1.320   0.996   4.336
  584SOL     OW 2125   0.830   1.273   5.146
  584SOL    HW1 2126   0.825   1.306   5.241
  584SOL    HW2 2127   0.744   1.292   5.100
  585SOL     OW 2128   0.672   1.616   3.878
  585SOL    HW1 2129   0.681   1.626   3.779
  585SOL    HW2 2130   0.632   1.527   3.899
  586SOL     OW 2131   1.841   0.175   4.687
  586SOL    HW1 2132   1.880   0.090   4.651
  586SOL    HW2 2133   1.743   0.177   4.668
  587SOL     OW 2134   0.263   0.326   4.444
  587SOL    HW1 2135   0.184   0.377   4.410
  587SOL    HW2 2136   0.254   0.311   4.542
  588SOL     OW 2137   1.194   1.612   3.755
  588SOL    HW1 2138   1.200   1.519   3.792
  588SOL    HW2 2139   1.135   1.612   3.675
  589SOL     OW 2140   0.822   1.002   5.096
  589SOL    HW1 2141   0.862   1.001   5.004
  589SOL    HW2 2142   0.832   1.094   5.136
  590SOL     OW 2143   0.916   0.910   4.015
  590SOL    HW1 2144   0.979   0.948   3.947
  590SOL    HW2 2145   0.956   0.827   4.054
  591SOL     OW 2146   1.504   1.607   3.768
  591SOL    HW1 2147   1.412   1.644   3.775
  591SOL    HW2 2148   1.542   1.627   3.678
  592SOL     OW 2149   0.372   1.288   5.214
  592SOL    HW1 2150   0.359   1.381   5.180
  592SOL    HW2 2151   0.288   1.236   5.201
  593SOL     OW 2152   1.614   1.292   5.013
  593SOL    HW1 2153   1.674   1.295   5.093
  593SOL    HW2 2154   1.539   1.356   5.026
  594SOL     OW 2155   1.039   1.098   4.420
  594SOL    HW1 2156   0.969   1.051   4.474
  594SOL    HW2 2157   1.098   1.030   4.377
  595SOL     OW 2158   1.014   0.236   4.695
  595SOL    HW1 2159   1.006   0.200   4.602
  595SOL    HW2 2160   1.012   0.160   4.760
  596SOL     OW 2161   0.590   1.487   4.215
  596SOL    HW1 2162   0.632   1.429   4.145
  596SOL    HW2 2163   0.546   1.566   4.171
  597SOL     OW 2164   1.709   0.385   5.105
  597SOL    HW1 2165   1.782   0.454   5.109
  597SOL    HW2 2166   1.737   0.310   5.046
  598SOL     OW 2167   0.255   1.348   4.014
  598SOL    HW1 2168   0.159   1.349   3.987
  598SOL    HW2 2169   0.267   1.401   4.098
  599SOL     OW 2170   0.105   1.013   5.450
  599SOL    HW1 2171   0.028   0.980   5.504
  599SOL    HW2 2172   0.190   0.983   5.492
  600SOL     OW 2173   0.672   0.203   5.213
  600SOL    HW1 2174   0.762   0.187   5.173
  600SOL    HW2 2175   0.680   0.208   5.312
  601SOL     OW 2176   0.075   0.345   3.757
  601SOL    HW1 2177  -0.017   0.317   3.728
  601SOL    HW2 2178   0.106   0.422   3.701
  602SOL     OW 2179   1.440   0.856   5.122
  602SOL    HW1 2180   1.383   0.908   5.059
  602SOL    HW2 2181   1.536   0.868   5.098
  603SOL     OW 2182   0.072   0.166   4.042
  603SOL    HW1 2183   0.055   0.249   3.988
  603SOL    HW2 2184   0.162   0.129   4.020
  604SOL     OW 2185   1.183   1.335   3.843
  604SOL    HW1 2186   1.084   1.324   3.845
  604SOL    HW2 2187   1.217   1.350   3.936
  605SOL     OW 2188   0.613   0.842   5.155
  605SOL    HW1 2189   0.669   0.923   5.138
  605SOL    HW2 2190   0.672   0.762   5.158
  606SOL     OW 2191   1.493   1.767   4.683
  606SOL    HW1 2192   1.526   1.831   4.614
  606SOL    HW2 2193   1.559   1.761   4.758
  607SOL     OW 2194   0.716   0.565   5.432
  607SOL    HW1 2195   0.735   0.630   5.506
  607SOL    HW2 2196   0.776   0.485   5.441
  608SOL     OW 2197   1.450   1.220   5.357
  608SOL    HW1 2198   1.441   1.210   5.456
  608SOL    HW2 2199   1.546   1.213   5.331
  609SOL     OW 2200   0.390   1.741   5.284
  609SOL    HW1 2201   0.299   1.782   5.282
  609SOL    HW2 2202   0.383   1.647   5.316
  610SOL     OW 2203   1.674   0.883   4.978
  610SOL    HW1 2204   1.647   0.794   4.941
  610SOL    HW2 2205   1.675   0.951   4.905
  611SOL     OW 2206   1.225   0.325   4.173
  611SOL    HW1 2207   1.290   0.251   4.162
  611SOL    HW2 2208   1.245   0.375   4.257
  612SOL     OW 2209   0.594   0.745   4.376
  612SOL    HW1 2210   0.644   0.830   4.357
  612SOL    HW2 2211   0.506   0.747   4.328
  613SOL     OW 2212   1.777   0.342   5.366
  613SOL    HW1 2213   1.760   0.373   5.272
  613SOL    HW2 2214   1.693   0.305   5.404
  614SOL     OW 2215   1.730   0.934   5.241
  614SOL    HW1 2216   1.768   1.025   5.256
  614SOL    HW2 2217   1.722   0.917   5.142
  615SOL     OW 2218   0.859   1.374   3.740
  615SOL    HW1 2219   0.813   1.389   3.828
  615SOL    HW2 2220   0.903   1.459   3.710
  616SOL     OW 2221   0.661   1.790   4.677
  616SOL    HW1 2222   0.615   1.878   4.664
  616SOL    HW2 2223   0.760   1.802   4.670
  617SOL     OW 2224   0.859   0.956   4.585
  617SOL    HW1 2225   0.913   0.887   4.633
  617SOL    HW2 2226   0.827   1.025   4.651
  618SOL     OW 2227   1.083   0.984   3.811
  618SOL    HW1 2228   1.060   1.037   3.729
  618SOL    HW2 2229   1.164   0.928   3.792
  619SOL     OW 2230   1.861   1.569   4.575
  619SOL    HW1 2231   1.790   1.557   4.505
  619SOL    HW2 2232   1.862   1.490   4.635
  620SOL     OW 2233   0.221   1.314   5.568
  620SOL    HW1 2234   0.156   1.241   5.547
  620SOL    HW2 2235   0.225   1.328   5.666
  621SOL     OW 2236   0.079   1.240   4.377
  621SOL    HW1 2237   0.078   1.193   4.465
  621SOL    HW2 2238   0.161   1.212   4.326
  622SOL     OW 2239   0.672   1.391   5.348
  622SOL    HW1 2240   0.594   1.341   5.386
  622SOL    HW2 2241   0.669   1.486   5.379
  623SOL     OW 2242   1.824   0.192   4.951
  623SOL    HW1 2243   1.820   0.102   4.995
  623SOL    HW2 2244   1.827   0.181   4.852
  624SOL     OW 2245   0.428   0.424   4.244
  624SOL    HW1 2246   0.458   0.352   4.182
  624SOL    HW2 2247   0.389   0.384   4.327
  625SOL     OW 2248   1.705   1.487   4.828
  625SOL    HW1 2249   1.612   1.462   4.801
  625SOL    HW2 2250   1.731   1.437   4.910
  626SOL     OW 2251   0.317   0.547   5.004
  626SOL    HW1 2252   0.355   0.488   5.076
  626SOL    HW2 2253   0.357   0.521   4.916
  627SOL     OW 2254   0.812   1.586   4.411
  627SOL    HW1 2255   0.844   1.596   4.317
  627SOL    HW2 2256   0.733   1.524   4.413
  628SOL     OW 2257   1.424   0.214   4.836
  628SOL    HW1 2258   1.476   0.149   4.891
  628SOL    HW2 2259   1.375   0.277   4.897
  629SOL     OW 2260   1.001   0.034   4.878
  629SOL    HW1 2261   0.938  -0.038   4.847
  629SOL    HW2 2262   1.094  -0.002   4.878
  630SOL     OW 2263   0.770   1.330   4.025
  630SOL    HW1 2264   0.724   1.243   4.042
  630SOL    HW2 2265   0.861   1.327   4.066
  631SOL     OW 2266   0.618   1.567   5.008
  631SOL    HW1 2267   0.613   1.649   5.065
  631SOL    HW2 2268   0.707   1.564   4.963
  632SOL     OW 2269   1.352   0.052   3.892
  632SOL    HW1 2270   1.387   0.011   3.808
  632SOL    HW2 2271   1.262   0.014   3.912
  633SOL     OW 2272   1.300   0.453   4.415
  633SOL    HW1 2273   1.241   0.533   4.419
  633SOL    HW2 2274   1.315   0.418   4.508
  634SOL     OW 2275   1.593   0.221   4.606
  634SOL    HW1 2276   1.509   0.220   4.660
  634SOL    HW2 2277   1.595   0.304   4.550
  635SOL     OW 2278   0.039   1.077   4.024
  635SOL    HW1 2279   0.138   1.066   4.015
  635SOL    HW2 2280  -0.001   0.991   4.056
  636SOL     OW 2281   0.875   1.646   4.061
  636SOL    HW1 2282   0.798   1.611   4.007
  636SOL    HW2 2283   0.843   1.717   4.123
  637SOL     OW 2284   0.230   0.628   5.699
  637SOL    HW1 2285   0.137   0.626   5.736
  637SOL    HW2 2286   0.231   0.589   5.607
  638SOL     OW 2287   0.225   0.275   6.582
  638SOL    HW1 2288   0.260   0.258   6.674
  638SOL    HW2 2289   0.137   0.230   6.570
  639SOL     OW 2290   0.019   0.368   6.233
  639SOL    HW1 2291  -0.063   0.411   6.272
  639SOL    HW2 2292  -0.009   0.295   6.170
  640SOL     OW 2293   0.569   1.275   6.751
  640SOL    HW1 2294   0.476   1.268   6.714
  640SOL    HW2 2295   0.580   1.364   6.795
  641SOL     OW 2296   1.555   1.511   6.289
  641SOL    HW1 2297   1.498   1.495   6.370
  641SOL    HW2 2298   1.496   1.521   6.209
  642SOL     OW 2299   1.135   0.703   6.303
  642SOL    HW1 2300   1.192   0.781   6.278
  642SOL    HW2 2301   1.075   0.729   6.379
  643SOL     OW 2302   1.755   0.607   5.817
  643SOL    HW1 2303   1.743   0.594   5.718
  643SOL    HW2 2304   1.725   0.526   5.866
  644SOL     OW 2305   0.768   1.144   6.609
  644SOL    HW1 2306   0.690   1.161   6.669
  644SOL    HW2 2307   0.802   1.231   6.573
  645SOL     OW 2308   0.850   0.798   7.409
  645SOL    HW1 2309   0.846   0.874   7.474
  645SOL    HW2 2310   0.872   0.834   7.318
  646SOL     OW 2311   0.685   1.012   6.251
  646SOL    HW1 2312   0.754   0.996   6.321
  646SOL    HW2 2313   0.612   1.069   6.289
  647SOL     OW 2314   0.686   1.161   7.389
  647SOL    HW1 2315   0.746   1.240   7.403
  647SOL    HW2 2316   0.600   1.192   7.348
  648SOL     OW 2317   0.335   1.435   6.647
  648SOL    HW1 2318   0.257   1.404   6.594
  648SOL    HW2 2319   0.393   1.493   6.590
  649SOL     OW 2320   1.460   1.505   6.925
  649SOL    HW1 2321   1.484   1.599   6.951
  649SOL    HW2 2322   1.444   1.451   7.007
  650SOL     OW 2323   0.438   0.392   7.085
  650SOL    HW1 2324   0.520   0.336   7.094
  650SOL    HW2 2325   0.357   0.334   7.089
  651SOL     OW 2326   1.603   0.447   6.323
  651SOL    HW1 2327   1.529   0.493   6.273
  651SOL    HW2 2328   1.654   0.515   6.376
  652SOL     OW 2329   0.231   1.713   6.069
  652SOL    HW1 2330   0.265   1.790   6.123
  652SOL    HW2 2331   0.275   1.713   5.979
  653SOL     OW 2332   1.127   1.341   7.276
  653SOL    HW1 2333   1.174   1.341   7.364
  653SOL    HW2 2334   1.079   1.254   7.265
  654SOL     OW 2335   0.230   1.434   6.124
  654SOL    HW1 2336   0.204   1.530   6.124
  654SOL    HW2 2337   0.159   1.380   6.169
  655SOL     OW 2338   0.240   1.091   6.472
  655SOL    HW1 2339   0.254   1.007   6.524
  655SOL    HW2 2340   0.185   1.155   6.527
  656SOL     OW 2341   0.620   1.786   7.025
  656SOL    HW1 2342   0.528   1.769   7.060
  656SOL    HW2 2343   0.648   1.878   7.051
  657SOL     OW 2344   0.606   0.964   5.709
  657SOL    HW1 2345   0.613   1.048   5.655
  657SOL    HW2 2346   0.652   0.977   5.797
  658SOL     OW 2347   1.594   0.114   7.066
  658SOL    HW1 2348   1.576   0.181   6.994
  658SOL    HW2 2349   1.591   0.160   7.155
  659SOL     OW 2350   0.122   0.643   6.149
  659SOL    HW1 2351   0.077   0.555   6.166
  659SOL    HW2 2352   0.121   0.697   6.233
  660SOL     OW 2353   0.027   1.596   5.703
  660SOL    HW1 2354   0.008   1.500   5.724
  660SOL    HW2 2355  -0.006   1.654   5.778
  661SOL     OW 2356   1.689   0.922   6.198
  661SOL    HW1 2357   1.784   0.893   6.206
  661SOL    HW2 2358   1.681   0.987   6.123
  662SOL     OW 2359   1.641   1.108   6.018
  662SOL    HW1 2360   1.727   1.110   5.966
  662SOL    HW2 2361   1.655   1.155   6.106
  663SOL     OW 2362   0.113   0.737   7.183
  663SOL    HW1 2363   0.201   0.724   7.228
  663SOL    HW2 2364   0.100   0.834   7.161
  664SOL     OW 2365   0.613   1.365   6.312
  664SOL    HW1 2366   0.564   1.278   6.321
  664SOL    HW2 2367   0.590   1.408   6.225
  665SOL     OW 2368   1.293   1.228   7.009
  665SOL    HW1 2369   1.330   1.155   6.951
  665SOL    HW2 2370   1.345   1.233   7.094
  666SOL     OW 2371   0.809   0.004   6.088
  666SOL    HW1 2372   0.849   0.095   6.079
  666SOL    HW2 2373   0.709   0.012   6.094
  667SOL     OW 2374   0.197   0.976   6.850
  667SOL    HW1 2375   0.286   0.931   6.836
  667SOL    HW2 2376   0.124   0.911   6.831
  668SOL     OW 2377   1.525   0.999   5.776
  668SOL    HW1 2378   1.462   0.923   5.789
  668SOL    HW2 2379   1.573   1.017   5.862
  669SOL     OW 2380   1.187   1.792   7.202
  669SOL    HW1 2381   1.211   1.852   7.126
  669SOL    HW2 2382   1.194   1.697   7.172
  670SOL     OW 2383   0.317   0.251   7.387
  670SOL    HW1 2384   0.388   0.322   7.393
  670SOL    HW2 2385   0.229   0.290   7.415
  671SOL     OW 2386   1.466   1.417   6.539
  671SOL    HW1 2387   1.407   1.423   6.619
  671SOL    HW2 2388   1.451   1.329   6.493
  672SOL     OW 2389   1.667   1.714   6.158
  672SOL    HW1 2390   1.626   1.691   6.070
  672SOL    HW2 2391   1.649   1.640   6.223
  673SOL     OW 2392   0.598   0.729   5.856
  673SOL    HW1 2393   0.622   0.798   5.788
  673SOL    HW2 2394   0.520   0.762   5.910
  674SOL     OW 2395   1.281   0.345   6.530
  674SOL    HW1 2396   1.195   0.295   6.517
  674SOL    HW2 2397   1.343   0.291   6.586
  675SOL     OW 2398   1.576   1.662   5.893
  675SOL    HW1 2399   1.665   1.708   5.896
  675SOL    HW2 2400   1.555   1.638   5.798
  676SOL     OW 2401   0.807   0.605   7.051
  676SOL    HW1 2402   0.760   0.602   7.140
  676SOL    HW2 2403   0.756   0.550   6.985
  677SOL     OW 2404   1.394   0.469   7.260
  677SOL    HW1 2405   1.374   0.512   7.348
  677SOL    HW2 2406   1.472   0.407   7.269
  678SOL     OW 2407   0.973   0.890   7.158
  678SOL    HW1 2408   1.019   0.806   7.129
  678SOL    HW2 2409   0.917   0.924   7.083
  679SOL     OW 2410   0.991   0.410   6.828
  679SOL    HW1 2411   0.914   0.444   6.882
  679SOL    HW2 2412   0.957   0.359   6.749
  680SOL     OW 2413   1.041   0.701   6.015
  680SOL    HW1 2414   1.067   0.697   6.111
  680SOL    HW2 2415   0.956   0.650   6.001
  681SOL     OW 2416   0.076   0.811   6.375
  681SOL    HW1 2417   0.175   0.799   6.384
  681SOL    HW2 2418   0.052   0.906   6.396
  682SOL     OW 2419   0.130   1.821   7.157
  682SOL    HW1 2420   0.120   1.806   7.256
  682SOL    HW2 2421   0.044   1.857   7.121
  683SOL     OW 2422   0.865   0.348   5.781
  683SOL    HW1 2423   0.924   0.411   5.732
  683SOL    HW2 2424   0.884   0.254   5.752
  684SOL     OW 2425   1.719   0.585   7.417
  684SOL    HW1 2426   1.693   0.674   7.381
  684SOL    HW2 2427   1.717   0.517   7.344
  685SOL     OW 2428   1.362   1.144   6.131
  685SOL    HW1 2429   1.445   1.115   6.083
  685SOL    HW2 2430   1.313   1.211   6.075
  686SOL     OW 2431   0.550   0.196   6.471
  686SOL    HW1 2432   0.545   0.191   6.571
  686SOL    HW2 2433   0.552   0.292   6.442
  687SOL     OW 2434   1.008   1.456   6.063
  687SOL    HW1 2435   0.962   1.528   6.011
  687SOL    HW2 2436   1.004   1.476   6.161
  688SOL     OW 2437   0.351   1.801   6.439
  688SOL    HW1 2438   0.401   1.715   6.445
  688SOL    HW2 2439   0.416   1.878   6.436
  689SOL     OW 2440   1.795   1.066   6.459
  689SOL    HW1 2441   1.733   1.051   6.383
  689SOL    HW2 2442   1.743   1.077   6.544
  690SOL     OW 2443   1.227   1.550   7.092
  690SOL    HW1 2444   1.233   1.473   7.156
  690SOL    HW2 2445   1.175   1.524   7.012
  691SOL     OW 2446   0.321   0.943   5.828
  691SOL    HW1 2447   0.403   0.982   5.786
  691SOL    HW2 2448   0.294   0.861   5.779
  692SOL     OW 2449   1.458   0.735   6.314
  692SOL    HW1 2450   1.453   0.670   6.389
  692SOL    HW2 2451   1.538   0.794   6.327
  693SOL     OW 2452   0.461   1.266   7.313
  693SOL    HW1 2453   0.411   1.267   7.227
  693SOL    HW2 2454   0.398   1.248   7.389
  694SOL     OW 2455   1.111   1.776   5.823
  694SOL    HW1 2456   1.051   1.714   5.873
  694SOL    HW2 2457   1.142   1.732   5.738
  695SOL     OW 2458   0.202   0.285   7.084
  695SOL    HW1 2459   0.122   0.345   7.071
  695SOL    HW2 2460   0.192   0.236   7.170
  696SOL     OW 2461   1.632   1.377   5.667
  696SOL    HW1 2462   1.600   1.471   5.657
  696SOL    HW2 2463   1.556   1.314   5.655
  697SOL     OW 2464   0.464   1.743   5.909
  697SOL    HW1 2465   0.497   1.782   5.995
  697SOL    HW2 2466   0.540   1.736   5.844
  698SOL     OW 2467   1.400   0.107   6.012
  698SOL    HW1 2468   1.376   0.070   5.922
  698SOL    HW2 2469   1.499   0.123   6.016
  699SOL     OW 2470   0.249   1.785   6.827
  699SOL    HW1 2471   0.306   1.720   6.877
  699SOL    HW2 2472   0.233   1.752   6.734
  700SOL     OW 2473   0.940   1.698   6.490
  700SOL    HW1 2474   1.020   1.641   6.511
  700SOL    HW2 2475   0.891   1.658   6.413
  701SOL     OW 2476   0.382   0.700   6.066
  701SOL    HW1 2477   0.427   0.610   6.063
  701SOL    HW2 2478   0.288   0.689   6.099
  702SOL     OW 2479   1.547   0.222   7.315
  702SOL    HW1 2480   1.542   0.259   7.407
  702SOL    HW2 2481   1.475   0.153   7.303
  703SOL     OW 2482   0.614   0.122   5.703
  703SOL    HW1 2483   0.712   0.100   5.710
  703SOL    HW2 2484   0.583   0.105   5.610
  704SOL     OW 2485   0.781   0.264   7.335
  704SOL    HW1 2486   0.848   0.203   7.378
  704SOL    HW2 2487   0.708   0.283   7.400
  705SOL     OW 2488   0.888   1.514   6.781
  705SOL    HW1 2489   0.865   1.489   6.687
  705SOL    HW2 2490   0.949   1.445   6.820
  706SOL     OW 2491   1.351   0.590   7.019
  706SOL    HW1 2492   1.379   0.547   7.104
  706SOL    HW2 2493   1.376   0.686   7.020
  707SOL     OW 2494   0.803   1.402   6.510
  707SOL    HW1 2495   0.893   1.416   6.468
  707SOL    HW2 2496   0.732   1.404   6.439
  708SOL     OW 2497   0.922   0.503   6.485
  708SOL    HW1 2498   0.897   0.494   6.389
  708SOL    HW2 2499   0.970   0.421   6.516
  709SOL     OW 2500   0.539   0.064   6.098
  709SOL    HW1 2501   0.458   0.065   6.156
  709SOL    HW2 2502   0.542   0.147   6.043
  710SOL     OW 2503   1.434   1.188   5.627
  710SOL    HW1 2504   1.466   1.112   5.684
  710SOL    HW2 2505   1.342   1.215   5.657
  711SOL     OW 2506   0.297   0.035   5.757
  711SOL    HW1 2507   0.346   0.119   5.736
  711SOL    HW2 2508   0.359  -0.030   5.802
  712SOL     OW 2509   0.935   0.236   6.066
  712SOL    HW1 2510   0.887   0.277   5.988
  712SOL    HW2 2511   1.034   0.234   6.047
  713SOL     OW 2512   1.076   0.683   7.050
  713SOL    HW1 2513   0.996   0.622   7.053
  713SOL    HW2 2514   1.157   0.630   7.026
  714SOL     OW 2515   1.227   1.570   6.379
  714SOL    HW1 2516   1.248   1.644   6.314
  714SOL    HW2 2517   1.295   1.570   6.452
  715SOL     OW 2518   0.459   1.152   6.327
  715SOL    HW1 2519   0.388   1.125   6.392
  715SOL    HW2 2520   0.433   1.124   6.234
  716SOL     OW 2521   1.271   1.797   6.177
  716SOL    HW1 2522   1.315   1.861   6.113
  716SOL    HW2 2523   1.221   1.849   6.247
  717SOL     OW 2524   1.032   0.549   5.602
  717SOL    HW1 2525   0.991   0.631   5.563
  717SOL    HW2 2526   1.096   0.575   5.675
  718SOL     OW 2527   0.078   0.556   6.972
  718SOL    HW1 2528   0.170   0.555   6.931
  718SOL    HW2 2529   0.072   0.630   7.039
  719SOL     OW 2530   0.561   0.222   6.733
  719SOL    HW1 2531   0.599   0.138   6.770
  719SOL    HW2 2532   0.473   0.241   6.777
  720SOL     OW 2533   0.866   0.454   6.228
  720SOL    HW1 2534   0.834   0.526   6.166
  720SOL    HW2 2535   0.890   0.373   6.175
  721SOL     OW 2536   1.017   0.039   6.339
  721SOL    HW1 2537   0.945   0.044   6.270
  721SOL    HW2 2538   0.993  -0.030   6.408
  722SOL     OW 2539   1.429   1.173   6.453
  722SOL    HW1 2540   1.374   1.089   6.446
  722SOL    HW2 2541   1.455   1.202   6.361
  723SOL     OW 2542   1.466   0.590   6.578
  723SOL    HW1 2543   1.436   0.495   6.585
  723SOL    HW2 2544   1.539   0.606   6.644
  724SOL     OW 2545   1.857   0.833   5.963
  724SOL    HW1 2546   1.899   0.769   6.027
  724SOL    HW2 2547   1.819   0.782   5.885
  725SOL     OW 2548   0.488   1.385   5.760
  725SOL    HW1 2549   0.401   1.370   5.807
  725SOL    HW2 2550   0.471   1.411   5.665
  726SOL     OW 2551   1.664   1.280   6.243
  726SOL    HW1 2552   1.763   1.288   6.257
  726SOL    HW2 2553   1.619   1.364   6.274
  727SOL     OW 2554   1.390   0.575   5.664
  727SOL    HW1 2555   1.336   0.554   5.745
  727SOL    HW2 2556   1.481   0.534   5.673
  728SOL     OW 2557   0.527   0.256   5.914
  728SOL    HW1 2558   0.554   0.197   5.839
  728SOL    HW2 2559   0.527   0.351   5.883
  729SOL     OW 2560   1.754   1.223   7.174
  729SOL    HW1 2561   1.845   1.184   7.161
  729SOL    HW2 2562   1.762   1.319   7.198
  730SOL     OW 2563   1.064   1.347   6.926
  730SOL    HW1 2564   0.984   1.324   6.981
  730SOL    HW2 2565   1.147   1.321   6.975
  731SOL     OW 2566   1.592   1.629   7.211
  731SOL    HW1 2567   1.619   1.663   7.121
  731SOL    HW2 2568   1.671   1.591   7.257
  732SOL     OW 2569   1.111   1.195   6.686
  732SOL    HW1 2570   1.071   1.239   6.767
  732SOL    HW2 2571   1.070   1.232   6.603
  733SOL     OW 2572   1.638   1.099   6.665
  733SOL    HW1 2573   1.643   1.180   6.724
  733SOL    HW2 2574   1.552   1.101   6.614
  734SOL     OW 2575   0.915   0.089   6.988
  734SOL    HW1 2576   0.940   0.069   6.893
  734SOL    HW2 2577   0.987   0.145   7.030
  735SOL     OW 2578   0.980   1.116   7.305
  735SOL    HW1 2579   0.881   1.122   7.315
  735SOL    HW2 2580   1.003   1.036   7.249
  736SOL     OW 2581   0.705   1.050   5.954
  736SOL    HW1 2582   0.691   1.057   6.053
  736SOL    HW2 2583   0.789   0.999   5.936
  737SOL     OW 2584   0.410   0.813   6.837
  737SOL    HW1 2585   0.496   0.825   6.887
  737SOL    HW2 2586   0.368   0.726   6.864
  738SOL     OW 2587   1.274   0.386   6.848
  738SOL    HW1 2588   1.295   0.460   6.912
  738SOL    HW2 2589   1.185   0.403   6.805
  739SOL     OW 2590   0.064   1.564   6.917
  739SOL    HW1 2591   0.018   1.646   6.883
  739SOL    HW2 2592   0.162   1.583   6.926
  740SOL     OW 2593   0.367   1.100   6.087
  740SOL    HW1 2594   0.360   1.183   6.031
  740SOL    HW2 2595   0.371   1.020   6.027
  741SOL     OW 2596   0.566   0.537   6.451
  741SOL    HW1 2597   0.578   0.603   6.377
  741SOL    HW2 2598   0.612   0.571   6.534
  742SOL     OW 2599   1.252   1.348   5.974
  742SOL    HW1 2600   1.302   1.425   6.014
  742SOL    HW2 2601   1.157   1.350   6.006
  743SOL     OW 2602   1.272   1.445   6.728
  743SOL    HW1 2603   1.319   1.458   6.815
  743SOL    HW2 2604   1.206   1.371   6.737
  744SOL     OW 2605   1.582   0.639   6.058
  744SOL    HW1 2606   1.551   0.700   6.131
  744SOL    HW2 2607   1.632   0.691   5.989
  745SOL     OW 2608   0.354   1.510   6.915
  745SOL    HW1 2609   0.333   1.466   6.828
  745SOL    HW2 2610   0.451   1.536   6.918
  746SOL     OW 2611   0.402   0.751   7.184
  746SOL    HW1 2612   0.470   0.806   7.137
  746SOL    HW2 2613   0.442   0.663   7.211
  747SOL     OW 2614   1.587   0.779   7.256
  747SOL    HW1 2615   1.495   0.817   7.251
  747SOL    HW2 2616   1.647   0.826   7.191
  748SOL     OW 2617   1.013   0.105   7.356
  748SOL    HW1 2618   1.019   0.190   7.304
  748SOL    HW2 2619   1.045   0.029   7.299
  749SOL     OW 2620   0.504   0.050   7.326
  749SOL    HW1 2621   0.462  -0.007   7.256
  749SOL    HW2 2622   0.438   0.119   7.358
  750SOL     OW 2623   0.573   0.870   6.615
  750SOL    HW1 2624   0.617   0.959   6.606
  750SOL    HW2 2625   0.510   0.870   6.692
  751SOL     OW 2626   1.360   0.862   6.631
  751SOL    HW1 2627   1.285   0.862   6.565
  751SOL    HW2 2628   1.397   0.770   6.640
  752SOL     OW 2629   1.209   0.525   5.861
  752SOL    HW1 2630   1.222   0.441   5.915
  752SOL    HW2 2631   1.180   0.599   5.921
  753SOL     OW 2632   0.307   0.213   6.817
  753SOL    HW1 2633   0.284   0.250   6.907
  753SOL    HW2 2634   0.277   0.118   6.811
  754SOL     OW 2635   0.037   1.310   6.868
  754SOL    HW1 2636   0.090   1.261   6.936
  754SOL    HW2 2637   0.059   1.408   6.873
  755SOL     OW 2638   0.732   0.634   6.650
  755SOL    HW1 2639   0.791   0.608   6.574
  755SOL    HW2 2640   0.704   0.730   6.639
  756SOL     OW 2641   1.728   0.935   7.440
  756SOL    HW1 2642   1.682   0.928   7.351
  756SOL    HW2 2643   1.666   0.979   7.506
  757SOL     OW 2644   0.307   0.063   6.204
  757SOL    HW1 2645   0.296   0.157   6.237
  757SOL    HW2 2646   0.302   0.000   6.281
  758SOL     OW 2647   1.622   0.367   5.960
  758SOL    HW1 2648   1.624   0.291   6.024
  758SOL    HW2 2649   1.574   0.444   6.000
  759SOL     OW 2650   1.023   0.766   6.552
  759SOL    HW1 2651   1.038   0.787   6.648
  759SOL    HW2 2652   0.993   0.671   6.543
  760SOL     OW 2653   0.980   1.573   7.286
  760SOL    HW1 2654   0.960   1.617   7.198
  760SOL    HW2 2655   1.019   1.482   7.270
  761SOL     OW 2656   1.859   1.518   7.191
  761SOL    HW1 2657   1.873   1.545   7.096
  761SOL    HW2 2658   1.942   1.540   7.244
  762SOL     OW 2659   0.350   0.898   7.390
  762SOL    HW1 2660   0.426   0.942   7.438
  762SOL    HW2 2661   0.385   0.851   7.308
  763SOL     OW 2662   1.540   0.274   5.711
  763SOL    HW1 2663   1.479   0.199   5.734
  763SOL    HW2 2664   1.562   0.326   5.794
  764SOL     OW 2665   1.303   0.838   5.628
  764SOL    HW1 2666   1.337   0.745   5.643
  764SOL    HW2 2667   1.321   0.865   5.533
  765SOL     OW 2668   1.068   1.333   6.435
  765SOL    HW1 2669   1.075   1.249   6.380
  765SOL    HW2 2670   1.130   1.402   6.399
  766SOL     OW 2671   0.319   0.810   6.535
  766SOL    HW1 2672   0.412   0.846   6.540
  766SOL    HW2 2673   0.313   0.725   6.587
  767SOL     OW 2674   0.339   0.509   6.592
  767SOL    HW1 2675   0.287   0.426   6.575
  767SOL    HW2 2676   0.416   0.514   6.528
  768SOL     OW 2677   1.138   0.380   7.264
  768SOL    HW1 2678   1.093   0.443   7.328
  768SOL    HW2 2679   1.231   0.411   7.247
  769SOL     OW 2680   1.160   0.207   7.063
  769SOL    HW1 2681   1.160   0.271   7.140
  769SOL    HW2 2682   1.188   0.255   6.980
  770SOL     OW 2683   0.008   1.326   5.786
  770SOL    HW1 2684  -0.085   1.347   5.755
  770SOL    HW2 2685   0.018   1.227   5.799
  771SOL     OW 2686   0.088   1.801   6.513
  771SOL    HW1 2687   0.046   1.715   6.486
  771SOL    HW2 2688   0.182   1.804   6.479
  772SOL     OW 2689   0.504   1.568   6.496
  772SOL    HW1 2690   0.570   1.642   6.505
  772SOL    HW2 2691   0.548   1.489   6.454
  773SOL     OW 2692   1.002   0.796   6.824
  773SOL    HW1 2693   1.043   0.764   6.910
  773SOL    HW2 2694   0.906   0.769   6.821
  774SOL     OW 2695   0.040   0.544   6.700
  774SOL    HW1 2696   0.125   0.511   6.659
  774SOL    HW2 2697   0.053   0.559   6.798
  775SOL     OW 2698   0.189   0.520   7.308
  775SOL    HW1 2699   0.248   0.480   7.238
  775SOL    HW2 2700   0.131   0.591   7.267
  776SOL     OW 2701   1.369   0.950   7.246
  776SOL    HW1 2702   1.408   1.039   7.266
  776SOL    HW2 2703   1.379   0.930   7.149
  777SOL     OW 2704   0.815   0.572   5.911
  777SOL    HW1 2705   0.822   0.483   5.865
  777SOL    HW2 2706   0.721   0.606   5.903
  778SOL     OW 2707   1.657   0.604   6.792
  778SOL    HW1 2708   1.619   0.535   6.854
  778SOL    HW2 2709   1.739   0.568   6.748
  779SOL     OW 2710   0.252   1.564   7.330
  779SOL    HW1 2711   0.222   1.621   7.406
  779SOL    HW2 2712   0.245   1.467   7.356
  780SOL     OW 2713   0.671   0.464   6.855
  780SOL    HW1 2714   0.637   0.375   6.825
  780SOL    HW2 2715   0.697   0.518   6.775
  781SOL     OW 2716   0.930   1.678   7.051
  781SOL    HW1 2717   0.906   1.660   6.956
  781SOL    HW2 2718   0.960   1.772   7.061
  782SOL     OW 2719   0.473   0.500   5.777
  782SOL    HW1 2720   0.534   0.580   5.781
  782SOL    HW2 2721   0.378   0.531   5.784
  783SOL     OW 2722   0.159   1.137   7.052
  783SOL    HW1 2723   0.181   1.076   7.128
  783SOL    HW2 2724   0.169   1.088   6.966
  784SOL     OW 2725   1.347   1.059   6.820
  784SOL    HW1 2726   1.371   0.996   6.746
  784SOL    HW2 2727   1.257   1.099   6.802
  785SOL     OW 2728   1.302   0.855   5.895
  785SOL    HW1 2729   1.216   0.824   5.937
  785SOL    HW2 2730   1.298   0.841   5.796
  786SOL     OW 2731   1.759   1.747   6.740
  786SOL    HW1 2732   1.820   1.777   6.667
  786SOL    HW2 2733   1.721   1.658   6.718
  787SOL     OW 2734   1.252   1.731   6.714
  787SOL    HW1 2735   1.336   1.736   6.660
  787SOL    HW2 2736   1.229   1.635   6.732
  788SOL     OW 2737   0.083   1.258   6.608
  788SOL    HW1 2738   0.078   1.257   6.708
  788SOL    HW2 2739   0.000   1.217   6.570
  789SOL     OW 2740   0.688   1.662   7.302
  789SOL    HW1 2741   0.632   1.743   7.311
  789SOL    HW2 2742   0.740   1.666   7.216
  790SOL     OW 2743   1.726   0.135   6.109
  790SOL    HW1 2744   1.799   0.118   6.042
  790SOL    HW2 2745   1.695   0.048   6.147
  791SOL     OW 2746   1.388   1.573   6.063
  791SOL    HW1 2747   1.455   1.585   5.989
  791SOL    HW2 2748   1.348   1.662   6.086
  792SOL     OW 2749   0.130   1.794   7.437
  792SOL    HW1 2750   0.089   1.720   7.490
  792SOL    HW2 2751   0.194   1.845   7.495
  793SOL     OW 2752   1.280   0.927   6.258
  793SOL    HW1 2753   1.340   0.846   6.260
  793SOL    HW2 2754   1.320   0.996   6.198
  794SOL     OW 2755   0.830   1.273   7.008
  794SOL    HW1 2756   0.825   1.306   7.103
  794SOL    HW2 2757   0.744   1.292   6.962
  795SOL     OW 2758   0.672   1.616   5.740
  795SOL    HW1 2759   0.681   1.626   5.641
  795SOL    HW2 2760   0.632   1.527   5.761
  796SOL     OW 2761   1.650   1.720   6.980
  796SOL    HW1 2762   1.703   1.730   6.896
  796SOL    HW2 2763   1.623   1.810   7.014
  797SOL     OW 2764   1.841   0.175   6.549
  797SOL    HW1 2765   1.880   0.090   6.513
  797SOL    HW2 2766   1.743   0.177   6.530
  798SOL     OW 2767   0.263   0.326   6.306
  798SOL    HW1 2768   0.184   0.377   6.272
  798SOL    HW2 2769   0.254   0.311   6.404
  799SOL     OW 2770   1.194   1.612   5.617
  799SOL    HW1 2771   1.200   1.519   5.654
  799SOL    HW2 2772   1.135   1.612   5.537
  800SOL     OW 2773   0.822   1.002   6.958
  800SOL    HW1 2774   0.862   1.001   6.866
  800SOL    HW2 2775   0.832   1.094   6.998
  801SOL     OW 2776   0.916   0.910   5.877
  801SOL    HW1 2777   0.979   0.948   5.809
  801SOL    HW2 2778   0.956   0.827   5.916
  802SOL     OW 2779   1.504   1.607   5.630
  802SOL    HW1 2780   1.412   1.644   5.637
  802SOL    HW2 2781   1.542   1.627   5.540
  803SOL     OW 2782   0.372   1.288   7.076
  803SOL    HW1 2783   0.359   1.381   7.042
  803SOL    HW2 2784   0.288   1.236   7.063
  804SOL     OW 2785   1.614   1.292   6.875
  804SOL    HW1 2786   1.674   1.295   6.955
  804SOL    HW2 2787   1.539   1.356   6.888
  805SOL     OW 2788   1.039   1.098   6.282
  805SOL    HW1 2789   0.969   1.051   6.336
  805SOL    HW2 2790   1.098   1.030   6.239
  806SOL     OW 2791   1.014   0.236   6.557
  806SOL    HW1 2792   1.006   0.200   6.464
  806SOL    HW2 2793   1.012   0.160   6.622
  807SOL     OW 2794   0.590   1.487   6.077
  807SOL    HW1 2795   0.632   1.429   6.007
  807SOL    HW2 2796   0.546   1.566   6.033
  808SOL     OW 2797   1.709   0.385   6.967
  808SOL    HW1 2798   1.782   0.454   6.971
  808SOL    HW2 2799   1.737   0.310   6.908
  809SOL     OW 2800   0.255   1.348   5.876
  809SOL    HW1 2801   0.159   1.349   5.849
  809SOL    HW2 2802   0.267   1.401   5.960
  810SOL     OW 2803   0.105   1.013   7.312
  810SOL    HW1 2804   0.028   0.980   7.366
  810SOL    HW2 2805   0.190   0.983   7.354
  811SOL     OW 2806   0.672   0.203   7.075
  811SOL    HW1 2807   0.762   0.187   7.035
  811SOL    HW2 2808   0.680   0.208   7.174
  812SOL     OW 2809   0.075   0.345   5.619
  812SOL    HW1 2810  -0.017   0.317   5.590
  812SOL    HW2 2811   0.106   0.422   5.563
  813SOL     OW 2812   1.440   0.856   6.984
  813SOL    HW1 2813   1.383   0.908   6.921
  813SOL    HW2 2814   1.536   0.868   6.960
  814SOL     OW 2815   0.072   0.166   5.904
  814SOL    HW1 2816   0.055   0.249   5.850
  814SOL    HW2 2817   0.162   0.129   5.882
  815SOL     OW 2818   1.183   1.335   5.705
  815SOL    HW1 2819   1.084   1.324   5.707
  815SOL    HW2 2820   1.217   1.350   5.798
  816SOL     OW 2821   0.613   0.842   7.017
  816SOL    HW1 2822   0.669   0.923   7.000
  816SOL    HW2 2823   0.672   0.762   7.020
  817SOL     OW 2824   1.493   1.767   6.545
  817SOL    HW1 2825   1.526   1.831   6.476
  817SOL    HW2 2826   1.559   1.761   6.620
  818SOL     OW 2827   0.716   0.565   7.294
  818SOL    HW1 2828   0.735   0.630   7.368
  818SOL    HW2 2829   0.776   0.485   7.303
  819SOL     OW 2830   1.450   1.220   7.219
  819SOL    HW1 2831   1.441   1.210   7.318
  819SOL    HW2 2832   1.546   1.213   7.193
  820SOL     OW 2833   0.390   1.741   7.146
  820SOL    HW1 2834   0.299   1.782   7.144
  820SOL    HW2 2835   0.383   1.647   7.178
  821SOL     OW 2836   1.674   0.883   6.840
  821SOL    HW1 2837   1.647   0.794   6.803
  821SOL    HW2 2838   1.675   0.951   6.767
  822SOL     OW 2839   1.225   0.325   6.035
  822SOL    HW1 2840   1.290   0.251   6.024
  822SOL    HW2 2841   1.245   0.375   6.119
  823SOL     OW 2842   0.594   0.745   6.238
  823SOL    HW1 2843   0.644   0.830   6.219
  823SOL    HW2 2844   0.506   0.747   6.190
  824SOL     OW 2845   1.777   0.342   7.228
  824SOL    HW1 2846   1.760   0.373   7.134
  824SOL    HW2 2847   1.693   0.305   7.266
  825SOL     OW 2848   1.730   0.934   7.103
  825SOL    HW1 2849   1.768   1.025   7.118
  825SOL    HW2 2850   1.722   0.917   7.004
  826SOL     OW 2851   0.859   1.374   5.602
  826SOL    HW1 2852   0.813   1.389   5.690
  826SOL    HW2 2853   0.903   1.459   5.572
  827SOL     OW 2854   0.661   1.790   6.539
  827SOL    HW1 2855   0.615   1.878   6.526
  827SOL    HW2 2856   0.760   1.802   6.532
  828SOL     OW 2857   0.859   0.956   6.447
  828SOL    HW1 2858   0.913   0.887   6.495
  828SOL    HW2 2859   0.827   1.025   6.513
  829SOL     OW 2860   1.083   0.984   5.673
  829SOL    HW1 2861   1.060   1.037   5.591
  829SOL    HW2 2862   1.164   0.928   5.654
  830SOL     OW 2863   1.861   1.569   6.437
  830SOL    HW1 2864   1.790   1.557   6.367
  830SOL    HW2 2865   1.862   1.490   6.497
  831SOL     OW 2866   0.221   1.314   7.430
  831SOL    HW1 2867   0.156   1.241   7.409
  831SOL    HW2 2868   0.225   1.328   7.528
  832SOL     OW 2869   0.079   1.240   6.239
  832SOL    HW1 2870   0.078   1.193   6.327
  832SOL    HW2 2871   0.161   1.212   6.188
  833SOL     OW 2872   0.672   1.391   7.210
  833SOL    HW1 2873   0.594   1.341   7.248
  833SOL    HW2 2874   0.669   1.486   7.241
  834SOL     OW 2875   1.824   0.192   6.813
  834SOL    HW1 2876   1.820   0.102   6.857
  834SOL    HW2 2877   1.827   0.181   6.714
  835SOL     OW 2878   0.428   0.424   6.106
  835SOL    HW1 2879   0.458   0.352   6.044
  835SOL    HW2 2880   0.389   0.384   6.189
  836SOL     OW 2881   1.705   1.487   6.690
  836SOL    HW1 2882   1.612   1.462   6.663
  836SOL    HW2 2883   1.731   1.437   6.772
  837SOL     OW 2884   0.317   0.547   6.866
  837SOL    HW1 2885   0.355   0.488   6.938
  837SOL    HW2 2886   0.357   0.521   6.778
  838SOL     OW 2887   0.812   1.586   6.273
  838SOL    HW1 2888   0.844   1.596   6.179
  838SOL    HW2 2889   0.733   1.524   6.275
  839SOL     OW 2890   1.424   0.214   6.698
  839SOL    HW1 2891   1.476   0.149   6.753
  839SOL    HW2 2892   1.375   0.277   6.759
  840SOL     OW 2893   1.001   0.034   6.740
  840SOL    HW1 2894   0.938  -0.038   6.709
  840SOL    HW2 2895   1.094  -0.002   6.740
  841SOL     OW 2896   0.770   1.330   5.887
  841SOL    HW1 2897   0.724   1.243   5.904
  841SOL    HW2 2898   0.861   1.327   5.928
  842SOL     OW 2899   0.618   1.567   6.870
  842SOL    HW1 2900   0.613   1.649   6.927
  842SOL    HW2 2901   0.707   1.564   6.825
  843SOL     OW 2902   1.352   0.052   5.754
  843SOL    HW1 2903   1.387   0.011   5.670
  843SOL    HW2 2904   1.262   0.014   5.774
  844SOL     OW 2905   1.300   0.453   6.277
  844SOL    HW1 2906   1.241   0.533   6.281
  844SOL    HW2 2907   1.315   0.418   6.370
  845SOL     OW 2908   1.593   0.221   6.468
  845SOL    HW1 2909   1.509   0.220   6.522
  845SOL    HW2 2910   1.595   0.304   6.412
  846SOL     OW 2911   0.039   1.077   5.886
  846SOL    HW1 2912   0.138   1.066   5.877
  846SOL    HW2 2913  -0.001   0.991   5.918
  847SOL     OW 2914   0.875   1.646   5.923
  847SOL    HW1 2915   0.798   1.611   5.869
  847SOL    HW2 2916   0.843   1.717   5.985
  848SOL     OW 2917   0.230   0.628   7.561
  848SOL    HW1 2918   0.137   0.626   7.598
  848SOL    HW2 2919   0.231   0.589   7.469
  849SOL     OW 2920   0.225   0.275   8.444
  849SOL    HW1 2921   0.260   0.258   8.536
  849SOL    HW2 2922   0.137   0.230   8.432
  850SOL     OW 2923   0.019   0.368   8.095
  850SOL    HW1 2924  -0.063   0.411   8.134
  850SOL    HW2 2925  -0.009   0.295   8.032
  851SOL     OW 2926   0.569   1.275   8.613
  851SOL    HW1 2927   0.476   1.268   8.576
  851SOL    HW2 2928   0.580   1.364   8.657
  852SOL     OW 2929   1.555   1.511   8.151
  852SOL    HW1 2930   1.498   1.495   8.232
  852SOL    HW2 2931   1.496   1.521   8.071
  853SOL     OW 2932   1.135   0.703   8.165
  853SOL    HW1 2933   1.192   0.781   8.140
  853SOL    HW2 2934   1.075   0.729   8.241
  854SOL     OW 2935   1.755   0.607   7.679
  854SOL    HW1 2936   1.743   0.594   7.580
  854SOL    HW2 2937   1.725   0.526   7.728
  855SOL     OW 2938   0.768   1.144   8.471
  855SOL    HW1 2939   0.690   1.161   8.531
  855SOL    HW2 2940   0.802   1.231   8.435
  856SOL     OW 2941   0.850   0.798   9.271
  856SOL    HW1 2942   0.846   0.874   9.336
  856SOL    HW2 2943   0.872   0.834   9.180
  857SOL     OW 2944   0.685   1.012   8.113
  857SOL    HW1 2945   0.754   0.996   8.183
  857SOL    HW2 2946   0.612   1.069   8.151
  858SOL     OW 2947   0.686   1.161   9.251
  858SOL    HW1 2948   0.746   1.240   9.265
  858SOL    HW2 2949   0.600   1.192   9.210
  859SOL     OW 2950   0.335   1.435   8.509
  859SOL    HW1 2951   0.257   1.404   8.456
  859SOL    HW2 2952   0.393   1.493   8.452
  860SOL     OW 2953   1.460   1.505   8.787
  860SOL    HW1 2954   1.484   1.599   8.813
  860SOL    HW2 2955   1.444   1.451   8.869
  861SOL     OW 2956   0.438   0.392   8.947
  861SOL    HW1 2957   0.520   0.336   8.956
  861SOL    HW2 2958   0.357   0.334   8.951
  862SOL     OW 2959   1.603   0.447   8.185
  862SOL    HW1 2960   1.529   0.493   8.135
  862SOL    HW2 2961   1.654   0.515   8.238
  863SOL     OW 2962   0.231   1.713   7.931
  863SOL    HW1 2963   0.265   1.790   7.985
  863SOL    HW2 2964   0.275   1.713   7.841
  864SOL     OW 2965   1.127   1.341   9.138
  864SOL    HW1 2966   1.174   1.341   9.226
  864SOL    HW2 2967   1.079   1.254   9.127
  865SOL     OW 2968   0.230   1.434   7.986
  865SOL    HW1 2969   0.204   1.530   7.986
  865SOL    HW2 2970   0.159   1.380   8.031
  866SOL     OW 2971   0.240   1.091   8.334
  866SOL    HW1 2972   0.254   1.007   8.386
  866SOL    HW2 2973   0.185   1.155   8.389
  867SOL     OW 2974   0.620   1.786   8.887
  867SOL    HW1 2975   0.528   1.769   8.922
  867SOL    HW2 2976   0.648   1.878   8.913
  868SOL     OW 2977   0.606   0.964   7.571
  868SOL    HW1 2978   0.613   1.048   7.517
  868SOL    HW2 2979   0.652   0.977   7.659
  869SOL     OW 2980   1.594   0.114   8.928
  869SOL    HW1 2981   1.576   0.181   8.856
  869SOL    HW2 2982   1.591   0.160   9.017
  870SOL     OW 2983   0.122   0.643   8.011
  870SOL    HW1 2984   0.077   0.555   8.028
  870SOL    HW2 2985   0.121   0.697   8.095
  871SOL     OW 2986   1.842   1.767   7.807
  871SOL    HW1 2987   1.896   1.738   7.887
  871SOL    HW2 2988   1.872   1.857   7.778
  872SOL     OW 2989   0.027   1.596   7.565
  872SOL    HW1 2990   0.008   1.500   7.586
  872SOL    HW2 2991  -0.006   1.654   7.640
  873SOL     OW 2992   1.689   0.922   8.060
  873SOL    HW1 2993   1.784   0.893   8.068
  873SOL    HW2 2994   1.681   0.987   7.985
  874SOL     OW 2995   1.641   1.108   7.880
  874SOL    HW1 2996   1.727   1.110   7.828
  874SOL    HW2 2997   1.655   1.155   7.968
  875SOL     OW 2998   0.113   0.737   9.045
  875SOL    HW1 2999   0.201   0.724   9.090
  875SOL    HW2 3000   0.100   0.834   9.023
  876SOL     OW 3001   0.613   1.365   8.174
  876SOL    HW1 3002   0.564   1.278   8.183
  876SOL    HW2 3003   0.590   1.408   8.087
  877SOL     OW 3004   1.293   1.228   8.871
  877SOL    HW1 3005   1.330   1.155   8.813
  877SOL    HW2 3006   1.345   1.233   8.956
  878SOL     OW 3007   0.809   0.004   7.950
  878SOL    HW1 3008   0.849   0.095   7.941
  878SOL    HW2 3009   0.709   0.012   7.956
  879SOL     OW 3010   0.197   0.976   8.712
  879SOL    HW1 3011   0.286   0.931   8.698
  879SOL    HW2 3012   0.124   0.911   8.693
  880SOL     OW 3013   1.525   0.999   7.638
  880SOL    HW1 3014   1.462   0.923   7.651
  880SOL    HW2 3015   1.573   1.017   7.724
  881SOL     OW 3016   1.187   1.792   9.064
  881SOL    HW1 3017   1.211   1.852   8.988
  881SOL    HW2 3018   1.194   1.697   9.034
  882SOL     OW 3019   0.317   0.251   9.249
  882SOL    HW1 3020   0.388   0.322   9.255
  882SOL    HW2 3021   0.229   0.290   9.277
  883SOL     OW 3022   1.466   1.417   8.401
  883SOL    HW1 3023   1.407   1.423   8.481
  883SOL    HW2 3024   1.451   1.329   8.355
  884SOL     OW 3025   1.667   1.714   8.020
  884SOL    HW1 3026   1.626   1.691   7.932
  884SOL    HW2 3027   1.649   1.640   8.085
  885SOL     OW 3028   0.598   0.729   7.718
  885SOL    HW1 3029   0.622   0.798   7.650
  885SOL    HW2 3030   0.520   0.762   7.772
  886SOL     OW 3031   1.281   0.345   8.392
  886SOL    HW1 3032   1.195   0.295   8.379
  886SOL    HW2 3033   1.343   0.291   8.448
  887SOL     OW 3034   1.576   1.662   7.755
  887SOL    HW1 3035   1.665   1.708   7.758
  887SOL    HW2 3036   1.555   1.638   7.660
  888SOL     OW 3037   0.807   0.605   8.913
  888SOL    HW1 3038   0.760   0.602   9.002
  888SOL    HW2 3039   0.756   0.550   8.847
  889SOL     OW 3040   1.394   0.469   9.122
  889SOL    HW1 3041   1.374   0.512   9.210
  889SOL    HW2 3042   1.472   0.407   9.131
  890SOL     OW 3043   0.973   0.890   9.020
  890SOL    HW1 3044   1.019   0.806   8.991
  890SOL    HW2 3045   0.917   0.924   8.945
  891SOL     OW 3046   0.991   0.410   8.690
  891SOL    HW1 3047   0.914   0.444   8.744
  891SOL    HW2 3048   0.957   0.359   8.611
  892SOL     OW 3049   1.041   0.701   7.877
  892SOL    HW1 3050   1.067   0.697   7.973
  892SOL    HW2 3051   0.956   0.650   7.863
  893SOL     OW 3052   0.076   0.811   8.237
  893SOL    HW1 3053   0.175   0.799   8.246
  893SOL    HW2 3054   0.052   0.906   8.258
  894SOL     OW 3055   0.130   1.821   9.019
  894SOL    HW1 3056   0.120   1.806   9.118
  894SOL    HW2 3057   0.044   1.857   8.983
  895SOL     OW 3058   0.865   0.348   7.643
  895SOL    HW1 3059   0.924   0.411   7.594
  895SOL    HW2 3060   0.884   0.254   7.614
  896SOL     OW 3061   1.719   0.585   9.279
  896SOL    HW1 3062   1.693   0.674   9.243
  896SOL    HW2 3063   1.717   0.517   9.206
  897SOL     OW 3064   1.362   1.144   7.993
  897SOL    HW1 3065   1.445   1.115   7.945
  897SOL    HW2 3066   1.313   1.211   7.937
  898SOL     OW 3067   0.550   0.196   8.333
  898SOL    HW1 3068   0.545   0.191   8.433
  898SOL    HW2 3069   0.552   0.292   8.304
  899SOL     OW 3070   1.008   1.456   7.925
  899SOL    HW1 3071   0.962   1.528   7.873
  899SOL    HW2 3072   1.004   1.476   8.023
  900SOL     OW 3073   0.351   1.801   8.301
  900SOL    HW1 3074   0.401   1.715   8.307
  900SOL    HW2 3075   0.416   1.878   8.298
  901SOL     OW 3076   1.795   1.066   8.321
  901SOL    HW1 3077   1.733   1.051   8.245
  901SOL    HW2 3078   1.743   1.077   8.406
  902SOL     OW 3079   1.227   1.550   8.954
  902SOL    HW1 3080   1.233   1.473   9.018
  902SOL    HW2 3081   1.175   1.524   8.874
  903SOL     OW 3082   0.321   0.943   7.690
  903SOL    HW1 3083   0.403   0.982   7.648
  903SOL    HW2 3084   0.294   0.861   7.641
  904SOL     OW 3085   1.458   0.735   8.176
  904SOL    HW1 3086   1.453   0.670   8.251
  904SOL    HW2 3087   1.538   0.794   8.189
  905SOL     OW 3088   0.461   1.266   9.175
  905SOL    HW1 3089   0.411   1.267   9.089
  905SOL    HW2 3090   0.398   1.248   9.251
  906SOL     OW 3091   1.111   1.776   7.685
  906SOL    HW1 3092   1.051   1.714   7.735
  906SOL    HW2 3093   1.142   1.732   7.600
  907SOL     OW 3094   0.202   0.285   8.946
  907SOL    HW1 3095   0.122   0.345   8.933
  907SOL    HW2 3096   0.192   0.236   9.032
  908SOL     OW 3097   1.632   1.377   7.529
  908SOL    HW1 3098   1.600   1.471   7.519
  908SOL    HW2 3099   1.556   1.314   7.517
  909SOL     OW 3100   0.464   1.743   7.771
  909SOL    HW1 3101   0.497   1.782   7.857
  909SOL    HW2 3102   0.540   1.736   7.706
  910SOL     OW 3103   1.400   0.107   7.874
  910SOL    HW1 3104   1.376   0.070   7.784
  910SOL    HW2 3105   1.499   0.123   7.878
  911SOL     OW 3106   0.249   1.785   8.689
  911SOL    HW1 3107   0.306   1.720   8.739
  911SOL    HW2 3108   0.233   1.752   8.596
  912SOL     OW 3109   0.940   1.698   8.352
  912SOL    HW1 3110   1.020   1.641   8.373
  912SOL    HW2 3111   0.891   1.658   8.275
  913SOL     OW 3112   0.382   0.700   7.928
  913SOL    HW1 3113   0.427   0.610   7.925
  913SOL    HW2 3114   0.288   0.689   7.961
  914SOL     OW 3115   1.547   0.222   9.177
  914SOL    HW1 3116   1.542   0.259   9.269
  914SOL    HW2 3117   1.475   0.153   9.165
  915SOL     OW 3118   0.614   0.122   7.565
  915SOL    HW1 3119   0.712   0.100   7.572
  915SOL    HW2 3120   0.583   0.105   7.472
  916SOL     OW 3121   0.781   0.264   9.197
  916SOL    HW1 3122   0.848   0.203   9.240
  916SOL    HW2 3123   0.708   0.283   9.262
  917SOL     OW 3124   0.888   1.514   8.643
  917SOL    HW1 3125   0.865   1.489   8.549
  917SOL    HW2 3126   0.949   1.445   8.682
  918SOL     OW 3127   1.351   0.590   8.881
  918SOL    HW1 3128   1.379   0.547   8.966
  918SOL    HW2 3129   1.376   0.686   8.882
  919SOL     OW 3130   0.803   1.402   8.372
  919SOL    HW1 3131   0.893   1.416   8.330
  919SOL    HW2 3132   0.732   1.404   8.301
  920SOL     OW 3133   0.922   0.503   8.347
  920SOL    HW1 3134   0.897   0.494   8.251
  920SOL    HW2 3135   0.970   0.421   8.378
  921SOL     OW 3136   0.539   0.064   7.960
  921SOL    HW1 3137   0.458   0.065   8.018
  921SOL    HW2 3138   0.542   0.147   7.905
  922SOL     OW 3139   1.434   1.188   7.489
  922SOL    HW1 3140   1.466   1.112   7.546
  922SOL    HW2 3141   1.342   1.215   7.519
  923SOL     OW 3142   0.297   0.035   7.619
  923SOL    HW1 3143   0.346   0.119   7.598
  923SOL    HW2 3144   0.359  -0.030   7.664
  924SOL     OW 3145   0.935   0.236   7.928
  924SOL    HW1 3146   0.887   0.277   7.850
  924SOL    HW2 3147   1.034   0.234   7.909
  925SOL     OW 3148   1.076   0.683   8.912
  925SOL    HW1 3149   0.996   0.622   8.915
  925SOL    HW2 3150   1.157   0.630   8.888
  926SOL     OW 3151   1.227   1.570   8.241
  926SOL    HW1 3152   1.248   1.644   8.176
  926SOL    HW2 3153   1.295   1.570   8.314
  927SOL     OW 3154   0.459   1.152   8.189
  927SOL    HW1 3155   0.388   1.125   8.254
  927SOL    HW2 3156   0.433   1.124   8.096
  928SOL     OW 3157   1.271   1.797   8.039
  928SOL    HW1 3158   1.315   1.861   7.975
  928SOL    HW2 3159   1.221   1.849   8.109
  929SOL     OW 3160   1.032   0.549   7.464
  929SOL    HW1 3161   0.991   0.631   7.425
  929SOL    HW2 3162   1.096   0.575   7.537
  930SOL     OW 3163   0.078   0.556   8.834
  930SOL    HW1 3164   0.170   0.555   8.793
  930SOL    HW2 3165   0.072   0.630   8.901
  931SOL     OW 3166   0.561   0.222   8.595
  931SOL    HW1 3167   0.599   0.138   8.632
  931SOL    HW2 3168   0.473   0.241   8.639
  932SOL     OW 3169   0.866   0.454   8.090
  932SOL    HW1 3170   0.834   0.526   8.028
  932SOL    HW2 3171   0.890   0.373   8.037
  933SOL     OW 3172   1.017   0.039   8.201
  933SOL    HW1 3173   0.945   0.044   8.132
  933SOL    HW2 3174   0.993  -0.030   8.270
  934SOL     OW 3175   1.429   1.173   8.315
  934SOL    HW1 3176   1.374   1.089   8.308
  934SOL    HW2 3177   1.455   1.202   8.223
  935SOL     OW 3178   1.466   0.590   8.440
  935SOL    HW1 3179   1.436   0.495   8.447
  935SOL    HW2 3180   1.539   0.606   8.506
  936SOL     OW 3181   1.857   0.833   7.825
  936SOL    HW1 3182   1.899   0.769   7.889
  936SOL    HW2 3183   1.819   0.782   7.747
  937SOL     OW 3184   0.488   1.385   7.622
  937SOL    HW1 3185   0.401   1.370   7.669
  937SOL    HW2 3186   0.471   1.411   7.527
  938SOL     OW 3187   1.664   1.280   8.105
  938SOL    HW1 3188   1.763   1.288   8.119
  938SOL    HW2 3189   1.619   1.364   8.136
  939SOL     OW 3190   1.390   0.575   7.526
  939SOL    HW1 3191   1.336   0.554   7.607
  939SOL    HW2 3192   1.481   0.534   7.535
  940SOL     OW 3193   0.527   0.256   7.776
  940SOL    HW1 3194   0.554   0.197   7.701
  940SOL    HW2 3195   0.527   0.351   7.745
  941SOL     OW 3196   1.754   1.223   9.036
  941SOL    HW1 3197   1.845   1.184   9.023
  941SOL    HW2 3198   1.762   1.319   9.060
  942SOL     OW 3199   1.064   1.347   8.788
  942SOL    HW1 3200   0.984   1.324   8.843
  942SOL    HW2 3201   1.147   1.321   8.837
  943SOL     OW 3202   1.592   1.629   9.073
  943SOL    HW1 3203   1.619   1.663   8.983
  943SOL    HW2 3204   1.671   1.591   9.119
  944SOL     OW 3205   1.111   1.195   8.548
  944SOL    HW1 3206   1.071   1.239   8.629
  944SOL    HW2 3207   1.070   1.232   8.465
  945SOL     OW 3208   1.638   1.099   8.527
  945SOL    HW1 3209   1.643   1.180   8.586
  945SOL    HW2 3210   1.552   1.101   8.476
  946SOL     OW 3211   0.915   0.089   8.850
  946SOL    HW1 3212   0.940   0.069   8.755
  946SOL    HW2 3213   0.987   0.145   8.892
  947SOL     OW 3214   0.980   1.116   9.167
  947SOL    HW1 3215   0.881   1.122   9.177
  947SOL    HW2 3216   1.003   1.036   9.111
  948SOL     OW 3217   0.705   1.050   7.816
  948SOL    HW1 3218   0.691   1.057   7.915
  948SOL    HW2 3219   0.789   0.999   7.798
  949SOL     OW 3220   0.410   0.813   8.699
  949SOL    HW1 3221   0.496   0.825   8.749
  949SOL    HW2 3222   0.368   0.726   8.726
  950SOL     OW 3223   1.274   0.386   8.710
  950SOL    HW1 3224   1.295   0.460   8.774
  950SOL    HW2 3225   1.185   0.403   8.667
  951SOL     OW 3226   0.064   1.564   8.779
  951SOL    HW1 3227   0.018   1.646   8.745
  951SOL    HW2 3228   0.162   1.583   8.788
  952SOL     OW 3229   0.367   1.100   7.949
  952SOL    HW1 3230   0.360   1.183   7.893
  952SOL    HW2 3231   0.371   1.020   7.889
  953SOL     OW 3232   0.566   0.537   8.313
  953SOL    HW1 3233   0.578   0.603   8.239
  953SOL    HW2 3234   0.612   0.571   8.396
  954SOL     OW 3235   1.252   1.348   7.836
  954SOL    HW1 3236   1.302   1.425   7.876
  954SOL    HW2 3237   1.157   1.350   7.868
  955SOL     OW 3238   1.272   1.445   8.590
  955SOL    HW1 3239   1.319   1.458   8.677
  955SOL    HW2 3240   1.206   1.371   8.599
  956SOL     OW 3241   1.582   0.639   7.920
  956SOL    HW1 3242   1.551   0.700   7.993
  956SOL    HW2 3243   1.632   0.691   7.851
  957SOL     OW 3244   0.354   1.510   8.777
  957SOL    HW1 3245   0.333   1.466   8.690
  957SOL    HW2 3246   0.451   1.536   8.780
  958SOL     OW 3247   0.402   0.751   9.046
  958SOL    HW1 3248   0.470   0.806   8.999
  958SOL    HW2 3249   0.442   0.663   9.073
  959SOL     OW 3250   1.587   0.779   9.118
  959SOL    HW1 3251   1.495   0.817   9.113
  959SOL    HW2 3252   1.647   0.826   9.053
  960SOL     OW 3253   1.013   0.105   9.218
  960SOL    HW1 3254   1.019   0.190   9.166
  960SOL    HW2 3255   1.045   0.029   9.161
  961SOL     OW 3256   0.504   0.050   9.188
  961SOL    HW1 3257   0.462  -0.007   9.118
  961SOL    HW2 3258   0.438   0.119   9.220
  962SOL     OW 3259   0.573   0.870   8.477
  962SOL    HW1 3260   0.617   0.959   8.468
  962SOL    HW2 3261   0.510   0.870   8.554
  963SOL     OW 3262   1.360   0.862   8.493
  963SOL    HW1 3263   1.285   0.862   8.427
  963SOL    HW2 3264   1.397   0.770   8.502
  964SOL     OW 3265   1.209   0.525   7.723
  964SOL    HW1 3266   1.222   0.441   7.777
  964SOL    HW2 3267   1.180   0.599   7.783
  965SOL     OW 3268   0.307   0.213   8.679
  965SOL    HW1 3269   0.284   0.250   8.769
  965SOL    HW2 3270   0.277   0.118   8.673
  966SOL     OW 3271   0.037   1.310   8.730
  966SOL    HW1 3272   0.090   1.261   8.798
  966SOL    HW2 3273   0.059   1.408   8.735
  967SOL     OW 3274   0.732   0.634   8.512
  967SOL    HW1 3275   0.791   0.608   8.436
  967SOL    HW2 3276   0.704   0.730   8.501
  968SOL     OW 3277   1.728   0.935   9.302
  968SOL    HW1 3278   1.682   0.928   9.213
  968SOL    HW2 3279   1.666   0.979   9.368
  969SOL     OW 3280   0.307   0.063   8.066
  969SOL    HW1 3281   0.296   0.157   8.099
  969SOL    HW2 3282   0.302   0.000   8.143
  970SOL     OW 3283   1.622   0.367   7.822
  970SOL    HW1 3284   1.624   0.291   7.886
  970SOL    HW2 3285   1.574   0.444   7.862
  971SOL     OW 3286   1.023   0.766   8.414
  971SOL    HW1 3287   1.038   0.787   8.510
  971SOL    HW2 3288   0.993   0.671   8.405
  972SOL     OW 3289   0.980   1.573   9.148
  972SOL    HW1 3290   0.960   1.617   9.060
  972SOL    HW2 3291   1.019   1.482   9.132
  973SOL     OW 3292   1.859   1.518   9.053
  973SOL    HW1 3293   1.873   1.545   8.958
  973SOL    HW2 3294   1.942   1.540   9.106
  974SOL     OW 3295   0.350   0.898   9.252
  974SOL    HW1 3296   0.426   0.942   9.300
  974SOL    HW2 3297   0.385   0.851   9.170
  975SOL     OW 3298   1.540   0.274   7.573
  975SOL    HW1 3299   1.479   0.199   7.596
  975SOL    HW2 3300   1.562   0.326   7.656
  976SOL     OW 3301   1.303   0.838   7.490
  976SOL    HW1 3302   1.337   0.745   7.505
  976SOL    HW2 3303   1.321   0.865   7.395
  977SOL     OW 3304   1.068   1.333   8.297
  977SOL    HW1 3305   1.075   1.249   8.242
  977SOL    HW2 3306   1.130   1.402   8.261
  978SOL     OW 3307   0.319   0.810   8.397
  978SOL    HW1 3308   0.412   0.846   8.402
  978SOL    HW2 3309   0.313   0.725   8.449
  979SOL     OW 3310   0.339   0.509   8.454
  979SOL    HW1 3311   0.287   0.426   8.437
  979SOL    HW2 3312   0.416   0.514   8.390
  980SOL     OW 3313   1.138   0.380   9.126
  980SOL    HW1 3314   1.093   0.443   9.190
  980SOL    HW2 3315   1.231   0.411   9.109
  981SOL     OW 3316   1.160   0.207   8.925
  981SOL    HW1 3317   1.160   0.271   9.002
  981SOL    HW2 3318   1.188   0.255   8.842
  982SOL     OW 3319   0.008   1.326   7.648
  982SOL    HW1 3320  -0.085   1.347   7.617
  982SOL    HW2 3321   0.018   1.227   7.661
  983SOL     OW 3322   0.088   1.801   8.375
  983SOL    HW1 3323   0.046   1.715   8.348
  983SOL    HW2 3324   0.182   1.804   8.341
  984SOL     OW 3325   0.504   1.568   8.358
  984SOL    HW1 3326   0.570   1.642   8.367
  984SOL    HW2 3327   0.548   1.489   8.316
  985SOL     OW 3328   1.002   0.796   8.686
  985SOL    HW1 3329   1.043   0.764   8.772
  985SOL    HW2 3330   0.906   0.769   8.683
  986SOL     OW 3331   0.040   0.544   8.562
  986SOL    HW1 3332   0.125   0.511   8.521
  986SOL    HW2 3333   0.053   0.559   8.660
  987SOL     OW 3334   0.189   0.520   9.170
  987SOL    HW1 3335   0.248   0.480   9.100
  987SOL    HW2 3336   0.131   0.591   9.129
  988SOL     OW 3337   1.369   0.950   9.108
  988SOL    HW1 3338   1.408   1.039   9.128
  988SOL    HW2 3339   1.379   0.930   9.011
  989SOL     OW 3340   0.815   0.572   7.773
  989SOL    HW1 3341   0.822   0.483   7.727
  989SOL    HW2 3342   0.721   0.606   7.765
  990SOL     OW 3343   1.657   0.604   8.654
  990SOL    HW1 3344   1.619   0.535   8.716
  990SOL    HW2 3345   1.739   0.568   8.610
  991SOL     OW 3346   0.252   1.564   9.192
  991SOL    HW1 3347   0.222   1.621   9.268
  991SOL    HW2 3348   0.245   1.467   9.218
  992SOL     OW 3349   0.671   0.464   8.717
  992SOL    HW1 3350   0.637   0.375   8.687
  992SOL    HW2 3351   0.697   0.518   8.637
  993SOL     OW 3352   0.930   1.678   8.913
  993SOL    HW1 3353   0.906   1.660   8.818
  993SOL    HW2 3354   0.960   1.772   8.923
  994SOL     OW 3355   0.473   0.500   7.639
  994SOL    HW1 3356   0.534   0.580   7.643
  994SOL    HW2 3357   0.378   0.531   7.646
  995SOL     OW 3358   0.159   1.137   8.914
  995SOL    HW1 3359   0.181   1.076   8.990
  995SOL    HW2 3360   0.169   1.088   8.828
  996SOL     OW 3361   1.347   1.059   8.682
  996SOL    HW1 3362   1.371   0.996   8.608
  996SOL    HW2 3363   1.257   1.099   8.664
  997SOL     OW 3364   1.302   0.855   7.757
  997SOL    HW1 3365   1.216   0.824   7.799
  997SOL    HW2 3366   1.298   0.841   7.658
  998SOL     OW 3367   1.759   1.747   8.602
  998SOL    HW1 3368   1.820   1.777   8.529
  998SOL    HW2 3369   1.721   1.658   8.580
  999SOL     OW 3370   1.252   1.731   8.576
  999SOL    HW1 3371   1.336   1.736   8.522
  999SOL    HW2 3372   1.229   1.635   8.594
 1000SOL     OW 3373   0.083   1.258   8.470
 1000SOL    HW1 3374   0.078   1.257   8.570
 1000SOL    HW2 3375   0.000   1.217   8.432
 1001SOL     OW 3376   0.688   1.662   9.164
 1001SOL    HW1 3377   0.632   1.743   9.173
 1001SOL    HW2 3378   0.740   1.666   9.078
 1002SOL     OW 3379   1.726   0.135   7.971
 1002SOL    HW1 3380   1.799   0.118   7.904
 1002SOL    HW2 3381   1.695   0.048   8.009
 1003SOL     OW 3382   1.388   1.573   7.925
 1003SOL    HW1 3383   1.455   1.585   7.851
 1003SOL    HW2 3384   1.348   1.662   7.948
 1004SOL     OW 3385   0.130   1.794   9.299
 1004SOL    HW1 3386   0.089   1.720   9.352
 1004SOL    HW2 3387   0.194   1.845   9.357
 1005SOL     OW 3388   1.280   0.927   8.120
 1005SOL    HW1 3389   1.340   0.846   8.122
 1005SOL    HW2 3390   1.320   0.996   8.060
 1006SOL     OW 3391   0.830   1.273   8.870
 1006SOL    HW1 3392   0.825   1.306   8.965
 1006SOL    HW2 3393   0.744   1.292   8.824
 1007SOL     OW 3394   0.672   1.616   7.602
 1007SOL    HW1 3395   0.681   1.626   7.503
 1007SOL    HW2 3396   0.632   1.527   7.623
 1008SOL     OW 3397   1.650   1.720   8.842
 1008SOL    HW1 3398   1.703   1.730   8.758
 1008SOL    HW2 3399   1.623   1.810   8.876
 1009SOL     OW 3400   1.841   0.175   8.411
 1009SOL    HW1 3401   1.880   0.090   8.375
 1009SOL    HW2 3402   1.743   0.177   8.392
 1010SOL     OW 3403   0.263   0.326   8.168
 1010SOL    HW1 3404   0.184   0.377   8.134
 1010SOL    HW2 3405   0.254   0.311   8.266
 1011SOL     OW 3406   1.194   1.612   7.479
 1011SOL    HW1 3407   1.200   1.519   7.516
 1011SOL    HW2 3408   1.135   1.612   7.399
 1012SOL     OW 3409   0.822   1.002   8.820
 1012SOL    HW1 3410   0.862   1.001   8.728
 1012SOL    HW2 3411   0.832   1.094   8.860
 1013SOL     OW 3412   0.916   0.910   7.739
 1013SOL    HW1 3413   0.979   0.948   7.671
 1013SOL    HW2 3414   0.956   0.827   7.778
 1014SOL     OW 3415   1.504   1.607   7.492
 1014SOL    HW1 3416   1.412   1.644   7.499
 1014SOL    HW2 3417   1.542   1.627   7.402
 1015SOL     OW 3418   0.372   1.288   8.938
 1015SOL    HW1 3419   0.359   1.381   8.904
 1015SOL    HW2 3420   0.288   1.236   8.925
 1016SOL     OW 3421   1.614   1.292   8.737
 1016SOL    HW1 3422   1.674   1.295   8.817
 1016SOL    HW2 3423   1.539   1.356   8.750
 1017SOL     OW 3424   1.039   1.098   8.144
 1017SOL    HW1 3425   0.969   1.051   8.198
 1017SOL    HW2 3426   1.098   1.030   8.101
 1018SOL     OW 3427   1.014   0.236   8.419
 1018SOL    HW1 3428   1.006   0.200   8.326
 1018SOL    HW2 3429   1.012   0.160   8.484
 1019SOL     OW 3430   0.590   1.487   7.939
 1019SOL    HW1 3431   0.632   1.429   7.869
 1019SOL    HW2 3432   0.546   1.566   7.895
 1020SOL     OW 3433   1.709   0.385   8.829
 1020SOL    HW1 3434   1.782   0.454   8.833
 1020SOL    HW2 3435   1.737   0.310   8.770
 1021SOL     OW 3436   0.255   1.348   7.738
 1021SOL    HW1 3437   0.159   1.349   7.711
 1021SOL    HW2 3438   0.267   1.401   7.822
 1022SOL     OW 3439   0.105   1.013   9.174
 1022SOL    HW1 3440   0.028   0.980   9.228
 1022SOL    HW2 3441   0.190   0.983   9.216
 1023SOL     OW 3442   0.672   0.203   8.937
 1023SOL    HW1 3443   0.762   0.187   8.897
 1023SOL    HW2 3444   0.680   0.208   9.036
 1024SOL     OW 3445   0.075   0.345   7.481
 1024SOL    HW1 3446  -0.017   0.317   7.452
 1024SOL    HW2 3447   0.106   0.422   7.425
 1025SOL     OW 3448   1.440   0.856   8.846
 1025SOL    HW1 3449   1.383   0.908   8.783
 1025SOL    HW2 3450   1.536   0.868   8.822
 1026SOL     OW 3451   0.072   0.166   7.766
 1026SOL    HW1 3452   0.055   0.249   7.712
 1026SOL    HW2 3453   0.162   0.129   7.744
 1027SOL     OW 3454   1.183   1.335   7.567
 1027SOL    HW1 3455   1.084   1.324   7.569
 1027SOL    HW2 3456   1.217   1.350   7.660
 1028SOL     OW 3457   0.613   0.842   8.879
 1028SOL    HW1 3458   0.669   0.923   8.862
 1028SOL    HW2 3459   0.672   0.762   8.882
 1029SOL     OW 3460   1.493   1.767   8.407
 1029SOL    HW1 3461   1.526   1.831   8.338
 1029SOL    HW2 3462   1.559   1.761   8.482
 1030SOL     OW 3463   0.716   0.565   9.156
 1030SOL    HW1 3464   0.735   0.630   9.230
 1030SOL    HW2 3465   0.776   0.485   9.165
 1031SOL     OW 3466   1.450   1.220   9.081
 1031SOL    HW1 3467   1.441   1.210   9.180
 1031SOL    HW2 3468   1.546   1.213   9.055
 1032SOL     OW 3469   0.390   1.741   9.008
 1032SOL    HW1 3470   0.299   1.782   9.006
 1032SOL    HW2 3471   0.383   1.647   9.040
 1033SOL     OW 3472   1.674   0.883   8.702
 1033SOL    HW1 3473   1.647   0.794   8.665
 1033SOL    HW2 3474   1.675   0.951   8.629
 1034SOL     OW 3475   1.225   0.325   7.897
 1034SOL    HW1 3476   1.290   0.251   7.886
 1034SOL    HW2 3477   1.245   0.375   7.981
 1035SOL     OW 3478   0.594   0.745   8.100
 1035SOL    HW1 3479   0.644   0.830   8.081
 1035SOL    HW2 3480   0.506   0.747   8.052
 1036SOL     OW 3481   1.777   0.342   9.090
 1036SOL    HW1 3482   1.760   0.373   8.996
 1036SOL    HW2 3483   1.693   0.305   9.128
 1037SOL     OW 3484   1.730   0.934   8.965
 1037SOL    HW1 3485   1.768   1.025   8.980
 1037SOL    HW2 3486   1.722   0.917   8.866
 1038SOL     OW 3487   0.859   1.374   7.464
 1038SOL    HW1 3488   0.813   1.389   7.552
 1038SOL    HW2 3489   0.903   1.459   7.434
 1039SOL     OW 3490   0.661   1.790   8.401
 1039SOL    HW1 3491   0.615   1.878   8.388
 1039SOL    HW2 3492   0.760   1.802   8.394
 1040SOL     OW 3493   0.859   0.956   8.309
 1040SOL    HW1 3494   0.913   0.887   8.357
 1040SOL    HW2 3495   0.827   1.025   8.375
 1041SOL     OW 3496   1.083   0.984   7.535
 1041SOL    HW1 3497   1.060   1.037   7.453
 1041SOL    HW2 3498   1.164   0.928   7.516
 1042SOL     OW 3499   1.861   1.569   8.299
 1042SOL    HW1 3500   1.790   1.557   8.229
 1042SOL    HW2 3501   1.862   1.490   8.359
 1043SOL     OW 3502   0.221   1.314   9.292
 1043SOL    HW1 3503   0.156   1.241   9.271
 1043SOL    HW2 3504   0.225   1.328   9.390
 1044SOL     OW 3505   0.079   1.240   8.101
 1044SOL    HW1 3506   0.078   1.193   8.189
 1044SOL    HW2 3507   0.161   1.212   8.050
 1045SOL     OW 3508   0.672   1.391   9.072
 1045SOL    HW1 3509   0.594   1.341   9.110
 1045SOL    HW2 3510   0.669   1.486   9.103
 1046SOL     OW 3511   1.824   0.192   8.675
 1046SOL    HW1 3512   1.820   0.102   8.719
 1046SOL    HW2 3513   1.827   0.181   8.576
 1047SOL     OW 3514   0.428   0.424   7.968
 1047SOL    HW1 3515   0.458   0.352   7.906
 1047SOL    HW2 3516   0.389   0.384   8.051
 1048SOL     OW 3517   1.705   1.487   8.552
 1048SOL    HW1 3518   1.612   1.462   8.525
 1048SOL    HW2 3519   1.731   1.437   8.634
 1049SOL     OW 3520   0.317   0.547   8.728
 1049SOL    HW1 3521   0.355   0.488   8.800
 1049SOL    HW2 3522   0.357   0.521   8.640
 1050SOL     OW 3523   0.812   1.586   8.135
 1050SOL    HW1 3524   0.844   1.596   8.041
 1050SOL    HW2 3525   0.733   1.524   8.137
 1051SOL     OW 3526   1.424   0.214   8.560
 1051SOL    HW1 3527   1.476   0.149   8.615
 1051SOL    HW2 3528   1.375   0.277   8.621
 1052SOL     OW 3529   1.001   0.034   8.602
 1052SOL    HW1 3530   0.938  -0.038   8.571
 1052SOL    HW2 3531   1.094  -0.002   8.602
 1053SOL     OW 3532   0.770   1.330   7.749
 1053SOL    HW1 3533   0.724   1.243   7.766
 1053SOL    HW2 3534   0.861   1.327   7.790
 1054SOL     OW 3535   0.618   1.567   8.732
 1054SOL    HW1 3536   0.613   1.649   8.789
 1054SOL    HW2 3537   0.707   1.564   8.687
 1055SOL     OW 3538   1.352   0.052   7.616
 1055SOL    HW1 3539   1.387   0.011   7.532
 1055SOL    HW2 3540   1.262   0.014   7.636
 1056SOL     OW 3541   1.300   0.453   8.139
 1056SOL    HW1 3542   1.241   0.533   8.143
 1056SOL    HW2 3543   1.315   0.418   8.232
 1057SOL     OW 3544   1.593   0.221   8.330
 1057SOL    HW1 3545   1.509   0.220   8.384
 1057SOL    HW2 3546   1.595   0.304   8.274
 1058SOL     OW 3547   0.039   1.077   7.748
 1058SOL    HW1 3548   0.138   1.066   7.739
 1058SOL    HW2 3549  -0.001   0.991   7.780
 1059SOL     OW 3550   0.875   1.646   7.785
 1059SOL    HW1 3551   0.798   1.611   7.731
 1059SOL    HW2 3552   0.843   1.717   7.847
 1060SOL     OW 3553   0.230   0.628   9.423
 1060SOL    HW1 3554   0.137   0.626   9.460
 1060SOL    HW2 3555   0.231   0.589   9.331
 1061SOL     OW 3556   0.225   0.275  10.306
 1061SOL    HW1 3557   0.260   0.258  10.398
 1061SOL    HW2 3558   0.137   0.230  10.294
 1062SOL     OW 3559   0.019   0.368   9.957
 1062SOL    HW1 3560  -0.063   0.411   9.996
 1062SOL    HW2 3561  -0.009   0.295   9.894
 1063SOL     OW 3562   0.569   1.275  10.475
 1063SOL    HW1 3563   0.476   1.268  10.438
 1063SOL    HW2 3564   0.580   1.364  10.519
 1064SOL     OW 3565   1.555   1.511  10.013
 1064SOL    HW1 3566   1.498   1.495  10.094
 1064SOL    HW2 3567   1.496   1.521   9.933
 1065SOL     OW 3568   1.135   0.703  10.027
 1065SOL    HW1 3569   1.192   0.781  10.002
 1065SOL    HW2 3570   1.075   0.729  10.103
 1066SOL     OW 3571   1.755   0.607   9.541
 1066SOL    HW1 3572   1.743   0.594   9.442
 1066SOL    HW2 3573   1.725   0.526   9.590
 1067SOL     OW 3574   0.768   1.144  10.333
 1067SOL    HW1 3575   0.690   1.161  10.393
 1067SOL    HW2 3576   0.802   1.231  10.297
 1068SOL     OW 3577   0.850   0.798  11.133
 1068SOL    HW1 3578   0.846   0.874  11.198
 1068SOL    HW2 3579   0.872   0.834  11.042
 1069SOL     OW 3580   0.685   1.012   9.975
 1069SOL    HW1 3581   0.754   0.996  10.045
 1069SOL    HW2 3582   0.612   1.069  10.013
 1070SOL     OW 3583   0.335   1.435  10.371
 1070SOL    HW1 3584   0.257   1.404  10.318
 1070SOL    HW2 3585   0.393   1.493  10.314
 1071SOL     OW 3586   1.460   1.505  10.649
 1071SOL    HW1 3587   1.484   1.599  10.675
 1071SOL    HW2 3588   1.444   1.451  10.731
 1072SOL     OW 3589   0.438   0.392  10.809
 1072SOL    HW1 3590   0.520   0.336  10.818
 1072SOL    HW2 3591   0.357   0.334  10.813
 1073SOL     OW 3592   1.603   0.447  10.047
 1073SOL    HW1 3593   1.529   0.493   9.997
 1073SOL    HW2 3594   1.654   0.515  10.100
 1074SOL     OW 3595   0.231   1.713   9.793
 1074SOL    HW1 3596   0.265   1.790   9.847
 1074SOL    HW2 3597   0.275   1.713   9.703
 1075SOL     OW 3598   0.230   1.434   9.848
 1075SOL    HW1 3599   0.204   1.530   9.848
 1075SOL    HW2 3600   0.159   1.380   9.893
 1076SOL     OW 3601   0.240   1.091  10.196
 1076SOL    HW1 3602   0.254   1.007  10.248
 1076SOL    HW2 3603   0.185   1.155  10.251
 1077SOL     OW 3604   0.620   1.786  10.749
 1077SOL    HW1 3605   0.528   1.769  10.784
 1077SOL    HW2 3606   0.648   1.878  10.775
 1078SOL     OW 3607   0.606   0.964   9.433
 1078SOL    HW1 3608   0.613   1.048   9.379
 1078SOL    HW2 3609   0.652   0.977   9.521
 1079SOL     OW 3610   1.594   0.114  10.790
 1079SOL    HW1 3611   1.576   0.181  10.718
 1079SOL    HW2 3612   1.591   0.160  10.879
 1080SOL     OW 3613   0.122   0.643   9.873
 1080SOL    HW1 3614   0.077   0.555   9.890
 1080SOL    HW2 3615   0.121   0.697   9.957
 1081SOL     OW 3616   1.842   1.767   9.669
 1081SOL    HW1 3617   1.896   1.738   9.749
 1081SOL    HW2 3618   1.872   1.857   9.640
 1082SOL     OW 3619   0.027   1.596   9.427
 1082SOL    HW1 3620   0.008   1.500   9.448
 1082SOL    HW2 3621  -0.006   1.654   9.502
 1083SOL     OW 3622   1.689   0.922   9.922
 1083SOL    HW1 3623   1.784   0.893   9.930
 1083SOL    HW2 3624   1.681   0.987   9.847
 1084SOL     OW 3625   1.641   1.108   9.742
 1084SOL    HW1 3626   1.727   1.110   9.690
 1084SOL    HW2 3627   1.655   1.155   9.830
 1085SOL     OW 3628   0.113   0.737  10.907
 1085SOL    HW1 3629   0.201   0.724  10.952
 1085SOL    HW2 3630   0.100   0.834  10.885
 1086SOL     OW 3631   0.613   1.365  10.036
 1086SOL    HW1 3632   0.564   1.278  10.045
 1086SOL    HW2 3633   0.590   1.408   9.949
 1087SOL     OW 3634   1.293   1.228  10.733
 1087SOL    HW1 3635   1.330   1.155  10.675
 1087SOL    HW2 3636   1.345   1.233  10.818
 1088SOL     OW 3637   0.809   0.004   9.812
 1088SOL    HW1 3638   0.849   0.095   9.803
 1088SOL    HW2 3639   0.709   0.012   9.818
 1089SOL     OW 3640   0.197   0.976  10.574
 1089SOL    HW1 3641   0.286   0.931  10.560
 1089SOL    HW2 3642   0.124   0.911  10.555
 1090SOL     OW 3643   1.525   0.999   9.500
 1090SOL    HW1 3644   1.462   0.923   9.513
 1090SOL    HW2 3645   1.573   1.017   9.586
 1091SOL     OW 3646   1.187   1.792  10.926
 1091SOL    HW1 3647   1.211   1.852  10.850
 1091SOL    HW2 3648   1.194   1.697  10.896
 1092SOL     OW 3649   0.317   0.251  11.111
 1092SOL    HW1 3650   0.388   0.322  11.117
 1092SOL    HW2 3651   0.229   0.290  11.139
 1093SOL     OW 3652   1.466   1.417  10.263
 1093SOL    HW1 3653   1.407   1.423  10.343
 1093SOL    HW2 3654   1.451   1.329  10.217
 1094SOL     OW 3655   1.667   1.714   9.882
 1094SOL    HW1 3656   1.626   1.691   9.794
 1094SOL    HW2 3657   1.649   1.640   9.947
 1095SOL     OW 3658   0.598   0.729   9.580
 1095SOL    HW1 3659   0.622   0.798   9.512
 1095SOL    HW2 3660   0.520   0.762   9.634
 1096SOL     OW 3661   1.281   0.345  10.254
 1096SOL    HW1 3662   1.195   0.295  10.241
 1096SOL    HW2 3663   1.343   0.291  10.310
 1097SOL     OW 3664   1.576   1.662   9.617
 1097SOL    HW1 3665   1.665   1.708   9.620
 1097SOL    HW2 3666   1.555   1.638   9.522
 1098SOL     OW 3667   0.807   0.605  10.775
 1098SOL    HW1 3668   0.760   0.602  10.864
 1098SOL    HW2 3669   0.756   0.550  10.709
 1099SOL     OW 3670   0.973   0.890  10.882
 1099SOL    HW1 3671   1.019   0.806  10.853
 1099SOL    HW2 3672   0.917   0.924  10.807
 1100SOL     OW 3673   0.991   0.410  10.552
 1100SOL    HW1 3674   0.914   0.444  10.606
 1100SOL    HW2 3675   0.957   0.359  10.473
 1101SOL     OW 3676   1.041   0.701   9.739
 1101SOL    HW1 3677   1.067   0.697   9.835
 1101SOL    HW2 3678   0.956   0.650   9.725
 1102SOL     OW 3679   0.076   0.811  10.099
 1102SOL    HW1 3680   0.175   0.799  10.108
 1102SOL    HW2 3681   0.052   0.906  10.120
 1103SOL     OW 3682   0.130   1.821  10.881
 1103SOL    HW1 3683   0.120   1.806  10.980
 1103SOL    HW2 3684   0.044   1.857  10.845
 1104SOL     OW 3685   0.865   0.348   9.505
 1104SOL    HW1 3686   0.924   0.411   9.456
 1104SOL    HW2 3687   0.884   0.254   9.476
 1105SOL     OW 3688   1.362   1.144   9.855
 1105SOL    HW1 3689   1.445   1.115   9.807
 1105SOL    HW2 3690   1.313   1.211   9.799
 1106SOL     OW 3691   0.550   0.196  10.195
 1106SOL    HW1 3692   0.545   0.191  10.295
 1106SOL    HW2 3693   0.552   0.292  10.166
 1107SOL     OW 3694   1.008   1.456   9.787
 1107SOL    HW1 3695   0.962   1.528   9.735
 1107SOL    HW2 3696   1.004   1.476   9.885
 1108SOL     OW 3697   0.351   1.801  10.163
 1108SOL    HW1 3698   0.401   1.715  10.169
 1108SOL    HW2 3699   0.416   1.878  10.160
 1109SOL     OW 3700   1.795   1.066  10.183
 1109SOL    HW1 3701   1.733   1.051  10.107
 1109SOL    HW2 3702   1.743   1.077  10.268
 1110SOL     OW 3703   1.227   1.550  10.816
 1110SOL    HW1 3704   1.233   1.473  10.880
 1110SOL    HW2 3705   1.175   1.524  10.736
 1111SOL     OW 3706   0.321   0.943   9.552
 1111SOL    HW1 3707   0.403   0.982   9.510
 1111SOL    HW2 3708   0.294   0.861   9.503
 1112SOL     OW 3709   1.458   0.735  10.038
 1112SOL    HW1 3710   1.453   0.670  10.113
 1112SOL    HW2 3711   1.538   0.794  10.051
 1113SOL     OW 3712   0.461   1.266  11.037
 1113SOL    HW1 3713   0.411   1.267  10.951
 1113SOL    HW2 3714   0.398   1.248  11.113
 1114SOL     OW 3715   1.111   1.776   9.547
 1114SOL    HW1 3716   1.051   1.714   9.597
 1114SOL    HW2 3717   1.142   1.732   9.462
 1115SOL     OW 3718   0.202   0.285  10.808
 1115SOL    HW1 3719   0.122   0.345  10.795
 1115SOL    HW2 3720   0.192   0.236  10.894
 1116SOL     OW 3721   1.632   1.377   9.391
 1116SOL    HW1 3722   1.600   1.471   9.381
 1116SOL    HW2 3723   1.556   1.314   9.379
 1117SOL     OW 3724   0.464   1.743   9.633
 1117SOL    HW1 3725   0.497   1.782   9.719
 1117SOL    HW2 3726   0.540   1.736   9.568
 1118SOL     OW 3727   1.400   0.107   9.736
 1118SOL    HW1 3728   1.376   0.070   9.646
 1118SOL    HW2 3729   1.499   0.123   9.740
 1119SOL     OW 3730   0.249   1.785  10.551
 1119SOL    HW1 3731   0.306   1.720  10.601
 1119SOL    HW2 3732   0.233   1.752  10.458
 1120SOL     OW 3733   0.940   1.698  10.214
 1120SOL    HW1 3734   1.020   1.641  10.235
 1120SOL    HW2 3735   0.891   1.658  10.137
 1121SOL     OW 3736   0.382   0.700   9.790
 1121SOL    HW1 3737   0.427   0.610   9.787
 1121SOL    HW2 3738   0.288   0.689   9.823
 1122SOL     OW 3739   0.614   0.122   9.427
 1122SOL    HW1 3740   0.712   0.100   9.434
 1122SOL    HW2 3741   0.583   0.105   9.334
 1123SOL     OW 3742   0.781   0.264  11.059
 1123SOL    HW1 3743   0.848   0.203  11.102
 1123SOL    HW2 3744   0.708   0.283  11.124
 1124SOL     OW 3745   0.888   1.514  10.505
 1124SOL    HW1 3746   0.865   1.489  10.411
 1124SOL    HW2 3747   0.949   1.445  10.544
 1125SOL     OW 3748   1.351   0.590  10.743
 1125SOL    HW1 3749   1.379   0.547  10.828
 1125SOL    HW2 3750   1.376   0.686  10.744
 1126SOL     OW 3751   0.803   1.402  10.234
 1126SOL    HW1 3752   0.893   1.416  10.192
 1126SOL    HW2 3753   0.732   1.404  10.163
 1127SOL     OW 3754   0.922   0.503  10.209
 1127SOL    HW1 3755   0.897   0.494  10.113
 1127SOL    HW2 3756   0.970   0.421  10.240
 1128SOL     OW 3757   0.539   0.064   9.822
 1128SOL    HW1 3758   0.458   0.065   9.880
 1128SOL    HW2 3759   0.542   0.147   9.767
 1129SOL     OW 3760   1.434   1.188   9.351
 1129SOL    HW1 3761   1.466   1.112   9.408
 1129SOL    HW2 3762   1.342   1.215   9.381
 1130SOL     OW 3763   0.297   0.035   9.481
 1130SOL    HW1 3764   0.346   0.119   9.460
 1130SOL    HW2 3765   0.359  -0.030   9.526
 1131SOL     OW 3766   0.935   0.236   9.790
 1131SOL    HW1 3767   0.887   0.277   9.712
 1131SOL    HW2 3768   1.034   0.234   9.771
 1132SOL     OW 3769   1.076   0.683  10.774
 1132SOL    HW1 3770   0.996   0.622  10.777
 1132SOL    HW2 3771   1.157   0.630  10.750
 1133SOL     OW 3772   1.227   1.570  10.103
 1133SOL    HW1 3773   1.248   1.644  10.038
 1133SOL    HW2 3774   1.295   1.570  10.176
 1134SOL     OW 3775   0.459   1.152  10.051
 1134SOL    HW1 3776   0.388   1.125  10.116
 1134SOL    HW2 3777   0.433   1.124   9.958
 1135SOL     OW 3778   1.271   1.797   9.901
 1135SOL    HW1 3779   1.315   1.861   9.837
 1135SOL    HW2 3780   1.221   1.849   9.971
 1136SOL     OW 3781   1.032   0.549   9.326
 1136SOL    HW1 3782   0.991   0.631   9.287
 1136SOL    HW2 3783   1.096   0.575   9.399
 1137SOL     OW 3784   0.078   0.556  10.696
 1137SOL    HW1 3785   0.170   0.555  10.655
 1137SOL    HW2 3786   0.072   0.630  10.763
 1138SOL     OW 3787   0.561   0.222  10.457
 1138SOL    HW1 3788   0.599   0.138  10.494
 1138SOL    HW2 3789   0.473   0.241  10.501
 1139SOL     OW 3790   0.866   0.454   9.952
 1139SOL    HW1 3791   0.834   0.526   9.890
 1139SOL    HW2 3792   0.890   0.373   9.899
 1140SOL     OW 3793   1.017   0.039  10.063
 1140SOL    HW1 3794   0.945   0.044   9.994
 1140SOL    HW2 3795   0.993  -0.030  10.132
 1141SOL     OW 3796   1.429   1.173  10.177
 1141SOL    HW1 3797   1.374   1.089  10.170
 1141SOL    HW2 3798   1.455   1.202  10.085
 1142SOL     OW 3799   1.466   0.590  10.302
 1142SOL    HW1 3800   1.436   0.495  10.309
 1142SOL    HW2 3801   1.539   0.606  10.368
 1143SOL     OW 3802   1.857   0.833   9.687
 1143SOL    HW1 3803   1.899   0.769   9.751
 1143SOL    HW2 3804   1.819   0.782   9.609
 1144SOL     OW 3805   0.488   1.385   9.484
 1144SOL    HW1 3806   0.401   1.370   9.531
 1144SOL    HW2 3807   0.471   1.411   9.389
 1145SOL     OW 3808   1.664   1.280   9.967
 1145SOL    HW1 3809   1.763   1.288   9.981
 1145SOL    HW2 3810   1.619   1.364   9.998
 1146SOL     OW 3811   1.390   0.575   9.388
 1146SOL    HW1 3812   1.336   0.554   9.469
 1146SOL    HW2 3813   1.481   0.534   9.397
 1147SOL     OW 3814   0.527   0.256   9.638
 1147SOL    HW1 3815   0.554   0.197   9.563
 1147SOL    HW2 3816   0.527   0.351   9.607
 1148SOL     OW 3817   1.754   1.223  10.898
 1148SOL    HW1 3818   1.845   1.184  10.885
 1148SOL    HW2 3819   1.762   1.319  10.922
 1149SOL     OW 3820   1.064   1.347  10.650
 1149SOL    HW1 3821   0.984   1.324  10.705
 1149SOL    HW2 3822   1.147   1.321  10.699
 1150SOL     OW 3823   1.111   1.195  10.410
 1150SOL    HW1 3824   1.071   1.239  10.491
 1150SOL    HW2 3825   1.070   1.232  10.327
 1151SOL     OW 3826   1.638   1.099  10.389
 1151SOL    HW1 3827   1.643   1.180  10.448
 1151SOL    HW2 3828   1.552   1.101  10.338
 1152SOL     OW 3829   0.915   0.089  10.712
 1152SOL    HW1 3830   0.940   0.069  10.617
 1152SOL    HW2 3831   0.987   0.145  10.754
 1153SOL     OW 3832   0.705   1.050   9.678
 1153SOL    HW1 3833   0.691   1.057   9.777
 1153SOL    HW2 3834   0.789   0.999   9.660
 1154SOL     OW 3835   0.410   0.813  10.561
 1154SOL    HW1 3836   0.496   0.825  10.611
 1154SOL    HW2 3837   0.368   0.726  10.588
 1155SOL     OW 3838   1.274   0.386  10.572
 1155SOL    HW1 3839   1.295   0.460  10.636
 1155SOL    HW2 3840   1.185   0.403  10.529
 1156SOL     OW 3841   0.064   1.564  10.641
 1156SOL    HW1 3842   0.018   1.646  10.607
 1156SOL    HW2 3843   0.162   1.583  10.650
 1157SOL     OW 3844   0.367   1.100   9.811
 1157SOL    HW1 3845   0.360   1.183   9.755
 1157SOL    HW2 3846   0.371   1.020   9.751
 1158SOL     OW 3847   0.566   0.537  10.175
 1158SOL    HW1 3848   0.578   0.603  10.101
 1158SOL    HW2 3849   0.612   0.571  10.258
 1159SOL     OW 3850   1.252   1.348   9.698
 1159SOL    HW1 3851   1.302   1.425   9.738
 1159SOL    HW2 3852   1.157   1.350   9.730
 1160SOL     OW 3853   1.272   1.445  10.452
 1160SOL    HW1 3854   1.319   1.458  10.539
 1160SOL    HW2 3855   1.206   1.371  10.461
 1161SOL     OW 3856   1.582   0.639   9.782
 1161SOL    HW1 3857   1.551   0.700   9.855
 1161SOL    HW2 3858   1.632   0.691   9.713
 1162SOL     OW 3859   0.354   1.510  10.639
 1162SOL    HW1 3860   0.333   1.466  10.552
 1162SOL    HW2 3861   0.451   1.536  10.642
 1163SOL     OW 3862   0.402   0.751  10.908
 1163SOL    HW1 3863   0.470   0.806  10.861
 1163SOL    HW2 3864   0.442   0.663  10.935
 1164SOL     OW 3865   1.587   0.779  10.980
 1164SOL    HW1 3866   1.495   0.817  10.975
 1164SOL    HW2 3867   1.647   0.826  10.915
 1165SOL     OW 3868   0.573   0.870  10.339
 1165SOL    HW1 3869   0.617   0.959  10.330
 1165SOL    HW2 3870   0.510   0.870  10.416
 1166SOL     OW 3871   1.360   0.862  10.355
 1166SOL    HW1 3872   1.285   0.862  10.289
 1166SOL    HW2 3873   1.397   0.770  10.364
 1167SOL     OW 3874   1.209   0.525   9.585
 1167SOL    HW1 3875   1.222   0.441   9.639
 1167SOL    HW2 3876   1.180   0.599   9.645
 1168SOL     OW 3877   0.307   0.213  10.541
 1168SOL    HW1 3878   0.284   0.250  10.631
 1168SOL    HW2 3879   0.277   0.118  10.535
 1169SOL     OW 3880   0.037   1.310  10.592
 1169SOL    HW1 3881   0.090   1.261  10.660
 1169SOL    HW2 3882   0.059   1.408  10.597
 1170SOL     OW 3883   0.732   0.634  10.374
 1170SOL    HW1 3884   0.791   0.608  10.298
 1170SOL    HW2 3885   0.704   0.730  10.363
 1171SOL     OW 3886   0.307   0.063   9.928
 1171SOL    HW1 3887   0.296   0.157   9.961
 1171SOL    HW2 3888   0.302   0.000  10.005
 1172SOL     OW 3889   1.622   0.367   9.684
 1172SOL    HW1 3890   1.624   0.291   9.748
 1172SOL    HW2 3891   1.574   0.444   9.724
 1173SOL     OW 3892   1.023   0.766  10.276
 1173SOL    HW1 3893   1.038   0.787  10.372
 1173SOL    HW2 3894   0.993   0.671  10.267
 1174SOL     OW 3895   0.980   1.573  11.010
 1174SOL    HW1 3896   0.960   1.617  10.922
 1174SOL    HW2 3897   1.019   1.482  10.994
 1175SOL     OW 3898   1.859   1.518  10.915
 1175SOL    HW1 3899   1.873   1.545  10.820
 1175SOL    HW2 3900   1.942   1.540  10.968
 1176SOL     OW 3901   0.350   0.898  11.114
 1176SOL    HW1 3902   0.426   0.942  11.162
 1176SOL    HW2 3903   0.385   0.851  11.032
 1177SOL     OW 3904   1.540   0.274   9.435
 1177SOL    HW1 3905   1.479   0.199   9.458
 1177SOL    HW2 3906   1.562   0.326   9.518
 1178SOL     OW 3907   1.303   0.838   9.352
 1178SOL    HW1 3908   1.337   0.745   9.367
 1178SOL    HW2 3909   1.321   0.865   9.257
 1179SOL     OW 3910   1.068   1.333  10.159
 1179SOL    HW1 3911   1.075   1.249  10.104
 1179SOL    HW2 3912   1.130   1.402  10.123
 1180SOL     OW 3913   0.319   0.810  10.259
 1180SOL    HW1 3914   0.412   0.846  10.264
 1180SOL    HW2 3915   0.313   0.725  10.311
 1181SOL     OW 3916   0.339   0.509  10.316
 1181SOL    HW1 3917   0.287   0.426  10.299
 1181SOL    HW2 3918   0.416   0.514  10.252
 1182SOL     OW 3919   1.160   0.207  10.787
 1182SOL    HW1 3920   1.160   0.271  10.864
 1182SOL    HW2 3921   1.188   0.255  10.704
 1183SOL     OW 3922   0.008   1.326   9.510
 1183SOL    HW1 3923  -0.085   1.347   9.479
 1183SOL    HW2 3924   0.018   1.227   9.523
 1184SOL     OW 3925   0.088   1.801  10.237
 1184SOL    HW1 3926   0.046   1.715  10.210
 1184SOL    HW2 3927   0.182   1.804  10.203
 1185SOL     OW 3928   0.504   1.568  10.220
 1185SOL    HW1 3929   0.570   1.642  10.229
 1185SOL    HW2 3930   0.548   1.489  10.178
 1186SOL     OW 3931   1.002   0.796  10.548
 1186SOL    HW1 3932   1.043   0.764  10.634
 1186SOL    HW2 3933   0.906   0.769  10.545
 1187SOL     OW 3934   0.040   0.544  10.424
 1187SOL    HW1 3935   0.125   0.511  10.383
 1187SOL    HW2 3936   0.053   0.559  10.522
 1188SOL     OW 3937   0.815   0.572   9.635
 1188SOL    HW1 3938   0.822   0.483   9.589
 1188SOL    HW2 3939   0.721   0.606   9.627
 1189SOL     OW 3940   1.657   0.604  10.516
 1189SOL    HW1 3941   1.619   0.535  10.578
 1189SOL    HW2 3942   1.739   0.568  10.472
 1190SOL     OW 3943   0.252   1.564  11.054
 1190SOL    HW1 3944   0.222   1.621  11.130
 1190SOL    HW2 3945   0.245   1.467  11.080
 1191SOL     OW 3946   0.671   0.464  10.579
 1191SOL    HW1 3947   0.637   0.375  10.549
 1191SOL    HW2 3948   0.697   0.518  10.499
 1192SOL     OW 3949   0.930   1.678  10.775
 1192SOL    HW1 3950   0.906   1.660  10.680
 1192SOL    HW2 3951   0.960   1.772  10.785
 1193SOL     OW 3952   0.473   0.500   9.501
 1193SOL    HW1 3953   0.534   0.580   9.505
 1193SOL    HW2 3954   0.378   0.531   9.508
 1194SOL     OW 3955   0.159   1.137  10.776
 1194SOL    HW1 3956   0.181   1.076  10.852
 1194SOL    HW2 3957   0.169   1.088  10.690
 1195SOL     OW 3958   1.347   1.059  10.544
 1195SOL    HW1 3959   1.371   0.996  10.470
 1195SOL    HW2 3960   1.257   1.099  10.526
 1196SOL     OW 3961   1.302   0.855   9.619
 1196SOL    HW1 3962   1.216   0.824   9.661
 1196SOL    HW2 3963   1.298   0.841   9.520
 1197SOL     OW 3964   1.759   1.747  10.464
 1197SOL    HW1 3965   1.820   1.777  10.391
 1197SOL    HW2 3966   1.721   1.658  10.442
 1198SOL     OW 3967   1.252   1.731  10.438
 1198SOL    HW1 3968   1.336   1.736  10.384
 1198SOL    HW2 3969   1.229   1.635  10.456
 1199SOL     OW 3970   0.083   1.258  10.332
 1199SOL    HW1 3971   0.078   1.257  10.432
 1199SOL    HW2 3972   0.000   1.217  10.294
 1200SOL     OW 3973   1.726   0.135   9.833
 1200SOL    HW1 3974   1.799   0.118   9.766
 1200SOL    HW2 3975   1.695   0.048   9.871
 1201SOL     OW 3976   1.388   1.573   9.787
 1201SOL    HW1 3977   1.455   1.585   9.713
 1201SOL    HW2 3978   1.348   1.662   9.810
 1202SOL     OW 3979   1.280   0.927   9.982
 1202SOL    HW1 3980   1.340   0.846   9.984
 1202SOL    HW2 3981   1.320   0.996   9.922
 1203SOL     OW 3982   0.830   1.273  10.732
 1203SOL    HW1 3983   0.825   1.306  10.827
 1203SOL    HW2 3984   0.744   1.292  10.686
 1204SOL     OW 3985   0.672   1.616   9.464
 1204SOL    HW1 3986   0.681   1.626   9.365
 1204SOL    HW2 3987   0.632   1.527   9.485
 1205SOL     OW 3988   1.650   1.720  10.704
 1205SOL    HW1 3989   1.703   1.730  10.620
 1205SOL    HW2 3990   1.623   1.810  10.738
 1206SOL     OW 3991   1.841   0.175  10.273
 1206SOL    HW1 3992   1.880   0.090  10.237
 1206SOL    HW2 3993   1.743   0.177  10.254
 1207SOL     OW 3994   0.263   0.326  10.030
 1207SOL    HW1 3995   0.184   0.377   9.996
 1207SOL    HW2 3996   0.254   0.311  10.128
 1208SOL     OW 3997   1.194   1.612   9.341
 1208SOL    HW1 3998   1.200   1.519   9.378
 1208SOL    HW2 3999   1.135   1.612   9.261
 1209SOL     OW 4000   0.822   1.002  10.682
 1209SOL    HW1 4001   0.862   1.001  10.590
 1209SOL    HW2 4002   0.832   1.094  10.722
 1210SOL     OW 4003   0.916   0.910   9.601
 1210SOL    HW1 4004   0.979   0.948   9.533
 1210SOL    HW2 4005   0.956   0.827   9.640
 1211SOL     OW 4006   1.504   1.607   9.354
 1211SOL    HW1 4007   1.412   1.644   9.361
 1211SOL    HW2 4008   1.542   1.627   9.264
 1212SOL     OW 4009   0.372   1.288  10.800
 1212SOL    HW1 4010   0.359   1.381  10.766
 1212SOL    HW2 4011   0.288   1.236  10.787
 1213SOL     OW 4012   1.614   1.292  10.599
 1213SOL    HW1 4013   1.674   1.295  10.679
 1213SOL    HW2 4014   1.539   1.356  10.612
 1214SOL     OW 4015   1.039   1.098  10.006
 1214SOL    HW1 4016   0.969   1.051  10.060
 1214SOL    HW2 4017   1.098   1.030   9.963
 1215SOL     OW 4018   1.014   0.236  10.281
 1215SOL    HW1 4019   1.006   0.200  10.188
 1215SOL    HW2 4020   1.012   0.160  10.346
 1216SOL     OW 4021   0.590   1.487   9.801
 1216SOL    HW1 4022   0.632   1.429   9.731
 1216SOL    HW2 4023   0.546   1.566   9.757
 1217SOL     OW 4024   1.709   0.385  10.691
 1217SOL    HW1 4025   1.782   0.454  10.695
 1217SOL    HW2 4026   1.737   0.310  10.632
 1218SOL     OW 4027   0.255   1.348   9.600
 1218SOL    HW1 4028   0.159   1.349   9.573
 1218SOL    HW2 4029   0.267   1.401   9.684
 1219SOL     OW 4030   0.105   1.013  11.036
 1219SOL    HW1 4031   0.028   0.980  11.090
 1219SOL    HW2 4032   0.190   0.983  11.078
 1220SOL     OW 4033   0.672   0.203  10.799
 1220SOL    HW1 4034   0.762   0.187  10.759
 1220SOL    HW2 4035   0.680   0.208  10.898
 1221SOL     OW 4036   0.075   0.345   9.343
 1221SOL    HW1 4037  -0.017   0.317   9.314
 1221SOL    HW2 4038   0.106   0.422   9.287
 1222SOL     OW 4039   1.440   0.856  10.708
 1222SOL    HW1 4040   1.383   0.908  10.645
 1222SOL    HW2 4041   1.536   0.868  10.684
 1223SOL     OW 4042   0.072   0.166   9.628
 1223SOL    HW1 4043   0.055   0.249   9.574
 1223SOL    HW2 4044   0.162   0.129   9.606
 1224SOL     OW 4045   1.183   1.335   9.429
 1224SOL    HW1 4046   1.084   1.324   9.431
 1224SOL    HW2 4047   1.217   1.350   9.522
 1225SOL     OW 4048   0.613   0.842  10.741
 1225SOL    HW1 4049   0.669   0.923  10.724
 1225SOL    HW2 4050   0.672   0.762  10.744
 1226SOL     OW 4051   1.493   1.767  10.269
 1226SOL    HW1 4052   1.526   1.831  10.200
 1226SOL    HW2 4053   1.559   1.761  10.344
 1227SOL     OW 4054   0.716   0.565  11.018
 1227SOL    HW1 4055   0.735   0.630  11.092
 1227SOL    HW2 4056   0.776   0.485  11.027
 1228SOL     OW 4057   0.390   1.741  10.870
 1228SOL    HW1 4058   0.299   1.782  10.868
 1228SOL    HW2 4059   0.383   1.647  10.902
 1229SOL     OW 4060   1.674   0.883  10.564
 1229SOL    HW1 4061   1.647   0.794  10.527
 1229SOL    HW2 4062   1.675   0.951  10.491
 1230SOL     OW 4063   1.225   0.325   9.759
 1230SOL    HW1 4064   1.290   0.251   9.748
 1230SOL    HW2 4065   1.245   0.375   9.843
 1231SOL     OW 4066   0.594   0.745   9.962
 1231SOL    HW1 4067   0.644   0.830   9.943
 1231SOL    HW2 4068   0.506   0.747   9.914
 1232SOL     OW 4069   1.777   0.342  10.952
 1232SOL    HW1 4070   1.760   0.373  10.858
 1232SOL    HW2 4071   1.693   0.305  10.990
 1233SOL     OW 4072   1.730   0.934  10.827
 1233SOL    HW1 4073   1.768   1.025  10.842
 1233SOL    HW2 4074   1.722   0.917  10.728
 1234SOL     OW 4075   0.859   1.374   9.326
 1234SOL    HW1 4076   0.813   1.389   9.414
 1234SOL    HW2 4077   0.903   1.459   9.296
 1235SOL     OW 4078   0.661   1.790  10.263
 1235SOL    HW1 4079   0.615   1.878  10.250
 1235SOL    HW2 4080   0.760   1.802  10.256
 1236SOL     OW 4081   0.859   0.956  10.171
 1236SOL    HW1 4082   0.913   0.887  10.219
 1236SOL    HW2 4083   0.827   1.025  10.237
 1237SOL     OW 4084   1.083   0.984   9.397
 1237SOL    HW1 4085   1.060   1.037   9.315
 1237SOL    HW2 4086   1.164   0.928   9.378
 1238SOL     OW 4087   1.861   1.569  10.161
 1238SOL    HW1 4088   1.790   1.557  10.091
 1238SOL    HW2 4089   1.862   1.490  10.221
 1239SOL     OW 4090   0.079   1.240   9.963
 1239SOL    HW1 4091   0.078   1.193  10.051
 1239SOL    HW2 4092   0.161   1.212   9.912
 1240SOL     OW 4093   0.672   1.391  10.934
 1240SOL    HW1 4094   0.594   1.341  10.972
 1240SOL    HW2 4095   0.669   1.486  10.965
 1241SOL     OW 4096   1.824   0.192  10.537
 1241SOL    HW1 4097   1.820   0.102  10.581
 1241SOL    HW2 4098   1.827   0.181  10.438
 1242SOL     OW 4099   0.428   0.424   9.830
 1242SOL    HW1 4100   0.458   0.352   9.768
 1242SOL    HW2 4101   0.389   0.384   9.913
 1243SOL     OW 4102   1.705   1.487  10.414
 1243SOL    HW1 4103   1.612   1.462  10.387
 1243SOL    HW2 4104   1.731   1.437  10.496
 1244SOL     OW 4105   0.317   0.547  10.590
 1244SOL    HW1 4106   0.355   0.488  10.662
 1244SOL    HW2 4107   0.357   0.521  10.502
 1245SOL     OW 4108   0.812   1.586   9.997
 1245SOL    HW1 4109   0.844   1.596   9.903
 1245SOL    HW2 4110   0.733   1.524   9.999
 1246SOL     OW 4111   1.424   0.214  10.422
 1246SOL    HW1 4112   1.476   0.149  10.477
 1246SOL    HW2 4113   1.375   0.277  10.483
 1247SOL     OW 4114   1.001   0.034  10.464
 1247SOL    HW1 4115   0.938  -0.038  10.433
 1247SOL    HW2 4116   1.094  -0.002  10.464
 1248SOL     OW 4117   0.770   1.330   9.611
 1248SOL    HW1 4118   0.724   1.243   9.628
 1248SOL    HW2 4119   0.861   1.327   9.652
 1249SOL     OW 4120   0.618   1.567  10.594
 1249SOL    HW1 4121   0.613   1.649  10.651
 1249SOL    HW2 4122   0.707   1.564  10.549
 1250SOL     OW 4123   1.352   0.052   9.478
 1250SOL    HW1 4124   1.387   0.011   9.394
 1250SOL    HW2 4125   1.262   0.014   9.498
 1251SOL     OW 4126   1.300   0.453  10.001
 1251SOL    HW1 4127   1.241   0.533  10.005
 1251SOL    HW2 4128   1.315   0.418  10.094
 1252SOL     OW 4129   1.593   0.221  10.192
 1252SOL    HW1 4130   1.509   0.220  10.246
 1252SOL    HW2 4131   1.595   0.304  10.136
 1253SOL     OW 4132   0.039   1.077   9.610
 1253SOL    HW1 4133   0.138   1.066   9.601
 1253SOL    HW2 4134  -0.001   0.991   9.642
 1254SOL     OW 4135   0.875   1.646   9.647
 1254SOL    HW1 4136   0.798   1.611   9.593
 1254SOL    HW2 4137   0.843   1.717   9.709
 1255SOL     OW 4138   0.230   2.490   0.113
 1255SOL    HW1 4139   0.137   2.488   0.150
 1255SOL    HW2 4140   0.231   2.451   0.021
 1256SOL     OW 4141   0.225   2.137   0.996
 1256SOL    HW1 4142   0.260   2.120   1.088
 1256SOL    HW2 4143   0.137   2.092   0.984
 1257SOL     OW 4144   0.019   2.230   0.647
 1257SOL    HW1 4145  -0.063   2.273   0.686
 1257SOL    HW2 4146  -0.009   2.157   0.584
 1258SOL     OW 4147   0.569   3.137   1.165
 1258SOL    HW1 4148   0.476   3.130   1.128
 1258SOL    HW2 4149   0.580   3.226   1.209
 1259SOL     OW 4150   1.555   3.373   0.703
 1259SOL    HW1 4151   1.498   3.357   0.784
 1259SOL    HW2 4152   1.496   3.383   0.623
 1260SOL     OW 4153   1.135   2.565   0.717
 1260SOL    HW1 4154   1.192   2.643   0.692
 1260SOL    HW2 4155   1.075   2.591   0.793
 1261SOL     OW 4156   1.755   2.469   0.231
 1261SOL    HW1 4157   1.743   2.456   0.132
 1261SOL    HW2 4158   1.725   2.388   0.280
 1262SOL     OW 4159   0.768   3.006   1.023
 1262SOL    HW1 4160   0.690   3.023   1.083
 1262SOL    HW2 4161   0.802   3.093   0.987
 1263SOL     OW 4162   0.850   2.660   1.823
 1263SOL    HW1 4163   0.846   2.736   1.888
 1263SOL    HW2 4164   0.872   2.696   1.732
 1264SOL     OW 4165   0.685   2.874   0.665
 1264SOL    HW1 4166   0.754   2.858   0.735
 1264SOL    HW2 4167   0.612   2.931   0.703
 1265SOL     OW 4168   0.686   3.023   1.803
 1265SOL    HW1 4169   0.746   3.102   1.817
 1265SOL    HW2 4170   0.600   3.054   1.762
 1266SOL     OW 4171   0.335   3.297   1.061
 1266SOL    HW1 4172   0.257   3.266   1.008
 1266SOL    HW2 4173   0.393   3.355   1.004
 1267SOL     OW 4174   1.460   3.367   1.339
 1267SOL    HW1 4175   1.484   3.461   1.365
 1267SOL    HW2 4176   1.444   3.313   1.421
 1268SOL     OW 4177   0.438   2.254   1.499
 1268SOL    HW1 4178   0.520   2.198   1.508
 1268SOL    HW2 4179   0.357   2.196   1.503
 1269SOL     OW 4180   1.603   2.309   0.737
 1269SOL    HW1 4181   1.529   2.355   0.687
 1269SOL    HW2 4182   1.654   2.377   0.790
 1270SOL     OW 4183   0.231   3.575   0.483
 1270SOL    HW1 4184   0.265   3.652   0.537
 1270SOL    HW2 4185   0.275   3.575   0.393
 1271SOL     OW 4186   1.127   3.203   1.690
 1271SOL    HW1 4187   1.174   3.203   1.778
 1271SOL    HW2 4188   1.079   3.116   1.679
 1272SOL     OW 4189   0.230   3.296   0.538
 1272SOL    HW1 4190   0.204   3.392   0.538
 1272SOL    HW2 4191   0.159   3.242   0.583
 1273SOL     OW 4192   0.240   2.953   0.886
 1273SOL    HW1 4193   0.254   2.869   0.938
 1273SOL    HW2 4194   0.185   3.017   0.941
 1274SOL     OW 4195   0.620   3.648   1.439
 1274SOL    HW1 4196   0.528   3.631   1.474
 1274SOL    HW2 4197   0.648   3.740   1.465
 1275SOL     OW 4198   0.606   2.826   0.123
 1275SOL    HW1 4199   0.613   2.910   0.069
 1275SOL    HW2 4200   0.652   2.839   0.211
 1276SOL     OW 4201   1.594   1.976   1.480
 1276SOL    HW1 4202   1.576   2.043   1.408
 1276SOL    HW2 4203   1.591   2.022   1.569
 1277SOL     OW 4204   0.122   2.505   0.563
 1277SOL    HW1 4205   0.077   2.417   0.580
 1277SOL    HW2 4206   0.121   2.559   0.647
 1278SOL     OW 4207   1.842   3.629   0.359
 1278SOL    HW1 4208   1.896   3.600   0.439
 1278SOL    HW2 4209   1.872   3.719   0.330
 1279SOL     OW 4210   0.027   3.458   0.117
 1279SOL    HW1 4211   0.008   3.362   0.138
 1279SOL    HW2 4212  -0.006   3.516   0.192
 1280SOL     OW 4213   1.689   2.784   0.612
 1280SOL    HW1 4214   1.784   2.755   0.620
 1280SOL    HW2 4215   1.681   2.849   0.537
 1281SOL     OW 4216   1.641   2.970   0.432
 1281SOL    HW1 4217   1.727   2.972   0.380
 1281SOL    HW2 4218   1.655   3.017   0.520
 1282SOL     OW 4219   0.113   2.599   1.597
 1282SOL    HW1 4220   0.201   2.586   1.642
 1282SOL    HW2 4221   0.100   2.696   1.575
 1283SOL     OW 4222   0.613   3.227   0.726
 1283SOL    HW1 4223   0.564   3.140   0.735
 1283SOL    HW2 4224   0.590   3.270   0.639
 1284SOL     OW 4225   1.293   3.090   1.423
 1284SOL    HW1 4226   1.330   3.017   1.365
 1284SOL    HW2 4227   1.345   3.095   1.508
 1285SOL     OW 4228   0.809   1.866   0.502
 1285SOL    HW1 4229   0.849   1.957   0.493
 1285SOL    HW2 4230   0.709   1.874   0.508
 1286SOL     OW 4231   0.197   2.838   1.264
 1286SOL    HW1 4232   0.286   2.793   1.250
 1286SOL    HW2 4233   0.124   2.773   1.245
 1287SOL     OW 4234   1.525   2.861   0.190
 1287SOL    HW1 4235   1.462   2.785   0.203
 1287SOL    HW2 4236   1.573   2.879   0.276
 1288SOL     OW 4237   1.187   3.654   1.616
 1288SOL    HW1 4238   1.211   3.714   1.540
 1288SOL    HW2 4239   1.194   3.559   1.586
 1289SOL     OW 4240   0.317   2.113   1.801
 1289SOL    HW1 4241   0.388   2.184   1.807
 1289SOL    HW2 4242   0.229   2.152   1.829
 1290SOL     OW 4243   1.466   3.279   0.953
 1290SOL    HW1 4244   1.407   3.285   1.033
 1290SOL    HW2 4245   1.451   3.191   0.907
 1291SOL     OW 4246   1.667   3.576   0.572
 1291SOL    HW1 4247   1.626   3.553   0.484
 1291SOL    HW2 4248   1.649   3.502   0.637
 1292SOL     OW 4249   0.598   2.591   0.270
 1292SOL    HW1 4250   0.622   2.660   0.202
 1292SOL    HW2 4251   0.520   2.624   0.324
 1293SOL     OW 4252   1.281   2.207   0.944
 1293SOL    HW1 4253   1.195   2.157   0.931
 1293SOL    HW2 4254   1.343   2.153   1.000
 1294SOL     OW 4255   1.576   3.524   0.307
 1294SOL    HW1 4256   1.665   3.570   0.310
 1294SOL    HW2 4257   1.555   3.500   0.212
 1295SOL     OW 4258   0.807   2.467   1.465
 1295SOL    HW1 4259   0.760   2.464   1.554
 1295SOL    HW2 4260   0.756   2.412   1.399
 1296SOL     OW 4261   1.394   2.331   1.674
 1296SOL    HW1 4262   1.374   2.374   1.762
 1296SOL    HW2 4263   1.472   2.269   1.683
 1297SOL     OW 4264   0.973   2.752   1.572
 1297SOL    HW1 4265   1.019   2.668   1.543
 1297SOL    HW2 4266   0.917   2.786   1.497
 1298SOL     OW 4267   0.991   2.272   1.242
 1298SOL    HW1 4268   0.914   2.306   1.296
 1298SOL    HW2 4269   0.957   2.221   1.163
 1299SOL     OW 4270   1.041   2.563   0.429
 1299SOL    HW1 4271   1.067   2.559   0.525
 1299SOL    HW2 4272   0.956   2.512   0.415
 1300SOL     OW 4273   0.076   2.673   0.789
 1300SOL    HW1 4274   0.175   2.661   0.798
 1300SOL    HW2 4275   0.052   2.768   0.810
 1301SOL     OW 4276   0.130   3.683   1.571
 1301SOL    HW1 4277   0.120   3.668   1.670
 1301SOL    HW2 4278   0.044   3.719   1.535
 1302SOL     OW 4279   0.865   2.210   0.195
 1302SOL    HW1 4280   0.924   2.273   0.146
 1302SOL    HW2 4281   0.884   2.116   0.166
 1303SOL     OW 4282   1.719   2.447   1.831
 1303SOL    HW1 4283   1.693   2.536   1.795
 1303SOL    HW2 4284   1.717   2.379   1.758
 1304SOL     OW 4285   1.362   3.006   0.545
 1304SOL    HW1 4286   1.445   2.977   0.497
 1304SOL    HW2 4287   1.313   3.073   0.489
 1305SOL     OW 4288   0.550   2.058   0.885
 1305SOL    HW1 4289   0.545   2.053   0.985
 1305SOL    HW2 4290   0.552   2.154   0.856
 1306SOL     OW 4291   1.008   3.318   0.477
 1306SOL    HW1 4292   0.962   3.390   0.425
 1306SOL    HW2 4293   1.004   3.338   0.575
 1307SOL     OW 4294   0.351   3.663   0.853
 1307SOL    HW1 4295   0.401   3.577   0.859
 1307SOL    HW2 4296   0.416   3.740   0.850
 1308SOL     OW 4297   1.795   2.928   0.873
 1308SOL    HW1 4298   1.733   2.913   0.797
 1308SOL    HW2 4299   1.743   2.939   0.958
 1309SOL     OW 4300   1.227   3.412   1.506
 1309SOL    HW1 4301   1.233   3.335   1.570
 1309SOL    HW2 4302   1.175   3.386   1.426
 1310SOL     OW 4303   0.321   2.805   0.242
 1310SOL    HW1 4304   0.403   2.844   0.200
 1310SOL    HW2 4305   0.294   2.723   0.193
 1311SOL     OW 4306   1.458   2.597   0.728
 1311SOL    HW1 4307   1.453   2.532   0.803
 1311SOL    HW2 4308   1.538   2.656   0.741
 1312SOL     OW 4309   0.461   3.128   1.727
 1312SOL    HW1 4310   0.411   3.129   1.641
 1312SOL    HW2 4311   0.398   3.110   1.803
 1313SOL     OW 4312   1.111   3.638   0.237
 1313SOL    HW1 4313   1.051   3.576   0.287
 1313SOL    HW2 4314   1.142   3.594   0.152
 1314SOL     OW 4315   0.202   2.147   1.498
 1314SOL    HW1 4316   0.122   2.207   1.485
 1314SOL    HW2 4317   0.192   2.098   1.584
 1315SOL     OW 4318   1.632   3.239   0.081
 1315SOL    HW1 4319   1.600   3.333   0.071
 1315SOL    HW2 4320   1.556   3.176   0.069
 1316SOL     OW 4321   0.464   3.605   0.323
 1316SOL    HW1 4322   0.497   3.644   0.409
 1316SOL    HW2 4323   0.540   3.598   0.258
 1317SOL     OW 4324   1.400   1.969   0.426
 1317SOL    HW1 4325   1.376   1.932   0.336
 1317SOL    HW2 4326   1.499   1.985   0.430
 1318SOL     OW 4327   0.249   3.647   1.241
 1318SOL    HW1 4328   0.306   3.582   1.291
 1318SOL    HW2 4329   0.233   3.614   1.148
 1319SOL     OW 4330   0.940   3.560   0.904
 1319SOL    HW1 4331   1.020   3.503   0.925
 1319SOL    HW2 4332   0.891   3.520   0.827
 1320SOL     OW 4333   0.382   2.562   0.480
 1320SOL    HW1 4334   0.427   2.472   0.477
 1320SOL    HW2 4335   0.288   2.551   0.513
 1321SOL     OW 4336   1.547   2.084   1.729
 1321SOL    HW1 4337   1.542   2.121   1.821
 1321SOL    HW2 4338   1.475   2.015   1.717
 1322SOL     OW 4339   0.614   1.984   0.117
 1322SOL    HW1 4340   0.712   1.962   0.124
 1322SOL    HW2 4341   0.583   1.967   0.024
 1323SOL     OW 4342   0.781   2.126   1.749
 1323SOL    HW1 4343   0.848   2.065   1.792
 1323SOL    HW2 4344   0.708   2.145   1.814
 1324SOL     OW 4345   0.888   3.376   1.195
 1324SOL    HW1 4346   0.865   3.351   1.101
 1324SOL    HW2 4347   0.949   3.307   1.234
 1325SOL     OW 4348   1.351   2.452   1.433
 1325SOL    HW1 4349   1.379   2.409   1.518
 1325SOL    HW2 4350   1.376   2.548   1.434
 1326SOL     OW 4351   0.803   3.264   0.924
 1326SOL    HW1 4352   0.893   3.278   0.882
 1326SOL    HW2 4353   0.732   3.266   0.853
 1327SOL     OW 4354   0.922   2.365   0.899
 1327SOL    HW1 4355   0.897   2.356   0.803
 1327SOL    HW2 4356   0.970   2.283   0.930
 1328SOL     OW 4357   0.539   1.926   0.512
 1328SOL    HW1 4358   0.458   1.927   0.570
 1328SOL    HW2 4359   0.542   2.009   0.457
 1329SOL     OW 4360   1.434   3.050   0.041
 1329SOL    HW1 4361   1.466   2.974   0.098
 1329SOL    HW2 4362   1.342   3.077   0.071
 1330SOL     OW 4363   0.297   1.897   0.171
 1330SOL    HW1 4364   0.346   1.981   0.150
 1330SOL    HW2 4365   0.359   1.832   0.216
 1331SOL     OW 4366   0.935   2.098   0.480
 1331SOL    HW1 4367   0.887   2.139   0.402
 1331SOL    HW2 4368   1.034   2.096   0.461
 1332SOL     OW 4369   1.076   2.545   1.464
 1332SOL    HW1 4370   0.996   2.484   1.467
 1332SOL    HW2 4371   1.157   2.492   1.440
 1333SOL     OW 4372   1.227   3.432   0.793
 1333SOL    HW1 4373   1.248   3.506   0.728
 1333SOL    HW2 4374   1.295   3.432   0.866
 1334SOL     OW 4375   0.459   3.014   0.741
 1334SOL    HW1 4376   0.388   2.987   0.806
 1334SOL    HW2 4377   0.433   2.986   0.648
 1335SOL     OW 4378   1.271   3.659   0.591
 1335SOL    HW1 4379   1.315   3.723   0.527
 1335SOL    HW2 4380   1.221   3.711   0.661
 1336SOL     OW 4381   1.032   2.411   0.016
 1336SOL    HW1 4382   0.991   2.493  -0.023
 1336SOL    HW2 4383   1.096   2.437   0.089
 1337SOL     OW 4384   0.078   2.418   1.386
 1337SOL    HW1 4385   0.170   2.417   1.345
 1337SOL    HW2 4386   0.072   2.492   1.453
 1338SOL     OW 4387   0.561   2.084   1.147
 1338SOL    HW1 4388   0.599   2.000   1.184
 1338SOL    HW2 4389   0.473   2.103   1.191
 1339SOL     OW 4390   0.866   2.316   0.642
 1339SOL    HW1 4391   0.834   2.388   0.580
 1339SOL    HW2 4392   0.890   2.235   0.589
 1340SOL     OW 4393   1.017   1.901   0.753
 1340SOL    HW1 4394   0.945   1.906   0.684
 1340SOL    HW2 4395   0.993   1.832   0.822
 1341SOL     OW 4396   1.429   3.035   0.867
 1341SOL    HW1 4397   1.374   2.951   0.860
 1341SOL    HW2 4398   1.455   3.064   0.775
 1342SOL     OW 4399   1.466   2.452   0.992
 1342SOL    HW1 4400   1.436   2.357   0.999
 1342SOL    HW2 4401   1.539   2.468   1.058
 1343SOL     OW 4402   1.857   2.695   0.377
 1343SOL    HW1 4403   1.899   2.631   0.441
 1343SOL    HW2 4404   1.819   2.644   0.299
 1344SOL     OW 4405   0.488   3.247   0.174
 1344SOL    HW1 4406   0.401   3.232   0.221
 1344SOL    HW2 4407   0.471   3.273   0.079
 1345SOL     OW 4408   1.664   3.142   0.657
 1345SOL    HW1 4409   1.763   3.150   0.671
 1345SOL    HW2 4410   1.619   3.226   0.688
 1346SOL     OW 4411   1.390   2.437   0.078
 1346SOL    HW1 4412   1.336   2.416   0.159
 1346SOL    HW2 4413   1.481   2.396   0.087
 1347SOL     OW 4414   0.527   2.118   0.328
 1347SOL    HW1 4415   0.554   2.059   0.253
 1347SOL    HW2 4416   0.527   2.213   0.297
 1348SOL     OW 4417   1.754   3.085   1.588
 1348SOL    HW1 4418   1.845   3.046   1.575
 1348SOL    HW2 4419   1.762   3.181   1.612
 1349SOL     OW 4420   1.064   3.209   1.340
 1349SOL    HW1 4421   0.984   3.186   1.395
 1349SOL    HW2 4422   1.147   3.183   1.389
 1350SOL     OW 4423   1.592   3.491   1.625
 1350SOL    HW1 4424   1.619   3.525   1.535
 1350SOL    HW2 4425   1.671   3.453   1.671
 1351SOL     OW 4426   1.111   3.057   1.100
 1351SOL    HW1 4427   1.071   3.101   1.181
 1351SOL    HW2 4428   1.070   3.094   1.017
 1352SOL     OW 4429   1.638   2.961   1.079
 1352SOL    HW1 4430   1.643   3.042   1.138
 1352SOL    HW2 4431   1.552   2.963   1.028
 1353SOL     OW 4432   0.915   1.951   1.402
 1353SOL    HW1 4433   0.940   1.931   1.307
 1353SOL    HW2 4434   0.987   2.007   1.444
 1354SOL     OW 4435   0.980   2.978   1.719
 1354SOL    HW1 4436   0.881   2.984   1.729
 1354SOL    HW2 4437   1.003   2.898   1.663
 1355SOL     OW 4438   0.705   2.912   0.368
 1355SOL    HW1 4439   0.691   2.919   0.467
 1355SOL    HW2 4440   0.789   2.861   0.350
 1356SOL     OW 4441   0.410   2.675   1.251
 1356SOL    HW1 4442   0.496   2.687   1.301
 1356SOL    HW2 4443   0.368   2.588   1.278
 1357SOL     OW 4444   1.274   2.248   1.262
 1357SOL    HW1 4445   1.295   2.322   1.326
 1357SOL    HW2 4446   1.185   2.265   1.219
 1358SOL     OW 4447   0.064   3.426   1.331
 1358SOL    HW1 4448   0.018   3.508   1.297
 1358SOL    HW2 4449   0.162   3.445   1.340
 1359SOL     OW 4450   0.367   2.962   0.501
 1359SOL    HW1 4451   0.360   3.045   0.445
 1359SOL    HW2 4452   0.371   2.882   0.441
 1360SOL     OW 4453   0.566   2.399   0.865
 1360SOL    HW1 4454   0.578   2.465   0.791
 1360SOL    HW2 4455   0.612   2.433   0.948
 1361SOL     OW 4456   1.252   3.210   0.388
 1361SOL    HW1 4457   1.302   3.287   0.428
 1361SOL    HW2 4458   1.157   3.212   0.420
 1362SOL     OW 4459   1.272   3.307   1.142
 1362SOL    HW1 4460   1.319   3.320   1.229
 1362SOL    HW2 4461   1.206   3.233   1.151
 1363SOL     OW 4462   1.582   2.501   0.472
 1363SOL    HW1 4463   1.551   2.562   0.545
 1363SOL    HW2 4464   1.632   2.553   0.403
 1364SOL     OW 4465   0.354   3.372   1.329
 1364SOL    HW1 4466   0.333   3.328   1.242
 1364SOL    HW2 4467   0.451   3.398   1.332
 1365SOL     OW 4468   0.402   2.613   1.598
 1365SOL    HW1 4469   0.470   2.668   1.551
 1365SOL    HW2 4470   0.442   2.525   1.625
 1366SOL     OW 4471   1.587   2.641   1.670
 1366SOL    HW1 4472   1.495   2.679   1.665
 1366SOL    HW2 4473   1.647   2.688   1.605
 1367SOL     OW 4474   1.013   1.967   1.770
 1367SOL    HW1 4475   1.019   2.052   1.718
 1367SOL    HW2 4476   1.045   1.891   1.713
 1368SOL     OW 4477   0.504   1.912   1.740
 1368SOL    HW1 4478   0.462   1.855   1.670
 1368SOL    HW2 4479   0.438   1.981   1.772
 1369SOL     OW 4480   0.573   2.732   1.029
 1369SOL    HW1 4481   0.617   2.821   1.020
 1369SOL    HW2 4482   0.510   2.732   1.106
 1370SOL     OW 4483   1.360   2.724   1.045
 1370SOL    HW1 4484   1.285   2.724   0.979
 1370SOL    HW2 4485   1.397   2.632   1.054
 1371SOL     OW 4486   1.209   2.387   0.275
 1371SOL    HW1 4487   1.222   2.303   0.329
 1371SOL    HW2 4488   1.180   2.461   0.335
 1372SOL     OW 4489   0.307   2.075   1.231
 1372SOL    HW1 4490   0.284   2.112   1.321
 1372SOL    HW2 4491   0.277   1.980   1.225
 1373SOL     OW 4492   0.037   3.172   1.282
 1373SOL    HW1 4493   0.090   3.123   1.350
 1373SOL    HW2 4494   0.059   3.270   1.287
 1374SOL     OW 4495   0.732   2.496   1.064
 1374SOL    HW1 4496   0.791   2.470   0.988
 1374SOL    HW2 4497   0.704   2.592   1.053
 1375SOL     OW 4498   1.728   2.797   1.854
 1375SOL    HW1 4499   1.682   2.790   1.765
 1375SOL    HW2 4500   1.666   2.841   1.920
 1376SOL     OW 4501   0.307   1.925   0.618
 1376SOL    HW1 4502   0.296   2.019   0.651
 1376SOL    HW2 4503   0.302   1.862   0.695
 1377SOL     OW 4504   1.622   2.229   0.374
 1377SOL    HW1 4505   1.624   2.153   0.438
 1377SOL    HW2 4506   1.574   2.306   0.414
 1378SOL     OW 4507   1.023   2.628   0.966
 1378SOL    HW1 4508   1.038   2.649   1.062
 1378SOL    HW2 4509   0.993   2.533   0.957
 1379SOL     OW 4510   0.980   3.435   1.700
 1379SOL    HW1 4511   0.960   3.479   1.612
 1379SOL    HW2 4512   1.019   3.344   1.684
 1380SOL     OW 4513   1.859   3.380   1.605
 1380SOL    HW1 4514   1.873   3.407   1.510
 1380SOL    HW2 4515   1.942   3.402   1.658
 1381SOL     OW 4516   0.350   2.760   1.804
 1381SOL    HW1 4517   0.426   2.804   1.852
 1381SOL    HW2 4518   0.385   2.713   1.722
 1382SOL     OW 4519   1.540   2.136   0.125
 1382SOL    HW1 4520   1.479   2.061   0.148
 1382SOL    HW2 4521   1.562   2.188   0.208
 1383SOL     OW 4522   1.303   2.700   0.042
 1383SOL    HW1 4523   1.337   2.607   0.057
 1383SOL    HW2 4524   1.321   2.727  -0.053
 1384SOL     OW 4525   1.068   3.195   0.849
 1384SOL    HW1 4526   1.075   3.111   0.794
 1384SOL    HW2 4527   1.130   3.264   0.813
 1385SOL     OW 4528   0.319   2.672   0.949
 1385SOL    HW1 4529   0.412   2.708   0.954
 1385SOL    HW2 4530   0.313   2.587   1.001
 1386SOL     OW 4531   0.339   2.371   1.006
 1386SOL    HW1 4532   0.287   2.288   0.989
 1386SOL    HW2 4533   0.416   2.376   0.942
 1387SOL     OW 4534   1.138   2.242   1.678
 1387SOL    HW1 4535   1.093   2.305   1.742
 1387SOL    HW2 4536   1.231   2.273   1.661
 1388SOL     OW 4537   1.160   2.069   1.477
 1388SOL    HW1 4538   1.160   2.133   1.554
 1388SOL    HW2 4539   1.188   2.117   1.394
 1389SOL     OW 4540   0.008   3.188   0.200
 1389SOL    HW1 4541  -0.085   3.209   0.169
 1389SOL    HW2 4542   0.018   3.089   0.213
 1390SOL     OW 4543   0.088   3.663   0.927
 1390SOL    HW1 4544   0.046   3.577   0.900
 1390SOL    HW2 4545   0.182   3.666   0.893
 1391SOL     OW 4546   0.504   3.430   0.910
 1391SOL    HW1 4547   0.570   3.504   0.919
 1391SOL    HW2 4548   0.548   3.351   0.868
 1392SOL     OW 4549   1.002   2.658   1.238
 1392SOL    HW1 4550   1.043   2.626   1.324
 1392SOL    HW2 4551   0.906   2.631   1.235
 1393SOL     OW 4552   0.040   2.406   1.114
 1393SOL    HW1 4553   0.125   2.373   1.073
 1393SOL    HW2 4554   0.053   2.421   1.212
 1394SOL     OW 4555   0.189   2.382   1.722
 1394SOL    HW1 4556   0.248   2.342   1.652
 1394SOL    HW2 4557   0.131   2.453   1.681
 1395SOL     OW 4558   1.369   2.812   1.660
 1395SOL    HW1 4559   1.408   2.901   1.680
 1395SOL    HW2 4560   1.379   2.792   1.563
 1396SOL     OW 4561   0.815   2.434   0.325
 1396SOL    HW1 4562   0.822   2.345   0.279
 1396SOL    HW2 4563   0.721   2.468   0.317
 1397SOL     OW 4564   1.657   2.466   1.206
 1397SOL    HW1 4565   1.619   2.397   1.268
 1397SOL    HW2 4566   1.739   2.430   1.162
 1398SOL     OW 4567   0.252   3.426   1.744
 1398SOL    HW1 4568   0.222   3.483   1.820
 1398SOL    HW2 4569   0.245   3.329   1.770
 1399SOL     OW 4570   0.671   2.326   1.269
 1399SOL    HW1 4571   0.637   2.237   1.239
 1399SOL    HW2 4572   0.697   2.380   1.189
 1400SOL     OW 4573   0.930   3.540   1.465
 1400SOL    HW1 4574   0.906   3.522   1.370
 1400SOL    HW2 4575   0.960   3.634   1.475
 1401SOL     OW 4576   0.473   2.362   0.191
 1401SOL    HW1 4577   0.534   2.442   0.195
 1401SOL    HW2 4578   0.378   2.393   0.198
 1402SOL     OW 4579   0.159   2.999   1.466
 1402SOL    HW1 4580   0.181   2.938   1.542
 1402SOL    HW2 4581   0.169   2.950   1.380
 1403SOL     OW 4582   1.347   2.921   1.234
 1403SOL    HW1 4583   1.371   2.858   1.160
 1403SOL    HW2 4584   1.257   2.961   1.216
 1404SOL     OW 4585   1.302   2.717   0.309
 1404SOL    HW1 4586   1.216   2.686   0.351
 1404SOL    HW2 4587   1.298   2.703   0.210
 1405SOL     OW 4588   1.759   3.609   1.154
 1405SOL    HW1 4589   1.820   3.639   1.081
 1405SOL    HW2 4590   1.721   3.520   1.132
 1406SOL     OW 4591   1.252   3.593   1.128
 1406SOL    HW1 4592   1.336   3.598   1.074
 1406SOL    HW2 4593   1.229   3.497   1.146
 1407SOL     OW 4594   0.083   3.120   1.022
 1407SOL    HW1 4595   0.078   3.119   1.122
 1407SOL    HW2 4596   0.000   3.079   0.984
 1408SOL     OW 4597   0.688   3.524   1.716
 1408SOL    HW1 4598   0.632   3.605   1.725
 1408SOL    HW2 4599   0.740   3.528   1.630
 1409SOL     OW 4600   0.903   1.948   0.133
 1409SOL    HW1 4601   0.954   1.949   0.047
 1409SOL    HW2 4602   0.959   1.906   0.204
 1410SOL     OW 4603   1.726   1.997   0.523
 1410SOL    HW1 4604   1.799   1.980   0.456
 1410SOL    HW2 4605   1.695   1.910   0.561
 1411SOL     OW 4606   1.388   3.435   0.477
 1411SOL    HW1 4607   1.455   3.447   0.403
 1411SOL    HW2 4608   1.348   3.524   0.500
 1412SOL     OW 4609   0.130   3.656   1.851
 1412SOL    HW1 4610   0.089   3.582   1.904
 1412SOL    HW2 4611   0.194   3.707   1.909
 1413SOL     OW 4612   1.280   2.789   0.672
 1413SOL    HW1 4613   1.340   2.708   0.674
 1413SOL    HW2 4614   1.320   2.858   0.612
 1414SOL     OW 4615   0.830   3.135   1.422
 1414SOL    HW1 4616   0.825   3.168   1.517
 1414SOL    HW2 4617   0.744   3.154   1.376
 1415SOL     OW 4618   0.672   3.478   0.154
 1415SOL    HW1 4619   0.681   3.488   0.055
 1415SOL    HW2 4620   0.632   3.389   0.175
 1416SOL     OW 4621   1.650   3.582   1.394
 1416SOL    HW1 4622   1.703   3.592   1.310
 1416SOL    HW2 4623   1.623   3.672   1.428
 1417SOL     OW 4624   1.841   2.037   0.963
 1417SOL    HW1 4625   1.880   1.952   0.927
 1417SOL    HW2 4626   1.743   2.039   0.944
 1418SOL     OW 4627   0.263   2.188   0.720
 1418SOL    HW1 4628   0.184   2.239   0.686
 1418SOL    HW2 4629   0.254   2.173   0.818
 1419SOL     OW 4630   1.194   3.474   0.031
 1419SOL    HW1 4631   1.200   3.381   0.068
 1419SOL    HW2 4632   1.135   3.474  -0.049
 1420SOL     OW 4633   0.822   2.864   1.372
 1420SOL    HW1 4634   0.862   2.863   1.280
 1420SOL    HW2 4635   0.832   2.956   1.412
 1421SOL     OW 4636   0.916   2.772   0.291
 1421SOL    HW1 4637   0.979   2.810   0.223
 1421SOL    HW2 4638   0.956   2.689   0.330
 1422SOL     OW 4639   1.504   3.469   0.044
 1422SOL    HW1 4640   1.412   3.506   0.051
 1422SOL    HW2 4641   1.542   3.489  -0.046
 1423SOL     OW 4642   0.372   3.150   1.490
 1423SOL    HW1 4643   0.359   3.243   1.456
 1423SOL    HW2 4644   0.288   3.098   1.477
 1424SOL     OW 4645   1.614   3.154   1.289
 1424SOL    HW1 4646   1.674   3.157   1.369
 1424SOL    HW2 4647   1.539   3.218   1.302
 1425SOL     OW 4648   1.039   2.960   0.696
 1425SOL    HW1 4649   0.969   2.913   0.750
 1425SOL    HW2 4650   1.098   2.892   0.653
 1426SOL     OW 4651   1.014   2.098   0.971
 1426SOL    HW1 4652   1.006   2.062   0.878
 1426SOL    HW2 4653   1.012   2.022   1.036
 1427SOL     OW 4654   0.590   3.349   0.491
 1427SOL    HW1 4655   0.632   3.291   0.421
 1427SOL    HW2 4656   0.546   3.428   0.447
 1428SOL     OW 4657   1.709   2.247   1.381
 1428SOL    HW1 4658   1.782   2.316   1.385
 1428SOL    HW2 4659   1.737   2.172   1.322
 1429SOL     OW 4660   0.255   3.210   0.290
 1429SOL    HW1 4661   0.159   3.211   0.263
 1429SOL    HW2 4662   0.267   3.263   0.374
 1430SOL     OW 4663   0.105   2.875   1.726
 1430SOL    HW1 4664   0.028   2.842   1.780
 1430SOL    HW2 4665   0.190   2.845   1.768
 1431SOL     OW 4666   0.672   2.065   1.489
 1431SOL    HW1 4667   0.762   2.049   1.449
 1431SOL    HW2 4668   0.680   2.070   1.588
 1432SOL     OW 4669   0.075   2.207   0.033
 1432SOL    HW1 4670  -0.017   2.179   0.004
 1432SOL    HW2 4671   0.106   2.284  -0.023
 1433SOL     OW 4672   1.440   2.718   1.398
 1433SOL    HW1 4673   1.383   2.770   1.335
 1433SOL    HW2 4674   1.536   2.730   1.374
 1434SOL     OW 4675   0.072   2.028   0.318
 1434SOL    HW1 4676   0.055   2.111   0.264
 1434SOL    HW2 4677   0.162   1.991   0.296
 1435SOL     OW 4678   1.183   3.197   0.119
 1435SOL    HW1 4679   1.084   3.186   0.121
 1435SOL    HW2 4680   1.217   3.212   0.212
 1436SOL     OW 4681   0.613   2.704   1.431
 1436SOL    HW1 4682   0.669   2.785   1.414
 1436SOL    HW2 4683   0.672   2.624   1.434
 1437SOL     OW 4684   1.493   3.629   0.959
 1437SOL    HW1 4685   1.526   3.693   0.890
 1437SOL    HW2 4686   1.559   3.623   1.034
 1438SOL     OW 4687   0.716   2.427   1.708
 1438SOL    HW1 4688   0.735   2.492   1.782
 1438SOL    HW2 4689   0.776   2.347   1.717
 1439SOL     OW 4690   1.450   3.082   1.633
 1439SOL    HW1 4691   1.441   3.072   1.732
 1439SOL    HW2 4692   1.546   3.075   1.607
 1440SOL     OW 4693   0.390   3.603   1.560
 1440SOL    HW1 4694   0.299   3.644   1.558
 1440SOL    HW2 4695   0.383   3.509   1.592
 1441SOL     OW 4696   1.674   2.745   1.254
 1441SOL    HW1 4697   1.647   2.656   1.217
 1441SOL    HW2 4698   1.675   2.813   1.181
 1442SOL     OW 4699   1.225   2.187   0.449
 1442SOL    HW1 4700   1.290   2.113   0.438
 1442SOL    HW2 4701   1.245   2.237   0.533
 1443SOL     OW 4702   0.594   2.607   0.652
 1443SOL    HW1 4703   0.644   2.692   0.633
 1443SOL    HW2 4704   0.506   2.609   0.604
 1444SOL     OW 4705   1.777   2.204   1.642
 1444SOL    HW1 4706   1.760   2.235   1.548
 1444SOL    HW2 4707   1.693   2.167   1.680
 1445SOL     OW 4708   1.730   2.796   1.517
 1445SOL    HW1 4709   1.768   2.887   1.532
 1445SOL    HW2 4710   1.722   2.779   1.418
 1446SOL     OW 4711   0.859   3.236   0.016
 1446SOL    HW1 4712   0.813   3.251   0.104
 1446SOL    HW2 4713   0.903   3.321  -0.014
 1447SOL     OW 4714   0.661   3.652   0.953
 1447SOL    HW1 4715   0.615   3.740   0.940
 1447SOL    HW2 4716   0.760   3.664   0.946
 1448SOL     OW 4717   0.859   2.818   0.861
 1448SOL    HW1 4718   0.913   2.749   0.909
 1448SOL    HW2 4719   0.827   2.887   0.927
 1449SOL     OW 4720   1.083   2.846   0.087
 1449SOL    HW1 4721   1.060   2.899   0.005
 1449SOL    HW2 4722   1.164   2.790   0.068
 1450SOL     OW 4723   1.861   3.431   0.851
 1450SOL    HW1 4724   1.790   3.419   0.781
 1450SOL    HW2 4725   1.862   3.352   0.911
 1451SOL     OW 4726   0.221   3.176   1.844
 1451SOL    HW1 4727   0.156   3.103   1.823
 1451SOL    HW2 4728   0.225   3.190   1.942
 1452SOL     OW 4729   0.079   3.102   0.653
 1452SOL    HW1 4730   0.078   3.055   0.741
 1452SOL    HW2 4731   0.161   3.074   0.602
 1453SOL     OW 4732   0.672   3.253   1.624
 1453SOL    HW1 4733   0.594   3.203   1.662
 1453SOL    HW2 4734   0.669   3.348   1.655
 1454SOL     OW 4735   1.824   2.054   1.227
 1454SOL    HW1 4736   1.820   1.964   1.271
 1454SOL    HW2 4737   1.827   2.043   1.128
 1455SOL     OW 4738   0.428   2.286   0.520
 1455SOL    HW1 4739   0.458   2.214   0.458
 1455SOL    HW2 4740   0.389   2.246   0.603
 1456SOL     OW 4741   1.705   3.349   1.104
 1456SOL    HW1 4742   1.612   3.324   1.077
 1456SOL    HW2 4743   1.731   3.299   1.186
 1457SOL     OW 4744   0.317   2.409   1.280
 1457SOL    HW1 4745   0.355   2.350   1.352
 1457SOL    HW2 4746   0.357   2.383   1.192
 1458SOL     OW 4747   0.812   3.448   0.687
 1458SOL    HW1 4748   0.844   3.458   0.593
 1458SOL    HW2 4749   0.733   3.386   0.689
 1459SOL     OW 4750   1.424   2.076   1.112
 1459SOL    HW1 4751   1.476   2.011   1.167
 1459SOL    HW2 4752   1.375   2.139   1.173
 1460SOL     OW 4753   1.001   1.896   1.154
 1460SOL    HW1 4754   0.938   1.824   1.123
 1460SOL    HW2 4755   1.094   1.860   1.154
 1461SOL     OW 4756   0.770   3.192   0.301
 1461SOL    HW1 4757   0.724   3.105   0.318
 1461SOL    HW2 4758   0.861   3.189   0.342
 1462SOL     OW 4759   0.618   3.429   1.284
 1462SOL    HW1 4760   0.613   3.511   1.341
 1462SOL    HW2 4761   0.707   3.426   1.239
 1463SOL     OW 4762   1.352   1.914   0.168
 1463SOL    HW1 4763   1.387   1.873   0.084
 1463SOL    HW2 4764   1.262   1.876   0.188
 1464SOL     OW 4765   1.300   2.315   0.691
 1464SOL    HW1 4766   1.241   2.395   0.695
 1464SOL    HW2 4767   1.315   2.280   0.784
 1465SOL     OW 4768   1.593   2.083   0.882
 1465SOL    HW1 4769   1.509   2.082   0.936
 1465SOL    HW2 4770   1.595   2.166   0.826
 1466SOL     OW 4771   0.039   2.939   0.300
 1466SOL    HW1 4772   0.138   2.928   0.291
 1466SOL    HW2 4773  -0.001   2.853   0.332
 1467SOL     OW 4774   0.875   3.508   0.337
 1467SOL    HW1 4775   0.798   3.473   0.283
 1467SOL    HW2 4776   0.843   3.579   0.399
 1468SOL     OW 4777   0.230   2.490   1.975
 1468SOL    HW1 4778   0.137   2.488   2.012
 1468SOL    HW2 4779   0.231   2.451   1.883
 1469SOL     OW 4780   0.225   2.137   2.858
 1469SOL    HW1 4781   0.260   2.120   2.950
 1469SOL    HW2 4782   0.137   2.092   2.846
 1470SOL     OW 4783   0.019   2.230   2.509
 1470SOL    HW1 4784  -0.063   2.273   2.548
 1470SOL    HW2 4785  -0.009   2.157   2.446
 1471SOL     OW 4786   0.569   3.137   3.027
 1471SOL    HW1 4787   0.476   3.130   2.990
 1471SOL    HW2 4788   0.580   3.226   3.071
 1472SOL     OW 4789   1.555   3.373   2.565
 1472SOL    HW1 4790   1.498   3.357   2.646
 1472SOL    HW2 4791   1.496   3.383   2.485
 1473SOL     OW 4792   1.135   2.565   2.579
 1473SOL    HW1 4793   1.192   2.643   2.554
 1473SOL    HW2 4794   1.075   2.591   2.655
 1474SOL     OW 4795   1.755   2.469   2.093
 1474SOL    HW1 4796   1.743   2.456   1.994
 1474SOL    HW2 4797   1.725   2.388   2.142
 1475SOL     OW 4798   0.768   3.006   2.885
 1475SOL    HW1 4799   0.690   3.023   2.945
 1475SOL    HW2 4800   0.802   3.093   2.849
 1476SOL     OW 4801   0.850   2.660   3.685
 1476SOL    HW1 4802   0.846   2.736   3.750
 1476SOL    HW2 4803   0.872   2.696   3.594
 1477SOL     OW 4804   0.685   2.874   2.527
 1477SOL    HW1 4805   0.754   2.858   2.597
 1477SOL    HW2 4806   0.612   2.931   2.565
 1478SOL     OW 4807   0.686   3.023   3.665
 1478SOL    HW1 4808   0.746   3.102   3.679
 1478SOL    HW2 4809   0.600   3.054   3.624
 1479SOL     OW 4810   0.335   3.297   2.923
 1479SOL    HW1 4811   0.257   3.266   2.870
 1479SOL    HW2 4812   0.393   3.355   2.866
 1480SOL     OW 4813   1.460   3.367   3.201
 1480SOL    HW1 4814   1.484   3.461   3.227
 1480SOL    HW2 4815   1.444   3.313   3.283
 1481SOL     OW 4816   0.438   2.254   3.361
 1481SOL    HW1 4817   0.520   2.198   3.370
 1481SOL    HW2 4818   0.357   2.196   3.365
 1482SOL     OW 4819   1.603   2.309   2.599
 1482SOL    HW1 4820   1.529   2.355   2.549
 1482SOL    HW2 4821   1.654   2.377   2.652
 1483SOL     OW 4822   0.231   3.575   2.345
 1483SOL    HW1 4823   0.265   3.652   2.399
 1483SOL    HW2 4824   0.275   3.575   2.255
 1484SOL     OW 4825   1.127   3.203   3.552
 1484SOL    HW1 4826   1.174   3.203   3.640
 1484SOL    HW2 4827   1.079   3.116   3.541
 1485SOL     OW 4828   0.230   3.296   2.400
 1485SOL    HW1 4829   0.204   3.392   2.400
 1485SOL    HW2 4830   0.159   3.242   2.445
 1486SOL     OW 4831   0.240   2.953   2.748
 1486SOL    HW1 4832   0.254   2.869   2.800
 1486SOL    HW2 4833   0.185   3.017   2.803
 1487SOL     OW 4834   0.620   3.648   3.301
 1487SOL    HW1 4835   0.528   3.631   3.336
 1487SOL    HW2 4836   0.648   3.740   3.327
 1488SOL     OW 4837   0.606   2.826   1.985
 1488SOL    HW1 4838   0.613   2.910   1.931
 1488SOL    HW2 4839   0.652   2.839   2.073
 1489SOL     OW 4840   1.594   1.976   3.342
 1489SOL    HW1 4841   1.576   2.043   3.270
 1489SOL    HW2 4842   1.591   2.022   3.431
 1490SOL     OW 4843   0.122   2.505   2.425
 1490SOL    HW1 4844   0.077   2.417   2.442
 1490SOL    HW2 4845   0.121   2.559   2.509
 1491SOL     OW 4846   1.842   3.629   2.221
 1491SOL    HW1 4847   1.896   3.600   2.301
 1491SOL    HW2 4848   1.872   3.719   2.192
 1492SOL     OW 4849   0.027   3.458   1.979
 1492SOL    HW1 4850   0.008   3.362   2.000
 1492SOL    HW2 4851  -0.006   3.516   2.054
 1493SOL     OW 4852   1.689   2.784   2.474
 1493SOL    HW1 4853   1.784   2.755   2.482
 1493SOL    HW2 4854   1.681   2.849   2.399
 1494SOL     OW 4855   1.641   2.970   2.294
 1494SOL    HW1 4856   1.727   2.972   2.242
 1494SOL    HW2 4857   1.655   3.017   2.382
 1495SOL     OW 4858   0.113   2.599   3.459
 1495SOL    HW1 4859   0.201   2.586   3.504
 1495SOL    HW2 4860   0.100   2.696   3.437
 1496SOL     OW 4861   0.613   3.227   2.588
 1496SOL    HW1 4862   0.564   3.140   2.597
 1496SOL    HW2 4863   0.590   3.270   2.501
 1497SOL     OW 4864   1.293   3.090   3.285
 1497SOL    HW1 4865   1.330   3.017   3.227
 1497SOL    HW2 4866   1.345   3.095   3.370
 1498SOL     OW 4867   0.809   1.866   2.364
 1498SOL    HW1 4868   0.849   1.957   2.355
 1498SOL    HW2 4869   0.709   1.874   2.370
 1499SOL     OW 4870   0.197   2.838   3.126
 1499SOL    HW1 4871   0.286   2.793   3.112
 1499SOL    HW2 4872   0.124   2.773   3.107
 1500SOL     OW 4873   1.525   2.861   2.052
 1500SOL    HW1 4874   1.462   2.785   2.065
 1500SOL    HW2 4875   1.573   2.879   2.138
 1501SOL     OW 4876   1.187   3.654   3.478
 1501SOL    HW1 4877   1.211   3.714   3.402
 1501SOL    HW2 4878   1.194   3.559   3.448
 1502SOL     OW 4879   0.317   2.113   3.663
 1502SOL    HW1 4880   0.388   2.184   3.669
 1502SOL    HW2 4881   0.229   2.152   3.691
 1503SOL     OW 4882   1.466   3.279   2.815
 1503SOL    HW1 4883   1.407   3.285   2.895
 1503SOL    HW2 4884   1.451   3.191   2.769
 1504SOL     OW 4885   1.667   3.576   2.434
 1504SOL    HW1 4886   1.626   3.553   2.346
 1504SOL    HW2 4887   1.649   3.502   2.499
 1505SOL     OW 4888   0.598   2.591   2.132
 1505SOL    HW1 4889   0.622   2.660   2.064
 1505SOL    HW2 4890   0.520   2.624   2.186
 1506SOL     OW 4891   1.281   2.207   2.806
 1506SOL    HW1 4892   1.195   2.157   2.793
 1506SOL    HW2 4893   1.343   2.153   2.862
 1507SOL     OW 4894   1.576   3.524   2.169
 1507SOL    HW1 4895   1.665   3.570   2.172
 1507SOL    HW2 4896   1.555   3.500   2.074
 1508SOL     OW 4897   0.807   2.467   3.327
 1508SOL    HW1 4898   0.760   2.464   3.416
 1508SOL    HW2 4899   0.756   2.412   3.261
 1509SOL     OW 4900   1.394   2.331   3.536
 1509SOL    HW1 4901   1.374   2.374   3.624
 1509SOL    HW2 4902   1.472   2.269   3.545
 1510SOL     OW 4903   0.973   2.752   3.434
 1510SOL    HW1 4904   1.019   2.668   3.405
 1510SOL    HW2 4905   0.917   2.786   3.359
 1511SOL     OW 4906   0.991   2.272   3.104
 1511SOL    HW1 4907   0.914   2.306   3.158
 1511SOL    HW2 4908   0.957   2.221   3.025
 1512SOL     OW 4909   1.041   2.563   2.291
 1512SOL    HW1 4910   1.067   2.559   2.387
 1512SOL    HW2 4911   0.956   2.512   2.277
 1513SOL     OW 4912   0.076   2.673   2.651
 1513SOL    HW1 4913   0.175   2.661   2.660
 1513SOL    HW2 4914   0.052   2.768   2.672
 1514SOL     OW 4915   0.130   3.683   3.433
 1514SOL    HW1 4916   0.120   3.668   3.532
 1514SOL    HW2 4917   0.044   3.719   3.397
 1515SOL     OW 4918   0.865   2.210   2.057
 1515SOL    HW1 4919   0.924   2.273   2.008
 1515SOL    HW2 4920   0.884   2.116   2.028
 1516SOL     OW 4921   1.719   2.447   3.693
 1516SOL    HW1 4922   1.693   2.536   3.657
 1516SOL    HW2 4923   1.717   2.379   3.620
 1517SOL     OW 4924   1.362   3.006   2.407
 1517SOL    HW1 4925   1.445   2.977   2.359
 1517SOL    HW2 4926   1.313   3.073   2.351
 1518SOL     OW 4927   0.550   2.058   2.747
 1518SOL    HW1 4928   0.545   2.053   2.847
 1518SOL    HW2 4929   0.552   2.154   2.718
 1519SOL     OW 4930   1.008   3.318   2.339
 1519SOL    HW1 4931   0.962   3.390   2.287
 1519SOL    HW2 4932   1.004   3.338   2.437
 1520SOL     OW 4933   0.351   3.663   2.715
 1520SOL    HW1 4934   0.401   3.577   2.721
 1520SOL    HW2 4935   0.416   3.740   2.712
 1521SOL     OW 4936   1.795   2.928   2.735
 1521SOL    HW1 4937   1.733   2.913   2.659
 1521SOL    HW2 4938   1.743   2.939   2.820
 1522SOL     OW 4939   1.227   3.412   3.368
 1522SOL    HW1 4940   1.233   3.335   3.432
 1522SOL    HW2 4941   1.175   3.386   3.288
 1523SOL     OW 4942   0.321   2.805   2.104
 1523SOL    HW1 4943   0.403   2.844   2.062
 1523SOL    HW2 4944   0.294   2.723   2.055
 1524SOL     OW 4945   1.458   2.597   2.590
 1524SOL    HW1 4946   1.453   2.532   2.665
 1524SOL    HW2 4947   1.538   2.656   2.603
 1525SOL     OW 4948   0.461   3.128   3.589
 1525SOL    HW1 4949   0.411   3.129   3.503
 1525SOL    HW2 4950   0.398   3.110   3.665
 1526SOL     OW 4951   1.111   3.638   2.099
 1526SOL    HW1 4952   1.051   3.576   2.149
 1526SOL    HW2 4953   1.142   3.594   2.014
 1527SOL     OW 4954   0.202   2.147   3.360
 1527SOL    HW1 4955   0.122   2.207   3.347
 1527SOL    HW2 4956   0.192   2.098   3.446
 1528SOL     OW 4957   1.632   3.239   1.943
 1528SOL    HW1 4958   1.600   3.333   1.933
 1528SOL    HW2 4959   1.556   3.176   1.931
 1529SOL     OW 4960   0.464   3.605   2.185
 1529SOL    HW1 4961   0.497   3.644   2.271
 1529SOL    HW2 4962   0.540   3.598   2.120
 1530SOL     OW 4963   1.400   1.969   2.288
 1530SOL    HW1 4964   1.376   1.932   2.198
 1530SOL    HW2 4965   1.499   1.985   2.292
 1531SOL     OW 4966   0.249   3.647   3.103
 1531SOL    HW1 4967   0.306   3.582   3.153
 1531SOL    HW2 4968   0.233   3.614   3.010
 1532SOL     OW 4969   0.940   3.560   2.766
 1532SOL    HW1 4970   1.020   3.503   2.787
 1532SOL    HW2 4971   0.891   3.520   2.689
 1533SOL     OW 4972   0.382   2.562   2.342
 1533SOL    HW1 4973   0.427   2.472   2.339
 1533SOL    HW2 4974   0.288   2.551   2.375
 1534SOL     OW 4975   1.547   2.084   3.591
 1534SOL    HW1 4976   1.542   2.121   3.683
 1534SOL    HW2 4977   1.475   2.015   3.579
 1535SOL     OW 4978   0.614   1.984   1.979
 1535SOL    HW1 4979   0.712   1.962   1.986
 1535SOL    HW2 4980   0.583   1.967   1.886
 1536SOL     OW 4981   0.781   2.126   3.611
 1536SOL    HW1 4982   0.848   2.065   3.654
 1536SOL    HW2 4983   0.708   2.145   3.676
 1537SOL     OW 4984   0.888   3.376   3.057
 1537SOL    HW1 4985   0.865   3.351   2.963
 1537SOL    HW2 4986   0.949   3.307   3.096
 1538SOL     OW 4987   1.351   2.452   3.295
 1538SOL    HW1 4988   1.379   2.409   3.380
 1538SOL    HW2 4989   1.376   2.548   3.296
 1539SOL     OW 4990   0.803   3.264   2.786
 1539SOL    HW1 4991   0.893   3.278   2.744
 1539SOL    HW2 4992   0.732   3.266   2.715
 1540SOL     OW 4993   0.922   2.365   2.761
 1540SOL    HW1 4994   0.897   2.356   2.665
 1540SOL    HW2 4995   0.970   2.283   2.792
 1541SOL     OW 4996   0.539   1.926   2.374
 1541SOL    HW1 4997   0.458   1.927   2.432
 1541SOL    HW2 4998   0.542   2.009   2.319
 1542SOL     OW 4999   1.434   3.050   1.903
 1542SOL    HW1 5000   1.466   2.974   1.960
 1542SOL    HW2 5001   1.342   3.077   1.933
 1543SOL     OW 5002   0.297   1.897   2.033
 1543SOL    HW1 5003   0.346   1.981   2.012
 1543SOL    HW2 5004   0.359   1.832   2.078
 1544SOL     OW 5005   0.935   2.098   2.342
 1544SOL    HW1 5006   0.887   2.139   2.264
 1544SOL    HW2 5007   1.034   2.096   2.323
 1545SOL     OW 5008   1.076   2.545   3.326
 1545SOL    HW1 5009   0.996   2.484   3.329
 1545SOL    HW2 5010   1.157   2.492   3.302
 1546SOL     OW 5011   1.227   3.432   2.655
 1546SOL    HW1 5012   1.248   3.506   2.590
 1546SOL    HW2 5013   1.295   3.432   2.728
 1547SOL     OW 5014   0.459   3.014   2.603
 1547SOL    HW1 5015   0.388   2.987   2.668
 1547SOL    HW2 5016   0.433   2.986   2.510
 1548SOL     OW 5017   1.271   3.659   2.453
 1548SOL    HW1 5018   1.315   3.723   2.389
 1548SOL    HW2 5019   1.221   3.711   2.523
 1549SOL     OW 5020   1.032   2.411   1.878
 1549SOL    HW1 5021   0.991   2.493   1.839
 1549SOL    HW2 5022   1.096   2.437   1.951
 1550SOL     OW 5023   0.078   2.418   3.248
 1550SOL    HW1 5024   0.170   2.417   3.207
 1550SOL    HW2 5025   0.072   2.492   3.315
 1551SOL     OW 5026   0.561   2.084   3.009
 1551SOL    HW1 5027   0.599   2.000   3.046
 1551SOL    HW2 5028   0.473   2.103   3.053
 1552SOL     OW 5029   0.866   2.316   2.504
 1552SOL    HW1 5030   0.834   2.388   2.442
 1552SOL    HW2 5031   0.890   2.235   2.451
 1553SOL     OW 5032   1.017   1.901   2.615
 1553SOL    HW1 5033   0.945   1.906   2.546
 1553SOL    HW2 5034   0.993   1.832   2.684
 1554SOL     OW 5035   1.429   3.035   2.729
 1554SOL    HW1 5036   1.374   2.951   2.722
 1554SOL    HW2 5037   1.455   3.064   2.637
 1555SOL     OW 5038   1.466   2.452   2.854
 1555SOL    HW1 5039   1.436   2.357   2.861
 1555SOL    HW2 5040   1.539   2.468   2.920
 1556SOL     OW 5041   1.857   2.695   2.239
 1556SOL    HW1 5042   1.899   2.631   2.303
 1556SOL    HW2 5043   1.819   2.644   2.161
 1557SOL     OW 5044   0.488   3.247   2.036
 1557SOL    HW1 5045   0.401   3.232   2.083
 1557SOL    HW2 5046   0.471   3.273   1.941
 1558SOL     OW 5047   1.664   3.142   2.519
 1558SOL    HW1 5048   1.763   3.150   2.533
 1558SOL    HW2 5049   1.619   3.226   2.550
 1559SOL     OW 5050   1.390   2.437   1.940
 1559SOL    HW1 5051   1.336   2.416   2.021
 1559SOL    HW2 5052   1.481   2.396   1.949
 1560SOL     OW 5053   0.527   2.118   2.190
 1560SOL    HW1 5054   0.554   2.059   2.115
 1560SOL    HW2 5055   0.527   2.213   2.159
 1561SOL     OW 5056   1.754   3.085   3.450
 1561SOL    HW1 5057   1.845   3.046   3.437
 1561SOL    HW2 5058   1.762   3.181   3.474
 1562SOL     OW 5059   1.064   3.209   3.202
 1562SOL    HW1 5060   0.984   3.186   3.257
 1562SOL    HW2 5061   1.147   3.183   3.251
 1563SOL     OW 5062   1.592   3.491   3.487
 1563SOL    HW1 5063   1.619   3.525   3.397
 1563SOL    HW2 5064   1.671   3.453   3.533
 1564SOL     OW 5065   1.111   3.057   2.962
 1564SOL    HW1 5066   1.071   3.101   3.043
 1564SOL    HW2 5067   1.070   3.094   2.879
 1565SOL     OW 5068   1.638   2.961   2.941
 1565SOL    HW1 5069   1.643   3.042   3.000
 1565SOL    HW2 5070   1.552   2.963   2.890
 1566SOL     OW 5071   0.915   1.951   3.264
 1566SOL    HW1 5072   0.940   1.931   3.169
 1566SOL    HW2 5073   0.987   2.007   3.306
 1567SOL     OW 5074   0.980   2.978   3.581
 1567SOL    HW1 5075   0.881   2.984   3.591
 1567SOL    HW2 5076   1.003   2.898   3.525
 1568SOL     OW 5077   0.705   2.912   2.230
 1568SOL    HW1 5078   0.691   2.919   2.329
 1568SOL    HW2 5079   0.789   2.861   2.212
 1569SOL     OW 5080   0.410   2.675   3.113
 1569SOL    HW1 5081   0.496   2.687   3.163
 1569SOL    HW2 5082   0.368   2.588   3.140
 1570SOL     OW 5083   1.274   2.248   3.124
 1570SOL    HW1 5084   1.295   2.322   3.188
 1570SOL    HW2 5085   1.185   2.265   3.081
 1571SOL     OW 5086   0.064   3.426   3.193
 1571SOL    HW1 5087   0.018   3.508   3.159
 1571SOL    HW2 5088   0.162   3.445   3.202
 1572SOL     OW 5089   0.367   2.962   2.363
 1572SOL    HW1 5090   0.360   3.045   2.307
 1572SOL    HW2 5091   0.371   2.882   2.303
 1573SOL     OW 5092   0.566   2.399   2.727
 1573SOL    HW1 5093   0.578   2.465   2.653
 1573SOL    HW2 5094   0.612   2.433   2.810
 1574SOL     OW 5095   1.252   3.210   2.250
 1574SOL    HW1 5096   1.302   3.287   2.290
 1574SOL    HW2 5097   1.157   3.212   2.282
 1575SOL     OW 5098   1.272   3.307   3.004
 1575SOL    HW1 5099   1.319   3.320   3.091
 1575SOL    HW2 5100   1.206   3.233   3.013
 1576SOL     OW 5101   1.582   2.501   2.334
 1576SOL    HW1 5102   1.551   2.562   2.407
 1576SOL    HW2 5103   1.632   2.553   2.265
 1577SOL     OW 5104   0.354   3.372   3.191
 1577SOL    HW1 5105   0.333   3.328   3.104
 1577SOL    HW2 5106   0.451   3.398   3.194
 1578SOL     OW 5107   0.402   2.613   3.460
 1578SOL    HW1 5108   0.470   2.668   3.413
 1578SOL    HW2 5109   0.442   2.525   3.487
 1579SOL     OW 5110   1.587   2.641   3.532
 1579SOL    HW1 5111   1.495   2.679   3.527
 1579SOL    HW2 5112   1.647   2.688   3.467
 1580SOL     OW 5113   1.013   1.967   3.632
 1580SOL    HW1 5114   1.019   2.052   3.580
 1580SOL    HW2 5115   1.045   1.891   3.575
 1581SOL     OW 5116   0.504   1.912   3.602
 1581SOL    HW1 5117   0.462   1.855   3.532
 1581SOL    HW2 5118   0.438   1.981   3.634
 1582SOL     OW 5119   0.573   2.732   2.891
 1582SOL    HW1 5120   0.617   2.821   2.882
 1582SOL    HW2 5121   0.510   2.732   2.968
 1583SOL     OW 5122   1.360   2.724   2.907
 1583SOL    HW1 5123   1.285   2.724   2.841
 1583SOL    HW2 5124   1.397   2.632   2.916
 1584SOL     OW 5125   1.209   2.387   2.137
 1584SOL    HW1 5126   1.222   2.303   2.191
 1584SOL    HW2 5127   1.180   2.461   2.197
 1585SOL     OW 5128   0.307   2.075   3.093
 1585SOL    HW1 5129   0.284   2.112   3.183
 1585SOL    HW2 5130   0.277   1.980   3.087
 1586SOL     OW 5131   0.037   3.172   3.144
 1586SOL    HW1 5132   0.090   3.123   3.212
 1586SOL    HW2 5133   0.059   3.270   3.149
 1587SOL     OW 5134   0.732   2.496   2.926
 1587SOL    HW1 5135   0.791   2.470   2.850
 1587SOL    HW2 5136   0.704   2.592   2.915
 1588SOL     OW 5137   1.728   2.797   3.716
 1588SOL    HW1 5138   1.682   2.790   3.627
 1588SOL    HW2 5139   1.666   2.841   3.782
 1589SOL     OW 5140   0.307   1.925   2.480
 1589SOL    HW1 5141   0.296   2.019   2.513
 1589SOL    HW2 5142   0.302   1.862   2.557
 1590SOL     OW 5143   1.622   2.229   2.236
 1590SOL    HW1 5144   1.624   2.153   2.300
 1590SOL    HW2 5145   1.574   2.306   2.276
 1591SOL     OW 5146   1.023   2.628   2.828
 1591SOL    HW1 5147   1.038   2.649   2.924
 1591SOL    HW2 5148   0.993   2.533   2.819
 1592SOL     OW 5149   0.980   3.435   3.562
 1592SOL    HW1 5150   0.960   3.479   3.474
 1592SOL    HW2 5151   1.019   3.344   3.546
 1593SOL     OW 5152   1.859   3.380   3.467
 1593SOL    HW1 5153   1.873   3.407   3.372
 1593SOL    HW2 5154   1.942   3.402   3.520
 1594SOL     OW 5155   0.350   2.760   3.666
 1594SOL    HW1 5156   0.426   2.804   3.714
 1594SOL    HW2 5157   0.385   2.713   3.584
 1595SOL     OW 5158   1.540   2.136   1.987
 1595SOL    HW1 5159   1.479   2.061   2.010
 1595SOL    HW2 5160   1.562   2.188   2.070
 1596SOL     OW 5161   1.303   2.700   1.904
 1596SOL    HW1 5162   1.337   2.607   1.919
 1596SOL    HW2 5163   1.321   2.727   1.809
 1597SOL     OW 5164   1.068   3.195   2.711
 1597SOL    HW1 5165   1.075   3.111   2.656
 1597SOL    HW2 5166   1.130   3.264   2.675
 1598SOL     OW 5167   0.319   2.672   2.811
 1598SOL    HW1 5168   0.412   2.708   2.816
 1598SOL    HW2 5169   0.313   2.587   2.863
 1599SOL     OW 5170   0.339   2.371   2.868
 1599SOL    HW1 5171   0.287   2.288   2.851
 1599SOL    HW2 5172   0.416   2.376   2.804
 1600SOL     OW 5173   1.138   2.242   3.540
 1600SOL    HW1 5174   1.093   2.305   3.604
 1600SOL    HW2 5175   1.231   2.273   3.523
 1601SOL     OW 5176   1.160   2.069   3.339
 1601SOL    HW1 5177   1.160   2.133   3.416
 1601SOL    HW2 5178   1.188   2.117   3.256
 1602SOL     OW 5179   0.008   3.188   2.062
 1602SOL    HW1 5180  -0.085   3.209   2.031
 1602SOL    HW2 5181   0.018   3.089   2.075
 1603SOL     OW 5182   0.088   3.663   2.789
 1603SOL    HW1 5183   0.046   3.577   2.762
 1603SOL    HW2 5184   0.182   3.666   2.755
 1604SOL     OW 5185   0.504   3.430   2.772
 1604SOL    HW1 5186   0.570   3.504   2.781
 1604SOL    HW2 5187   0.548   3.351   2.730
 1605SOL     OW 5188   1.002   2.658   3.100
 1605SOL    HW1 5189   1.043   2.626   3.186
 1605SOL    HW2 5190   0.906   2.631   3.097
 1606SOL     OW 5191   0.040   2.406   2.976
 1606SOL    HW1 5192   0.125   2.373   2.935
 1606SOL    HW2 5193   0.053   2.421   3.074
 1607SOL     OW 5194   0.189   2.382   3.584
 1607SOL    HW1 5195   0.248   2.342   3.514
 1607SOL    HW2 5196   0.131   2.453   3.543
 1608SOL     OW 5197   1.369   2.812   3.522
 1608SOL    HW1 5198   1.408   2.901   3.542
 1608SOL    HW2 5199   1.379   2.792   3.425
 1609SOL     OW 5200   0.815   2.434   2.187
 1609SOL    HW1 5201   0.822   2.345   2.141
 1609SOL    HW2 5202   0.721   2.468   2.179
 1610SOL     OW 5203   1.657   2.466   3.068
 1610SOL    HW1 5204   1.619   2.397   3.130
 1610SOL    HW2 5205   1.739   2.430   3.024
 1611SOL     OW 5206   0.252   3.426   3.606
 1611SOL    HW1 5207   0.222   3.483   3.682
 1611SOL    HW2 5208   0.245   3.329   3.632
 1612SOL     OW 5209   0.671   2.326   3.131
 1612SOL    HW1 5210   0.637   2.237   3.101
 1612SOL    HW2 5211   0.697   2.380   3.051
 1613SOL     OW 5212   0.930   3.540   3.327
 1613SOL    HW1 5213   0.906   3.522   3.232
 1613SOL    HW2 5214   0.960   3.634   3.337
 1614SOL     OW 5215   0.473   2.362   2.053
 1614SOL    HW1 5216   0.534   2.442   2.057
 1614SOL    HW2 5217   0.378   2.393   2.060
 1615SOL     OW 5218   0.159   2.999   3.328
 1615SOL    HW1 5219   0.181   2.938   3.404
 1615SOL    HW2 5220   0.169   2.950   3.242
 1616SOL     OW 5221   1.347   2.921   3.096
 1616SOL    HW1 5222   1.371   2.858   3.022
 1616SOL    HW2 5223   1.257   2.961   3.078
 1617SOL     OW 5224   1.302   2.717   2.171
 1617SOL    HW1 5225   1.216   2.686   2.213
 1617SOL    HW2 5226   1.298   2.703   2.072
 1618SOL     OW 5227   1.759   3.609   3.016
 1618SOL    HW1 5228   1.820   3.639   2.943
 1618SOL    HW2 5229   1.721   3.520   2.994
 1619SOL     OW 5230   1.252   3.593   2.990
 1619SOL    HW1 5231   1.336   3.598   2.936
 1619SOL    HW2 5232   1.229   3.497   3.008
 1620SOL     OW 5233   0.083   3.120   2.884
 1620SOL    HW1 5234   0.078   3.119   2.984
 1620SOL    HW2 5235   0.000   3.079   2.846
 1621SOL     OW 5236   0.688   3.524   3.578
 1621SOL    HW1 5237   0.632   3.605   3.587
 1621SOL    HW2 5238   0.740   3.528   3.492
 1622SOL     OW 5239   1.726   1.997   2.385
 1622SOL    HW1 5240   1.799   1.980   2.318
 1622SOL    HW2 5241   1.695   1.910   2.423
 1623SOL     OW 5242   1.388   3.435   2.339
 1623SOL    HW1 5243   1.455   3.447   2.265
 1623SOL    HW2 5244   1.348   3.524   2.362
 1624SOL     OW 5245   0.130   3.656   3.713
 1624SOL    HW1 5246   0.089   3.582   3.766
 1624SOL    HW2 5247   0.194   3.707   3.771
 1625SOL     OW 5248   1.280   2.789   2.534
 1625SOL    HW1 5249   1.340   2.708   2.536
 1625SOL    HW2 5250   1.320   2.858   2.474
 1626SOL     OW 5251   0.830   3.135   3.284
 1626SOL    HW1 5252   0.825   3.168   3.379
 1626SOL    HW2 5253   0.744   3.154   3.238
 1627SOL     OW 5254   0.672   3.478   2.016
 1627SOL    HW1 5255   0.681   3.488   1.917
 1627SOL    HW2 5256   0.632   3.389   2.037
 1628SOL     OW 5257   1.650   3.582   3.256
 1628SOL    HW1 5258   1.703   3.592   3.172
 1628SOL    HW2 5259   1.623   3.672   3.290
 1629SOL     OW 5260   1.841   2.037   2.825
 1629SOL    HW1 5261   1.880   1.952   2.789
 1629SOL    HW2 5262   1.743   2.039   2.806
 1630SOL     OW 5263   0.263   2.188   2.582
 1630SOL    HW1 5264   0.184   2.239   2.548
 1630SOL    HW2 5265   0.254   2.173   2.680
 1631SOL     OW 5266   1.194   3.474   1.893
 1631SOL    HW1 5267   1.200   3.381   1.930
 1631SOL    HW2 5268   1.135   3.474   1.813
 1632SOL     OW 5269   0.822   2.864   3.234
 1632SOL    HW1 5270   0.862   2.863   3.142
 1632SOL    HW2 5271   0.832   2.956   3.274
 1633SOL     OW 5272   0.916   2.772   2.153
 1633SOL    HW1 5273   0.979   2.810   2.085
 1633SOL    HW2 5274   0.956   2.689   2.192
 1634SOL     OW 5275   1.504   3.469   1.906
 1634SOL    HW1 5276   1.412   3.506   1.913
 1634SOL    HW2 5277   1.542   3.489   1.816
 1635SOL     OW 5278   0.372   3.150   3.352
 1635SOL    HW1 5279   0.359   3.243   3.318
 1635SOL    HW2 5280   0.288   3.098   3.339
 1636SOL     OW 5281   1.614   3.154   3.151
 1636SOL    HW1 5282   1.674   3.157   3.231
 1636SOL    HW2 5283   1.539   3.218   3.164
 1637SOL     OW 5284   1.039   2.960   2.558
 1637SOL    HW1 5285   0.969   2.913   2.612
 1637SOL    HW2 5286   1.098   2.892   2.515
 1638SOL     OW 5287   1.014   2.098   2.833
 1638SOL    HW1 5288   1.006   2.062   2.740
 1638SOL    HW2 5289   1.012   2.022   2.898
 1639SOL     OW 5290   0.590   3.349   2.353
 1639SOL    HW1 5291   0.632   3.291   2.283
 1639SOL    HW2 5292   0.546   3.428   2.309
 1640SOL     OW 5293   1.709   2.247   3.243
 1640SOL    HW1 5294   1.782   2.316   3.247
 1640SOL    HW2 5295   1.737   2.172   3.184
 1641SOL     OW 5296   0.255   3.210   2.152
 1641SOL    HW1 5297   0.159   3.211   2.125
 1641SOL    HW2 5298   0.267   3.263   2.236
 1642SOL     OW 5299   0.105   2.875   3.588
 1642SOL    HW1 5300   0.028   2.842   3.642
 1642SOL    HW2 5301   0.190   2.845   3.630
 1643SOL     OW 5302   0.672   2.065   3.351
 1643SOL    HW1 5303   0.762   2.049   3.311
 1643SOL    HW2 5304   0.680   2.070   3.450
 1644SOL     OW 5305   0.075   2.207   1.895
 1644SOL    HW1 5306  -0.017   2.179   1.866
 1644SOL    HW2 5307   0.106   2.284   1.839
 1645SOL     OW 5308   1.440   2.718   3.260
 1645SOL    HW1 5309   1.383   2.770   3.197
 1645SOL    HW2 5310   1.536   2.730   3.236
 1646SOL     OW 5311   0.072   2.028   2.180
 1646SOL    HW1 5312   0.055   2.111   2.126
 1646SOL    HW2 5313   0.162   1.991   2.158
 1647SOL     OW 5314   1.183   3.197   1.981
 1647SOL    HW1 5315   1.084   3.186   1.983
 1647SOL    HW2 5316   1.217   3.212   2.074
 1648SOL     OW 5317   0.613   2.704   3.293
 1648SOL    HW1 5318   0.669   2.785   3.276
 1648SOL    HW2 5319   0.672   2.624   3.296
 1649SOL     OW 5320   1.493   3.629   2.821
 1649SOL    HW1 5321   1.526   3.693   2.752
 1649SOL    HW2 5322   1.559   3.623   2.896
 1650SOL     OW 5323   0.716   2.427   3.570
 1650SOL    HW1 5324   0.735   2.492   3.644
 1650SOL    HW2 5325   0.776   2.347   3.579
 1651SOL     OW 5326   1.450   3.082   3.495
 1651SOL    HW1 5327   1.441   3.072   3.594
 1651SOL    HW2 5328   1.546   3.075   3.469
 1652SOL     OW 5329   0.390   3.603   3.422
 1652SOL    HW1 5330   0.299   3.644   3.420
 1652SOL    HW2 5331   0.383   3.509   3.454
 1653SOL     OW 5332   1.674   2.745   3.116
 1653SOL    HW1 5333   1.647   2.656   3.079
 1653SOL    HW2 5334   1.675   2.813   3.043
 1654SOL     OW 5335   1.225   2.187   2.311
 1654SOL    HW1 5336   1.290   2.113   2.300
 1654SOL    HW2 5337   1.245   2.237   2.395
 1655SOL     OW 5338   0.594   2.607   2.514
 1655SOL    HW1 5339   0.644   2.692   2.495
 1655SOL    HW2 5340   0.506   2.609   2.466
 1656SOL     OW 5341   1.777   2.204   3.504
 1656SOL    HW1 5342   1.760   2.235   3.410
 1656SOL    HW2 5343   1.693   2.167   3.542
 1657SOL     OW 5344   1.730   2.796   3.379
 1657SOL    HW1 5345   1.768   2.887   3.394
 1657SOL    HW2 5346   1.722   2.779   3.280
 1658SOL     OW 5347   0.859   3.236   1.878
 1658SOL    HW1 5348   0.813   3.251   1.966
 1658SOL    HW2 5349   0.903   3.321   1.848
 1659SOL     OW 5350   0.661   3.652   2.815
 1659SOL    HW1 5351   0.615   3.740   2.802
 1659SOL    HW2 5352   0.760   3.664   2.808
 1660SOL     OW 5353   0.859   2.818   2.723
 1660SOL    HW1 5354   0.913   2.749   2.771
 1660SOL    HW2 5355   0.827   2.887   2.789
 1661SOL     OW 5356   1.083   2.846   1.949
 1661SOL    HW1 5357   1.060   2.899   1.867
 1661SOL    HW2 5358   1.164   2.790   1.930
 1662SOL     OW 5359   1.861   3.431   2.713
 1662SOL    HW1 5360   1.790   3.419   2.643
 1662SOL    HW2 5361   1.862   3.352   2.773
 1663SOL     OW 5362   0.221   3.176   3.706
 1663SOL    HW1 5363   0.156   3.103   3.685
 1663SOL    HW2 5364   0.225   3.190   3.804
 1664SOL     OW 5365   0.079   3.102   2.515
 1664SOL    HW1 5366   0.078   3.055   2.603
 1664SOL    HW2 5367   0.161   3.074   2.464
 1665SOL     OW 5368   0.672   3.253   3.486
 1665SOL    HW1 5369   0.594   3.203   3.524
 1665SOL    HW2 5370   0.669   3.348   3.517
 1666SOL     OW 5371   1.824   2.054   3.089
 1666SOL    HW1 5372   1.820   1.964   3.133
 1666SOL    HW2 5373   1.827   2.043   2.990
 1667SOL     OW 5374   0.428   2.286   2.382
 1667SOL    HW1 5375   0.458   2.214   2.320
 1667SOL    HW2 5376   0.389   2.246   2.465
 1668SOL     OW 5377   1.705   3.349   2.966
 1668SOL    HW1 5378   1.612   3.324   2.939
 1668SOL    HW2 5379   1.731   3.299   3.048
 1669SOL     OW 5380   0.317   2.409   3.142
 1669SOL    HW1 5381   0.355   2.350   3.214
 1669SOL    HW2 5382   0.357   2.383   3.054
 1670SOL     OW 5383   0.812   3.448   2.549
 1670SOL    HW1 5384   0.844   3.458   2.455
 1670SOL    HW2 5385   0.733   3.386   2.551
 1671SOL     OW 5386   1.424   2.076   2.974
 1671SOL    HW1 5387   1.476   2.011   3.029
 1671SOL    HW2 5388   1.375   2.139   3.035
 1672SOL     OW 5389   1.001   1.896   3.016
 1672SOL    HW1 5390   0.938   1.824   2.985
 1672SOL    HW2 5391   1.094   1.860   3.016
 1673SOL     OW 5392   0.770   3.192   2.163
 1673SOL    HW1 5393   0.724   3.105   2.180
 1673SOL    HW2 5394   0.861   3.189   2.204
 1674SOL     OW 5395   0.618   3.429   3.146
 1674SOL    HW1 5396   0.613   3.511   3.203
 1674SOL    HW2 5397   0.707   3.426   3.101
 1675SOL     OW 5398   1.352   1.914   2.030
 1675SOL    HW1 5399   1.387   1.873   1.946
 1675SOL    HW2 5400   1.262   1.876   2.050
 1676SOL     OW 5401   1.300   2.315   2.553
 1676SOL    HW1 5402   1.241   2.395   2.557
 1676SOL    HW2 5403   1.315   2.280   2.646
 1677SOL     OW 5404   1.593   2.083   2.744
 1677SOL    HW1 5405   1.509   2.082   2.798
 1677SOL    HW2 5406   1.595   2.166   2.688
 1678SOL     OW 5407   0.039   2.939   2.162
 1678SOL    HW1 5408   0.138   2.928   2.153
 1678SOL    HW2 5409  -0.001   2.853   2.194
 1679SOL     OW 5410   0.875   3.508   2.199
 1679SOL    HW1 5411   0.798   3.473   2.145
 1679SOL    HW2 5412   0.843   3.579   2.261
 1680SOL     OW 5413   0.230   2.490   3.837
 1680SOL    HW1 5414   0.137   2.488   3.874
 1680SOL    HW2 5415   0.231   2.451   3.745
 1681SOL     OW 5416   0.225   2.137   4.720
 1681SOL    HW1 5417   0.260   2.120   4.812
 1681SOL    HW2 5418   0.137   2.092   4.708
 1682SOL     OW 5419   0.019   2.230   4.371
 1682SOL    HW1 5420  -0.063   2.273   4.410
 1682SOL    HW2 5421  -0.009   2.157   4.308
 1683SOL     OW 5422   0.569   3.137   4.889
 1683SOL    HW1 5423   0.476   3.130   4.852
 1683SOL    HW2 5424   0.580   3.226   4.933
 1684SOL     OW 5425   1.555   3.373   4.427
 1684SOL    HW1 5426   1.498   3.357   4.508
 1684SOL    HW2 5427   1.496   3.383   4.347
 1685SOL     OW 5428   1.135   2.565   4.441
 1685SOL    HW1 5429   1.192   2.643   4.416
 1685SOL    HW2 5430   1.075   2.591   4.517
 1686SOL     OW 5431   1.755   2.469   3.955
 1686SOL    HW1 5432   1.743   2.456   3.856
 1686SOL    HW2 5433   1.725   2.388   4.004
 1687SOL     OW 5434   0.768   3.006   4.747
 1687SOL    HW1 5435   0.690   3.023   4.807
 1687SOL    HW2 5436   0.802   3.093   4.711
 1688SOL     OW 5437   0.850   2.660   5.547
 1688SOL    HW1 5438   0.846   2.736   5.612
 1688SOL    HW2 5439   0.872   2.696   5.456
 1689SOL     OW 5440   0.685   2.874   4.389
 1689SOL    HW1 5441   0.754   2.858   4.459
 1689SOL    HW2 5442   0.612   2.931   4.427
 1690SOL     OW 5443   0.686   3.023   5.527
 1690SOL    HW1 5444   0.746   3.102   5.541
 1690SOL    HW2 5445   0.600   3.054   5.486
 1691SOL     OW 5446   0.335   3.297   4.785
 1691SOL    HW1 5447   0.257   3.266   4.732
 1691SOL    HW2 5448   0.393   3.355   4.728
 1692SOL     OW 5449   1.460   3.367   5.063
 1692SOL    HW1 5450   1.484   3.461   5.089
 1692SOL    HW2 5451   1.444   3.313   5.145
 1693SOL     OW 5452   0.438   2.254   5.223
 1693SOL    HW1 5453   0.520   2.198   5.232
 1693SOL    HW2 5454   0.357   2.196   5.227
 1694SOL     OW 5455   1.603   2.309   4.461
 1694SOL    HW1 5456   1.529   2.355   4.411
 1694SOL    HW2 5457   1.654   2.377   4.514
 1695SOL     OW 5458   0.231   3.575   4.207
 1695SOL    HW1 5459   0.265   3.652   4.261
 1695SOL    HW2 5460   0.275   3.575   4.117
 1696SOL     OW 5461   1.127   3.203   5.414
 1696SOL    HW1 5462   1.174   3.203   5.502
 1696SOL    HW2 5463   1.079   3.116   5.403
 1697SOL     OW 5464   0.230   3.296   4.262
 1697SOL    HW1 5465   0.204   3.392   4.262
 1697SOL    HW2 5466   0.159   3.242   4.307
 1698SOL     OW 5467   0.240   2.953   4.610
 1698SOL    HW1 5468   0.254   2.869   4.662
 1698SOL    HW2 5469   0.185   3.017   4.665
 1699SOL     OW 5470   0.620   3.648   5.163
 1699SOL    HW1 5471   0.528   3.631   5.198
 1699SOL    HW2 5472   0.648   3.740   5.189
 1700SOL     OW 5473   0.606   2.826   3.847
 1700SOL    HW1 5474   0.613   2.910   3.793
 1700SOL    HW2 5475   0.652   2.839   3.935
 1701SOL     OW 5476   0.122   2.505   4.287
 1701SOL    HW1 5477   0.077   2.417   4.304
 1701SOL    HW2 5478   0.121   2.559   4.371
 1702SOL     OW 5479   1.842   3.629   4.083
 1702SOL    HW1 5480   1.896   3.600   4.163
 1702SOL    HW2 5481   1.872   3.719   4.054
 1703SOL     OW 5482   0.027   3.458   3.841
 1703SOL    HW1 5483   0.008   3.362   3.862
 1703SOL    HW2 5484  -0.006   3.516   3.916
 1704SOL     OW 5485   1.689   2.784   4.336
 1704SOL    HW1 5486   1.784   2.755   4.344
 1704SOL    HW2 5487   1.681   2.849   4.261
 1705SOL     OW 5488   1.641   2.970   4.156
 1705SOL    HW1 5489   1.727   2.972   4.104
 1705SOL    HW2 5490   1.655   3.017   4.244
 1706SOL     OW 5491   0.113   2.599   5.321
 1706SOL    HW1 5492   0.201   2.586   5.366
 1706SOL    HW2 5493   0.100   2.696   5.299
 1707SOL     OW 5494   0.613   3.227   4.450
 1707SOL    HW1 5495   0.564   3.140   4.459
 1707SOL    HW2 5496   0.590   3.270   4.363
 1708SOL     OW 5497   1.293   3.090   5.147
 1708SOL    HW1 5498   1.330   3.017   5.089
 1708SOL    HW2 5499   1.345   3.095   5.232
 1709SOL     OW 5500   0.809   1.866   4.226
 1709SOL    HW1 5501   0.849   1.957   4.217
 1709SOL    HW2 5502   0.709   1.874   4.232
 1710SOL     OW 5503   0.197   2.838   4.988
 1710SOL    HW1 5504   0.286   2.793   4.974
 1710SOL    HW2 5505   0.124   2.773   4.969
 1711SOL     OW 5506   1.525   2.861   3.914
 1711SOL    HW1 5507   1.462   2.785   3.927
 1711SOL    HW2 5508   1.573   2.879   4.000
 1712SOL     OW 5509   1.187   3.654   5.340
 1712SOL    HW1 5510   1.211   3.714   5.264
 1712SOL    HW2 5511   1.194   3.559   5.310
 1713SOL     OW 5512   0.317   2.113   5.525
 1713SOL    HW1 5513   0.388   2.184   5.531
 1713SOL    HW2 5514   0.229   2.152   5.553
 1714SOL     OW 5515   1.466   3.279   4.677
 1714SOL    HW1 5516   1.407   3.285   4.757
 1714SOL    HW2 5517   1.451   3.191   4.631
 1715SOL     OW 5518   1.667   3.576   4.296
 1715SOL    HW1 5519   1.626   3.553   4.208
 1715SOL    HW2 5520   1.649   3.502   4.361
 1716SOL     OW 5521   0.598   2.591   3.994
 1716SOL    HW1 5522   0.622   2.660   3.926
 1716SOL    HW2 5523   0.520   2.624   4.048
 1717SOL     OW 5524   1.281   2.207   4.668
 1717SOL    HW1 5525   1.195   2.157   4.655
 1717SOL    HW2 5526   1.343   2.153   4.724
 1718SOL     OW 5527   1.576   3.524   4.031
 1718SOL    HW1 5528   1.665   3.570   4.034
 1718SOL    HW2 5529   1.555   3.500   3.936
 1719SOL     OW 5530   0.807   2.467   5.189
 1719SOL    HW1 5531   0.760   2.464   5.278
 1719SOL    HW2 5532   0.756   2.412   5.123
 1720SOL     OW 5533   0.973   2.752   5.296
 1720SOL    HW1 5534   1.019   2.668   5.267
 1720SOL    HW2 5535   0.917   2.786   5.221
 1721SOL     OW 5536   0.991   2.272   4.966
 1721SOL    HW1 5537   0.914   2.306   5.020
 1721SOL    HW2 5538   0.957   2.221   4.887
 1722SOL     OW 5539   1.041   2.563   4.153
 1722SOL    HW1 5540   1.067   2.559   4.249
 1722SOL    HW2 5541   0.956   2.512   4.139
 1723SOL     OW 5542   0.076   2.673   4.513
 1723SOL    HW1 5543   0.175   2.661   4.522
 1723SOL    HW2 5544   0.052   2.768   4.534
 1724SOL     OW 5545   0.130   3.683   5.295
 1724SOL    HW1 5546   0.120   3.668   5.394
 1724SOL    HW2 5547   0.044   3.719   5.259
 1725SOL     OW 5548   0.865   2.210   3.919
 1725SOL    HW1 5549   0.924   2.273   3.870
 1725SOL    HW2 5550   0.884   2.116   3.890
 1726SOL     OW 5551   1.362   3.006   4.269
 1726SOL    HW1 5552   1.445   2.977   4.221
 1726SOL    HW2 5553   1.313   3.073   4.213
 1727SOL     OW 5554   0.550   2.058   4.609
 1727SOL    HW1 5555   0.545   2.053   4.709
 1727SOL    HW2 5556   0.552   2.154   4.580
 1728SOL     OW 5557   1.008   3.318   4.201
 1728SOL    HW1 5558   0.962   3.390   4.149
 1728SOL    HW2 5559   1.004   3.338   4.299
 1729SOL     OW 5560   0.351   3.663   4.577
 1729SOL    HW1 5561   0.401   3.577   4.583
 1729SOL    HW2 5562   0.416   3.740   4.574
 1730SOL     OW 5563   1.795   2.928   4.597
 1730SOL    HW1 5564   1.733   2.913   4.521
 1730SOL    HW2 5565   1.743   2.939   4.682
 1731SOL     OW 5566   1.227   3.412   5.230
 1731SOL    HW1 5567   1.233   3.335   5.294
 1731SOL    HW2 5568   1.175   3.386   5.150
 1732SOL     OW 5569   0.321   2.805   3.966
 1732SOL    HW1 5570   0.403   2.844   3.924
 1732SOL    HW2 5571   0.294   2.723   3.917
 1733SOL     OW 5572   1.458   2.597   4.452
 1733SOL    HW1 5573   1.453   2.532   4.527
 1733SOL    HW2 5574   1.538   2.656   4.465
 1734SOL     OW 5575   0.461   3.128   5.451
 1734SOL    HW1 5576   0.411   3.129   5.365
 1734SOL    HW2 5577   0.398   3.110   5.527
 1735SOL     OW 5578   1.111   3.638   3.961
 1735SOL    HW1 5579   1.051   3.576   4.011
 1735SOL    HW2 5580   1.142   3.594   3.876
 1736SOL     OW 5581   0.202   2.147   5.222
 1736SOL    HW1 5582   0.122   2.207   5.209
 1736SOL    HW2 5583   0.192   2.098   5.308
 1737SOL     OW 5584   1.632   3.239   3.805
 1737SOL    HW1 5585   1.600   3.333   3.795
 1737SOL    HW2 5586   1.556   3.176   3.793
 1738SOL     OW 5587   0.464   3.605   4.047
 1738SOL    HW1 5588   0.497   3.644   4.133
 1738SOL    HW2 5589   0.540   3.598   3.982
 1739SOL     OW 5590   1.400   1.969   4.150
 1739SOL    HW1 5591   1.376   1.932   4.060
 1739SOL    HW2 5592   1.499   1.985   4.154
 1740SOL     OW 5593   0.249   3.647   4.965
 1740SOL    HW1 5594   0.306   3.582   5.015
 1740SOL    HW2 5595   0.233   3.614   4.872
 1741SOL     OW 5596   0.940   3.560   4.628
 1741SOL    HW1 5597   1.020   3.503   4.649
 1741SOL    HW2 5598   0.891   3.520   4.551
 1742SOL     OW 5599   0.382   2.562   4.204
 1742SOL    HW1 5600   0.427   2.472   4.201
 1742SOL    HW2 5601   0.288   2.551   4.237
 1743SOL     OW 5602   0.614   1.984   3.841
 1743SOL    HW1 5603   0.712   1.962   3.848
 1743SOL    HW2 5604   0.583   1.967   3.748
 1744SOL     OW 5605   0.781   2.126   5.473
 1744SOL    HW1 5606   0.848   2.065   5.516
 1744SOL    HW2 5607   0.708   2.145   5.538
 1745SOL     OW 5608   0.888   3.376   4.919
 1745SOL    HW1 5609   0.865   3.351   4.825
 1745SOL    HW2 5610   0.949   3.307   4.958
 1746SOL     OW 5611   1.351   2.452   5.157
 1746SOL    HW1 5612   1.379   2.409   5.242
 1746SOL    HW2 5613   1.376   2.548   5.158
 1747SOL     OW 5614   0.803   3.264   4.648
 1747SOL    HW1 5615   0.893   3.278   4.606
 1747SOL    HW2 5616   0.732   3.266   4.577
 1748SOL     OW 5617   0.922   2.365   4.623
 1748SOL    HW1 5618   0.897   2.356   4.527
 1748SOL    HW2 5619   0.970   2.283   4.654
 1749SOL     OW 5620   0.539   1.926   4.236
 1749SOL    HW1 5621   0.458   1.927   4.294
 1749SOL    HW2 5622   0.542   2.009   4.181
 1750SOL     OW 5623   1.434   3.050   3.765
 1750SOL    HW1 5624   1.466   2.974   3.822
 1750SOL    HW2 5625   1.342   3.077   3.795
 1751SOL     OW 5626   0.297   1.897   3.895
 1751SOL    HW1 5627   0.346   1.981   3.874
 1751SOL    HW2 5628   0.359   1.832   3.940
 1752SOL     OW 5629   0.935   2.098   4.204
 1752SOL    HW1 5630   0.887   2.139   4.126
 1752SOL    HW2 5631   1.034   2.096   4.185
 1753SOL     OW 5632   1.076   2.545   5.188
 1753SOL    HW1 5633   0.996   2.484   5.191
 1753SOL    HW2 5634   1.157   2.492   5.164
 1754SOL     OW 5635   1.227   3.432   4.517
 1754SOL    HW1 5636   1.248   3.506   4.452
 1754SOL    HW2 5637   1.295   3.432   4.590
 1755SOL     OW 5638   0.459   3.014   4.465
 1755SOL    HW1 5639   0.388   2.987   4.530
 1755SOL    HW2 5640   0.433   2.986   4.372
 1756SOL     OW 5641   1.271   3.659   4.315
 1756SOL    HW1 5642   1.315   3.723   4.251
 1756SOL    HW2 5643   1.221   3.711   4.385
 1757SOL     OW 5644   1.032   2.411   3.740
 1757SOL    HW1 5645   0.991   2.493   3.701
 1757SOL    HW2 5646   1.096   2.437   3.813
 1758SOL     OW 5647   0.078   2.418   5.110
 1758SOL    HW1 5648   0.170   2.417   5.069
 1758SOL    HW2 5649   0.072   2.492   5.177
 1759SOL     OW 5650   0.561   2.084   4.871
 1759SOL    HW1 5651   0.599   2.000   4.908
 1759SOL    HW2 5652   0.473   2.103   4.915
 1760SOL     OW 5653   0.866   2.316   4.366
 1760SOL    HW1 5654   0.834   2.388   4.304
 1760SOL    HW2 5655   0.890   2.235   4.313
 1761SOL     OW 5656   1.017   1.901   4.477
 1761SOL    HW1 5657   0.945   1.906   4.408
 1761SOL    HW2 5658   0.993   1.832   4.546
 1762SOL     OW 5659   1.429   3.035   4.591
 1762SOL    HW1 5660   1.374   2.951   4.584
 1762SOL    HW2 5661   1.455   3.064   4.499
 1763SOL     OW 5662   1.466   2.452   4.716
 1763SOL    HW1 5663   1.436   2.357   4.723
 1763SOL    HW2 5664   1.539   2.468   4.782
 1764SOL     OW 5665   1.857   2.695   4.101
 1764SOL    HW1 5666   1.899   2.631   4.165
 1764SOL    HW2 5667   1.819   2.644   4.023
 1765SOL     OW 5668   0.488   3.247   3.898
 1765SOL    HW1 5669   0.401   3.232   3.945
 1765SOL    HW2 5670   0.471   3.273   3.803
 1766SOL     OW 5671   1.664   3.142   4.381
 1766SOL    HW1 5672   1.763   3.150   4.395
 1766SOL    HW2 5673   1.619   3.226   4.412
 1767SOL     OW 5674   1.390   2.437   3.802
 1767SOL    HW1 5675   1.336   2.416   3.883
 1767SOL    HW2 5676   1.481   2.396   3.811
 1768SOL     OW 5677   0.527   2.118   4.052
 1768SOL    HW1 5678   0.554   2.059   3.977
 1768SOL    HW2 5679   0.527   2.213   4.021
 1769SOL     OW 5680   1.064   3.209   5.064
 1769SOL    HW1 5681   0.984   3.186   5.119
 1769SOL    HW2 5682   1.147   3.183   5.113
 1770SOL     OW 5683   1.592   3.491   5.349
 1770SOL    HW1 5684   1.619   3.525   5.259
 1770SOL    HW2 5685   1.671   3.453   5.395
 1771SOL     OW 5686   1.111   3.057   4.824
 1771SOL    HW1 5687   1.071   3.101   4.905
 1771SOL    HW2 5688   1.070   3.094   4.741
 1772SOL     OW 5689   1.638   2.961   4.803
 1772SOL    HW1 5690   1.643   3.042   4.862
 1772SOL    HW2 5691   1.552   2.963   4.752
 1773SOL     OW 5692   0.915   1.951   5.126
 1773SOL    HW1 5693   0.940   1.931   5.031
 1773SOL    HW2 5694   0.987   2.007   5.168
 1774SOL     OW 5695   0.980   2.978   5.443
 1774SOL    HW1 5696   0.881   2.984   5.453
 1774SOL    HW2 5697   1.003   2.898   5.387
 1775SOL     OW 5698   0.705   2.912   4.092
 1775SOL    HW1 5699   0.691   2.919   4.191
 1775SOL    HW2 5700   0.789   2.861   4.074
 1776SOL     OW 5701   0.410   2.675   4.975
 1776SOL    HW1 5702   0.496   2.687   5.025
 1776SOL    HW2 5703   0.368   2.588   5.002
 1777SOL     OW 5704   1.274   2.248   4.986
 1777SOL    HW1 5705   1.295   2.322   5.050
 1777SOL    HW2 5706   1.185   2.265   4.943
 1778SOL     OW 5707   0.064   3.426   5.055
 1778SOL    HW1 5708   0.018   3.508   5.021
 1778SOL    HW2 5709   0.162   3.445   5.064
 1779SOL     OW 5710   0.367   2.962   4.225
 1779SOL    HW1 5711   0.360   3.045   4.169
 1779SOL    HW2 5712   0.371   2.882   4.165
 1780SOL     OW 5713   0.566   2.399   4.589
 1780SOL    HW1 5714   0.578   2.465   4.515
 1780SOL    HW2 5715   0.612   2.433   4.672
 1781SOL     OW 5716   1.252   3.210   4.112
 1781SOL    HW1 5717   1.302   3.287   4.152
 1781SOL    HW2 5718   1.157   3.212   4.144
 1782SOL     OW 5719   1.272   3.307   4.866
 1782SOL    HW1 5720   1.319   3.320   4.953
 1782SOL    HW2 5721   1.206   3.233   4.875
 1783SOL     OW 5722   1.582   2.501   4.196
 1783SOL    HW1 5723   1.551   2.562   4.269
 1783SOL    HW2 5724   1.632   2.553   4.127
 1784SOL     OW 5725   0.354   3.372   5.053
 1784SOL    HW1 5726   0.333   3.328   4.966
 1784SOL    HW2 5727   0.451   3.398   5.056
 1785SOL     OW 5728   0.402   2.613   5.322
 1785SOL    HW1 5729   0.470   2.668   5.275
 1785SOL    HW2 5730   0.442   2.525   5.349
 1786SOL     OW 5731   1.013   1.967   5.494
 1786SOL    HW1 5732   1.019   2.052   5.442
 1786SOL    HW2 5733   1.045   1.891   5.437
 1787SOL     OW 5734   0.504   1.912   5.464
 1787SOL    HW1 5735   0.462   1.855   5.394
 1787SOL    HW2 5736   0.438   1.981   5.496
 1788SOL     OW 5737   0.573   2.732   4.753
 1788SOL    HW1 5738   0.617   2.821   4.744
 1788SOL    HW2 5739   0.510   2.732   4.830
 1789SOL     OW 5740   1.360   2.724   4.769
 1789SOL    HW1 5741   1.285   2.724   4.703
 1789SOL    HW2 5742   1.397   2.632   4.778
 1790SOL     OW 5743   1.209   2.387   3.999
 1790SOL    HW1 5744   1.222   2.303   4.053
 1790SOL    HW2 5745   1.180   2.461   4.059
 1791SOL     OW 5746   0.307   2.075   4.955
 1791SOL    HW1 5747   0.284   2.112   5.045
 1791SOL    HW2 5748   0.277   1.980   4.949
 1792SOL     OW 5749   0.037   3.172   5.006
 1792SOL    HW1 5750   0.090   3.123   5.074
 1792SOL    HW2 5751   0.059   3.270   5.011
 1793SOL     OW 5752   0.732   2.496   4.788
 1793SOL    HW1 5753   0.791   2.470   4.712
 1793SOL    HW2 5754   0.704   2.592   4.777
 1794SOL     OW 5755   0.307   1.925   4.342
 1794SOL    HW1 5756   0.296   2.019   4.375
 1794SOL    HW2 5757   0.302   1.862   4.419
 1795SOL     OW 5758   1.622   2.229   4.098
 1795SOL    HW1 5759   1.624   2.153   4.162
 1795SOL    HW2 5760   1.574   2.306   4.138
 1796SOL     OW 5761   1.023   2.628   4.690
 1796SOL    HW1 5762   1.038   2.649   4.786
 1796SOL    HW2 5763   0.993   2.533   4.681
 1797SOL     OW 5764   0.980   3.435   5.424
 1797SOL    HW1 5765   0.960   3.479   5.336
 1797SOL    HW2 5766   1.019   3.344   5.408
 1798SOL     OW 5767   1.859   3.380   5.329
 1798SOL    HW1 5768   1.873   3.407   5.234
 1798SOL    HW2 5769   1.942   3.402   5.382
 1799SOL     OW 5770   0.350   2.760   5.528
 1799SOL    HW1 5771   0.426   2.804   5.576
 1799SOL    HW2 5772   0.385   2.713   5.446
 1800SOL     OW 5773   1.540   2.136   3.849
 1800SOL    HW1 5774   1.479   2.061   3.872
 1800SOL    HW2 5775   1.562   2.188   3.932
 1801SOL     OW 5776   1.303   2.700   3.766
 1801SOL    HW1 5777   1.337   2.607   3.781
 1801SOL    HW2 5778   1.321   2.727   3.671
 1802SOL     OW 5779   1.068   3.195   4.573
 1802SOL    HW1 5780   1.075   3.111   4.518
 1802SOL    HW2 5781   1.130   3.264   4.537
 1803SOL     OW 5782   0.319   2.672   4.673
 1803SOL    HW1 5783   0.412   2.708   4.678
 1803SOL    HW2 5784   0.313   2.587   4.725
 1804SOL     OW 5785   0.339   2.371   4.730
 1804SOL    HW1 5786   0.287   2.288   4.713
 1804SOL    HW2 5787   0.416   2.376   4.666
 1805SOL     OW 5788   1.138   2.242   5.402
 1805SOL    HW1 5789   1.093   2.305   5.466
 1805SOL    HW2 5790   1.231   2.273   5.385
 1806SOL     OW 5791   1.160   2.069   5.201
 1806SOL    HW1 5792   1.160   2.133   5.278
 1806SOL    HW2 5793   1.188   2.117   5.118
 1807SOL     OW 5794   0.008   3.188   3.924
 1807SOL    HW1 5795  -0.085   3.209   3.893
 1807SOL    HW2 5796   0.018   3.089   3.937
 1808SOL     OW 5797   0.088   3.663   4.651
 1808SOL    HW1 5798   0.046   3.577   4.624
 1808SOL    HW2 5799   0.182   3.666   4.617
 1809SOL     OW 5800   0.504   3.430   4.634
 1809SOL    HW1 5801   0.570   3.504   4.643
 1809SOL    HW2 5802   0.548   3.351   4.592
 1810SOL     OW 5803   1.002   2.658   4.962
 1810SOL    HW1 5804   1.043   2.626   5.048
 1810SOL    HW2 5805   0.906   2.631   4.959
 1811SOL     OW 5806   0.040   2.406   4.838
 1811SOL    HW1 5807   0.125   2.373   4.797
 1811SOL    HW2 5808   0.053   2.421   4.936
 1812SOL     OW 5809   0.189   2.382   5.446
 1812SOL    HW1 5810   0.248   2.342   5.376
 1812SOL    HW2 5811   0.131   2.453   5.405
 1813SOL     OW 5812   1.369   2.812   5.384
 1813SOL    HW1 5813   1.408   2.901   5.404
 1813SOL    HW2 5814   1.379   2.792   5.287
 1814SOL     OW 5815   0.815   2.434   4.049
 1814SOL    HW1 5816   0.822   2.345   4.003
 1814SOL    HW2 5817   0.721   2.468   4.041
 1815SOL     OW 5818   1.657   2.466   4.930
 1815SOL    HW1 5819   1.619   2.397   4.992
 1815SOL    HW2 5820   1.739   2.430   4.886
 1816SOL     OW 5821   0.252   3.426   5.468
 1816SOL    HW1 5822   0.222   3.483   5.544
 1816SOL    HW2 5823   0.245   3.329   5.494
 1817SOL     OW 5824   0.671   2.326   4.993
 1817SOL    HW1 5825   0.637   2.237   4.963
 1817SOL    HW2 5826   0.697   2.380   4.913
 1818SOL     OW 5827   0.930   3.540   5.189
 1818SOL    HW1 5828   0.906   3.522   5.094
 1818SOL    HW2 5829   0.960   3.634   5.199
 1819SOL     OW 5830   0.473   2.362   3.915
 1819SOL    HW1 5831   0.534   2.442   3.919
 1819SOL    HW2 5832   0.378   2.393   3.922
 1820SOL     OW 5833   0.159   2.999   5.190
 1820SOL    HW1 5834   0.181   2.938   5.266
 1820SOL    HW2 5835   0.169   2.950   5.104
 1821SOL     OW 5836   1.347   2.921   4.958
 1821SOL    HW1 5837   1.371   2.858   4.884
 1821SOL    HW2 5838   1.257   2.961   4.940
 1822SOL     OW 5839   1.302   2.717   4.033
 1822SOL    HW1 5840   1.216   2.686   4.075
 1822SOL    HW2 5841   1.298   2.703   3.934
 1823SOL     OW 5842   1.759   3.609   4.878
 1823SOL    HW1 5843   1.820   3.639   4.805
 1823SOL    HW2 5844   1.721   3.520   4.856
 1824SOL     OW 5845   1.252   3.593   4.852
 1824SOL    HW1 5846   1.336   3.598   4.798
 1824SOL    HW2 5847   1.229   3.497   4.870
 1825SOL     OW 5848   0.083   3.120   4.746
 1825SOL    HW1 5849   0.078   3.119   4.846
 1825SOL    HW2 5850   0.000   3.079   4.708
 1826SOL     OW 5851   0.688   3.524   5.440
 1826SOL    HW1 5852   0.632   3.605   5.449
 1826SOL    HW2 5853   0.740   3.528   5.354
 1827SOL     OW 5854   1.726   1.997   4.247
 1827SOL    HW1 5855   1.799   1.980   4.180
 1827SOL    HW2 5856   1.695   1.910   4.285
 1828SOL     OW 5857   1.388   3.435   4.201
 1828SOL    HW1 5858   1.455   3.447   4.127
 1828SOL    HW2 5859   1.348   3.524   4.224
 1829SOL     OW 5860   0.130   3.656   5.575
 1829SOL    HW1 5861   0.089   3.582   5.628
 1829SOL    HW2 5862   0.194   3.707   5.633
 1830SOL     OW 5863   1.280   2.789   4.396
 1830SOL    HW1 5864   1.340   2.708   4.398
 1830SOL    HW2 5865   1.320   2.858   4.336
 1831SOL     OW 5866   0.830   3.135   5.146
 1831SOL    HW1 5867   0.825   3.168   5.241
 1831SOL    HW2 5868   0.744   3.154   5.100
 1832SOL     OW 5869   0.672   3.478   3.878
 1832SOL    HW1 5870   0.681   3.488   3.779
 1832SOL    HW2 5871   0.632   3.389   3.899
 1833SOL     OW 5872   1.650   3.582   5.118
 1833SOL    HW1 5873   1.703   3.592   5.034
 1833SOL    HW2 5874   1.623   3.672   5.152
 1834SOL     OW 5875   1.841   2.037   4.687
 1834SOL    HW1 5876   1.880   1.952   4.651
 1834SOL    HW2 5877   1.743   2.039   4.668
 1835SOL     OW 5878   0.263   2.188   4.444
 1835SOL    HW1 5879   0.184   2.239   4.410
 1835SOL    HW2 5880   0.254   2.173   4.542
 1836SOL     OW 5881   1.194   3.474   3.755
 1836SOL    HW1 5882   1.200   3.381   3.792
 1836SOL    HW2 5883   1.135   3.474   3.675
 1837SOL     OW 5884   0.822   2.864   5.096
 1837SOL    HW1 5885   0.862   2.863   5.004
 1837SOL    HW2 5886   0.832   2.956   5.136
 1838SOL     OW 5887   0.916   2.772   4.015
 1838SOL    HW1 5888   0.979   2.810   3.947
 1838SOL    HW2 5889   0.956   2.689   4.054
 1839SOL     OW 5890   1.504   3.469   3.768
 1839SOL    HW1 5891   1.412   3.506   3.775
 1839SOL    HW2 5892   1.542   3.489   3.678
 1840SOL     OW 5893   0.372   3.150   5.214
 1840SOL    HW1 5894   0.359   3.243   5.180
 1840SOL    HW2 5895   0.288   3.098   5.201
 1841SOL     OW 5896   1.614   3.154   5.013
 1841SOL    HW1 5897   1.674   3.157   5.093
 1841SOL    HW2 5898   1.539   3.218   5.026
 1842SOL     OW 5899   1.039   2.960   4.420
 1842SOL    HW1 5900   0.969   2.913   4.474
 1842SOL    HW2 5901   1.098   2.892   4.377
 1843SOL     OW 5902   1.014   2.098   4.695
 1843SOL    HW1 5903   1.006   2.062   4.602
 1843SOL    HW2 5904   1.012   2.022   4.760
 1844SOL     OW 5905   0.590   3.349   4.215
 1844SOL    HW1 5906   0.632   3.291   4.145
 1844SOL    HW2 5907   0.546   3.428   4.171
 1845SOL     OW 5908   1.709   2.247   5.105
 1845SOL    HW1 5909   1.782   2.316   5.109
 1845SOL    HW2 5910   1.737   2.172   5.046
 1846SOL     OW 5911   0.255   3.210   4.014
 1846SOL    HW1 5912   0.159   3.211   3.987
 1846SOL    HW2 5913   0.267   3.263   4.098
 1847SOL     OW 5914   0.105   2.875   5.450
 1847SOL    HW1 5915   0.028   2.842   5.504
 1847SOL    HW2 5916   0.190   2.845   5.492
 1848SOL     OW 5917   0.672   2.065   5.213
 1848SOL    HW1 5918   0.762   2.049   5.173
 1848SOL    HW2 5919   0.680   2.070   5.312
 1849SOL     OW 5920   0.075   2.207   3.757
 1849SOL    HW1 5921  -0.017   2.179   3.728
 1849SOL    HW2 5922   0.106   2.284   3.701
 1850SOL     OW 5923   1.440   2.718   5.122
 1850SOL    HW1 5924   1.383   2.770   5.059
 1850SOL    HW2 5925   1.536   2.730   5.098
 1851SOL     OW 5926   0.072   2.028   4.042
 1851SOL    HW1 5927   0.055   2.111   3.988
 1851SOL    HW2 5928   0.162   1.991   4.020
 1852SOL     OW 5929   1.183   3.197   3.843
 1852SOL    HW1 5930   1.084   3.186   3.845
 1852SOL    HW2 5931   1.217   3.212   3.936
 1853SOL     OW 5932   0.613   2.704   5.155
 1853SOL    HW1 5933   0.669   2.785   5.138
 1853SOL    HW2 5934   0.672   2.624   5.158
 1854SOL     OW 5935   1.493   3.629   4.683
 1854SOL    HW1 5936   1.526   3.693   4.614
 1854SOL    HW2 5937   1.559   3.623   4.758
 1855SOL     OW 5938   0.716   2.427   5.432
 1855SOL    HW1 5939   0.735   2.492   5.506
 1855SOL    HW2 5940   0.776   2.347   5.441
 1856SOL     OW 5941   1.450   3.082   5.357
 1856SOL    HW1 5942   1.441   3.072   5.456
 1856SOL    HW2 5943   1.546   3.075   5.331
 1857SOL     OW 5944   0.390   3.603   5.284
 1857SOL    HW1 5945   0.299   3.644   5.282
 1857SOL    HW2 5946   0.383   3.509   5.316
 1858SOL     OW 5947   1.674   2.745   4.978
 1858SOL    HW1 5948   1.647   2.656   4.941
 1858SOL    HW2 5949   1.675   2.813   4.905
 1859SOL     OW 5950   1.225   2.187   4.173
 1859SOL    HW1 5951   1.290   2.113   4.162
 1859SOL    HW2 5952   1.245   2.237   4.257
 1860SOL     OW 5953   0.594   2.607   4.376
 1860SOL    HW1 5954   0.644   2.692   4.357
 1860SOL    HW2 5955   0.506   2.609   4.328
 1861SOL     OW 5956   0.859   3.236   3.740
 1861SOL    HW1 5957   0.813   3.251   3.828
 1861SOL    HW2 5958   0.903   3.321   3.710
 1862SOL     OW 5959   0.661   3.652   4.677
 1862SOL    HW1 5960   0.615   3.740   4.664
 1862SOL    HW2 5961   0.760   3.664   4.670
 1863SOL     OW 5962   0.859   2.818   4.585
 1863SOL    HW1 5963   0.913   2.749   4.633
 1863SOL    HW2 5964   0.827   2.887   4.651
 1864SOL     OW 5965   1.083   2.846   3.811
 1864SOL    HW1 5966   1.060   2.899   3.729
 1864SOL    HW2 5967   1.164   2.790   3.792
 1865SOL     OW 5968   1.861   3.431   4.575
 1865SOL    HW1 5969   1.790   3.419   4.505
 1865SOL    HW2 5970   1.862   3.352   4.635
 1866SOL     OW 5971   0.221   3.176   5.568
 1866SOL    HW1 5972   0.156   3.103   5.547
 1866SOL    HW2 5973   0.225   3.190   5.666
 1867SOL     OW 5974   0.079   3.102   4.377
 1867SOL    HW1 5975   0.078   3.055   4.465
 1867SOL    HW2 5976   0.161   3.074   4.326
 1868SOL     OW 5977   0.672   3.253   5.348
 1868SOL    HW1 5978   0.594   3.203   5.386
 1868SOL    HW2 5979   0.669   3.348   5.379
 1869SOL     OW 5980   1.824   2.054   4.951
 1869SOL    HW1 5981   1.820   1.964   4.995
 1869SOL    HW2 5982   1.827   2.043   4.852
 1870SOL     OW 5983   0.428   2.286   4.244
 1870SOL    HW1 5984   0.458   2.214   4.182
 1870SOL    HW2 5985   0.389   2.246   4.327
 1871SOL     OW 5986   1.705   3.349   4.828
 1871SOL    HW1 5987   1.612   3.324   4.801
 1871SOL    HW2 5988   1.731   3.299   4.910
 1872SOL     OW 5989   0.317   2.409   5.004
 1872SOL    HW1 5990   0.355   2.350   5.076
 1872SOL    HW2 5991   0.357   2.383   4.916
 1873SOL     OW 5992   0.812   3.448   4.411
 1873SOL    HW1 5993   0.844   3.458   4.317
 1873SOL    HW2 5994   0.733   3.386   4.413
 1874SOL     OW 5995   1.424   2.076   4.836
 1874SOL    HW1 5996   1.476   2.011   4.891
 1874SOL    HW2 5997   1.375   2.139   4.897
 1875SOL     OW 5998   1.001   1.896   4.878
 1875SOL    HW1 5999   0.938   1.824   4.847
 1875SOL    HW2 6000   1.094   1.860   4.878
 1876SOL     OW 6001   0.770   3.192   4.025
 1876SOL    HW1 6002   0.724   3.105   4.042
 1876SOL    HW2 6003   0.861   3.189   4.066
 1877SOL     OW 6004   0.618   3.429   5.008
 1877SOL    HW1 6005   0.613   3.511   5.065
 1877SOL    HW2 6006   0.707   3.426   4.963
 1878SOL     OW 6007   1.352   1.914   3.892
 1878SOL    HW1 6008   1.387   1.873   3.808
 1878SOL    HW2 6009   1.262   1.876   3.912
 1879SOL     OW 6010   1.300   2.315   4.415
 1879SOL    HW1 6011   1.241   2.395   4.419
 1879SOL    HW2 6012   1.315   2.280   4.508
 1880SOL     OW 6013   1.593   2.083   4.606
 1880SOL    HW1 6014   1.509   2.082   4.660
 1880SOL    HW2 6015   1.595   2.166   4.550
 1881SOL     OW 6016   0.039   2.939   4.024
 1881SOL    HW1 6017   0.138   2.928   4.015
 1881SOL    HW2 6018  -0.001   2.853   4.056
 1882SOL     OW 6019   0.875   3.508   4.061
 1882SOL    HW1 6020   0.798   3.473   4.007
 1882SOL    HW2 6021   0.843   3.579   4.123
 1883SOL     OW 6022   0.230   2.490   5.699
 1883SOL    HW1 6023   0.137   2.488   5.736
 1883SOL    HW2 6024   0.231   2.451   5.607
 1884SOL     OW 6025   0.225   2.137   6.582
 1884SOL    HW1 6026   0.260   2.120   6.674
 1884SOL    HW2 6027   0.137   2.092   6.570
 1885SOL     OW 6028   0.019   2.230   6.233
 1885SOL    HW1 6029  -0.063   2.273   6.272
 1885SOL    HW2 6030  -0.009   2.157   6.170
 1886SOL     OW 6031   0.569   3.137   6.751
 1886SOL    HW1 6032   0.476   3.130   6.714
 1886SOL    HW2 6033   0.580   3.226   6.795
 1887SOL     OW 6034   1.555   3.373   6.289
 1887SOL    HW1 6035   1.498   3.357   6.370
 1887SOL    HW2 6036   1.496   3.383   6.209
 1888SOL     OW 6037   1.135   2.565   6.303
 1888SOL    HW1 6038   1.192   2.643   6.278
 1888SOL    HW2 6039   1.075   2.591   6.379
 1889SOL     OW 6040   0.768   3.006   6.609
 1889SOL    HW1 6041   0.690   3.023   6.669
 1889SOL    HW2 6042   0.802   3.093   6.573
 1890SOL     OW 6043   0.850   2.660   7.409
 1890SOL    HW1 6044   0.846   2.736   7.474
 1890SOL    HW2 6045   0.872   2.696   7.318
 1891SOL     OW 6046   0.685   2.874   6.251
 1891SOL    HW1 6047   0.754   2.858   6.321
 1891SOL    HW2 6048   0.612   2.931   6.289
 1892SOL     OW 6049   0.686   3.023   7.389
 1892SOL    HW1 6050   0.746   3.102   7.403
 1892SOL    HW2 6051   0.600   3.054   7.348
 1893SOL     OW 6052   0.335   3.297   6.647
 1893SOL    HW1 6053   0.257   3.266   6.594
 1893SOL    HW2 6054   0.393   3.355   6.590
 1894SOL     OW 6055   1.460   3.367   6.925
 1894SOL    HW1 6056   1.484   3.461   6.951
 1894SOL    HW2 6057   1.444   3.313   7.007
 1895SOL     OW 6058   0.438   2.254   7.085
 1895SOL    HW1 6059   0.520   2.198   7.094
 1895SOL    HW2 6060   0.357   2.196   7.089
 1896SOL     OW 6061   1.603   2.309   6.323
 1896SOL    HW1 6062   1.529   2.355   6.273
 1896SOL    HW2 6063   1.654   2.377   6.376
 1897SOL     OW 6064   0.231   3.575   6.069
 1897SOL    HW1 6065   0.265   3.652   6.123
 1897SOL    HW2 6066   0.275   3.575   5.979
 1898SOL     OW 6067   1.127   3.203   7.276
 1898SOL    HW1 6068   1.174   3.203   7.364
 1898SOL    HW2 6069   1.079   3.116   7.265
 1899SOL     OW 6070   0.230   3.296   6.124
 1899SOL    HW1 6071   0.204   3.392   6.124
 1899SOL    HW2 6072   0.159   3.242   6.169
 1900SOL     OW 6073   0.240   2.953   6.472
 1900SOL    HW1 6074   0.254   2.869   6.524
 1900SOL    HW2 6075   0.185   3.017   6.527
 1901SOL     OW 6076   0.620   3.648   7.025
 1901SOL    HW1 6077   0.528   3.631   7.060
 1901SOL    HW2 6078   0.648   3.740   7.051
 1902SOL     OW 6079   0.606   2.826   5.709
 1902SOL    HW1 6080   0.613   2.910   5.655
 1902SOL    HW2 6081   0.652   2.839   5.797
 1903SOL     OW 6082   1.594   1.976   7.066
 1903SOL    HW1 6083   1.576   2.043   6.994
 1903SOL    HW2 6084   1.591   2.022   7.155
 1904SOL     OW 6085   0.122   2.505   6.149
 1904SOL    HW1 6086   0.077   2.417   6.166
 1904SOL    HW2 6087   0.121   2.559   6.233
 1905SOL     OW 6088   1.842   3.629   5.945
 1905SOL    HW1 6089   1.896   3.600   6.025
 1905SOL    HW2 6090   1.872   3.719   5.916
 1906SOL     OW 6091   0.027   3.458   5.703
 1906SOL    HW1 6092   0.008   3.362   5.724
 1906SOL    HW2 6093  -0.006   3.516   5.778
 1907SOL     OW 6094   1.689   2.784   6.198
 1907SOL    HW1 6095   1.784   2.755   6.206
 1907SOL    HW2 6096   1.681   2.849   6.123
 1908SOL     OW 6097   1.641   2.970   6.018
 1908SOL    HW1 6098   1.727   2.972   5.966
 1908SOL    HW2 6099   1.655   3.017   6.106
 1909SOL     OW 6100   0.113   2.599   7.183
 1909SOL    HW1 6101   0.201   2.586   7.228
 1909SOL    HW2 6102   0.100   2.696   7.161
 1910SOL     OW 6103   0.613   3.227   6.312
 1910SOL    HW1 6104   0.564   3.140   6.321
 1910SOL    HW2 6105   0.590   3.270   6.225
 1911SOL     OW 6106   1.293   3.090   7.009
 1911SOL    HW1 6107   1.330   3.017   6.951
 1911SOL    HW2 6108   1.345   3.095   7.094
 1912SOL     OW 6109   0.809   1.866   6.088
 1912SOL    HW1 6110   0.849   1.957   6.079
 1912SOL    HW2 6111   0.709   1.874   6.094
 1913SOL     OW 6112   0.197   2.838   6.850
 1913SOL    HW1 6113   0.286   2.793   6.836
 1913SOL    HW2 6114   0.124   2.773   6.831
 1914SOL     OW 6115   1.525   2.861   5.776
 1914SOL    HW1 6116   1.462   2.785   5.789
 1914SOL    HW2 6117   1.573   2.879   5.862
 1915SOL     OW 6118   1.187   3.654   7.202
 1915SOL    HW1 6119   1.211   3.714   7.126
 1915SOL    HW2 6120   1.194   3.559   7.172
 1916SOL     OW 6121   0.317   2.113   7.387
 1916SOL    HW1 6122   0.388   2.184   7.393
 1916SOL    HW2 6123   0.229   2.152   7.415
 1917SOL     OW 6124   1.466   3.279   6.539
 1917SOL    HW1 6125   1.407   3.285   6.619
 1917SOL    HW2 6126   1.451   3.191   6.493
 1918SOL     OW 6127   1.667   3.576   6.158
 1918SOL    HW1 6128   1.626   3.553   6.070
 1918SOL    HW2 6129   1.649   3.502   6.223
 1919SOL     OW 6130   0.598   2.591   5.856
 1919SOL    HW1 6131   0.622   2.660   5.788
 1919SOL    HW2 6132   0.520   2.624   5.910
 1920SOL     OW 6133   1.281   2.207   6.530
 1920SOL    HW1 6134   1.195   2.157   6.517
 1920SOL    HW2 6135   1.343   2.153   6.586
 1921SOL     OW 6136   1.576   3.524   5.893
 1921SOL    HW1 6137   1.665   3.570   5.896
 1921SOL    HW2 6138   1.555   3.500   5.798
 1922SOL     OW 6139   0.807   2.467   7.051
 1922SOL    HW1 6140   0.760   2.464   7.140
 1922SOL    HW2 6141   0.756   2.412   6.985
 1923SOL     OW 6142   1.394   2.331   7.260
 1923SOL    HW1 6143   1.374   2.374   7.348
 1923SOL    HW2 6144   1.472   2.269   7.269
 1924SOL     OW 6145   0.973   2.752   7.158
 1924SOL    HW1 6146   1.019   2.668   7.129
 1924SOL    HW2 6147   0.917   2.786   7.083
 1925SOL     OW 6148   0.991   2.272   6.828
 1925SOL    HW1 6149   0.914   2.306   6.882
 1925SOL    HW2 6150   0.957   2.221   6.749
 1926SOL     OW 6151   1.041   2.563   6.015
 1926SOL    HW1 6152   1.067   2.559   6.111
 1926SOL    HW2 6153   0.956   2.512   6.001
 1927SOL     OW 6154   0.076   2.673   6.375
 1927SOL    HW1 6155   0.175   2.661   6.384
 1927SOL    HW2 6156   0.052   2.768   6.396
 1928SOL     OW 6157   0.130   3.683   7.157
 1928SOL    HW1 6158   0.120   3.668   7.256
 1928SOL    HW2 6159   0.044   3.719   7.121
 1929SOL     OW 6160   0.865   2.210   5.781
 1929SOL    HW1 6161   0.924   2.273   5.732
 1929SOL    HW2 6162   0.884   2.116   5.752
 1930SOL     OW 6163   1.719   2.447   7.417
 1930SOL    HW1 6164   1.693   2.536   7.381
 1930SOL    HW2 6165   1.717   2.379   7.344
 1931SOL     OW 6166   1.362   3.006   6.131
 1931SOL    HW1 6167   1.445   2.977   6.083
 1931SOL    HW2 6168   1.313   3.073   6.075
 1932SOL     OW 6169   0.550   2.058   6.471
 1932SOL    HW1 6170   0.545   2.053   6.571
 1932SOL    HW2 6171   0.552   2.154   6.442
 1933SOL     OW 6172   1.008   3.318   6.063
 1933SOL    HW1 6173   0.962   3.390   6.011
 1933SOL    HW2 6174   1.004   3.338   6.161
 1934SOL     OW 6175   0.351   3.663   6.439
 1934SOL    HW1 6176   0.401   3.577   6.445
 1934SOL    HW2 6177   0.416   3.740   6.436
 1935SOL     OW 6178   1.795   2.928   6.459
 1935SOL    HW1 6179   1.733   2.913   6.383
 1935SOL    HW2 6180   1.743   2.939   6.544
 1936SOL     OW 6181   1.227   3.412   7.092
 1936SOL    HW1 6182   1.233   3.335   7.156
 1936SOL    HW2 6183   1.175   3.386   7.012
 1937SOL     OW 6184   0.321   2.805   5.828
 1937SOL    HW1 6185   0.403   2.844   5.786
 1937SOL    HW2 6186   0.294   2.723   5.779
 1938SOL     OW 6187   1.458   2.597   6.314
 1938SOL    HW1 6188   1.453   2.532   6.389
 1938SOL    HW2 6189   1.538   2.656   6.327
 1939SOL     OW 6190   0.461   3.128   7.313
 1939SOL    HW1 6191   0.411   3.129   7.227
 1939SOL    HW2 6192   0.398   3.110   7.389
 1940SOL     OW 6193   1.111   3.638   5.823
 1940SOL    HW1 6194   1.051   3.576   5.873
 1940SOL    HW2 6195   1.142   3.594   5.738
 1941SOL     OW 6196   0.202   2.147   7.084
 1941SOL    HW1 6197   0.122   2.207   7.071
 1941SOL    HW2 6198   0.192   2.098   7.170
 1942SOL     OW 6199   1.632   3.239   5.667
 1942SOL    HW1 6200   1.600   3.333   5.657
 1942SOL    HW2 6201   1.556   3.176   5.655
 1943SOL     OW 6202   0.464   3.605   5.909
 1943SOL    HW1 6203   0.497   3.644   5.995
 1943SOL    HW2 6204   0.540   3.598   5.844
 1944SOL     OW 6205   1.400   1.969   6.012
 1944SOL    HW1 6206   1.376   1.932   5.922
 1944SOL    HW2 6207   1.499   1.985   6.016
 1945SOL     OW 6208   0.249   3.647   6.827
 1945SOL    HW1 6209   0.306   3.582   6.877
 1945SOL    HW2 6210   0.233   3.614   6.734
 1946SOL     OW 6211   0.940   3.560   6.490
 1946SOL    HW1 6212   1.020   3.503   6.511
 1946SOL    HW2 6213   0.891   3.520   6.413
 1947SOL     OW 6214   0.382   2.562   6.066
 1947SOL    HW1 6215   0.427   2.472   6.063
 1947SOL    HW2 6216   0.288   2.551   6.099
 1948SOL     OW 6217   1.547   2.084   7.315
 1948SOL    HW1 6218   1.542   2.121   7.407
 1948SOL    HW2 6219   1.475   2.015   7.303
 1949SOL     OW 6220   0.614   1.984   5.703
 1949SOL    HW1 6221   0.712   1.962   5.710
 1949SOL    HW2 6222   0.583   1.967   5.610
 1950SOL     OW 6223   0.781   2.126   7.335
 1950SOL    HW1 6224   0.848   2.065   7.378
 1950SOL    HW2 6225   0.708   2.145   7.400
 1951SOL     OW 6226   0.888   3.376   6.781
 1951SOL    HW1 6227   0.865   3.351   6.687
 1951SOL    HW2 6228   0.949   3.307   6.820
 1952SOL     OW 6229   1.351   2.452   7.019
 1952SOL    HW1 6230   1.379   2.409   7.104
 1952SOL    HW2 6231   1.376   2.548   7.020
 1953SOL     OW 6232   0.803   3.264   6.510
 1953SOL    HW1 6233   0.893   3.278   6.468
 1953SOL    HW2 6234   0.732   3.266   6.439
 1954SOL     OW 6235   0.922   2.365   6.485
 1954SOL    HW1 6236   0.897   2.356   6.389
 1954SOL    HW2 6237   0.970   2.283   6.516
 1955SOL     OW 6238   0.539   1.926   6.098
 1955SOL    HW1 6239   0.458   1.927   6.156
 1955SOL    HW2 6240   0.542   2.009   6.043
 1956SOL     OW 6241   1.434   3.050   5.627
 1956SOL    HW1 6242   1.466   2.974   5.684
 1956SOL    HW2 6243   1.342   3.077   5.657
 1957SOL     OW 6244   0.297   1.897   5.757
 1957SOL    HW1 6245   0.346   1.981   5.736
 1957SOL    HW2 6246   0.359   1.832   5.802
 1958SOL     OW 6247   0.935   2.098   6.066
 1958SOL    HW1 6248   0.887   2.139   5.988
 1958SOL    HW2 6249   1.034   2.096   6.047
 1959SOL     OW 6250   1.076   2.545   7.050
 1959SOL    HW1 6251   0.996   2.484   7.053
 1959SOL    HW2 6252   1.157   2.492   7.026
 1960SOL     OW 6253   1.227   3.432   6.379
 1960SOL    HW1 6254   1.248   3.506   6.314
 1960SOL    HW2 6255   1.295   3.432   6.452
 1961SOL     OW 6256   0.459   3.014   6.327
 1961SOL    HW1 6257   0.388   2.987   6.392
 1961SOL    HW2 6258   0.433   2.986   6.234
 1962SOL     OW 6259   1.271   3.659   6.177
 1962SOL    HW1 6260   1.315   3.723   6.113
 1962SOL    HW2 6261   1.221   3.711   6.247
 1963SOL     OW 6262   1.032   2.411   5.602
 1963SOL    HW1 6263   0.991   2.493   5.563
 1963SOL    HW2 6264   1.096   2.437   5.675
 1964SOL     OW 6265   0.078   2.418   6.972
 1964SOL    HW1 6266   0.170   2.417   6.931
 1964SOL    HW2 6267   0.072   2.492   7.039
 1965SOL     OW 6268   0.561   2.084   6.733
 1965SOL    HW1 6269   0.599   2.000   6.770
 1965SOL    HW2 6270   0.473   2.103   6.777
 1966SOL     OW 6271   0.866   2.316   6.228
 1966SOL    HW1 6272   0.834   2.388   6.166
 1966SOL    HW2 6273   0.890   2.235   6.175
 1967SOL     OW 6274   1.017   1.901   6.339
 1967SOL    HW1 6275   0.945   1.906   6.270
 1967SOL    HW2 6276   0.993   1.832   6.408
 1968SOL     OW 6277   1.429   3.035   6.453
 1968SOL    HW1 6278   1.374   2.951   6.446
 1968SOL    HW2 6279   1.455   3.064   6.361
 1969SOL     OW 6280   1.466   2.452   6.578
 1969SOL    HW1 6281   1.436   2.357   6.585
 1969SOL    HW2 6282   1.539   2.468   6.644
 1970SOL     OW 6283   0.488   3.247   5.760
 1970SOL    HW1 6284   0.401   3.232   5.807
 1970SOL    HW2 6285   0.471   3.273   5.665
 1971SOL     OW 6286   1.664   3.142   6.243
 1971SOL    HW1 6287   1.763   3.150   6.257
 1971SOL    HW2 6288   1.619   3.226   6.274
 1972SOL     OW 6289   0.527   2.118   5.914
 1972SOL    HW1 6290   0.554   2.059   5.839
 1972SOL    HW2 6291   0.527   2.213   5.883
 1973SOL     OW 6292   1.754   3.085   7.174
 1973SOL    HW1 6293   1.845   3.046   7.161
 1973SOL    HW2 6294   1.762   3.181   7.198
 1974SOL     OW 6295   1.064   3.209   6.926
 1974SOL    HW1 6296   0.984   3.186   6.981
 1974SOL    HW2 6297   1.147   3.183   6.975
 1975SOL     OW 6298   1.592   3.491   7.211
 1975SOL    HW1 6299   1.619   3.525   7.121
 1975SOL    HW2 6300   1.671   3.453   7.257
 1976SOL     OW 6301   1.111   3.057   6.686
 1976SOL    HW1 6302   1.071   3.101   6.767
 1976SOL    HW2 6303   1.070   3.094   6.603
 1977SOL     OW 6304   1.638   2.961   6.665
 1977SOL    HW1 6305   1.643   3.042   6.724
 1977SOL    HW2 6306   1.552   2.963   6.614
 1978SOL     OW 6307   0.915   1.951   6.988
 1978SOL    HW1 6308   0.940   1.931   6.893
 1978SOL    HW2 6309   0.987   2.007   7.030
 1979SOL     OW 6310   0.980   2.978   7.305
 1979SOL    HW1 6311   0.881   2.984   7.315
 1979SOL    HW2 6312   1.003   2.898   7.249
 1980SOL     OW 6313   0.705   2.912   5.954
 1980SOL    HW1 6314   0.691   2.919   6.053
 1980SOL    HW2 6315   0.789   2.861   5.936
 1981SOL     OW 6316   0.410   2.675   6.837
 1981SOL    HW1 6317   0.496   2.687   6.887
 1981SOL    HW2 6318   0.368   2.588   6.864
 1982SOL     OW 6319   1.274   2.248   6.848
 1982SOL    HW1 6320   1.295   2.322   6.912
 1982SOL    HW2 6321   1.185   2.265   6.805
 1983SOL     OW 6322   0.064   3.426   6.917
 1983SOL    HW1 6323   0.018   3.508   6.883
 1983SOL    HW2 6324   0.162   3.445   6.926
 1984SOL     OW 6325   0.367   2.962   6.087
 1984SOL    HW1 6326   0.360   3.045   6.031
 1984SOL    HW2 6327   0.371   2.882   6.027
 1985SOL     OW 6328   0.566   2.399   6.451
 1985SOL    HW1 6329   0.578   2.465   6.377
 1985SOL    HW2 6330   0.612   2.433   6.534
 1986SOL     OW 6331   1.252   3.210   5.974
 1986SOL    HW1 6332   1.302   3.287   6.014
 1986SOL    HW2 6333   1.157   3.212   6.006
 1987SOL     OW 6334   1.272   3.307   6.728
 1987SOL    HW1 6335   1.319   3.320   6.815
 1987SOL    HW2 6336   1.206   3.233   6.737
 1988SOL     OW 6337   1.582   2.501   6.058
 1988SOL    HW1 6338   1.551   2.562   6.131
 1988SOL    HW2 6339   1.632   2.553   5.989
 1989SOL     OW 6340   0.354   3.372   6.915
 1989SOL    HW1 6341   0.333   3.328   6.828
 1989SOL    HW2 6342   0.451   3.398   6.918
 1990SOL     OW 6343   0.402   2.613   7.184
 1990SOL    HW1 6344   0.470   2.668   7.137
 1990SOL    HW2 6345   0.442   2.525   7.211
 1991SOL     OW 6346   1.587   2.641   7.256
 1991SOL    HW1 6347   1.495   2.679   7.251
 1991SOL    HW2 6348   1.647   2.688   7.191
 1992SOL     OW 6349   1.013   1.967   7.356
 1992SOL    HW1 6350   1.019   2.052   7.304
 1992SOL    HW2 6351   1.045   1.891   7.299
 1993SOL     OW 6352   0.504   1.912   7.326
 1993SOL    HW1 6353   0.462   1.855   7.256
 1993SOL    HW2 6354   0.438   1.981   7.358
 1994SOL     OW 6355   0.573   2.732   6.615
 1994SOL    HW1 6356   0.617   2.821   6.606
 1994SOL    HW2 6357   0.510   2.732   6.692
 1995SOL     OW 6358   1.360   2.724   6.631
 1995SOL    HW1 6359   1.285   2.724   6.565
 1995SOL    HW2 6360   1.397   2.632   6.640
 1996SOL     OW 6361   1.209   2.387   5.861
 1996SOL    HW1 6362   1.222   2.303   5.915
 1996SOL    HW2 6363   1.180   2.461   5.921
 1997SOL     OW 6364   0.307   2.075   6.817
 1997SOL    HW1 6365   0.284   2.112   6.907
 1997SOL    HW2 6366   0.277   1.980   6.811
 1998SOL     OW 6367   0.037   3.172   6.868
 1998SOL    HW1 6368   0.090   3.123   6.936
 1998SOL    HW2 6369   0.059   3.270   6.873
 1999SOL     OW 6370   0.732   2.496   6.650
 1999SOL    HW1 6371   0.791   2.470   6.574
 1999SOL    HW2 6372   0.704   2.592   6.639
 2000SOL     OW 6373   1.728   2.797   7.440
 2000SOL    HW1 6374   1.682   2.790   7.351
 2000SOL    HW2 6375   1.666   2.841   7.506
 2001SOL     OW 6376   0.307   1.925   6.204
 2001SOL    HW1 6377   0.296   2.019   6.237
 2001SOL    HW2 6378   0.302   1.862   6.281
 2002SOL     OW 6379   1.023   2.628   6.552
 2002SOL    HW1 6380   1.038   2.649   6.648
 2002SOL    HW2 6381   0.993   2.533   6.543
 2003SOL     OW 6382   0.980   3.435   7.286
 2003SOL    HW1 6383   0.960   3.479   7.198
 2003SOL    HW2 6384   1.019   3.344   7.270
 2004SOL     OW 6385   1.859   3.380   7.191
 2004SOL    HW1 6386   1.873   3.407   7.096
 2004SOL    HW2 6387   1.942   3.402   7.244
 2005SOL     OW 6388   0.350   2.760   7.390
 2005SOL    HW1 6389   0.426   2.804   7.438
 2005SOL    HW2 6390   0.385   2.713   7.308
 2006SOL     OW 6391   1.303   2.700   5.628
 2006SOL    HW1 6392   1.337   2.607   5.643
 2006SOL    HW2 6393   1.321   2.727   5.533
 2007SOL     OW 6394   1.068   3.195   6.435
 2007SOL    HW1 6395   1.075   3.111   6.380
 2007SOL    HW2 6396   1.130   3.264   6.399
 2008SOL     OW 6397   0.319   2.672   6.535
 2008SOL    HW1 6398   0.412   2.708   6.540
 2008SOL    HW2 6399   0.313   2.587   6.587
 2009SOL     OW 6400   0.339   2.371   6.592
 2009SOL    HW1 6401   0.287   2.288   6.575
 2009SOL    HW2 6402   0.416   2.376   6.528
 2010SOL     OW 6403   1.138   2.242   7.264
 2010SOL    HW1 6404   1.093   2.305   7.328
 2010SOL    HW2 6405   1.231   2.273   7.247
 2011SOL     OW 6406   1.160   2.069   7.063
 2011SOL    HW1 6407   1.160   2.133   7.140
 2011SOL    HW2 6408   1.188   2.117   6.980
 2012SOL     OW 6409   0.008   3.188   5.786
 2012SOL    HW1 6410  -0.085   3.209   5.755
 2012SOL    HW2 6411   0.018   3.089   5.799
 2013SOL     OW 6412   0.088   3.663   6.513
 2013SOL    HW1 6413   0.046   3.577   6.486
 2013SOL    HW2 6414   0.182   3.666   6.479
 2014SOL     OW 6415   0.504   3.430   6.496
 2014SOL    HW1 6416   0.570   3.504   6.505
 2014SOL    HW2 6417   0.548   3.351   6.454
 2015SOL     OW 6418   1.002   2.658   6.824
 2015SOL    HW1 6419   1.043   2.626   6.910
 2015SOL    HW2 6420   0.906   2.631   6.821
 2016SOL     OW 6421   0.040   2.406   6.700
 2016SOL    HW1 6422   0.125   2.373   6.659
 2016SOL    HW2 6423   0.053   2.421   6.798
 2017SOL     OW 6424   0.189   2.382   7.308
 2017SOL    HW1 6425   0.248   2.342   7.238
 2017SOL    HW2 6426   0.131   2.453   7.267
 2018SOL     OW 6427   1.369   2.812   7.246
 2018SOL    HW1 6428   1.408   2.901   7.266
 2018SOL    HW2 6429   1.379   2.792   7.149
 2019SOL     OW 6430   0.815   2.434   5.911
 2019SOL    HW1 6431   0.822   2.345   5.865
 2019SOL    HW2 6432   0.721   2.468   5.903
 2020SOL     OW 6433   1.657   2.466   6.792
 2020SOL    HW1 6434   1.619   2.397   6.854
 2020SOL    HW2 6435   1.739   2.430   6.748
 2021SOL     OW 6436   0.252   3.426   7.330
 2021SOL    HW1 6437   0.222   3.483   7.406
 2021SOL    HW2 6438   0.245   3.329   7.356
 2022SOL     OW 6439   0.671   2.326   6.855
 2022SOL    HW1 6440   0.637   2.237   6.825
 2022SOL    HW2 6441   0.697   2.380   6.775
 2023SOL     OW 6442   0.930   3.540   7.051
 2023SOL    HW1 6443   0.906   3.522   6.956
 2023SOL    HW2 6444   0.960   3.634   7.061
 2024SOL     OW 6445   0.473   2.362   5.777
 2024SOL    HW1 6446   0.534   2.442   5.781
 2024SOL    HW2 6447   0.378   2.393   5.784
 2025SOL     OW 6448   0.159   2.999   7.052
 2025SOL    HW1 6449   0.181   2.938   7.128
 2025SOL    HW2 6450   0.169   2.950   6.966
 2026SOL     OW 6451   1.347   2.921   6.820
 2026SOL    HW1 6452   1.371   2.858   6.746
 2026SOL    HW2 6453   1.257   2.961   6.802
 2027SOL     OW 6454   1.302   2.717   5.895
 2027SOL    HW1 6455   1.216   2.686   5.937
 2027SOL    HW2 6456   1.298   2.703   5.796
 2028SOL     OW 6457   1.759   3.609   6.740
 2028SOL    HW1 6458   1.820   3.639   6.667
 2028SOL    HW2 6459   1.721   3.520   6.718
 2029SOL     OW 6460   1.252   3.593   6.714
 2029SOL    HW1 6461   1.336   3.598   6.660
 2029SOL    HW2 6462   1.229   3.497   6.732
 2030SOL     OW 6463   0.083   3.120   6.608
 2030SOL    HW1 6464   0.078   3.119   6.708
 2030SOL    HW2 6465   0.000   3.079   6.570
 2031SOL     OW 6466   0.688   3.524   7.302
 2031SOL    HW1 6467   0.632   3.605   7.311
 2031SOL    HW2 6468   0.740   3.528   7.216
 2032SOL     OW 6469   1.726   1.997   6.109
 2032SOL    HW1 6470   1.799   1.980   6.042
 2032SOL    HW2 6471   1.695   1.910   6.147
 2033SOL     OW 6472   1.388   3.435   6.063
 2033SOL    HW1 6473   1.455   3.447   5.989
 2033SOL    HW2 6474   1.348   3.524   6.086
 2034SOL     OW 6475   0.130   3.656   7.437
 2034SOL    HW1 6476   0.089   3.582   7.490
 2034SOL    HW2 6477   0.194   3.707   7.495
 2035SOL     OW 6478   1.280   2.789   6.258
 2035SOL    HW1 6479   1.340   2.708   6.260
 2035SOL    HW2 6480   1.320   2.858   6.198
 2036SOL     OW 6481   0.830   3.135   7.008
 2036SOL    HW1 6482   0.825   3.168   7.103
 2036SOL    HW2 6483   0.744   3.154   6.962
 2037SOL     OW 6484   0.672   3.478   5.740
 2037SOL    HW1 6485   0.681   3.488   5.641
 2037SOL    HW2 6486   0.632   3.389   5.761
 2038SOL     OW 6487   1.650   3.582   6.980
 2038SOL    HW1 6488   1.703   3.592   6.896
 2038SOL    HW2 6489   1.623   3.672   7.014
 2039SOL     OW 6490   1.841   2.037   6.549
 2039SOL    HW1 6491   1.880   1.952   6.513
 2039SOL    HW2 6492   1.743   2.039   6.530
 2040SOL     OW 6493   0.263   2.188   6.306
 2040SOL    HW1 6494   0.184   2.239   6.272
 2040SOL    HW2 6495   0.254   2.173   6.404
 2041SOL     OW 6496   1.194   3.474   5.617
 2041SOL    HW1 6497   1.200   3.381   5.654
 2041SOL    HW2 6498   1.135   3.474   5.537
 2042SOL     OW 6499   0.822   2.864   6.958
 2042SOL    HW1 6500   0.862   2.863   6.866
 2042SOL    HW2 6501   0.832   2.956   6.998
 2043SOL     OW 6502   0.916   2.772   5.877
 2043SOL    HW1 6503   0.979   2.810   5.809
 2043SOL    HW2 6504   0.956   2.689   5.916
 2044SOL     OW 6505   1.504   3.469   5.630
 2044SOL    HW1 6506   1.412   3.506   5.637
 2044SOL    HW2 6507   1.542   3.489   5.540
 2045SOL     OW 6508   0.372   3.150   7.076
 2045SOL    HW1 6509   0.359   3.243   7.042
 2045SOL    HW2 6510   0.288   3.098   7.063
 2046SOL     OW 6511   1.614   3.154   6.875
 2046SOL    HW1 6512   1.674   3.157   6.955
 2046SOL    HW2 6513   1.539   3.218   6.888
 2047SOL     OW 6514   1.039   2.960   6.282
 2047SOL    HW1 6515   0.969   2.913   6.336
 2047SOL    HW2 6516   1.098   2.892   6.239
 2048SOL     OW 6517   1.014   2.098   6.557
 2048SOL    HW1 6518   1.006   2.062   6.464
 2048SOL    HW2 6519   1.012   2.022   6.622
 2049SOL     OW 6520   0.590   3.349   6.077
 2049SOL    HW1 6521   0.632   3.291   6.007
 2049SOL    HW2 6522   0.546   3.428   6.033
 2050SOL     OW 6523   1.709   2.247   6.967
 2050SOL    HW1 6524   1.782   2.316   6.971
 2050SOL    HW2 6525   1.737   2.172   6.908
 2051SOL     OW 6526   0.255   3.210   5.876
 2051SOL    HW1 6527   0.159   3.211   5.849
 2051SOL    HW2 6528   0.267   3.263   5.960
 2052SOL     OW 6529   0.105   2.875   7.312
 2052SOL    HW1 6530   0.028   2.842   7.366
 2052SOL    HW2 6531   0.190   2.845   7.354
 2053SOL     OW 6532   0.672   2.065   7.075
 2053SOL    HW1 6533   0.762   2.049   7.035
 2053SOL    HW2 6534   0.680   2.070   7.174
 2054SOL     OW 6535   0.075   2.207   5.619
 2054SOL    HW1 6536  -0.017   2.179   5.590
 2054SOL    HW2 6537   0.106   2.284   5.563
 2055SOL     OW 6538   1.440   2.718   6.984
 2055SOL    HW1 6539   1.383   2.770   6.921
 2055SOL    HW2 6540   1.536   2.730   6.960
 2056SOL     OW 6541   0.072   2.028   5.904
 2056SOL    HW1 6542   0.055   2.111   5.850
 2056SOL    HW2 6543   0.162   1.991   5.882
 2057SOL     OW 6544   1.183   3.197   5.705
 2057SOL    HW1 6545   1.084   3.186   5.707
 2057SOL    HW2 6546   1.217   3.212   5.798
 2058SOL     OW 6547   0.613   2.704   7.017
 2058SOL    HW1 6548   0.669   2.785   7.000
 2058SOL    HW2 6549   0.672   2.624   7.020
 2059SOL     OW 6550   1.493   3.629   6.545
 2059SOL    HW1 6551   1.526   3.693   6.476
 2059SOL    HW2 6552   1.559   3.623   6.620
 2060SOL     OW 6553   0.716   2.427   7.294
 2060SOL    HW1 6554   0.735   2.492   7.368
 2060SOL    HW2 6555   0.776   2.347   7.303
 2061SOL     OW 6556   1.450   3.082   7.219
 2061SOL    HW1 6557   1.441   3.072   7.318
 2061SOL    HW2 6558   1.546   3.075   7.193
 2062SOL     OW 6559   0.390   3.603   7.146
 2062SOL    HW1 6560   0.299   3.644   7.144
 2062SOL    HW2 6561   0.383   3.509   7.178
 2063SOL     OW 6562   1.674   2.745   6.840
 2063SOL    HW1 6563   1.647   2.656   6.803
 2063SOL    HW2 6564   1.675   2.813   6.767
 2064SOL     OW 6565   1.225   2.187   6.035
 2064SOL    HW1 6566   1.290   2.113   6.024
 2064SOL    HW2 6567   1.245   2.237   6.119
 2065SOL     OW 6568   0.594   2.607   6.238
 2065SOL    HW1 6569   0.644   2.692   6.219
 2065SOL    HW2 6570   0.506   2.609   6.190
 2066SOL     OW 6571   1.777   2.204   7.228
 2066SOL    HW1 6572   1.760   2.235   7.134
 2066SOL    HW2 6573   1.693   2.167   7.266
 2067SOL     OW 6574   1.730   2.796   7.103
 2067SOL    HW1 6575   1.768   2.887   7.118
 2067SOL    HW2 6576   1.722   2.779   7.004
 2068SOL     OW 6577   0.859   3.236   5.602
 2068SOL    HW1 6578   0.813   3.251   5.690
 2068SOL    HW2 6579   0.903   3.321   5.572
 2069SOL     OW 6580   0.661   3.652   6.539
 2069SOL    HW1 6581   0.615   3.740   6.526
 2069SOL    HW2 6582   0.760   3.664   6.532
 2070SOL     OW 6583   0.859   2.818   6.447
 2070SOL    HW1 6584   0.913   2.749   6.495
 2070SOL    HW2 6585   0.827   2.887   6.513
 2071SOL     OW 6586   1.083   2.846   5.673
 2071SOL    HW1 6587   1.060   2.899   5.591
 2071SOL    HW2 6588   1.164   2.790   5.654
 2072SOL     OW 6589   1.861   3.431   6.437
 2072SOL    HW1 6590   1.790   3.419   6.367
 2072SOL    HW2 6591   1.862   3.352   6.497
 2073SOL     OW 6592   0.221   3.176   7.430
 2073SOL    HW1 6593   0.156   3.103   7.409
 2073SOL    HW2 6594   0.225   3.190   7.528
 2074SOL     OW 6595   0.079   3.102   6.239
 2074SOL    HW1 6596   0.078   3.055   6.327
 2074SOL    HW2 6597   0.161   3.074   6.188
 2075SOL     OW 6598   0.672   3.253   7.210
 2075SOL    HW1 6599   0.594   3.203   7.248
 2075SOL    HW2 6600   0.669   3.348   7.241
 2076SOL     OW 6601   1.824   2.054   6.813
 2076SOL    HW1 6602   1.820   1.964   6.857
 2076SOL    HW2 6603   1.827   2.043   6.714
 2077SOL     OW 6604   0.428   2.286   6.106
 2077SOL    HW1 6605   0.458   2.214   6.044
 2077SOL    HW2 6606   0.389   2.246   6.189
 2078SOL     OW 6607   1.705   3.349   6.690
 2078SOL    HW1 6608   1.612   3.324   6.663
 2078SOL    HW2 6609   1.731   3.299   6.772
 2079SOL     OW 6610   0.317   2.409   6.866
 2079SOL    HW1 6611   0.355   2.350   6.938
 2079SOL    HW2 6612   0.357   2.383   6.778
 2080SOL     OW 6613   0.812   3.448   6.273
 2080SOL    HW1 6614   0.844   3.458   6.179
 2080SOL    HW2 6615   0.733   3.386   6.275
 2081SOL     OW 6616   1.424   2.076   6.698
 2081SOL    HW1 6617   1.476   2.011   6.753
 2081SOL    HW2 6618   1.375   2.139   6.759
 2082SOL     OW 6619   1.001   1.896   6.740
 2082SOL    HW1 6620   0.938   1.824   6.709
 2082SOL    HW2 6621   1.094   1.860   6.740
 2083SOL     OW 6622   0.770   3.192   5.887
 2083SOL    HW1 6623   0.724   3.105   5.904
 2083SOL    HW2 6624   0.861   3.189   5.928
 2084SOL     OW 6625   0.618   3.429   6.870
 2084SOL    HW1 6626   0.613   3.511   6.927
 2084SOL    HW2 6627   0.707   3.426   6.825
 2085SOL     OW 6628   1.352   1.914   5.754
 2085SOL    HW1 6629   1.387   1.873   5.670
 2085SOL    HW2 6630   1.262   1.876   5.774
 2086SOL     OW 6631   1.300   2.315   6.277
 2086SOL    HW1 6632   1.241   2.395   6.281
 2086SOL    HW2 6633   1.315   2.280   6.370
 2087SOL     OW 6634   1.593   2.083   6.468
 2087SOL    HW1 6635   1.509   2.082   6.522
 2087SOL    HW2 6636   1.595   2.166   6.412
 2088SOL     OW 6637   0.039   2.939   5.886
 2088SOL    HW1 6638   0.138   2.928   5.877
 2088SOL    HW2 6639  -0.001   2.853   5.918
 2089SOL     OW 6640   0.875   3.508   5.923
 2089SOL    HW1 6641   0.798   3.473   5.869
 2089SOL    HW2 6642   0.843   3.579   5.985
 2090SOL     OW 6643   0.230   2.490   7.561
 2090SOL    HW1 6644   0.137   2.488   7.598
 2090SOL    HW2 6645   0.231   2.451   7.469
 2091SOL     OW 6646   0.225   2.137   8.444
 2091SOL    HW1 6647   0.260   2.120   8.536
 2091SOL    HW2 6648   0.137   2.092   8.432
 2092SOL     OW 6649   0.019   2.230   8.095
 2092SOL    HW1 6650  -0.063   2.273   8.134
 2092SOL    HW2 6651  -0.009   2.157   8.032
 2093SOL     OW 6652   0.569   3.137   8.613
 2093SOL    HW1 6653   0.476   3.130   8.576
 2093SOL    HW2 6654   0.580   3.226   8.657
 2094SOL     OW 6655   1.555   3.373   8.151
 2094SOL    HW1 6656   1.498   3.357   8.232
 2094SOL    HW2 6657   1.496   3.383   8.071
 2095SOL     OW 6658   1.135   2.565   8.165
 2095SOL    HW1 6659   1.192   2.643   8.140
 2095SOL    HW2 6660   1.075   2.591   8.241
 2096SOL     OW 6661   1.755   2.469   7.679
 2096SOL    HW1 6662   1.743   2.456   7.580
 2096SOL    HW2 6663   1.725   2.388   7.728
 2097SOL     OW 6664   0.768   3.006   8.471
 2097SOL    HW1 6665   0.690   3.023   8.531
 2097SOL    HW2 6666   0.802   3.093   8.435
 2098SOL     OW 6667   0.850   2.660   9.271
 2098SOL    HW1 6668   0.846   2.736   9.336
 2098SOL    HW2 6669   0.872   2.696   9.180
 2099SOL     OW 6670   0.685   2.874   8.113
 2099SOL    HW1 6671   0.754   2.858   8.183
 2099SOL    HW2 6672   0.612   2.931   8.151
 2100SOL     OW 6673   0.686   3.023   9.251
 2100SOL    HW1 6674   0.746   3.102   9.265
 2100SOL    HW2 6675   0.600   3.054   9.210
 2101SOL     OW 6676   0.335   3.297   8.509
 2101SOL    HW1 6677   0.257   3.266   8.456
 2101SOL    HW2 6678   0.393   3.355   8.452
 2102SOL     OW 6679   1.460   3.367   8.787
 2102SOL    HW1 6680   1.484   3.461   8.813
 2102SOL    HW2 6681   1.444   3.313   8.869
 2103SOL     OW 6682   0.438   2.254   8.947
 2103SOL    HW1 6683   0.520   2.198   8.956
 2103SOL    HW2 6684   0.357   2.196   8.951
 2104SOL     OW 6685   1.603   2.309   8.185
 2104SOL    HW1 6686   1.529   2.355   8.135
 2104SOL    HW2 6687   1.654   2.377   8.238
 2105SOL     OW 6688   0.231   3.575   7.931
 2105SOL    HW1 6689   0.265   3.652   7.985
 2105SOL    HW2 6690   0.275   3.575   7.841
 2106SOL     OW 6691   1.127   3.203   9.138
 2106SOL    HW1 6692   1.174   3.203   9.226
 2106SOL    HW2 6693   1.079   3.116   9.127
 2107SOL     OW 6694   0.230   3.296   7.986
 2107SOL    HW1 6695   0.204   3.392   7.986
 2107SOL    HW2 6696   0.159   3.242   8.031
 2108SOL     OW 6697   0.240   2.953   8.334
 2108SOL    HW1 6698   0.254   2.869   8.386
 2108SOL    HW2 6699   0.185   3.017   8.389
 2109SOL     OW 6700   0.620   3.648   8.887
 2109SOL    HW1 6701   0.528   3.631   8.922
 2109SOL    HW2 6702   0.648   3.740   8.913
 2110SOL     OW 6703   0.606   2.826   7.571
 2110SOL    HW1 6704   0.613   2.910   7.517
 2110SOL    HW2 6705   0.652   2.839   7.659
 2111SOL     OW 6706   1.594   1.976   8.928
 2111SOL    HW1 6707   1.576   2.043   8.856
 2111SOL    HW2 6708   1.591   2.022   9.017
 2112SOL     OW 6709   0.122   2.505   8.011
 2112SOL    HW1 6710   0.077   2.417   8.028
 2112SOL    HW2 6711   0.121   2.559   8.095
 2113SOL     OW 6712   1.842   3.629   7.807
 2113SOL    HW1 6713   1.896   3.600   7.887
 2113SOL    HW2 6714   1.872   3.719   7.778
 2114SOL     OW 6715   0.027   3.458   7.565
 2114SOL    HW1 6716   0.008   3.362   7.586
 2114SOL    HW2 6717  -0.006   3.516   7.640
 2115SOL     OW 6718   1.689   2.784   8.060
 2115SOL    HW1 6719   1.784   2.755   8.068
 2115SOL    HW2 6720   1.681   2.849   7.985
 2116SOL     OW 6721   1.641   2.970   7.880
 2116SOL    HW1 6722   1.727   2.972   7.828
 2116SOL    HW2 6723   1.655   3.017   7.968
 2117SOL     OW 6724   0.113   2.599   9.045
 2117SOL    HW1 6725   0.201   2.586   9.090
 2117SOL    HW2 6726   0.100   2.696   9.023
 2118SOL     OW 6727   0.613   3.227   8.174
 2118SOL    HW1 6728   0.564   3.140   8.183
 2118SOL    HW2 6729   0.590   3.270   8.087
 2119SOL     OW 6730   1.293   3.090   8.871
 2119SOL    HW1 6731   1.330   3.017   8.813
 2119SOL    HW2 6732   1.345   3.095   8.956
 2120SOL     OW 6733   0.809   1.866   7.950
 2120SOL    HW1 6734   0.849   1.957   7.941
 2120SOL    HW2 6735   0.709   1.874   7.956
 2121SOL     OW 6736   0.197   2.838   8.712
 2121SOL    HW1 6737   0.286   2.793   8.698
 2121SOL    HW2 6738   0.124   2.773   8.693
 2122SOL     OW 6739   1.525   2.861   7.638
 2122SOL    HW1 6740   1.462   2.785   7.651
 2122SOL    HW2 6741   1.573   2.879   7.724
 2123SOL     OW 6742   1.187   3.654   9.064
 2123SOL    HW1 6743   1.211   3.714   8.988
 2123SOL    HW2 6744   1.194   3.559   9.034
 2124SOL     OW 6745   0.317   2.113   9.249
 2124SOL    HW1 6746   0.388   2.184   9.255
 2124SOL    HW2 6747   0.229   2.152   9.277
 2125SOL     OW 6748   1.466   3.279   8.401
 2125SOL    HW1 6749   1.407   3.285   8.481
 2125SOL    HW2 6750   1.451   3.191   8.355
 2126SOL     OW 6751   1.667   3.576   8.020
 2126SOL    HW1 6752   1.626   3.553   7.932
 2126SOL    HW2 6753   1.649   3.502   8.085
 2127SOL     OW 6754   0.598   2.591   7.718
 2127SOL    HW1 6755   0.622   2.660   7.650
 2127SOL    HW2 6756   0.520   2.624   7.772
 2128SOL     OW 6757   1.281   2.207   8.392
 2128SOL    HW1 6758   1.195   2.157   8.379
 2128SOL    HW2 6759   1.343   2.153   8.448
 2129SOL     OW 6760   1.576   3.524   7.755
 2129SOL    HW1 6761   1.665   3.570   7.758
 2129SOL    HW2 6762   1.555   3.500   7.660
 2130SOL     OW 6763   0.807   2.467   8.913
 2130SOL    HW1 6764   0.760   2.464   9.002
 2130SOL    HW2 6765   0.756   2.412   8.847
 2131SOL     OW 6766   1.394   2.331   9.122
 2131SOL    HW1 6767   1.374   2.374   9.210
 2131SOL    HW2 6768   1.472   2.269   9.131
 2132SOL     OW 6769   0.973   2.752   9.020
 2132SOL    HW1 6770   1.019   2.668   8.991
 2132SOL    HW2 6771   0.917   2.786   8.945
 2133SOL     OW 6772   0.991   2.272   8.690
 2133SOL    HW1 6773   0.914   2.306   8.744
 2133SOL    HW2 6774   0.957   2.221   8.611
 2134SOL     OW 6775   1.041   2.563   7.877
 2134SOL    HW1 6776   1.067   2.559   7.973
 2134SOL    HW2 6777   0.956   2.512   7.863
 2135SOL     OW 6778   0.076   2.673   8.237
 2135SOL    HW1 6779   0.175   2.661   8.246
 2135SOL    HW2 6780   0.052   2.768   8.258
 2136SOL     OW 6781   0.130   3.683   9.019
 2136SOL    HW1 6782   0.120   3.668   9.118
 2136SOL    HW2 6783   0.044   3.719   8.983
 2137SOL     OW 6784   0.865   2.210   7.643
 2137SOL    HW1 6785   0.924   2.273   7.594
 2137SOL    HW2 6786   0.884   2.116   7.614
 2138SOL     OW 6787   1.719   2.447   9.279
 2138SOL    HW1 6788   1.693   2.536   9.243
 2138SOL    HW2 6789   1.717   2.379   9.206
 2139SOL     OW 6790   1.362   3.006   7.993
 2139SOL    HW1 6791   1.445   2.977   7.945
 2139SOL    HW2 6792   1.313   3.073   7.937
 2140SOL     OW 6793   0.550   2.058   8.333
 2140SOL    HW1 6794   0.545   2.053   8.433
 2140SOL    HW2 6795   0.552   2.154   8.304
 2141SOL     OW 6796   1.008   3.318   7.925
 2141SOL    HW1 6797   0.962   3.390   7.873
 2141SOL    HW2 6798   1.004   3.338   8.023
 2142SOL     OW 6799   0.351   3.663   8.301
 2142SOL    HW1 6800   0.401   3.577   8.307
 2142SOL    HW2 6801   0.416   3.740   8.298
 2143SOL     OW 6802   1.795   2.928   8.321
 2143SOL    HW1 6803   1.733   2.913   8.245
 2143SOL    HW2 6804   1.743   2.939   8.406
 2144SOL     OW 6805   1.227   3.412   8.954
 2144SOL    HW1 6806   1.233   3.335   9.018
 2144SOL    HW2 6807   1.175   3.386   8.874
 2145SOL     OW 6808   0.321   2.805   7.690
 2145SOL    HW1 6809   0.403   2.844   7.648
 2145SOL    HW2 6810   0.294   2.723   7.641
 2146SOL     OW 6811   1.458   2.597   8.176
 2146SOL    HW1 6812   1.453   2.532   8.251
 2146SOL    HW2 6813   1.538   2.656   8.189
 2147SOL     OW 6814   0.461   3.128   9.175
 2147SOL    HW1 6815   0.411   3.129   9.089
 2147SOL    HW2 6816   0.398   3.110   9.251
 2148SOL     OW 6817   1.111   3.638   7.685
 2148SOL    HW1 6818   1.051   3.576   7.735
 2148SOL    HW2 6819   1.142   3.594   7.600
 2149SOL     OW 6820   0.202   2.147   8.946
 2149SOL    HW1 6821   0.122   2.207   8.933
 2149SOL    HW2 6822   0.192   2.098   9.032
 2150SOL     OW 6823   1.632   3.239   7.529
 2150SOL    HW1 6824   1.600   3.333   7.519
 2150SOL    HW2 6825   1.556   3.176   7.517
 2151SOL     OW 6826   0.464   3.605   7.771
 2151SOL    HW1 6827   0.497   3.644   7.857
 2151SOL    HW2 6828   0.540   3.598   7.706
 2152SOL     OW 6829   1.400   1.969   7.874
 2152SOL    HW1 6830   1.376   1.932   7.784
 2152SOL    HW2 6831   1.499   1.985   7.878
 2153SOL     OW 6832   0.249   3.647   8.689
 2153SOL    HW1 6833   0.306   3.582   8.739
 2153SOL    HW2 6834   0.233   3.614   8.596
 2154SOL     OW 6835   0.940   3.560   8.352
 2154SOL    HW1 6836   1.020   3.503   8.373
 2154SOL    HW2 6837   0.891   3.520   8.275
 2155SOL     OW 6838   0.382   2.562   7.928
 2155SOL    HW1 6839   0.427   2.472   7.925
 2155SOL    HW2 6840   0.288   2.551   7.961
 2156SOL     OW 6841   1.547   2.084   9.177
 2156SOL    HW1 6842   1.542   2.121   9.269
 2156SOL    HW2 6843   1.475   2.015   9.165
 2157SOL     OW 6844   0.614   1.984   7.565
 2157SOL    HW1 6845   0.712   1.962   7.572
 2157SOL    HW2 6846   0.583   1.967   7.472
 2158SOL     OW 6847   0.781   2.126   9.197
 2158SOL    HW1 6848   0.848   2.065   9.240
 2158SOL    HW2 6849   0.708   2.145   9.262
 2159SOL     OW 6850   0.888   3.376   8.643
 2159SOL    HW1 6851   0.865   3.351   8.549
 2159SOL    HW2 6852   0.949   3.307   8.682
 2160SOL     OW 6853   1.351   2.452   8.881
 2160SOL    HW1 6854   1.379   2.409   8.966
 2160SOL    HW2 6855   1.376   2.548   8.882
 2161SOL     OW 6856   0.803   3.264   8.372
 2161SOL    HW1 6857   0.893   3.278   8.330
 2161SOL    HW2 6858   0.732   3.266   8.301
 2162SOL     OW 6859   0.922   2.365   8.347
 2162SOL    HW1 6860   0.897   2.356   8.251
 2162SOL    HW2 6861   0.970   2.283   8.378
 2163SOL     OW 6862   0.539   1.926   7.960
 2163SOL    HW1 6863   0.458   1.927   8.018
 2163SOL    HW2 6864   0.542   2.009   7.905
 2164SOL     OW 6865   1.434   3.050   7.489
 2164SOL    HW1 6866   1.466   2.974   7.546
 2164SOL    HW2 6867   1.342   3.077   7.519
 2165SOL     OW 6868   0.297   1.897   7.619
 2165SOL    HW1 6869   0.346   1.981   7.598
 2165SOL    HW2 6870   0.359   1.832   7.664
 2166SOL     OW 6871   0.935   2.098   7.928
 2166SOL    HW1 6872   0.887   2.139   7.850
 2166SOL    HW2 6873   1.034   2.096   7.909
 2167SOL     OW 6874   1.076   2.545   8.912
 2167SOL    HW1 6875   0.996   2.484   8.915
 2167SOL    HW2 6876   1.157   2.492   8.888
 2168SOL     OW 6877   1.227   3.432   8.241
 2168SOL    HW1 6878   1.248   3.506   8.176
 2168SOL    HW2 6879   1.295   3.432   8.314
 2169SOL     OW 6880   0.459   3.014   8.189
 2169SOL    HW1 6881   0.388   2.987   8.254
 2169SOL    HW2 6882   0.433   2.986   8.096
 2170SOL     OW 6883   1.271   3.659   8.039
 2170SOL    HW1 6884   1.315   3.723   7.975
 2170SOL    HW2 6885   1.221   3.711   8.109
 2171SOL     OW 6886   1.032   2.411   7.464
 2171SOL    HW1 6887   0.991   2.493   7.425
 2171SOL    HW2 6888   1.096   2.437   7.537
 2172SOL     OW 6889   0.078   2.418   8.834
 2172SOL    HW1 6890   0.170   2.417   8.793
 2172SOL    HW2 6891   0.072   2.492   8.901
 2173SOL     OW 6892   0.561   2.084   8.595
 2173SOL    HW1 6893   0.599   2.000   8.632
 2173SOL    HW2 6894   0.473   2.103   8.639
 2174SOL     OW 6895   0.866   2.316   8.090
 2174SOL    HW1 6896   0.834   2.388   8.028
 2174SOL    HW2 6897   0.890   2.235   8.037
 2175SOL     OW 6898   1.017   1.901   8.201
 2175SOL    HW1 6899   0.945   1.906   8.132
 2175SOL    HW2 6900   0.993   1.832   8.270
 2176SOL     OW 6901   1.429   3.035   8.315
 2176SOL    HW1 6902   1.374   2.951   8.308
 2176SOL    HW2 6903   1.455   3.064   8.223
 2177SOL     OW 6904   1.466   2.452   8.440
 2177SOL    HW1 6905   1.436   2.357   8.447
 2177SOL    HW2 6906   1.539   2.468   8.506
 2178SOL     OW 6907   1.857   2.695   7.825
 2178SOL    HW1 6908   1.899   2.631   7.889
 2178SOL    HW2 6909   1.819   2.644   7.747
 2179SOL     OW 6910   0.488   3.247   7.622
 2179SOL    HW1 6911   0.401   3.232   7.669
 2179SOL    HW2 6912   0.471   3.273   7.527
 2180SOL     OW 6913   1.664   3.142   8.105
 2180SOL    HW1 6914   1.763   3.150   8.119
 2180SOL    HW2 6915   1.619   3.226   8.136
 2181SOL     OW 6916   1.390   2.437   7.526
 2181SOL    HW1 6917   1.336   2.416   7.607
 2181SOL    HW2 6918   1.481   2.396   7.535
 2182SOL     OW 6919   0.527   2.118   7.776
 2182SOL    HW1 6920   0.554   2.059   7.701
 2182SOL    HW2 6921   0.527   2.213   7.745
 2183SOL     OW 6922   1.754   3.085   9.036
 2183SOL    HW1 6923   1.845   3.046   9.023
 2183SOL    HW2 6924   1.762   3.181   9.060
 2184SOL     OW 6925   1.064   3.209   8.788
 2184SOL    HW1 6926   0.984   3.186   8.843
 2184SOL    HW2 6927   1.147   3.183   8.837
 2185SOL     OW 6928   1.592   3.491   9.073
 2185SOL    HW1 6929   1.619   3.525   8.983
 2185SOL    HW2 6930   1.671   3.453   9.119
 2186SOL     OW 6931   1.111   3.057   8.548
 2186SOL    HW1 6932   1.071   3.101   8.629
 2186SOL    HW2 6933   1.070   3.094   8.465
 2187SOL     OW 6934   1.638   2.961   8.527
 2187SOL    HW1 6935   1.643   3.042   8.586
 2187SOL    HW2 6936   1.552   2.963   8.476
 2188SOL     OW 6937   0.915   1.951   8.850
 2188SOL    HW1 6938   0.940   1.931   8.755
 2188SOL    HW2 6939   0.987   2.007   8.892
 2189SOL     OW 6940   0.980   2.978   9.167
 2189SOL    HW1 6941   0.881   2.984   9.177
 2189SOL    HW2 6942   1.003   2.898   9.111
 2190SOL     OW 6943   0.705   2.912   7.816
 2190SOL    HW1 6944   0.691   2.919   7.915
 2190SOL    HW2 6945   0.789   2.861   7.798
 2191SOL     OW 6946   0.410   2.675   8.699
 2191SOL    HW1 6947   0.496   2.687   8.749
 2191SOL    HW2 6948   0.368   2.588   8.726
 2192SOL     OW 6949   1.274   2.248   8.710
 2192SOL    HW1 6950   1.295   2.322   8.774
 2192SOL    HW2 6951   1.185   2.265   8.667
 2193SOL     OW 6952   0.064   3.426   8.779
 2193SOL    HW1 6953   0.018   3.508   8.745
 2193SOL    HW2 6954   0.162   3.445   8.788
 2194SOL     OW 6955   0.367   2.962   7.949
 2194SOL    HW1 6956   0.360   3.045   7.893
 2194SOL    HW2 6957   0.371   2.882   7.889
 2195SOL     OW 6958   0.566   2.399   8.313
 2195SOL    HW1 6959   0.578   2.465   8.239
 2195SOL    HW2 6960   0.612   2.433   8.396
 2196SOL     OW 6961   1.252   3.210   7.836
 2196SOL    HW1 6962   1.302   3.287   7.876
 2196SOL    HW2 6963   1.157   3.212   7.868
 2197SOL     OW 6964   1.272   3.307   8.590
 2197SOL    HW1 6965   1.319   3.320   8.677
 2197SOL    HW2 6966   1.206   3.233   8.599
 2198SOL     OW 6967   1.582   2.501   7.920
 2198SOL    HW1 6968   1.551   2.562   7.993
 2198SOL    HW2 6969   1.632   2.553   7.851
 2199SOL     OW 6970   0.354   3.372   8.777
 2199SOL    HW1 6971   0.333   3.328   8.690
 2199SOL    HW2 6972   0.451   3.398   8.780
 2200SOL     OW 6973   0.402   2.613   9.046
 2200SOL    HW1 6974   0.470   2.668   8.999
 2200SOL    HW2 6975   0.442   2.525   9.073
 2201SOL     OW 6976   1.587   2.641   9.118
 2201SOL    HW1 6977   1.495   2.679   9.113
 2201SOL    HW2 6978   1.647   2.688   9.053
 2202SOL     OW 6979   1.013   1.967   9.218
 2202SOL    HW1 6980   1.019   2.052   9.166
 2202SOL    HW2 6981   1.045   1.891   9.161
 2203SOL     OW 6982   0.504   1.912   9.188
 2203SOL    HW1 6983   0.462   1.855   9.118
 2203SOL    HW2 6984   0.438   1.981   9.220
 2204SOL     OW 6985   0.573   2.732   8.477
 2204SOL    HW1 6986   0.617   2.821   8.468
 2204SOL    HW2 6987   0.510   2.732   8.554
 2205SOL     OW 6988   1.360   2.724   8.493
 2205SOL    HW1 6989   1.285   2.724   8.427
 2205SOL    HW2 6990   1.397   2.632   8.502
 2206SOL     OW 6991   1.209   2.387   7.723
 2206SOL    HW1 6992   1.222   2.303   7.777
 2206SOL    HW2 6993   1.180   2.461   7.783
 2207SOL     OW 6994   0.307   2.075   8.679
 2207SOL    HW1 6995   0.284   2.112   8.769
 2207SOL    HW2 6996   0.277   1.980   8.673
 2208SOL     OW 6997   0.037   3.172   8.730
 2208SOL    HW1 6998   0.090   3.123   8.798
 2208SOL    HW2 6999   0.059   3.270   8.735
 2209SOL     OW 7000   0.732   2.496   8.512
 2209SOL    HW1 7001   0.791   2.470   8.436
 2209SOL    HW2 7002   0.704   2.592   8.501
 2210SOL     OW 7003   1.728   2.797   9.302
 2210SOL    HW1 7004   1.682   2.790   9.213
 2210SOL    HW2 7005   1.666   2.841   9.368
 2211SOL     OW 7006   0.307   1.925   8.066
 2211SOL    HW1 7007   0.296   2.019   8.099
 2211SOL    HW2 7008   0.302   1.862   8.143
 2212SOL     OW 7009   1.622   2.229   7.822
 2212SOL    HW1 7010   1.624   2.153   7.886
 2212SOL    HW2 7011   1.574   2.306   7.862
 2213SOL     OW 7012   1.023   2.628   8.414
 2213SOL    HW1 7013   1.038   2.649   8.510
 2213SOL    HW2 7014   0.993   2.533   8.405
 2214SOL     OW 7015   0.980   3.435   9.148
 2214SOL    HW1 7016   0.960   3.479   9.060
 2214SOL    HW2 7017   1.019   3.344   9.132
 2215SOL     OW 7018   1.859   3.380   9.053
 2215SOL    HW1 7019   1.873   3.407   8.958
 2215SOL    HW2 7020   1.942   3.402   9.106
 2216SOL     OW 7021   0.350   2.760   9.252
 2216SOL    HW1 7022   0.426   2.804   9.300
 2216SOL    HW2 7023   0.385   2.713   9.170
 2217SOL     OW 7024   1.540   2.136   7.573
 2217SOL    HW1 7025   1.479   2.061   7.596
 2217SOL    HW2 7026   1.562   2.188   7.656
 2218SOL     OW 7027   1.303   2.700   7.490
 2218SOL    HW1 7028   1.337   2.607   7.505
 2218SOL    HW2 7029   1.321   2.727   7.395
 2219SOL     OW 7030   1.068   3.195   8.297
 2219SOL    HW1 7031   1.075   3.111   8.242
 2219SOL    HW2 7032   1.130   3.264   8.261
 2220SOL     OW 7033   0.319   2.672   8.397
 2220SOL    HW1 7034   0.412   2.708   8.402
 2220SOL    HW2 7035   0.313   2.587   8.449
 2221SOL     OW 7036   0.339   2.371   8.454
 2221SOL    HW1 7037   0.287   2.288   8.437
 2221SOL    HW2 7038   0.416   2.376   8.390
 2222SOL     OW 7039   1.138   2.242   9.126
 2222SOL    HW1 7040   1.093   2.305   9.190
 2222SOL    HW2 7041   1.231   2.273   9.109
 2223SOL     OW 7042   1.160   2.069   8.925
 2223SOL    HW1 7043   1.160   2.133   9.002
 2223SOL    HW2 7044   1.188   2.117   8.842
 2224SOL     OW 7045   0.008   3.188   7.648
 2224SOL    HW1 7046  -0.085   3.209   7.617
 2224SOL    HW2 7047   0.018   3.089   7.661
 2225SOL     OW 7048   0.088   3.663   8.375
 2225SOL    HW1 7049   0.046   3.577   8.348
 2225SOL    HW2 7050   0.182   3.666   8.341
 2226SOL     OW 7051   0.504   3.430   8.358
 2226SOL    HW1 7052   0.570   3.504   8.367
 2226SOL    HW2 7053   0.548   3.351   8.316
 2227SOL     OW 7054   1.002   2.658   8.686
 2227SOL    HW1 7055   1.043   2.626   8.772
 2227SOL    HW2 7056   0.906   2.631   8.683
 2228SOL     OW 7057   0.040   2.406   8.562
 2228SOL    HW1 7058   0.125   2.373   8.521
 2228SOL    HW2 7059   0.053   2.421   8.660
 2229SOL     OW 7060   0.189   2.382   9.170
 2229SOL    HW1 7061   0.248   2.342   9.100
 2229SOL    HW2 7062   0.131   2.453   9.129
 2230SOL     OW 7063   1.369   2.812   9.108
 2230SOL    HW1 7064   1.408   2.901   9.128
 2230SOL    HW2 7065   1.379   2.792   9.011
 2231SOL     OW 7066   0.815   2.434   7.773
 2231SOL    HW1 7067   0.822   2.345   7.727
 2231SOL    HW2 7068   0.721   2.468   7.765
 2232SOL     OW 7069   1.657   2.466   8.654
 2232SOL    HW1 7070   1.619   2.397   8.716
 2232SOL    HW2 7071   1.739   2.430   8.610
 2233SOL     OW 7072   0.252   3.426   9.192
 2233SOL    HW1 7073   0.222   3.483   9.268
 2233SOL    HW2 7074   0.245   3.329   9.218
 2234SOL     OW 7075   0.671   2.326   8.717
 2234SOL    HW1 7076   0.637   2.237   8.687
 2234SOL    HW2 7077   0.697   2.380   8.637
 2235SOL     OW 7078   0.930   3.540   8.913
 2235SOL    HW1 7079   0.906   3.522   8.818
 2235SOL    HW2 7080   0.960   3.634   8.923
 2236SOL     OW 7081   0.473   2.362   7.639
 2236SOL    HW1 7082   0.534   2.442   7.643
 2236SOL    HW2 7083   0.378   2.393   7.646
 2237SOL     OW 7084   0.159   2.999   8.914
 2237SOL    HW1 7085   0.181   2.938   8.990
 2237SOL    HW2 7086   0.169   2.950   8.828
 2238SOL     OW 7087   1.347   2.921   8.682
 2238SOL    HW1 7088   1.371   2.858   8.608
 2238SOL    HW2 7089   1.257   2.961   8.664
 2239SOL     OW 7090   1.302   2.717   7.757
 2239SOL    HW1 7091   1.216   2.686   7.799
 2239SOL    HW2 7092   1.298   2.703   7.658
 2240SOL     OW 7093   1.759   3.609   8.602
 2240SOL    HW1 7094   1.820   3.639   8.529
 2240SOL    HW2 7095   1.721   3.520   8.580
 2241SOL     OW 7096   1.252   3.593   8.576
 2241SOL    HW1 7097   1.336   3.598   8.522
 2241SOL    HW2 7098   1.229   3.497   8.594
 2242SOL     OW 7099   0.083   3.120   8.470
 2242SOL    HW1 7100   0.078   3.119   8.570
 2242SOL    HW2 7101   0.000   3.079   8.432
 2243SOL     OW 7102   0.688   3.524   9.164
 2243SOL    HW1 7103   0.632   3.605   9.173
 2243SOL    HW2 7104   0.740   3.528   9.078
 2244SOL     OW 7105   1.726   1.997   7.971
 2244SOL    HW1 7106   1.799   1.980   7.904
 2244SOL    HW2 7107   1.695   1.910   8.009
 2245SOL     OW 7108   1.388   3.435   7.925
 2245SOL    HW1 7109   1.455   3.447   7.851
 2245SOL    HW2 7110   1.348   3.524   7.948
 2246SOL     OW 7111   0.130   3.656   9.299
 2246SOL    HW1 7112   0.089   3.582   9.352
 2246SOL    HW2 7113   0.194   3.707   9.357
 2247SOL     OW 7114   1.280   2.789   8.120
 2247SOL    HW1 7115   1.340   2.708   8.122
 2247SOL    HW2 7116   1.320   2.858   8.060
 2248SOL     OW 7117   0.830   3.135   8.870
 2248SOL    HW1 7118   0.825   3.168   8.965
 2248SOL    HW2 7119   0.744   3.154   8.824
 2249SOL     OW 7120   0.672   3.478   7.602
 2249SOL    HW1 7121   0.681   3.488   7.503
 2249SOL    HW2 7122   0.632   3.389   7.623
 2250SOL     OW 7123   1.650   3.582   8.842
 2250SOL    HW1 7124   1.703   3.592   8.758
 2250SOL    HW2 7125   1.623   3.672   8.876
 2251SOL     OW 7126   1.841   2.037   8.411
 2251SOL    HW1 7127   1.880   1.952   8.375
 2251SOL    HW2 7128   1.743   2.039   8.392
 2252SOL     OW 7129   0.263   2.188   8.168
 2252SOL    HW1 7130   0.184   2.239   8.134
 2252SOL    HW2 7131   0.254   2.173   8.266
 2253SOL     OW 7132   1.194   3.474   7.479
 2253SOL    HW1 7133   1.200   3.381   7.516
 2253SOL    HW2 7134   1.135   3.474   7.399
 2254SOL     OW 7135   0.822   2.864   8.820
 2254SOL    HW1 7136   0.862   2.863   8.728
 2254SOL    HW2 7137   0.832   2.956   8.860
 2255SOL     OW 7138   0.916   2.772   7.739
 2255SOL    HW1 7139   0.979   2.810   7.671
 2255SOL    HW2 7140   0.956   2.689   7.778
 2256SOL     OW 7141   1.504   3.469   7.492
 2256SOL    HW1 7142   1.412   3.506   7.499
 2256SOL    HW2 7143   1.542   3.489   7.402
 2257SOL     OW 7144   0.372   3.150   8.938
 2257SOL    HW1 7145   0.359   3.243   8.904
 2257SOL    HW2 7146   0.288   3.098   8.925
 2258SOL     OW 7147   1.614   3.154   8.737
 2258SOL    HW1 7148   1.674   3.157   8.817
 2258SOL    HW2 7149   1.539   3.218   8.750
 2259SOL     OW 7150   1.039   2.960   8.144
 2259SOL    HW1 7151   0.969   2.913   8.198
 2259SOL    HW2 7152   1.098   2.892   8.101
 2260SOL     OW 7153   1.014   2.098   8.419
 2260SOL    HW1 7154   1.006   2.062   8.326
 2260SOL    HW2 7155   1.012   2.022   8.484
 2261SOL     OW 7156   0.590   3.349   7.939
 2261SOL    HW1 7157   0.632   3.291   7.869
 2261SOL    HW2 7158   0.546   3.428   7.895
 2262SOL     OW 7159   1.709   2.247   8.829
 2262SOL    HW1 7160   1.782   2.316   8.833
 2262SOL    HW2 7161   1.737   2.172   8.770
 2263SOL     OW 7162   0.255   3.210   7.738
 2263SOL    HW1 7163   0.159   3.211   7.711
 2263SOL    HW2 7164   0.267   3.263   7.822
 2264SOL     OW 7165   0.105   2.875   9.174
 2264SOL    HW1 7166   0.028   2.842   9.228
 2264SOL    HW2 7167   0.190   2.845   9.216
 2265SOL     OW 7168   0.672   2.065   8.937
 2265SOL    HW1 7169   0.762   2.049   8.897
 2265SOL    HW2 7170   0.680   2.070   9.036
 2266SOL     OW 7171   0.075   2.207   7.481
 2266SOL    HW1 7172  -0.017   2.179   7.452
 2266SOL    HW2 7173   0.106   2.284   7.425
 2267SOL     OW 7174   1.440   2.718   8.846
 2267SOL    HW1 7175   1.383   2.770   8.783
 2267SOL    HW2 7176   1.536   2.730   8.822
 2268SOL     OW 7177   0.072   2.028   7.766
 2268SOL    HW1 7178   0.055   2.111   7.712
 2268SOL    HW2 7179   0.162   1.991   7.744
 2269SOL     OW 7180   1.183   3.197   7.567
 2269SOL    HW1 7181   1.084   3.186   7.569
 2269SOL    HW2 7182   1.217   3.212   7.660
 2270SOL     OW 7183   0.613   2.704   8.879
 2270SOL    HW1 7184   0.669   2.785   8.862
 2270SOL    HW2 7185   0.672   2.624   8.882
 2271SOL     OW 7186   1.493   3.629   8.407
 2271SOL    HW1 7187   1.526   3.693   8.338
 2271SOL    HW2 7188   1.559   3.623   8.482
 2272SOL     OW 7189   0.716   2.427   9.156
 2272SOL    HW1 7190   0.735   2.492   9.230
 2272SOL    HW2 7191   0.776   2.347   9.165
 2273SOL     OW 7192   1.450   3.082   9.081
 2273SOL    HW1 7193   1.441   3.072   9.180
 2273SOL    HW2 7194   1.546   3.075   9.055
 2274SOL     OW 7195   0.390   3.603   9.008
 2274SOL    HW1 7196   0.299   3.644   9.006
 2274SOL    HW2 7197   0.383   3.509   9.040
 2275SOL     OW 7198   1.674   2.745   8.702
 2275SOL    HW1 7199   1.647   2.656   8.665
 2275SOL    HW2 7200   1.675   2.813   8.629
 2276SOL     OW 7201   1.225   2.187   7.897
 2276SOL    HW1 7202   1.290   2.113   7.886
 2276SOL    HW2 7203   1.245   2.237   7.981
 2277SOL     OW 7204   0.594   2.607   8.100
 2277SOL    HW1 7205   0.644   2.692   8.081
 2277SOL    HW2 7206   0.506   2.609   8.052
 2278SOL     OW 7207   1.777   2.204   9.090
 2278SOL    HW1 7208   1.760   2.235   8.996
 2278SOL    HW2 7209   1.693   2.167   9.128
 2279SOL     OW 7210   1.730   2.796   8.965
 2279SOL    HW1 7211   1.768   2.887   8.980
 2279SOL    HW2 7212   1.722   2.779   8.866
 2280SOL     OW 7213   0.859   3.236   7.464
 2280SOL    HW1 7214   0.813   3.251   7.552
 2280SOL    HW2 7215   0.903   3.321   7.434
 2281SOL     OW 7216   0.661   3.652   8.401
 2281SOL    HW1 7217   0.615   3.740   8.388
 2281SOL    HW2 7218   0.760   3.664   8.394
 2282SOL     OW 7219   0.859   2.818   8.309
 2282SOL    HW1 7220   0.913   2.749   8.357
 2282SOL    HW2 7221   0.827   2.887   8.375
 2283SOL     OW 7222   1.083   2.846   7.535
 2283SOL    HW1 7223   1.060   2.899   7.453
 2283SOL    HW2 7224   1.164   2.790   7.516
 2284SOL     OW 7225   1.861   3.431   8.299
 2284SOL    HW1 7226   1.790   3.419   8.229
 2284SOL    HW2 7227   1.862   3.352   8.359
 2285SOL     OW 7228   0.221   3.176   9.292
 2285SOL    HW1 7229   0.156   3.103   9.271
 2285SOL    HW2 7230   0.225   3.190   9.390
 2286SOL     OW 7231   0.079   3.102   8.101
 2286SOL    HW1 7232   0.078   3.055   8.189
 2286SOL    HW2 7233   0.161   3.074   8.050
 2287SOL     OW 7234   0.672   3.253   9.072
 2287SOL    HW1 7235   0.594   3.203   9.110
 2287SOL    HW2 7236   0.669   3.348   9.103
 2288SOL     OW 7237   1.824   2.054   8.675
 2288SOL    HW1 7238   1.820   1.964   8.719
 2288SOL    HW2 7239   1.827   2.043   8.576
 2289SOL     OW 7240   0.428   2.286   7.968
 2289SOL    HW1 7241   0.458   2.214   7.906
 2289SOL    HW2 7242   0.389   2.246   8.051
 2290SOL     OW 7243   1.705   3.349   8.552
 2290SOL    HW1 7244   1.612   3.324   8.525
 2290SOL    HW2 7245   1.731   3.299   8.634
 2291SOL     OW 7246   0.317   2.409   8.728
 2291SOL    HW1 7247   0.355   2.350   8.800
 2291SOL    HW2 7248   0.357   2.383   8.640
 2292SOL     OW 7249   0.812   3.448   8.135
 2292SOL    HW1 7250   0.844   3.458   8.041
 2292SOL    HW2 7251   0.733   3.386   8.137
 2293SOL     OW 7252   1.424   2.076   8.560
 2293SOL    HW1 7253   1.476   2.011   8.615
 2293SOL    HW2 7254   1.375   2.139   8.621
 2294SOL     OW 7255   1.001   1.896   8.602
 2294SOL    HW1 7256   0.938   1.824   8.571
 2294SOL    HW2 7257   1.094   1.860   8.602
 2295SOL     OW 7258   0.770   3.192   7.749
 2295SOL    HW1 7259   0.724   3.105   7.766
 2295SOL    HW2 7260   0.861   3.189   7.790
 2296SOL     OW 7261   0.618   3.429   8.732
 2296SOL    HW1 7262   0.613   3.511   8.789
 2296SOL    HW2 7263   0.707   3.426   8.687
 2297SOL     OW 7264   1.352   1.914   7.616
 2297SOL    HW1 7265   1.387   1.873   7.532
 2297SOL    HW2 7266   1.262   1.876   7.636
 2298SOL     OW 7267   1.300   2.315   8.139
 2298SOL    HW1 7268   1.241   2.395   8.143
 2298SOL    HW2 7269   1.315   2.280   8.232
 2299SOL     OW 7270   1.593   2.083   8.330
 2299SOL    HW1 7271   1.509   2.082   8.384
 2299SOL    HW2 7272   1.595   2.166   8.274
 2300SOL     OW 7273   0.039   2.939   7.748
 2300SOL    HW1 7274   0.138   2.928   7.739
 2300SOL    HW2 7275  -0.001   2.853   7.780
 2301SOL     OW 7276   0.875   3.508   7.785
 2301SOL    HW1 7277   0.798   3.473   7.731
 2301SOL    HW2 7278   0.843   3.579   7.847
 2302SOL     OW 7279   0.230   2.490   9.423
 2302SOL    HW1 7280   0.137   2.488   9.460
 2302SOL    HW2 7281   0.231   2.451   9.331
 2303SOL     OW 7282   0.225   2.137  10.306
 2303SOL    HW1 7283   0.260   2.120  10.398
 2303SOL    HW2 7284   0.137   2.092  10.294
 2304SOL     OW 7285   0.019   2.230   9.957
 2304SOL    HW1 7286  -0.063   2.273   9.996
 2304SOL    HW2 7287  -0.009   2.157   9.894
 2305SOL     OW 7288   0.569   3.137  10.475
 2305SOL    HW1 7289   0.476   3.130  10.438
 2305SOL    HW2 7290   0.580   3.226  10.519
 2306SOL     OW 7291   1.555   3.373  10.013
 2306SOL    HW1 7292   1.498   3.357  10.094
 2306SOL    HW2 7293   1.496   3.383   9.933
 2307SOL     OW 7294   1.135   2.565  10.027
 2307SOL    HW1 7295   1.192   2.643  10.002
 2307SOL    HW2 7296   1.075   2.591  10.103
 2308SOL     OW 7297   1.755   2.469   9.541
 2308SOL    HW1 7298   1.743   2.456   9.442
 2308SOL    HW2 7299   1.725   2.388   9.590
 2309SOL     OW 7300   0.768   3.006  10.333
 2309SOL    HW1 7301   0.690   3.023  10.393
 2309SOL    HW2 7302   0.802   3.093  10.297
 2310SOL     OW 7303   0.850   2.660  11.133
 2310SOL    HW1 7304   0.846   2.736  11.198
 2310SOL    HW2 7305   0.872   2.696  11.042
 2311SOL     OW 7306   0.685   2.874   9.975
 2311SOL    HW1 7307   0.754   2.858  10.045
 2311SOL    HW2 7308   0.612   2.931  10.013
 2312SOL     OW 7309   0.335   3.297  10.371
 2312SOL    HW1 7310   0.257   3.266  10.318
 2312SOL    HW2 7311   0.393   3.355  10.314
 2313SOL     OW 7312   1.460   3.367  10.649
 2313SOL    HW1 7313   1.484   3.461  10.675
 2313SOL    HW2 7314   1.444   3.313  10.731
 2314SOL     OW 7315   0.438   2.254  10.809
 2314SOL    HW1 7316   0.520   2.198  10.818
 2314SOL    HW2 7317   0.357   2.196  10.813
 2315SOL     OW 7318   1.603   2.309  10.047
 2315SOL    HW1 7319   1.529   2.355   9.997
 2315SOL    HW2 7320   1.654   2.377  10.100
 2316SOL     OW 7321   0.231   3.575   9.793
 2316SOL    HW1 7322   0.265   3.652   9.847
 2316SOL    HW2 7323   0.275   3.575   9.703
 2317SOL     OW 7324   0.230   3.296   9.848
 2317SOL    HW1 7325   0.204   3.392   9.848
 2317SOL    HW2 7326   0.159   3.242   9.893
 2318SOL     OW 7327   0.240   2.953  10.196
 2318SOL    HW1 7328   0.254   2.869  10.248
 2318SOL    HW2 7329   0.185   3.017  10.251
 2319SOL     OW 7330   0.620   3.648  10.749
 2319SOL    HW1 7331   0.528   3.631  10.784
 2319SOL    HW2 7332   0.648   3.740  10.775
 2320SOL     OW 7333   0.606   2.826   9.433
 2320SOL    HW1 7334   0.613   2.910   9.379
 2320SOL    HW2 7335   0.652   2.839   9.521
 2321SOL     OW 7336   1.594   1.976  10.790
 2321SOL    HW1 7337   1.576   2.043  10.718
 2321SOL    HW2 7338   1.591   2.022  10.879
 2322SOL     OW 7339   0.122   2.505   9.873
 2322SOL    HW1 7340   0.077   2.417   9.890
 2322SOL    HW2 7341   0.121   2.559   9.957
 2323SOL     OW 7342   1.842   3.629   9.669
 2323SOL    HW1 7343   1.896   3.600   9.749
 2323SOL    HW2 7344   1.872   3.719   9.640
 2324SOL     OW 7345   0.027   3.458   9.427
 2324SOL    HW1 7346   0.008   3.362   9.448
 2324SOL    HW2 7347  -0.006   3.516   9.502
 2325SOL     OW 7348   1.689   2.784   9.922
 2325SOL    HW1 7349   1.784   2.755   9.930
 2325SOL    HW2 7350   1.681   2.849   9.847
 2326SOL     OW 7351   1.641   2.970   9.742
 2326SOL    HW1 7352   1.727   2.972   9.690
 2326SOL    HW2 7353   1.655   3.017   9.830
 2327SOL     OW 7354   0.113   2.599  10.907
 2327SOL    HW1 7355   0.201   2.586  10.952
 2327SOL    HW2 7356   0.100   2.696  10.885
 2328SOL     OW 7357   0.613   3.227  10.036
 2328SOL    HW1 7358   0.564   3.140  10.045
 2328SOL    HW2 7359   0.590   3.270   9.949
 2329SOL     OW 7360   1.293   3.090  10.733
 2329SOL    HW1 7361   1.330   3.017  10.675
 2329SOL    HW2 7362   1.345   3.095  10.818
 2330SOL     OW 7363   0.809   1.866   9.812
 2330SOL    HW1 7364   0.849   1.957   9.803
 2330SOL    HW2 7365   0.709   1.874   9.818
 2331SOL     OW 7366   0.197   2.838  10.574
 2331SOL    HW1 7367   0.286   2.793  10.560
 2331SOL    HW2 7368   0.124   2.773  10.555
 2332SOL     OW 7369   1.525   2.861   9.500
 2332SOL    HW1 7370   1.462   2.785   9.513
 2332SOL    HW2 7371   1.573   2.879   9.586
 2333SOL     OW 7372   1.187   3.654  10.926
 2333SOL    HW1 7373   1.211   3.714  10.850
 2333SOL    HW2 7374   1.194   3.559  10.896
 2334SOL     OW 7375   0.317   2.113  11.111
 2334SOL    HW1 7376   0.388   2.184  11.117
 2334SOL    HW2 7377   0.229   2.152  11.139
 2335SOL     OW 7378   1.466   3.279  10.263
 2335SOL    HW1 7379   1.407   3.285  10.343
 2335SOL    HW2 7380   1.451   3.191  10.217
 2336SOL     OW 7381   1.667   3.576   9.882
 2336SOL    HW1 7382   1.626   3.553   9.794
 2336SOL    HW2 7383   1.649   3.502   9.947
 2337SOL     OW 7384   0.598   2.591   9.580
 2337SOL    HW1 7385   0.622   2.660   9.512
 2337SOL    HW2 7386   0.520   2.624   9.634
 2338SOL     OW 7387   1.281   2.207  10.254
 2338SOL    HW1 7388   1.195   2.157  10.241
 2338SOL    HW2 7389   1.343   2.153  10.310
 2339SOL     OW 7390   1.576   3.524   9.617
 2339SOL    HW1 7391   1.665   3.570   9.620
 2339SOL    HW2 7392   1.555   3.500   9.522
 2340SOL     OW 7393   0.807   2.467  10.775
 2340SOL    HW1 7394   0.760   2.464  10.864
 2340SOL    HW2 7395   0.756   2.412  10.709
 2341SOL     OW 7396   0.973   2.752  10.882
 2341SOL    HW1 7397   1.019   2.668  10.853
 2341SOL    HW2 7398   0.917   2.786  10.807
 2342SOL     OW 7399   0.991   2.272  10.552
 2342SOL    HW1 7400   0.914   2.306  10.606
 2342SOL    HW2 7401   0.957   2.221  10.473
 2343SOL     OW 7402   1.041   2.563   9.739
 2343SOL    HW1 7403   1.067   2.559   9.835
 2343SOL    HW2 7404   0.956   2.512   9.725
 2344SOL     OW 7405   0.076   2.673  10.099
 2344SOL    HW1 7406   0.175   2.661  10.108
 2344SOL    HW2 7407   0.052   2.768  10.120
 2345SOL     OW 7408   0.130   3.683  10.881
 2345SOL    HW1 7409   0.120   3.668  10.980
 2345SOL    HW2 7410   0.044   3.719  10.845
 2346SOL     OW 7411   0.865   2.210   9.505
 2346SOL    HW1 7412   0.924   2.273   9.456
 2346SOL    HW2 7413   0.884   2.116   9.476
 2347SOL     OW 7414   1.362   3.006   9.855
 2347SOL    HW1 7415   1.445   2.977   9.807
 2347SOL    HW2 7416   1.313   3.073   9.799
 2348SOL     OW 7417   0.550   2.058  10.195
 2348SOL    HW1 7418   0.545   2.053  10.295
 2348SOL    HW2 7419   0.552   2.154  10.166
 2349SOL     OW 7420   1.008   3.318   9.787
 2349SOL    HW1 7421   0.962   3.390   9.735
 2349SOL    HW2 7422   1.004   3.338   9.885
 2350SOL     OW 7423   0.351   3.663  10.163
 2350SOL    HW1 7424   0.401   3.577  10.169
 2350SOL    HW2 7425   0.416   3.740  10.160
 2351SOL     OW 7426   1.795   2.928  10.183
 2351SOL    HW1 7427   1.733   2.913  10.107
 2351SOL    HW2 7428   1.743   2.939  10.268
 2352SOL     OW 7429   1.227   3.412  10.816
 2352SOL    HW1 7430   1.233   3.335  10.880
 2352SOL    HW2 7431   1.175   3.386  10.736
 2353SOL     OW 7432   0.321   2.805   9.552
 2353SOL    HW1 7433   0.403   2.844   9.510
 2353SOL    HW2 7434   0.294   2.723   9.503
 2354SOL     OW 7435   1.458   2.597  10.038
 2354SOL    HW1 7436   1.453   2.532  10.113
 2354SOL    HW2 7437   1.538   2.656  10.051
 2355SOL     OW 7438   0.461   3.128  11.037
 2355SOL    HW1 7439   0.411   3.129  10.951
 2355SOL    HW2 7440   0.398   3.110  11.113
 2356SOL     OW 7441   1.111   3.638   9.547
 2356SOL    HW1 7442   1.051   3.576   9.597
 2356SOL    HW2 7443   1.142   3.594   9.462
 2357SOL     OW 7444   0.202   2.147  10.808
 2357SOL    HW1 7445   0.122   2.207  10.795
 2357SOL    HW2 7446   0.192   2.098  10.894
 2358SOL     OW 7447   1.632   3.239   9.391
 2358SOL    HW1 7448   1.600   3.333   9.381
 2358SOL    HW2 7449   1.556   3.176   9.379
 2359SOL     OW 7450   0.464   3.605   9.633
 2359SOL    HW1 7451   0.497   3.644   9.719
 2359SOL    HW2 7452   0.540   3.598   9.568
 2360SOL     OW 7453   1.400   1.969   9.736
 2360SOL    HW1 7454   1.376   1.932   9.646
 2360SOL    HW2 7455   1.499   1.985   9.740
 2361SOL     OW 7456   0.249   3.647  10.551
 2361SOL    HW1 7457   0.306   3.582  10.601
 2361SOL    HW2 7458   0.233   3.614  10.458
 2362SOL     OW 7459   0.940   3.560  10.214
 2362SOL    HW1 7460   1.020   3.503  10.235
 2362SOL    HW2 7461   0.891   3.520  10.137
 2363SOL     OW 7462   0.382   2.562   9.790
 2363SOL    HW1 7463   0.427   2.472   9.787
 2363SOL    HW2 7464   0.288   2.551   9.823
 2364SOL     OW 7465   0.614   1.984   9.427
 2364SOL    HW1 7466   0.712   1.962   9.434
 2364SOL    HW2 7467   0.583   1.967   9.334
 2365SOL     OW 7468   0.781   2.126  11.059
 2365SOL    HW1 7469   0.848   2.065  11.102
 2365SOL    HW2 7470   0.708   2.145  11.124
 2366SOL     OW 7471   0.888   3.376  10.505
 2366SOL    HW1 7472   0.865   3.351  10.411
 2366SOL    HW2 7473   0.949   3.307  10.544
 2367SOL     OW 7474   1.351   2.452  10.743
 2367SOL    HW1 7475   1.379   2.409  10.828
 2367SOL    HW2 7476   1.376   2.548  10.744
 2368SOL     OW 7477   0.803   3.264  10.234
 2368SOL    HW1 7478   0.893   3.278  10.192
 2368SOL    HW2 7479   0.732   3.266  10.163
 2369SOL     OW 7480   0.922   2.365  10.209
 2369SOL    HW1 7481   0.897   2.356  10.113
 2369SOL    HW2 7482   0.970   2.283  10.240
 2370SOL     OW 7483   0.539   1.926   9.822
 2370SOL    HW1 7484   0.458   1.927   9.880
 2370SOL    HW2 7485   0.542   2.009   9.767
 2371SOL     OW 7486   1.434   3.050   9.351
 2371SOL    HW1 7487   1.466   2.974   9.408
 2371SOL    HW2 7488   1.342   3.077   9.381
 2372SOL     OW 7489   0.297   1.897   9.481
 2372SOL    HW1 7490   0.346   1.981   9.460
 2372SOL    HW2 7491   0.359   1.832   9.526
 2373SOL     OW 7492   0.935   2.098   9.790
 2373SOL    HW1 7493   0.887   2.139   9.712
 2373SOL    HW2 7494   1.034   2.096   9.771
 2374SOL     OW 7495   1.076   2.545  10.774
 2374SOL    HW1 7496   0.996   2.484  10.777
 2374SOL    HW2 7497   1.157   2.492  10.750
 2375SOL     OW 7498   1.227   3.432  10.103
 2375SOL    HW1 7499   1.248   3.506  10.038
 2375SOL    HW2 7500   1.295   3.432  10.176
 2376SOL     OW 7501   0.459   3.014  10.051
 2376SOL    HW1 7502   0.388   2.987  10.116
 2376SOL    HW2 7503   0.433   2.986   9.958
 2377SOL     OW 7504   1.271   3.659   9.901
 2377SOL    HW1 7505   1.315   3.723   9.837
 2377SOL    HW2 7506   1.221   3.711   9.971
 2378SOL     OW 7507   1.032   2.411   9.326
 2378SOL    HW1 7508   0.991   2.493   9.287
 2378SOL    HW2 7509   1.096   2.437   9.399
 2379SOL     OW 7510   0.078   2.418  10.696
 2379SOL    HW1 7511   0.170   2.417  10.655
 2379SOL    HW2 7512   0.072   2.492  10.763
 2380SOL     OW 7513   0.561   2.084  10.457
 2380SOL    HW1 7514   0.599   2.000  10.494
 2380SOL    HW2 7515   0.473   2.103  10.501
 2381SOL     OW 7516   0.866   2.316   9.952
 2381SOL    HW1 7517   0.834   2.388   9.890
 2381SOL    HW2 7518   0.890   2.235   9.899
 2382SOL     OW 7519   1.017   1.901  10.063
 2382SOL    HW1 7520   0.945   1.906   9.994
 2382SOL    HW2 7521   0.993   1.832  10.132
 2383SOL     OW 7522   1.429   3.035  10.177
 2383SOL    HW1 7523   1.374   2.951  10.170
 2383SOL    HW2 7524   1.455   3.064  10.085
 2384SOL     OW 7525   1.466   2.452  10.302
 2384SOL    HW1 7526   1.436   2.357  10.309
 2384SOL    HW2 7527   1.539   2.468  10.368
 2385SOL     OW 7528   1.857   2.695   9.687
 2385SOL    HW1 7529   1.899   2.631   9.751
 2385SOL    HW2 7530   1.819   2.644   9.609
 2386SOL     OW 7531   0.488   3.247   9.484
 2386SOL    HW1 7532   0.401   3.232   9.531
 2386SOL    HW2 7533   0.471   3.273   9.389
 2387SOL     OW 7534   1.664   3.142   9.967
 2387SOL    HW1 7535   1.763   3.150   9.981
 2387SOL    HW2 7536   1.619   3.226   9.998
 2388SOL     OW 7537   1.390   2.437   9.388
 2388SOL    HW1 7538   1.336   2.416   9.469
 2388SOL    HW2 7539   1.481   2.396   9.397
 2389SOL     OW 7540   0.527   2.118   9.638
 2389SOL    HW1 7541   0.554   2.059   9.563
 2389SOL    HW2 7542   0.527   2.213   9.607
 2390SOL     OW 7543   1.754   3.085  10.898
 2390SOL    HW1 7544   1.845   3.046  10.885
 2390SOL    HW2 7545   1.762   3.181  10.922
 2391SOL     OW 7546   1.064   3.209  10.650
 2391SOL    HW1 7547   0.984   3.186  10.705
 2391SOL    HW2 7548   1.147   3.183  10.699
 2392SOL     OW 7549   1.111   3.057  10.410
 2392SOL    HW1 7550   1.071   3.101  10.491
 2392SOL    HW2 7551   1.070   3.094  10.327
 2393SOL     OW 7552   1.638   2.961  10.389
 2393SOL    HW1 7553   1.643   3.042  10.448
 2393SOL    HW2 7554   1.552   2.963  10.338
 2394SOL     OW 7555   0.915   1.951  10.712
 2394SOL    HW1 7556   0.940   1.931  10.617
 2394SOL    HW2 7557   0.987   2.007  10.754
 2395SOL     OW 7558   0.705   2.912   9.678
 2395SOL    HW1 7559   0.691   2.919   9.777
 2395SOL    HW2 7560   0.789   2.861   9.660
 2396SOL     OW 7561   0.410   2.675  10.561
 2396SOL    HW1 7562   0.496   2.687  10.611
 2396SOL    HW2 7563   0.368   2.588  10.588
 2397SOL     OW 7564   1.274   2.248  10.572
 2397SOL    HW1 7565   1.295   2.322  10.636
 2397SOL    HW2 7566   1.185   2.265  10.529
 2398SOL     OW 7567   0.064   3.426  10.641
 2398SOL    HW1 7568   0.018   3.508  10.607
 2398SOL    HW2 7569   0.162   3.445  10.650
 2399SOL     OW 7570   0.367   2.962   9.811
 2399SOL    HW1 7571   0.360   3.045   9.755
 2399SOL    HW2 7572   0.371   2.882   9.751
 2400SOL     OW 7573   0.566   2.399  10.175
 2400SOL    HW1 7574   0.578   2.465  10.101
 2400SOL    HW2 7575   0.612   2.433  10.258
 2401SOL     OW 7576   1.252   3.210   9.698
 2401SOL    HW1 7577   1.302   3.287   9.738
 2401SOL    HW2 7578   1.157   3.212   9.730
 2402SOL     OW 7579   1.272   3.307  10.452
 2402SOL    HW1 7580   1.319   3.320  10.539
 2402SOL    HW2 7581   1.206   3.233  10.461
 2403SOL     OW 7582   1.582   2.501   9.782
 2403SOL    HW1 7583   1.551   2.562   9.855
 2403SOL    HW2 7584   1.632   2.553   9.713
 2404SOL     OW 7585   0.354   3.372  10.639
 2404SOL    HW1 7586   0.333   3.328  10.552
 2404SOL    HW2 7587   0.451   3.398  10.642
 2405SOL     OW 7588   0.402   2.613  10.908
 2405SOL    HW1 7589   0.470   2.668  10.861
 2405SOL    HW2 7590   0.442   2.525  10.935
 2406SOL     OW 7591   1.587   2.641  10.980
 2406SOL    HW1 7592   1.495   2.679  10.975
 2406SOL    HW2 7593   1.647   2.688  10.915
 2407SOL     OW 7594   0.573   2.732  10.339
 2407SOL    HW1 7595   0.617   2.821  10.330
 2407SOL    HW2 7596   0.510   2.732  10.416
 2408SOL     OW 7597   1.360   2.724  10.355
 2408SOL    HW1 7598   1.285   2.724  10.289
 2408SOL    HW2 7599   1.397   2.632  10.364
 2409SOL     OW 7600   1.209   2.387   9.585
 2409SOL    HW1 7601   1.222   2.303   9.639
 2409SOL    HW2 7602   1.180   2.461   9.645
 2410SOL     OW 7603   0.307   2.075  10.541
 2410SOL    HW1 7604   0.284   2.112  10.631
 2410SOL    HW2 7605   0.277   1.980  10.535
 2411SOL     OW 7606   0.037   3.172  10.592
 2411SOL    HW1 7607   0.090   3.123  10.660
 2411SOL    HW2 7608   0.059   3.270  10.597
 2412SOL     OW 7609   0.732   2.496  10.374
 2412SOL    HW1 7610   0.791   2.470  10.298
 2412SOL    HW2 7611   0.704   2.592  10.363
 2413SOL     OW 7612   0.307   1.925   9.928
 2413SOL    HW1 7613   0.296   2.019   9.961
 2413SOL    HW2 7614   0.302   1.862  10.005
 2414SOL     OW 7615   1.622   2.229   9.684
 2414SOL    HW1 7616   1.624   2.153   9.748
 2414SOL    HW2 7617   1.574   2.306   9.724
 2415SOL     OW 7618   1.023   2.628  10.276
 2415SOL    HW1 7619   1.038   2.649  10.372
 2415SOL    HW2 7620   0.993   2.533  10.267
 2416SOL     OW 7621   0.980   3.435  11.010
 2416SOL    HW1 7622   0.960   3.479  10.922
 2416SOL    HW2 7623   1.019   3.344  10.994
 2417SOL     OW 7624   1.859   3.380  10.915
 2417SOL    HW1 7625   1.873   3.407  10.820
 2417SOL    HW2 7626   1.942   3.402  10.968
 2418SOL     OW 7627   0.350   2.760  11.114
 2418SOL    HW1 7628   0.426   2.804  11.162
 2418SOL    HW2 7629   0.385   2.713  11.032
 2419SOL     OW 7630   1.540   2.136   9.435
 2419SOL    HW1 7631   1.479   2.061   9.458
 2419SOL    HW2 7632   1.562   2.188   9.518
 2420SOL     OW 7633   1.303   2.700   9.352
 2420SOL    HW1 7634   1.337   2.607   9.367
 2420SOL    HW2 7635   1.321   2.727   9.257
 2421SOL     OW 7636   1.068   3.195  10.159
 2421SOL    HW1 7637   1.075   3.111  10.104
 2421SOL    HW2 7638   1.130   3.264  10.123
 2422SOL     OW 7639   0.319   2.672  10.259
 2422SOL    HW1 7640   0.412   2.708  10.264
 2422SOL    HW2 7641   0.313   2.587  10.311
 2423SOL     OW 7642   0.339   2.371  10.316
 2423SOL    HW1 7643   0.287   2.288  10.299
 2423SOL    HW2 7644   0.416   2.376  10.252
 2424SOL     OW 7645   1.160   2.069  10.787
 2424SOL    HW1 7646   1.160   2.133  10.864
 2424SOL    HW2 7647   1.188   2.117  10.704
 2425SOL     OW 7648   0.008   3.188   9.510
 2425SOL    HW1 7649  -0.085   3.209   9.479
 2425SOL    HW2 7650   0.018   3.089   9.523
 2426SOL     OW 7651   0.088   3.663  10.237
 2426SOL    HW1 7652   0.046   3.577  10.210
 2426SOL    HW2 7653   0.182   3.666  10.203
 2427SOL     OW 7654   0.504   3.430  10.220
 2427SOL    HW1 7655   0.570   3.504  10.229
 2427SOL    HW2 7656   0.548   3.351  10.178
 2428SOL     OW 7657   1.002   2.658  10.548
 2428SOL    HW1 7658   1.043   2.626  10.634
 2428SOL    HW2 7659   0.906   2.631  10.545
 2429SOL     OW 7660   0.040   2.406  10.424
 2429SOL    HW1 7661   0.125   2.373  10.383
 2429SOL    HW2 7662   0.053   2.421  10.522
 2430SOL     OW 7663   0.815   2.434   9.635
 2430SOL    HW1 7664   0.822   2.345   9.589
 2430SOL    HW2 7665   0.721   2.468   9.627
 2431SOL     OW 7666   1.657   2.466  10.516
 2431SOL    HW1 7667   1.619   2.397  10.578
 2431SOL    HW2 7668   1.739   2.430  10.472
 2432SOL     OW 7669   0.252   3.426  11.054
 2432SOL    HW1 7670   0.222   3.483  11.130
 2432SOL    HW2 7671   0.245   3.329  11.080
 2433SOL     OW 7672   0.671   2.326  10.579
 2433SOL    HW1 7673   0.637   2.237  10.549
 2433SOL    HW2 7674   0.697   2.380  10.499
 2434SOL     OW 7675   0.930   3.540  10.775
 2434SOL    HW1 7676   0.906   3.522  10.680
 2434SOL    HW2 7677   0.960   3.634  10.785
 2435SOL     OW 7678   0.473   2.362   9.501
 2435SOL    HW1 7679   0.534   2.442   9.505
 2435SOL    HW2 7680   0.378   2.393   9.508
 2436SOL     OW 7681   0.159   2.999  10.776
 2436SOL    HW1 7682   0.181   2.938  10.852
 2436SOL    HW2 7683   0.169   2.950  10.690
 2437SOL     OW 7684   1.347   2.921  10.544
 2437SOL    HW1 7685   1.371   2.858  10.470
 2437SOL    HW2 7686   1.257   2.961  10.526
 2438SOL     OW 7687   1.302   2.717   9.619
 2438SOL    HW1 7688   1.216   2.686   9.661
 2438SOL    HW2 7689   1.298   2.703   9.520
 2439SOL     OW 7690   1.759   3.609  10.464
 2439SOL    HW1 7691   1.820   3.639  10.391
 2439SOL    HW2 7692   1.721   3.520  10.442
 2440SOL     OW 7693   1.252   3.593  10.438
 2440SOL    HW1 7694   1.336   3.598  10.384
 2440SOL    HW2 7695   1.229   3.497  10.456
 2441SOL     OW 7696   0.083   3.120  10.332
 2441SOL    HW1 7697   0.078   3.119  10.432
 2441SOL    HW2 7698   0.000   3.079  10.294
 2442SOL     OW 7699   1.726   1.997   9.833
 2442SOL    HW1 7700   1.799   1.980   9.766
 2442SOL    HW2 7701   1.695   1.910   9.871
 2443SOL     OW 7702   1.388   3.435   9.787
 2443SOL    HW1 7703   1.455   3.447   9.713
 2443SOL    HW2 7704   1.348   3.524   9.810
 2444SOL     OW 7705   1.280   2.789   9.982
 2444SOL    HW1 7706   1.340   2.708   9.984
 2444SOL    HW2 7707   1.320   2.858   9.922
 2445SOL     OW 7708   0.830   3.135  10.732
 2445SOL    HW1 7709   0.825   3.168  10.827
 2445SOL    HW2 7710   0.744   3.154  10.686
 2446SOL     OW 7711   0.672   3.478   9.464
 2446SOL    HW1 7712   0.681   3.488   9.365
 2446SOL    HW2 7713   0.632   3.389   9.485
 2447SOL     OW 7714   1.650   3.582  10.704
 2447SOL    HW1 7715   1.703   3.592  10.620
 2447SOL    HW2 7716   1.623   3.672  10.738
 2448SOL     OW 7717   1.841   2.037  10.273
 2448SOL    HW1 7718   1.880   1.952  10.237
 2448SOL    HW2 7719   1.743   2.039  10.254
 2449SOL     OW 7720   0.263   2.188  10.030
 2449SOL    HW1 7721   0.184   2.239   9.996
 2449SOL    HW2 7722   0.254   2.173  10.128
 2450SOL     OW 7723   1.194   3.474   9.341
 2450SOL    HW1 7724   1.200   3.381   9.378
 2450SOL    HW2 7725   1.135   3.474   9.261
 2451SOL     OW 7726   0.822   2.864  10.682
 2451SOL    HW1 7727   0.862   2.863  10.590
 2451SOL    HW2 7728   0.832   2.956  10.722
 2452SOL     OW 7729   0.916   2.772   9.601
 2452SOL    HW1 7730   0.979   2.810   9.533
 2452SOL    HW2 7731   0.956   2.689   9.640
 2453SOL     OW 7732   1.504   3.469   9.354
 2453SOL    HW1 7733   1.412   3.506   9.361
 2453SOL    HW2 7734   1.542   3.489   9.264
 2454SOL     OW 7735   0.372   3.150  10.800
 2454SOL    HW1 7736   0.359   3.243  10.766
 2454SOL    HW2 7737   0.288   3.098  10.787
 2455SOL     OW 7738   1.614   3.154  10.599
 2455SOL    HW1 7739   1.674   3.157  10.679
 2455SOL    HW2 7740   1.539   3.218  10.612
 2456SOL     OW 7741   1.039   2.960  10.006
 2456SOL    HW1 7742   0.969   2.913  10.060
 2456SOL    HW2 7743   1.098   2.892   9.963
 2457SOL     OW 7744   1.014   2.098  10.281
 2457SOL    HW1 7745   1.006   2.062  10.188
 2457SOL    HW2 7746   1.012   2.022  10.346
 2458SOL     OW 7747   0.590   3.349   9.801
 2458SOL    HW1 7748   0.632   3.291   9.731
 2458SOL    HW2 7749   0.546   3.428   9.757
 2459SOL     OW 7750   1.709   2.247  10.691
 2459SOL    HW1 7751   1.782   2.316  10.695
 2459SOL    HW2 7752   1.737   2.172  10.632
 2460SOL     OW 7753   0.255   3.210   9.600
 2460SOL    HW1 7754   0.159   3.211   9.573
 2460SOL    HW2 7755   0.267   3.263   9.684
 2461SOL     OW 7756   0.105   2.875  11.036
 2461SOL    HW1 7757   0.028   2.842  11.090
 2461SOL    HW2 7758   0.190   2.845  11.078
 2462SOL     OW 7759   0.672   2.065  10.799
 2462SOL    HW1 7760   0.762   2.049  10.759
 2462SOL    HW2 7761   0.680   2.070  10.898
 2463SOL     OW 7762   0.075   2.207   9.343
 2463SOL    HW1 7763  -0.017   2.179   9.314
 2463SOL    HW2 7764   0.106   2.284   9.287
 2464SOL     OW 7765   1.440   2.718  10.708
 2464SOL    HW1 7766   1.383   2.770  10.645
 2464SOL    HW2 7767   1.536   2.730  10.684
 2465SOL     OW 7768   0.072   2.028   9.628
 2465SOL    HW1 7769   0.055   2.111   9.574
 2465SOL    HW2 7770   0.162   1.991   9.606
 2466SOL     OW 7771   1.183   3.197   9.429
 2466SOL    HW1 7772   1.084   3.186   9.431
 2466SOL    HW2 7773   1.217   3.212   9.522
 2467SOL     OW 7774   0.613   2.704  10.741
 2467SOL    HW1 7775   0.669   2.785  10.724
 2467SOL    HW2 7776   0.672   2.624  10.744
 2468SOL     OW 7777   1.493   3.629  10.269
 2468SOL    HW1 7778   1.526   3.693  10.200
 2468SOL    HW2 7779   1.559   3.623  10.344
 2469SOL     OW 7780   0.716   2.427  11.018
 2469SOL    HW1 7781   0.735   2.492  11.092
 2469SOL    HW2 7782   0.776   2.347  11.027
 2470SOL     OW 7783   0.390   3.603  10.870
 2470SOL    HW1 7784   0.299   3.644  10.868
 2470SOL    HW2 7785   0.383   3.509  10.902
 2471SOL     OW 7786   1.674   2.745  10.564
 2471SOL    HW1 7787   1.647   2.656  10.527
 2471SOL    HW2 7788   1.675   2.813  10.491
 2472SOL     OW 7789   1.225   2.187   9.759
 2472SOL    HW1 7790   1.290   2.113   9.748
 2472SOL    HW2 7791   1.245   2.237   9.843
 2473SOL     OW 7792   0.594   2.607   9.962
 2473SOL    HW1 7793   0.644   2.692   9.943
 2473SOL    HW2 7794   0.506   2.609   9.914
 2474SOL     OW 7795   1.777   2.204  10.952
 2474SOL    HW1 7796   1.760   2.235  10.858
 2474SOL    HW2 7797   1.693   2.167  10.990
 2475SOL     OW 7798   1.730   2.796  10.827
 2475SOL    HW1 7799   1.768   2.887  10.842
 2475SOL    HW2 7800   1.722   2.779  10.728
 2476SOL     OW 7801   0.859   3.236   9.326
 2476SOL    HW1 7802   0.813   3.251   9.414
 2476SOL    HW2 7803   0.903   3.321   9.296
 2477SOL     OW 7804   0.661   3.652  10.263
 2477SOL    HW1 7805   0.615   3.740  10.250
 2477SOL    HW2 7806   0.760   3.664  10.256
 2478SOL     OW 7807   0.859   2.818  10.171
 2478SOL    HW1 7808   0.913   2.749  10.219
 2478SOL    HW2 7809   0.827   2.887  10.237
 2479SOL     OW 7810   1.083   2.846   9.397
 2479SOL    HW1 7811   1.060   2.899   9.315
 2479SOL    HW2 7812   1.164   2.790   9.378
 2480SOL     OW 7813   1.861   3.431  10.161
 2480SOL    HW1 7814   1.790   3.419  10.091
 2480SOL    HW2 7815   1.862   3.352  10.221
 2481SOL     OW 7816   0.079   3.102   9.963
 2481SOL    HW1 7817   0.078   3.055  10.051
 2481SOL    HW2 7818   0.161   3.074   9.912
 2482SOL     OW 7819   0.672   3.253  10.934
 2482SOL    HW1 7820   0.594   3.203  10.972
 2482SOL    HW2 7821   0.669   3.348  10.965
 2483SOL     OW 7822   1.824   2.054  10.537
 2483SOL    HW1 7823   1.820   1.964  10.581
 2483SOL    HW2 7824   1.827   2.043  10.438
 2484SOL     OW 7825   0.428   2.286   9.830
 2484SOL    HW1 7826   0.458   2.214   9.768
 2484SOL    HW2 7827   0.389   2.246   9.913
 2485SOL     OW 7828   1.705   3.349  10.414
 2485SOL    HW1 7829   1.612   3.324  10.387
 2485SOL    HW2 7830   1.731   3.299  10.496
 2486SOL     OW 7831   0.317   2.409  10.590
 2486SOL    HW1 7832   0.355   2.350  10.662
 2486SOL    HW2 7833   0.357   2.383  10.502
 2487SOL     OW 7834   0.812   3.448   9.997
 2487SOL    HW1 7835   0.844   3.458   9.903
 2487SOL    HW2 7836   0.733   3.386   9.999
 2488SOL     OW 7837   1.424   2.076  10.422
 2488SOL    HW1 7838   1.476   2.011  10.477
 2488SOL    HW2 7839   1.375   2.139  10.483
 2489SOL     OW 7840   1.001   1.896  10.464
 2489SOL    HW1 7841   0.938   1.824  10.433
 2489SOL    HW2 7842   1.094   1.860  10.464
 2490SOL     OW 7843   0.770   3.192   9.611
 2490SOL    HW1 7844   0.724   3.105   9.628
 2490SOL    HW2 7845   0.861   3.189   9.652
 2491SOL     OW 7846   0.618   3.429  10.594
 2491SOL    HW1 7847   0.613   3.511  10.651
 2491SOL    HW2 7848   0.707   3.426  10.549
 2492SOL     OW 7849   1.352   1.914   9.478
 2492SOL    HW1 7850   1.387   1.873   9.394
 2492SOL    HW2 7851   1.262   1.876   9.498
 2493SOL     OW 7852   1.300   2.315  10.001
 2493SOL    HW1 7853   1.241   2.395  10.005
 2493SOL    HW2 7854   1.315   2.280  10.094
 2494SOL     OW 7855   1.593   2.083  10.192
 2494SOL    HW1 7856   1.509   2.082  10.246
 2494SOL    HW2 7857   1.595   2.166  10.136
 2495SOL     OW 7858   0.039   2.939   9.610
 2495SOL    HW1 7859   0.138   2.928   9.601
 2495SOL    HW2 7860  -0.001   2.853   9.642
 2496SOL     OW 7861   0.875   3.508   9.647
 2496SOL    HW1 7862   0.798   3.473   9.593
 2496SOL    HW2 7863   0.843   3.579   9.709
 2497SOL     OW 7864   0.230   4.352   0.113
 2497SOL    HW1 7865   0.137   4.350   0.150
 2497SOL    HW2 7866   0.231   4.313   0.021
 2498SOL     OW 7867   0.225   3.999   0.996
 2498SOL    HW1 7868   0.260   3.982   1.088
 2498SOL    HW2 7869   0.137   3.954   0.984
 2499SOL     OW 7870   0.019   4.092   0.647
 2499SOL    HW1 7871  -0.063   4.135   0.686
 2499SOL    HW2 7872  -0.009   4.019   0.584
 2500SOL     OW 7873   1.755   4.331   0.231
 2500SOL    HW1 7874   1.743   4.318   0.132
 2500SOL    HW2 7875   1.725   4.250   0.280
 2501SOL     OW 7876   0.685   4.736   0.665
 2501SOL    HW1 7877   0.754   4.720   0.735
 2501SOL    HW2 7878   0.612   4.793   0.703
 2502SOL     OW 7879   0.438   4.116   1.499
 2502SOL    HW1 7880   0.520   4.060   1.508
 2502SOL    HW2 7881   0.357   4.058   1.503
 2503SOL     OW 7882   1.603   4.171   0.737
 2503SOL    HW1 7883   1.529   4.217   0.687
 2503SOL    HW2 7884   1.654   4.239   0.790
 2504SOL     OW 7885   1.594   3.838   1.480
 2504SOL    HW1 7886   1.576   3.905   1.408
 2504SOL    HW2 7887   1.591   3.884   1.569
 2505SOL     OW 7888   0.122   4.367   0.563
 2505SOL    HW1 7889   0.077   4.279   0.580
 2505SOL    HW2 7890   0.121   4.421   0.647
 2506SOL     OW 7891   0.113   4.461   1.597
 2506SOL    HW1 7892   0.201   4.448   1.642
 2506SOL    HW2 7893   0.100   4.558   1.575
 2507SOL     OW 7894   0.809   3.728   0.502
 2507SOL    HW1 7895   0.849   3.819   0.493
 2507SOL    HW2 7896   0.709   3.736   0.508
 2508SOL     OW 7897   0.317   3.975   1.801
 2508SOL    HW1 7898   0.388   4.046   1.807
 2508SOL    HW2 7899   0.229   4.014   1.829
 2509SOL     OW 7900   1.281   4.069   0.944
 2509SOL    HW1 7901   1.195   4.019   0.931
 2509SOL    HW2 7902   1.343   4.015   1.000
 2510SOL     OW 7903   0.807   4.329   1.465
 2510SOL    HW1 7904   0.760   4.326   1.554
 2510SOL    HW2 7905   0.756   4.274   1.399
 2511SOL     OW 7906   1.394   4.193   1.674
 2511SOL    HW1 7907   1.374   4.236   1.762
 2511SOL    HW2 7908   1.472   4.131   1.683
 2512SOL     OW 7909   0.991   4.134   1.242
 2512SOL    HW1 7910   0.914   4.168   1.296
 2512SOL    HW2 7911   0.957   4.083   1.163
 2513SOL     OW 7912   1.041   4.425   0.429
 2513SOL    HW1 7913   1.067   4.421   0.525
 2513SOL    HW2 7914   0.956   4.374   0.415
 2514SOL     OW 7915   0.076   4.535   0.789
 2514SOL    HW1 7916   0.175   4.523   0.798
 2514SOL    HW2 7917   0.052   4.630   0.810
 2515SOL     OW 7918   0.865   4.072   0.195
 2515SOL    HW1 7919   0.924   4.135   0.146
 2515SOL    HW2 7920   0.884   3.978   0.166
 2516SOL     OW 7921   1.719   4.309   1.831
 2516SOL    HW1 7922   1.693   4.398   1.795
 2516SOL    HW2 7923   1.717   4.241   1.758
 2517SOL     OW 7924   0.550   3.920   0.885
 2517SOL    HW1 7925   0.545   3.915   0.985
 2517SOL    HW2 7926   0.552   4.016   0.856
 2518SOL     OW 7927   1.458   4.459   0.728
 2518SOL    HW1 7928   1.453   4.394   0.803
 2518SOL    HW2 7929   1.538   4.518   0.741
 2519SOL     OW 7930   0.202   4.009   1.498
 2519SOL    HW1 7931   0.122   4.069   1.485
 2519SOL    HW2 7932   0.192   3.960   1.584
 2520SOL     OW 7933   1.400   3.831   0.426
 2520SOL    HW1 7934   1.376   3.794   0.336
 2520SOL    HW2 7935   1.499   3.847   0.430
 2521SOL     OW 7936   0.382   4.424   0.480
 2521SOL    HW1 7937   0.427   4.334   0.477
 2521SOL    HW2 7938   0.288   4.413   0.513
 2522SOL     OW 7939   1.547   3.946   1.729
 2522SOL    HW1 7940   1.542   3.983   1.821
 2522SOL    HW2 7941   1.475   3.877   1.717
 2523SOL     OW 7942   0.614   3.846   0.117
 2523SOL    HW1 7943   0.712   3.824   0.124
 2523SOL    HW2 7944   0.583   3.829   0.024
 2524SOL     OW 7945   0.781   3.988   1.749
 2524SOL    HW1 7946   0.848   3.927   1.792
 2524SOL    HW2 7947   0.708   4.007   1.814
 2525SOL     OW 7948   1.351   4.314   1.433
 2525SOL    HW1 7949   1.379   4.271   1.518
 2525SOL    HW2 7950   1.376   4.410   1.434
 2526SOL     OW 7951   0.922   4.227   0.899
 2526SOL    HW1 7952   0.897   4.218   0.803
 2526SOL    HW2 7953   0.970   4.145   0.930
 2527SOL     OW 7954   0.539   3.788   0.512
 2527SOL    HW1 7955   0.458   3.789   0.570
 2527SOL    HW2 7956   0.542   3.871   0.457
 2528SOL     OW 7957   0.297   3.759   0.171
 2528SOL    HW1 7958   0.346   3.843   0.150
 2528SOL    HW2 7959   0.359   3.694   0.216
 2529SOL     OW 7960   0.935   3.960   0.480
 2529SOL    HW1 7961   0.887   4.001   0.402
 2529SOL    HW2 7962   1.034   3.958   0.461
 2530SOL     OW 7963   1.076   4.407   1.464
 2530SOL    HW1 7964   0.996   4.346   1.467
 2530SOL    HW2 7965   1.157   4.354   1.440
 2531SOL     OW 7966   1.032   4.273   0.016
 2531SOL    HW1 7967   0.991   4.355  -0.023
 2531SOL    HW2 7968   1.096   4.299   0.089
 2532SOL     OW 7969   0.078   4.280   1.386
 2532SOL    HW1 7970   0.170   4.279   1.345
 2532SOL    HW2 7971   0.072   4.354   1.453
 2533SOL     OW 7972   0.561   3.946   1.147
 2533SOL    HW1 7973   0.599   3.862   1.184
 2533SOL    HW2 7974   0.473   3.965   1.191
 2534SOL     OW 7975   0.866   4.178   0.642
 2534SOL    HW1 7976   0.834   4.250   0.580
 2534SOL    HW2 7977   0.890   4.097   0.589
 2535SOL     OW 7978   1.017   3.763   0.753
 2535SOL    HW1 7979   0.945   3.768   0.684
 2535SOL    HW2 7980   0.993   3.694   0.822
 2536SOL     OW 7981   1.466   4.314   0.992
 2536SOL    HW1 7982   1.436   4.219   0.999
 2536SOL    HW2 7983   1.539   4.330   1.058
 2537SOL     OW 7984   1.390   4.299   0.078
 2537SOL    HW1 7985   1.336   4.278   0.159
 2537SOL    HW2 7986   1.481   4.258   0.087
 2538SOL     OW 7987   0.527   3.980   0.328
 2538SOL    HW1 7988   0.554   3.921   0.253
 2538SOL    HW2 7989   0.527   4.075   0.297
 2539SOL     OW 7990   0.915   3.813   1.402
 2539SOL    HW1 7991   0.940   3.793   1.307
 2539SOL    HW2 7992   0.987   3.869   1.444
 2540SOL     OW 7993   0.410   4.537   1.251
 2540SOL    HW1 7994   0.496   4.549   1.301
 2540SOL    HW2 7995   0.368   4.450   1.278
 2541SOL     OW 7996   1.274   4.110   1.262
 2541SOL    HW1 7997   1.295   4.184   1.326
 2541SOL    HW2 7998   1.185   4.127   1.219
 2542SOL     OW 7999   0.566   4.261   0.865
 2542SOL    HW1 8000   0.578   4.327   0.791
 2542SOL    HW2 8001   0.612   4.295   0.948
 2543SOL     OW 8002   1.582   4.363   0.472
 2543SOL    HW1 8003   1.551   4.424   0.545
 2543SOL    HW2 8004   1.632   4.415   0.403
 2544SOL     OW 8005   1.013   3.829   1.770
 2544SOL    HW1 8006   1.019   3.914   1.718
 2544SOL    HW2 8007   1.045   3.753   1.713
 2545SOL     OW 8008   0.504   3.774   1.740
 2545SOL    HW1 8009   0.462   3.717   1.670
 2545SOL    HW2 8010   0.438   3.843   1.772
 2546SOL     OW 8011   1.209   4.249   0.275
 2546SOL    HW1 8012   1.222   4.165   0.329
 2546SOL    HW2 8013   1.180   4.323   0.335
 2547SOL     OW 8014   0.307   3.937   1.231
 2547SOL    HW1 8015   0.284   3.974   1.321
 2547SOL    HW2 8016   0.277   3.842   1.225
 2548SOL     OW 8017   0.732   4.358   1.064
 2548SOL    HW1 8018   0.791   4.332   0.988
 2548SOL    HW2 8019   0.704   4.454   1.053
 2549SOL     OW 8020   1.728   4.659   1.854
 2549SOL    HW1 8021   1.682   4.652   1.765
 2549SOL    HW2 8022   1.666   4.703   1.920
 2550SOL     OW 8023   0.307   3.787   0.618
 2550SOL    HW1 8024   0.296   3.881   0.651
 2550SOL    HW2 8025   0.302   3.724   0.695
 2551SOL     OW 8026   1.622   4.091   0.374
 2551SOL    HW1 8027   1.624   4.015   0.438
 2551SOL    HW2 8028   1.574   4.168   0.414
 2552SOL     OW 8029   1.540   3.998   0.125
 2552SOL    HW1 8030   1.479   3.923   0.148
 2552SOL    HW2 8031   1.562   4.050   0.208
 2553SOL     OW 8032   0.319   4.534   0.949
 2553SOL    HW1 8033   0.412   4.570   0.954
 2553SOL    HW2 8034   0.313   4.449   1.001
 2554SOL     OW 8035   0.339   4.233   1.006
 2554SOL    HW1 8036   0.287   4.150   0.989
 2554SOL    HW2 8037   0.416   4.238   0.942
 2555SOL     OW 8038   1.138   4.104   1.678
 2555SOL    HW1 8039   1.093   4.167   1.742
 2555SOL    HW2 8040   1.231   4.135   1.661
 2556SOL     OW 8041   1.160   3.931   1.477
 2556SOL    HW1 8042   1.160   3.995   1.554
 2556SOL    HW2 8043   1.188   3.979   1.394
 2557SOL     OW 8044   0.040   4.268   1.114
 2557SOL    HW1 8045   0.125   4.235   1.073
 2557SOL    HW2 8046   0.053   4.283   1.212
 2558SOL     OW 8047   0.189   4.244   1.722
 2558SOL    HW1 8048   0.248   4.204   1.652
 2558SOL    HW2 8049   0.131   4.315   1.681
 2559SOL     OW 8050   0.815   4.296   0.325
 2559SOL    HW1 8051   0.822   4.207   0.279
 2559SOL    HW2 8052   0.721   4.330   0.317
 2560SOL     OW 8053   1.657   4.328   1.206
 2560SOL    HW1 8054   1.619   4.259   1.268
 2560SOL    HW2 8055   1.739   4.292   1.162
 2561SOL     OW 8056   0.671   4.188   1.269
 2561SOL    HW1 8057   0.637   4.099   1.239
 2561SOL    HW2 8058   0.697   4.242   1.189
 2562SOL     OW 8059   0.473   4.224   0.191
 2562SOL    HW1 8060   0.534   4.304   0.195
 2562SOL    HW2 8061   0.378   4.255   0.198
 2563SOL     OW 8062   0.903   3.810   0.133
 2563SOL    HW1 8063   0.954   3.811   0.047
 2563SOL    HW2 8064   0.959   3.768   0.204
 2564SOL     OW 8065   1.726   3.859   0.523
 2564SOL    HW1 8066   1.799   3.842   0.456
 2564SOL    HW2 8067   1.695   3.772   0.561
 2565SOL     OW 8068   1.280   4.651   0.672
 2565SOL    HW1 8069   1.340   4.570   0.674
 2565SOL    HW2 8070   1.320   4.720   0.612
 2566SOL     OW 8071   1.841   3.899   0.963
 2566SOL    HW1 8072   1.880   3.814   0.927
 2566SOL    HW2 8073   1.743   3.901   0.944
 2567SOL     OW 8074   0.263   4.050   0.720
 2567SOL    HW1 8075   0.184   4.101   0.686
 2567SOL    HW2 8076   0.254   4.035   0.818
 2568SOL     OW 8077   1.039   4.822   0.696
 2568SOL    HW1 8078   0.969   4.775   0.750
 2568SOL    HW2 8079   1.098   4.754   0.653
 2569SOL     OW 8080   1.014   3.960   0.971
 2569SOL    HW1 8081   1.006   3.924   0.878
 2569SOL    HW2 8082   1.012   3.884   1.036
 2570SOL     OW 8083   1.709   4.109   1.381
 2570SOL    HW1 8084   1.782   4.178   1.385
 2570SOL    HW2 8085   1.737   4.034   1.322
 2571SOL     OW 8086   0.672   3.927   1.489
 2571SOL    HW1 8087   0.762   3.911   1.449
 2571SOL    HW2 8088   0.680   3.932   1.588
 2572SOL     OW 8089   0.075   4.069   0.033
 2572SOL    HW1 8090  -0.017   4.041   0.004
 2572SOL    HW2 8091   0.106   4.146  -0.023
 2573SOL     OW 8092   0.072   3.890   0.318
 2573SOL    HW1 8093   0.055   3.973   0.264
 2573SOL    HW2 8094   0.162   3.853   0.296
 2574SOL     OW 8095   0.716   4.289   1.708
 2574SOL    HW1 8096   0.735   4.354   1.782
 2574SOL    HW2 8097   0.776   4.209   1.717
 2575SOL     OW 8098   1.225   4.049   0.449
 2575SOL    HW1 8099   1.290   3.975   0.438
 2575SOL    HW2 8100   1.245   4.099   0.533
 2576SOL     OW 8101   1.777   4.066   1.642
 2576SOL    HW1 8102   1.760   4.097   1.548
 2576SOL    HW2 8103   1.693   4.029   1.680
 2577SOL     OW 8104   1.083   4.708   0.087
 2577SOL    HW1 8105   1.060   4.761   0.005
 2577SOL    HW2 8106   1.164   4.652   0.068
 2578SOL     OW 8107   1.824   3.916   1.227
 2578SOL    HW1 8108   1.820   3.826   1.271
 2578SOL    HW2 8109   1.827   3.905   1.128
 2579SOL     OW 8110   0.428   4.148   0.520
 2579SOL    HW1 8111   0.458   4.076   0.458
 2579SOL    HW2 8112   0.389   4.108   0.603
 2580SOL     OW 8113   0.317   4.271   1.280
 2580SOL    HW1 8114   0.355   4.212   1.352
 2580SOL    HW2 8115   0.357   4.245   1.192
 2581SOL     OW 8116   1.424   3.938   1.112
 2581SOL    HW1 8117   1.476   3.873   1.167
 2581SOL    HW2 8118   1.375   4.001   1.173
 2582SOL     OW 8119   1.001   3.758   1.154
 2582SOL    HW1 8120   0.938   3.686   1.123
 2582SOL    HW2 8121   1.094   3.722   1.154
 2583SOL     OW 8122   1.352   3.776   0.168
 2583SOL    HW1 8123   1.387   3.735   0.084
 2583SOL    HW2 8124   1.262   3.738   0.188
 2584SOL     OW 8125   1.300   4.177   0.691
 2584SOL    HW1 8126   1.241   4.257   0.695
 2584SOL    HW2 8127   1.315   4.142   0.784
 2585SOL     OW 8128   1.593   3.945   0.882
 2585SOL    HW1 8129   1.509   3.944   0.936
 2585SOL    HW2 8130   1.595   4.028   0.826
 2586SOL     OW 8131   0.230   4.352   1.975
 2586SOL    HW1 8132   0.137   4.350   2.012
 2586SOL    HW2 8133   0.231   4.313   1.883
 2587SOL     OW 8134   0.225   3.999   2.858
 2587SOL    HW1 8135   0.260   3.982   2.950
 2587SOL    HW2 8136   0.137   3.954   2.846
 2588SOL     OW 8137   0.019   4.092   2.509
 2588SOL    HW1 8138  -0.063   4.135   2.548
 2588SOL    HW2 8139  -0.009   4.019   2.446
 2589SOL     OW 8140   1.755   4.331   2.093
 2589SOL    HW1 8141   1.743   4.318   1.994
 2589SOL    HW2 8142   1.725   4.250   2.142
 2590SOL     OW 8143   0.685   4.736   2.527
 2590SOL    HW1 8144   0.754   4.720   2.597
 2590SOL    HW2 8145   0.612   4.793   2.565
 2591SOL     OW 8146   0.438   4.116   3.361
 2591SOL    HW1 8147   0.520   4.060   3.370
 2591SOL    HW2 8148   0.357   4.058   3.365
 2592SOL     OW 8149   1.603   4.171   2.599
 2592SOL    HW1 8150   1.529   4.217   2.549
 2592SOL    HW2 8151   1.654   4.239   2.652
 2593SOL     OW 8152   1.594   3.838   3.342
 2593SOL    HW1 8153   1.576   3.905   3.270
 2593SOL    HW2 8154   1.591   3.884   3.431
 2594SOL     OW 8155   0.122   4.367   2.425
 2594SOL    HW1 8156   0.077   4.279   2.442
 2594SOL    HW2 8157   0.121   4.421   2.509
 2595SOL     OW 8158   0.113   4.461   3.459
 2595SOL    HW1 8159   0.201   4.448   3.504
 2595SOL    HW2 8160   0.100   4.558   3.437
 2596SOL     OW 8161   0.809   3.728   2.364
 2596SOL    HW1 8162   0.849   3.819   2.355
 2596SOL    HW2 8163   0.709   3.736   2.370
 2597SOL     OW 8164   0.317   3.975   3.663
 2597SOL    HW1 8165   0.388   4.046   3.669
 2597SOL    HW2 8166   0.229   4.014   3.691
 2598SOL     OW 8167   1.281   4.069   2.806
 2598SOL    HW1 8168   1.195   4.019   2.793
 2598SOL    HW2 8169   1.343   4.015   2.862
 2599SOL     OW 8170   0.807   4.329   3.327
 2599SOL    HW1 8171   0.760   4.326   3.416
 2599SOL    HW2 8172   0.756   4.274   3.261
 2600SOL     OW 8173   1.394   4.193   3.536
 2600SOL    HW1 8174   1.374   4.236   3.624
 2600SOL    HW2 8175   1.472   4.131   3.545
 2601SOL     OW 8176   0.991   4.134   3.104
 2601SOL    HW1 8177   0.914   4.168   3.158
 2601SOL    HW2 8178   0.957   4.083   3.025
 2602SOL     OW 8179   1.041   4.425   2.291
 2602SOL    HW1 8180   1.067   4.421   2.387
 2602SOL    HW2 8181   0.956   4.374   2.277
 2603SOL     OW 8182   0.076   4.535   2.651
 2603SOL    HW1 8183   0.175   4.523   2.660
 2603SOL    HW2 8184   0.052   4.630   2.672
 2604SOL     OW 8185   0.865   4.072   2.057
 2604SOL    HW1 8186   0.924   4.135   2.008
 2604SOL    HW2 8187   0.884   3.978   2.028
 2605SOL     OW 8188   1.719   4.309   3.693
 2605SOL    HW1 8189   1.693   4.398   3.657
 2605SOL    HW2 8190   1.717   4.241   3.620
 2606SOL     OW 8191   0.550   3.920   2.747
 2606SOL    HW1 8192   0.545   3.915   2.847
 2606SOL    HW2 8193   0.552   4.016   2.718
 2607SOL     OW 8194   1.458   4.459   2.590
 2607SOL    HW1 8195   1.453   4.394   2.665
 2607SOL    HW2 8196   1.538   4.518   2.603
 2608SOL     OW 8197   0.202   4.009   3.360
 2608SOL    HW1 8198   0.122   4.069   3.347
 2608SOL    HW2 8199   0.192   3.960   3.446
 2609SOL     OW 8200   1.400   3.831   2.288
 2609SOL    HW1 8201   1.376   3.794   2.198
 2609SOL    HW2 8202   1.499   3.847   2.292
 2610SOL     OW 8203   0.382   4.424   2.342
 2610SOL    HW1 8204   0.427   4.334   2.339
 2610SOL    HW2 8205   0.288   4.413   2.375
 2611SOL     OW 8206   1.547   3.946   3.591
 2611SOL    HW1 8207   1.542   3.983   3.683
 2611SOL    HW2 8208   1.475   3.877   3.579
 2612SOL     OW 8209   0.614   3.846   1.979
 2612SOL    HW1 8210   0.712   3.824   1.986
 2612SOL    HW2 8211   0.583   3.829   1.886
 2613SOL     OW 8212   0.781   3.988   3.611
 2613SOL    HW1 8213   0.848   3.927   3.654
 2613SOL    HW2 8214   0.708   4.007   3.676
 2614SOL     OW 8215   1.351   4.314   3.295
 2614SOL    HW1 8216   1.379   4.271   3.380
 2614SOL    HW2 8217   1.376   4.410   3.296
 2615SOL     OW 8218   0.922   4.227   2.761
 2615SOL    HW1 8219   0.897   4.218   2.665
 2615SOL    HW2 8220   0.970   4.145   2.792
 2616SOL     OW 8221   0.539   3.788   2.374
 2616SOL    HW1 8222   0.458   3.789   2.432
 2616SOL    HW2 8223   0.542   3.871   2.319
 2617SOL     OW 8224   0.297   3.759   2.033
 2617SOL    HW1 8225   0.346   3.843   2.012
 2617SOL    HW2 8226   0.359   3.694   2.078
 2618SOL     OW 8227   0.935   3.960   2.342
 2618SOL    HW1 8228   0.887   4.001   2.264
 2618SOL    HW2 8229   1.034   3.958   2.323
 2619SOL     OW 8230   1.076   4.407   3.326
 2619SOL    HW1 8231   0.996   4.346   3.329
 2619SOL    HW2 8232   1.157   4.354   3.302
 2620SOL     OW 8233   1.032   4.273   1.878
 2620SOL    HW1 8234   0.991   4.355   1.839
 2620SOL    HW2 8235   1.096   4.299   1.951
 2621SOL     OW 8236   0.078   4.280   3.248
 2621SOL    HW1 8237   0.170   4.279   3.207
 2621SOL    HW2 8238   0.072   4.354   3.315
 2622SOL     OW 8239   0.561   3.946   3.009
 2622SOL    HW1 8240   0.599   3.862   3.046
 2622SOL    HW2 8241   0.473   3.965   3.053
 2623SOL     OW 8242   0.866   4.178   2.504
 2623SOL    HW1 8243   0.834   4.250   2.442
 2623SOL    HW2 8244   0.890   4.097   2.451
 2624SOL     OW 8245   1.017   3.763   2.615
 2624SOL    HW1 8246   0.945   3.768   2.546
 2624SOL    HW2 8247   0.993   3.694   2.684
 2625SOL     OW 8248   1.466   4.314   2.854
 2625SOL    HW1 8249   1.436   4.219   2.861
 2625SOL    HW2 8250   1.539   4.330   2.920
 2626SOL     OW 8251   1.390   4.299   1.940
 2626SOL    HW1 8252   1.336   4.278   2.021
 2626SOL    HW2 8253   1.481   4.258   1.949
 2627SOL     OW 8254   0.527   3.980   2.190
 2627SOL    HW1 8255   0.554   3.921   2.115
 2627SOL    HW2 8256   0.527   4.075   2.159
 2628SOL     OW 8257   0.915   3.813   3.264
 2628SOL    HW1 8258   0.940   3.793   3.169
 2628SOL    HW2 8259   0.987   3.869   3.306
 2629SOL     OW 8260   0.410   4.537   3.113
 2629SOL    HW1 8261   0.496   4.549   3.163
 2629SOL    HW2 8262   0.368   4.450   3.140
 2630SOL     OW 8263   1.274   4.110   3.124
 2630SOL    HW1 8264   1.295   4.184   3.188
 2630SOL    HW2 8265   1.185   4.127   3.081
 2631SOL     OW 8266   0.566   4.261   2.727
 2631SOL    HW1 8267   0.578   4.327   2.653
 2631SOL    HW2 8268   0.612   4.295   2.810
 2632SOL     OW 8269   1.582   4.363   2.334
 2632SOL    HW1 8270   1.551   4.424   2.407
 2632SOL    HW2 8271   1.632   4.415   2.265
 2633SOL     OW 8272   1.013   3.829   3.632
 2633SOL    HW1 8273   1.019   3.914   3.580
 2633SOL    HW2 8274   1.045   3.753   3.575
 2634SOL     OW 8275   0.504   3.774   3.602
 2634SOL    HW1 8276   0.462   3.717   3.532
 2634SOL    HW2 8277   0.438   3.843   3.634
 2635SOL     OW 8278   1.209   4.249   2.137
 2635SOL    HW1 8279   1.222   4.165   2.191
 2635SOL    HW2 8280   1.180   4.323   2.197
 2636SOL     OW 8281   0.307   3.937   3.093
 2636SOL    HW1 8282   0.284   3.974   3.183
 2636SOL    HW2 8283   0.277   3.842   3.087
 2637SOL     OW 8284   0.732   4.358   2.926
 2637SOL    HW1 8285   0.791   4.332   2.850
 2637SOL    HW2 8286   0.704   4.454   2.915
 2638SOL     OW 8287   1.728   4.659   3.716
 2638SOL    HW1 8288   1.682   4.652   3.627
 2638SOL    HW2 8289   1.666   4.703   3.782
 2639SOL     OW 8290   0.307   3.787   2.480
 2639SOL    HW1 8291   0.296   3.881   2.513
 2639SOL    HW2 8292   0.302   3.724   2.557
 2640SOL     OW 8293   1.622   4.091   2.236
 2640SOL    HW1 8294   1.624   4.015   2.300
 2640SOL    HW2 8295   1.574   4.168   2.276
 2641SOL     OW 8296   1.540   3.998   1.987
 2641SOL    HW1 8297   1.479   3.923   2.010
 2641SOL    HW2 8298   1.562   4.050   2.070
 2642SOL     OW 8299   0.319   4.534   2.811
 2642SOL    HW1 8300   0.412   4.570   2.816
 2642SOL    HW2 8301   0.313   4.449   2.863
 2643SOL     OW 8302   0.339   4.233   2.868
 2643SOL    HW1 8303   0.287   4.150   2.851
 2643SOL    HW2 8304   0.416   4.238   2.804
 2644SOL     OW 8305   1.138   4.104   3.540
 2644SOL    HW1 8306   1.093   4.167   3.604
 2644SOL    HW2 8307   1.231   4.135   3.523
 2645SOL     OW 8308   1.160   3.931   3.339
 2645SOL    HW1 8309   1.160   3.995   3.416
 2645SOL    HW2 8310   1.188   3.979   3.256
 2646SOL     OW 8311   0.040   4.268   2.976
 2646SOL    HW1 8312   0.125   4.235   2.935
 2646SOL    HW2 8313   0.053   4.283   3.074
 2647SOL     OW 8314   0.189   4.244   3.584
 2647SOL    HW1 8315   0.248   4.204   3.514
 2647SOL    HW2 8316   0.131   4.315   3.543
 2648SOL     OW 8317   0.815   4.296   2.187
 2648SOL    HW1 8318   0.822   4.207   2.141
 2648SOL    HW2 8319   0.721   4.330   2.179
 2649SOL     OW 8320   1.657   4.328   3.068
 2649SOL    HW1 8321   1.619   4.259   3.130
 2649SOL    HW2 8322   1.739   4.292   3.024
 2650SOL     OW 8323   0.671   4.188   3.131
 2650SOL    HW1 8324   0.637   4.099   3.101
 2650SOL    HW2 8325   0.697   4.242   3.051
 2651SOL     OW 8326   0.473   4.224   2.053
 2651SOL    HW1 8327   0.534   4.304   2.057
 2651SOL    HW2 8328   0.378   4.255   2.060
 2652SOL     OW 8329   1.726   3.859   2.385
 2652SOL    HW1 8330   1.799   3.842   2.318
 2652SOL    HW2 8331   1.695   3.772   2.423
 2653SOL     OW 8332   1.280   4.651   2.534
 2653SOL    HW1 8333   1.340   4.570   2.536
 2653SOL    HW2 8334   1.320   4.720   2.474
 2654SOL     OW 8335   1.841   3.899   2.825
 2654SOL    HW1 8336   1.880   3.814   2.789
 2654SOL    HW2 8337   1.743   3.901   2.806
 2655SOL     OW 8338   0.263   4.050   2.582
 2655SOL    HW1 8339   0.184   4.101   2.548
 2655SOL    HW2 8340   0.254   4.035   2.680
 2656SOL     OW 8341   0.916   4.634   2.153
 2656SOL    HW1 8342   0.979   4.672   2.085
 2656SOL    HW2 8343   0.956   4.551   2.192
 2657SOL     OW 8344   1.039   4.822   2.558
 2657SOL    HW1 8345   0.969   4.775   2.612
 2657SOL    HW2 8346   1.098   4.754   2.515
 2658SOL     OW 8347   1.014   3.960   2.833
 2658SOL    HW1 8348   1.006   3.924   2.740
 2658SOL    HW2 8349   1.012   3.884   2.898
 2659SOL     OW 8350   1.709   4.109   3.243
 2659SOL    HW1 8351   1.782   4.178   3.247
 2659SOL    HW2 8352   1.737   4.034   3.184
 2660SOL     OW 8353   0.672   3.927   3.351
 2660SOL    HW1 8354   0.762   3.911   3.311
 2660SOL    HW2 8355   0.680   3.932   3.450
 2661SOL     OW 8356   0.075   4.069   1.895
 2661SOL    HW1 8357  -0.017   4.041   1.866
 2661SOL    HW2 8358   0.106   4.146   1.839
 2662SOL     OW 8359   0.072   3.890   2.180
 2662SOL    HW1 8360   0.055   3.973   2.126
 2662SOL    HW2 8361   0.162   3.853   2.158
 2663SOL     OW 8362   0.716   4.289   3.570
 2663SOL    HW1 8363   0.735   4.354   3.644
 2663SOL    HW2 8364   0.776   4.209   3.579
 2664SOL     OW 8365   1.225   4.049   2.311
 2664SOL    HW1 8366   1.290   3.975   2.300
 2664SOL    HW2 8367   1.245   4.099   2.395
 2665SOL     OW 8368   1.777   4.066   3.504
 2665SOL    HW1 8369   1.760   4.097   3.410
 2665SOL    HW2 8370   1.693   4.029   3.542
 2666SOL     OW 8371   1.083   4.708   1.949
 2666SOL    HW1 8372   1.060   4.761   1.867
 2666SOL    HW2 8373   1.164   4.652   1.930
 2667SOL     OW 8374   1.824   3.916   3.089
 2667SOL    HW1 8375   1.820   3.826   3.133
 2667SOL    HW2 8376   1.827   3.905   2.990
 2668SOL     OW 8377   0.428   4.148   2.382
 2668SOL    HW1 8378   0.458   4.076   2.320
 2668SOL    HW2 8379   0.389   4.108   2.465
 2669SOL     OW 8380   0.317   4.271   3.142
 2669SOL    HW1 8381   0.355   4.212   3.214
 2669SOL    HW2 8382   0.357   4.245   3.054
 2670SOL     OW 8383   1.424   3.938   2.974
 2670SOL    HW1 8384   1.476   3.873   3.029
 2670SOL    HW2 8385   1.375   4.001   3.035
 2671SOL     OW 8386   1.001   3.758   3.016
 2671SOL    HW1 8387   0.938   3.686   2.985
 2671SOL    HW2 8388   1.094   3.722   3.016
 2672SOL     OW 8389   1.352   3.776   2.030
 2672SOL    HW1 8390   1.387   3.735   1.946
 2672SOL    HW2 8391   1.262   3.738   2.050
 2673SOL     OW 8392   1.300   4.177   2.553
 2673SOL    HW1 8393   1.241   4.257   2.557
 2673SOL    HW2 8394   1.315   4.142   2.646
 2674SOL     OW 8395   1.593   3.945   2.744
 2674SOL    HW1 8396   1.509   3.944   2.798
 2674SOL    HW2 8397   1.595   4.028   2.688
 2675SOL     OW 8398   0.230   4.352   3.837
 2675SOL    HW1 8399   0.137   4.350   3.874
 2675SOL    HW2 8400   0.231   4.313   3.745
 2676SOL     OW 8401   0.225   3.999   4.720
 2676SOL    HW1 8402   0.260   3.982   4.812
 2676SOL    HW2 8403   0.137   3.954   4.708
 2677SOL     OW 8404   0.019   4.092   4.371
 2677SOL    HW1 8405  -0.063   4.135   4.410
 2677SOL    HW2 8406  -0.009   4.019   4.308
 2678SOL     OW 8407   1.755   4.331   3.955
 2678SOL    HW1 8408   1.743   4.318   3.856
 2678SOL    HW2 8409   1.725   4.250   4.004
 2679SOL     OW 8410   0.685   4.736   4.389
 2679SOL    HW1 8411   0.754   4.720   4.459
 2679SOL    HW2 8412   0.612   4.793   4.427
 2680SOL     OW 8413   0.438   4.116   5.223
 2680SOL    HW1 8414   0.520   4.060   5.232
 2680SOL    HW2 8415   0.357   4.058   5.227
 2681SOL     OW 8416   1.603   4.171   4.461
 2681SOL    HW1 8417   1.529   4.217   4.411
 2681SOL    HW2 8418   1.654   4.239   4.514
 2682SOL     OW 8419   1.594   3.838   5.204
 2682SOL    HW1 8420   1.576   3.905   5.132
 2682SOL    HW2 8421   1.591   3.884   5.293
 2683SOL     OW 8422   0.122   4.367   4.287
 2683SOL    HW1 8423   0.077   4.279   4.304
 2683SOL    HW2 8424   0.121   4.421   4.371
 2684SOL     OW 8425   0.113   4.461   5.321
 2684SOL    HW1 8426   0.201   4.448   5.366
 2684SOL    HW2 8427   0.100   4.558   5.299
 2685SOL     OW 8428   0.809   3.728   4.226
 2685SOL    HW1 8429   0.849   3.819   4.217
 2685SOL    HW2 8430   0.709   3.736   4.232
 2686SOL     OW 8431   0.317   3.975   5.525
 2686SOL    HW1 8432   0.388   4.046   5.531
 2686SOL    HW2 8433   0.229   4.014   5.553
 2687SOL     OW 8434   1.281   4.069   4.668
 2687SOL    HW1 8435   1.195   4.019   4.655
 2687SOL    HW2 8436   1.343   4.015   4.724
 2688SOL     OW 8437   0.807   4.329   5.189
 2688SOL    HW1 8438   0.760   4.326   5.278
 2688SOL    HW2 8439   0.756   4.274   5.123
 2689SOL     OW 8440   1.394   4.193   5.398
 2689SOL    HW1 8441   1.374   4.236   5.486
 2689SOL    HW2 8442   1.472   4.131   5.407
 2690SOL     OW 8443   0.991   4.134   4.966
 2690SOL    HW1 8444   0.914   4.168   5.020
 2690SOL    HW2 8445   0.957   4.083   4.887
 2691SOL     OW 8446   1.041   4.425   4.153
 2691SOL    HW1 8447   1.067   4.421   4.249
 2691SOL    HW2 8448   0.956   4.374   4.139
 2692SOL     OW 8449   0.076   4.535   4.513
 2692SOL    HW1 8450   0.175   4.523   4.522
 2692SOL    HW2 8451   0.052   4.630   4.534
 2693SOL     OW 8452   0.865   4.072   3.919
 2693SOL    HW1 8453   0.924   4.135   3.870
 2693SOL    HW2 8454   0.884   3.978   3.890
 2694SOL     OW 8455   1.719   4.309   5.555
 2694SOL    HW1 8456   1.693   4.398   5.519
 2694SOL    HW2 8457   1.717   4.241   5.482
 2695SOL     OW 8458   0.550   3.920   4.609
 2695SOL    HW1 8459   0.545   3.915   4.709
 2695SOL    HW2 8460   0.552   4.016   4.580
 2696SOL     OW 8461   1.458   4.459   4.452
 2696SOL    HW1 8462   1.453   4.394   4.527
 2696SOL    HW2 8463   1.538   4.518   4.465
 2697SOL     OW 8464   0.202   4.009   5.222
 2697SOL    HW1 8465   0.122   4.069   5.209
 2697SOL    HW2 8466   0.192   3.960   5.308
 2698SOL     OW 8467   1.400   3.831   4.150
 2698SOL    HW1 8468   1.376   3.794   4.060
 2698SOL    HW2 8469   1.499   3.847   4.154
 2699SOL     OW 8470   0.382   4.424   4.204
 2699SOL    HW1 8471   0.427   4.334   4.201
 2699SOL    HW2 8472   0.288   4.413   4.237
 2700SOL     OW 8473   1.547   3.946   5.453
 2700SOL    HW1 8474   1.542   3.983   5.545
 2700SOL    HW2 8475   1.475   3.877   5.441
 2701SOL     OW 8476   0.614   3.846   3.841
 2701SOL    HW1 8477   0.712   3.824   3.848
 2701SOL    HW2 8478   0.583   3.829   3.748
 2702SOL     OW 8479   0.781   3.988   5.473
 2702SOL    HW1 8480   0.848   3.927   5.516
 2702SOL    HW2 8481   0.708   4.007   5.538
 2703SOL     OW 8482   1.351   4.314   5.157
 2703SOL    HW1 8483   1.379   4.271   5.242
 2703SOL    HW2 8484   1.376   4.410   5.158
 2704SOL     OW 8485   0.922   4.227   4.623
 2704SOL    HW1 8486   0.897   4.218   4.527
 2704SOL    HW2 8487   0.970   4.145   4.654
 2705SOL     OW 8488   0.539   3.788   4.236
 2705SOL    HW1 8489   0.458   3.789   4.294
 2705SOL    HW2 8490   0.542   3.871   4.181
 2706SOL     OW 8491   0.297   3.759   3.895
 2706SOL    HW1 8492   0.346   3.843   3.874
 2706SOL    HW2 8493   0.359   3.694   3.940
 2707SOL     OW 8494   0.935   3.960   4.204
 2707SOL    HW1 8495   0.887   4.001   4.126
 2707SOL    HW2 8496   1.034   3.958   4.185
 2708SOL     OW 8497   1.076   4.407   5.188
 2708SOL    HW1 8498   0.996   4.346   5.191
 2708SOL    HW2 8499   1.157   4.354   5.164
 2709SOL     OW 8500   1.032   4.273   3.740
 2709SOL    HW1 8501   0.991   4.355   3.701
 2709SOL    HW2 8502   1.096   4.299   3.813
 2710SOL     OW 8503   0.078   4.280   5.110
 2710SOL    HW1 8504   0.170   4.279   5.069
 2710SOL    HW2 8505   0.072   4.354   5.177
 2711SOL     OW 8506   0.561   3.946   4.871
 2711SOL    HW1 8507   0.599   3.862   4.908
 2711SOL    HW2 8508   0.473   3.965   4.915
 2712SOL     OW 8509   0.866   4.178   4.366
 2712SOL    HW1 8510   0.834   4.250   4.304
 2712SOL    HW2 8511   0.890   4.097   4.313
 2713SOL     OW 8512   1.017   3.763   4.477
 2713SOL    HW1 8513   0.945   3.768   4.408
 2713SOL    HW2 8514   0.993   3.694   4.546
 2714SOL     OW 8515   1.466   4.314   4.716
 2714SOL    HW1 8516   1.436   4.219   4.723
 2714SOL    HW2 8517   1.539   4.330   4.782
 2715SOL     OW 8518   1.390   4.299   3.802
 2715SOL    HW1 8519   1.336   4.278   3.883
 2715SOL    HW2 8520   1.481   4.258   3.811
 2716SOL     OW 8521   0.527   3.980   4.052
 2716SOL    HW1 8522   0.554   3.921   3.977
 2716SOL    HW2 8523   0.527   4.075   4.021
 2717SOL     OW 8524   0.915   3.813   5.126
 2717SOL    HW1 8525   0.940   3.793   5.031
 2717SOL    HW2 8526   0.987   3.869   5.168
 2718SOL     OW 8527   0.410   4.537   4.975
 2718SOL    HW1 8528   0.496   4.549   5.025
 2718SOL    HW2 8529   0.368   4.450   5.002
 2719SOL     OW 8530   1.274   4.110   4.986
 2719SOL    HW1 8531   1.295   4.184   5.050
 2719SOL    HW2 8532   1.185   4.127   4.943
 2720SOL     OW 8533   0.566   4.261   4.589
 2720SOL    HW1 8534   0.578   4.327   4.515
 2720SOL    HW2 8535   0.612   4.295   4.672
 2721SOL     OW 8536   1.582   4.363   4.196
 2721SOL    HW1 8537   1.551   4.424   4.269
 2721SOL    HW2 8538   1.632   4.415   4.127
 2722SOL     OW 8539   1.013   3.829   5.494
 2722SOL    HW1 8540   1.019   3.914   5.442
 2722SOL    HW2 8541   1.045   3.753   5.437
 2723SOL     OW 8542   0.504   3.774   5.464
 2723SOL    HW1 8543   0.462   3.717   5.394
 2723SOL    HW2 8544   0.438   3.843   5.496
 2724SOL     OW 8545   1.209   4.249   3.999
 2724SOL    HW1 8546   1.222   4.165   4.053
 2724SOL    HW2 8547   1.180   4.323   4.059
 2725SOL     OW 8548   0.307   3.937   4.955
 2725SOL    HW1 8549   0.284   3.974   5.045
 2725SOL    HW2 8550   0.277   3.842   4.949
 2726SOL     OW 8551   0.732   4.358   4.788
 2726SOL    HW1 8552   0.791   4.332   4.712
 2726SOL    HW2 8553   0.704   4.454   4.777
 2727SOL     OW 8554   1.728   4.659   5.578
 2727SOL    HW1 8555   1.682   4.652   5.489
 2727SOL    HW2 8556   1.666   4.703   5.644
 2728SOL     OW 8557   0.307   3.787   4.342
 2728SOL    HW1 8558   0.296   3.881   4.375
 2728SOL    HW2 8559   0.302   3.724   4.419
 2729SOL     OW 8560   1.622   4.091   4.098
 2729SOL    HW1 8561   1.624   4.015   4.162
 2729SOL    HW2 8562   1.574   4.168   4.138
 2730SOL     OW 8563   1.540   3.998   3.849
 2730SOL    HW1 8564   1.479   3.923   3.872
 2730SOL    HW2 8565   1.562   4.050   3.932
 2731SOL     OW 8566   0.319   4.534   4.673
 2731SOL    HW1 8567   0.412   4.570   4.678
 2731SOL    HW2 8568   0.313   4.449   4.725
 2732SOL     OW 8569   0.339   4.233   4.730
 2732SOL    HW1 8570   0.287   4.150   4.713
 2732SOL    HW2 8571   0.416   4.238   4.666
 2733SOL     OW 8572   1.138   4.104   5.402
 2733SOL    HW1 8573   1.093   4.167   5.466
 2733SOL    HW2 8574   1.231   4.135   5.385
 2734SOL     OW 8575   1.160   3.931   5.201
 2734SOL    HW1 8576   1.160   3.995   5.278
 2734SOL    HW2 8577   1.188   3.979   5.118
 2735SOL     OW 8578   0.040   4.268   4.838
 2735SOL    HW1 8579   0.125   4.235   4.797
 2735SOL    HW2 8580   0.053   4.283   4.936
 2736SOL     OW 8581   0.189   4.244   5.446
 2736SOL    HW1 8582   0.248   4.204   5.376
 2736SOL    HW2 8583   0.131   4.315   5.405
 2737SOL     OW 8584   0.815   4.296   4.049
 2737SOL    HW1 8585   0.822   4.207   4.003
 2737SOL    HW2 8586   0.721   4.330   4.041
 2738SOL     OW 8587   1.657   4.328   4.930
 2738SOL    HW1 8588   1.619   4.259   4.992
 2738SOL    HW2 8589   1.739   4.292   4.886
 2739SOL     OW 8590   0.671   4.188   4.993
 2739SOL    HW1 8591   0.637   4.099   4.963
 2739SOL    HW2 8592   0.697   4.242   4.913
 2740SOL     OW 8593   0.473   4.224   3.915
 2740SOL    HW1 8594   0.534   4.304   3.919
 2740SOL    HW2 8595   0.378   4.255   3.922
 2741SOL     OW 8596   1.726   3.859   4.247
 2741SOL    HW1 8597   1.799   3.842   4.180
 2741SOL    HW2 8598   1.695   3.772   4.285
 2742SOL     OW 8599   1.280   4.651   4.396
 2742SOL    HW1 8600   1.340   4.570   4.398
 2742SOL    HW2 8601   1.320   4.720   4.336
 2743SOL     OW 8602   1.841   3.899   4.687
 2743SOL    HW1 8603   1.880   3.814   4.651
 2743SOL    HW2 8604   1.743   3.901   4.668
 2744SOL     OW 8605   0.263   4.050   4.444
 2744SOL    HW1 8606   0.184   4.101   4.410
 2744SOL    HW2 8607   0.254   4.035   4.542
 2745SOL     OW 8608   0.916   4.634   4.015
 2745SOL    HW1 8609   0.979   4.672   3.947
 2745SOL    HW2 8610   0.956   4.551   4.054
 2746SOL     OW 8611   1.039   4.822   4.420
 2746SOL    HW1 8612   0.969   4.775   4.474
 2746SOL    HW2 8613   1.098   4.754   4.377
 2747SOL     OW 8614   1.014   3.960   4.695
 2747SOL    HW1 8615   1.006   3.924   4.602
 2747SOL    HW2 8616   1.012   3.884   4.760
 2748SOL     OW 8617   1.709   4.109   5.105
 2748SOL    HW1 8618   1.782   4.178   5.109
 2748SOL    HW2 8619   1.737   4.034   5.046
 2749SOL     OW 8620   0.672   3.927   5.213
 2749SOL    HW1 8621   0.762   3.911   5.173
 2749SOL    HW2 8622   0.680   3.932   5.312
 2750SOL     OW 8623   0.075   4.069   3.757
 2750SOL    HW1 8624  -0.017   4.041   3.728
 2750SOL    HW2 8625   0.106   4.146   3.701
 2751SOL     OW 8626   0.072   3.890   4.042
 2751SOL    HW1 8627   0.055   3.973   3.988
 2751SOL    HW2 8628   0.162   3.853   4.020
 2752SOL     OW 8629   0.716   4.289   5.432
 2752SOL    HW1 8630   0.735   4.354   5.506
 2752SOL    HW2 8631   0.776   4.209   5.441
 2753SOL     OW 8632   1.225   4.049   4.173
 2753SOL    HW1 8633   1.290   3.975   4.162
 2753SOL    HW2 8634   1.245   4.099   4.257
 2754SOL     OW 8635   1.777   4.066   5.366
 2754SOL    HW1 8636   1.760   4.097   5.272
 2754SOL    HW2 8637   1.693   4.029   5.404
 2755SOL     OW 8638   1.083   4.708   3.811
 2755SOL    HW1 8639   1.060   4.761   3.729
 2755SOL    HW2 8640   1.164   4.652   3.792
 2756SOL     OW 8641   1.824   3.916   4.951
 2756SOL    HW1 8642   1.820   3.826   4.995
 2756SOL    HW2 8643   1.827   3.905   4.852
 2757SOL     OW 8644   0.428   4.148   4.244
 2757SOL    HW1 8645   0.458   4.076   4.182
 2757SOL    HW2 8646   0.389   4.108   4.327
 2758SOL     OW 8647   0.317   4.271   5.004
 2758SOL    HW1 8648   0.355   4.212   5.076
 2758SOL    HW2 8649   0.357   4.245   4.916
 2759SOL     OW 8650   1.424   3.938   4.836
 2759SOL    HW1 8651   1.476   3.873   4.891
 2759SOL    HW2 8652   1.375   4.001   4.897
 2760SOL     OW 8653   1.001   3.758   4.878
 2760SOL    HW1 8654   0.938   3.686   4.847
 2760SOL    HW2 8655   1.094   3.722   4.878
 2761SOL     OW 8656   1.352   3.776   3.892
 2761SOL    HW1 8657   1.387   3.735   3.808
 2761SOL    HW2 8658   1.262   3.738   3.912
 2762SOL     OW 8659   1.300   4.177   4.415
 2762SOL    HW1 8660   1.241   4.257   4.419
 2762SOL    HW2 8661   1.315   4.142   4.508
 2763SOL     OW 8662   1.593   3.945   4.606
 2763SOL    HW1 8663   1.509   3.944   4.660
 2763SOL    HW2 8664   1.595   4.028   4.550
 2764SOL     OW 8665   0.230   4.352   5.699
 2764SOL    HW1 8666   0.137   4.350   5.736
 2764SOL    HW2 8667   0.231   4.313   5.607
 2765SOL     OW 8668   0.225   3.999   6.582
 2765SOL    HW1 8669   0.260   3.982   6.674
 2765SOL    HW2 8670   0.137   3.954   6.570
 2766SOL     OW 8671   0.019   4.092   6.233
 2766SOL    HW1 8672  -0.063   4.135   6.272
 2766SOL    HW2 8673  -0.009   4.019   6.170
 2767SOL     OW 8674   1.755   4.331   5.817
 2767SOL    HW1 8675   1.743   4.318   5.718
 2767SOL    HW2 8676   1.725   4.250   5.866
 2768SOL     OW 8677   0.685   4.736   6.251
 2768SOL    HW1 8678   0.754   4.720   6.321
 2768SOL    HW2 8679   0.612   4.793   6.289
 2769SOL     OW 8680   0.438   4.116   7.085
 2769SOL    HW1 8681   0.520   4.060   7.094
 2769SOL    HW2 8682   0.357   4.058   7.089
 2770SOL     OW 8683   1.603   4.171   6.323
 2770SOL    HW1 8684   1.529   4.217   6.273
 2770SOL    HW2 8685   1.654   4.239   6.376
 2771SOL     OW 8686   1.594   3.838   7.066
 2771SOL    HW1 8687   1.576   3.905   6.994
 2771SOL    HW2 8688   1.591   3.884   7.155
 2772SOL     OW 8689   0.122   4.367   6.149
 2772SOL    HW1 8690   0.077   4.279   6.166
 2772SOL    HW2 8691   0.121   4.421   6.233
 2773SOL     OW 8692   0.113   4.461   7.183
 2773SOL    HW1 8693   0.201   4.448   7.228
 2773SOL    HW2 8694   0.100   4.558   7.161
 2774SOL     OW 8695   0.809   3.728   6.088
 2774SOL    HW1 8696   0.849   3.819   6.079
 2774SOL    HW2 8697   0.709   3.736   6.094
 2775SOL     OW 8698   0.317   3.975   7.387
 2775SOL    HW1 8699   0.388   4.046   7.393
 2775SOL    HW2 8700   0.229   4.014   7.415
 2776SOL     OW 8701   1.281   4.069   6.530
 2776SOL    HW1 8702   1.195   4.019   6.517
 2776SOL    HW2 8703   1.343   4.015   6.586
 2777SOL     OW 8704   0.807   4.329   7.051
 2777SOL    HW1 8705   0.760   4.326   7.140
 2777SOL    HW2 8706   0.756   4.274   6.985
 2778SOL     OW 8707   1.394   4.193   7.260
 2778SOL    HW1 8708   1.374   4.236   7.348
 2778SOL    HW2 8709   1.472   4.131   7.269
 2779SOL     OW 8710   0.991   4.134   6.828
 2779SOL    HW1 8711   0.914   4.168   6.882
 2779SOL    HW2 8712   0.957   4.083   6.749
 2780SOL     OW 8713   1.041   4.425   6.015
 2780SOL    HW1 8714   1.067   4.421   6.111
 2780SOL    HW2 8715   0.956   4.374   6.001
 2781SOL     OW 8716   0.076   4.535   6.375
 2781SOL    HW1 8717   0.175   4.523   6.384
 2781SOL    HW2 8718   0.052   4.630   6.396
 2782SOL     OW 8719   0.865   4.072   5.781
 2782SOL    HW1 8720   0.924   4.135   5.732
 2782SOL    HW2 8721   0.884   3.978   5.752
 2783SOL     OW 8722   1.719   4.309   7.417
 2783SOL    HW1 8723   1.693   4.398   7.381
 2783SOL    HW2 8724   1.717   4.241   7.344
 2784SOL     OW 8725   0.550   3.920   6.471
 2784SOL    HW1 8726   0.545   3.915   6.571
 2784SOL    HW2 8727   0.552   4.016   6.442
 2785SOL     OW 8728   1.458   4.459   6.314
 2785SOL    HW1 8729   1.453   4.394   6.389
 2785SOL    HW2 8730   1.538   4.518   6.327
 2786SOL     OW 8731   0.202   4.009   7.084
 2786SOL    HW1 8732   0.122   4.069   7.071
 2786SOL    HW2 8733   0.192   3.960   7.170
 2787SOL     OW 8734   1.400   3.831   6.012
 2787SOL    HW1 8735   1.376   3.794   5.922
 2787SOL    HW2 8736   1.499   3.847   6.016
 2788SOL     OW 8737   0.382   4.424   6.066
 2788SOL    HW1 8738   0.427   4.334   6.063
 2788SOL    HW2 8739   0.288   4.413   6.099
 2789SOL     OW 8740   1.547   3.946   7.315
 2789SOL    HW1 8741   1.542   3.983   7.407
 2789SOL    HW2 8742   1.475   3.877   7.303
 2790SOL     OW 8743   0.614   3.846   5.703
 2790SOL    HW1 8744   0.712   3.824   5.710
 2790SOL    HW2 8745   0.583   3.829   5.610
 2791SOL     OW 8746   0.781   3.988   7.335
 2791SOL    HW1 8747   0.848   3.927   7.378
 2791SOL    HW2 8748   0.708   4.007   7.400
 2792SOL     OW 8749   1.351   4.314   7.019
 2792SOL    HW1 8750   1.379   4.271   7.104
 2792SOL    HW2 8751   1.376   4.410   7.020
 2793SOL     OW 8752   0.922   4.227   6.485
 2793SOL    HW1 8753   0.897   4.218   6.389
 2793SOL    HW2 8754   0.970   4.145   6.516
 2794SOL     OW 8755   0.539   3.788   6.098
 2794SOL    HW1 8756   0.458   3.789   6.156
 2794SOL    HW2 8757   0.542   3.871   6.043
 2795SOL     OW 8758   0.297   3.759   5.757
 2795SOL    HW1 8759   0.346   3.843   5.736
 2795SOL    HW2 8760   0.359   3.694   5.802
 2796SOL     OW 8761   0.935   3.960   6.066
 2796SOL    HW1 8762   0.887   4.001   5.988
 2796SOL    HW2 8763   1.034   3.958   6.047
 2797SOL     OW 8764   1.076   4.407   7.050
 2797SOL    HW1 8765   0.996   4.346   7.053
 2797SOL    HW2 8766   1.157   4.354   7.026
 2798SOL     OW 8767   1.032   4.273   5.602
 2798SOL    HW1 8768   0.991   4.355   5.563
 2798SOL    HW2 8769   1.096   4.299   5.675
 2799SOL     OW 8770   0.078   4.280   6.972
 2799SOL    HW1 8771   0.170   4.279   6.931
 2799SOL    HW2 8772   0.072   4.354   7.039
 2800SOL     OW 8773   0.561   3.946   6.733
 2800SOL    HW1 8774   0.599   3.862   6.770
 2800SOL    HW2 8775   0.473   3.965   6.777
 2801SOL     OW 8776   0.866   4.178   6.228
 2801SOL    HW1 8777   0.834   4.250   6.166
 2801SOL    HW2 8778   0.890   4.097   6.175
 2802SOL     OW 8779   1.017   3.763   6.339
 2802SOL    HW1 8780   0.945   3.768   6.270
 2802SOL    HW2 8781   0.993   3.694   6.408
 2803SOL     OW 8782   1.466   4.314   6.578
 2803SOL    HW1 8783   1.436   4.219   6.585
 2803SOL    HW2 8784   1.539   4.330   6.644
 2804SOL     OW 8785   1.390   4.299   5.664
 2804SOL    HW1 8786   1.336   4.278   5.745
 2804SOL    HW2 8787   1.481   4.258   5.673
 2805SOL     OW 8788   0.527   3.980   5.914
 2805SOL    HW1 8789   0.554   3.921   5.839
 2805SOL    HW2 8790   0.527   4.075   5.883
 2806SOL     OW 8791   0.915   3.813   6.988
 2806SOL    HW1 8792   0.940   3.793   6.893
 2806SOL    HW2 8793   0.987   3.869   7.030
 2807SOL     OW 8794   0.410   4.537   6.837
 2807SOL    HW1 8795   0.496   4.549   6.887
 2807SOL    HW2 8796   0.368   4.450   6.864
 2808SOL     OW 8797   1.274   4.110   6.848
 2808SOL    HW1 8798   1.295   4.184   6.912
 2808SOL    HW2 8799   1.185   4.127   6.805
 2809SOL     OW 8800   0.566   4.261   6.451
 2809SOL    HW1 8801   0.578   4.327   6.377
 2809SOL    HW2 8802   0.612   4.295   6.534
 2810SOL     OW 8803   1.582   4.363   6.058
 2810SOL    HW1 8804   1.551   4.424   6.131
 2810SOL    HW2 8805   1.632   4.415   5.989
 2811SOL     OW 8806   1.013   3.829   7.356
 2811SOL    HW1 8807   1.019   3.914   7.304
 2811SOL    HW2 8808   1.045   3.753   7.299
 2812SOL     OW 8809   0.504   3.774   7.326
 2812SOL    HW1 8810   0.462   3.717   7.256
 2812SOL    HW2 8811   0.438   3.843   7.358
 2813SOL     OW 8812   1.209   4.249   5.861
 2813SOL    HW1 8813   1.222   4.165   5.915
 2813SOL    HW2 8814   1.180   4.323   5.921
 2814SOL     OW 8815   0.307   3.937   6.817
 2814SOL    HW1 8816   0.284   3.974   6.907
 2814SOL    HW2 8817   0.277   3.842   6.811
 2815SOL     OW 8818   0.732   4.358   6.650
 2815SOL    HW1 8819   0.791   4.332   6.574
 2815SOL    HW2 8820   0.704   4.454   6.639
 2816SOL     OW 8821   1.728   4.659   7.440
 2816SOL    HW1 8822   1.682   4.652   7.351
 2816SOL    HW2 8823   1.666   4.703   7.506
 2817SOL     OW 8824   0.307   3.787   6.204
 2817SOL    HW1 8825   0.296   3.881   6.237
 2817SOL    HW2 8826   0.302   3.724   6.281
 2818SOL     OW 8827   1.622   4.091   5.960
 2818SOL    HW1 8828   1.624   4.015   6.024
 2818SOL    HW2 8829   1.574   4.168   6.000
 2819SOL     OW 8830   1.540   3.998   5.711
 2819SOL    HW1 8831   1.479   3.923   5.734
 2819SOL    HW2 8832   1.562   4.050   5.794
 2820SOL     OW 8833   0.319   4.534   6.535
 2820SOL    HW1 8834   0.412   4.570   6.540
 2820SOL    HW2 8835   0.313   4.449   6.587
 2821SOL     OW 8836   0.339   4.233   6.592
 2821SOL    HW1 8837   0.287   4.150   6.575
 2821SOL    HW2 8838   0.416   4.238   6.528
 2822SOL     OW 8839   1.138   4.104   7.264
 2822SOL    HW1 8840   1.093   4.167   7.328
 2822SOL    HW2 8841   1.231   4.135   7.247
 2823SOL     OW 8842   1.160   3.931   7.063
 2823SOL    HW1 8843   1.160   3.995   7.140
 2823SOL    HW2 8844   1.188   3.979   6.980
 2824SOL     OW 8845   0.040   4.268   6.700
 2824SOL    HW1 8846   0.125   4.235   6.659
 2824SOL    HW2 8847   0.053   4.283   6.798
 2825SOL     OW 8848   0.189   4.244   7.308
 2825SOL    HW1 8849   0.248   4.204   7.238
 2825SOL    HW2 8850   0.131   4.315   7.267
 2826SOL     OW 8851   0.815   4.296   5.911
 2826SOL    HW1 8852   0.822   4.207   5.865
 2826SOL    HW2 8853   0.721   4.330   5.903
 2827SOL     OW 8854   1.657   4.328   6.792
 2827SOL    HW1 8855   1.619   4.259   6.854
 2827SOL    HW2 8856   1.739   4.292   6.748
 2828SOL     OW 8857   0.671   4.188   6.855
 2828SOL    HW1 8858   0.637   4.099   6.825
 2828SOL    HW2 8859   0.697   4.242   6.775
 2829SOL     OW 8860   0.473   4.224   5.777
 2829SOL    HW1 8861   0.534   4.304   5.781
 2829SOL    HW2 8862   0.378   4.255   5.784
 2830SOL     OW 8863   1.726   3.859   6.109
 2830SOL    HW1 8864   1.799   3.842   6.042
 2830SOL    HW2 8865   1.695   3.772   6.147
 2831SOL     OW 8866   1.280   4.651   6.258
 2831SOL    HW1 8867   1.340   4.570   6.260
 2831SOL    HW2 8868   1.320   4.720   6.198
 2832SOL     OW 8869   1.841   3.899   6.549
 2832SOL    HW1 8870   1.880   3.814   6.513
 2832SOL    HW2 8871   1.743   3.901   6.530
 2833SOL     OW 8872   0.263   4.050   6.306
 2833SOL    HW1 8873   0.184   4.101   6.272
 2833SOL    HW2 8874   0.254   4.035   6.404
 2834SOL     OW 8875   0.916   4.634   5.877
 2834SOL    HW1 8876   0.979   4.672   5.809
 2834SOL    HW2 8877   0.956   4.551   5.916
 2835SOL     OW 8878   1.039   4.822   6.282
 2835SOL    HW1 8879   0.969   4.775   6.336
 2835SOL    HW2 8880   1.098   4.754   6.239
 2836SOL     OW 8881   1.014   3.960   6.557
 2836SOL    HW1 8882   1.006   3.924   6.464
 2836SOL    HW2 8883   1.012   3.884   6.622
 2837SOL     OW 8884   1.709   4.109   6.967
 2837SOL    HW1 8885   1.782   4.178   6.971
 2837SOL    HW2 8886   1.737   4.034   6.908
 2838SOL     OW 8887   0.672   3.927   7.075
 2838SOL    HW1 8888   0.762   3.911   7.035
 2838SOL    HW2 8889   0.680   3.932   7.174
 2839SOL     OW 8890   0.075   4.069   5.619
 2839SOL    HW1 8891  -0.017   4.041   5.590
 2839SOL    HW2 8892   0.106   4.146   5.563
 2840SOL     OW 8893   0.072   3.890   5.904
 2840SOL    HW1 8894   0.055   3.973   5.850
 2840SOL    HW2 8895   0.162   3.853   5.882
 2841SOL     OW 8896   0.716   4.289   7.294
 2841SOL    HW1 8897   0.735   4.354   7.368
 2841SOL    HW2 8898   0.776   4.209   7.303
 2842SOL     OW 8899   1.225   4.049   6.035
 2842SOL    HW1 8900   1.290   3.975   6.024
 2842SOL    HW2 8901   1.245   4.099   6.119
 2843SOL     OW 8902   1.777   4.066   7.228
 2843SOL    HW1 8903   1.760   4.097   7.134
 2843SOL    HW2 8904   1.693   4.029   7.266
 2844SOL     OW 8905   1.083   4.708   5.673
 2844SOL    HW1 8906   1.060   4.761   5.591
 2844SOL    HW2 8907   1.164   4.652   5.654
 2845SOL     OW 8908   1.824   3.916   6.813
 2845SOL    HW1 8909   1.820   3.826   6.857
 2845SOL    HW2 8910   1.827   3.905   6.714
 2846SOL     OW 8911   0.428   4.148   6.106
 2846SOL    HW1 8912   0.458   4.076   6.044
 2846SOL    HW2 8913   0.389   4.108   6.189
 2847SOL     OW 8914   0.317   4.271   6.866
 2847SOL    HW1 8915   0.355   4.212   6.938
 2847SOL    HW2 8916   0.357   4.245   6.778
 2848SOL     OW 8917   1.424   3.938   6.698
 2848SOL    HW1 8918   1.476   3.873   6.753
 2848SOL    HW2 8919   1.375   4.001   6.759
 2849SOL     OW 8920   1.001   3.758   6.740
 2849SOL    HW1 8921   0.938   3.686   6.709
 2849SOL    HW2 8922   1.094   3.722   6.740
 2850SOL     OW 8923   1.352   3.776   5.754
 2850SOL    HW1 8924   1.387   3.735   5.670
 2850SOL    HW2 8925   1.262   3.738   5.774
 2851SOL     OW 8926   1.300   4.177   6.277
 2851SOL    HW1 8927   1.241   4.257   6.281
 2851SOL    HW2 8928   1.315   4.142   6.370
 2852SOL     OW 8929   1.593   3.945   6.468
 2852SOL    HW1 8930   1.509   3.944   6.522
 2852SOL    HW2 8931   1.595   4.028   6.412
 2853SOL     OW 8932   0.230   4.352   7.561
 2853SOL    HW1 8933   0.137   4.350   7.598
 2853SOL    HW2 8934   0.231   4.313   7.469
 2854SOL     OW 8935   0.225   3.999   8.444
 2854SOL    HW1 8936   0.260   3.982   8.536
 2854SOL    HW2 8937   0.137   3.954   8.432
 2855SOL     OW 8938   0.019   4.092   8.095
 2855SOL    HW1 8939  -0.063   4.135   8.134
 2855SOL    HW2 8940  -0.009   4.019   8.032
 2856SOL     OW 8941   1.755   4.331   7.679
 2856SOL    HW1 8942   1.743   4.318   7.580
 2856SOL    HW2 8943   1.725   4.250   7.728
 2857SOL     OW 8944   0.685   4.736   8.113
 2857SOL    HW1 8945   0.754   4.720   8.183
 2857SOL    HW2 8946   0.612   4.793   8.151
 2858SOL     OW 8947   0.438   4.116   8.947
 2858SOL    HW1 8948   0.520   4.060   8.956
 2858SOL    HW2 8949   0.357   4.058   8.951
 2859SOL     OW 8950   1.603   4.171   8.185
 2859SOL    HW1 8951   1.529   4.217   8.135
 2859SOL    HW2 8952   1.654   4.239   8.238
 2860SOL     OW 8953   1.594   3.838   8.928
 2860SOL    HW1 8954   1.576   3.905   8.856
 2860SOL    HW2 8955   1.591   3.884   9.017
 2861SOL     OW 8956   0.122   4.367   8.011
 2861SOL    HW1 8957   0.077   4.279   8.028
 2861SOL    HW2 8958   0.121   4.421   8.095
 2862SOL     OW 8959   0.113   4.461   9.045
 2862SOL    HW1 8960   0.201   4.448   9.090
 2862SOL    HW2 8961   0.100   4.558   9.023
 2863SOL     OW 8962   0.809   3.728   7.950
 2863SOL    HW1 8963   0.849   3.819   7.941
 2863SOL    HW2 8964   0.709   3.736   7.956
 2864SOL     OW 8965   0.317   3.975   9.249
 2864SOL    HW1 8966   0.388   4.046   9.255
 2864SOL    HW2 8967   0.229   4.014   9.277
 2865SOL     OW 8968   1.281   4.069   8.392
 2865SOL    HW1 8969   1.195   4.019   8.379
 2865SOL    HW2 8970   1.343   4.015   8.448
 2866SOL     OW 8971   0.807   4.329   8.913
 2866SOL    HW1 8972   0.760   4.326   9.002
 2866SOL    HW2 8973   0.756   4.274   8.847
 2867SOL     OW 8974   1.394   4.193   9.122
 2867SOL    HW1 8975   1.374   4.236   9.210
 2867SOL    HW2 8976   1.472   4.131   9.131
 2868SOL     OW 8977   0.991   4.134   8.690
 2868SOL    HW1 8978   0.914   4.168   8.744
 2868SOL    HW2 8979   0.957   4.083   8.611
 2869SOL     OW 8980   1.041   4.425   7.877
 2869SOL    HW1 8981   1.067   4.421   7.973
 2869SOL    HW2 8982   0.956   4.374   7.863
 2870SOL     OW 8983   0.076   4.535   8.237
 2870SOL    HW1 8984   0.175   4.523   8.246
 2870SOL    HW2 8985   0.052   4.630   8.258
 2871SOL     OW 8986   0.865   4.072   7.643
 2871SOL    HW1 8987   0.924   4.135   7.594
 2871SOL    HW2 8988   0.884   3.978   7.614
 2872SOL     OW 8989   1.719   4.309   9.279
 2872SOL    HW1 8990   1.693   4.398   9.243
 2872SOL    HW2 8991   1.717   4.241   9.206
 2873SOL     OW 8992   0.550   3.920   8.333
 2873SOL    HW1 8993   0.545   3.915   8.433
 2873SOL    HW2 8994   0.552   4.016   8.304
 2874SOL     OW 8995   1.458   4.459   8.176
 2874SOL    HW1 8996   1.453   4.394   8.251
 2874SOL    HW2 8997   1.538   4.518   8.189
 2875SOL     OW 8998   0.202   4.009   8.946
 2875SOL    HW1 8999   0.122   4.069   8.933
 2875SOL    HW2 9000   0.192   3.960   9.032
 2876SOL     OW 9001   1.400   3.831   7.874
 2876SOL    HW1 9002   1.376   3.794   7.784
 2876SOL    HW2 9003   1.499   3.847   7.878
 2877SOL     OW 9004   0.382   4.424   7.928
 2877SOL    HW1 9005   0.427   4.334   7.925
 2877SOL    HW2 9006   0.288   4.413   7.961
 2878SOL     OW 9007   1.547   3.946   9.177
 2878SOL    HW1 9008   1.542   3.983   9.269
 2878SOL    HW2 9009   1.475   3.877   9.165
 2879SOL     OW 9010   0.614   3.846   7.565
 2879SOL    HW1 9011   0.712   3.824   7.572
 2879SOL    HW2 9012   0.583   3.829   7.472
 2880SOL     OW 9013   0.781   3.988   9.197
 2880SOL    HW1 9014   0.848   3.927   9.240
 2880SOL    HW2 9015   0.708   4.007   9.262
 2881SOL     OW 9016   1.351   4.314   8.881
 2881SOL    HW1 9017   1.379   4.271   8.966
 2881SOL    HW2 9018   1.376   4.410   8.882
 2882SOL     OW 9019   0.922   4.227   8.347
 2882SOL    HW1 9020   0.897   4.218   8.251
 2882SOL    HW2 9021   0.970   4.145   8.378
 2883SOL     OW 9022   0.539   3.788   7.960
 2883SOL    HW1 9023   0.458   3.789   8.018
 2883SOL    HW2 9024   0.542   3.871   7.905
 2884SOL     OW 9025   0.297   3.759   7.619
 2884SOL    HW1 9026   0.346   3.843   7.598
 2884SOL    HW2 9027   0.359   3.694   7.664
 2885SOL     OW 9028   0.935   3.960   7.928
 2885SOL    HW1 9029   0.887   4.001   7.850
 2885SOL    HW2 9030   1.034   3.958   7.909
 2886SOL     OW 9031   1.076   4.407   8.912
 2886SOL    HW1 9032   0.996   4.346   8.915
 2886SOL    HW2 9033   1.157   4.354   8.888
 2887SOL     OW 9034   1.032   4.273   7.464
 2887SOL    HW1 9035   0.991   4.355   7.425
 2887SOL    HW2 9036   1.096   4.299   7.537
 2888SOL     OW 9037   0.078   4.280   8.834
 2888SOL    HW1 9038   0.170   4.279   8.793
 2888SOL    HW2 9039   0.072   4.354   8.901
 2889SOL     OW 9040   0.561   3.946   8.595
 2889SOL    HW1 9041   0.599   3.862   8.632
 2889SOL    HW2 9042   0.473   3.965   8.639
 2890SOL     OW 9043   0.866   4.178   8.090
 2890SOL    HW1 9044   0.834   4.250   8.028
 2890SOL    HW2 9045   0.890   4.097   8.037
 2891SOL     OW 9046   1.017   3.763   8.201
 2891SOL    HW1 9047   0.945   3.768   8.132
 2891SOL    HW2 9048   0.993   3.694   8.270
 2892SOL     OW 9049   1.466   4.314   8.440
 2892SOL    HW1 9050   1.436   4.219   8.447
 2892SOL    HW2 9051   1.539   4.330   8.506
 2893SOL     OW 9052   1.390   4.299   7.526
 2893SOL    HW1 9053   1.336   4.278   7.607
 2893SOL    HW2 9054   1.481   4.258   7.535
 2894SOL     OW 9055   0.527   3.980   7.776
 2894SOL    HW1 9056   0.554   3.921   7.701
 2894SOL    HW2 9057   0.527   4.075   7.745
 2895SOL     OW 9058   0.915   3.813   8.850
 2895SOL    HW1 9059   0.940   3.793   8.755
 2895SOL    HW2 9060   0.987   3.869   8.892
 2896SOL     OW 9061   0.410   4.537   8.699
 2896SOL    HW1 9062   0.496   4.549   8.749
 2896SOL    HW2 9063   0.368   4.450   8.726
 2897SOL     OW 9064   1.274   4.110   8.710
 2897SOL    HW1 9065   1.295   4.184   8.774
 2897SOL    HW2 9066   1.185   4.127   8.667
 2898SOL     OW 9067   0.566   4.261   8.313
 2898SOL    HW1 9068   0.578   4.327   8.239
 2898SOL    HW2 9069   0.612   4.295   8.396
 2899SOL     OW 9070   1.582   4.363   7.920
 2899SOL    HW1 9071   1.551   4.424   7.993
 2899SOL    HW2 9072   1.632   4.415   7.851
 2900SOL     OW 9073   1.013   3.829   9.218
 2900SOL    HW1 9074   1.019   3.914   9.166
 2900SOL    HW2 9075   1.045   3.753   9.161
 2901SOL     OW 9076   0.504   3.774   9.188
 2901SOL    HW1 9077   0.462   3.717   9.118
 2901SOL    HW2 9078   0.438   3.843   9.220
 2902SOL     OW 9079   1.209   4.249   7.723
 2902SOL    HW1 9080   1.222   4.165   7.777
 2902SOL    HW2 9081   1.180   4.323   7.783
 2903SOL     OW 9082   0.307   3.937   8.679
 2903SOL    HW1 9083   0.284   3.974   8.769
 2903SOL    HW2 9084   0.277   3.842   8.673
 2904SOL     OW 9085   0.732   4.358   8.512
 2904SOL    HW1 9086   0.791   4.332   8.436
 2904SOL    HW2 9087   0.704   4.454   8.501
 2905SOL     OW 9088   1.728   4.659   9.302
 2905SOL    HW1 9089   1.682   4.652   9.213
 2905SOL    HW2 9090   1.666   4.703   9.368
 2906SOL     OW 9091   0.307   3.787   8.066
 2906SOL    HW1 9092   0.296   3.881   8.099
 2906SOL    HW2 9093   0.302   3.724   8.143
 2907SOL     OW 9094   1.622   4.091   7.822
 2907SOL    HW1 9095   1.624   4.015   7.886
 2907SOL    HW2 9096   1.574   4.168   7.862
 2908SOL     OW 9097   1.540   3.998   7.573
 2908SOL    HW1 9098   1.479   3.923   7.596
 2908SOL    HW2 9099   1.562   4.050   7.656
 2909SOL     OW 9100   0.319   4.534   8.397
 2909SOL    HW1 9101   0.412   4.570   8.402
 2909SOL    HW2 9102   0.313   4.449   8.449
 2910SOL     OW 9103   0.339   4.233   8.454
 2910SOL    HW1 9104   0.287   4.150   8.437
 2910SOL    HW2 9105   0.416   4.238   8.390
 2911SOL     OW 9106   1.138   4.104   9.126
 2911SOL    HW1 9107   1.093   4.167   9.190
 2911SOL    HW2 9108   1.231   4.135   9.109
 2912SOL     OW 9109   1.160   3.931   8.925
 2912SOL    HW1 9110   1.160   3.995   9.002
 2912SOL    HW2 9111   1.188   3.979   8.842
 2913SOL     OW 9112   0.040   4.268   8.562
 2913SOL    HW1 9113   0.125   4.235   8.521
 2913SOL    HW2 9114   0.053   4.283   8.660
 2914SOL     OW 9115   0.189   4.244   9.170
 2914SOL    HW1 9116   0.248   4.204   9.100
 2914SOL    HW2 9117   0.131   4.315   9.129
 2915SOL     OW 9118   0.815   4.296   7.773
 2915SOL    HW1 9119   0.822   4.207   7.727
 2915SOL    HW2 9120   0.721   4.330   7.765
 2916SOL     OW 9121   1.657   4.328   8.654
 2916SOL    HW1 9122   1.619   4.259   8.716
 2916SOL    HW2 9123   1.739   4.292   8.610
 2917SOL     OW 9124   0.671   4.188   8.717
 2917SOL    HW1 9125   0.637   4.099   8.687
 2917SOL    HW2 9126   0.697   4.242   8.637
 2918SOL     OW 9127   0.473   4.224   7.639
 2918SOL    HW1 9128   0.534   4.304   7.643
 2918SOL    HW2 9129   0.378   4.255   7.646
 2919SOL     OW 9130   1.726   3.859   7.971
 2919SOL    HW1 9131   1.799   3.842   7.904
 2919SOL    HW2 9132   1.695   3.772   8.009
 2920SOL     OW 9133   1.280   4.651   8.120
 2920SOL    HW1 9134   1.340   4.570   8.122
 2920SOL    HW2 9135   1.320   4.720   8.060
 2921SOL     OW 9136   1.841   3.899   8.411
 2921SOL    HW1 9137   1.880   3.814   8.375
 2921SOL    HW2 9138   1.743   3.901   8.392
 2922SOL     OW 9139   0.263   4.050   8.168
 2922SOL    HW1 9140   0.184   4.101   8.134
 2922SOL    HW2 9141   0.254   4.035   8.266
 2923SOL     OW 9142   0.916   4.634   7.739
 2923SOL    HW1 9143   0.979   4.672   7.671
 2923SOL    HW2 9144   0.956   4.551   7.778
 2924SOL     OW 9145   1.039   4.822   8.144
 2924SOL    HW1 9146   0.969   4.775   8.198
 2924SOL    HW2 9147   1.098   4.754   8.101
 2925SOL     OW 9148   1.014   3.960   8.419
 2925SOL    HW1 9149   1.006   3.924   8.326
 2925SOL    HW2 9150   1.012   3.884   8.484
 2926SOL     OW 9151   1.709   4.109   8.829
 2926SOL    HW1 9152   1.782   4.178   8.833
 2926SOL    HW2 9153   1.737   4.034   8.770
 2927SOL     OW 9154   0.672   3.927   8.937
 2927SOL    HW1 9155   0.762   3.911   8.897
 2927SOL    HW2 9156   0.680   3.932   9.036
 2928SOL     OW 9157   0.075   4.069   7.481
 2928SOL    HW1 9158  -0.017   4.041   7.452
 2928SOL    HW2 9159   0.106   4.146   7.425
 2929SOL     OW 9160   0.072   3.890   7.766
 2929SOL    HW1 9161   0.055   3.973   7.712
 2929SOL    HW2 9162   0.162   3.853   7.744
 2930SOL     OW 9163   0.716   4.289   9.156
 2930SOL    HW1 9164   0.735   4.354   9.230
 2930SOL    HW2 9165   0.776   4.209   9.165
 2931SOL     OW 9166   1.225   4.049   7.897
 2931SOL    HW1 9167   1.290   3.975   7.886
 2931SOL    HW2 9168   1.245   4.099   7.981
 2932SOL     OW 9169   1.777   4.066   9.090
 2932SOL    HW1 9170   1.760   4.097   8.996
 2932SOL    HW2 9171   1.693   4.029   9.128
 2933SOL     OW 9172   1.083   4.708   7.535
 2933SOL    HW1 9173   1.060   4.761   7.453
 2933SOL    HW2 9174   1.164   4.652   7.516
 2934SOL     OW 9175   1.824   3.916   8.675
 2934SOL    HW1 9176   1.820   3.826   8.719
 2934SOL    HW2 9177   1.827   3.905   8.576
 2935SOL     OW 9178   0.428   4.148   7.968
 2935SOL    HW1 9179   0.458   4.076   7.906
 2935SOL    HW2 9180   0.389   4.108   8.051
 2936SOL     OW 9181   0.317   4.271   8.728
 2936SOL    HW1 9182   0.355   4.212   8.800
 2936SOL    HW2 9183   0.357   4.245   8.640
 2937SOL     OW 9184   1.424   3.938   8.560
 2937SOL    HW1 9185   1.476   3.873   8.615
 2937SOL    HW2 9186   1.375   4.001   8.621
 2938SOL     OW 9187   1.001   3.758   8.602
 2938SOL    HW1 9188   0.938   3.686   8.571
 2938SOL    HW2 9189   1.094   3.722   8.602
 2939SOL     OW 9190   1.352   3.776   7.616
 2939SOL    HW1 9191   1.387   3.735   7.532
 2939SOL    HW2 9192   1.262   3.738   7.636
 2940SOL     OW 9193   1.300   4.177   8.139
 2940SOL    HW1 9194   1.241   4.257   8.143
 2940SOL    HW2 9195   1.315   4.142   8.232
 2941SOL     OW 9196   1.593   3.945   8.330
 2941SOL    HW1 9197   1.509   3.944   8.384
 2941SOL    HW2 9198   1.595   4.028   8.274
 2942SOL     OW 9199   0.230   4.352   9.423
 2942SOL    HW1 9200   0.137   4.350   9.460
 2942SOL    HW2 9201   0.231   4.313   9.331
 2943SOL     OW 9202   0.225   3.999  10.306
 2943SOL    HW1 9203   0.260   3.982  10.398
 2943SOL    HW2 9204   0.137   3.954  10.294
 2944SOL     OW 9205   0.019   4.092   9.957
 2944SOL    HW1 9206  -0.063   4.135   9.996
 2944SOL    HW2 9207  -0.009   4.019   9.894
 2945SOL     OW 9208   1.755   4.331   9.541
 2945SOL    HW1 9209   1.743   4.318   9.442
 2945SOL    HW2 9210   1.725   4.250   9.590
 2946SOL     OW 9211   0.685   4.736   9.975
 2946SOL    HW1 9212   0.754   4.720  10.045
 2946SOL    HW2 9213   0.612   4.793  10.013
 2947SOL     OW 9214   0.438   4.116  10.809
 2947SOL    HW1 9215   0.520   4.060  10.818
 2947SOL    HW2 9216   0.357   4.058  10.813
 2948SOL     OW 9217   1.603   4.171  10.047
 2948SOL    HW1 9218   1.529   4.217   9.997
 2948SOL    HW2 9219   1.654   4.239  10.100
 2949SOL     OW 9220   1.594   3.838  10.790
 2949SOL    HW1 9221   1.576   3.905  10.718
 2949SOL    HW2 9222   1.591   3.884  10.879
 2950SOL     OW 9223   0.122   4.367   9.873
 2950SOL    HW1 9224   0.077   4.279   9.890
 2950SOL    HW2 9225   0.121   4.421   9.957
 2951SOL     OW 9226   0.113   4.461  10.907
 2951SOL    HW1 9227   0.201   4.448  10.952
 2951SOL    HW2 9228   0.100   4.558  10.885
 2952SOL     OW 9229   0.809   3.728   9.812
 2952SOL    HW1 9230   0.849   3.819   9.803
 2952SOL    HW2 9231   0.709   3.736   9.818
 2953SOL     OW 9232   0.317   3.975  11.111
 2953SOL    HW1 9233   0.388   4.046  11.117
 2953SOL    HW2 9234   0.229   4.014  11.139
 2954SOL     OW 9235   1.281   4.069  10.254
 2954SOL    HW1 9236   1.195   4.019  10.241
 2954SOL    HW2 9237   1.343   4.015  10.310
 2955SOL     OW 9238   0.807   4.329  10.775
 2955SOL    HW1 9239   0.760   4.326  10.864
 2955SOL    HW2 9240   0.756   4.274  10.709
 2956SOL     OW 9241   0.991   4.134  10.552
 2956SOL    HW1 9242   0.914   4.168  10.606
 2956SOL    HW2 9243   0.957   4.083  10.473
 2957SOL     OW 9244   1.041   4.425   9.739
 2957SOL    HW1 9245   1.067   4.421   9.835
 2957SOL    HW2 9246   0.956   4.374   9.725
 2958SOL     OW 9247   0.076   4.535  10.099
 2958SOL    HW1 9248   0.175   4.523  10.108
 2958SOL    HW2 9249   0.052   4.630  10.120
 2959SOL     OW 9250   0.865   4.072   9.505
 2959SOL    HW1 9251   0.924   4.135   9.456
 2959SOL    HW2 9252   0.884   3.978   9.476
 2960SOL     OW 9253   0.550   3.920  10.195
 2960SOL    HW1 9254   0.545   3.915  10.295
 2960SOL    HW2 9255   0.552   4.016  10.166
 2961SOL     OW 9256   1.458   4.459  10.038
 2961SOL    HW1 9257   1.453   4.394  10.113
 2961SOL    HW2 9258   1.538   4.518  10.051
 2962SOL     OW 9259   0.202   4.009  10.808
 2962SOL    HW1 9260   0.122   4.069  10.795
 2962SOL    HW2 9261   0.192   3.960  10.894
 2963SOL     OW 9262   1.400   3.831   9.736
 2963SOL    HW1 9263   1.376   3.794   9.646
 2963SOL    HW2 9264   1.499   3.847   9.740
 2964SOL     OW 9265   0.382   4.424   9.790
 2964SOL    HW1 9266   0.427   4.334   9.787
 2964SOL    HW2 9267   0.288   4.413   9.823
 2965SOL     OW 9268   0.614   3.846   9.427
 2965SOL    HW1 9269   0.712   3.824   9.434
 2965SOL    HW2 9270   0.583   3.829   9.334
 2966SOL     OW 9271   0.781   3.988  11.059
 2966SOL    HW1 9272   0.848   3.927  11.102
 2966SOL    HW2 9273   0.708   4.007  11.124
 2967SOL     OW 9274   1.351   4.314  10.743
 2967SOL    HW1 9275   1.379   4.271  10.828
 2967SOL    HW2 9276   1.376   4.410  10.744
 2968SOL     OW 9277   0.922   4.227  10.209
 2968SOL    HW1 9278   0.897   4.218  10.113
 2968SOL    HW2 9279   0.970   4.145  10.240
 2969SOL     OW 9280   0.539   3.788   9.822
 2969SOL    HW1 9281   0.458   3.789   9.880
 2969SOL    HW2 9282   0.542   3.871   9.767
 2970SOL     OW 9283   0.297   3.759   9.481
 2970SOL    HW1 9284   0.346   3.843   9.460
 2970SOL    HW2 9285   0.359   3.694   9.526
 2971SOL     OW 9286   0.935   3.960   9.790
 2971SOL    HW1 9287   0.887   4.001   9.712
 2971SOL    HW2 9288   1.034   3.958   9.771
 2972SOL     OW 9289   1.076   4.407  10.774
 2972SOL    HW1 9290   0.996   4.346  10.777
 2972SOL    HW2 9291   1.157   4.354  10.750
 2973SOL     OW 9292   1.032   4.273   9.326
 2973SOL    HW1 9293   0.991   4.355   9.287
 2973SOL    HW2 9294   1.096   4.299   9.399
 2974SOL     OW 9295   0.078   4.280  10.696
 2974SOL    HW1 9296   0.170   4.279  10.655
 2974SOL    HW2 9297   0.072   4.354  10.763
 2975SOL     OW 9298   0.561   3.946  10.457
 2975SOL    HW1 9299   0.599   3.862  10.494
 2975SOL    HW2 9300   0.473   3.965  10.501
 2976SOL     OW 9301   0.866   4.178   9.952
 2976SOL    HW1 9302   0.834   4.250   9.890
 2976SOL    HW2 9303   0.890   4.097   9.899
 2977SOL     OW 9304   1.017   3.763  10.063
 2977SOL    HW1 9305   0.945   3.768   9.994
 2977SOL    HW2 9306   0.993   3.694  10.132
 2978SOL     OW 9307   1.466   4.314  10.302
 2978SOL    HW1 9308   1.436   4.219  10.309
 2978SOL    HW2 9309   1.539   4.330  10.368
 2979SOL     OW 9310   1.390   4.299   9.388
 2979SOL    HW1 9311   1.336   4.278   9.469
 2979SOL    HW2 9312   1.481   4.258   9.397
 2980SOL     OW 9313   0.527   3.980   9.638
 2980SOL    HW1 9314   0.554   3.921   9.563
 2980SOL    HW2 9315   0.527   4.075   9.607
 2981SOL     OW 9316   0.915   3.813  10.712
 2981SOL    HW1 9317   0.940   3.793  10.617
 2981SOL    HW2 9318   0.987   3.869  10.754
 2982SOL     OW 9319   0.410   4.537  10.561
 2982SOL    HW1 9320   0.496   4.549  10.611
 2982SOL    HW2 9321   0.368   4.450  10.588
 2983SOL     OW 9322   1.274   4.110  10.572
 2983SOL    HW1 9323   1.295   4.184  10.636
 2983SOL    HW2 9324   1.185   4.127  10.529
 2984SOL     OW 9325   0.566   4.261  10.175
 2984SOL    HW1 9326   0.578   4.327  10.101
 2984SOL    HW2 9327   0.612   4.295  10.258
 2985SOL     OW 9328   1.582   4.363   9.782
 2985SOL    HW1 9329   1.551   4.424   9.855
 2985SOL    HW2 9330   1.632   4.415   9.713
 2986SOL     OW 9331   0.402   4.475  10.908
 2986SOL    HW1 9332   0.470   4.530  10.861
 2986SOL    HW2 9333   0.442   4.387  10.935
 2987SOL     OW 9334   1.209   4.249   9.585
 2987SOL    HW1 9335   1.222   4.165   9.639
 2987SOL    HW2 9336   1.180   4.323   9.645
 2988SOL     OW 9337   0.307   3.937  10.541
 2988SOL    HW1 9338   0.284   3.974  10.631
 2988SOL    HW2 9339   0.277   3.842  10.535
 2989SOL     OW 9340   0.732   4.358  10.374
 2989SOL    HW1 9341   0.791   4.332  10.298
 2989SOL    HW2 9342   0.704   4.454  10.363
 2990SOL     OW 9343   0.307   3.787   9.928
 2990SOL    HW1 9344   0.296   3.881   9.961
 2990SOL    HW2 9345   0.302   3.724  10.005
 2991SOL     OW 9346   1.622   4.091   9.684
 2991SOL    HW1 9347   1.624   4.015   9.748
 2991SOL    HW2 9348   1.574   4.168   9.724
 2992SOL     OW 9349   1.540   3.998   9.435
 2992SOL    HW1 9350   1.479   3.923   9.458
 2992SOL    HW2 9351   1.562   4.050   9.518
 2993SOL     OW 9352   0.319   4.534  10.259
 2993SOL    HW1 9353   0.412   4.570  10.264
 2993SOL    HW2 9354   0.313   4.449  10.311
 2994SOL     OW 9355   0.339   4.233  10.316
 2994SOL    HW1 9356   0.287   4.150  10.299
 2994SOL    HW2 9357   0.416   4.238  10.252
 2995SOL     OW 9358   1.160   3.931  10.787
 2995SOL    HW1 9359   1.160   3.995  10.864
 2995SOL    HW2 9360   1.188   3.979  10.704
 2996SOL     OW 9361   0.040   4.268  10.424
 2996SOL    HW1 9362   0.125   4.235  10.383
 2996SOL    HW2 9363   0.053   4.283  10.522
 2997SOL     OW 9364   1.369   4.674  10.970
 2997SOL    HW1 9365   1.408   4.763  10.990
 2997SOL    HW2 9366   1.379   4.654  10.873
 2998SOL     OW 9367   0.815   4.296   9.635
 2998SOL    HW1 9368   0.822   4.207   9.589
 2998SOL    HW2 9369   0.721   4.330   9.627
 2999SOL     OW 9370   1.657   4.328  10.516
 2999SOL    HW1 9371   1.619   4.259  10.578
 2999SOL    HW2 9372   1.739   4.292  10.472
 3000SOL     OW 9373   0.671   4.188  10.579
 3000SOL    HW1 9374   0.637   4.099  10.549
 3000SOL    HW2 9375   0.697   4.242  10.499
 3001SOL     OW 9376   0.473   4.224   9.501
 3001SOL    HW1 9377   0.534   4.304   9.505
 3001SOL    HW2 9378   0.378   4.255   9.508
 3002SOL     OW 9379   1.726   3.859   9.833
 3002SOL    HW1 9380   1.799   3.842   9.766
 3002SOL    HW2 9381   1.695   3.772   9.871
 3003SOL     OW 9382   1.280   4.651   9.982
 3003SOL    HW1 9383   1.340   4.570   9.984
 3003SOL    HW2 9384   1.320   4.720   9.922
 3004SOL     OW 9385   1.841   3.899  10.273
 3004SOL    HW1 9386   1.880   3.814  10.237
 3004SOL    HW2 9387   1.743   3.901  10.254
 3005SOL     OW 9388   0.263   4.050  10.030
 3005SOL    HW1 9389   0.184   4.101   9.996
 3005SOL    HW2 9390   0.254   4.035  10.128
 3006SOL     OW 9391   0.916   4.634   9.601
 3006SOL    HW1 9392   0.979   4.672   9.533
 3006SOL    HW2 9393   0.956   4.551   9.640
 3007SOL     OW 9394   1.039   4.822  10.006
 3007SOL    HW1 9395   0.969   4.775  10.060
 3007SOL    HW2 9396   1.098   4.754   9.963
 3008SOL     OW 9397   1.014   3.960  10.281
 3008SOL    HW1 9398   1.006   3.924  10.188
 3008SOL    HW2 9399   1.012   3.884  10.346
 3009SOL     OW 9400   1.709   4.109  10.691
 3009SOL    HW1 9401   1.782   4.178  10.695
 3009SOL    HW2 9402   1.737   4.034  10.632
 3010SOL     OW 9403   0.672   3.927  10.799
 3010SOL    HW1 9404   0.762   3.911  10.759
 3010SOL    HW2 9405   0.680   3.932  10.898
 3011SOL     OW 9406   0.075   4.069   9.343
 3011SOL    HW1 9407  -0.017   4.041   9.314
 3011SOL    HW2 9408   0.106   4.146   9.287
 3012SOL     OW 9409   0.072   3.890   9.628
 3012SOL    HW1 9410   0.055   3.973   9.574
 3012SOL    HW2 9411   0.162   3.853   9.606
 3013SOL     OW 9412   0.716   4.289  11.018
 3013SOL    HW1 9413   0.735   4.354  11.092
 3013SOL    HW2 9414   0.776   4.209  11.027
 3014SOL     OW 9415   1.225   4.049   9.759
 3014SOL    HW1 9416   1.290   3.975   9.748
 3014SOL    HW2 9417   1.245   4.099   9.843
 3015SOL     OW 9418   1.777   4.066  10.952
 3015SOL    HW1 9419   1.760   4.097  10.858
 3015SOL    HW2 9420   1.693   4.029  10.990
 3016SOL     OW 9421   1.083   4.708   9.397
 3016SOL    HW1 9422   1.060   4.761   9.315
 3016SOL    HW2 9423   1.164   4.652   9.378
 3017SOL     OW 9424   1.824   3.916  10.537
 3017SOL    HW1 9425   1.820   3.826  10.581
 3017SOL    HW2 9426   1.827   3.905  10.438
 3018SOL     OW 9427   0.428   4.148   9.830
 3018SOL    HW1 9428   0.458   4.076   9.768
 3018SOL    HW2 9429   0.389   4.108   9.913
 3019SOL     OW 9430   0.317   4.271  10.590
 3019SOL    HW1 9431   0.355   4.212  10.662
 3019SOL    HW2 9432   0.357   4.245  10.502
 3020SOL     OW 9433   1.424   3.938  10.422
 3020SOL    HW1 9434   1.476   3.873  10.477
 3020SOL    HW2 9435   1.375   4.001  10.483
 3021SOL     OW 9436   1.001   3.758  10.464
 3021SOL    HW1 9437   0.938   3.686  10.433
 3021SOL    HW2 9438   1.094   3.722  10.464
 3022SOL     OW 9439   1.352   3.776   9.478
 3022SOL    HW1 9440   1.387   3.735   9.394
 3022SOL    HW2 9441   1.262   3.738   9.498
 3023SOL     OW 9442   1.300   4.177  10.001
 3023SOL    HW1 9443   1.241   4.257  10.005
 3023SOL    HW2 9444   1.315   4.142  10.094
 3024SOL     OW 9445   1.593   3.945  10.192
 3024SOL    HW1 9446   1.509   3.944  10.246
 3024SOL    HW2 9447   1.595   4.028  10.136
 3025SOL     OW 9448   2.092   0.628   0.113
 3025SOL    HW1 9449   1.999   0.626   0.150
 3025SOL    HW2 9450   2.093   0.589   0.021
 3026SOL     OW 9451   2.087   0.275   0.996
 3026SOL    HW1 9452   2.122   0.258   1.088
 3026SOL    HW2 9453   1.999   0.230   0.984
 3027SOL     OW 9454   1.881   0.368   0.647
 3027SOL    HW1 9455   1.799   0.411   0.686
 3027SOL    HW2 9456   1.853   0.295   0.584
 3028SOL     OW 9457   2.431   1.275   1.165
 3028SOL    HW1 9458   2.338   1.268   1.128
 3028SOL    HW2 9459   2.442   1.364   1.209
 3029SOL     OW 9460   3.417   1.511   0.703
 3029SOL    HW1 9461   3.360   1.495   0.784
 3029SOL    HW2 9462   3.358   1.521   0.623
 3030SOL     OW 9463   2.997   0.703   0.717
 3030SOL    HW1 9464   3.054   0.781   0.692
 3030SOL    HW2 9465   2.937   0.729   0.793
 3031SOL     OW 9466   3.617   0.607   0.231
 3031SOL    HW1 9467   3.605   0.594   0.132
 3031SOL    HW2 9468   3.587   0.526   0.280
 3032SOL     OW 9469   2.630   1.144   1.023
 3032SOL    HW1 9470   2.552   1.161   1.083
 3032SOL    HW2 9471   2.664   1.231   0.987
 3033SOL     OW 9472   2.712   0.798   1.823
 3033SOL    HW1 9473   2.708   0.874   1.888
 3033SOL    HW2 9474   2.734   0.834   1.732
 3034SOL     OW 9475   2.547   1.012   0.665
 3034SOL    HW1 9476   2.616   0.996   0.735
 3034SOL    HW2 9477   2.474   1.069   0.703
 3035SOL     OW 9478   2.548   1.161   1.803
 3035SOL    HW1 9479   2.608   1.240   1.817
 3035SOL    HW2 9480   2.462   1.192   1.762
 3036SOL     OW 9481   2.197   1.435   1.061
 3036SOL    HW1 9482   2.119   1.404   1.008
 3036SOL    HW2 9483   2.255   1.493   1.004
 3037SOL     OW 9484   3.322   1.505   1.339
 3037SOL    HW1 9485   3.346   1.599   1.365
 3037SOL    HW2 9486   3.306   1.451   1.421
 3038SOL     OW 9487   2.300   0.392   1.499
 3038SOL    HW1 9488   2.382   0.336   1.508
 3038SOL    HW2 9489   2.219   0.334   1.503
 3039SOL     OW 9490   3.465   0.447   0.737
 3039SOL    HW1 9491   3.391   0.493   0.687
 3039SOL    HW2 9492   3.516   0.515   0.790
 3040SOL     OW 9493   2.093   1.713   0.483
 3040SOL    HW1 9494   2.127   1.790   0.537
 3040SOL    HW2 9495   2.137   1.713   0.393
 3041SOL     OW 9496   2.989   1.341   1.690
 3041SOL    HW1 9497   3.036   1.341   1.778
 3041SOL    HW2 9498   2.941   1.254   1.679
 3042SOL     OW 9499   2.092   1.434   0.538
 3042SOL    HW1 9500   2.066   1.530   0.538
 3042SOL    HW2 9501   2.021   1.380   0.583
 3043SOL     OW 9502   2.102   1.091   0.886
 3043SOL    HW1 9503   2.116   1.007   0.938
 3043SOL    HW2 9504   2.047   1.155   0.941
 3044SOL     OW 9505   2.482   1.786   1.439
 3044SOL    HW1 9506   2.390   1.769   1.474
 3044SOL    HW2 9507   2.510   1.878   1.465
 3045SOL     OW 9508   2.468   0.964   0.123
 3045SOL    HW1 9509   2.475   1.048   0.069
 3045SOL    HW2 9510   2.514   0.977   0.211
 3046SOL     OW 9511   3.456   0.114   1.480
 3046SOL    HW1 9512   3.438   0.181   1.408
 3046SOL    HW2 9513   3.453   0.160   1.569
 3047SOL     OW 9514   1.984   0.643   0.563
 3047SOL    HW1 9515   1.939   0.555   0.580
 3047SOL    HW2 9516   1.983   0.697   0.647
 3048SOL     OW 9517   3.704   1.767   0.359
 3048SOL    HW1 9518   3.758   1.738   0.439
 3048SOL    HW2 9519   3.734   1.857   0.330
 3049SOL     OW 9520   1.889   1.596   0.117
 3049SOL    HW1 9521   1.870   1.500   0.138
 3049SOL    HW2 9522   1.856   1.654   0.192
 3050SOL     OW 9523   3.551   0.922   0.612
 3050SOL    HW1 9524   3.646   0.893   0.620
 3050SOL    HW2 9525   3.543   0.987   0.537
 3051SOL     OW 9526   3.503   1.108   0.432
 3051SOL    HW1 9527   3.589   1.110   0.380
 3051SOL    HW2 9528   3.517   1.155   0.520
 3052SOL     OW 9529   1.975   0.737   1.597
 3052SOL    HW1 9530   2.063   0.724   1.642
 3052SOL    HW2 9531   1.962   0.834   1.575
 3053SOL     OW 9532   2.475   1.365   0.726
 3053SOL    HW1 9533   2.426   1.278   0.735
 3053SOL    HW2 9534   2.452   1.408   0.639
 3054SOL     OW 9535   3.155   1.228   1.423
 3054SOL    HW1 9536   3.192   1.155   1.365
 3054SOL    HW2 9537   3.207   1.233   1.508
 3055SOL     OW 9538   2.671   0.004   0.502
 3055SOL    HW1 9539   2.711   0.095   0.493
 3055SOL    HW2 9540   2.571   0.012   0.508
 3056SOL     OW 9541   2.059   0.976   1.264
 3056SOL    HW1 9542   2.148   0.931   1.250
 3056SOL    HW2 9543   1.986   0.911   1.245
 3057SOL     OW 9544   3.387   0.999   0.190
 3057SOL    HW1 9545   3.324   0.923   0.203
 3057SOL    HW2 9546   3.435   1.017   0.276
 3058SOL     OW 9547   3.049   1.792   1.616
 3058SOL    HW1 9548   3.073   1.852   1.540
 3058SOL    HW2 9549   3.056   1.697   1.586
 3059SOL     OW 9550   2.179   0.251   1.801
 3059SOL    HW1 9551   2.250   0.322   1.807
 3059SOL    HW2 9552   2.091   0.290   1.829
 3060SOL     OW 9553   3.328   1.417   0.953
 3060SOL    HW1 9554   3.269   1.423   1.033
 3060SOL    HW2 9555   3.313   1.329   0.907
 3061SOL     OW 9556   3.529   1.714   0.572
 3061SOL    HW1 9557   3.488   1.691   0.484
 3061SOL    HW2 9558   3.511   1.640   0.637
 3062SOL     OW 9559   2.460   0.729   0.270
 3062SOL    HW1 9560   2.484   0.798   0.202
 3062SOL    HW2 9561   2.382   0.762   0.324
 3063SOL     OW 9562   3.143   0.345   0.944
 3063SOL    HW1 9563   3.057   0.295   0.931
 3063SOL    HW2 9564   3.205   0.291   1.000
 3064SOL     OW 9565   3.438   1.662   0.307
 3064SOL    HW1 9566   3.527   1.708   0.310
 3064SOL    HW2 9567   3.417   1.638   0.212
 3065SOL     OW 9568   2.669   0.605   1.465
 3065SOL    HW1 9569   2.622   0.602   1.554
 3065SOL    HW2 9570   2.618   0.550   1.399
 3066SOL     OW 9571   3.256   0.469   1.674
 3066SOL    HW1 9572   3.236   0.512   1.762
 3066SOL    HW2 9573   3.334   0.407   1.683
 3067SOL     OW 9574   2.835   0.890   1.572
 3067SOL    HW1 9575   2.881   0.806   1.543
 3067SOL    HW2 9576   2.779   0.924   1.497
 3068SOL     OW 9577   2.853   0.410   1.242
 3068SOL    HW1 9578   2.776   0.444   1.296
 3068SOL    HW2 9579   2.819   0.359   1.163
 3069SOL     OW 9580   2.903   0.701   0.429
 3069SOL    HW1 9581   2.929   0.697   0.525
 3069SOL    HW2 9582   2.818   0.650   0.415
 3070SOL     OW 9583   1.938   0.811   0.789
 3070SOL    HW1 9584   2.037   0.799   0.798
 3070SOL    HW2 9585   1.914   0.906   0.810
 3071SOL     OW 9586   1.992   1.821   1.571
 3071SOL    HW1 9587   1.982   1.806   1.670
 3071SOL    HW2 9588   1.906   1.857   1.535
 3072SOL     OW 9589   2.727   0.348   0.195
 3072SOL    HW1 9590   2.786   0.411   0.146
 3072SOL    HW2 9591   2.746   0.254   0.166
 3073SOL     OW 9592   3.581   0.585   1.831
 3073SOL    HW1 9593   3.555   0.674   1.795
 3073SOL    HW2 9594   3.579   0.517   1.758
 3074SOL     OW 9595   3.224   1.144   0.545
 3074SOL    HW1 9596   3.307   1.115   0.497
 3074SOL    HW2 9597   3.175   1.211   0.489
 3075SOL     OW 9598   2.412   0.196   0.885
 3075SOL    HW1 9599   2.407   0.191   0.985
 3075SOL    HW2 9600   2.414   0.292   0.856
 3076SOL     OW 9601   2.870   1.456   0.477
 3076SOL    HW1 9602   2.824   1.528   0.425
 3076SOL    HW2 9603   2.866   1.476   0.575
 3077SOL     OW 9604   2.213   1.801   0.853
 3077SOL    HW1 9605   2.263   1.715   0.859
 3077SOL    HW2 9606   2.278   1.878   0.850
 3078SOL     OW 9607   3.657   1.066   0.873
 3078SOL    HW1 9608   3.595   1.051   0.797
 3078SOL    HW2 9609   3.605   1.077   0.958
 3079SOL     OW 9610   3.089   1.550   1.506
 3079SOL    HW1 9611   3.095   1.473   1.570
 3079SOL    HW2 9612   3.037   1.524   1.426
 3080SOL     OW 9613   2.183   0.943   0.242
 3080SOL    HW1 9614   2.265   0.982   0.200
 3080SOL    HW2 9615   2.156   0.861   0.193
 3081SOL     OW 9616   3.320   0.735   0.728
 3081SOL    HW1 9617   3.315   0.670   0.803
 3081SOL    HW2 9618   3.400   0.794   0.741
 3082SOL     OW 9619   2.323   1.266   1.727
 3082SOL    HW1 9620   2.273   1.267   1.641
 3082SOL    HW2 9621   2.260   1.248   1.803
 3083SOL     OW 9622   2.973   1.776   0.237
 3083SOL    HW1 9623   2.913   1.714   0.287
 3083SOL    HW2 9624   3.004   1.732   0.152
 3084SOL     OW 9625   2.064   0.285   1.498
 3084SOL    HW1 9626   1.984   0.345   1.485
 3084SOL    HW2 9627   2.054   0.236   1.584
 3085SOL     OW 9628   3.494   1.377   0.081
 3085SOL    HW1 9629   3.462   1.471   0.071
 3085SOL    HW2 9630   3.418   1.314   0.069
 3086SOL     OW 9631   2.326   1.743   0.323
 3086SOL    HW1 9632   2.359   1.782   0.409
 3086SOL    HW2 9633   2.402   1.736   0.258
 3087SOL     OW 9634   3.262   0.107   0.426
 3087SOL    HW1 9635   3.238   0.070   0.336
 3087SOL    HW2 9636   3.361   0.123   0.430
 3088SOL     OW 9637   2.111   1.785   1.241
 3088SOL    HW1 9638   2.168   1.720   1.291
 3088SOL    HW2 9639   2.095   1.752   1.148
 3089SOL     OW 9640   2.802   1.698   0.904
 3089SOL    HW1 9641   2.882   1.641   0.925
 3089SOL    HW2 9642   2.753   1.658   0.827
 3090SOL     OW 9643   2.244   0.700   0.480
 3090SOL    HW1 9644   2.289   0.610   0.477
 3090SOL    HW2 9645   2.150   0.689   0.513
 3091SOL     OW 9646   3.409   0.222   1.729
 3091SOL    HW1 9647   3.404   0.259   1.821
 3091SOL    HW2 9648   3.337   0.153   1.717
 3092SOL     OW 9649   2.476   0.122   0.117
 3092SOL    HW1 9650   2.574   0.100   0.124
 3092SOL    HW2 9651   2.445   0.105   0.024
 3093SOL     OW 9652   2.643   0.264   1.749
 3093SOL    HW1 9653   2.710   0.203   1.792
 3093SOL    HW2 9654   2.570   0.283   1.814
 3094SOL     OW 9655   2.750   1.514   1.195
 3094SOL    HW1 9656   2.727   1.489   1.101
 3094SOL    HW2 9657   2.811   1.445   1.234
 3095SOL     OW 9658   3.213   0.590   1.433
 3095SOL    HW1 9659   3.241   0.547   1.518
 3095SOL    HW2 9660   3.238   0.686   1.434
 3096SOL     OW 9661   2.665   1.402   0.924
 3096SOL    HW1 9662   2.755   1.416   0.882
 3096SOL    HW2 9663   2.594   1.404   0.853
 3097SOL     OW 9664   2.784   0.503   0.899
 3097SOL    HW1 9665   2.759   0.494   0.803
 3097SOL    HW2 9666   2.832   0.421   0.930
 3098SOL     OW 9667   2.401   0.064   0.512
 3098SOL    HW1 9668   2.320   0.065   0.570
 3098SOL    HW2 9669   2.404   0.147   0.457
 3099SOL     OW 9670   3.296   1.188   0.041
 3099SOL    HW1 9671   3.328   1.112   0.098
 3099SOL    HW2 9672   3.204   1.215   0.071
 3100SOL     OW 9673   2.159   0.035   0.171
 3100SOL    HW1 9674   2.208   0.119   0.150
 3100SOL    HW2 9675   2.221  -0.030   0.216
 3101SOL     OW 9676   2.797   0.236   0.480
 3101SOL    HW1 9677   2.749   0.277   0.402
 3101SOL    HW2 9678   2.896   0.234   0.461
 3102SOL     OW 9679   2.938   0.683   1.464
 3102SOL    HW1 9680   2.858   0.622   1.467
 3102SOL    HW2 9681   3.019   0.630   1.440
 3103SOL     OW 9682   3.089   1.570   0.793
 3103SOL    HW1 9683   3.110   1.644   0.728
 3103SOL    HW2 9684   3.157   1.570   0.866
 3104SOL     OW 9685   2.321   1.152   0.741
 3104SOL    HW1 9686   2.250   1.125   0.806
 3104SOL    HW2 9687   2.295   1.124   0.648
 3105SOL     OW 9688   3.133   1.797   0.591
 3105SOL    HW1 9689   3.177   1.861   0.527
 3105SOL    HW2 9690   3.083   1.849   0.661
 3106SOL     OW 9691   2.894   0.549   0.016
 3106SOL    HW1 9692   2.853   0.631  -0.023
 3106SOL    HW2 9693   2.958   0.575   0.089
 3107SOL     OW 9694   1.940   0.556   1.386
 3107SOL    HW1 9695   2.032   0.555   1.345
 3107SOL    HW2 9696   1.934   0.630   1.453
 3108SOL     OW 9697   2.423   0.222   1.147
 3108SOL    HW1 9698   2.461   0.138   1.184
 3108SOL    HW2 9699   2.335   0.241   1.191
 3109SOL     OW 9700   2.728   0.454   0.642
 3109SOL    HW1 9701   2.696   0.526   0.580
 3109SOL    HW2 9702   2.752   0.373   0.589
 3110SOL     OW 9703   2.879   0.039   0.753
 3110SOL    HW1 9704   2.807   0.044   0.684
 3110SOL    HW2 9705   2.855  -0.030   0.822
 3111SOL     OW 9706   3.291   1.173   0.867
 3111SOL    HW1 9707   3.236   1.089   0.860
 3111SOL    HW2 9708   3.317   1.202   0.775
 3112SOL     OW 9709   3.328   0.590   0.992
 3112SOL    HW1 9710   3.298   0.495   0.999
 3112SOL    HW2 9711   3.401   0.606   1.058
 3113SOL     OW 9712   3.719   0.833   0.377
 3113SOL    HW1 9713   3.761   0.769   0.441
 3113SOL    HW2 9714   3.681   0.782   0.299
 3114SOL     OW 9715   2.350   1.385   0.174
 3114SOL    HW1 9716   2.263   1.370   0.221
 3114SOL    HW2 9717   2.333   1.411   0.079
 3115SOL     OW 9718   3.526   1.280   0.657
 3115SOL    HW1 9719   3.625   1.288   0.671
 3115SOL    HW2 9720   3.481   1.364   0.688
 3116SOL     OW 9721   3.252   0.575   0.078
 3116SOL    HW1 9722   3.198   0.554   0.159
 3116SOL    HW2 9723   3.343   0.534   0.087
 3117SOL     OW 9724   2.389   0.256   0.328
 3117SOL    HW1 9725   2.416   0.197   0.253
 3117SOL    HW2 9726   2.389   0.351   0.297
 3118SOL     OW 9727   3.616   1.223   1.588
 3118SOL    HW1 9728   3.707   1.184   1.575
 3118SOL    HW2 9729   3.624   1.319   1.612
 3119SOL     OW 9730   2.926   1.347   1.340
 3119SOL    HW1 9731   2.846   1.324   1.395
 3119SOL    HW2 9732   3.009   1.321   1.389
 3120SOL     OW 9733   3.454   1.629   1.625
 3120SOL    HW1 9734   3.481   1.663   1.535
 3120SOL    HW2 9735   3.533   1.591   1.671
 3121SOL     OW 9736   2.973   1.195   1.100
 3121SOL    HW1 9737   2.933   1.239   1.181
 3121SOL    HW2 9738   2.932   1.232   1.017
 3122SOL     OW 9739   3.500   1.099   1.079
 3122SOL    HW1 9740   3.505   1.180   1.138
 3122SOL    HW2 9741   3.414   1.101   1.028
 3123SOL     OW 9742   2.777   0.089   1.402
 3123SOL    HW1 9743   2.802   0.069   1.307
 3123SOL    HW2 9744   2.849   0.145   1.444
 3124SOL     OW 9745   2.842   1.116   1.719
 3124SOL    HW1 9746   2.743   1.122   1.729
 3124SOL    HW2 9747   2.865   1.036   1.663
 3125SOL     OW 9748   2.567   1.050   0.368
 3125SOL    HW1 9749   2.553   1.057   0.467
 3125SOL    HW2 9750   2.651   0.999   0.350
 3126SOL     OW 9751   2.272   0.813   1.251
 3126SOL    HW1 9752   2.358   0.825   1.301
 3126SOL    HW2 9753   2.230   0.726   1.278
 3127SOL     OW 9754   3.136   0.386   1.262
 3127SOL    HW1 9755   3.157   0.460   1.326
 3127SOL    HW2 9756   3.047   0.403   1.219
 3128SOL     OW 9757   1.926   1.564   1.331
 3128SOL    HW1 9758   1.880   1.646   1.297
 3128SOL    HW2 9759   2.024   1.583   1.340
 3129SOL     OW 9760   2.229   1.100   0.501
 3129SOL    HW1 9761   2.222   1.183   0.445
 3129SOL    HW2 9762   2.233   1.020   0.441
 3130SOL     OW 9763   2.428   0.537   0.865
 3130SOL    HW1 9764   2.440   0.603   0.791
 3130SOL    HW2 9765   2.474   0.571   0.948
 3131SOL     OW 9766   3.114   1.348   0.388
 3131SOL    HW1 9767   3.164   1.425   0.428
 3131SOL    HW2 9768   3.019   1.350   0.420
 3132SOL     OW 9769   3.134   1.445   1.142
 3132SOL    HW1 9770   3.181   1.458   1.229
 3132SOL    HW2 9771   3.068   1.371   1.151
 3133SOL     OW 9772   3.444   0.639   0.472
 3133SOL    HW1 9773   3.413   0.700   0.545
 3133SOL    HW2 9774   3.494   0.691   0.403
 3134SOL     OW 9775   2.216   1.510   1.329
 3134SOL    HW1 9776   2.195   1.466   1.242
 3134SOL    HW2 9777   2.313   1.536   1.332
 3135SOL     OW 9778   2.264   0.751   1.598
 3135SOL    HW1 9779   2.332   0.806   1.551
 3135SOL    HW2 9780   2.304   0.663   1.625
 3136SOL     OW 9781   3.449   0.779   1.670
 3136SOL    HW1 9782   3.357   0.817   1.665
 3136SOL    HW2 9783   3.509   0.826   1.605
 3137SOL     OW 9784   2.875   0.105   1.770
 3137SOL    HW1 9785   2.881   0.190   1.718
 3137SOL    HW2 9786   2.907   0.029   1.713
 3138SOL     OW 9787   2.366   0.050   1.740
 3138SOL    HW1 9788   2.324  -0.007   1.670
 3138SOL    HW2 9789   2.300   0.119   1.772
 3139SOL     OW 9790   2.435   0.870   1.029
 3139SOL    HW1 9791   2.479   0.959   1.020
 3139SOL    HW2 9792   2.372   0.870   1.106
 3140SOL     OW 9793   3.222   0.862   1.045
 3140SOL    HW1 9794   3.147   0.862   0.979
 3140SOL    HW2 9795   3.259   0.770   1.054
 3141SOL     OW 9796   3.071   0.525   0.275
 3141SOL    HW1 9797   3.084   0.441   0.329
 3141SOL    HW2 9798   3.042   0.599   0.335
 3142SOL     OW 9799   2.169   0.213   1.231
 3142SOL    HW1 9800   2.146   0.250   1.321
 3142SOL    HW2 9801   2.139   0.118   1.225
 3143SOL     OW 9802   1.899   1.310   1.282
 3143SOL    HW1 9803   1.952   1.261   1.350
 3143SOL    HW2 9804   1.921   1.408   1.287
 3144SOL     OW 9805   2.594   0.634   1.064
 3144SOL    HW1 9806   2.653   0.608   0.988
 3144SOL    HW2 9807   2.566   0.730   1.053
 3145SOL     OW 9808   3.590   0.935   1.854
 3145SOL    HW1 9809   3.544   0.928   1.765
 3145SOL    HW2 9810   3.528   0.979   1.920
 3146SOL     OW 9811   2.169   0.063   0.618
 3146SOL    HW1 9812   2.158   0.157   0.651
 3146SOL    HW2 9813   2.164   0.000   0.695
 3147SOL     OW 9814   3.484   0.367   0.374
 3147SOL    HW1 9815   3.486   0.291   0.438
 3147SOL    HW2 9816   3.436   0.444   0.414
 3148SOL     OW 9817   2.885   0.766   0.966
 3148SOL    HW1 9818   2.900   0.787   1.062
 3148SOL    HW2 9819   2.855   0.671   0.957
 3149SOL     OW 9820   2.842   1.573   1.700
 3149SOL    HW1 9821   2.822   1.617   1.612
 3149SOL    HW2 9822   2.881   1.482   1.684
 3150SOL     OW 9823   3.721   1.518   1.605
 3150SOL    HW1 9824   3.735   1.545   1.510
 3150SOL    HW2 9825   3.804   1.540   1.658
 3151SOL     OW 9826   2.212   0.898   1.804
 3151SOL    HW1 9827   2.288   0.942   1.852
 3151SOL    HW2 9828   2.247   0.851   1.722
 3152SOL     OW 9829   3.402   0.274   0.125
 3152SOL    HW1 9830   3.341   0.199   0.148
 3152SOL    HW2 9831   3.424   0.326   0.208
 3153SOL     OW 9832   3.165   0.838   0.042
 3153SOL    HW1 9833   3.199   0.745   0.057
 3153SOL    HW2 9834   3.183   0.865  -0.053
 3154SOL     OW 9835   2.930   1.333   0.849
 3154SOL    HW1 9836   2.937   1.249   0.794
 3154SOL    HW2 9837   2.992   1.402   0.813
 3155SOL     OW 9838   2.181   0.810   0.949
 3155SOL    HW1 9839   2.274   0.846   0.954
 3155SOL    HW2 9840   2.175   0.725   1.001
 3156SOL     OW 9841   2.201   0.509   1.006
 3156SOL    HW1 9842   2.149   0.426   0.989
 3156SOL    HW2 9843   2.278   0.514   0.942
 3157SOL     OW 9844   3.000   0.380   1.678
 3157SOL    HW1 9845   2.955   0.443   1.742
 3157SOL    HW2 9846   3.093   0.411   1.661
 3158SOL     OW 9847   3.022   0.207   1.477
 3158SOL    HW1 9848   3.022   0.271   1.554
 3158SOL    HW2 9849   3.050   0.255   1.394
 3159SOL     OW 9850   1.870   1.326   0.200
 3159SOL    HW1 9851   1.777   1.347   0.169
 3159SOL    HW2 9852   1.880   1.227   0.213
 3160SOL     OW 9853   1.950   1.801   0.927
 3160SOL    HW1 9854   1.908   1.715   0.900
 3160SOL    HW2 9855   2.044   1.804   0.893
 3161SOL     OW 9856   2.366   1.568   0.910
 3161SOL    HW1 9857   2.432   1.642   0.919
 3161SOL    HW2 9858   2.410   1.489   0.868
 3162SOL     OW 9859   2.864   0.796   1.238
 3162SOL    HW1 9860   2.905   0.764   1.324
 3162SOL    HW2 9861   2.768   0.769   1.235
 3163SOL     OW 9862   1.902   0.544   1.114
 3163SOL    HW1 9863   1.987   0.511   1.073
 3163SOL    HW2 9864   1.915   0.559   1.212
 3164SOL     OW 9865   2.051   0.520   1.722
 3164SOL    HW1 9866   2.110   0.480   1.652
 3164SOL    HW2 9867   1.993   0.591   1.681
 3165SOL     OW 9868   3.231   0.950   1.660
 3165SOL    HW1 9869   3.270   1.039   1.680
 3165SOL    HW2 9870   3.241   0.930   1.563
 3166SOL     OW 9871   2.677   0.572   0.325
 3166SOL    HW1 9872   2.684   0.483   0.279
 3166SOL    HW2 9873   2.583   0.606   0.317
 3167SOL     OW 9874   3.519   0.604   1.206
 3167SOL    HW1 9875   3.481   0.535   1.268
 3167SOL    HW2 9876   3.601   0.568   1.162
 3168SOL     OW 9877   2.114   1.564   1.744
 3168SOL    HW1 9878   2.084   1.621   1.820
 3168SOL    HW2 9879   2.107   1.467   1.770
 3169SOL     OW 9880   2.533   0.464   1.269
 3169SOL    HW1 9881   2.499   0.375   1.239
 3169SOL    HW2 9882   2.559   0.518   1.189
 3170SOL     OW 9883   2.792   1.678   1.465
 3170SOL    HW1 9884   2.768   1.660   1.370
 3170SOL    HW2 9885   2.822   1.772   1.475
 3171SOL     OW 9886   2.335   0.500   0.191
 3171SOL    HW1 9887   2.396   0.580   0.195
 3171SOL    HW2 9888   2.240   0.531   0.198
 3172SOL     OW 9889   2.021   1.137   1.466
 3172SOL    HW1 9890   2.043   1.076   1.542
 3172SOL    HW2 9891   2.031   1.088   1.380
 3173SOL     OW 9892   3.209   1.059   1.234
 3173SOL    HW1 9893   3.233   0.996   1.160
 3173SOL    HW2 9894   3.119   1.099   1.216
 3174SOL     OW 9895   3.164   0.855   0.309
 3174SOL    HW1 9896   3.078   0.824   0.351
 3174SOL    HW2 9897   3.160   0.841   0.210
 3175SOL     OW 9898   3.621   1.747   1.154
 3175SOL    HW1 9899   3.682   1.777   1.081
 3175SOL    HW2 9900   3.583   1.658   1.132
 3176SOL     OW 9901   3.114   1.731   1.128
 3176SOL    HW1 9902   3.198   1.736   1.074
 3176SOL    HW2 9903   3.091   1.635   1.146
 3177SOL     OW 9904   1.945   1.258   1.022
 3177SOL    HW1 9905   1.940   1.257   1.122
 3177SOL    HW2 9906   1.862   1.217   0.984
 3178SOL     OW 9907   2.550   1.662   1.716
 3178SOL    HW1 9908   2.494   1.743   1.725
 3178SOL    HW2 9909   2.602   1.666   1.630
 3179SOL     OW 9910   2.765   0.086   0.133
 3179SOL    HW1 9911   2.816   0.087   0.047
 3179SOL    HW2 9912   2.821   0.044   0.204
 3180SOL     OW 9913   3.588   0.135   0.523
 3180SOL    HW1 9914   3.661   0.118   0.456
 3180SOL    HW2 9915   3.557   0.048   0.561
 3181SOL     OW 9916   3.250   1.573   0.477
 3181SOL    HW1 9917   3.317   1.585   0.403
 3181SOL    HW2 9918   3.210   1.662   0.500
 3182SOL     OW 9919   1.992   1.794   1.851
 3182SOL    HW1 9920   1.951   1.720   1.904
 3182SOL    HW2 9921   2.056   1.845   1.909
 3183SOL     OW 9922   3.142   0.927   0.672
 3183SOL    HW1 9923   3.202   0.846   0.674
 3183SOL    HW2 9924   3.182   0.996   0.612
 3184SOL     OW 9925   2.692   1.273   1.422
 3184SOL    HW1 9926   2.687   1.306   1.517
 3184SOL    HW2 9927   2.606   1.292   1.376
 3185SOL     OW 9928   2.534   1.616   0.154
 3185SOL    HW1 9929   2.543   1.626   0.055
 3185SOL    HW2 9930   2.494   1.527   0.175
 3186SOL     OW 9931   3.512   1.720   1.394
 3186SOL    HW1 9932   3.565   1.730   1.310
 3186SOL    HW2 9933   3.485   1.810   1.428
 3187SOL     OW 9934   3.703   0.175   0.963
 3187SOL    HW1 9935   3.742   0.090   0.927
 3187SOL    HW2 9936   3.605   0.177   0.944
 3188SOL     OW 9937   2.125   0.326   0.720
 3188SOL    HW1 9938   2.046   0.377   0.686
 3188SOL    HW2 9939   2.116   0.311   0.818
 3189SOL     OW 9940   3.056   1.612   0.031
 3189SOL    HW1 9941   3.062   1.519   0.068
 3189SOL    HW2 9942   2.997   1.612  -0.049
 3190SOL     OW 9943   2.684   1.002   1.372
 3190SOL    HW1 9944   2.724   1.001   1.280
 3190SOL    HW2 9945   2.694   1.094   1.412
 3191SOL     OW 9946   2.778   0.910   0.291
 3191SOL    HW1 9947   2.841   0.948   0.223
 3191SOL    HW2 9948   2.818   0.827   0.330
 3192SOL     OW 9949   3.366   1.607   0.044
 3192SOL    HW1 9950   3.274   1.644   0.051
 3192SOL    HW2 9951   3.404   1.627  -0.046
 3193SOL     OW 9952   2.234   1.288   1.490
 3193SOL    HW1 9953   2.221   1.381   1.456
 3193SOL    HW2 9954   2.150   1.236   1.477
 3194SOL     OW 9955   3.476   1.292   1.289
 3194SOL    HW1 9956   3.536   1.295   1.369
 3194SOL    HW2 9957   3.401   1.356   1.302
 3195SOL     OW 9958   2.901   1.098   0.696
 3195SOL    HW1 9959   2.831   1.051   0.750
 3195SOL    HW2 9960   2.960   1.030   0.653
 3196SOL     OW 9961   2.876   0.236   0.971
 3196SOL    HW1 9962   2.868   0.200   0.878
 3196SOL    HW2 9963   2.874   0.160   1.036
 3197SOL     OW 9964   2.452   1.487   0.491
 3197SOL    HW1 9965   2.494   1.429   0.421
 3197SOL    HW2 9966   2.408   1.566   0.447
 3198SOL     OW 9967   3.571   0.385   1.381
 3198SOL    HW1 9968   3.644   0.454   1.385
 3198SOL    HW2 9969   3.599   0.310   1.322
 3199SOL     OW 9970   2.117   1.348   0.290
 3199SOL    HW1 9971   2.021   1.349   0.263
 3199SOL    HW2 9972   2.129   1.401   0.374
 3200SOL     OW 9973   1.967   1.013   1.726
 3200SOL    HW1 9974   1.890   0.980   1.780
 3200SOL    HW2 9975   2.052   0.983   1.768
 3201SOL     OW 9976   2.534   0.203   1.489
 3201SOL    HW1 9977   2.624   0.187   1.449
 3201SOL    HW2 9978   2.542   0.208   1.588
 3202SOL     OW 9979   1.937   0.345   0.033
 3202SOL    HW1 9980   1.845   0.317   0.004
 3202SOL    HW2 9981   1.968   0.422  -0.023
 3203SOL     OW 9982   3.302   0.856   1.398
 3203SOL    HW1 9983   3.245   0.908   1.335
 3203SOL    HW2 9984   3.398   0.868   1.374
 3204SOL     OW 9985   1.934   0.166   0.318
 3204SOL    HW1 9986   1.917   0.249   0.264
 3204SOL    HW2 9987   2.024   0.129   0.296
 3205SOL     OW 9988   3.045   1.335   0.119
 3205SOL    HW1 9989   2.946   1.324   0.121
 3205SOL    HW2 9990   3.079   1.350   0.212
 3206SOL     OW 9991   2.475   0.842   1.431
 3206SOL    HW1 9992   2.531   0.923   1.414
 3206SOL    HW2 9993   2.534   0.762   1.434
 3207SOL     OW 9994   3.355   1.767   0.959
 3207SOL    HW1 9995   3.388   1.831   0.890
 3207SOL    HW2 9996   3.421   1.761   1.034
 3208SOL     OW 9997   2.578   0.565   1.708
 3208SOL    HW1 9998   2.597   0.630   1.782
 3208SOL    HW2 9999   2.638   0.485   1.717
 3209SOL     OW10000   3.312   1.220   1.633
 3209SOL    HW110001   3.303   1.210   1.732
 3209SOL    HW210002   3.408   1.213   1.607
 3210SOL     OW10003   2.252   1.741   1.560
 3210SOL    HW110004   2.161   1.782   1.558
 3210SOL    HW210005   2.245   1.647   1.592
 3211SOL     OW10006   3.536   0.883   1.254
 3211SOL    HW110007   3.509   0.794   1.217
 3211SOL    HW210008   3.537   0.951   1.181
 3212SOL     OW10009   3.087   0.325   0.449
 3212SOL    HW110010   3.152   0.251   0.438
 3212SOL    HW210011   3.107   0.375   0.533
 3213SOL     OW10012   2.456   0.745   0.652
 3213SOL    HW110013   2.506   0.830   0.633
 3213SOL    HW210014   2.368   0.747   0.604
 3214SOL     OW10015   3.639   0.342   1.642
 3214SOL    HW110016   3.622   0.373   1.548
 3214SOL    HW210017   3.555   0.305   1.680
 3215SOL     OW10018   3.592   0.934   1.517
 3215SOL    HW110019   3.630   1.025   1.532
 3215SOL    HW210020   3.584   0.917   1.418
 3216SOL     OW10021   2.721   1.374   0.016
 3216SOL    HW110022   2.675   1.389   0.104
 3216SOL    HW210023   2.765   1.459  -0.014
 3217SOL     OW10024   2.523   1.790   0.953
 3217SOL    HW110025   2.477   1.878   0.940
 3217SOL    HW210026   2.622   1.802   0.946
 3218SOL     OW10027   2.721   0.956   0.861
 3218SOL    HW110028   2.775   0.887   0.909
 3218SOL    HW210029   2.689   1.025   0.927
 3219SOL     OW10030   2.945   0.984   0.087
 3219SOL    HW110031   2.922   1.037   0.005
 3219SOL    HW210032   3.026   0.928   0.068
 3220SOL     OW10033   3.723   1.569   0.851
 3220SOL    HW110034   3.652   1.557   0.781
 3220SOL    HW210035   3.724   1.490   0.911
 3221SOL     OW10036   2.083   1.314   1.844
 3221SOL    HW110037   2.018   1.241   1.823
 3221SOL    HW210038   2.087   1.328   1.942
 3222SOL     OW10039   1.941   1.240   0.653
 3222SOL    HW110040   1.940   1.193   0.741
 3222SOL    HW210041   2.023   1.212   0.602
 3223SOL     OW10042   2.534   1.391   1.624
 3223SOL    HW110043   2.456   1.341   1.662
 3223SOL    HW210044   2.531   1.486   1.655
 3224SOL     OW10045   3.686   0.192   1.227
 3224SOL    HW110046   3.682   0.102   1.271
 3224SOL    HW210047   3.689   0.181   1.128
 3225SOL     OW10048   2.290   0.424   0.520
 3225SOL    HW110049   2.320   0.352   0.458
 3225SOL    HW210050   2.251   0.384   0.603
 3226SOL     OW10051   3.567   1.487   1.104
 3226SOL    HW110052   3.474   1.462   1.077
 3226SOL    HW210053   3.593   1.437   1.186
 3227SOL     OW10054   2.179   0.547   1.280
 3227SOL    HW110055   2.217   0.488   1.352
 3227SOL    HW210056   2.219   0.521   1.192
 3228SOL     OW10057   2.674   1.586   0.687
 3228SOL    HW110058   2.706   1.596   0.593
 3228SOL    HW210059   2.595   1.524   0.689
 3229SOL     OW10060   3.286   0.214   1.112
 3229SOL    HW110061   3.338   0.149   1.167
 3229SOL    HW210062   3.237   0.277   1.173
 3230SOL     OW10063   2.863   0.034   1.154
 3230SOL    HW110064   2.800  -0.038   1.123
 3230SOL    HW210065   2.956  -0.002   1.154
 3231SOL     OW10066   2.632   1.330   0.301
 3231SOL    HW110067   2.586   1.243   0.318
 3231SOL    HW210068   2.723   1.327   0.342
 3232SOL     OW10069   2.480   1.567   1.284
 3232SOL    HW110070   2.475   1.649   1.341
 3232SOL    HW210071   2.569   1.564   1.239
 3233SOL     OW10072   3.214   0.052   0.168
 3233SOL    HW110073   3.249   0.011   0.084
 3233SOL    HW210074   3.124   0.014   0.188
 3234SOL     OW10075   3.162   0.453   0.691
 3234SOL    HW110076   3.103   0.533   0.695
 3234SOL    HW210077   3.177   0.418   0.784
 3235SOL     OW10078   3.455   0.221   0.882
 3235SOL    HW110079   3.371   0.220   0.936
 3235SOL    HW210080   3.457   0.304   0.826
 3236SOL     OW10081   1.901   1.077   0.300
 3236SOL    HW110082   2.000   1.066   0.291
 3236SOL    HW210083   1.861   0.991   0.332
 3237SOL     OW10084   2.737   1.646   0.337
 3237SOL    HW110085   2.660   1.611   0.283
 3237SOL    HW210086   2.705   1.717   0.399
 3238SOL     OW10087   2.092   0.628   1.975
 3238SOL    HW110088   1.999   0.626   2.012
 3238SOL    HW210089   2.093   0.589   1.883
 3239SOL     OW10090   2.087   0.275   2.858
 3239SOL    HW110091   2.122   0.258   2.950
 3239SOL    HW210092   1.999   0.230   2.846
 3240SOL     OW10093   1.881   0.368   2.509
 3240SOL    HW110094   1.799   0.411   2.548
 3240SOL    HW210095   1.853   0.295   2.446
 3241SOL     OW10096   2.431   1.275   3.027
 3241SOL    HW110097   2.338   1.268   2.990
 3241SOL    HW210098   2.442   1.364   3.071
 3242SOL     OW10099   3.417   1.511   2.565
 3242SOL    HW110100   3.360   1.495   2.646
 3242SOL    HW210101   3.358   1.521   2.485
 3243SOL     OW10102   2.997   0.703   2.579
 3243SOL    HW110103   3.054   0.781   2.554
 3243SOL    HW210104   2.937   0.729   2.655
 3244SOL     OW10105   3.617   0.607   2.093
 3244SOL    HW110106   3.605   0.594   1.994
 3244SOL    HW210107   3.587   0.526   2.142
 3245SOL     OW10108   2.630   1.144   2.885
 3245SOL    HW110109   2.552   1.161   2.945
 3245SOL    HW210110   2.664   1.231   2.849
 3246SOL     OW10111   2.712   0.798   3.685
 3246SOL    HW110112   2.708   0.874   3.750
 3246SOL    HW210113   2.734   0.834   3.594
 3247SOL     OW10114   2.547   1.012   2.527
 3247SOL    HW110115   2.616   0.996   2.597
 3247SOL    HW210116   2.474   1.069   2.565
 3248SOL     OW10117   2.548   1.161   3.665
 3248SOL    HW110118   2.608   1.240   3.679
 3248SOL    HW210119   2.462   1.192   3.624
 3249SOL     OW10120   2.197   1.435   2.923
 3249SOL    HW110121   2.119   1.404   2.870
 3249SOL    HW210122   2.255   1.493   2.866
 3250SOL     OW10123   3.322   1.505   3.201
 3250SOL    HW110124   3.346   1.599   3.227
 3250SOL    HW210125   3.306   1.451   3.283
 3251SOL     OW10126   2.300   0.392   3.361
 3251SOL    HW110127   2.382   0.336   3.370
 3251SOL    HW210128   2.219   0.334   3.365
 3252SOL     OW10129   3.465   0.447   2.599
 3252SOL    HW110130   3.391   0.493   2.549
 3252SOL    HW210131   3.516   0.515   2.652
 3253SOL     OW10132   2.093   1.713   2.345
 3253SOL    HW110133   2.127   1.790   2.399
 3253SOL    HW210134   2.137   1.713   2.255
 3254SOL     OW10135   2.989   1.341   3.552
 3254SOL    HW110136   3.036   1.341   3.640
 3254SOL    HW210137   2.941   1.254   3.541
 3255SOL     OW10138   2.092   1.434   2.400
 3255SOL    HW110139   2.066   1.530   2.400
 3255SOL    HW210140   2.021   1.380   2.445
 3256SOL     OW10141   2.102   1.091   2.748
 3256SOL    HW110142   2.116   1.007   2.800
 3256SOL    HW210143   2.047   1.155   2.803
 3257SOL     OW10144   2.482   1.786   3.301
 3257SOL    HW110145   2.390   1.769   3.336
 3257SOL    HW210146   2.510   1.878   3.327
 3258SOL     OW10147   2.468   0.964   1.985
 3258SOL    HW110148   2.475   1.048   1.931
 3258SOL    HW210149   2.514   0.977   2.073
 3259SOL     OW10150   3.456   0.114   3.342
 3259SOL    HW110151   3.438   0.181   3.270
 3259SOL    HW210152   3.453   0.160   3.431
 3260SOL     OW10153   1.984   0.643   2.425
 3260SOL    HW110154   1.939   0.555   2.442
 3260SOL    HW210155   1.983   0.697   2.509
 3261SOL     OW10156   3.704   1.767   2.221
 3261SOL    HW110157   3.758   1.738   2.301
 3261SOL    HW210158   3.734   1.857   2.192
 3262SOL     OW10159   1.889   1.596   1.979
 3262SOL    HW110160   1.870   1.500   2.000
 3262SOL    HW210161   1.856   1.654   2.054
 3263SOL     OW10162   3.551   0.922   2.474
 3263SOL    HW110163   3.646   0.893   2.482
 3263SOL    HW210164   3.543   0.987   2.399
 3264SOL     OW10165   3.503   1.108   2.294
 3264SOL    HW110166   3.589   1.110   2.242
 3264SOL    HW210167   3.517   1.155   2.382
 3265SOL     OW10168   1.975   0.737   3.459
 3265SOL    HW110169   2.063   0.724   3.504
 3265SOL    HW210170   1.962   0.834   3.437
 3266SOL     OW10171   2.475   1.365   2.588
 3266SOL    HW110172   2.426   1.278   2.597
 3266SOL    HW210173   2.452   1.408   2.501
 3267SOL     OW10174   3.155   1.228   3.285
 3267SOL    HW110175   3.192   1.155   3.227
 3267SOL    HW210176   3.207   1.233   3.370
 3268SOL     OW10177   2.671   0.004   2.364
 3268SOL    HW110178   2.711   0.095   2.355
 3268SOL    HW210179   2.571   0.012   2.370
 3269SOL     OW10180   2.059   0.976   3.126
 3269SOL    HW110181   2.148   0.931   3.112
 3269SOL    HW210182   1.986   0.911   3.107
 3270SOL     OW10183   3.387   0.999   2.052
 3270SOL    HW110184   3.324   0.923   2.065
 3270SOL    HW210185   3.435   1.017   2.138
 3271SOL     OW10186   3.049   1.792   3.478
 3271SOL    HW110187   3.073   1.852   3.402
 3271SOL    HW210188   3.056   1.697   3.448
 3272SOL     OW10189   2.179   0.251   3.663
 3272SOL    HW110190   2.250   0.322   3.669
 3272SOL    HW210191   2.091   0.290   3.691
 3273SOL     OW10192   3.328   1.417   2.815
 3273SOL    HW110193   3.269   1.423   2.895
 3273SOL    HW210194   3.313   1.329   2.769
 3274SOL     OW10195   3.529   1.714   2.434
 3274SOL    HW110196   3.488   1.691   2.346
 3274SOL    HW210197   3.511   1.640   2.499
 3275SOL     OW10198   2.460   0.729   2.132
 3275SOL    HW110199   2.484   0.798   2.064
 3275SOL    HW210200   2.382   0.762   2.186
 3276SOL     OW10201   3.143   0.345   2.806
 3276SOL    HW110202   3.057   0.295   2.793
 3276SOL    HW210203   3.205   0.291   2.862
 3277SOL     OW10204   3.438   1.662   2.169
 3277SOL    HW110205   3.527   1.708   2.172
 3277SOL    HW210206   3.417   1.638   2.074
 3278SOL     OW10207   2.669   0.605   3.327
 3278SOL    HW110208   2.622   0.602   3.416
 3278SOL    HW210209   2.618   0.550   3.261
 3279SOL     OW10210   3.256   0.469   3.536
 3279SOL    HW110211   3.236   0.512   3.624
 3279SOL    HW210212   3.334   0.407   3.545
 3280SOL     OW10213   2.835   0.890   3.434
 3280SOL    HW110214   2.881   0.806   3.405
 3280SOL    HW210215   2.779   0.924   3.359
 3281SOL     OW10216   2.853   0.410   3.104
 3281SOL    HW110217   2.776   0.444   3.158
 3281SOL    HW210218   2.819   0.359   3.025
 3282SOL     OW10219   2.903   0.701   2.291
 3282SOL    HW110220   2.929   0.697   2.387
 3282SOL    HW210221   2.818   0.650   2.277
 3283SOL     OW10222   1.938   0.811   2.651
 3283SOL    HW110223   2.037   0.799   2.660
 3283SOL    HW210224   1.914   0.906   2.672
 3284SOL     OW10225   1.992   1.821   3.433
 3284SOL    HW110226   1.982   1.806   3.532
 3284SOL    HW210227   1.906   1.857   3.397
 3285SOL     OW10228   2.727   0.348   2.057
 3285SOL    HW110229   2.786   0.411   2.008
 3285SOL    HW210230   2.746   0.254   2.028
 3286SOL     OW10231   3.581   0.585   3.693
 3286SOL    HW110232   3.555   0.674   3.657
 3286SOL    HW210233   3.579   0.517   3.620
 3287SOL     OW10234   3.224   1.144   2.407
 3287SOL    HW110235   3.307   1.115   2.359
 3287SOL    HW210236   3.175   1.211   2.351
 3288SOL     OW10237   2.412   0.196   2.747
 3288SOL    HW110238   2.407   0.191   2.847
 3288SOL    HW210239   2.414   0.292   2.718
 3289SOL     OW10240   2.870   1.456   2.339
 3289SOL    HW110241   2.824   1.528   2.287
 3289SOL    HW210242   2.866   1.476   2.437
 3290SOL     OW10243   2.213   1.801   2.715
 3290SOL    HW110244   2.263   1.715   2.721
 3290SOL    HW210245   2.278   1.878   2.712
 3291SOL     OW10246   3.657   1.066   2.735
 3291SOL    HW110247   3.595   1.051   2.659
 3291SOL    HW210248   3.605   1.077   2.820
 3292SOL     OW10249   3.089   1.550   3.368
 3292SOL    HW110250   3.095   1.473   3.432
 3292SOL    HW210251   3.037   1.524   3.288
 3293SOL     OW10252   2.183   0.943   2.104
 3293SOL    HW110253   2.265   0.982   2.062
 3293SOL    HW210254   2.156   0.861   2.055
 3294SOL     OW10255   3.320   0.735   2.590
 3294SOL    HW110256   3.315   0.670   2.665
 3294SOL    HW210257   3.400   0.794   2.603
 3295SOL     OW10258   2.323   1.266   3.589
 3295SOL    HW110259   2.273   1.267   3.503
 3295SOL    HW210260   2.260   1.248   3.665
 3296SOL     OW10261   2.973   1.776   2.099
 3296SOL    HW110262   2.913   1.714   2.149
 3296SOL    HW210263   3.004   1.732   2.014
 3297SOL     OW10264   2.064   0.285   3.360
 3297SOL    HW110265   1.984   0.345   3.347
 3297SOL    HW210266   2.054   0.236   3.446
 3298SOL     OW10267   3.494   1.377   1.943
 3298SOL    HW110268   3.462   1.471   1.933
 3298SOL    HW210269   3.418   1.314   1.931
 3299SOL     OW10270   2.326   1.743   2.185
 3299SOL    HW110271   2.359   1.782   2.271
 3299SOL    HW210272   2.402   1.736   2.120
 3300SOL     OW10273   3.262   0.107   2.288
 3300SOL    HW110274   3.238   0.070   2.198
 3300SOL    HW210275   3.361   0.123   2.292
 3301SOL     OW10276   2.111   1.785   3.103
 3301SOL    HW110277   2.168   1.720   3.153
 3301SOL    HW210278   2.095   1.752   3.010
 3302SOL     OW10279   2.802   1.698   2.766
 3302SOL    HW110280   2.882   1.641   2.787
 3302SOL    HW210281   2.753   1.658   2.689
 3303SOL     OW10282   2.244   0.700   2.342
 3303SOL    HW110283   2.289   0.610   2.339
 3303SOL    HW210284   2.150   0.689   2.375
 3304SOL     OW10285   3.409   0.222   3.591
 3304SOL    HW110286   3.404   0.259   3.683
 3304SOL    HW210287   3.337   0.153   3.579
 3305SOL     OW10288   2.476   0.122   1.979
 3305SOL    HW110289   2.574   0.100   1.986
 3305SOL    HW210290   2.445   0.105   1.886
 3306SOL     OW10291   2.643   0.264   3.611
 3306SOL    HW110292   2.710   0.203   3.654
 3306SOL    HW210293   2.570   0.283   3.676
 3307SOL     OW10294   2.750   1.514   3.057
 3307SOL    HW110295   2.727   1.489   2.963
 3307SOL    HW210296   2.811   1.445   3.096
 3308SOL     OW10297   3.213   0.590   3.295
 3308SOL    HW110298   3.241   0.547   3.380
 3308SOL    HW210299   3.238   0.686   3.296
 3309SOL     OW10300   2.665   1.402   2.786
 3309SOL    HW110301   2.755   1.416   2.744
 3309SOL    HW210302   2.594   1.404   2.715
 3310SOL     OW10303   2.784   0.503   2.761
 3310SOL    HW110304   2.759   0.494   2.665
 3310SOL    HW210305   2.832   0.421   2.792
 3311SOL     OW10306   2.401   0.064   2.374
 3311SOL    HW110307   2.320   0.065   2.432
 3311SOL    HW210308   2.404   0.147   2.319
 3312SOL     OW10309   3.296   1.188   1.903
 3312SOL    HW110310   3.328   1.112   1.960
 3312SOL    HW210311   3.204   1.215   1.933
 3313SOL     OW10312   2.159   0.035   2.033
 3313SOL    HW110313   2.208   0.119   2.012
 3313SOL    HW210314   2.221  -0.030   2.078
 3314SOL     OW10315   2.797   0.236   2.342
 3314SOL    HW110316   2.749   0.277   2.264
 3314SOL    HW210317   2.896   0.234   2.323
 3315SOL     OW10318   2.938   0.683   3.326
 3315SOL    HW110319   2.858   0.622   3.329
 3315SOL    HW210320   3.019   0.630   3.302
 3316SOL     OW10321   3.089   1.570   2.655
 3316SOL    HW110322   3.110   1.644   2.590
 3316SOL    HW210323   3.157   1.570   2.728
 3317SOL     OW10324   2.321   1.152   2.603
 3317SOL    HW110325   2.250   1.125   2.668
 3317SOL    HW210326   2.295   1.124   2.510
 3318SOL     OW10327   3.133   1.797   2.453
 3318SOL    HW110328   3.177   1.861   2.389
 3318SOL    HW210329   3.083   1.849   2.523
 3319SOL     OW10330   2.894   0.549   1.878
 3319SOL    HW110331   2.853   0.631   1.839
 3319SOL    HW210332   2.958   0.575   1.951
 3320SOL     OW10333   1.940   0.556   3.248
 3320SOL    HW110334   2.032   0.555   3.207
 3320SOL    HW210335   1.934   0.630   3.315
 3321SOL     OW10336   2.423   0.222   3.009
 3321SOL    HW110337   2.461   0.138   3.046
 3321SOL    HW210338   2.335   0.241   3.053
 3322SOL     OW10339   2.728   0.454   2.504
 3322SOL    HW110340   2.696   0.526   2.442
 3322SOL    HW210341   2.752   0.373   2.451
 3323SOL     OW10342   2.879   0.039   2.615
 3323SOL    HW110343   2.807   0.044   2.546
 3323SOL    HW210344   2.855  -0.030   2.684
 3324SOL     OW10345   3.291   1.173   2.729
 3324SOL    HW110346   3.236   1.089   2.722
 3324SOL    HW210347   3.317   1.202   2.637
 3325SOL     OW10348   3.328   0.590   2.854
 3325SOL    HW110349   3.298   0.495   2.861
 3325SOL    HW210350   3.401   0.606   2.920
 3326SOL     OW10351   3.719   0.833   2.239
 3326SOL    HW110352   3.761   0.769   2.303
 3326SOL    HW210353   3.681   0.782   2.161
 3327SOL     OW10354   2.350   1.385   2.036
 3327SOL    HW110355   2.263   1.370   2.083
 3327SOL    HW210356   2.333   1.411   1.941
 3328SOL     OW10357   3.526   1.280   2.519
 3328SOL    HW110358   3.625   1.288   2.533
 3328SOL    HW210359   3.481   1.364   2.550
 3329SOL     OW10360   3.252   0.575   1.940
 3329SOL    HW110361   3.198   0.554   2.021
 3329SOL    HW210362   3.343   0.534   1.949
 3330SOL     OW10363   2.389   0.256   2.190
 3330SOL    HW110364   2.416   0.197   2.115
 3330SOL    HW210365   2.389   0.351   2.159
 3331SOL     OW10366   3.616   1.223   3.450
 3331SOL    HW110367   3.707   1.184   3.437
 3331SOL    HW210368   3.624   1.319   3.474
 3332SOL     OW10369   2.926   1.347   3.202
 3332SOL    HW110370   2.846   1.324   3.257
 3332SOL    HW210371   3.009   1.321   3.251
 3333SOL     OW10372   3.454   1.629   3.487
 3333SOL    HW110373   3.481   1.663   3.397
 3333SOL    HW210374   3.533   1.591   3.533
 3334SOL     OW10375   2.973   1.195   2.962
 3334SOL    HW110376   2.933   1.239   3.043
 3334SOL    HW210377   2.932   1.232   2.879
 3335SOL     OW10378   3.500   1.099   2.941
 3335SOL    HW110379   3.505   1.180   3.000
 3335SOL    HW210380   3.414   1.101   2.890
 3336SOL     OW10381   2.777   0.089   3.264
 3336SOL    HW110382   2.802   0.069   3.169
 3336SOL    HW210383   2.849   0.145   3.306
 3337SOL     OW10384   2.842   1.116   3.581
 3337SOL    HW110385   2.743   1.122   3.591
 3337SOL    HW210386   2.865   1.036   3.525
 3338SOL     OW10387   2.567   1.050   2.230
 3338SOL    HW110388   2.553   1.057   2.329
 3338SOL    HW210389   2.651   0.999   2.212
 3339SOL     OW10390   2.272   0.813   3.113
 3339SOL    HW110391   2.358   0.825   3.163
 3339SOL    HW210392   2.230   0.726   3.140
 3340SOL     OW10393   3.136   0.386   3.124
 3340SOL    HW110394   3.157   0.460   3.188
 3340SOL    HW210395   3.047   0.403   3.081
 3341SOL     OW10396   1.926   1.564   3.193
 3341SOL    HW110397   1.880   1.646   3.159
 3341SOL    HW210398   2.024   1.583   3.202
 3342SOL     OW10399   2.229   1.100   2.363
 3342SOL    HW110400   2.222   1.183   2.307
 3342SOL    HW210401   2.233   1.020   2.303
 3343SOL     OW10402   2.428   0.537   2.727
 3343SOL    HW110403   2.440   0.603   2.653
 3343SOL    HW210404   2.474   0.571   2.810
 3344SOL     OW10405   3.114   1.348   2.250
 3344SOL    HW110406   3.164   1.425   2.290
 3344SOL    HW210407   3.019   1.350   2.282
 3345SOL     OW10408   3.134   1.445   3.004
 3345SOL    HW110409   3.181   1.458   3.091
 3345SOL    HW210410   3.068   1.371   3.013
 3346SOL     OW10411   3.444   0.639   2.334
 3346SOL    HW110412   3.413   0.700   2.407
 3346SOL    HW210413   3.494   0.691   2.265
 3347SOL     OW10414   2.216   1.510   3.191
 3347SOL    HW110415   2.195   1.466   3.104
 3347SOL    HW210416   2.313   1.536   3.194
 3348SOL     OW10417   2.264   0.751   3.460
 3348SOL    HW110418   2.332   0.806   3.413
 3348SOL    HW210419   2.304   0.663   3.487
 3349SOL     OW10420   3.449   0.779   3.532
 3349SOL    HW110421   3.357   0.817   3.527
 3349SOL    HW210422   3.509   0.826   3.467
 3350SOL     OW10423   2.875   0.105   3.632
 3350SOL    HW110424   2.881   0.190   3.580
 3350SOL    HW210425   2.907   0.029   3.575
 3351SOL     OW10426   2.366   0.050   3.602
 3351SOL    HW110427   2.324  -0.007   3.532
 3351SOL    HW210428   2.300   0.119   3.634
 3352SOL     OW10429   2.435   0.870   2.891
 3352SOL    HW110430   2.479   0.959   2.882
 3352SOL    HW210431   2.372   0.870   2.968
 3353SOL     OW10432   3.222   0.862   2.907
 3353SOL    HW110433   3.147   0.862   2.841
 3353SOL    HW210434   3.259   0.770   2.916
 3354SOL     OW10435   3.071   0.525   2.137
 3354SOL    HW110436   3.084   0.441   2.191
 3354SOL    HW210437   3.042   0.599   2.197
 3355SOL     OW10438   2.169   0.213   3.093
 3355SOL    HW110439   2.146   0.250   3.183
 3355SOL    HW210440   2.139   0.118   3.087
 3356SOL     OW10441   1.899   1.310   3.144
 3356SOL    HW110442   1.952   1.261   3.212
 3356SOL    HW210443   1.921   1.408   3.149
 3357SOL     OW10444   2.594   0.634   2.926
 3357SOL    HW110445   2.653   0.608   2.850
 3357SOL    HW210446   2.566   0.730   2.915
 3358SOL     OW10447   3.590   0.935   3.716
 3358SOL    HW110448   3.544   0.928   3.627
 3358SOL    HW210449   3.528   0.979   3.782
 3359SOL     OW10450   2.169   0.063   2.480
 3359SOL    HW110451   2.158   0.157   2.513
 3359SOL    HW210452   2.164   0.000   2.557
 3360SOL     OW10453   3.484   0.367   2.236
 3360SOL    HW110454   3.486   0.291   2.300
 3360SOL    HW210455   3.436   0.444   2.276
 3361SOL     OW10456   2.885   0.766   2.828
 3361SOL    HW110457   2.900   0.787   2.924
 3361SOL    HW210458   2.855   0.671   2.819
 3362SOL     OW10459   2.842   1.573   3.562
 3362SOL    HW110460   2.822   1.617   3.474
 3362SOL    HW210461   2.881   1.482   3.546
 3363SOL     OW10462   3.721   1.518   3.467
 3363SOL    HW110463   3.735   1.545   3.372
 3363SOL    HW210464   3.804   1.540   3.520
 3364SOL     OW10465   2.212   0.898   3.666
 3364SOL    HW110466   2.288   0.942   3.714
 3364SOL    HW210467   2.247   0.851   3.584
 3365SOL     OW10468   3.402   0.274   1.987
 3365SOL    HW110469   3.341   0.199   2.010
 3365SOL    HW210470   3.424   0.326   2.070
 3366SOL     OW10471   3.165   0.838   1.904
 3366SOL    HW110472   3.199   0.745   1.919
 3366SOL    HW210473   3.183   0.865   1.809
 3367SOL     OW10474   2.930   1.333   2.711
 3367SOL    HW110475   2.937   1.249   2.656
 3367SOL    HW210476   2.992   1.402   2.675
 3368SOL     OW10477   2.181   0.810   2.811
 3368SOL    HW110478   2.274   0.846   2.816
 3368SOL    HW210479   2.175   0.725   2.863
 3369SOL     OW10480   2.201   0.509   2.868
 3369SOL    HW110481   2.149   0.426   2.851
 3369SOL    HW210482   2.278   0.514   2.804
 3370SOL     OW10483   3.000   0.380   3.540
 3370SOL    HW110484   2.955   0.443   3.604
 3370SOL    HW210485   3.093   0.411   3.523
 3371SOL     OW10486   3.022   0.207   3.339
 3371SOL    HW110487   3.022   0.271   3.416
 3371SOL    HW210488   3.050   0.255   3.256
 3372SOL     OW10489   1.870   1.326   2.062
 3372SOL    HW110490   1.777   1.347   2.031
 3372SOL    HW210491   1.880   1.227   2.075
 3373SOL     OW10492   1.950   1.801   2.789
 3373SOL    HW110493   1.908   1.715   2.762
 3373SOL    HW210494   2.044   1.804   2.755
 3374SOL     OW10495   2.366   1.568   2.772
 3374SOL    HW110496   2.432   1.642   2.781
 3374SOL    HW210497   2.410   1.489   2.730
 3375SOL     OW10498   2.864   0.796   3.100
 3375SOL    HW110499   2.905   0.764   3.186
 3375SOL    HW210500   2.768   0.769   3.097
 3376SOL     OW10501   1.902   0.544   2.976
 3376SOL    HW110502   1.987   0.511   2.935
 3376SOL    HW210503   1.915   0.559   3.074
 3377SOL     OW10504   2.051   0.520   3.584
 3377SOL    HW110505   2.110   0.480   3.514
 3377SOL    HW210506   1.993   0.591   3.543
 3378SOL     OW10507   3.231   0.950   3.522
 3378SOL    HW110508   3.270   1.039   3.542
 3378SOL    HW210509   3.241   0.930   3.425
 3379SOL     OW10510   2.677   0.572   2.187
 3379SOL    HW110511   2.684   0.483   2.141
 3379SOL    HW210512   2.583   0.606   2.179
 3380SOL     OW10513   3.519   0.604   3.068
 3380SOL    HW110514   3.481   0.535   3.130
 3380SOL    HW210515   3.601   0.568   3.024
 3381SOL     OW10516   2.114   1.564   3.606
 3381SOL    HW110517   2.084   1.621   3.682
 3381SOL    HW210518   2.107   1.467   3.632
 3382SOL     OW10519   2.533   0.464   3.131
 3382SOL    HW110520   2.499   0.375   3.101
 3382SOL    HW210521   2.559   0.518   3.051
 3383SOL     OW10522   2.792   1.678   3.327
 3383SOL    HW110523   2.768   1.660   3.232
 3383SOL    HW210524   2.822   1.772   3.337
 3384SOL     OW10525   2.335   0.500   2.053
 3384SOL    HW110526   2.396   0.580   2.057
 3384SOL    HW210527   2.240   0.531   2.060
 3385SOL     OW10528   2.021   1.137   3.328
 3385SOL    HW110529   2.043   1.076   3.404
 3385SOL    HW210530   2.031   1.088   3.242
 3386SOL     OW10531   3.209   1.059   3.096
 3386SOL    HW110532   3.233   0.996   3.022
 3386SOL    HW210533   3.119   1.099   3.078
 3387SOL     OW10534   3.164   0.855   2.171
 3387SOL    HW110535   3.078   0.824   2.213
 3387SOL    HW210536   3.160   0.841   2.072
 3388SOL     OW10537   3.621   1.747   3.016
 3388SOL    HW110538   3.682   1.777   2.943
 3388SOL    HW210539   3.583   1.658   2.994
 3389SOL     OW10540   3.114   1.731   2.990
 3389SOL    HW110541   3.198   1.736   2.936
 3389SOL    HW210542   3.091   1.635   3.008
 3390SOL     OW10543   1.945   1.258   2.884
 3390SOL    HW110544   1.940   1.257   2.984
 3390SOL    HW210545   1.862   1.217   2.846
 3391SOL     OW10546   2.550   1.662   3.578
 3391SOL    HW110547   2.494   1.743   3.587
 3391SOL    HW210548   2.602   1.666   3.492
 3392SOL     OW10549   3.588   0.135   2.385
 3392SOL    HW110550   3.661   0.118   2.318
 3392SOL    HW210551   3.557   0.048   2.423
 3393SOL     OW10552   3.250   1.573   2.339
 3393SOL    HW110553   3.317   1.585   2.265
 3393SOL    HW210554   3.210   1.662   2.362
 3394SOL     OW10555   1.992   1.794   3.713
 3394SOL    HW110556   1.951   1.720   3.766
 3394SOL    HW210557   2.056   1.845   3.771
 3395SOL     OW10558   3.142   0.927   2.534
 3395SOL    HW110559   3.202   0.846   2.536
 3395SOL    HW210560   3.182   0.996   2.474
 3396SOL     OW10561   2.692   1.273   3.284
 3396SOL    HW110562   2.687   1.306   3.379
 3396SOL    HW210563   2.606   1.292   3.238
 3397SOL     OW10564   2.534   1.616   2.016
 3397SOL    HW110565   2.543   1.626   1.917
 3397SOL    HW210566   2.494   1.527   2.037
 3398SOL     OW10567   3.512   1.720   3.256
 3398SOL    HW110568   3.565   1.730   3.172
 3398SOL    HW210569   3.485   1.810   3.290
 3399SOL     OW10570   3.703   0.175   2.825
 3399SOL    HW110571   3.742   0.090   2.789
 3399SOL    HW210572   3.605   0.177   2.806
 3400SOL     OW10573   2.125   0.326   2.582
 3400SOL    HW110574   2.046   0.377   2.548
 3400SOL    HW210575   2.116   0.311   2.680
 3401SOL     OW10576   3.056   1.612   1.893
 3401SOL    HW110577   3.062   1.519   1.930
 3401SOL    HW210578   2.997   1.612   1.813
 3402SOL     OW10579   2.684   1.002   3.234
 3402SOL    HW110580   2.724   1.001   3.142
 3402SOL    HW210581   2.694   1.094   3.274
 3403SOL     OW10582   2.778   0.910   2.153
 3403SOL    HW110583   2.841   0.948   2.085
 3403SOL    HW210584   2.818   0.827   2.192
 3404SOL     OW10585   3.366   1.607   1.906
 3404SOL    HW110586   3.274   1.644   1.913
 3404SOL    HW210587   3.404   1.627   1.816
 3405SOL     OW10588   2.234   1.288   3.352
 3405SOL    HW110589   2.221   1.381   3.318
 3405SOL    HW210590   2.150   1.236   3.339
 3406SOL     OW10591   3.476   1.292   3.151
 3406SOL    HW110592   3.536   1.295   3.231
 3406SOL    HW210593   3.401   1.356   3.164
 3407SOL     OW10594   2.901   1.098   2.558
 3407SOL    HW110595   2.831   1.051   2.612
 3407SOL    HW210596   2.960   1.030   2.515
 3408SOL     OW10597   2.876   0.236   2.833
 3408SOL    HW110598   2.868   0.200   2.740
 3408SOL    HW210599   2.874   0.160   2.898
 3409SOL     OW10600   2.452   1.487   2.353
 3409SOL    HW110601   2.494   1.429   2.283
 3409SOL    HW210602   2.408   1.566   2.309
 3410SOL     OW10603   3.571   0.385   3.243
 3410SOL    HW110604   3.644   0.454   3.247
 3410SOL    HW210605   3.599   0.310   3.184
 3411SOL     OW10606   2.117   1.348   2.152
 3411SOL    HW110607   2.021   1.349   2.125
 3411SOL    HW210608   2.129   1.401   2.236
 3412SOL     OW10609   1.967   1.013   3.588
 3412SOL    HW110610   1.890   0.980   3.642
 3412SOL    HW210611   2.052   0.983   3.630
 3413SOL     OW10612   2.534   0.203   3.351
 3413SOL    HW110613   2.624   0.187   3.311
 3413SOL    HW210614   2.542   0.208   3.450
 3414SOL     OW10615   1.937   0.345   1.895
 3414SOL    HW110616   1.845   0.317   1.866
 3414SOL    HW210617   1.968   0.422   1.839
 3415SOL     OW10618   3.302   0.856   3.260
 3415SOL    HW110619   3.245   0.908   3.197
 3415SOL    HW210620   3.398   0.868   3.236
 3416SOL     OW10621   1.934   0.166   2.180
 3416SOL    HW110622   1.917   0.249   2.126
 3416SOL    HW210623   2.024   0.129   2.158
 3417SOL     OW10624   3.045   1.335   1.981
 3417SOL    HW110625   2.946   1.324   1.983
 3417SOL    HW210626   3.079   1.350   2.074
 3418SOL     OW10627   2.475   0.842   3.293
 3418SOL    HW110628   2.531   0.923   3.276
 3418SOL    HW210629   2.534   0.762   3.296
 3419SOL     OW10630   3.355   1.767   2.821
 3419SOL    HW110631   3.388   1.831   2.752
 3419SOL    HW210632   3.421   1.761   2.896
 3420SOL     OW10633   2.578   0.565   3.570
 3420SOL    HW110634   2.597   0.630   3.644
 3420SOL    HW210635   2.638   0.485   3.579
 3421SOL     OW10636   3.312   1.220   3.495
 3421SOL    HW110637   3.303   1.210   3.594
 3421SOL    HW210638   3.408   1.213   3.469
 3422SOL     OW10639   2.252   1.741   3.422
 3422SOL    HW110640   2.161   1.782   3.420
 3422SOL    HW210641   2.245   1.647   3.454
 3423SOL     OW10642   3.536   0.883   3.116
 3423SOL    HW110643   3.509   0.794   3.079
 3423SOL    HW210644   3.537   0.951   3.043
 3424SOL     OW10645   3.087   0.325   2.311
 3424SOL    HW110646   3.152   0.251   2.300
 3424SOL    HW210647   3.107   0.375   2.395
 3425SOL     OW10648   2.456   0.745   2.514
 3425SOL    HW110649   2.506   0.830   2.495
 3425SOL    HW210650   2.368   0.747   2.466
 3426SOL     OW10651   3.639   0.342   3.504
 3426SOL    HW110652   3.622   0.373   3.410
 3426SOL    HW210653   3.555   0.305   3.542
 3427SOL     OW10654   3.592   0.934   3.379
 3427SOL    HW110655   3.630   1.025   3.394
 3427SOL    HW210656   3.584   0.917   3.280
 3428SOL     OW10657   2.721   1.374   1.878
 3428SOL    HW110658   2.675   1.389   1.966
 3428SOL    HW210659   2.765   1.459   1.848
 3429SOL     OW10660   2.523   1.790   2.815
 3429SOL    HW110661   2.477   1.878   2.802
 3429SOL    HW210662   2.622   1.802   2.808
 3430SOL     OW10663   2.721   0.956   2.723
 3430SOL    HW110664   2.775   0.887   2.771
 3430SOL    HW210665   2.689   1.025   2.789
 3431SOL     OW10666   2.945   0.984   1.949
 3431SOL    HW110667   2.922   1.037   1.867
 3431SOL    HW210668   3.026   0.928   1.930
 3432SOL     OW10669   3.723   1.569   2.713
 3432SOL    HW110670   3.652   1.557   2.643
 3432SOL    HW210671   3.724   1.490   2.773
 3433SOL     OW10672   2.083   1.314   3.706
 3433SOL    HW110673   2.018   1.241   3.685
 3433SOL    HW210674   2.087   1.328   3.804
 3434SOL     OW10675   1.941   1.240   2.515
 3434SOL    HW110676   1.940   1.193   2.603
 3434SOL    HW210677   2.023   1.212   2.464
 3435SOL     OW10678   2.534   1.391   3.486
 3435SOL    HW110679   2.456   1.341   3.524
 3435SOL    HW210680   2.531   1.486   3.517
 3436SOL     OW10681   3.686   0.192   3.089
 3436SOL    HW110682   3.682   0.102   3.133
 3436SOL    HW210683   3.689   0.181   2.990
 3437SOL     OW10684   2.290   0.424   2.382
 3437SOL    HW110685   2.320   0.352   2.320
 3437SOL    HW210686   2.251   0.384   2.465
 3438SOL     OW10687   3.567   1.487   2.966
 3438SOL    HW110688   3.474   1.462   2.939
 3438SOL    HW210689   3.593   1.437   3.048
 3439SOL     OW10690   2.179   0.547   3.142
 3439SOL    HW110691   2.217   0.488   3.214
 3439SOL    HW210692   2.219   0.521   3.054
 3440SOL     OW10693   2.674   1.586   2.549
 3440SOL    HW110694   2.706   1.596   2.455
 3440SOL    HW210695   2.595   1.524   2.551
 3441SOL     OW10696   3.286   0.214   2.974
 3441SOL    HW110697   3.338   0.149   3.029
 3441SOL    HW210698   3.237   0.277   3.035
 3442SOL     OW10699   2.863   0.034   3.016
 3442SOL    HW110700   2.800  -0.038   2.985
 3442SOL    HW210701   2.956  -0.002   3.016
 3443SOL     OW10702   2.632   1.330   2.163
 3443SOL    HW110703   2.586   1.243   2.180
 3443SOL    HW210704   2.723   1.327   2.204
 3444SOL     OW10705   2.480   1.567   3.146
 3444SOL    HW110706   2.475   1.649   3.203
 3444SOL    HW210707   2.569   1.564   3.101
 3445SOL     OW10708   3.214   0.052   2.030
 3445SOL    HW110709   3.249   0.011   1.946
 3445SOL    HW210710   3.124   0.014   2.050
 3446SOL     OW10711   3.162   0.453   2.553
 3446SOL    HW110712   3.103   0.533   2.557
 3446SOL    HW210713   3.177   0.418   2.646
 3447SOL     OW10714   3.455   0.221   2.744
 3447SOL    HW110715   3.371   0.220   2.798
 3447SOL    HW210716   3.457   0.304   2.688
 3448SOL     OW10717   1.901   1.077   2.162
 3448SOL    HW110718   2.000   1.066   2.153
 3448SOL    HW210719   1.861   0.991   2.194
 3449SOL     OW10720   2.737   1.646   2.199
 3449SOL    HW110721   2.660   1.611   2.145
 3449SOL    HW210722   2.705   1.717   2.261
 3450SOL     OW10723   2.092   0.628   3.837
 3450SOL    HW110724   1.999   0.626   3.874
 3450SOL    HW210725   2.093   0.589   3.745
 3451SOL     OW10726   2.087   0.275   4.720
 3451SOL    HW110727   2.122   0.258   4.812
 3451SOL    HW210728   1.999   0.230   4.708
 3452SOL     OW10729   1.881   0.368   4.371
 3452SOL    HW110730   1.799   0.411   4.410
 3452SOL    HW210731   1.853   0.295   4.308
 3453SOL     OW10732   2.431   1.275   4.889
 3453SOL    HW110733   2.338   1.268   4.852
 3453SOL    HW210734   2.442   1.364   4.933
 3454SOL     OW10735   3.417   1.511   4.427
 3454SOL    HW110736   3.360   1.495   4.508
 3454SOL    HW210737   3.358   1.521   4.347
 3455SOL     OW10738   2.997   0.703   4.441
 3455SOL    HW110739   3.054   0.781   4.416
 3455SOL    HW210740   2.937   0.729   4.517
 3456SOL     OW10741   3.617   0.607   3.955
 3456SOL    HW110742   3.605   0.594   3.856
 3456SOL    HW210743   3.587   0.526   4.004
 3457SOL     OW10744   2.630   1.144   4.747
 3457SOL    HW110745   2.552   1.161   4.807
 3457SOL    HW210746   2.664   1.231   4.711
 3458SOL     OW10747   2.712   0.798   5.547
 3458SOL    HW110748   2.708   0.874   5.612
 3458SOL    HW210749   2.734   0.834   5.456
 3459SOL     OW10750   2.547   1.012   4.389
 3459SOL    HW110751   2.616   0.996   4.459
 3459SOL    HW210752   2.474   1.069   4.427
 3460SOL     OW10753   2.548   1.161   5.527
 3460SOL    HW110754   2.608   1.240   5.541
 3460SOL    HW210755   2.462   1.192   5.486
 3461SOL     OW10756   2.197   1.435   4.785
 3461SOL    HW110757   2.119   1.404   4.732
 3461SOL    HW210758   2.255   1.493   4.728
 3462SOL     OW10759   3.322   1.505   5.063
 3462SOL    HW110760   3.346   1.599   5.089
 3462SOL    HW210761   3.306   1.451   5.145
 3463SOL     OW10762   2.300   0.392   5.223
 3463SOL    HW110763   2.382   0.336   5.232
 3463SOL    HW210764   2.219   0.334   5.227
 3464SOL     OW10765   3.465   0.447   4.461
 3464SOL    HW110766   3.391   0.493   4.411
 3464SOL    HW210767   3.516   0.515   4.514
 3465SOL     OW10768   2.093   1.713   4.207
 3465SOL    HW110769   2.127   1.790   4.261
 3465SOL    HW210770   2.137   1.713   4.117
 3466SOL     OW10771   2.989   1.341   5.414
 3466SOL    HW110772   3.036   1.341   5.502
 3466SOL    HW210773   2.941   1.254   5.403
 3467SOL     OW10774   2.092   1.434   4.262
 3467SOL    HW110775   2.066   1.530   4.262
 3467SOL    HW210776   2.021   1.380   4.307
 3468SOL     OW10777   2.102   1.091   4.610
 3468SOL    HW110778   2.116   1.007   4.662
 3468SOL    HW210779   2.047   1.155   4.665
 3469SOL     OW10780   2.482   1.786   5.163
 3469SOL    HW110781   2.390   1.769   5.198
 3469SOL    HW210782   2.510   1.878   5.189
 3470SOL     OW10783   2.468   0.964   3.847
 3470SOL    HW110784   2.475   1.048   3.793
 3470SOL    HW210785   2.514   0.977   3.935
 3471SOL     OW10786   3.456   0.114   5.204
 3471SOL    HW110787   3.438   0.181   5.132
 3471SOL    HW210788   3.453   0.160   5.293
 3472SOL     OW10789   1.984   0.643   4.287
 3472SOL    HW110790   1.939   0.555   4.304
 3472SOL    HW210791   1.983   0.697   4.371
 3473SOL     OW10792   3.704   1.767   4.083
 3473SOL    HW110793   3.758   1.738   4.163
 3473SOL    HW210794   3.734   1.857   4.054
 3474SOL     OW10795   1.889   1.596   3.841
 3474SOL    HW110796   1.870   1.500   3.862
 3474SOL    HW210797   1.856   1.654   3.916
 3475SOL     OW10798   3.551   0.922   4.336
 3475SOL    HW110799   3.646   0.893   4.344
 3475SOL    HW210800   3.543   0.987   4.261
 3476SOL     OW10801   3.503   1.108   4.156
 3476SOL    HW110802   3.589   1.110   4.104
 3476SOL    HW210803   3.517   1.155   4.244
 3477SOL     OW10804   1.975   0.737   5.321
 3477SOL    HW110805   2.063   0.724   5.366
 3477SOL    HW210806   1.962   0.834   5.299
 3478SOL     OW10807   2.475   1.365   4.450
 3478SOL    HW110808   2.426   1.278   4.459
 3478SOL    HW210809   2.452   1.408   4.363
 3479SOL     OW10810   3.155   1.228   5.147
 3479SOL    HW110811   3.192   1.155   5.089
 3479SOL    HW210812   3.207   1.233   5.232
 3480SOL     OW10813   2.671   0.004   4.226
 3480SOL    HW110814   2.711   0.095   4.217
 3480SOL    HW210815   2.571   0.012   4.232
 3481SOL     OW10816   2.059   0.976   4.988
 3481SOL    HW110817   2.148   0.931   4.974
 3481SOL    HW210818   1.986   0.911   4.969
 3482SOL     OW10819   3.387   0.999   3.914
 3482SOL    HW110820   3.324   0.923   3.927
 3482SOL    HW210821   3.435   1.017   4.000
 3483SOL     OW10822   2.179   0.251   5.525
 3483SOL    HW110823   2.250   0.322   5.531
 3483SOL    HW210824   2.091   0.290   5.553
 3484SOL     OW10825   3.328   1.417   4.677
 3484SOL    HW110826   3.269   1.423   4.757
 3484SOL    HW210827   3.313   1.329   4.631
 3485SOL     OW10828   3.529   1.714   4.296
 3485SOL    HW110829   3.488   1.691   4.208
 3485SOL    HW210830   3.511   1.640   4.361
 3486SOL     OW10831   2.460   0.729   3.994
 3486SOL    HW110832   2.484   0.798   3.926
 3486SOL    HW210833   2.382   0.762   4.048
 3487SOL     OW10834   3.143   0.345   4.668
 3487SOL    HW110835   3.057   0.295   4.655
 3487SOL    HW210836   3.205   0.291   4.724
 3488SOL     OW10837   3.438   1.662   4.031
 3488SOL    HW110838   3.527   1.708   4.034
 3488SOL    HW210839   3.417   1.638   3.936
 3489SOL     OW10840   2.669   0.605   5.189
 3489SOL    HW110841   2.622   0.602   5.278
 3489SOL    HW210842   2.618   0.550   5.123
 3490SOL     OW10843   3.256   0.469   5.398
 3490SOL    HW110844   3.236   0.512   5.486
 3490SOL    HW210845   3.334   0.407   5.407
 3491SOL     OW10846   2.835   0.890   5.296
 3491SOL    HW110847   2.881   0.806   5.267
 3491SOL    HW210848   2.779   0.924   5.221
 3492SOL     OW10849   2.853   0.410   4.966
 3492SOL    HW110850   2.776   0.444   5.020
 3492SOL    HW210851   2.819   0.359   4.887
 3493SOL     OW10852   2.903   0.701   4.153
 3493SOL    HW110853   2.929   0.697   4.249
 3493SOL    HW210854   2.818   0.650   4.139
 3494SOL     OW10855   1.938   0.811   4.513
 3494SOL    HW110856   2.037   0.799   4.522
 3494SOL    HW210857   1.914   0.906   4.534
 3495SOL     OW10858   2.727   0.348   3.919
 3495SOL    HW110859   2.786   0.411   3.870
 3495SOL    HW210860   2.746   0.254   3.890
 3496SOL     OW10861   3.581   0.585   5.555
 3496SOL    HW110862   3.555   0.674   5.519
 3496SOL    HW210863   3.579   0.517   5.482
 3497SOL     OW10864   3.224   1.144   4.269
 3497SOL    HW110865   3.307   1.115   4.221
 3497SOL    HW210866   3.175   1.211   4.213
 3498SOL     OW10867   2.412   0.196   4.609
 3498SOL    HW110868   2.407   0.191   4.709
 3498SOL    HW210869   2.414   0.292   4.580
 3499SOL     OW10870   2.870   1.456   4.201
 3499SOL    HW110871   2.824   1.528   4.149
 3499SOL    HW210872   2.866   1.476   4.299
 3500SOL     OW10873   2.213   1.801   4.577
 3500SOL    HW110874   2.263   1.715   4.583
 3500SOL    HW210875   2.278   1.878   4.574
 3501SOL     OW10876   3.657   1.066   4.597
 3501SOL    HW110877   3.595   1.051   4.521
 3501SOL    HW210878   3.605   1.077   4.682
 3502SOL     OW10879   3.089   1.550   5.230
 3502SOL    HW110880   3.095   1.473   5.294
 3502SOL    HW210881   3.037   1.524   5.150
 3503SOL     OW10882   2.183   0.943   3.966
 3503SOL    HW110883   2.265   0.982   3.924
 3503SOL    HW210884   2.156   0.861   3.917
 3504SOL     OW10885   3.320   0.735   4.452
 3504SOL    HW110886   3.315   0.670   4.527
 3504SOL    HW210887   3.400   0.794   4.465
 3505SOL     OW10888   2.323   1.266   5.451
 3505SOL    HW110889   2.273   1.267   5.365
 3505SOL    HW210890   2.260   1.248   5.527
 3506SOL     OW10891   2.973   1.776   3.961
 3506SOL    HW110892   2.913   1.714   4.011
 3506SOL    HW210893   3.004   1.732   3.876
 3507SOL     OW10894   2.064   0.285   5.222
 3507SOL    HW110895   1.984   0.345   5.209
 3507SOL    HW210896   2.054   0.236   5.308
 3508SOL     OW10897   3.494   1.377   3.805
 3508SOL    HW110898   3.462   1.471   3.795
 3508SOL    HW210899   3.418   1.314   3.793
 3509SOL     OW10900   2.326   1.743   4.047
 3509SOL    HW110901   2.359   1.782   4.133
 3509SOL    HW210902   2.402   1.736   3.982
 3510SOL     OW10903   3.262   0.107   4.150
 3510SOL    HW110904   3.238   0.070   4.060
 3510SOL    HW210905   3.361   0.123   4.154
 3511SOL     OW10906   2.111   1.785   4.965
 3511SOL    HW110907   2.168   1.720   5.015
 3511SOL    HW210908   2.095   1.752   4.872
 3512SOL     OW10909   2.802   1.698   4.628
 3512SOL    HW110910   2.882   1.641   4.649
 3512SOL    HW210911   2.753   1.658   4.551
 3513SOL     OW10912   2.244   0.700   4.204
 3513SOL    HW110913   2.289   0.610   4.201
 3513SOL    HW210914   2.150   0.689   4.237
 3514SOL     OW10915   3.409   0.222   5.453
 3514SOL    HW110916   3.404   0.259   5.545
 3514SOL    HW210917   3.337   0.153   5.441
 3515SOL     OW10918   2.476   0.122   3.841
 3515SOL    HW110919   2.574   0.100   3.848
 3515SOL    HW210920   2.445   0.105   3.748
 3516SOL     OW10921   2.643   0.264   5.473
 3516SOL    HW110922   2.710   0.203   5.516
 3516SOL    HW210923   2.570   0.283   5.538
 3517SOL     OW10924   2.750   1.514   4.919
 3517SOL    HW110925   2.727   1.489   4.825
 3517SOL    HW210926   2.811   1.445   4.958
 3518SOL     OW10927   3.213   0.590   5.157
 3518SOL    HW110928   3.241   0.547   5.242
 3518SOL    HW210929   3.238   0.686   5.158
 3519SOL     OW10930   2.665   1.402   4.648
 3519SOL    HW110931   2.755   1.416   4.606
 3519SOL    HW210932   2.594   1.404   4.577
 3520SOL     OW10933   2.784   0.503   4.623
 3520SOL    HW110934   2.759   0.494   4.527
 3520SOL    HW210935   2.832   0.421   4.654
 3521SOL     OW10936   2.401   0.064   4.236
 3521SOL    HW110937   2.320   0.065   4.294
 3521SOL    HW210938   2.404   0.147   4.181
 3522SOL     OW10939   3.296   1.188   3.765
 3522SOL    HW110940   3.328   1.112   3.822
 3522SOL    HW210941   3.204   1.215   3.795
 3523SOL     OW10942   2.159   0.035   3.895
 3523SOL    HW110943   2.208   0.119   3.874
 3523SOL    HW210944   2.221  -0.030   3.940
 3524SOL     OW10945   2.797   0.236   4.204
 3524SOL    HW110946   2.749   0.277   4.126
 3524SOL    HW210947   2.896   0.234   4.185
 3525SOL     OW10948   2.938   0.683   5.188
 3525SOL    HW110949   2.858   0.622   5.191
 3525SOL    HW210950   3.019   0.630   5.164
 3526SOL     OW10951   3.089   1.570   4.517
 3526SOL    HW110952   3.110   1.644   4.452
 3526SOL    HW210953   3.157   1.570   4.590
 3527SOL     OW10954   2.321   1.152   4.465
 3527SOL    HW110955   2.250   1.125   4.530
 3527SOL    HW210956   2.295   1.124   4.372
 3528SOL     OW10957   3.133   1.797   4.315
 3528SOL    HW110958   3.177   1.861   4.251
 3528SOL    HW210959   3.083   1.849   4.385
 3529SOL     OW10960   2.894   0.549   3.740
 3529SOL    HW110961   2.853   0.631   3.701
 3529SOL    HW210962   2.958   0.575   3.813
 3530SOL     OW10963   1.940   0.556   5.110
 3530SOL    HW110964   2.032   0.555   5.069
 3530SOL    HW210965   1.934   0.630   5.177
 3531SOL     OW10966   2.423   0.222   4.871
 3531SOL    HW110967   2.461   0.138   4.908
 3531SOL    HW210968   2.335   0.241   4.915
 3532SOL     OW10969   2.728   0.454   4.366
 3532SOL    HW110970   2.696   0.526   4.304
 3532SOL    HW210971   2.752   0.373   4.313
 3533SOL     OW10972   2.879   0.039   4.477
 3533SOL    HW110973   2.807   0.044   4.408
 3533SOL    HW210974   2.855  -0.030   4.546
 3534SOL     OW10975   3.291   1.173   4.591
 3534SOL    HW110976   3.236   1.089   4.584
 3534SOL    HW210977   3.317   1.202   4.499
 3535SOL     OW10978   3.328   0.590   4.716
 3535SOL    HW110979   3.298   0.495   4.723
 3535SOL    HW210980   3.401   0.606   4.782
 3536SOL     OW10981   3.719   0.833   4.101
 3536SOL    HW110982   3.761   0.769   4.165
 3536SOL    HW210983   3.681   0.782   4.023
 3537SOL     OW10984   2.350   1.385   3.898
 3537SOL    HW110985   2.263   1.370   3.945
 3537SOL    HW210986   2.333   1.411   3.803
 3538SOL     OW10987   3.526   1.280   4.381
 3538SOL    HW110988   3.625   1.288   4.395
 3538SOL    HW210989   3.481   1.364   4.412
 3539SOL     OW10990   3.252   0.575   3.802
 3539SOL    HW110991   3.198   0.554   3.883
 3539SOL    HW210992   3.343   0.534   3.811
 3540SOL     OW10993   2.389   0.256   4.052
 3540SOL    HW110994   2.416   0.197   3.977
 3540SOL    HW210995   2.389   0.351   4.021
 3541SOL     OW10996   3.616   1.223   5.312
 3541SOL    HW110997   3.707   1.184   5.299
 3541SOL    HW210998   3.624   1.319   5.336
 3542SOL     OW10999   2.926   1.347   5.064
 3542SOL    HW111000   2.846   1.324   5.119
 3542SOL    HW211001   3.009   1.321   5.113
 3543SOL     OW11002   3.454   1.629   5.349
 3543SOL    HW111003   3.481   1.663   5.259
 3543SOL    HW211004   3.533   1.591   5.395
 3544SOL     OW11005   2.973   1.195   4.824
 3544SOL    HW111006   2.933   1.239   4.905
 3544SOL    HW211007   2.932   1.232   4.741
 3545SOL     OW11008   3.500   1.099   4.803
 3545SOL    HW111009   3.505   1.180   4.862
 3545SOL    HW211010   3.414   1.101   4.752
 3546SOL     OW11011   2.777   0.089   5.126
 3546SOL    HW111012   2.802   0.069   5.031
 3546SOL    HW211013   2.849   0.145   5.168
 3547SOL     OW11014   2.842   1.116   5.443
 3547SOL    HW111015   2.743   1.122   5.453
 3547SOL    HW211016   2.865   1.036   5.387
 3548SOL     OW11017   2.567   1.050   4.092
 3548SOL    HW111018   2.553   1.057   4.191
 3548SOL    HW211019   2.651   0.999   4.074
 3549SOL     OW11020   2.272   0.813   4.975
 3549SOL    HW111021   2.358   0.825   5.025
 3549SOL    HW211022   2.230   0.726   5.002
 3550SOL     OW11023   3.136   0.386   4.986
 3550SOL    HW111024   3.157   0.460   5.050
 3550SOL    HW211025   3.047   0.403   4.943
 3551SOL     OW11026   1.926   1.564   5.055
 3551SOL    HW111027   1.880   1.646   5.021
 3551SOL    HW211028   2.024   1.583   5.064
 3552SOL     OW11029   2.229   1.100   4.225
 3552SOL    HW111030   2.222   1.183   4.169
 3552SOL    HW211031   2.233   1.020   4.165
 3553SOL     OW11032   2.428   0.537   4.589
 3553SOL    HW111033   2.440   0.603   4.515
 3553SOL    HW211034   2.474   0.571   4.672
 3554SOL     OW11035   3.114   1.348   4.112
 3554SOL    HW111036   3.164   1.425   4.152
 3554SOL    HW211037   3.019   1.350   4.144
 3555SOL     OW11038   3.134   1.445   4.866
 3555SOL    HW111039   3.181   1.458   4.953
 3555SOL    HW211040   3.068   1.371   4.875
 3556SOL     OW11041   3.444   0.639   4.196
 3556SOL    HW111042   3.413   0.700   4.269
 3556SOL    HW211043   3.494   0.691   4.127
 3557SOL     OW11044   2.216   1.510   5.053
 3557SOL    HW111045   2.195   1.466   4.966
 3557SOL    HW211046   2.313   1.536   5.056
 3558SOL     OW11047   2.264   0.751   5.322
 3558SOL    HW111048   2.332   0.806   5.275
 3558SOL    HW211049   2.304   0.663   5.349
 3559SOL     OW11050   3.449   0.779   5.394
 3559SOL    HW111051   3.357   0.817   5.389
 3559SOL    HW211052   3.509   0.826   5.329
 3560SOL     OW11053   2.875   0.105   5.494
 3560SOL    HW111054   2.881   0.190   5.442
 3560SOL    HW211055   2.907   0.029   5.437
 3561SOL     OW11056   2.366   0.050   5.464
 3561SOL    HW111057   2.324  -0.007   5.394
 3561SOL    HW211058   2.300   0.119   5.496
 3562SOL     OW11059   2.435   0.870   4.753
 3562SOL    HW111060   2.479   0.959   4.744
 3562SOL    HW211061   2.372   0.870   4.830
 3563SOL     OW11062   3.222   0.862   4.769
 3563SOL    HW111063   3.147   0.862   4.703
 3563SOL    HW211064   3.259   0.770   4.778
 3564SOL     OW11065   3.071   0.525   3.999
 3564SOL    HW111066   3.084   0.441   4.053
 3564SOL    HW211067   3.042   0.599   4.059
 3565SOL     OW11068   2.169   0.213   4.955
 3565SOL    HW111069   2.146   0.250   5.045
 3565SOL    HW211070   2.139   0.118   4.949
 3566SOL     OW11071   1.899   1.310   5.006
 3566SOL    HW111072   1.952   1.261   5.074
 3566SOL    HW211073   1.921   1.408   5.011
 3567SOL     OW11074   2.594   0.634   4.788
 3567SOL    HW111075   2.653   0.608   4.712
 3567SOL    HW211076   2.566   0.730   4.777
 3568SOL     OW11077   3.590   0.935   5.578
 3568SOL    HW111078   3.544   0.928   5.489
 3568SOL    HW211079   3.528   0.979   5.644
 3569SOL     OW11080   2.169   0.063   4.342
 3569SOL    HW111081   2.158   0.157   4.375
 3569SOL    HW211082   2.164   0.000   4.419
 3570SOL     OW11083   3.484   0.367   4.098
 3570SOL    HW111084   3.486   0.291   4.162
 3570SOL    HW211085   3.436   0.444   4.138
 3571SOL     OW11086   2.885   0.766   4.690
 3571SOL    HW111087   2.900   0.787   4.786
 3571SOL    HW211088   2.855   0.671   4.681
 3572SOL     OW11089   2.842   1.573   5.424
 3572SOL    HW111090   2.822   1.617   5.336
 3572SOL    HW211091   2.881   1.482   5.408
 3573SOL     OW11092   3.721   1.518   5.329
 3573SOL    HW111093   3.735   1.545   5.234
 3573SOL    HW211094   3.804   1.540   5.382
 3574SOL     OW11095   2.212   0.898   5.528
 3574SOL    HW111096   2.288   0.942   5.576
 3574SOL    HW211097   2.247   0.851   5.446
 3575SOL     OW11098   3.402   0.274   3.849
 3575SOL    HW111099   3.341   0.199   3.872
 3575SOL    HW211100   3.424   0.326   3.932
 3576SOL     OW11101   3.165   0.838   3.766
 3576SOL    HW111102   3.199   0.745   3.781
 3576SOL    HW211103   3.183   0.865   3.671
 3577SOL     OW11104   2.930   1.333   4.573
 3577SOL    HW111105   2.937   1.249   4.518
 3577SOL    HW211106   2.992   1.402   4.537
 3578SOL     OW11107   2.181   0.810   4.673
 3578SOL    HW111108   2.274   0.846   4.678
 3578SOL    HW211109   2.175   0.725   4.725
 3579SOL     OW11110   2.201   0.509   4.730
 3579SOL    HW111111   2.149   0.426   4.713
 3579SOL    HW211112   2.278   0.514   4.666
 3580SOL     OW11113   3.000   0.380   5.402
 3580SOL    HW111114   2.955   0.443   5.466
 3580SOL    HW211115   3.093   0.411   5.385
 3581SOL     OW11116   3.022   0.207   5.201
 3581SOL    HW111117   3.022   0.271   5.278
 3581SOL    HW211118   3.050   0.255   5.118
 3582SOL     OW11119   1.870   1.326   3.924
 3582SOL    HW111120   1.777   1.347   3.893
 3582SOL    HW211121   1.880   1.227   3.937
 3583SOL     OW11122   1.950   1.801   4.651
 3583SOL    HW111123   1.908   1.715   4.624
 3583SOL    HW211124   2.044   1.804   4.617
 3584SOL     OW11125   2.366   1.568   4.634
 3584SOL    HW111126   2.432   1.642   4.643
 3584SOL    HW211127   2.410   1.489   4.592
 3585SOL     OW11128   2.864   0.796   4.962
 3585SOL    HW111129   2.905   0.764   5.048
 3585SOL    HW211130   2.768   0.769   4.959
 3586SOL     OW11131   1.902   0.544   4.838
 3586SOL    HW111132   1.987   0.511   4.797
 3586SOL    HW211133   1.915   0.559   4.936
 3587SOL     OW11134   2.051   0.520   5.446
 3587SOL    HW111135   2.110   0.480   5.376
 3587SOL    HW211136   1.993   0.591   5.405
 3588SOL     OW11137   3.231   0.950   5.384
 3588SOL    HW111138   3.270   1.039   5.404
 3588SOL    HW211139   3.241   0.930   5.287
 3589SOL     OW11140   2.677   0.572   4.049
 3589SOL    HW111141   2.684   0.483   4.003
 3589SOL    HW211142   2.583   0.606   4.041
 3590SOL     OW11143   3.519   0.604   4.930
 3590SOL    HW111144   3.481   0.535   4.992
 3590SOL    HW211145   3.601   0.568   4.886
 3591SOL     OW11146   2.533   0.464   4.993
 3591SOL    HW111147   2.499   0.375   4.963
 3591SOL    HW211148   2.559   0.518   4.913
 3592SOL     OW11149   2.335   0.500   3.915
 3592SOL    HW111150   2.396   0.580   3.919
 3592SOL    HW211151   2.240   0.531   3.922
 3593SOL     OW11152   2.021   1.137   5.190
 3593SOL    HW111153   2.043   1.076   5.266
 3593SOL    HW211154   2.031   1.088   5.104
 3594SOL     OW11155   3.209   1.059   4.958
 3594SOL    HW111156   3.233   0.996   4.884
 3594SOL    HW211157   3.119   1.099   4.940
 3595SOL     OW11158   3.164   0.855   4.033
 3595SOL    HW111159   3.078   0.824   4.075
 3595SOL    HW211160   3.160   0.841   3.934
 3596SOL     OW11161   3.621   1.747   4.878
 3596SOL    HW111162   3.682   1.777   4.805
 3596SOL    HW211163   3.583   1.658   4.856
 3597SOL     OW11164   3.114   1.731   4.852
 3597SOL    HW111165   3.198   1.736   4.798
 3597SOL    HW211166   3.091   1.635   4.870
 3598SOL     OW11167   1.945   1.258   4.746
 3598SOL    HW111168   1.940   1.257   4.846
 3598SOL    HW211169   1.862   1.217   4.708
 3599SOL     OW11170   3.588   0.135   4.247
 3599SOL    HW111171   3.661   0.118   4.180
 3599SOL    HW211172   3.557   0.048   4.285
 3600SOL     OW11173   3.250   1.573   4.201
 3600SOL    HW111174   3.317   1.585   4.127
 3600SOL    HW211175   3.210   1.662   4.224
 3601SOL     OW11176   3.142   0.927   4.396
 3601SOL    HW111177   3.202   0.846   4.398
 3601SOL    HW211178   3.182   0.996   4.336
 3602SOL     OW11179   2.692   1.273   5.146
 3602SOL    HW111180   2.687   1.306   5.241
 3602SOL    HW211181   2.606   1.292   5.100
 3603SOL     OW11182   2.534   1.616   3.878
 3603SOL    HW111183   2.543   1.626   3.779
 3603SOL    HW211184   2.494   1.527   3.899
 3604SOL     OW11185   3.512   1.720   5.118
 3604SOL    HW111186   3.565   1.730   5.034
 3604SOL    HW211187   3.485   1.810   5.152
 3605SOL     OW11188   3.703   0.175   4.687
 3605SOL    HW111189   3.742   0.090   4.651
 3605SOL    HW211190   3.605   0.177   4.668
 3606SOL     OW11191   2.125   0.326   4.444
 3606SOL    HW111192   2.046   0.377   4.410
 3606SOL    HW211193   2.116   0.311   4.542
 3607SOL     OW11194   3.056   1.612   3.755
 3607SOL    HW111195   3.062   1.519   3.792
 3607SOL    HW211196   2.997   1.612   3.675
 3608SOL     OW11197   2.684   1.002   5.096
 3608SOL    HW111198   2.724   1.001   5.004
 3608SOL    HW211199   2.694   1.094   5.136
 3609SOL     OW11200   2.778   0.910   4.015
 3609SOL    HW111201   2.841   0.948   3.947
 3609SOL    HW211202   2.818   0.827   4.054
 3610SOL     OW11203   3.366   1.607   3.768
 3610SOL    HW111204   3.274   1.644   3.775
 3610SOL    HW211205   3.404   1.627   3.678
 3611SOL     OW11206   2.234   1.288   5.214
 3611SOL    HW111207   2.221   1.381   5.180
 3611SOL    HW211208   2.150   1.236   5.201
 3612SOL     OW11209   3.476   1.292   5.013
 3612SOL    HW111210   3.536   1.295   5.093
 3612SOL    HW211211   3.401   1.356   5.026
 3613SOL     OW11212   2.901   1.098   4.420
 3613SOL    HW111213   2.831   1.051   4.474
 3613SOL    HW211214   2.960   1.030   4.377
 3614SOL     OW11215   2.876   0.236   4.695
 3614SOL    HW111216   2.868   0.200   4.602
 3614SOL    HW211217   2.874   0.160   4.760
 3615SOL     OW11218   2.452   1.487   4.215
 3615SOL    HW111219   2.494   1.429   4.145
 3615SOL    HW211220   2.408   1.566   4.171
 3616SOL     OW11221   3.571   0.385   5.105
 3616SOL    HW111222   3.644   0.454   5.109
 3616SOL    HW211223   3.599   0.310   5.046
 3617SOL     OW11224   2.117   1.348   4.014
 3617SOL    HW111225   2.021   1.349   3.987
 3617SOL    HW211226   2.129   1.401   4.098
 3618SOL     OW11227   1.967   1.013   5.450
 3618SOL    HW111228   1.890   0.980   5.504
 3618SOL    HW211229   2.052   0.983   5.492
 3619SOL     OW11230   2.534   0.203   5.213
 3619SOL    HW111231   2.624   0.187   5.173
 3619SOL    HW211232   2.542   0.208   5.312
 3620SOL     OW11233   1.937   0.345   3.757
 3620SOL    HW111234   1.845   0.317   3.728
 3620SOL    HW211235   1.968   0.422   3.701
 3621SOL     OW11236   3.302   0.856   5.122
 3621SOL    HW111237   3.245   0.908   5.059
 3621SOL    HW211238   3.398   0.868   5.098
 3622SOL     OW11239   1.934   0.166   4.042
 3622SOL    HW111240   1.917   0.249   3.988
 3622SOL    HW211241   2.024   0.129   4.020
 3623SOL     OW11242   3.045   1.335   3.843
 3623SOL    HW111243   2.946   1.324   3.845
 3623SOL    HW211244   3.079   1.350   3.936
 3624SOL     OW11245   2.475   0.842   5.155
 3624SOL    HW111246   2.531   0.923   5.138
 3624SOL    HW211247   2.534   0.762   5.158
 3625SOL     OW11248   3.355   1.767   4.683
 3625SOL    HW111249   3.388   1.831   4.614
 3625SOL    HW211250   3.421   1.761   4.758
 3626SOL     OW11251   2.578   0.565   5.432
 3626SOL    HW111252   2.597   0.630   5.506
 3626SOL    HW211253   2.638   0.485   5.441
 3627SOL     OW11254   3.312   1.220   5.357
 3627SOL    HW111255   3.303   1.210   5.456
 3627SOL    HW211256   3.408   1.213   5.331
 3628SOL     OW11257   3.536   0.883   4.978
 3628SOL    HW111258   3.509   0.794   4.941
 3628SOL    HW211259   3.537   0.951   4.905
 3629SOL     OW11260   3.087   0.325   4.173
 3629SOL    HW111261   3.152   0.251   4.162
 3629SOL    HW211262   3.107   0.375   4.257
 3630SOL     OW11263   2.456   0.745   4.376
 3630SOL    HW111264   2.506   0.830   4.357
 3630SOL    HW211265   2.368   0.747   4.328
 3631SOL     OW11266   3.639   0.342   5.366
 3631SOL    HW111267   3.622   0.373   5.272
 3631SOL    HW211268   3.555   0.305   5.404
 3632SOL     OW11269   3.592   0.934   5.241
 3632SOL    HW111270   3.630   1.025   5.256
 3632SOL    HW211271   3.584   0.917   5.142
 3633SOL     OW11272   2.721   1.374   3.740
 3633SOL    HW111273   2.675   1.389   3.828
 3633SOL    HW211274   2.765   1.459   3.710
 3634SOL     OW11275   2.523   1.790   4.677
 3634SOL    HW111276   2.477   1.878   4.664
 3634SOL    HW211277   2.622   1.802   4.670
 3635SOL     OW11278   2.721   0.956   4.585
 3635SOL    HW111279   2.775   0.887   4.633
 3635SOL    HW211280   2.689   1.025   4.651
 3636SOL     OW11281   2.945   0.984   3.811
 3636SOL    HW111282   2.922   1.037   3.729
 3636SOL    HW211283   3.026   0.928   3.792
 3637SOL     OW11284   3.723   1.569   4.575
 3637SOL    HW111285   3.652   1.557   4.505
 3637SOL    HW211286   3.724   1.490   4.635
 3638SOL     OW11287   2.083   1.314   5.568
 3638SOL    HW111288   2.018   1.241   5.547
 3638SOL    HW211289   2.087   1.328   5.666
 3639SOL     OW11290   1.941   1.240   4.377
 3639SOL    HW111291   1.940   1.193   4.465
 3639SOL    HW211292   2.023   1.212   4.326
 3640SOL     OW11293   3.686   0.192   4.951
 3640SOL    HW111294   3.682   0.102   4.995
 3640SOL    HW211295   3.689   0.181   4.852
 3641SOL     OW11296   2.290   0.424   4.244
 3641SOL    HW111297   2.320   0.352   4.182
 3641SOL    HW211298   2.251   0.384   4.327
 3642SOL     OW11299   3.567   1.487   4.828
 3642SOL    HW111300   3.474   1.462   4.801
 3642SOL    HW211301   3.593   1.437   4.910
 3643SOL     OW11302   2.179   0.547   5.004
 3643SOL    HW111303   2.217   0.488   5.076
 3643SOL    HW211304   2.219   0.521   4.916
 3644SOL     OW11305   2.674   1.586   4.411
 3644SOL    HW111306   2.706   1.596   4.317
 3644SOL    HW211307   2.595   1.524   4.413
 3645SOL     OW11308   3.286   0.214   4.836
 3645SOL    HW111309   3.338   0.149   4.891
 3645SOL    HW211310   3.237   0.277   4.897
 3646SOL     OW11311   2.863   0.034   4.878
 3646SOL    HW111312   2.800  -0.038   4.847
 3646SOL    HW211313   2.956  -0.002   4.878
 3647SOL     OW11314   2.632   1.330   4.025
 3647SOL    HW111315   2.586   1.243   4.042
 3647SOL    HW211316   2.723   1.327   4.066
 3648SOL     OW11317   2.480   1.567   5.008
 3648SOL    HW111318   2.475   1.649   5.065
 3648SOL    HW211319   2.569   1.564   4.963
 3649SOL     OW11320   3.214   0.052   3.892
 3649SOL    HW111321   3.249   0.011   3.808
 3649SOL    HW211322   3.124   0.014   3.912
 3650SOL     OW11323   3.162   0.453   4.415
 3650SOL    HW111324   3.103   0.533   4.419
 3650SOL    HW211325   3.177   0.418   4.508
 3651SOL     OW11326   3.455   0.221   4.606
 3651SOL    HW111327   3.371   0.220   4.660
 3651SOL    HW211328   3.457   0.304   4.550
 3652SOL     OW11329   1.901   1.077   4.024
 3652SOL    HW111330   2.000   1.066   4.015
 3652SOL    HW211331   1.861   0.991   4.056
 3653SOL     OW11332   2.737   1.646   4.061
 3653SOL    HW111333   2.660   1.611   4.007
 3653SOL    HW211334   2.705   1.717   4.123
 3654SOL     OW11335   2.092   0.628   5.699
 3654SOL    HW111336   1.999   0.626   5.736
 3654SOL    HW211337   2.093   0.589   5.607
 3655SOL     OW11338   2.087   0.275   6.582
 3655SOL    HW111339   2.122   0.258   6.674
 3655SOL    HW211340   1.999   0.230   6.570
 3656SOL     OW11341   1.881   0.368   6.233
 3656SOL    HW111342   1.799   0.411   6.272
 3656SOL    HW211343   1.853   0.295   6.170
 3657SOL     OW11344   2.431   1.275   6.751
 3657SOL    HW111345   2.338   1.268   6.714
 3657SOL    HW211346   2.442   1.364   6.795
 3658SOL     OW11347   3.417   1.511   6.289
 3658SOL    HW111348   3.360   1.495   6.370
 3658SOL    HW211349   3.358   1.521   6.209
 3659SOL     OW11350   2.997   0.703   6.303
 3659SOL    HW111351   3.054   0.781   6.278
 3659SOL    HW211352   2.937   0.729   6.379
 3660SOL     OW11353   3.617   0.607   5.817
 3660SOL    HW111354   3.605   0.594   5.718
 3660SOL    HW211355   3.587   0.526   5.866
 3661SOL     OW11356   2.630   1.144   6.609
 3661SOL    HW111357   2.552   1.161   6.669
 3661SOL    HW211358   2.664   1.231   6.573
 3662SOL     OW11359   2.712   0.798   7.409
 3662SOL    HW111360   2.708   0.874   7.474
 3662SOL    HW211361   2.734   0.834   7.318
 3663SOL     OW11362   2.547   1.012   6.251
 3663SOL    HW111363   2.616   0.996   6.321
 3663SOL    HW211364   2.474   1.069   6.289
 3664SOL     OW11365   2.548   1.161   7.389
 3664SOL    HW111366   2.608   1.240   7.403
 3664SOL    HW211367   2.462   1.192   7.348
 3665SOL     OW11368   2.197   1.435   6.647
 3665SOL    HW111369   2.119   1.404   6.594
 3665SOL    HW211370   2.255   1.493   6.590
 3666SOL     OW11371   3.322   1.505   6.925
 3666SOL    HW111372   3.346   1.599   6.951
 3666SOL    HW211373   3.306   1.451   7.007
 3667SOL     OW11374   2.300   0.392   7.085
 3667SOL    HW111375   2.382   0.336   7.094
 3667SOL    HW211376   2.219   0.334   7.089
 3668SOL     OW11377   3.465   0.447   6.323
 3668SOL    HW111378   3.391   0.493   6.273
 3668SOL    HW211379   3.516   0.515   6.376
 3669SOL     OW11380   2.989   1.341   7.276
 3669SOL    HW111381   3.036   1.341   7.364
 3669SOL    HW211382   2.941   1.254   7.265
 3670SOL     OW11383   2.092   1.434   6.124
 3670SOL    HW111384   2.066   1.530   6.124
 3670SOL    HW211385   2.021   1.380   6.169
 3671SOL     OW11386   2.102   1.091   6.472
 3671SOL    HW111387   2.116   1.007   6.524
 3671SOL    HW211388   2.047   1.155   6.527
 3672SOL     OW11389   2.482   1.786   7.025
 3672SOL    HW111390   2.390   1.769   7.060
 3672SOL    HW211391   2.510   1.878   7.051
 3673SOL     OW11392   2.468   0.964   5.709
 3673SOL    HW111393   2.475   1.048   5.655
 3673SOL    HW211394   2.514   0.977   5.797
 3674SOL     OW11395   3.456   0.114   7.066
 3674SOL    HW111396   3.438   0.181   6.994
 3674SOL    HW211397   3.453   0.160   7.155
 3675SOL     OW11398   1.984   0.643   6.149
 3675SOL    HW111399   1.939   0.555   6.166
 3675SOL    HW211400   1.983   0.697   6.233
 3676SOL     OW11401   3.704   1.767   5.945
 3676SOL    HW111402   3.758   1.738   6.025
 3676SOL    HW211403   3.734   1.857   5.916
 3677SOL     OW11404   3.551   0.922   6.198
 3677SOL    HW111405   3.646   0.893   6.206
 3677SOL    HW211406   3.543   0.987   6.123
 3678SOL     OW11407   3.503   1.108   6.018
 3678SOL    HW111408   3.589   1.110   5.966
 3678SOL    HW211409   3.517   1.155   6.106
 3679SOL     OW11410   1.975   0.737   7.183
 3679SOL    HW111411   2.063   0.724   7.228
 3679SOL    HW211412   1.962   0.834   7.161
 3680SOL     OW11413   2.475   1.365   6.312
 3680SOL    HW111414   2.426   1.278   6.321
 3680SOL    HW211415   2.452   1.408   6.225
 3681SOL     OW11416   3.155   1.228   7.009
 3681SOL    HW111417   3.192   1.155   6.951
 3681SOL    HW211418   3.207   1.233   7.094
 3682SOL     OW11419   2.671   0.004   6.088
 3682SOL    HW111420   2.711   0.095   6.079
 3682SOL    HW211421   2.571   0.012   6.094
 3683SOL     OW11422   2.059   0.976   6.850
 3683SOL    HW111423   2.148   0.931   6.836
 3683SOL    HW211424   1.986   0.911   6.831
 3684SOL     OW11425   3.387   0.999   5.776
 3684SOL    HW111426   3.324   0.923   5.789
 3684SOL    HW211427   3.435   1.017   5.862
 3685SOL     OW11428   3.049   1.792   7.202
 3685SOL    HW111429   3.073   1.852   7.126
 3685SOL    HW211430   3.056   1.697   7.172
 3686SOL     OW11431   2.179   0.251   7.387
 3686SOL    HW111432   2.250   0.322   7.393
 3686SOL    HW211433   2.091   0.290   7.415
 3687SOL     OW11434   3.328   1.417   6.539
 3687SOL    HW111435   3.269   1.423   6.619
 3687SOL    HW211436   3.313   1.329   6.493
 3688SOL     OW11437   3.529   1.714   6.158
 3688SOL    HW111438   3.488   1.691   6.070
 3688SOL    HW211439   3.511   1.640   6.223
 3689SOL     OW11440   2.460   0.729   5.856
 3689SOL    HW111441   2.484   0.798   5.788
 3689SOL    HW211442   2.382   0.762   5.910
 3690SOL     OW11443   3.143   0.345   6.530
 3690SOL    HW111444   3.057   0.295   6.517
 3690SOL    HW211445   3.205   0.291   6.586
 3691SOL     OW11446   3.438   1.662   5.893
 3691SOL    HW111447   3.527   1.708   5.896
 3691SOL    HW211448   3.417   1.638   5.798
 3692SOL     OW11449   2.669   0.605   7.051
 3692SOL    HW111450   2.622   0.602   7.140
 3692SOL    HW211451   2.618   0.550   6.985
 3693SOL     OW11452   3.256   0.469   7.260
 3693SOL    HW111453   3.236   0.512   7.348
 3693SOL    HW211454   3.334   0.407   7.269
 3694SOL     OW11455   2.835   0.890   7.158
 3694SOL    HW111456   2.881   0.806   7.129
 3694SOL    HW211457   2.779   0.924   7.083
 3695SOL     OW11458   2.853   0.410   6.828
 3695SOL    HW111459   2.776   0.444   6.882
 3695SOL    HW211460   2.819   0.359   6.749
 3696SOL     OW11461   2.903   0.701   6.015
 3696SOL    HW111462   2.929   0.697   6.111
 3696SOL    HW211463   2.818   0.650   6.001
 3697SOL     OW11464   1.938   0.811   6.375
 3697SOL    HW111465   2.037   0.799   6.384
 3697SOL    HW211466   1.914   0.906   6.396
 3698SOL     OW11467   1.992   1.821   7.157
 3698SOL    HW111468   1.982   1.806   7.256
 3698SOL    HW211469   1.906   1.857   7.121
 3699SOL     OW11470   2.727   0.348   5.781
 3699SOL    HW111471   2.786   0.411   5.732
 3699SOL    HW211472   2.746   0.254   5.752
 3700SOL     OW11473   3.581   0.585   7.417
 3700SOL    HW111474   3.555   0.674   7.381
 3700SOL    HW211475   3.579   0.517   7.344
 3701SOL     OW11476   3.224   1.144   6.131
 3701SOL    HW111477   3.307   1.115   6.083
 3701SOL    HW211478   3.175   1.211   6.075
 3702SOL     OW11479   2.412   0.196   6.471
 3702SOL    HW111480   2.407   0.191   6.571
 3702SOL    HW211481   2.414   0.292   6.442
 3703SOL     OW11482   2.870   1.456   6.063
 3703SOL    HW111483   2.824   1.528   6.011
 3703SOL    HW211484   2.866   1.476   6.161
 3704SOL     OW11485   2.213   1.801   6.439
 3704SOL    HW111486   2.263   1.715   6.445
 3704SOL    HW211487   2.278   1.878   6.436
 3705SOL     OW11488   3.657   1.066   6.459
 3705SOL    HW111489   3.595   1.051   6.383
 3705SOL    HW211490   3.605   1.077   6.544
 3706SOL     OW11491   3.089   1.550   7.092
 3706SOL    HW111492   3.095   1.473   7.156
 3706SOL    HW211493   3.037   1.524   7.012
 3707SOL     OW11494   2.183   0.943   5.828
 3707SOL    HW111495   2.265   0.982   5.786
 3707SOL    HW211496   2.156   0.861   5.779
 3708SOL     OW11497   3.320   0.735   6.314
 3708SOL    HW111498   3.315   0.670   6.389
 3708SOL    HW211499   3.400   0.794   6.327
 3709SOL     OW11500   2.323   1.266   7.313
 3709SOL    HW111501   2.273   1.267   7.227
 3709SOL    HW211502   2.260   1.248   7.389
 3710SOL     OW11503   2.064   0.285   7.084
 3710SOL    HW111504   1.984   0.345   7.071
 3710SOL    HW211505   2.054   0.236   7.170
 3711SOL     OW11506   3.494   1.377   5.667
 3711SOL    HW111507   3.462   1.471   5.657
 3711SOL    HW211508   3.418   1.314   5.655
 3712SOL     OW11509   3.262   0.107   6.012
 3712SOL    HW111510   3.238   0.070   5.922
 3712SOL    HW211511   3.361   0.123   6.016
 3713SOL     OW11512   2.111   1.785   6.827
 3713SOL    HW111513   2.168   1.720   6.877
 3713SOL    HW211514   2.095   1.752   6.734
 3714SOL     OW11515   2.802   1.698   6.490
 3714SOL    HW111516   2.882   1.641   6.511
 3714SOL    HW211517   2.753   1.658   6.413
 3715SOL     OW11518   2.244   0.700   6.066
 3715SOL    HW111519   2.289   0.610   6.063
 3715SOL    HW211520   2.150   0.689   6.099
 3716SOL     OW11521   3.409   0.222   7.315
 3716SOL    HW111522   3.404   0.259   7.407
 3716SOL    HW211523   3.337   0.153   7.303
 3717SOL     OW11524   2.476   0.122   5.703
 3717SOL    HW111525   2.574   0.100   5.710
 3717SOL    HW211526   2.445   0.105   5.610
 3718SOL     OW11527   2.643   0.264   7.335
 3718SOL    HW111528   2.710   0.203   7.378
 3718SOL    HW211529   2.570   0.283   7.400
 3719SOL     OW11530   2.750   1.514   6.781
 3719SOL    HW111531   2.727   1.489   6.687
 3719SOL    HW211532   2.811   1.445   6.820
 3720SOL     OW11533   3.213   0.590   7.019
 3720SOL    HW111534   3.241   0.547   7.104
 3720SOL    HW211535   3.238   0.686   7.020
 3721SOL     OW11536   2.665   1.402   6.510
 3721SOL    HW111537   2.755   1.416   6.468
 3721SOL    HW211538   2.594   1.404   6.439
 3722SOL     OW11539   2.784   0.503   6.485
 3722SOL    HW111540   2.759   0.494   6.389
 3722SOL    HW211541   2.832   0.421   6.516
 3723SOL     OW11542   2.401   0.064   6.098
 3723SOL    HW111543   2.320   0.065   6.156
 3723SOL    HW211544   2.404   0.147   6.043
 3724SOL     OW11545   3.296   1.188   5.627
 3724SOL    HW111546   3.328   1.112   5.684
 3724SOL    HW211547   3.204   1.215   5.657
 3725SOL     OW11548   2.159   0.035   5.757
 3725SOL    HW111549   2.208   0.119   5.736
 3725SOL    HW211550   2.221  -0.030   5.802
 3726SOL     OW11551   2.797   0.236   6.066
 3726SOL    HW111552   2.749   0.277   5.988
 3726SOL    HW211553   2.896   0.234   6.047
 3727SOL     OW11554   2.938   0.683   7.050
 3727SOL    HW111555   2.858   0.622   7.053
 3727SOL    HW211556   3.019   0.630   7.026
 3728SOL     OW11557   3.089   1.570   6.379
 3728SOL    HW111558   3.110   1.644   6.314
 3728SOL    HW211559   3.157   1.570   6.452
 3729SOL     OW11560   2.321   1.152   6.327
 3729SOL    HW111561   2.250   1.125   6.392
 3729SOL    HW211562   2.295   1.124   6.234
 3730SOL     OW11563   3.133   1.797   6.177
 3730SOL    HW111564   3.177   1.861   6.113
 3730SOL    HW211565   3.083   1.849   6.247
 3731SOL     OW11566   2.894   0.549   5.602
 3731SOL    HW111567   2.853   0.631   5.563
 3731SOL    HW211568   2.958   0.575   5.675
 3732SOL     OW11569   1.940   0.556   6.972
 3732SOL    HW111570   2.032   0.555   6.931
 3732SOL    HW211571   1.934   0.630   7.039
 3733SOL     OW11572   2.423   0.222   6.733
 3733SOL    HW111573   2.461   0.138   6.770
 3733SOL    HW211574   2.335   0.241   6.777
 3734SOL     OW11575   2.728   0.454   6.228
 3734SOL    HW111576   2.696   0.526   6.166
 3734SOL    HW211577   2.752   0.373   6.175
 3735SOL     OW11578   2.879   0.039   6.339
 3735SOL    HW111579   2.807   0.044   6.270
 3735SOL    HW211580   2.855  -0.030   6.408
 3736SOL     OW11581   3.291   1.173   6.453
 3736SOL    HW111582   3.236   1.089   6.446
 3736SOL    HW211583   3.317   1.202   6.361
 3737SOL     OW11584   3.328   0.590   6.578
 3737SOL    HW111585   3.298   0.495   6.585
 3737SOL    HW211586   3.401   0.606   6.644
 3738SOL     OW11587   3.719   0.833   5.963
 3738SOL    HW111588   3.761   0.769   6.027
 3738SOL    HW211589   3.681   0.782   5.885
 3739SOL     OW11590   2.350   1.385   5.760
 3739SOL    HW111591   2.263   1.370   5.807
 3739SOL    HW211592   2.333   1.411   5.665
 3740SOL     OW11593   3.526   1.280   6.243
 3740SOL    HW111594   3.625   1.288   6.257
 3740SOL    HW211595   3.481   1.364   6.274
 3741SOL     OW11596   3.252   0.575   5.664
 3741SOL    HW111597   3.198   0.554   5.745
 3741SOL    HW211598   3.343   0.534   5.673
 3742SOL     OW11599   2.389   0.256   5.914
 3742SOL    HW111600   2.416   0.197   5.839
 3742SOL    HW211601   2.389   0.351   5.883
 3743SOL     OW11602   3.616   1.223   7.174
 3743SOL    HW111603   3.707   1.184   7.161
 3743SOL    HW211604   3.624   1.319   7.198
 3744SOL     OW11605   2.926   1.347   6.926
 3744SOL    HW111606   2.846   1.324   6.981
 3744SOL    HW211607   3.009   1.321   6.975
 3745SOL     OW11608   3.454   1.629   7.211
 3745SOL    HW111609   3.481   1.663   7.121
 3745SOL    HW211610   3.533   1.591   7.257
 3746SOL     OW11611   2.973   1.195   6.686
 3746SOL    HW111612   2.933   1.239   6.767
 3746SOL    HW211613   2.932   1.232   6.603
 3747SOL     OW11614   3.500   1.099   6.665
 3747SOL    HW111615   3.505   1.180   6.724
 3747SOL    HW211616   3.414   1.101   6.614
 3748SOL     OW11617   2.777   0.089   6.988
 3748SOL    HW111618   2.802   0.069   6.893
 3748SOL    HW211619   2.849   0.145   7.030
 3749SOL     OW11620   2.842   1.116   7.305
 3749SOL    HW111621   2.743   1.122   7.315
 3749SOL    HW211622   2.865   1.036   7.249
 3750SOL     OW11623   2.567   1.050   5.954
 3750SOL    HW111624   2.553   1.057   6.053
 3750SOL    HW211625   2.651   0.999   5.936
 3751SOL     OW11626   2.272   0.813   6.837
 3751SOL    HW111627   2.358   0.825   6.887
 3751SOL    HW211628   2.230   0.726   6.864
 3752SOL     OW11629   3.136   0.386   6.848
 3752SOL    HW111630   3.157   0.460   6.912
 3752SOL    HW211631   3.047   0.403   6.805
 3753SOL     OW11632   1.926   1.564   6.917
 3753SOL    HW111633   1.880   1.646   6.883
 3753SOL    HW211634   2.024   1.583   6.926
 3754SOL     OW11635   2.229   1.100   6.087
 3754SOL    HW111636   2.222   1.183   6.031
 3754SOL    HW211637   2.233   1.020   6.027
 3755SOL     OW11638   2.428   0.537   6.451
 3755SOL    HW111639   2.440   0.603   6.377
 3755SOL    HW211640   2.474   0.571   6.534
 3756SOL     OW11641   3.114   1.348   5.974
 3756SOL    HW111642   3.164   1.425   6.014
 3756SOL    HW211643   3.019   1.350   6.006
 3757SOL     OW11644   3.134   1.445   6.728
 3757SOL    HW111645   3.181   1.458   6.815
 3757SOL    HW211646   3.068   1.371   6.737
 3758SOL     OW11647   3.444   0.639   6.058
 3758SOL    HW111648   3.413   0.700   6.131
 3758SOL    HW211649   3.494   0.691   5.989
 3759SOL     OW11650   2.216   1.510   6.915
 3759SOL    HW111651   2.195   1.466   6.828
 3759SOL    HW211652   2.313   1.536   6.918
 3760SOL     OW11653   2.264   0.751   7.184
 3760SOL    HW111654   2.332   0.806   7.137
 3760SOL    HW211655   2.304   0.663   7.211
 3761SOL     OW11656   3.449   0.779   7.256
 3761SOL    HW111657   3.357   0.817   7.251
 3761SOL    HW211658   3.509   0.826   7.191
 3762SOL     OW11659   2.875   0.105   7.356
 3762SOL    HW111660   2.881   0.190   7.304
 3762SOL    HW211661   2.907   0.029   7.299
 3763SOL     OW11662   2.366   0.050   7.326
 3763SOL    HW111663   2.324  -0.007   7.256
 3763SOL    HW211664   2.300   0.119   7.358
 3764SOL     OW11665   2.435   0.870   6.615
 3764SOL    HW111666   2.479   0.959   6.606
 3764SOL    HW211667   2.372   0.870   6.692
 3765SOL     OW11668   3.222   0.862   6.631
 3765SOL    HW111669   3.147   0.862   6.565
 3765SOL    HW211670   3.259   0.770   6.640
 3766SOL     OW11671   3.071   0.525   5.861
 3766SOL    HW111672   3.084   0.441   5.915
 3766SOL    HW211673   3.042   0.599   5.921
 3767SOL     OW11674   2.169   0.213   6.817
 3767SOL    HW111675   2.146   0.250   6.907
 3767SOL    HW211676   2.139   0.118   6.811
 3768SOL     OW11677   1.899   1.310   6.868
 3768SOL    HW111678   1.952   1.261   6.936
 3768SOL    HW211679   1.921   1.408   6.873
 3769SOL     OW11680   2.594   0.634   6.650
 3769SOL    HW111681   2.653   0.608   6.574
 3769SOL    HW211682   2.566   0.730   6.639
 3770SOL     OW11683   3.590   0.935   7.440
 3770SOL    HW111684   3.544   0.928   7.351
 3770SOL    HW211685   3.528   0.979   7.506
 3771SOL     OW11686   2.169   0.063   6.204
 3771SOL    HW111687   2.158   0.157   6.237
 3771SOL    HW211688   2.164   0.000   6.281
 3772SOL     OW11689   3.484   0.367   5.960
 3772SOL    HW111690   3.486   0.291   6.024
 3772SOL    HW211691   3.436   0.444   6.000
 3773SOL     OW11692   2.885   0.766   6.552
 3773SOL    HW111693   2.900   0.787   6.648
 3773SOL    HW211694   2.855   0.671   6.543
 3774SOL     OW11695   2.842   1.573   7.286
 3774SOL    HW111696   2.822   1.617   7.198
 3774SOL    HW211697   2.881   1.482   7.270
 3775SOL     OW11698   3.721   1.518   7.191
 3775SOL    HW111699   3.735   1.545   7.096
 3775SOL    HW211700   3.804   1.540   7.244
 3776SOL     OW11701   2.212   0.898   7.390
 3776SOL    HW111702   2.288   0.942   7.438
 3776SOL    HW211703   2.247   0.851   7.308
 3777SOL     OW11704   3.402   0.274   5.711
 3777SOL    HW111705   3.341   0.199   5.734
 3777SOL    HW211706   3.424   0.326   5.794
 3778SOL     OW11707   3.165   0.838   5.628
 3778SOL    HW111708   3.199   0.745   5.643
 3778SOL    HW211709   3.183   0.865   5.533
 3779SOL     OW11710   2.930   1.333   6.435
 3779SOL    HW111711   2.937   1.249   6.380
 3779SOL    HW211712   2.992   1.402   6.399
 3780SOL     OW11713   2.181   0.810   6.535
 3780SOL    HW111714   2.274   0.846   6.540
 3780SOL    HW211715   2.175   0.725   6.587
 3781SOL     OW11716   2.201   0.509   6.592
 3781SOL    HW111717   2.149   0.426   6.575
 3781SOL    HW211718   2.278   0.514   6.528
 3782SOL     OW11719   3.000   0.380   7.264
 3782SOL    HW111720   2.955   0.443   7.328
 3782SOL    HW211721   3.093   0.411   7.247
 3783SOL     OW11722   3.022   0.207   7.063
 3783SOL    HW111723   3.022   0.271   7.140
 3783SOL    HW211724   3.050   0.255   6.980
 3784SOL     OW11725   1.870   1.326   5.786
 3784SOL    HW111726   1.777   1.347   5.755
 3784SOL    HW211727   1.880   1.227   5.799
 3785SOL     OW11728   1.950   1.801   6.513
 3785SOL    HW111729   1.908   1.715   6.486
 3785SOL    HW211730   2.044   1.804   6.479
 3786SOL     OW11731   2.366   1.568   6.496
 3786SOL    HW111732   2.432   1.642   6.505
 3786SOL    HW211733   2.410   1.489   6.454
 3787SOL     OW11734   2.864   0.796   6.824
 3787SOL    HW111735   2.905   0.764   6.910
 3787SOL    HW211736   2.768   0.769   6.821
 3788SOL     OW11737   1.902   0.544   6.700
 3788SOL    HW111738   1.987   0.511   6.659
 3788SOL    HW211739   1.915   0.559   6.798
 3789SOL     OW11740   2.051   0.520   7.308
 3789SOL    HW111741   2.110   0.480   7.238
 3789SOL    HW211742   1.993   0.591   7.267
 3790SOL     OW11743   3.231   0.950   7.246
 3790SOL    HW111744   3.270   1.039   7.266
 3790SOL    HW211745   3.241   0.930   7.149
 3791SOL     OW11746   2.677   0.572   5.911
 3791SOL    HW111747   2.684   0.483   5.865
 3791SOL    HW211748   2.583   0.606   5.903
 3792SOL     OW11749   3.519   0.604   6.792
 3792SOL    HW111750   3.481   0.535   6.854
 3792SOL    HW211751   3.601   0.568   6.748
 3793SOL     OW11752   2.114   1.564   7.330
 3793SOL    HW111753   2.084   1.621   7.406
 3793SOL    HW211754   2.107   1.467   7.356
 3794SOL     OW11755   2.533   0.464   6.855
 3794SOL    HW111756   2.499   0.375   6.825
 3794SOL    HW211757   2.559   0.518   6.775
 3795SOL     OW11758   2.792   1.678   7.051
 3795SOL    HW111759   2.768   1.660   6.956
 3795SOL    HW211760   2.822   1.772   7.061
 3796SOL     OW11761   2.335   0.500   5.777
 3796SOL    HW111762   2.396   0.580   5.781
 3796SOL    HW211763   2.240   0.531   5.784
 3797SOL     OW11764   2.021   1.137   7.052
 3797SOL    HW111765   2.043   1.076   7.128
 3797SOL    HW211766   2.031   1.088   6.966
 3798SOL     OW11767   3.209   1.059   6.820
 3798SOL    HW111768   3.233   0.996   6.746
 3798SOL    HW211769   3.119   1.099   6.802
 3799SOL     OW11770   3.164   0.855   5.895
 3799SOL    HW111771   3.078   0.824   5.937
 3799SOL    HW211772   3.160   0.841   5.796
 3800SOL     OW11773   3.621   1.747   6.740
 3800SOL    HW111774   3.682   1.777   6.667
 3800SOL    HW211775   3.583   1.658   6.718
 3801SOL     OW11776   3.114   1.731   6.714
 3801SOL    HW111777   3.198   1.736   6.660
 3801SOL    HW211778   3.091   1.635   6.732
 3802SOL     OW11779   1.945   1.258   6.608
 3802SOL    HW111780   1.940   1.257   6.708
 3802SOL    HW211781   1.862   1.217   6.570
 3803SOL     OW11782   2.550   1.662   7.302
 3803SOL    HW111783   2.494   1.743   7.311
 3803SOL    HW211784   2.602   1.666   7.216
 3804SOL     OW11785   3.588   0.135   6.109
 3804SOL    HW111786   3.661   0.118   6.042
 3804SOL    HW211787   3.557   0.048   6.147
 3805SOL     OW11788   3.250   1.573   6.063
 3805SOL    HW111789   3.317   1.585   5.989
 3805SOL    HW211790   3.210   1.662   6.086
 3806SOL     OW11791   1.992   1.794   7.437
 3806SOL    HW111792   1.951   1.720   7.490
 3806SOL    HW211793   2.056   1.845   7.495
 3807SOL     OW11794   3.142   0.927   6.258
 3807SOL    HW111795   3.202   0.846   6.260
 3807SOL    HW211796   3.182   0.996   6.198
 3808SOL     OW11797   2.692   1.273   7.008
 3808SOL    HW111798   2.687   1.306   7.103
 3808SOL    HW211799   2.606   1.292   6.962
 3809SOL     OW11800   3.512   1.720   6.980
 3809SOL    HW111801   3.565   1.730   6.896
 3809SOL    HW211802   3.485   1.810   7.014
 3810SOL     OW11803   3.703   0.175   6.549
 3810SOL    HW111804   3.742   0.090   6.513
 3810SOL    HW211805   3.605   0.177   6.530
 3811SOL     OW11806   2.125   0.326   6.306
 3811SOL    HW111807   2.046   0.377   6.272
 3811SOL    HW211808   2.116   0.311   6.404
 3812SOL     OW11809   3.056   1.612   5.617
 3812SOL    HW111810   3.062   1.519   5.654
 3812SOL    HW211811   2.997   1.612   5.537
 3813SOL     OW11812   2.684   1.002   6.958
 3813SOL    HW111813   2.724   1.001   6.866
 3813SOL    HW211814   2.694   1.094   6.998
 3814SOL     OW11815   2.778   0.910   5.877
 3814SOL    HW111816   2.841   0.948   5.809
 3814SOL    HW211817   2.818   0.827   5.916
 3815SOL     OW11818   3.366   1.607   5.630
 3815SOL    HW111819   3.274   1.644   5.637
 3815SOL    HW211820   3.404   1.627   5.540
 3816SOL     OW11821   2.234   1.288   7.076
 3816SOL    HW111822   2.221   1.381   7.042
 3816SOL    HW211823   2.150   1.236   7.063
 3817SOL     OW11824   3.476   1.292   6.875
 3817SOL    HW111825   3.536   1.295   6.955
 3817SOL    HW211826   3.401   1.356   6.888
 3818SOL     OW11827   2.901   1.098   6.282
 3818SOL    HW111828   2.831   1.051   6.336
 3818SOL    HW211829   2.960   1.030   6.239
 3819SOL     OW11830   2.876   0.236   6.557
 3819SOL    HW111831   2.868   0.200   6.464
 3819SOL    HW211832   2.874   0.160   6.622
 3820SOL     OW11833   2.452   1.487   6.077
 3820SOL    HW111834   2.494   1.429   6.007
 3820SOL    HW211835   2.408   1.566   6.033
 3821SOL     OW11836   3.571   0.385   6.967
 3821SOL    HW111837   3.644   0.454   6.971
 3821SOL    HW211838   3.599   0.310   6.908
 3822SOL     OW11839   2.117   1.348   5.876
 3822SOL    HW111840   2.021   1.349   5.849
 3822SOL    HW211841   2.129   1.401   5.960
 3823SOL     OW11842   1.967   1.013   7.312
 3823SOL    HW111843   1.890   0.980   7.366
 3823SOL    HW211844   2.052   0.983   7.354
 3824SOL     OW11845   2.534   0.203   7.075
 3824SOL    HW111846   2.624   0.187   7.035
 3824SOL    HW211847   2.542   0.208   7.174
 3825SOL     OW11848   1.937   0.345   5.619
 3825SOL    HW111849   1.845   0.317   5.590
 3825SOL    HW211850   1.968   0.422   5.563
 3826SOL     OW11851   3.302   0.856   6.984
 3826SOL    HW111852   3.245   0.908   6.921
 3826SOL    HW211853   3.398   0.868   6.960
 3827SOL     OW11854   1.934   0.166   5.904
 3827SOL    HW111855   1.917   0.249   5.850
 3827SOL    HW211856   2.024   0.129   5.882
 3828SOL     OW11857   3.045   1.335   5.705
 3828SOL    HW111858   2.946   1.324   5.707
 3828SOL    HW211859   3.079   1.350   5.798
 3829SOL     OW11860   2.475   0.842   7.017
 3829SOL    HW111861   2.531   0.923   7.000
 3829SOL    HW211862   2.534   0.762   7.020
 3830SOL     OW11863   3.355   1.767   6.545
 3830SOL    HW111864   3.388   1.831   6.476
 3830SOL    HW211865   3.421   1.761   6.620
 3831SOL     OW11866   2.578   0.565   7.294
 3831SOL    HW111867   2.597   0.630   7.368
 3831SOL    HW211868   2.638   0.485   7.303
 3832SOL     OW11869   3.312   1.220   7.219
 3832SOL    HW111870   3.303   1.210   7.318
 3832SOL    HW211871   3.408   1.213   7.193
 3833SOL     OW11872   2.252   1.741   7.146
 3833SOL    HW111873   2.161   1.782   7.144
 3833SOL    HW211874   2.245   1.647   7.178
 3834SOL     OW11875   3.536   0.883   6.840
 3834SOL    HW111876   3.509   0.794   6.803
 3834SOL    HW211877   3.537   0.951   6.767
 3835SOL     OW11878   3.087   0.325   6.035
 3835SOL    HW111879   3.152   0.251   6.024
 3835SOL    HW211880   3.107   0.375   6.119
 3836SOL     OW11881   2.456   0.745   6.238
 3836SOL    HW111882   2.506   0.830   6.219
 3836SOL    HW211883   2.368   0.747   6.190
 3837SOL     OW11884   3.639   0.342   7.228
 3837SOL    HW111885   3.622   0.373   7.134
 3837SOL    HW211886   3.555   0.305   7.266
 3838SOL     OW11887   3.592   0.934   7.103
 3838SOL    HW111888   3.630   1.025   7.118
 3838SOL    HW211889   3.584   0.917   7.004
 3839SOL     OW11890   2.721   1.374   5.602
 3839SOL    HW111891   2.675   1.389   5.690
 3839SOL    HW211892   2.765   1.459   5.572
 3840SOL     OW11893   2.523   1.790   6.539
 3840SOL    HW111894   2.477   1.878   6.526
 3840SOL    HW211895   2.622   1.802   6.532
 3841SOL     OW11896   2.721   0.956   6.447
 3841SOL    HW111897   2.775   0.887   6.495
 3841SOL    HW211898   2.689   1.025   6.513
 3842SOL     OW11899   2.945   0.984   5.673
 3842SOL    HW111900   2.922   1.037   5.591
 3842SOL    HW211901   3.026   0.928   5.654
 3843SOL     OW11902   3.723   1.569   6.437
 3843SOL    HW111903   3.652   1.557   6.367
 3843SOL    HW211904   3.724   1.490   6.497
 3844SOL     OW11905   2.083   1.314   7.430
 3844SOL    HW111906   2.018   1.241   7.409
 3844SOL    HW211907   2.087   1.328   7.528
 3845SOL     OW11908   1.941   1.240   6.239
 3845SOL    HW111909   1.940   1.193   6.327
 3845SOL    HW211910   2.023   1.212   6.188
 3846SOL     OW11911   2.534   1.391   7.210
 3846SOL    HW111912   2.456   1.341   7.248
 3846SOL    HW211913   2.531   1.486   7.241
 3847SOL     OW11914   3.686   0.192   6.813
 3847SOL    HW111915   3.682   0.102   6.857
 3847SOL    HW211916   3.689   0.181   6.714
 3848SOL     OW11917   2.290   0.424   6.106
 3848SOL    HW111918   2.320   0.352   6.044
 3848SOL    HW211919   2.251   0.384   6.189
 3849SOL     OW11920   3.567   1.487   6.690
 3849SOL    HW111921   3.474   1.462   6.663
 3849SOL    HW211922   3.593   1.437   6.772
 3850SOL     OW11923   2.179   0.547   6.866
 3850SOL    HW111924   2.217   0.488   6.938
 3850SOL    HW211925   2.219   0.521   6.778
 3851SOL     OW11926   2.674   1.586   6.273
 3851SOL    HW111927   2.706   1.596   6.179
 3851SOL    HW211928   2.595   1.524   6.275
 3852SOL     OW11929   3.286   0.214   6.698
 3852SOL    HW111930   3.338   0.149   6.753
 3852SOL    HW211931   3.237   0.277   6.759
 3853SOL     OW11932   2.863   0.034   6.740
 3853SOL    HW111933   2.800  -0.038   6.709
 3853SOL    HW211934   2.956  -0.002   6.740
 3854SOL     OW11935   2.632   1.330   5.887
 3854SOL    HW111936   2.586   1.243   5.904
 3854SOL    HW211937   2.723   1.327   5.928
 3855SOL     OW11938   2.480   1.567   6.870
 3855SOL    HW111939   2.475   1.649   6.927
 3855SOL    HW211940   2.569   1.564   6.825
 3856SOL     OW11941   3.214   0.052   5.754
 3856SOL    HW111942   3.249   0.011   5.670
 3856SOL    HW211943   3.124   0.014   5.774
 3857SOL     OW11944   3.162   0.453   6.277
 3857SOL    HW111945   3.103   0.533   6.281
 3857SOL    HW211946   3.177   0.418   6.370
 3858SOL     OW11947   3.455   0.221   6.468
 3858SOL    HW111948   3.371   0.220   6.522
 3858SOL    HW211949   3.457   0.304   6.412
 3859SOL     OW11950   1.901   1.077   5.886
 3859SOL    HW111951   2.000   1.066   5.877
 3859SOL    HW211952   1.861   0.991   5.918
 3860SOL     OW11953   2.092   0.628   7.561
 3860SOL    HW111954   1.999   0.626   7.598
 3860SOL    HW211955   2.093   0.589   7.469
 3861SOL     OW11956   2.087   0.275   8.444
 3861SOL    HW111957   2.122   0.258   8.536
 3861SOL    HW211958   1.999   0.230   8.432
 3862SOL     OW11959   1.881   0.368   8.095
 3862SOL    HW111960   1.799   0.411   8.134
 3862SOL    HW211961   1.853   0.295   8.032
 3863SOL     OW11962   2.431   1.275   8.613
 3863SOL    HW111963   2.338   1.268   8.576
 3863SOL    HW211964   2.442   1.364   8.657
 3864SOL     OW11965   3.417   1.511   8.151
 3864SOL    HW111966   3.360   1.495   8.232
 3864SOL    HW211967   3.358   1.521   8.071
 3865SOL     OW11968   2.997   0.703   8.165
 3865SOL    HW111969   3.054   0.781   8.140
 3865SOL    HW211970   2.937   0.729   8.241
 3866SOL     OW11971   3.617   0.607   7.679
 3866SOL    HW111972   3.605   0.594   7.580
 3866SOL    HW211973   3.587   0.526   7.728
 3867SOL     OW11974   2.630   1.144   8.471
 3867SOL    HW111975   2.552   1.161   8.531
 3867SOL    HW211976   2.664   1.231   8.435
 3868SOL     OW11977   2.712   0.798   9.271
 3868SOL    HW111978   2.708   0.874   9.336
 3868SOL    HW211979   2.734   0.834   9.180
 3869SOL     OW11980   2.547   1.012   8.113
 3869SOL    HW111981   2.616   0.996   8.183
 3869SOL    HW211982   2.474   1.069   8.151
 3870SOL     OW11983   2.548   1.161   9.251
 3870SOL    HW111984   2.608   1.240   9.265
 3870SOL    HW211985   2.462   1.192   9.210
 3871SOL     OW11986   2.197   1.435   8.509
 3871SOL    HW111987   2.119   1.404   8.456
 3871SOL    HW211988   2.255   1.493   8.452
 3872SOL     OW11989   3.322   1.505   8.787
 3872SOL    HW111990   3.346   1.599   8.813
 3872SOL    HW211991   3.306   1.451   8.869
 3873SOL     OW11992   2.300   0.392   8.947
 3873SOL    HW111993   2.382   0.336   8.956
 3873SOL    HW211994   2.219   0.334   8.951
 3874SOL     OW11995   3.465   0.447   8.185
 3874SOL    HW111996   3.391   0.493   8.135
 3874SOL    HW211997   3.516   0.515   8.238
 3875SOL     OW11998   2.093   1.713   7.931
 3875SOL    HW111999   2.127   1.790   7.985
 3875SOL    HW212000   2.137   1.713   7.841
 3876SOL     OW12001   2.989   1.341   9.138
 3876SOL    HW112002   3.036   1.341   9.226
 3876SOL    HW212003   2.941   1.254   9.127
 3877SOL     OW12004   2.092   1.434   7.986
 3877SOL    HW112005   2.066   1.530   7.986
 3877SOL    HW212006   2.021   1.380   8.031
 3878SOL     OW12007   2.102   1.091   8.334
 3878SOL    HW112008   2.116   1.007   8.386
 3878SOL    HW212009   2.047   1.155   8.389
 3879SOL     OW12010   2.482   1.786   8.887
 3879SOL    HW112011   2.390   1.769   8.922
 3879SOL    HW212012   2.510   1.878   8.913
 3880SOL     OW12013   2.468   0.964   7.571
 3880SOL    HW112014   2.475   1.048   7.517
 3880SOL    HW212015   2.514   0.977   7.659
 3881SOL     OW12016   3.456   0.114   8.928
 3881SOL    HW112017   3.438   0.181   8.856
 3881SOL    HW212018   3.453   0.160   9.017
 3882SOL     OW12019   1.984   0.643   8.011
 3882SOL    HW112020   1.939   0.555   8.028
 3882SOL    HW212021   1.983   0.697   8.095
 3883SOL     OW12022   3.704   1.767   7.807
 3883SOL    HW112023   3.758   1.738   7.887
 3883SOL    HW212024   3.734   1.857   7.778
 3884SOL     OW12025   1.889   1.596   7.565
 3884SOL    HW112026   1.870   1.500   7.586
 3884SOL    HW212027   1.856   1.654   7.640
 3885SOL     OW12028   3.551   0.922   8.060
 3885SOL    HW112029   3.646   0.893   8.068
 3885SOL    HW212030   3.543   0.987   7.985
 3886SOL     OW12031   3.503   1.108   7.880
 3886SOL    HW112032   3.589   1.110   7.828
 3886SOL    HW212033   3.517   1.155   7.968
 3887SOL     OW12034   1.975   0.737   9.045
 3887SOL    HW112035   2.063   0.724   9.090
 3887SOL    HW212036   1.962   0.834   9.023
 3888SOL     OW12037   2.475   1.365   8.174
 3888SOL    HW112038   2.426   1.278   8.183
 3888SOL    HW212039   2.452   1.408   8.087
 3889SOL     OW12040   3.155   1.228   8.871
 3889SOL    HW112041   3.192   1.155   8.813
 3889SOL    HW212042   3.207   1.233   8.956
 3890SOL     OW12043   2.671   0.004   7.950
 3890SOL    HW112044   2.711   0.095   7.941
 3890SOL    HW212045   2.571   0.012   7.956
 3891SOL     OW12046   2.059   0.976   8.712
 3891SOL    HW112047   2.148   0.931   8.698
 3891SOL    HW212048   1.986   0.911   8.693
 3892SOL     OW12049   3.387   0.999   7.638
 3892SOL    HW112050   3.324   0.923   7.651
 3892SOL    HW212051   3.435   1.017   7.724
 3893SOL     OW12052   3.049   1.792   9.064
 3893SOL    HW112053   3.073   1.852   8.988
 3893SOL    HW212054   3.056   1.697   9.034
 3894SOL     OW12055   2.179   0.251   9.249
 3894SOL    HW112056   2.250   0.322   9.255
 3894SOL    HW212057   2.091   0.290   9.277
 3895SOL     OW12058   3.328   1.417   8.401
 3895SOL    HW112059   3.269   1.423   8.481
 3895SOL    HW212060   3.313   1.329   8.355
 3896SOL     OW12061   3.529   1.714   8.020
 3896SOL    HW112062   3.488   1.691   7.932
 3896SOL    HW212063   3.511   1.640   8.085
 3897SOL     OW12064   2.460   0.729   7.718
 3897SOL    HW112065   2.484   0.798   7.650
 3897SOL    HW212066   2.382   0.762   7.772
 3898SOL     OW12067   3.143   0.345   8.392
 3898SOL    HW112068   3.057   0.295   8.379
 3898SOL    HW212069   3.205   0.291   8.448
 3899SOL     OW12070   3.438   1.662   7.755
 3899SOL    HW112071   3.527   1.708   7.758
 3899SOL    HW212072   3.417   1.638   7.660
 3900SOL     OW12073   2.669   0.605   8.913
 3900SOL    HW112074   2.622   0.602   9.002
 3900SOL    HW212075   2.618   0.550   8.847
 3901SOL     OW12076   3.256   0.469   9.122
 3901SOL    HW112077   3.236   0.512   9.210
 3901SOL    HW212078   3.334   0.407   9.131
 3902SOL     OW12079   2.835   0.890   9.020
 3902SOL    HW112080   2.881   0.806   8.991
 3902SOL    HW212081   2.779   0.924   8.945
 3903SOL     OW12082   2.853   0.410   8.690
 3903SOL    HW112083   2.776   0.444   8.744
 3903SOL    HW212084   2.819   0.359   8.611
 3904SOL     OW12085   2.903   0.701   7.877
 3904SOL    HW112086   2.929   0.697   7.973
 3904SOL    HW212087   2.818   0.650   7.863
 3905SOL     OW12088   1.938   0.811   8.237
 3905SOL    HW112089   2.037   0.799   8.246
 3905SOL    HW212090   1.914   0.906   8.258
 3906SOL     OW12091   1.992   1.821   9.019
 3906SOL    HW112092   1.982   1.806   9.118
 3906SOL    HW212093   1.906   1.857   8.983
 3907SOL     OW12094   2.727   0.348   7.643
 3907SOL    HW112095   2.786   0.411   7.594
 3907SOL    HW212096   2.746   0.254   7.614
 3908SOL     OW12097   3.581   0.585   9.279
 3908SOL    HW112098   3.555   0.674   9.243
 3908SOL    HW212099   3.579   0.517   9.206
 3909SOL     OW12100   3.224   1.144   7.993
 3909SOL    HW112101   3.307   1.115   7.945
 3909SOL    HW212102   3.175   1.211   7.937
 3910SOL     OW12103   2.412   0.196   8.333
 3910SOL    HW112104   2.407   0.191   8.433
 3910SOL    HW212105   2.414   0.292   8.304
 3911SOL     OW12106   2.870   1.456   7.925
 3911SOL    HW112107   2.824   1.528   7.873
 3911SOL    HW212108   2.866   1.476   8.023
 3912SOL     OW12109   2.213   1.801   8.301
 3912SOL    HW112110   2.263   1.715   8.307
 3912SOL    HW212111   2.278   1.878   8.298
 3913SOL     OW12112   3.657   1.066   8.321
 3913SOL    HW112113   3.595   1.051   8.245
 3913SOL    HW212114   3.605   1.077   8.406
 3914SOL     OW12115   3.089   1.550   8.954
 3914SOL    HW112116   3.095   1.473   9.018
 3914SOL    HW212117   3.037   1.524   8.874
 3915SOL     OW12118   2.183   0.943   7.690
 3915SOL    HW112119   2.265   0.982   7.648
 3915SOL    HW212120   2.156   0.861   7.641
 3916SOL     OW12121   3.320   0.735   8.176
 3916SOL    HW112122   3.315   0.670   8.251
 3916SOL    HW212123   3.400   0.794   8.189
 3917SOL     OW12124   2.323   1.266   9.175
 3917SOL    HW112125   2.273   1.267   9.089
 3917SOL    HW212126   2.260   1.248   9.251
 3918SOL     OW12127   2.973   1.776   7.685
 3918SOL    HW112128   2.913   1.714   7.735
 3918SOL    HW212129   3.004   1.732   7.600
 3919SOL     OW12130   2.064   0.285   8.946
 3919SOL    HW112131   1.984   0.345   8.933
 3919SOL    HW212132   2.054   0.236   9.032
 3920SOL     OW12133   3.494   1.377   7.529
 3920SOL    HW112134   3.462   1.471   7.519
 3920SOL    HW212135   3.418   1.314   7.517
 3921SOL     OW12136   2.326   1.743   7.771
 3921SOL    HW112137   2.359   1.782   7.857
 3921SOL    HW212138   2.402   1.736   7.706
 3922SOL     OW12139   3.262   0.107   7.874
 3922SOL    HW112140   3.238   0.070   7.784
 3922SOL    HW212141   3.361   0.123   7.878
 3923SOL     OW12142   2.111   1.785   8.689
 3923SOL    HW112143   2.168   1.720   8.739
 3923SOL    HW212144   2.095   1.752   8.596
 3924SOL     OW12145   2.802   1.698   8.352
 3924SOL    HW112146   2.882   1.641   8.373
 3924SOL    HW212147   2.753   1.658   8.275
 3925SOL     OW12148   2.244   0.700   7.928
 3925SOL    HW112149   2.289   0.610   7.925
 3925SOL    HW212150   2.150   0.689   7.961
 3926SOL     OW12151   3.409   0.222   9.177
 3926SOL    HW112152   3.404   0.259   9.269
 3926SOL    HW212153   3.337   0.153   9.165
 3927SOL     OW12154   2.476   0.122   7.565
 3927SOL    HW112155   2.574   0.100   7.572
 3927SOL    HW212156   2.445   0.105   7.472
 3928SOL     OW12157   2.643   0.264   9.197
 3928SOL    HW112158   2.710   0.203   9.240
 3928SOL    HW212159   2.570   0.283   9.262
 3929SOL     OW12160   2.750   1.514   8.643
 3929SOL    HW112161   2.727   1.489   8.549
 3929SOL    HW212162   2.811   1.445   8.682
 3930SOL     OW12163   3.213   0.590   8.881
 3930SOL    HW112164   3.241   0.547   8.966
 3930SOL    HW212165   3.238   0.686   8.882
 3931SOL     OW12166   2.665   1.402   8.372
 3931SOL    HW112167   2.755   1.416   8.330
 3931SOL    HW212168   2.594   1.404   8.301
 3932SOL     OW12169   2.784   0.503   8.347
 3932SOL    HW112170   2.759   0.494   8.251
 3932SOL    HW212171   2.832   0.421   8.378
 3933SOL     OW12172   2.401   0.064   7.960
 3933SOL    HW112173   2.320   0.065   8.018
 3933SOL    HW212174   2.404   0.147   7.905
 3934SOL     OW12175   3.296   1.188   7.489
 3934SOL    HW112176   3.328   1.112   7.546
 3934SOL    HW212177   3.204   1.215   7.519
 3935SOL     OW12178   2.159   0.035   7.619
 3935SOL    HW112179   2.208   0.119   7.598
 3935SOL    HW212180   2.221  -0.030   7.664
 3936SOL     OW12181   2.797   0.236   7.928
 3936SOL    HW112182   2.749   0.277   7.850
 3936SOL    HW212183   2.896   0.234   7.909
 3937SOL     OW12184   2.938   0.683   8.912
 3937SOL    HW112185   2.858   0.622   8.915
 3937SOL    HW212186   3.019   0.630   8.888
 3938SOL     OW12187   3.089   1.570   8.241
 3938SOL    HW112188   3.110   1.644   8.176
 3938SOL    HW212189   3.157   1.570   8.314
 3939SOL     OW12190   2.321   1.152   8.189
 3939SOL    HW112191   2.250   1.125   8.254
 3939SOL    HW212192   2.295   1.124   8.096
 3940SOL     OW12193   3.133   1.797   8.039
 3940SOL    HW112194   3.177   1.861   7.975
 3940SOL    HW212195   3.083   1.849   8.109
 3941SOL     OW12196   2.894   0.549   7.464
 3941SOL    HW112197   2.853   0.631   7.425
 3941SOL    HW212198   2.958   0.575   7.537
 3942SOL     OW12199   1.940   0.556   8.834
 3942SOL    HW112200   2.032   0.555   8.793
 3942SOL    HW212201   1.934   0.630   8.901
 3943SOL     OW12202   2.423   0.222   8.595
 3943SOL    HW112203   2.461   0.138   8.632
 3943SOL    HW212204   2.335   0.241   8.639
 3944SOL     OW12205   2.728   0.454   8.090
 3944SOL    HW112206   2.696   0.526   8.028
 3944SOL    HW212207   2.752   0.373   8.037
 3945SOL     OW12208   2.879   0.039   8.201
 3945SOL    HW112209   2.807   0.044   8.132
 3945SOL    HW212210   2.855  -0.030   8.270
 3946SOL     OW12211   3.291   1.173   8.315
 3946SOL    HW112212   3.236   1.089   8.308
 3946SOL    HW212213   3.317   1.202   8.223
 3947SOL     OW12214   3.328   0.590   8.440
 3947SOL    HW112215   3.298   0.495   8.447
 3947SOL    HW212216   3.401   0.606   8.506
 3948SOL     OW12217   3.719   0.833   7.825
 3948SOL    HW112218   3.761   0.769   7.889
 3948SOL    HW212219   3.681   0.782   7.747
 3949SOL     OW12220   2.350   1.385   7.622
 3949SOL    HW112221   2.263   1.370   7.669
 3949SOL    HW212222   2.333   1.411   7.527
 3950SOL     OW12223   3.526   1.280   8.105
 3950SOL    HW112224   3.625   1.288   8.119
 3950SOL    HW212225   3.481   1.364   8.136
 3951SOL     OW12226   3.252   0.575   7.526
 3951SOL    HW112227   3.198   0.554   7.607
 3951SOL    HW212228   3.343   0.534   7.535
 3952SOL     OW12229   2.389   0.256   7.776
 3952SOL    HW112230   2.416   0.197   7.701
 3952SOL    HW212231   2.389   0.351   7.745
 3953SOL     OW12232   3.616   1.223   9.036
 3953SOL    HW112233   3.707   1.184   9.023
 3953SOL    HW212234   3.624   1.319   9.060
 3954SOL     OW12235   2.926   1.347   8.788
 3954SOL    HW112236   2.846   1.324   8.843
 3954SOL    HW212237   3.009   1.321   8.837
 3955SOL     OW12238   3.454   1.629   9.073
 3955SOL    HW112239   3.481   1.663   8.983
 3955SOL    HW212240   3.533   1.591   9.119
 3956SOL     OW12241   2.973   1.195   8.548
 3956SOL    HW112242   2.933   1.239   8.629
 3956SOL    HW212243   2.932   1.232   8.465
 3957SOL     OW12244   3.500   1.099   8.527
 3957SOL    HW112245   3.505   1.180   8.586
 3957SOL    HW212246   3.414   1.101   8.476
 3958SOL     OW12247   2.777   0.089   8.850
 3958SOL    HW112248   2.802   0.069   8.755
 3958SOL    HW212249   2.849   0.145   8.892
 3959SOL     OW12250   2.842   1.116   9.167
 3959SOL    HW112251   2.743   1.122   9.177
 3959SOL    HW212252   2.865   1.036   9.111
 3960SOL     OW12253   2.567   1.050   7.816
 3960SOL    HW112254   2.553   1.057   7.915
 3960SOL    HW212255   2.651   0.999   7.798
 3961SOL     OW12256   2.272   0.813   8.699
 3961SOL    HW112257   2.358   0.825   8.749
 3961SOL    HW212258   2.230   0.726   8.726
 3962SOL     OW12259   3.136   0.386   8.710
 3962SOL    HW112260   3.157   0.460   8.774
 3962SOL    HW212261   3.047   0.403   8.667
 3963SOL     OW12262   1.926   1.564   8.779
 3963SOL    HW112263   1.880   1.646   8.745
 3963SOL    HW212264   2.024   1.583   8.788
 3964SOL     OW12265   2.229   1.100   7.949
 3964SOL    HW112266   2.222   1.183   7.893
 3964SOL    HW212267   2.233   1.020   7.889
 3965SOL     OW12268   2.428   0.537   8.313
 3965SOL    HW112269   2.440   0.603   8.239
 3965SOL    HW212270   2.474   0.571   8.396
 3966SOL     OW12271   3.114   1.348   7.836
 3966SOL    HW112272   3.164   1.425   7.876
 3966SOL    HW212273   3.019   1.350   7.868
 3967SOL     OW12274   3.134   1.445   8.590
 3967SOL    HW112275   3.181   1.458   8.677
 3967SOL    HW212276   3.068   1.371   8.599
 3968SOL     OW12277   3.444   0.639   7.920
 3968SOL    HW112278   3.413   0.700   7.993
 3968SOL    HW212279   3.494   0.691   7.851
 3969SOL     OW12280   2.216   1.510   8.777
 3969SOL    HW112281   2.195   1.466   8.690
 3969SOL    HW212282   2.313   1.536   8.780
 3970SOL     OW12283   2.264   0.751   9.046
 3970SOL    HW112284   2.332   0.806   8.999
 3970SOL    HW212285   2.304   0.663   9.073
 3971SOL     OW12286   3.449   0.779   9.118
 3971SOL    HW112287   3.357   0.817   9.113
 3971SOL    HW212288   3.509   0.826   9.053
 3972SOL     OW12289   2.875   0.105   9.218
 3972SOL    HW112290   2.881   0.190   9.166
 3972SOL    HW212291   2.907   0.029   9.161
 3973SOL     OW12292   2.366   0.050   9.188
 3973SOL    HW112293   2.324  -0.007   9.118
 3973SOL    HW212294   2.300   0.119   9.220
 3974SOL     OW12295   2.435   0.870   8.477
 3974SOL    HW112296   2.479   0.959   8.468
 3974SOL    HW212297   2.372   0.870   8.554
 3975SOL     OW12298   3.222   0.862   8.493
 3975SOL    HW112299   3.147   0.862   8.427
 3975SOL    HW212300   3.259   0.770   8.502
 3976SOL     OW12301   3.071   0.525   7.723
 3976SOL    HW112302   3.084   0.441   7.777
 3976SOL    HW212303   3.042   0.599   7.783
 3977SOL     OW12304   2.169   0.213   8.679
 3977SOL    HW112305   2.146   0.250   8.769
 3977SOL    HW212306   2.139   0.118   8.673
 3978SOL     OW12307   1.899   1.310   8.730
 3978SOL    HW112308   1.952   1.261   8.798
 3978SOL    HW212309   1.921   1.408   8.735
 3979SOL     OW12310   2.594   0.634   8.512
 3979SOL    HW112311   2.653   0.608   8.436
 3979SOL    HW212312   2.566   0.730   8.501
 3980SOL     OW12313   3.590   0.935   9.302
 3980SOL    HW112314   3.544   0.928   9.213
 3980SOL    HW212315   3.528   0.979   9.368
 3981SOL     OW12316   2.169   0.063   8.066
 3981SOL    HW112317   2.158   0.157   8.099
 3981SOL    HW212318   2.164   0.000   8.143
 3982SOL     OW12319   3.484   0.367   7.822
 3982SOL    HW112320   3.486   0.291   7.886
 3982SOL    HW212321   3.436   0.444   7.862
 3983SOL     OW12322   2.885   0.766   8.414
 3983SOL    HW112323   2.900   0.787   8.510
 3983SOL    HW212324   2.855   0.671   8.405
 3984SOL     OW12325   2.842   1.573   9.148
 3984SOL    HW112326   2.822   1.617   9.060
 3984SOL    HW212327   2.881   1.482   9.132
 3985SOL     OW12328   3.721   1.518   9.053
 3985SOL    HW112329   3.735   1.545   8.958
 3985SOL    HW212330   3.804   1.540   9.106
 3986SOL     OW12331   2.212   0.898   9.252
 3986SOL    HW112332   2.288   0.942   9.300
 3986SOL    HW212333   2.247   0.851   9.170
 3987SOL     OW12334   3.402   0.274   7.573
 3987SOL    HW112335   3.341   0.199   7.596
 3987SOL    HW212336   3.424   0.326   7.656
 3988SOL     OW12337   3.165   0.838   7.490
 3988SOL    HW112338   3.199   0.745   7.505
 3988SOL    HW212339   3.183   0.865   7.395
 3989SOL     OW12340   2.930   1.333   8.297
 3989SOL    HW112341   2.937   1.249   8.242
 3989SOL    HW212342   2.992   1.402   8.261
 3990SOL     OW12343   2.181   0.810   8.397
 3990SOL    HW112344   2.274   0.846   8.402
 3990SOL    HW212345   2.175   0.725   8.449
 3991SOL     OW12346   2.201   0.509   8.454
 3991SOL    HW112347   2.149   0.426   8.437
 3991SOL    HW212348   2.278   0.514   8.390
 3992SOL     OW12349   3.000   0.380   9.126
 3992SOL    HW112350   2.955   0.443   9.190
 3992SOL    HW212351   3.093   0.411   9.109
 3993SOL     OW12352   3.022   0.207   8.925
 3993SOL    HW112353   3.022   0.271   9.002
 3993SOL    HW212354   3.050   0.255   8.842
 3994SOL     OW12355   1.870   1.326   7.648
 3994SOL    HW112356   1.777   1.347   7.617
 3994SOL    HW212357   1.880   1.227   7.661
 3995SOL     OW12358   1.950   1.801   8.375
 3995SOL    HW112359   1.908   1.715   8.348
 3995SOL    HW212360   2.044   1.804   8.341
 3996SOL     OW12361   2.366   1.568   8.358
 3996SOL    HW112362   2.432   1.642   8.367
 3996SOL    HW212363   2.410   1.489   8.316
 3997SOL     OW12364   2.864   0.796   8.686
 3997SOL    HW112365   2.905   0.764   8.772
 3997SOL    HW212366   2.768   0.769   8.683
 3998SOL     OW12367   1.902   0.544   8.562
 3998SOL    HW112368   1.987   0.511   8.521
 3998SOL    HW212369   1.915   0.559   8.660
 3999SOL     OW12370   2.051   0.520   9.170
 3999SOL    HW112371   2.110   0.480   9.100
 3999SOL    HW212372   1.993   0.591   9.129
 4000SOL     OW12373   3.231   0.950   9.108
 4000SOL    HW112374   3.270   1.039   9.128
 4000SOL    HW212375   3.241   0.930   9.011
 4001SOL     OW12376   2.677   0.572   7.773
 4001SOL    HW112377   2.684   0.483   7.727
 4001SOL    HW212378   2.583   0.606   7.765
 4002SOL     OW12379   3.519   0.604   8.654
 4002SOL    HW112380   3.481   0.535   8.716
 4002SOL    HW212381   3.601   0.568   8.610
 4003SOL     OW12382   2.114   1.564   9.192
 4003SOL    HW112383   2.084   1.621   9.268
 4003SOL    HW212384   2.107   1.467   9.218
 4004SOL     OW12385   2.533   0.464   8.717
 4004SOL    HW112386   2.499   0.375   8.687
 4004SOL    HW212387   2.559   0.518   8.637
 4005SOL     OW12388   2.792   1.678   8.913
 4005SOL    HW112389   2.768   1.660   8.818
 4005SOL    HW212390   2.822   1.772   8.923
 4006SOL     OW12391   2.335   0.500   7.639
 4006SOL    HW112392   2.396   0.580   7.643
 4006SOL    HW212393   2.240   0.531   7.646
 4007SOL     OW12394   2.021   1.137   8.914
 4007SOL    HW112395   2.043   1.076   8.990
 4007SOL    HW212396   2.031   1.088   8.828
 4008SOL     OW12397   3.209   1.059   8.682
 4008SOL    HW112398   3.233   0.996   8.608
 4008SOL    HW212399   3.119   1.099   8.664
 4009SOL     OW12400   3.164   0.855   7.757
 4009SOL    HW112401   3.078   0.824   7.799
 4009SOL    HW212402   3.160   0.841   7.658
 4010SOL     OW12403   3.621   1.747   8.602
 4010SOL    HW112404   3.682   1.777   8.529
 4010SOL    HW212405   3.583   1.658   8.580
 4011SOL     OW12406   3.114   1.731   8.576
 4011SOL    HW112407   3.198   1.736   8.522
 4011SOL    HW212408   3.091   1.635   8.594
 4012SOL     OW12409   1.945   1.258   8.470
 4012SOL    HW112410   1.940   1.257   8.570
 4012SOL    HW212411   1.862   1.217   8.432
 4013SOL     OW12412   2.550   1.662   9.164
 4013SOL    HW112413   2.494   1.743   9.173
 4013SOL    HW212414   2.602   1.666   9.078
 4014SOL     OW12415   3.588   0.135   7.971
 4014SOL    HW112416   3.661   0.118   7.904
 4014SOL    HW212417   3.557   0.048   8.009
 4015SOL     OW12418   3.250   1.573   7.925
 4015SOL    HW112419   3.317   1.585   7.851
 4015SOL    HW212420   3.210   1.662   7.948
 4016SOL     OW12421   1.992   1.794   9.299
 4016SOL    HW112422   1.951   1.720   9.352
 4016SOL    HW212423   2.056   1.845   9.357
 4017SOL     OW12424   3.142   0.927   8.120
 4017SOL    HW112425   3.202   0.846   8.122
 4017SOL    HW212426   3.182   0.996   8.060
 4018SOL     OW12427   2.692   1.273   8.870
 4018SOL    HW112428   2.687   1.306   8.965
 4018SOL    HW212429   2.606   1.292   8.824
 4019SOL     OW12430   2.534   1.616   7.602
 4019SOL    HW112431   2.543   1.626   7.503
 4019SOL    HW212432   2.494   1.527   7.623
 4020SOL     OW12433   3.512   1.720   8.842
 4020SOL    HW112434   3.565   1.730   8.758
 4020SOL    HW212435   3.485   1.810   8.876
 4021SOL     OW12436   3.703   0.175   8.411
 4021SOL    HW112437   3.742   0.090   8.375
 4021SOL    HW212438   3.605   0.177   8.392
 4022SOL     OW12439   2.125   0.326   8.168
 4022SOL    HW112440   2.046   0.377   8.134
 4022SOL    HW212441   2.116   0.311   8.266
 4023SOL     OW12442   3.056   1.612   7.479
 4023SOL    HW112443   3.062   1.519   7.516
 4023SOL    HW212444   2.997   1.612   7.399
 4024SOL     OW12445   2.684   1.002   8.820
 4024SOL    HW112446   2.724   1.001   8.728
 4024SOL    HW212447   2.694   1.094   8.860
 4025SOL     OW12448   2.778   0.910   7.739
 4025SOL    HW112449   2.841   0.948   7.671
 4025SOL    HW212450   2.818   0.827   7.778
 4026SOL     OW12451   3.366   1.607   7.492
 4026SOL    HW112452   3.274   1.644   7.499
 4026SOL    HW212453   3.404   1.627   7.402
 4027SOL     OW12454   2.234   1.288   8.938
 4027SOL    HW112455   2.221   1.381   8.904
 4027SOL    HW212456   2.150   1.236   8.925
 4028SOL     OW12457   3.476   1.292   8.737
 4028SOL    HW112458   3.536   1.295   8.817
 4028SOL    HW212459   3.401   1.356   8.750
 4029SOL     OW12460   2.901   1.098   8.144
 4029SOL    HW112461   2.831   1.051   8.198
 4029SOL    HW212462   2.960   1.030   8.101
 4030SOL     OW12463   2.876   0.236   8.419
 4030SOL    HW112464   2.868   0.200   8.326
 4030SOL    HW212465   2.874   0.160   8.484
 4031SOL     OW12466   2.452   1.487   7.939
 4031SOL    HW112467   2.494   1.429   7.869
 4031SOL    HW212468   2.408   1.566   7.895
 4032SOL     OW12469   3.571   0.385   8.829
 4032SOL    HW112470   3.644   0.454   8.833
 4032SOL    HW212471   3.599   0.310   8.770
 4033SOL     OW12472   2.117   1.348   7.738
 4033SOL    HW112473   2.021   1.349   7.711
 4033SOL    HW212474   2.129   1.401   7.822
 4034SOL     OW12475   1.967   1.013   9.174
 4034SOL    HW112476   1.890   0.980   9.228
 4034SOL    HW212477   2.052   0.983   9.216
 4035SOL     OW12478   2.534   0.203   8.937
 4035SOL    HW112479   2.624   0.187   8.897
 4035SOL    HW212480   2.542   0.208   9.036
 4036SOL     OW12481   1.937   0.345   7.481
 4036SOL    HW112482   1.845   0.317   7.452
 4036SOL    HW212483   1.968   0.422   7.425
 4037SOL     OW12484   3.302   0.856   8.846
 4037SOL    HW112485   3.245   0.908   8.783
 4037SOL    HW212486   3.398   0.868   8.822
 4038SOL     OW12487   1.934   0.166   7.766
 4038SOL    HW112488   1.917   0.249   7.712
 4038SOL    HW212489   2.024   0.129   7.744
 4039SOL     OW12490   3.045   1.335   7.567
 4039SOL    HW112491   2.946   1.324   7.569
 4039SOL    HW212492   3.079   1.350   7.660
 4040SOL     OW12493   2.475   0.842   8.879
 4040SOL    HW112494   2.531   0.923   8.862
 4040SOL    HW212495   2.534   0.762   8.882
 4041SOL     OW12496   3.355   1.767   8.407
 4041SOL    HW112497   3.388   1.831   8.338
 4041SOL    HW212498   3.421   1.761   8.482
 4042SOL     OW12499   2.578   0.565   9.156
 4042SOL    HW112500   2.597   0.630   9.230
 4042SOL    HW212501   2.638   0.485   9.165
 4043SOL     OW12502   3.312   1.220   9.081
 4043SOL    HW112503   3.303   1.210   9.180
 4043SOL    HW212504   3.408   1.213   9.055
 4044SOL     OW12505   2.252   1.741   9.008
 4044SOL    HW112506   2.161   1.782   9.006
 4044SOL    HW212507   2.245   1.647   9.040
 4045SOL     OW12508   3.536   0.883   8.702
 4045SOL    HW112509   3.509   0.794   8.665
 4045SOL    HW212510   3.537   0.951   8.629
 4046SOL     OW12511   3.087   0.325   7.897
 4046SOL    HW112512   3.152   0.251   7.886
 4046SOL    HW212513   3.107   0.375   7.981
 4047SOL     OW12514   2.456   0.745   8.100
 4047SOL    HW112515   2.506   0.830   8.081
 4047SOL    HW212516   2.368   0.747   8.052
 4048SOL     OW12517   3.639   0.342   9.090
 4048SOL    HW112518   3.622   0.373   8.996
 4048SOL    HW212519   3.555   0.305   9.128
 4049SOL     OW12520   3.592   0.934   8.965
 4049SOL    HW112521   3.630   1.025   8.980
 4049SOL    HW212522   3.584   0.917   8.866
 4050SOL     OW12523   2.721   1.374   7.464
 4050SOL    HW112524   2.675   1.389   7.552
 4050SOL    HW212525   2.765   1.459   7.434
 4051SOL     OW12526   2.523   1.790   8.401
 4051SOL    HW112527   2.477   1.878   8.388
 4051SOL    HW212528   2.622   1.802   8.394
 4052SOL     OW12529   2.721   0.956   8.309
 4052SOL    HW112530   2.775   0.887   8.357
 4052SOL    HW212531   2.689   1.025   8.375
 4053SOL     OW12532   2.945   0.984   7.535
 4053SOL    HW112533   2.922   1.037   7.453
 4053SOL    HW212534   3.026   0.928   7.516
 4054SOL     OW12535   3.723   1.569   8.299
 4054SOL    HW112536   3.652   1.557   8.229
 4054SOL    HW212537   3.724   1.490   8.359
 4055SOL     OW12538   2.083   1.314   9.292
 4055SOL    HW112539   2.018   1.241   9.271
 4055SOL    HW212540   2.087   1.328   9.390
 4056SOL     OW12541   1.941   1.240   8.101
 4056SOL    HW112542   1.940   1.193   8.189
 4056SOL    HW212543   2.023   1.212   8.050
 4057SOL     OW12544   2.534   1.391   9.072
 4057SOL    HW112545   2.456   1.341   9.110
 4057SOL    HW212546   2.531   1.486   9.103
 4058SOL     OW12547   3.686   0.192   8.675
 4058SOL    HW112548   3.682   0.102   8.719
 4058SOL    HW212549   3.689   0.181   8.576
 4059SOL     OW12550   2.290   0.424   7.968
 4059SOL    HW112551   2.320   0.352   7.906
 4059SOL    HW212552   2.251   0.384   8.051
 4060SOL     OW12553   3.567   1.487   8.552
 4060SOL    HW112554   3.474   1.462   8.525
 4060SOL    HW212555   3.593   1.437   8.634
 4061SOL     OW12556   2.179   0.547   8.728
 4061SOL    HW112557   2.217   0.488   8.800
 4061SOL    HW212558   2.219   0.521   8.640
 4062SOL     OW12559   2.674   1.586   8.135
 4062SOL    HW112560   2.706   1.596   8.041
 4062SOL    HW212561   2.595   1.524   8.137
 4063SOL     OW12562   3.286   0.214   8.560
 4063SOL    HW112563   3.338   0.149   8.615
 4063SOL    HW212564   3.237   0.277   8.621
 4064SOL     OW12565   2.863   0.034   8.602
 4064SOL    HW112566   2.800  -0.038   8.571
 4064SOL    HW212567   2.956  -0.002   8.602
 4065SOL     OW12568   2.632   1.330   7.749
 4065SOL    HW112569   2.586   1.243   7.766
 4065SOL    HW212570   2.723   1.327   7.790
 4066SOL     OW12571   2.480   1.567   8.732
 4066SOL    HW112572   2.475   1.649   8.789
 4066SOL    HW212573   2.569   1.564   8.687
 4067SOL     OW12574   3.214   0.052   7.616
 4067SOL    HW112575   3.249   0.011   7.532
 4067SOL    HW212576   3.124   0.014   7.636
 4068SOL     OW12577   3.162   0.453   8.139
 4068SOL    HW112578   3.103   0.533   8.143
 4068SOL    HW212579   3.177   0.418   8.232
 4069SOL     OW12580   3.455   0.221   8.330
 4069SOL    HW112581   3.371   0.220   8.384
 4069SOL    HW212582   3.457   0.304   8.274
 4070SOL     OW12583   1.901   1.077   7.748
 4070SOL    HW112584   2.000   1.066   7.739
 4070SOL    HW212585   1.861   0.991   7.780
 4071SOL     OW12586   2.737   1.646   7.785
 4071SOL    HW112587   2.660   1.611   7.731
 4071SOL    HW212588   2.705   1.717   7.847
 4072SOL     OW12589   2.092   0.628   9.423
 4072SOL    HW112590   1.999   0.626   9.460
 4072SOL    HW212591   2.093   0.589   9.331
 4073SOL     OW12592   2.087   0.275  10.306
 4073SOL    HW112593   2.122   0.258  10.398
 4073SOL    HW212594   1.999   0.230  10.294
 4074SOL     OW12595   1.881   0.368   9.957
 4074SOL    HW112596   1.799   0.411   9.996
 4074SOL    HW212597   1.853   0.295   9.894
 4075SOL     OW12598   2.431   1.275  10.475
 4075SOL    HW112599   2.338   1.268  10.438
 4075SOL    HW212600   2.442   1.364  10.519
 4076SOL     OW12601   3.417   1.511  10.013
 4076SOL    HW112602   3.360   1.495  10.094
 4076SOL    HW212603   3.358   1.521   9.933
 4077SOL     OW12604   2.997   0.703  10.027
 4077SOL    HW112605   3.054   0.781  10.002
 4077SOL    HW212606   2.937   0.729  10.103
 4078SOL     OW12607   3.617   0.607   9.541
 4078SOL    HW112608   3.605   0.594   9.442
 4078SOL    HW212609   3.587   0.526   9.590
 4079SOL     OW12610   2.630   1.144  10.333
 4079SOL    HW112611   2.552   1.161  10.393
 4079SOL    HW212612   2.664   1.231  10.297
 4080SOL     OW12613   2.712   0.798  11.133
 4080SOL    HW112614   2.708   0.874  11.198
 4080SOL    HW212615   2.734   0.834  11.042
 4081SOL     OW12616   2.547   1.012   9.975
 4081SOL    HW112617   2.616   0.996  10.045
 4081SOL    HW212618   2.474   1.069  10.013
 4082SOL     OW12619   2.197   1.435  10.371
 4082SOL    HW112620   2.119   1.404  10.318
 4082SOL    HW212621   2.255   1.493  10.314
 4083SOL     OW12622   3.322   1.505  10.649
 4083SOL    HW112623   3.346   1.599  10.675
 4083SOL    HW212624   3.306   1.451  10.731
 4084SOL     OW12625   2.300   0.392  10.809
 4084SOL    HW112626   2.382   0.336  10.818
 4084SOL    HW212627   2.219   0.334  10.813
 4085SOL     OW12628   3.465   0.447  10.047
 4085SOL    HW112629   3.391   0.493   9.997
 4085SOL    HW212630   3.516   0.515  10.100
 4086SOL     OW12631   2.093   1.713   9.793
 4086SOL    HW112632   2.127   1.790   9.847
 4086SOL    HW212633   2.137   1.713   9.703
 4087SOL     OW12634   2.092   1.434   9.848
 4087SOL    HW112635   2.066   1.530   9.848
 4087SOL    HW212636   2.021   1.380   9.893
 4088SOL     OW12637   2.102   1.091  10.196
 4088SOL    HW112638   2.116   1.007  10.248
 4088SOL    HW212639   2.047   1.155  10.251
 4089SOL     OW12640   2.482   1.786  10.749
 4089SOL    HW112641   2.390   1.769  10.784
 4089SOL    HW212642   2.510   1.878  10.775
 4090SOL     OW12643   2.468   0.964   9.433
 4090SOL    HW112644   2.475   1.048   9.379
 4090SOL    HW212645   2.514   0.977   9.521
 4091SOL     OW12646   3.456   0.114  10.790
 4091SOL    HW112647   3.438   0.181  10.718
 4091SOL    HW212648   3.453   0.160  10.879
 4092SOL     OW12649   1.984   0.643   9.873
 4092SOL    HW112650   1.939   0.555   9.890
 4092SOL    HW212651   1.983   0.697   9.957
 4093SOL     OW12652   3.704   1.767   9.669
 4093SOL    HW112653   3.758   1.738   9.749
 4093SOL    HW212654   3.734   1.857   9.640
 4094SOL     OW12655   1.889   1.596   9.427
 4094SOL    HW112656   1.870   1.500   9.448
 4094SOL    HW212657   1.856   1.654   9.502
 4095SOL     OW12658   3.551   0.922   9.922
 4095SOL    HW112659   3.646   0.893   9.930
 4095SOL    HW212660   3.543   0.987   9.847
 4096SOL     OW12661   3.503   1.108   9.742
 4096SOL    HW112662   3.589   1.110   9.690
 4096SOL    HW212663   3.517   1.155   9.830
 4097SOL     OW12664   1.975   0.737  10.907
 4097SOL    HW112665   2.063   0.724  10.952
 4097SOL    HW212666   1.962   0.834  10.885
 4098SOL     OW12667   2.475   1.365  10.036
 4098SOL    HW112668   2.426   1.278  10.045
 4098SOL    HW212669   2.452   1.408   9.949
 4099SOL     OW12670   3.155   1.228  10.733
 4099SOL    HW112671   3.192   1.155  10.675
 4099SOL    HW212672   3.207   1.233  10.818
 4100SOL     OW12673   2.671   0.004   9.812
 4100SOL    HW112674   2.711   0.095   9.803
 4100SOL    HW212675   2.571   0.012   9.818
 4101SOL     OW12676   2.059   0.976  10.574
 4101SOL    HW112677   2.148   0.931  10.560
 4101SOL    HW212678   1.986   0.911  10.555
 4102SOL     OW12679   3.387   0.999   9.500
 4102SOL    HW112680   3.324   0.923   9.513
 4102SOL    HW212681   3.435   1.017   9.586
 4103SOL     OW12682   3.049   1.792  10.926
 4103SOL    HW112683   3.073   1.852  10.850
 4103SOL    HW212684   3.056   1.697  10.896
 4104SOL     OW12685   2.179   0.251  11.111
 4104SOL    HW112686   2.250   0.322  11.117
 4104SOL    HW212687   2.091   0.290  11.139
 4105SOL     OW12688   3.328   1.417  10.263
 4105SOL    HW112689   3.269   1.423  10.343
 4105SOL    HW212690   3.313   1.329  10.217
 4106SOL     OW12691   3.529   1.714   9.882
 4106SOL    HW112692   3.488   1.691   9.794
 4106SOL    HW212693   3.511   1.640   9.947
 4107SOL     OW12694   2.460   0.729   9.580
 4107SOL    HW112695   2.484   0.798   9.512
 4107SOL    HW212696   2.382   0.762   9.634
 4108SOL     OW12697   3.143   0.345  10.254
 4108SOL    HW112698   3.057   0.295  10.241
 4108SOL    HW212699   3.205   0.291  10.310
 4109SOL     OW12700   3.438   1.662   9.617
 4109SOL    HW112701   3.527   1.708   9.620
 4109SOL    HW212702   3.417   1.638   9.522
 4110SOL     OW12703   2.669   0.605  10.775
 4110SOL    HW112704   2.622   0.602  10.864
 4110SOL    HW212705   2.618   0.550  10.709
 4111SOL     OW12706   2.835   0.890  10.882
 4111SOL    HW112707   2.881   0.806  10.853
 4111SOL    HW212708   2.779   0.924  10.807
 4112SOL     OW12709   2.853   0.410  10.552
 4112SOL    HW112710   2.776   0.444  10.606
 4112SOL    HW212711   2.819   0.359  10.473
 4113SOL     OW12712   2.903   0.701   9.739
 4113SOL    HW112713   2.929   0.697   9.835
 4113SOL    HW212714   2.818   0.650   9.725
 4114SOL     OW12715   1.938   0.811  10.099
 4114SOL    HW112716   2.037   0.799  10.108
 4114SOL    HW212717   1.914   0.906  10.120
 4115SOL     OW12718   1.992   1.821  10.881
 4115SOL    HW112719   1.982   1.806  10.980
 4115SOL    HW212720   1.906   1.857  10.845
 4116SOL     OW12721   2.727   0.348   9.505
 4116SOL    HW112722   2.786   0.411   9.456
 4116SOL    HW212723   2.746   0.254   9.476
 4117SOL     OW12724   3.224   1.144   9.855
 4117SOL    HW112725   3.307   1.115   9.807
 4117SOL    HW212726   3.175   1.211   9.799
 4118SOL     OW12727   2.412   0.196  10.195
 4118SOL    HW112728   2.407   0.191  10.295
 4118SOL    HW212729   2.414   0.292  10.166
 4119SOL     OW12730   2.870   1.456   9.787
 4119SOL    HW112731   2.824   1.528   9.735
 4119SOL    HW212732   2.866   1.476   9.885
 4120SOL     OW12733   2.213   1.801  10.163
 4120SOL    HW112734   2.263   1.715  10.169
 4120SOL    HW212735   2.278   1.878  10.160
 4121SOL     OW12736   3.657   1.066  10.183
 4121SOL    HW112737   3.595   1.051  10.107
 4121SOL    HW212738   3.605   1.077  10.268
 4122SOL     OW12739   3.089   1.550  10.816
 4122SOL    HW112740   3.095   1.473  10.880
 4122SOL    HW212741   3.037   1.524  10.736
 4123SOL     OW12742   2.183   0.943   9.552
 4123SOL    HW112743   2.265   0.982   9.510
 4123SOL    HW212744   2.156   0.861   9.503
 4124SOL     OW12745   3.320   0.735  10.038
 4124SOL    HW112746   3.315   0.670  10.113
 4124SOL    HW212747   3.400   0.794  10.051
 4125SOL     OW12748   2.323   1.266  11.037
 4125SOL    HW112749   2.273   1.267  10.951
 4125SOL    HW212750   2.260   1.248  11.113
 4126SOL     OW12751   2.973   1.776   9.547
 4126SOL    HW112752   2.913   1.714   9.597
 4126SOL    HW212753   3.004   1.732   9.462
 4127SOL     OW12754   2.064   0.285  10.808
 4127SOL    HW112755   1.984   0.345  10.795
 4127SOL    HW212756   2.054   0.236  10.894
 4128SOL     OW12757   3.494   1.377   9.391
 4128SOL    HW112758   3.462   1.471   9.381
 4128SOL    HW212759   3.418   1.314   9.379
 4129SOL     OW12760   2.326   1.743   9.633
 4129SOL    HW112761   2.359   1.782   9.719
 4129SOL    HW212762   2.402   1.736   9.568
 4130SOL     OW12763   3.262   0.107   9.736
 4130SOL    HW112764   3.238   0.070   9.646
 4130SOL    HW212765   3.361   0.123   9.740
 4131SOL     OW12766   2.111   1.785  10.551
 4131SOL    HW112767   2.168   1.720  10.601
 4131SOL    HW212768   2.095   1.752  10.458
 4132SOL     OW12769   2.802   1.698  10.214
 4132SOL    HW112770   2.882   1.641  10.235
 4132SOL    HW212771   2.753   1.658  10.137
 4133SOL     OW12772   2.244   0.700   9.790
 4133SOL    HW112773   2.289   0.610   9.787
 4133SOL    HW212774   2.150   0.689   9.823
 4134SOL     OW12775   2.476   0.122   9.427
 4134SOL    HW112776   2.574   0.100   9.434
 4134SOL    HW212777   2.445   0.105   9.334
 4135SOL     OW12778   2.643   0.264  11.059
 4135SOL    HW112779   2.710   0.203  11.102
 4135SOL    HW212780   2.570   0.283  11.124
 4136SOL     OW12781   2.750   1.514  10.505
 4136SOL    HW112782   2.727   1.489  10.411
 4136SOL    HW212783   2.811   1.445  10.544
 4137SOL     OW12784   3.213   0.590  10.743
 4137SOL    HW112785   3.241   0.547  10.828
 4137SOL    HW212786   3.238   0.686  10.744
 4138SOL     OW12787   2.665   1.402  10.234
 4138SOL    HW112788   2.755   1.416  10.192
 4138SOL    HW212789   2.594   1.404  10.163
 4139SOL     OW12790   2.784   0.503  10.209
 4139SOL    HW112791   2.759   0.494  10.113
 4139SOL    HW212792   2.832   0.421  10.240
 4140SOL     OW12793   2.401   0.064   9.822
 4140SOL    HW112794   2.320   0.065   9.880
 4140SOL    HW212795   2.404   0.147   9.767
 4141SOL     OW12796   3.296   1.188   9.351
 4141SOL    HW112797   3.328   1.112   9.408
 4141SOL    HW212798   3.204   1.215   9.381
 4142SOL     OW12799   2.159   0.035   9.481
 4142SOL    HW112800   2.208   0.119   9.460
 4142SOL    HW212801   2.221  -0.030   9.526
 4143SOL     OW12802   2.797   0.236   9.790
 4143SOL    HW112803   2.749   0.277   9.712
 4143SOL    HW212804   2.896   0.234   9.771
 4144SOL     OW12805   2.938   0.683  10.774
 4144SOL    HW112806   2.858   0.622  10.777
 4144SOL    HW212807   3.019   0.630  10.750
 4145SOL     OW12808   3.089   1.570  10.103
 4145SOL    HW112809   3.110   1.644  10.038
 4145SOL    HW212810   3.157   1.570  10.176
 4146SOL     OW12811   2.321   1.152  10.051
 4146SOL    HW112812   2.250   1.125  10.116
 4146SOL    HW212813   2.295   1.124   9.958
 4147SOL     OW12814   3.133   1.797   9.901
 4147SOL    HW112815   3.177   1.861   9.837
 4147SOL    HW212816   3.083   1.849   9.971
 4148SOL     OW12817   2.894   0.549   9.326
 4148SOL    HW112818   2.853   0.631   9.287
 4148SOL    HW212819   2.958   0.575   9.399
 4149SOL     OW12820   1.940   0.556  10.696
 4149SOL    HW112821   2.032   0.555  10.655
 4149SOL    HW212822   1.934   0.630  10.763
 4150SOL     OW12823   2.423   0.222  10.457
 4150SOL    HW112824   2.461   0.138  10.494
 4150SOL    HW212825   2.335   0.241  10.501
 4151SOL     OW12826   2.728   0.454   9.952
 4151SOL    HW112827   2.696   0.526   9.890
 4151SOL    HW212828   2.752   0.373   9.899
 4152SOL     OW12829   2.879   0.039  10.063
 4152SOL    HW112830   2.807   0.044   9.994
 4152SOL    HW212831   2.855  -0.030  10.132
 4153SOL     OW12832   3.291   1.173  10.177
 4153SOL    HW112833   3.236   1.089  10.170
 4153SOL    HW212834   3.317   1.202  10.085
 4154SOL     OW12835   3.328   0.590  10.302
 4154SOL    HW112836   3.298   0.495  10.309
 4154SOL    HW212837   3.401   0.606  10.368
 4155SOL     OW12838   3.719   0.833   9.687
 4155SOL    HW112839   3.761   0.769   9.751
 4155SOL    HW212840   3.681   0.782   9.609
 4156SOL     OW12841   2.350   1.385   9.484
 4156SOL    HW112842   2.263   1.370   9.531
 4156SOL    HW212843   2.333   1.411   9.389
 4157SOL     OW12844   3.526   1.280   9.967
 4157SOL    HW112845   3.625   1.288   9.981
 4157SOL    HW212846   3.481   1.364   9.998
 4158SOL     OW12847   3.252   0.575   9.388
 4158SOL    HW112848   3.198   0.554   9.469
 4158SOL    HW212849   3.343   0.534   9.397
 4159SOL     OW12850   2.389   0.256   9.638
 4159SOL    HW112851   2.416   0.197   9.563
 4159SOL    HW212852   2.389   0.351   9.607
 4160SOL     OW12853   3.616   1.223  10.898
 4160SOL    HW112854   3.707   1.184  10.885
 4160SOL    HW212855   3.624   1.319  10.922
 4161SOL     OW12856   2.926   1.347  10.650
 4161SOL    HW112857   2.846   1.324  10.705
 4161SOL    HW212858   3.009   1.321  10.699
 4162SOL     OW12859   2.973   1.195  10.410
 4162SOL    HW112860   2.933   1.239  10.491
 4162SOL    HW212861   2.932   1.232  10.327
 4163SOL     OW12862   3.500   1.099  10.389
 4163SOL    HW112863   3.505   1.180  10.448
 4163SOL    HW212864   3.414   1.101  10.338
 4164SOL     OW12865   2.777   0.089  10.712
 4164SOL    HW112866   2.802   0.069  10.617
 4164SOL    HW212867   2.849   0.145  10.754
 4165SOL     OW12868   2.567   1.050   9.678
 4165SOL    HW112869   2.553   1.057   9.777
 4165SOL    HW212870   2.651   0.999   9.660
 4166SOL     OW12871   2.272   0.813  10.561
 4166SOL    HW112872   2.358   0.825  10.611
 4166SOL    HW212873   2.230   0.726  10.588
 4167SOL     OW12874   3.136   0.386  10.572
 4167SOL    HW112875   3.157   0.460  10.636
 4167SOL    HW212876   3.047   0.403  10.529
 4168SOL     OW12877   1.926   1.564  10.641
 4168SOL    HW112878   1.880   1.646  10.607
 4168SOL    HW212879   2.024   1.583  10.650
 4169SOL     OW12880   2.229   1.100   9.811
 4169SOL    HW112881   2.222   1.183   9.755
 4169SOL    HW212882   2.233   1.020   9.751
 4170SOL     OW12883   2.428   0.537  10.175
 4170SOL    HW112884   2.440   0.603  10.101
 4170SOL    HW212885   2.474   0.571  10.258
 4171SOL     OW12886   3.114   1.348   9.698
 4171SOL    HW112887   3.164   1.425   9.738
 4171SOL    HW212888   3.019   1.350   9.730
 4172SOL     OW12889   3.134   1.445  10.452
 4172SOL    HW112890   3.181   1.458  10.539
 4172SOL    HW212891   3.068   1.371  10.461
 4173SOL     OW12892   3.444   0.639   9.782
 4173SOL    HW112893   3.413   0.700   9.855
 4173SOL    HW212894   3.494   0.691   9.713
 4174SOL     OW12895   2.216   1.510  10.639
 4174SOL    HW112896   2.195   1.466  10.552
 4174SOL    HW212897   2.313   1.536  10.642
 4175SOL     OW12898   2.264   0.751  10.908
 4175SOL    HW112899   2.332   0.806  10.861
 4175SOL    HW212900   2.304   0.663  10.935
 4176SOL     OW12901   3.449   0.779  10.980
 4176SOL    HW112902   3.357   0.817  10.975
 4176SOL    HW212903   3.509   0.826  10.915
 4177SOL     OW12904   2.435   0.870  10.339
 4177SOL    HW112905   2.479   0.959  10.330
 4177SOL    HW212906   2.372   0.870  10.416
 4178SOL     OW12907   3.222   0.862  10.355
 4178SOL    HW112908   3.147   0.862  10.289
 4178SOL    HW212909   3.259   0.770  10.364
 4179SOL     OW12910   3.071   0.525   9.585
 4179SOL    HW112911   3.084   0.441   9.639
 4179SOL    HW212912   3.042   0.599   9.645
 4180SOL     OW12913   2.169   0.213  10.541
 4180SOL    HW112914   2.146   0.250  10.631
 4180SOL    HW212915   2.139   0.118  10.535
 4181SOL     OW12916   1.899   1.310  10.592
 4181SOL    HW112917   1.952   1.261  10.660
 4181SOL    HW212918   1.921   1.408  10.597
 4182SOL     OW12919   2.594   0.634  10.374
 4182SOL    HW112920   2.653   0.608  10.298
 4182SOL    HW212921   2.566   0.730  10.363
 4183SOL     OW12922   2.169   0.063   9.928
 4183SOL    HW112923   2.158   0.157   9.961
 4183SOL    HW212924   2.164   0.000  10.005
 4184SOL     OW12925   3.484   0.367   9.684
 4184SOL    HW112926   3.486   0.291   9.748
 4184SOL    HW212927   3.436   0.444   9.724
 4185SOL     OW12928   2.885   0.766  10.276
 4185SOL    HW112929   2.900   0.787  10.372
 4185SOL    HW212930   2.855   0.671  10.267
 4186SOL     OW12931   2.842   1.573  11.010
 4186SOL    HW112932   2.822   1.617  10.922
 4186SOL    HW212933   2.881   1.482  10.994
 4187SOL     OW12934   3.721   1.518  10.915
 4187SOL    HW112935   3.735   1.545  10.820
 4187SOL    HW212936   3.804   1.540  10.968
 4188SOL     OW12937   2.212   0.898  11.114
 4188SOL    HW112938   2.288   0.942  11.162
 4188SOL    HW212939   2.247   0.851  11.032
 4189SOL     OW12940   3.402   0.274   9.435
 4189SOL    HW112941   3.341   0.199   9.458
 4189SOL    HW212942   3.424   0.326   9.518
 4190SOL     OW12943   3.165   0.838   9.352
 4190SOL    HW112944   3.199   0.745   9.367
 4190SOL    HW212945   3.183   0.865   9.257
 4191SOL     OW12946   2.930   1.333  10.159
 4191SOL    HW112947   2.937   1.249  10.104
 4191SOL    HW212948   2.992   1.402  10.123
 4192SOL     OW12949   2.181   0.810  10.259
 4192SOL    HW112950   2.274   0.846  10.264
 4192SOL    HW212951   2.175   0.725  10.311
 4193SOL     OW12952   2.201   0.509  10.316
 4193SOL    HW112953   2.149   0.426  10.299
 4193SOL    HW212954   2.278   0.514  10.252
 4194SOL     OW12955   3.022   0.207  10.787
 4194SOL    HW112956   3.022   0.271  10.864
 4194SOL    HW212957   3.050   0.255  10.704
 4195SOL     OW12958   1.870   1.326   9.510
 4195SOL    HW112959   1.777   1.347   9.479
 4195SOL    HW212960   1.880   1.227   9.523
 4196SOL     OW12961   1.950   1.801  10.237
 4196SOL    HW112962   1.908   1.715  10.210
 4196SOL    HW212963   2.044   1.804  10.203
 4197SOL     OW12964   2.366   1.568  10.220
 4197SOL    HW112965   2.432   1.642  10.229
 4197SOL    HW212966   2.410   1.489  10.178
 4198SOL     OW12967   2.864   0.796  10.548
 4198SOL    HW112968   2.905   0.764  10.634
 4198SOL    HW212969   2.768   0.769  10.545
 4199SOL     OW12970   1.902   0.544  10.424
 4199SOL    HW112971   1.987   0.511  10.383
 4199SOL    HW212972   1.915   0.559  10.522
 4200SOL     OW12973   2.677   0.572   9.635
 4200SOL    HW112974   2.684   0.483   9.589
 4200SOL    HW212975   2.583   0.606   9.627
 4201SOL     OW12976   3.519   0.604  10.516
 4201SOL    HW112977   3.481   0.535  10.578
 4201SOL    HW212978   3.601   0.568  10.472
 4202SOL     OW12979   2.114   1.564  11.054
 4202SOL    HW112980   2.084   1.621  11.130
 4202SOL    HW212981   2.107   1.467  11.080
 4203SOL     OW12982   2.533   0.464  10.579
 4203SOL    HW112983   2.499   0.375  10.549
 4203SOL    HW212984   2.559   0.518  10.499
 4204SOL     OW12985   2.792   1.678  10.775
 4204SOL    HW112986   2.768   1.660  10.680
 4204SOL    HW212987   2.822   1.772  10.785
 4205SOL     OW12988   2.335   0.500   9.501
 4205SOL    HW112989   2.396   0.580   9.505
 4205SOL    HW212990   2.240   0.531   9.508
 4206SOL     OW12991   2.021   1.137  10.776
 4206SOL    HW112992   2.043   1.076  10.852
 4206SOL    HW212993   2.031   1.088  10.690
 4207SOL     OW12994   3.209   1.059  10.544
 4207SOL    HW112995   3.233   0.996  10.470
 4207SOL    HW212996   3.119   1.099  10.526
 4208SOL     OW12997   3.164   0.855   9.619
 4208SOL    HW112998   3.078   0.824   9.661
 4208SOL    HW212999   3.160   0.841   9.520
 4209SOL     OW13000   3.621   1.747  10.464
 4209SOL    HW113001   3.682   1.777  10.391
 4209SOL    HW213002   3.583   1.658  10.442
 4210SOL     OW13003   3.114   1.731  10.438
 4210SOL    HW113004   3.198   1.736  10.384
 4210SOL    HW213005   3.091   1.635  10.456
 4211SOL     OW13006   1.945   1.258  10.332
 4211SOL    HW113007   1.940   1.257  10.432
 4211SOL    HW213008   1.862   1.217  10.294
 4212SOL     OW13009   3.588   0.135   9.833
 4212SOL    HW113010   3.661   0.118   9.766
 4212SOL    HW213011   3.557   0.048   9.871
 4213SOL     OW13012   3.250   1.573   9.787
 4213SOL    HW113013   3.317   1.585   9.713
 4213SOL    HW213014   3.210   1.662   9.810
 4214SOL     OW13015   3.142   0.927   9.982
 4214SOL    HW113016   3.202   0.846   9.984
 4214SOL    HW213017   3.182   0.996   9.922
 4215SOL     OW13018   2.692   1.273  10.732
 4215SOL    HW113019   2.687   1.306  10.827
 4215SOL    HW213020   2.606   1.292  10.686
 4216SOL     OW13021   2.534   1.616   9.464
 4216SOL    HW113022   2.543   1.626   9.365
 4216SOL    HW213023   2.494   1.527   9.485
 4217SOL     OW13024   3.512   1.720  10.704
 4217SOL    HW113025   3.565   1.730  10.620
 4217SOL    HW213026   3.485   1.810  10.738
 4218SOL     OW13027   3.703   0.175  10.273
 4218SOL    HW113028   3.742   0.090  10.237
 4218SOL    HW213029   3.605   0.177  10.254
 4219SOL     OW13030   2.125   0.326  10.030
 4219SOL    HW113031   2.046   0.377   9.996
 4219SOL    HW213032   2.116   0.311  10.128
 4220SOL     OW13033   3.056   1.612   9.341
 4220SOL    HW113034   3.062   1.519   9.378
 4220SOL    HW213035   2.997   1.612   9.261
 4221SOL     OW13036   2.684   1.002  10.682
 4221SOL    HW113037   2.724   1.001  10.590
 4221SOL    HW213038   2.694   1.094  10.722
 4222SOL     OW13039   2.778   0.910   9.601
 4222SOL    HW113040   2.841   0.948   9.533
 4222SOL    HW213041   2.818   0.827   9.640
 4223SOL     OW13042   3.366   1.607   9.354
 4223SOL    HW113043   3.274   1.644   9.361
 4223SOL    HW213044   3.404   1.627   9.264
 4224SOL     OW13045   2.234   1.288  10.800
 4224SOL    HW113046   2.221   1.381  10.766
 4224SOL    HW213047   2.150   1.236  10.787
 4225SOL     OW13048   3.476   1.292  10.599
 4225SOL    HW113049   3.536   1.295  10.679
 4225SOL    HW213050   3.401   1.356  10.612
 4226SOL     OW13051   2.901   1.098  10.006
 4226SOL    HW113052   2.831   1.051  10.060
 4226SOL    HW213053   2.960   1.030   9.963
 4227SOL     OW13054   2.876   0.236  10.281
 4227SOL    HW113055   2.868   0.200  10.188
 4227SOL    HW213056   2.874   0.160  10.346
 4228SOL     OW13057   2.452   1.487   9.801
 4228SOL    HW113058   2.494   1.429   9.731
 4228SOL    HW213059   2.408   1.566   9.757
 4229SOL     OW13060   3.571   0.385  10.691
 4229SOL    HW113061   3.644   0.454  10.695
 4229SOL    HW213062   3.599   0.310  10.632
 4230SOL     OW13063   2.117   1.348   9.600
 4230SOL    HW113064   2.021   1.349   9.573
 4230SOL    HW213065   2.129   1.401   9.684
 4231SOL     OW13066   1.967   1.013  11.036
 4231SOL    HW113067   1.890   0.980  11.090
 4231SOL    HW213068   2.052   0.983  11.078
 4232SOL     OW13069   2.534   0.203  10.799
 4232SOL    HW113070   2.624   0.187  10.759
 4232SOL    HW213071   2.542   0.208  10.898
 4233SOL     OW13072   1.937   0.345   9.343
 4233SOL    HW113073   1.845   0.317   9.314
 4233SOL    HW213074   1.968   0.422   9.287
 4234SOL     OW13075   3.302   0.856  10.708
 4234SOL    HW113076   3.245   0.908  10.645
 4234SOL    HW213077   3.398   0.868  10.684
 4235SOL     OW13078   1.934   0.166   9.628
 4235SOL    HW113079   1.917   0.249   9.574
 4235SOL    HW213080   2.024   0.129   9.606
 4236SOL     OW13081   3.045   1.335   9.429
 4236SOL    HW113082   2.946   1.324   9.431
 4236SOL    HW213083   3.079   1.350   9.522
 4237SOL     OW13084   2.475   0.842  10.741
 4237SOL    HW113085   2.531   0.923  10.724
 4237SOL    HW213086   2.534   0.762  10.744
 4238SOL     OW13087   3.355   1.767  10.269
 4238SOL    HW113088   3.388   1.831  10.200
 4238SOL    HW213089   3.421   1.761  10.344
 4239SOL     OW13090   2.578   0.565  11.018
 4239SOL    HW113091   2.597   0.630  11.092
 4239SOL    HW213092   2.638   0.485  11.027
 4240SOL     OW13093   2.252   1.741  10.870
 4240SOL    HW113094   2.161   1.782  10.868
 4240SOL    HW213095   2.245   1.647  10.902
 4241SOL     OW13096   3.536   0.883  10.564
 4241SOL    HW113097   3.509   0.794  10.527
 4241SOL    HW213098   3.537   0.951  10.491
 4242SOL     OW13099   3.087   0.325   9.759
 4242SOL    HW113100   3.152   0.251   9.748
 4242SOL    HW213101   3.107   0.375   9.843
 4243SOL     OW13102   2.456   0.745   9.962
 4243SOL    HW113103   2.506   0.830   9.943
 4243SOL    HW213104   2.368   0.747   9.914
 4244SOL     OW13105   3.639   0.342  10.952
 4244SOL    HW113106   3.622   0.373  10.858
 4244SOL    HW213107   3.555   0.305  10.990
 4245SOL     OW13108   3.592   0.934  10.827
 4245SOL    HW113109   3.630   1.025  10.842
 4245SOL    HW213110   3.584   0.917  10.728
 4246SOL     OW13111   2.721   1.374   9.326
 4246SOL    HW113112   2.675   1.389   9.414
 4246SOL    HW213113   2.765   1.459   9.296
 4247SOL     OW13114   2.523   1.790  10.263
 4247SOL    HW113115   2.477   1.878  10.250
 4247SOL    HW213116   2.622   1.802  10.256
 4248SOL     OW13117   2.721   0.956  10.171
 4248SOL    HW113118   2.775   0.887  10.219
 4248SOL    HW213119   2.689   1.025  10.237
 4249SOL     OW13120   2.945   0.984   9.397
 4249SOL    HW113121   2.922   1.037   9.315
 4249SOL    HW213122   3.026   0.928   9.378
 4250SOL     OW13123   3.723   1.569  10.161
 4250SOL    HW113124   3.652   1.557  10.091
 4250SOL    HW213125   3.724   1.490  10.221
 4251SOL     OW13126   1.941   1.240   9.963
 4251SOL    HW113127   1.940   1.193  10.051
 4251SOL    HW213128   2.023   1.212   9.912
 4252SOL     OW13129   2.534   1.391  10.934
 4252SOL    HW113130   2.456   1.341  10.972
 4252SOL    HW213131   2.531   1.486  10.965
 4253SOL     OW13132   3.686   0.192  10.537
 4253SOL    HW113133   3.682   0.102  10.581
 4253SOL    HW213134   3.689   0.181  10.438
 4254SOL     OW13135   2.290   0.424   9.830
 4254SOL    HW113136   2.320   0.352   9.768
 4254SOL    HW213137   2.251   0.384   9.913
 4255SOL     OW13138   3.567   1.487  10.414
 4255SOL    HW113139   3.474   1.462  10.387
 4255SOL    HW213140   3.593   1.437  10.496
 4256SOL     OW13141   2.179   0.547  10.590
 4256SOL    HW113142   2.217   0.488  10.662
 4256SOL    HW213143   2.219   0.521  10.502
 4257SOL     OW13144   2.674   1.586   9.997
 4257SOL    HW113145   2.706   1.596   9.903
 4257SOL    HW213146   2.595   1.524   9.999
 4258SOL     OW13147   3.286   0.214  10.422
 4258SOL    HW113148   3.338   0.149  10.477
 4258SOL    HW213149   3.237   0.277  10.483
 4259SOL     OW13150   2.863   0.034  10.464
 4259SOL    HW113151   2.800  -0.038  10.433
 4259SOL    HW213152   2.956  -0.002  10.464
 4260SOL     OW13153   2.632   1.330   9.611
 4260SOL    HW113154   2.586   1.243   9.628
 4260SOL    HW213155   2.723   1.327   9.652
 4261SOL     OW13156   2.480   1.567  10.594
 4261SOL    HW113157   2.475   1.649  10.651
 4261SOL    HW213158   2.569   1.564  10.549
 4262SOL     OW13159   3.214   0.052   9.478
 4262SOL    HW113160   3.249   0.011   9.394
 4262SOL    HW213161   3.124   0.014   9.498
 4263SOL     OW13162   3.162   0.453  10.001
 4263SOL    HW113163   3.103   0.533  10.005
 4263SOL    HW213164   3.177   0.418  10.094
 4264SOL     OW13165   3.455   0.221  10.192
 4264SOL    HW113166   3.371   0.220  10.246
 4264SOL    HW213167   3.457   0.304  10.136
 4265SOL     OW13168   1.901   1.077   9.610
 4265SOL    HW113169   2.000   1.066   9.601
 4265SOL    HW213170   1.861   0.991   9.642
 4266SOL     OW13171   2.737   1.646   9.647
 4266SOL    HW113172   2.660   1.611   9.593
 4266SOL    HW213173   2.705   1.717   9.709
 4267SOL     OW13174   2.092   2.490   0.113
 4267SOL    HW113175   1.999   2.488   0.150
 4267SOL    HW213176   2.093   2.451   0.021
 4268SOL     OW13177   1.881   2.230   0.647
 4268SOL    HW113178   1.799   2.273   0.686
 4268SOL    HW213179   1.853   2.157   0.584
 4269SOL     OW13180   2.431   3.137   1.165
 4269SOL    HW113181   2.338   3.130   1.128
 4269SOL    HW213182   2.442   3.226   1.209
 4270SOL     OW13183   3.417   3.373   0.703
 4270SOL    HW113184   3.360   3.357   0.784
 4270SOL    HW213185   3.358   3.383   0.623
 4271SOL     OW13186   2.997   2.565   0.717
 4271SOL    HW113187   3.054   2.643   0.692
 4271SOL    HW213188   2.937   2.591   0.793
 4272SOL     OW13189   3.617   2.469   0.231
 4272SOL    HW113190   3.605   2.456   0.132
 4272SOL    HW213191   3.587   2.388   0.280
 4273SOL     OW13192   2.630   3.006   1.023
 4273SOL    HW113193   2.552   3.023   1.083
 4273SOL    HW213194   2.664   3.093   0.987
 4274SOL     OW13195   2.712   2.660   1.823
 4274SOL    HW113196   2.708   2.736   1.888
 4274SOL    HW213197   2.734   2.696   1.732
 4275SOL     OW13198   2.547   2.874   0.665
 4275SOL    HW113199   2.616   2.858   0.735
 4275SOL    HW213200   2.474   2.931   0.703
 4276SOL     OW13201   2.548   3.023   1.803
 4276SOL    HW113202   2.608   3.102   1.817
 4276SOL    HW213203   2.462   3.054   1.762
 4277SOL     OW13204   2.197   3.297   1.061
 4277SOL    HW113205   2.119   3.266   1.008
 4277SOL    HW213206   2.255   3.355   1.004
 4278SOL     OW13207   3.322   3.367   1.339
 4278SOL    HW113208   3.346   3.461   1.365
 4278SOL    HW213209   3.306   3.313   1.421
 4279SOL     OW13210   3.465   2.309   0.737
 4279SOL    HW113211   3.391   2.355   0.687
 4279SOL    HW213212   3.516   2.377   0.790
 4280SOL     OW13213   2.093   3.575   0.483
 4280SOL    HW113214   2.127   3.652   0.537
 4280SOL    HW213215   2.137   3.575   0.393
 4281SOL     OW13216   2.989   3.203   1.690
 4281SOL    HW113217   3.036   3.203   1.778
 4281SOL    HW213218   2.941   3.116   1.679
 4282SOL     OW13219   2.092   3.296   0.538
 4282SOL    HW113220   2.066   3.392   0.538
 4282SOL    HW213221   2.021   3.242   0.583
 4283SOL     OW13222   2.102   2.953   0.886
 4283SOL    HW113223   2.116   2.869   0.938
 4283SOL    HW213224   2.047   3.017   0.941
 4284SOL     OW13225   2.482   3.648   1.439
 4284SOL    HW113226   2.390   3.631   1.474
 4284SOL    HW213227   2.510   3.740   1.465
 4285SOL     OW13228   2.468   2.826   0.123
 4285SOL    HW113229   2.475   2.910   0.069
 4285SOL    HW213230   2.514   2.839   0.211
 4286SOL     OW13231   3.456   1.976   1.480
 4286SOL    HW113232   3.438   2.043   1.408
 4286SOL    HW213233   3.453   2.022   1.569
 4287SOL     OW13234   1.984   2.505   0.563
 4287SOL    HW113235   1.939   2.417   0.580
 4287SOL    HW213236   1.983   2.559   0.647
 4288SOL     OW13237   3.704   3.629   0.359
 4288SOL    HW113238   3.758   3.600   0.439
 4288SOL    HW213239   3.734   3.719   0.330
 4289SOL     OW13240   1.889   3.458   0.117
 4289SOL    HW113241   1.870   3.362   0.138
 4289SOL    HW213242   1.856   3.516   0.192
 4290SOL     OW13243   3.551   2.784   0.612
 4290SOL    HW113244   3.646   2.755   0.620
 4290SOL    HW213245   3.543   2.849   0.537
 4291SOL     OW13246   3.503   2.970   0.432
 4291SOL    HW113247   3.589   2.972   0.380
 4291SOL    HW213248   3.517   3.017   0.520
 4292SOL     OW13249   1.975   2.599   1.597
 4292SOL    HW113250   2.063   2.586   1.642
 4292SOL    HW213251   1.962   2.696   1.575
 4293SOL     OW13252   2.475   3.227   0.726
 4293SOL    HW113253   2.426   3.140   0.735
 4293SOL    HW213254   2.452   3.270   0.639
 4294SOL     OW13255   3.155   3.090   1.423
 4294SOL    HW113256   3.192   3.017   1.365
 4294SOL    HW213257   3.207   3.095   1.508
 4295SOL     OW13258   2.671   1.866   0.502
 4295SOL    HW113259   2.711   1.957   0.493
 4295SOL    HW213260   2.571   1.874   0.508
 4296SOL     OW13261   2.059   2.838   1.264
 4296SOL    HW113262   2.148   2.793   1.250
 4296SOL    HW213263   1.986   2.773   1.245
 4297SOL     OW13264   3.387   2.861   0.190
 4297SOL    HW113265   3.324   2.785   0.203
 4297SOL    HW213266   3.435   2.879   0.276
 4298SOL     OW13267   3.049   3.654   1.616
 4298SOL    HW113268   3.073   3.714   1.540
 4298SOL    HW213269   3.056   3.559   1.586
 4299SOL     OW13270   3.328   3.279   0.953
 4299SOL    HW113271   3.269   3.285   1.033
 4299SOL    HW213272   3.313   3.191   0.907
 4300SOL     OW13273   3.529   3.576   0.572
 4300SOL    HW113274   3.488   3.553   0.484
 4300SOL    HW213275   3.511   3.502   0.637
 4301SOL     OW13276   2.460   2.591   0.270
 4301SOL    HW113277   2.484   2.660   0.202
 4301SOL    HW213278   2.382   2.624   0.324
 4302SOL     OW13279   3.143   2.207   0.944
 4302SOL    HW113280   3.057   2.157   0.931
 4302SOL    HW213281   3.205   2.153   1.000
 4303SOL     OW13282   3.438   3.524   0.307
 4303SOL    HW113283   3.527   3.570   0.310
 4303SOL    HW213284   3.417   3.500   0.212
 4304SOL     OW13285   2.669   2.467   1.465
 4304SOL    HW113286   2.622   2.464   1.554
 4304SOL    HW213287   2.618   2.412   1.399
 4305SOL     OW13288   3.256   2.331   1.674
 4305SOL    HW113289   3.236   2.374   1.762
 4305SOL    HW213290   3.334   2.269   1.683
 4306SOL     OW13291   2.835   2.752   1.572
 4306SOL    HW113292   2.881   2.668   1.543
 4306SOL    HW213293   2.779   2.786   1.497
 4307SOL     OW13294   2.853   2.272   1.242
 4307SOL    HW113295   2.776   2.306   1.296
 4307SOL    HW213296   2.819   2.221   1.163
 4308SOL     OW13297   2.903   2.563   0.429
 4308SOL    HW113298   2.929   2.559   0.525
 4308SOL    HW213299   2.818   2.512   0.415
 4309SOL     OW13300   1.938   2.673   0.789
 4309SOL    HW113301   2.037   2.661   0.798
 4309SOL    HW213302   1.914   2.768   0.810
 4310SOL     OW13303   1.992   3.683   1.571
 4310SOL    HW113304   1.982   3.668   1.670
 4310SOL    HW213305   1.906   3.719   1.535
 4311SOL     OW13306   2.727   2.210   0.195
 4311SOL    HW113307   2.786   2.273   0.146
 4311SOL    HW213308   2.746   2.116   0.166
 4312SOL     OW13309   3.581   2.447   1.831
 4312SOL    HW113310   3.555   2.536   1.795
 4312SOL    HW213311   3.579   2.379   1.758
 4313SOL     OW13312   3.224   3.006   0.545
 4313SOL    HW113313   3.307   2.977   0.497
 4313SOL    HW213314   3.175   3.073   0.489
 4314SOL     OW13315   2.870   3.318   0.477
 4314SOL    HW113316   2.824   3.390   0.425
 4314SOL    HW213317   2.866   3.338   0.575
 4315SOL     OW13318   2.213   3.663   0.853
 4315SOL    HW113319   2.263   3.577   0.859
 4315SOL    HW213320   2.278   3.740   0.850
 4316SOL     OW13321   3.657   2.928   0.873
 4316SOL    HW113322   3.595   2.913   0.797
 4316SOL    HW213323   3.605   2.939   0.958
 4317SOL     OW13324   3.089   3.412   1.506
 4317SOL    HW113325   3.095   3.335   1.570
 4317SOL    HW213326   3.037   3.386   1.426
 4318SOL     OW13327   2.183   2.805   0.242
 4318SOL    HW113328   2.265   2.844   0.200
 4318SOL    HW213329   2.156   2.723   0.193
 4319SOL     OW13330   3.320   2.597   0.728
 4319SOL    HW113331   3.315   2.532   0.803
 4319SOL    HW213332   3.400   2.656   0.741
 4320SOL     OW13333   2.323   3.128   1.727
 4320SOL    HW113334   2.273   3.129   1.641
 4320SOL    HW213335   2.260   3.110   1.803
 4321SOL     OW13336   2.973   3.638   0.237
 4321SOL    HW113337   2.913   3.576   0.287
 4321SOL    HW213338   3.004   3.594   0.152
 4322SOL     OW13339   2.064   2.147   1.498
 4322SOL    HW113340   1.984   2.207   1.485
 4322SOL    HW213341   2.054   2.098   1.584
 4323SOL     OW13342   3.494   3.239   0.081
 4323SOL    HW113343   3.462   3.333   0.071
 4323SOL    HW213344   3.418   3.176   0.069
 4324SOL     OW13345   2.326   3.605   0.323
 4324SOL    HW113346   2.359   3.644   0.409
 4324SOL    HW213347   2.402   3.598   0.258
 4325SOL     OW13348   3.262   1.969   0.426
 4325SOL    HW113349   3.238   1.932   0.336
 4325SOL    HW213350   3.361   1.985   0.430
 4326SOL     OW13351   2.111   3.647   1.241
 4326SOL    HW113352   2.168   3.582   1.291
 4326SOL    HW213353   2.095   3.614   1.148
 4327SOL     OW13354   2.802   3.560   0.904
 4327SOL    HW113355   2.882   3.503   0.925
 4327SOL    HW213356   2.753   3.520   0.827
 4328SOL     OW13357   2.244   2.562   0.480
 4328SOL    HW113358   2.289   2.472   0.477
 4328SOL    HW213359   2.150   2.551   0.513
 4329SOL     OW13360   3.409   2.084   1.729
 4329SOL    HW113361   3.404   2.121   1.821
 4329SOL    HW213362   3.337   2.015   1.717
 4330SOL     OW13363   2.476   1.984   0.117
 4330SOL    HW113364   2.574   1.962   0.124
 4330SOL    HW213365   2.445   1.967   0.024
 4331SOL     OW13366   2.643   2.126   1.749
 4331SOL    HW113367   2.710   2.065   1.792
 4331SOL    HW213368   2.570   2.145   1.814
 4332SOL     OW13369   2.750   3.376   1.195
 4332SOL    HW113370   2.727   3.351   1.101
 4332SOL    HW213371   2.811   3.307   1.234
 4333SOL     OW13372   3.213   2.452   1.433
 4333SOL    HW113373   3.241   2.409   1.518
 4333SOL    HW213374   3.238   2.548   1.434
 4334SOL     OW13375   2.665   3.264   0.924
 4334SOL    HW113376   2.755   3.278   0.882
 4334SOL    HW213377   2.594   3.266   0.853
 4335SOL     OW13378   2.784   2.365   0.899
 4335SOL    HW113379   2.759   2.356   0.803
 4335SOL    HW213380   2.832   2.283   0.930
 4336SOL     OW13381   2.401   1.926   0.512
 4336SOL    HW113382   2.320   1.927   0.570
 4336SOL    HW213383   2.404   2.009   0.457
 4337SOL     OW13384   3.296   3.050   0.041
 4337SOL    HW113385   3.328   2.974   0.098
 4337SOL    HW213386   3.204   3.077   0.071
 4338SOL     OW13387   2.159   1.897   0.171
 4338SOL    HW113388   2.208   1.981   0.150
 4338SOL    HW213389   2.221   1.832   0.216
 4339SOL     OW13390   2.797   2.098   0.480
 4339SOL    HW113391   2.749   2.139   0.402
 4339SOL    HW213392   2.896   2.096   0.461
 4340SOL     OW13393   2.938   2.545   1.464
 4340SOL    HW113394   2.858   2.484   1.467
 4340SOL    HW213395   3.019   2.492   1.440
 4341SOL     OW13396   3.089   3.432   0.793
 4341SOL    HW113397   3.110   3.506   0.728
 4341SOL    HW213398   3.157   3.432   0.866
 4342SOL     OW13399   2.321   3.014   0.741
 4342SOL    HW113400   2.250   2.987   0.806
 4342SOL    HW213401   2.295   2.986   0.648
 4343SOL     OW13402   3.133   3.659   0.591
 4343SOL    HW113403   3.177   3.723   0.527
 4343SOL    HW213404   3.083   3.711   0.661
 4344SOL     OW13405   2.894   2.411   0.016
 4344SOL    HW113406   2.853   2.493  -0.023
 4344SOL    HW213407   2.958   2.437   0.089
 4345SOL     OW13408   1.940   2.418   1.386
 4345SOL    HW113409   2.032   2.417   1.345
 4345SOL    HW213410   1.934   2.492   1.453
 4346SOL     OW13411   2.423   2.084   1.147
 4346SOL    HW113412   2.461   2.000   1.184
 4346SOL    HW213413   2.335   2.103   1.191
 4347SOL     OW13414   2.728   2.316   0.642
 4347SOL    HW113415   2.696   2.388   0.580
 4347SOL    HW213416   2.752   2.235   0.589
 4348SOL     OW13417   2.879   1.901   0.753
 4348SOL    HW113418   2.807   1.906   0.684
 4348SOL    HW213419   2.855   1.832   0.822
 4349SOL     OW13420   3.291   3.035   0.867
 4349SOL    HW113421   3.236   2.951   0.860
 4349SOL    HW213422   3.317   3.064   0.775
 4350SOL     OW13423   3.328   2.452   0.992
 4350SOL    HW113424   3.298   2.357   0.999
 4350SOL    HW213425   3.401   2.468   1.058
 4351SOL     OW13426   3.719   2.695   0.377
 4351SOL    HW113427   3.761   2.631   0.441
 4351SOL    HW213428   3.681   2.644   0.299
 4352SOL     OW13429   2.350   3.247   0.174
 4352SOL    HW113430   2.263   3.232   0.221
 4352SOL    HW213431   2.333   3.273   0.079
 4353SOL     OW13432   3.526   3.142   0.657
 4353SOL    HW113433   3.625   3.150   0.671
 4353SOL    HW213434   3.481   3.226   0.688
 4354SOL     OW13435   3.252   2.437   0.078
 4354SOL    HW113436   3.198   2.416   0.159
 4354SOL    HW213437   3.343   2.396   0.087
 4355SOL     OW13438   3.616   3.085   1.588
 4355SOL    HW113439   3.707   3.046   1.575
 4355SOL    HW213440   3.624   3.181   1.612
 4356SOL     OW13441   2.926   3.209   1.340
 4356SOL    HW113442   2.846   3.186   1.395
 4356SOL    HW213443   3.009   3.183   1.389
 4357SOL     OW13444   3.454   3.491   1.625
 4357SOL    HW113445   3.481   3.525   1.535
 4357SOL    HW213446   3.533   3.453   1.671
 4358SOL     OW13447   2.973   3.057   1.100
 4358SOL    HW113448   2.933   3.101   1.181
 4358SOL    HW213449   2.932   3.094   1.017
 4359SOL     OW13450   3.500   2.961   1.079
 4359SOL    HW113451   3.505   3.042   1.138
 4359SOL    HW213452   3.414   2.963   1.028
 4360SOL     OW13453   2.777   1.951   1.402
 4360SOL    HW113454   2.802   1.931   1.307
 4360SOL    HW213455   2.849   2.007   1.444
 4361SOL     OW13456   2.842   2.978   1.719
 4361SOL    HW113457   2.743   2.984   1.729
 4361SOL    HW213458   2.865   2.898   1.663
 4362SOL     OW13459   2.567   2.912   0.368
 4362SOL    HW113460   2.553   2.919   0.467
 4362SOL    HW213461   2.651   2.861   0.350
 4363SOL     OW13462   2.272   2.675   1.251
 4363SOL    HW113463   2.358   2.687   1.301
 4363SOL    HW213464   2.230   2.588   1.278
 4364SOL     OW13465   3.136   2.248   1.262
 4364SOL    HW113466   3.157   2.322   1.326
 4364SOL    HW213467   3.047   2.265   1.219
 4365SOL     OW13468   1.926   3.426   1.331
 4365SOL    HW113469   1.880   3.508   1.297
 4365SOL    HW213470   2.024   3.445   1.340
 4366SOL     OW13471   2.229   2.962   0.501
 4366SOL    HW113472   2.222   3.045   0.445
 4366SOL    HW213473   2.233   2.882   0.441
 4367SOL     OW13474   3.114   3.210   0.388
 4367SOL    HW113475   3.164   3.287   0.428
 4367SOL    HW213476   3.019   3.212   0.420
 4368SOL     OW13477   3.134   3.307   1.142
 4368SOL    HW113478   3.181   3.320   1.229
 4368SOL    HW213479   3.068   3.233   1.151
 4369SOL     OW13480   3.444   2.501   0.472
 4369SOL    HW113481   3.413   2.562   0.545
 4369SOL    HW213482   3.494   2.553   0.403
 4370SOL     OW13483   2.216   3.372   1.329
 4370SOL    HW113484   2.195   3.328   1.242
 4370SOL    HW213485   2.313   3.398   1.332
 4371SOL     OW13486   2.264   2.613   1.598
 4371SOL    HW113487   2.332   2.668   1.551
 4371SOL    HW213488   2.304   2.525   1.625
 4372SOL     OW13489   3.449   2.641   1.670
 4372SOL    HW113490   3.357   2.679   1.665
 4372SOL    HW213491   3.509   2.688   1.605
 4373SOL     OW13492   2.875   1.967   1.770
 4373SOL    HW113493   2.881   2.052   1.718
 4373SOL    HW213494   2.907   1.891   1.713
 4374SOL     OW13495   2.366   1.912   1.740
 4374SOL    HW113496   2.324   1.855   1.670
 4374SOL    HW213497   2.300   1.981   1.772
 4375SOL     OW13498   2.435   2.732   1.029
 4375SOL    HW113499   2.479   2.821   1.020
 4375SOL    HW213500   2.372   2.732   1.106
 4376SOL     OW13501   3.222   2.724   1.045
 4376SOL    HW113502   3.147   2.724   0.979
 4376SOL    HW213503   3.259   2.632   1.054
 4377SOL     OW13504   3.071   2.387   0.275
 4377SOL    HW113505   3.084   2.303   0.329
 4377SOL    HW213506   3.042   2.461   0.335
 4378SOL     OW13507   1.899   3.172   1.282
 4378SOL    HW113508   1.952   3.123   1.350
 4378SOL    HW213509   1.921   3.270   1.287
 4379SOL     OW13510   2.594   2.496   1.064
 4379SOL    HW113511   2.653   2.470   0.988
 4379SOL    HW213512   2.566   2.592   1.053
 4380SOL     OW13513   3.590   2.797   1.854
 4380SOL    HW113514   3.544   2.790   1.765
 4380SOL    HW213515   3.528   2.841   1.920
 4381SOL     OW13516   2.169   1.925   0.618
 4381SOL    HW113517   2.158   2.019   0.651
 4381SOL    HW213518   2.164   1.862   0.695
 4382SOL     OW13519   3.484   2.229   0.374
 4382SOL    HW113520   3.486   2.153   0.438
 4382SOL    HW213521   3.436   2.306   0.414
 4383SOL     OW13522   2.885   2.628   0.966
 4383SOL    HW113523   2.900   2.649   1.062
 4383SOL    HW213524   2.855   2.533   0.957
 4384SOL     OW13525   2.842   3.435   1.700
 4384SOL    HW113526   2.822   3.479   1.612
 4384SOL    HW213527   2.881   3.344   1.684
 4385SOL     OW13528   3.721   3.380   1.605
 4385SOL    HW113529   3.735   3.407   1.510
 4385SOL    HW213530   3.804   3.402   1.658
 4386SOL     OW13531   2.212   2.760   1.804
 4386SOL    HW113532   2.288   2.804   1.852
 4386SOL    HW213533   2.247   2.713   1.722
 4387SOL     OW13534   3.402   2.136   0.125
 4387SOL    HW113535   3.341   2.061   0.148
 4387SOL    HW213536   3.424   2.188   0.208
 4388SOL     OW13537   3.165   2.700   0.042
 4388SOL    HW113538   3.199   2.607   0.057
 4388SOL    HW213539   3.183   2.727  -0.053
 4389SOL     OW13540   2.930   3.195   0.849
 4389SOL    HW113541   2.937   3.111   0.794
 4389SOL    HW213542   2.992   3.264   0.813
 4390SOL     OW13543   2.181   2.672   0.949
 4390SOL    HW113544   2.274   2.708   0.954
 4390SOL    HW213545   2.175   2.587   1.001
 4391SOL     OW13546   3.000   2.242   1.678
 4391SOL    HW113547   2.955   2.305   1.742
 4391SOL    HW213548   3.093   2.273   1.661
 4392SOL     OW13549   3.022   2.069   1.477
 4392SOL    HW113550   3.022   2.133   1.554
 4392SOL    HW213551   3.050   2.117   1.394
 4393SOL     OW13552   1.870   3.188   0.200
 4393SOL    HW113553   1.777   3.209   0.169
 4393SOL    HW213554   1.880   3.089   0.213
 4394SOL     OW13555   1.950   3.663   0.927
 4394SOL    HW113556   1.908   3.577   0.900
 4394SOL    HW213557   2.044   3.666   0.893
 4395SOL     OW13558   2.366   3.430   0.910
 4395SOL    HW113559   2.432   3.504   0.919
 4395SOL    HW213560   2.410   3.351   0.868
 4396SOL     OW13561   2.864   2.658   1.238
 4396SOL    HW113562   2.905   2.626   1.324
 4396SOL    HW213563   2.768   2.631   1.235
 4397SOL     OW13564   1.902   2.406   1.114
 4397SOL    HW113565   1.987   2.373   1.073
 4397SOL    HW213566   1.915   2.421   1.212
 4398SOL     OW13567   3.231   2.812   1.660
 4398SOL    HW113568   3.270   2.901   1.680
 4398SOL    HW213569   3.241   2.792   1.563
 4399SOL     OW13570   2.677   2.434   0.325
 4399SOL    HW113571   2.684   2.345   0.279
 4399SOL    HW213572   2.583   2.468   0.317
 4400SOL     OW13573   3.519   2.466   1.206
 4400SOL    HW113574   3.481   2.397   1.268
 4400SOL    HW213575   3.601   2.430   1.162
 4401SOL     OW13576   2.114   3.426   1.744
 4401SOL    HW113577   2.084   3.483   1.820
 4401SOL    HW213578   2.107   3.329   1.770
 4402SOL     OW13579   2.533   2.326   1.269
 4402SOL    HW113580   2.499   2.237   1.239
 4402SOL    HW213581   2.559   2.380   1.189
 4403SOL     OW13582   2.792   3.540   1.465
 4403SOL    HW113583   2.768   3.522   1.370
 4403SOL    HW213584   2.822   3.634   1.475
 4404SOL     OW13585   2.021   2.999   1.466
 4404SOL    HW113586   2.043   2.938   1.542
 4404SOL    HW213587   2.031   2.950   1.380
 4405SOL     OW13588   3.209   2.921   1.234
 4405SOL    HW113589   3.233   2.858   1.160
 4405SOL    HW213590   3.119   2.961   1.216
 4406SOL     OW13591   3.164   2.717   0.309
 4406SOL    HW113592   3.078   2.686   0.351
 4406SOL    HW213593   3.160   2.703   0.210
 4407SOL     OW13594   3.621   3.609   1.154
 4407SOL    HW113595   3.682   3.639   1.081
 4407SOL    HW213596   3.583   3.520   1.132
 4408SOL     OW13597   3.114   3.593   1.128
 4408SOL    HW113598   3.198   3.598   1.074
 4408SOL    HW213599   3.091   3.497   1.146
 4409SOL     OW13600   1.945   3.120   1.022
 4409SOL    HW113601   1.940   3.119   1.122
 4409SOL    HW213602   1.862   3.079   0.984
 4410SOL     OW13603   2.550   3.524   1.716
 4410SOL    HW113604   2.494   3.605   1.725
 4410SOL    HW213605   2.602   3.528   1.630
 4411SOL     OW13606   2.765   1.948   0.133
 4411SOL    HW113607   2.816   1.949   0.047
 4411SOL    HW213608   2.821   1.906   0.204
 4412SOL     OW13609   3.588   1.997   0.523
 4412SOL    HW113610   3.661   1.980   0.456
 4412SOL    HW213611   3.557   1.910   0.561
 4413SOL     OW13612   3.250   3.435   0.477
 4413SOL    HW113613   3.317   3.447   0.403
 4413SOL    HW213614   3.210   3.524   0.500
 4414SOL     OW13615   1.992   3.656   1.851
 4414SOL    HW113616   1.951   3.582   1.904
 4414SOL    HW213617   2.056   3.707   1.909
 4415SOL     OW13618   3.142   2.789   0.672
 4415SOL    HW113619   3.202   2.708   0.674
 4415SOL    HW213620   3.182   2.858   0.612
 4416SOL     OW13621   2.692   3.135   1.422
 4416SOL    HW113622   2.687   3.168   1.517
 4416SOL    HW213623   2.606   3.154   1.376
 4417SOL     OW13624   2.534   3.478   0.154
 4417SOL    HW113625   2.543   3.488   0.055
 4417SOL    HW213626   2.494   3.389   0.175
 4418SOL     OW13627   3.512   3.582   1.394
 4418SOL    HW113628   3.565   3.592   1.310
 4418SOL    HW213629   3.485   3.672   1.428
 4419SOL     OW13630   3.703   2.037   0.963
 4419SOL    HW113631   3.742   1.952   0.927
 4419SOL    HW213632   3.605   2.039   0.944
 4420SOL     OW13633   3.056   3.474   0.031
 4420SOL    HW113634   3.062   3.381   0.068
 4420SOL    HW213635   2.997   3.474  -0.049
 4421SOL     OW13636   2.684   2.864   1.372
 4421SOL    HW113637   2.724   2.863   1.280
 4421SOL    HW213638   2.694   2.956   1.412
 4422SOL     OW13639   2.778   2.772   0.291
 4422SOL    HW113640   2.841   2.810   0.223
 4422SOL    HW213641   2.818   2.689   0.330
 4423SOL     OW13642   3.366   3.469   0.044
 4423SOL    HW113643   3.274   3.506   0.051
 4423SOL    HW213644   3.404   3.489  -0.046
 4424SOL     OW13645   2.234   3.150   1.490
 4424SOL    HW113646   2.221   3.243   1.456
 4424SOL    HW213647   2.150   3.098   1.477
 4425SOL     OW13648   3.476   3.154   1.289
 4425SOL    HW113649   3.536   3.157   1.369
 4425SOL    HW213650   3.401   3.218   1.302
 4426SOL     OW13651   2.901   2.960   0.696
 4426SOL    HW113652   2.831   2.913   0.750
 4426SOL    HW213653   2.960   2.892   0.653
 4427SOL     OW13654   2.876   2.098   0.971
 4427SOL    HW113655   2.868   2.062   0.878
 4427SOL    HW213656   2.874   2.022   1.036
 4428SOL     OW13657   2.452   3.349   0.491
 4428SOL    HW113658   2.494   3.291   0.421
 4428SOL    HW213659   2.408   3.428   0.447
 4429SOL     OW13660   3.571   2.247   1.381
 4429SOL    HW113661   3.644   2.316   1.385
 4429SOL    HW213662   3.599   2.172   1.322
 4430SOL     OW13663   2.117   3.210   0.290
 4430SOL    HW113664   2.021   3.211   0.263
 4430SOL    HW213665   2.129   3.263   0.374
 4431SOL     OW13666   1.967   2.875   1.726
 4431SOL    HW113667   1.890   2.842   1.780
 4431SOL    HW213668   2.052   2.845   1.768
 4432SOL     OW13669   2.534   2.065   1.489
 4432SOL    HW113670   2.624   2.049   1.449
 4432SOL    HW213671   2.542   2.070   1.588
 4433SOL     OW13672   1.937   2.207   0.033
 4433SOL    HW113673   1.845   2.179   0.004
 4433SOL    HW213674   1.968   2.284  -0.023
 4434SOL     OW13675   3.302   2.718   1.398
 4434SOL    HW113676   3.245   2.770   1.335
 4434SOL    HW213677   3.398   2.730   1.374
 4435SOL     OW13678   1.934   2.028   0.318
 4435SOL    HW113679   1.917   2.111   0.264
 4435SOL    HW213680   2.024   1.991   0.296
 4436SOL     OW13681   3.045   3.197   0.119
 4436SOL    HW113682   2.946   3.186   0.121
 4436SOL    HW213683   3.079   3.212   0.212
 4437SOL     OW13684   2.475   2.704   1.431
 4437SOL    HW113685   2.531   2.785   1.414
 4437SOL    HW213686   2.534   2.624   1.434
 4438SOL     OW13687   3.355   3.629   0.959
 4438SOL    HW113688   3.388   3.693   0.890
 4438SOL    HW213689   3.421   3.623   1.034
 4439SOL     OW13690   2.578   2.427   1.708
 4439SOL    HW113691   2.597   2.492   1.782
 4439SOL    HW213692   2.638   2.347   1.717
 4440SOL     OW13693   3.312   3.082   1.633
 4440SOL    HW113694   3.303   3.072   1.732
 4440SOL    HW213695   3.408   3.075   1.607
 4441SOL     OW13696   2.252   3.603   1.560
 4441SOL    HW113697   2.161   3.644   1.558
 4441SOL    HW213698   2.245   3.509   1.592
 4442SOL     OW13699   3.536   2.745   1.254
 4442SOL    HW113700   3.509   2.656   1.217
 4442SOL    HW213701   3.537   2.813   1.181
 4443SOL     OW13702   3.087   2.187   0.449
 4443SOL    HW113703   3.152   2.113   0.438
 4443SOL    HW213704   3.107   2.237   0.533
 4444SOL     OW13705   2.456   2.607   0.652
 4444SOL    HW113706   2.506   2.692   0.633
 4444SOL    HW213707   2.368   2.609   0.604
 4445SOL     OW13708   3.639   2.204   1.642
 4445SOL    HW113709   3.622   2.235   1.548
 4445SOL    HW213710   3.555   2.167   1.680
 4446SOL     OW13711   3.592   2.796   1.517
 4446SOL    HW113712   3.630   2.887   1.532
 4446SOL    HW213713   3.584   2.779   1.418
 4447SOL     OW13714   2.721   3.236   0.016
 4447SOL    HW113715   2.675   3.251   0.104
 4447SOL    HW213716   2.765   3.321  -0.014
 4448SOL     OW13717   2.523   3.652   0.953
 4448SOL    HW113718   2.477   3.740   0.940
 4448SOL    HW213719   2.622   3.664   0.946
 4449SOL     OW13720   2.721   2.818   0.861
 4449SOL    HW113721   2.775   2.749   0.909
 4449SOL    HW213722   2.689   2.887   0.927
 4450SOL     OW13723   2.945   2.846   0.087
 4450SOL    HW113724   2.922   2.899   0.005
 4450SOL    HW213725   3.026   2.790   0.068
 4451SOL     OW13726   3.723   3.431   0.851
 4451SOL    HW113727   3.652   3.419   0.781
 4451SOL    HW213728   3.724   3.352   0.911
 4452SOL     OW13729   2.083   3.176   1.844
 4452SOL    HW113730   2.018   3.103   1.823
 4452SOL    HW213731   2.087   3.190   1.942
 4453SOL     OW13732   1.941   3.102   0.653
 4453SOL    HW113733   1.940   3.055   0.741
 4453SOL    HW213734   2.023   3.074   0.602
 4454SOL     OW13735   2.534   3.253   1.624
 4454SOL    HW113736   2.456   3.203   1.662
 4454SOL    HW213737   2.531   3.348   1.655
 4455SOL     OW13738   3.686   2.054   1.227
 4455SOL    HW113739   3.682   1.964   1.271
 4455SOL    HW213740   3.689   2.043   1.128
 4456SOL     OW13741   3.567   3.349   1.104
 4456SOL    HW113742   3.474   3.324   1.077
 4456SOL    HW213743   3.593   3.299   1.186
 4457SOL     OW13744   2.674   3.448   0.687
 4457SOL    HW113745   2.706   3.458   0.593
 4457SOL    HW213746   2.595   3.386   0.689
 4458SOL     OW13747   3.286   2.076   1.112
 4458SOL    HW113748   3.338   2.011   1.167
 4458SOL    HW213749   3.237   2.139   1.173
 4459SOL     OW13750   2.863   1.896   1.154
 4459SOL    HW113751   2.800   1.824   1.123
 4459SOL    HW213752   2.956   1.860   1.154
 4460SOL     OW13753   2.632   3.192   0.301
 4460SOL    HW113754   2.586   3.105   0.318
 4460SOL    HW213755   2.723   3.189   0.342
 4461SOL     OW13756   2.480   3.429   1.284
 4461SOL    HW113757   2.475   3.511   1.341
 4461SOL    HW213758   2.569   3.426   1.239
 4462SOL     OW13759   3.214   1.914   0.168
 4462SOL    HW113760   3.249   1.873   0.084
 4462SOL    HW213761   3.124   1.876   0.188
 4463SOL     OW13762   3.162   2.315   0.691
 4463SOL    HW113763   3.103   2.395   0.695
 4463SOL    HW213764   3.177   2.280   0.784
 4464SOL     OW13765   3.455   2.083   0.882
 4464SOL    HW113766   3.371   2.082   0.936
 4464SOL    HW213767   3.457   2.166   0.826
 4465SOL     OW13768   1.901   2.939   0.300
 4465SOL    HW113769   2.000   2.928   0.291
 4465SOL    HW213770   1.861   2.853   0.332
 4466SOL     OW13771   2.737   3.508   0.337
 4466SOL    HW113772   2.660   3.473   0.283
 4466SOL    HW213773   2.705   3.579   0.399
 4467SOL     OW13774   2.092   2.490   1.975
 4467SOL    HW113775   1.999   2.488   2.012
 4467SOL    HW213776   2.093   2.451   1.883
 4468SOL     OW13777   2.087   2.137   2.858
 4468SOL    HW113778   2.122   2.120   2.950
 4468SOL    HW213779   1.999   2.092   2.846
 4469SOL     OW13780   1.881   2.230   2.509
 4469SOL    HW113781   1.799   2.273   2.548
 4469SOL    HW213782   1.853   2.157   2.446
 4470SOL     OW13783   2.431   3.137   3.027
 4470SOL    HW113784   2.338   3.130   2.990
 4470SOL    HW213785   2.442   3.226   3.071
 4471SOL     OW13786   3.417   3.373   2.565
 4471SOL    HW113787   3.360   3.357   2.646
 4471SOL    HW213788   3.358   3.383   2.485
 4472SOL     OW13789   2.997   2.565   2.579
 4472SOL    HW113790   3.054   2.643   2.554
 4472SOL    HW213791   2.937   2.591   2.655
 4473SOL     OW13792   3.617   2.469   2.093
 4473SOL    HW113793   3.605   2.456   1.994
 4473SOL    HW213794   3.587   2.388   2.142
 4474SOL     OW13795   2.630   3.006   2.885
 4474SOL    HW113796   2.552   3.023   2.945
 4474SOL    HW213797   2.664   3.093   2.849
 4475SOL     OW13798   2.712   2.660   3.685
 4475SOL    HW113799   2.708   2.736   3.750
 4475SOL    HW213800   2.734   2.696   3.594
 4476SOL     OW13801   2.547   2.874   2.527
 4476SOL    HW113802   2.616   2.858   2.597
 4476SOL    HW213803   2.474   2.931   2.565
 4477SOL     OW13804   2.548   3.023   3.665
 4477SOL    HW113805   2.608   3.102   3.679
 4477SOL    HW213806   2.462   3.054   3.624
 4478SOL     OW13807   2.197   3.297   2.923
 4478SOL    HW113808   2.119   3.266   2.870
 4478SOL    HW213809   2.255   3.355   2.866
 4479SOL     OW13810   3.322   3.367   3.201
 4479SOL    HW113811   3.346   3.461   3.227
 4479SOL    HW213812   3.306   3.313   3.283
 4480SOL     OW13813   3.465   2.309   2.599
 4480SOL    HW113814   3.391   2.355   2.549
 4480SOL    HW213815   3.516   2.377   2.652
 4481SOL     OW13816   2.093   3.575   2.345
 4481SOL    HW113817   2.127   3.652   2.399
 4481SOL    HW213818   2.137   3.575   2.255
 4482SOL     OW13819   2.989   3.203   3.552
 4482SOL    HW113820   3.036   3.203   3.640
 4482SOL    HW213821   2.941   3.116   3.541
 4483SOL     OW13822   2.092   3.296   2.400
 4483SOL    HW113823   2.066   3.392   2.400
 4483SOL    HW213824   2.021   3.242   2.445
 4484SOL     OW13825   2.102   2.953   2.748
 4484SOL    HW113826   2.116   2.869   2.800
 4484SOL    HW213827   2.047   3.017   2.803
 4485SOL     OW13828   2.482   3.648   3.301
 4485SOL    HW113829   2.390   3.631   3.336
 4485SOL    HW213830   2.510   3.740   3.327
 4486SOL     OW13831   2.468   2.826   1.985
 4486SOL    HW113832   2.475   2.910   1.931
 4486SOL    HW213833   2.514   2.839   2.073
 4487SOL     OW13834   3.456   1.976   3.342
 4487SOL    HW113835   3.438   2.043   3.270
 4487SOL    HW213836   3.453   2.022   3.431
 4488SOL     OW13837   1.984   2.505   2.425
 4488SOL    HW113838   1.939   2.417   2.442
 4488SOL    HW213839   1.983   2.559   2.509
 4489SOL     OW13840   3.704   3.629   2.221
 4489SOL    HW113841   3.758   3.600   2.301
 4489SOL    HW213842   3.734   3.719   2.192
 4490SOL     OW13843   1.889   3.458   1.979
 4490SOL    HW113844   1.870   3.362   2.000
 4490SOL    HW213845   1.856   3.516   2.054
 4491SOL     OW13846   3.551   2.784   2.474
 4491SOL    HW113847   3.646   2.755   2.482
 4491SOL    HW213848   3.543   2.849   2.399
 4492SOL     OW13849   3.503   2.970   2.294
 4492SOL    HW113850   3.589   2.972   2.242
 4492SOL    HW213851   3.517   3.017   2.382
 4493SOL     OW13852   1.975   2.599   3.459
 4493SOL    HW113853   2.063   2.586   3.504
 4493SOL    HW213854   1.962   2.696   3.437
 4494SOL     OW13855   2.475   3.227   2.588
 4494SOL    HW113856   2.426   3.140   2.597
 4494SOL    HW213857   2.452   3.270   2.501
 4495SOL     OW13858   3.155   3.090   3.285
 4495SOL    HW113859   3.192   3.017   3.227
 4495SOL    HW213860   3.207   3.095   3.370
 4496SOL     OW13861   2.671   1.866   2.364
 4496SOL    HW113862   2.711   1.957   2.355
 4496SOL    HW213863   2.571   1.874   2.370
 4497SOL     OW13864   2.059   2.838   3.126
 4497SOL    HW113865   2.148   2.793   3.112
 4497SOL    HW213866   1.986   2.773   3.107
 4498SOL     OW13867   3.387   2.861   2.052
 4498SOL    HW113868   3.324   2.785   2.065
 4498SOL    HW213869   3.435   2.879   2.138
 4499SOL     OW13870   3.049   3.654   3.478
 4499SOL    HW113871   3.073   3.714   3.402
 4499SOL    HW213872   3.056   3.559   3.448
 4500SOL     OW13873   3.328   3.279   2.815
 4500SOL    HW113874   3.269   3.285   2.895
 4500SOL    HW213875   3.313   3.191   2.769
 4501SOL     OW13876   3.529   3.576   2.434
 4501SOL    HW113877   3.488   3.553   2.346
 4501SOL    HW213878   3.511   3.502   2.499
 4502SOL     OW13879   2.460   2.591   2.132
 4502SOL    HW113880   2.484   2.660   2.064
 4502SOL    HW213881   2.382   2.624   2.186
 4503SOL     OW13882   3.143   2.207   2.806
 4503SOL    HW113883   3.057   2.157   2.793
 4503SOL    HW213884   3.205   2.153   2.862
 4504SOL     OW13885   3.438   3.524   2.169
 4504SOL    HW113886   3.527   3.570   2.172
 4504SOL    HW213887   3.417   3.500   2.074
 4505SOL     OW13888   2.669   2.467   3.327
 4505SOL    HW113889   2.622   2.464   3.416
 4505SOL    HW213890   2.618   2.412   3.261
 4506SOL     OW13891   3.256   2.331   3.536
 4506SOL    HW113892   3.236   2.374   3.624
 4506SOL    HW213893   3.334   2.269   3.545
 4507SOL     OW13894   2.835   2.752   3.434
 4507SOL    HW113895   2.881   2.668   3.405
 4507SOL    HW213896   2.779   2.786   3.359
 4508SOL     OW13897   2.853   2.272   3.104
 4508SOL    HW113898   2.776   2.306   3.158
 4508SOL    HW213899   2.819   2.221   3.025
 4509SOL     OW13900   2.903   2.563   2.291
 4509SOL    HW113901   2.929   2.559   2.387
 4509SOL    HW213902   2.818   2.512   2.277
 4510SOL     OW13903   1.938   2.673   2.651
 4510SOL    HW113904   2.037   2.661   2.660
 4510SOL    HW213905   1.914   2.768   2.672
 4511SOL     OW13906   1.992   3.683   3.433
 4511SOL    HW113907   1.982   3.668   3.532
 4511SOL    HW213908   1.906   3.719   3.397
 4512SOL     OW13909   2.727   2.210   2.057
 4512SOL    HW113910   2.786   2.273   2.008
 4512SOL    HW213911   2.746   2.116   2.028
 4513SOL     OW13912   3.581   2.447   3.693
 4513SOL    HW113913   3.555   2.536   3.657
 4513SOL    HW213914   3.579   2.379   3.620
 4514SOL     OW13915   3.224   3.006   2.407
 4514SOL    HW113916   3.307   2.977   2.359
 4514SOL    HW213917   3.175   3.073   2.351
 4515SOL     OW13918   2.412   2.058   2.747
 4515SOL    HW113919   2.407   2.053   2.847
 4515SOL    HW213920   2.414   2.154   2.718
 4516SOL     OW13921   2.870   3.318   2.339
 4516SOL    HW113922   2.824   3.390   2.287
 4516SOL    HW213923   2.866   3.338   2.437
 4517SOL     OW13924   2.213   3.663   2.715
 4517SOL    HW113925   2.263   3.577   2.721
 4517SOL    HW213926   2.278   3.740   2.712
 4518SOL     OW13927   3.657   2.928   2.735
 4518SOL    HW113928   3.595   2.913   2.659
 4518SOL    HW213929   3.605   2.939   2.820
 4519SOL     OW13930   3.089   3.412   3.368
 4519SOL    HW113931   3.095   3.335   3.432
 4519SOL    HW213932   3.037   3.386   3.288
 4520SOL     OW13933   2.183   2.805   2.104
 4520SOL    HW113934   2.265   2.844   2.062
 4520SOL    HW213935   2.156   2.723   2.055
 4521SOL     OW13936   3.320   2.597   2.590
 4521SOL    HW113937   3.315   2.532   2.665
 4521SOL    HW213938   3.400   2.656   2.603
 4522SOL     OW13939   2.323   3.128   3.589
 4522SOL    HW113940   2.273   3.129   3.503
 4522SOL    HW213941   2.260   3.110   3.665
 4523SOL     OW13942   2.973   3.638   2.099
 4523SOL    HW113943   2.913   3.576   2.149
 4523SOL    HW213944   3.004   3.594   2.014
 4524SOL     OW13945   2.064   2.147   3.360
 4524SOL    HW113946   1.984   2.207   3.347
 4524SOL    HW213947   2.054   2.098   3.446
 4525SOL     OW13948   3.494   3.239   1.943
 4525SOL    HW113949   3.462   3.333   1.933
 4525SOL    HW213950   3.418   3.176   1.931
 4526SOL     OW13951   2.326   3.605   2.185
 4526SOL    HW113952   2.359   3.644   2.271
 4526SOL    HW213953   2.402   3.598   2.120
 4527SOL     OW13954   3.262   1.969   2.288
 4527SOL    HW113955   3.238   1.932   2.198
 4527SOL    HW213956   3.361   1.985   2.292
 4528SOL     OW13957   2.111   3.647   3.103
 4528SOL    HW113958   2.168   3.582   3.153
 4528SOL    HW213959   2.095   3.614   3.010
 4529SOL     OW13960   2.802   3.560   2.766
 4529SOL    HW113961   2.882   3.503   2.787
 4529SOL    HW213962   2.753   3.520   2.689
 4530SOL     OW13963   3.409   2.084   3.591
 4530SOL    HW113964   3.404   2.121   3.683
 4530SOL    HW213965   3.337   2.015   3.579
 4531SOL     OW13966   2.476   1.984   1.979
 4531SOL    HW113967   2.574   1.962   1.986
 4531SOL    HW213968   2.445   1.967   1.886
 4532SOL     OW13969   2.643   2.126   3.611
 4532SOL    HW113970   2.710   2.065   3.654
 4532SOL    HW213971   2.570   2.145   3.676
 4533SOL     OW13972   2.750   3.376   3.057
 4533SOL    HW113973   2.727   3.351   2.963
 4533SOL    HW213974   2.811   3.307   3.096
 4534SOL     OW13975   3.213   2.452   3.295
 4534SOL    HW113976   3.241   2.409   3.380
 4534SOL    HW213977   3.238   2.548   3.296
 4535SOL     OW13978   2.665   3.264   2.786
 4535SOL    HW113979   2.755   3.278   2.744
 4535SOL    HW213980   2.594   3.266   2.715
 4536SOL     OW13981   2.784   2.365   2.761
 4536SOL    HW113982   2.759   2.356   2.665
 4536SOL    HW213983   2.832   2.283   2.792
 4537SOL     OW13984   2.401   1.926   2.374
 4537SOL    HW113985   2.320   1.927   2.432
 4537SOL    HW213986   2.404   2.009   2.319
 4538SOL     OW13987   3.296   3.050   1.903
 4538SOL    HW113988   3.328   2.974   1.960
 4538SOL    HW213989   3.204   3.077   1.933
 4539SOL     OW13990   2.797   2.098   2.342
 4539SOL    HW113991   2.749   2.139   2.264
 4539SOL    HW213992   2.896   2.096   2.323
 4540SOL     OW13993   2.938   2.545   3.326
 4540SOL    HW113994   2.858   2.484   3.329
 4540SOL    HW213995   3.019   2.492   3.302
 4541SOL     OW13996   3.089   3.432   2.655
 4541SOL    HW113997   3.110   3.506   2.590
 4541SOL    HW213998   3.157   3.432   2.728
 4542SOL     OW13999   2.321   3.014   2.603
 4542SOL    HW114000   2.250   2.987   2.668
 4542SOL    HW214001   2.295   2.986   2.510
 4543SOL     OW14002   3.133   3.659   2.453
 4543SOL    HW114003   3.177   3.723   2.389
 4543SOL    HW214004   3.083   3.711   2.523
 4544SOL     OW14005   2.894   2.411   1.878
 4544SOL    HW114006   2.853   2.493   1.839
 4544SOL    HW214007   2.958   2.437   1.951
 4545SOL     OW14008   1.940   2.418   3.248
 4545SOL    HW114009   2.032   2.417   3.207
 4545SOL    HW214010   1.934   2.492   3.315
 4546SOL     OW14011   2.423   2.084   3.009
 4546SOL    HW114012   2.461   2.000   3.046
 4546SOL    HW214013   2.335   2.103   3.053
 4547SOL     OW14014   2.728   2.316   2.504
 4547SOL    HW114015   2.696   2.388   2.442
 4547SOL    HW214016   2.752   2.235   2.451
 4548SOL     OW14017   2.879   1.901   2.615
 4548SOL    HW114018   2.807   1.906   2.546
 4548SOL    HW214019   2.855   1.832   2.684
 4549SOL     OW14020   3.291   3.035   2.729
 4549SOL    HW114021   3.236   2.951   2.722
 4549SOL    HW214022   3.317   3.064   2.637
 4550SOL     OW14023   3.328   2.452   2.854
 4550SOL    HW114024   3.298   2.357   2.861
 4550SOL    HW214025   3.401   2.468   2.920
 4551SOL     OW14026   3.719   2.695   2.239
 4551SOL    HW114027   3.761   2.631   2.303
 4551SOL    HW214028   3.681   2.644   2.161
 4552SOL     OW14029   2.350   3.247   2.036
 4552SOL    HW114030   2.263   3.232   2.083
 4552SOL    HW214031   2.333   3.273   1.941
 4553SOL     OW14032   3.526   3.142   2.519
 4553SOL    HW114033   3.625   3.150   2.533
 4553SOL    HW214034   3.481   3.226   2.550
 4554SOL     OW14035   3.252   2.437   1.940
 4554SOL    HW114036   3.198   2.416   2.021
 4554SOL    HW214037   3.343   2.396   1.949
 4555SOL     OW14038   3.616   3.085   3.450
 4555SOL    HW114039   3.707   3.046   3.437
 4555SOL    HW214040   3.624   3.181   3.474
 4556SOL     OW14041   2.926   3.209   3.202
 4556SOL    HW114042   2.846   3.186   3.257
 4556SOL    HW214043   3.009   3.183   3.251
 4557SOL     OW14044   3.454   3.491   3.487
 4557SOL    HW114045   3.481   3.525   3.397
 4557SOL    HW214046   3.533   3.453   3.533
 4558SOL     OW14047   2.973   3.057   2.962
 4558SOL    HW114048   2.933   3.101   3.043
 4558SOL    HW214049   2.932   3.094   2.879
 4559SOL     OW14050   3.500   2.961   2.941
 4559SOL    HW114051   3.505   3.042   3.000
 4559SOL    HW214052   3.414   2.963   2.890
 4560SOL     OW14053   2.777   1.951   3.264
 4560SOL    HW114054   2.802   1.931   3.169
 4560SOL    HW214055   2.849   2.007   3.306
 4561SOL     OW14056   2.842   2.978   3.581
 4561SOL    HW114057   2.743   2.984   3.591
 4561SOL    HW214058   2.865   2.898   3.525
 4562SOL     OW14059   2.567   2.912   2.230
 4562SOL    HW114060   2.553   2.919   2.329
 4562SOL    HW214061   2.651   2.861   2.212
 4563SOL     OW14062   2.272   2.675   3.113
 4563SOL    HW114063   2.358   2.687   3.163
 4563SOL    HW214064   2.230   2.588   3.140
 4564SOL     OW14065   3.136   2.248   3.124
 4564SOL    HW114066   3.157   2.322   3.188
 4564SOL    HW214067   3.047   2.265   3.081
 4565SOL     OW14068   1.926   3.426   3.193
 4565SOL    HW114069   1.880   3.508   3.159
 4565SOL    HW214070   2.024   3.445   3.202
 4566SOL     OW14071   2.229   2.962   2.363
 4566SOL    HW114072   2.222   3.045   2.307
 4566SOL    HW214073   2.233   2.882   2.303
 4567SOL     OW14074   2.428   2.399   2.727
 4567SOL    HW114075   2.440   2.465   2.653
 4567SOL    HW214076   2.474   2.433   2.810
 4568SOL     OW14077   3.114   3.210   2.250
 4568SOL    HW114078   3.164   3.287   2.290
 4568SOL    HW214079   3.019   3.212   2.282
 4569SOL     OW14080   3.134   3.307   3.004
 4569SOL    HW114081   3.181   3.320   3.091
 4569SOL    HW214082   3.068   3.233   3.013
 4570SOL     OW14083   3.444   2.501   2.334
 4570SOL    HW114084   3.413   2.562   2.407
 4570SOL    HW214085   3.494   2.553   2.265
 4571SOL     OW14086   2.216   3.372   3.191
 4571SOL    HW114087   2.195   3.328   3.104
 4571SOL    HW214088   2.313   3.398   3.194
 4572SOL     OW14089   2.264   2.613   3.460
 4572SOL    HW114090   2.332   2.668   3.413
 4572SOL    HW214091   2.304   2.525   3.487
 4573SOL     OW14092   3.449   2.641   3.532
 4573SOL    HW114093   3.357   2.679   3.527
 4573SOL    HW214094   3.509   2.688   3.467
 4574SOL     OW14095   2.875   1.967   3.632
 4574SOL    HW114096   2.881   2.052   3.580
 4574SOL    HW214097   2.907   1.891   3.575
 4575SOL     OW14098   2.366   1.912   3.602
 4575SOL    HW114099   2.324   1.855   3.532
 4575SOL    HW214100   2.300   1.981   3.634
 4576SOL     OW14101   2.435   2.732   2.891
 4576SOL    HW114102   2.479   2.821   2.882
 4576SOL    HW214103   2.372   2.732   2.968
 4577SOL     OW14104   3.222   2.724   2.907
 4577SOL    HW114105   3.147   2.724   2.841
 4577SOL    HW214106   3.259   2.632   2.916
 4578SOL     OW14107   3.071   2.387   2.137
 4578SOL    HW114108   3.084   2.303   2.191
 4578SOL    HW214109   3.042   2.461   2.197
 4579SOL     OW14110   1.899   3.172   3.144
 4579SOL    HW114111   1.952   3.123   3.212
 4579SOL    HW214112   1.921   3.270   3.149
 4580SOL     OW14113   2.594   2.496   2.926
 4580SOL    HW114114   2.653   2.470   2.850
 4580SOL    HW214115   2.566   2.592   2.915
 4581SOL     OW14116   3.590   2.797   3.716
 4581SOL    HW114117   3.544   2.790   3.627
 4581SOL    HW214118   3.528   2.841   3.782
 4582SOL     OW14119   3.484   2.229   2.236
 4582SOL    HW114120   3.486   2.153   2.300
 4582SOL    HW214121   3.436   2.306   2.276
 4583SOL     OW14122   2.885   2.628   2.828
 4583SOL    HW114123   2.900   2.649   2.924
 4583SOL    HW214124   2.855   2.533   2.819
 4584SOL     OW14125   2.842   3.435   3.562
 4584SOL    HW114126   2.822   3.479   3.474
 4584SOL    HW214127   2.881   3.344   3.546
 4585SOL     OW14128   3.721   3.380   3.467
 4585SOL    HW114129   3.735   3.407   3.372
 4585SOL    HW214130   3.804   3.402   3.520
 4586SOL     OW14131   2.212   2.760   3.666
 4586SOL    HW114132   2.288   2.804   3.714
 4586SOL    HW214133   2.247   2.713   3.584
 4587SOL     OW14134   3.402   2.136   1.987
 4587SOL    HW114135   3.341   2.061   2.010
 4587SOL    HW214136   3.424   2.188   2.070
 4588SOL     OW14137   3.165   2.700   1.904
 4588SOL    HW114138   3.199   2.607   1.919
 4588SOL    HW214139   3.183   2.727   1.809
 4589SOL     OW14140   2.930   3.195   2.711
 4589SOL    HW114141   2.937   3.111   2.656
 4589SOL    HW214142   2.992   3.264   2.675
 4590SOL     OW14143   2.181   2.672   2.811
 4590SOL    HW114144   2.274   2.708   2.816
 4590SOL    HW214145   2.175   2.587   2.863
 4591SOL     OW14146   3.000   2.242   3.540
 4591SOL    HW114147   2.955   2.305   3.604
 4591SOL    HW214148   3.093   2.273   3.523
 4592SOL     OW14149   3.022   2.069   3.339
 4592SOL    HW114150   3.022   2.133   3.416
 4592SOL    HW214151   3.050   2.117   3.256
 4593SOL     OW14152   1.870   3.188   2.062
 4593SOL    HW114153   1.777   3.209   2.031
 4593SOL    HW214154   1.880   3.089   2.075
 4594SOL     OW14155   1.950   3.663   2.789
 4594SOL    HW114156   1.908   3.577   2.762
 4594SOL    HW214157   2.044   3.666   2.755
 4595SOL     OW14158   2.366   3.430   2.772
 4595SOL    HW114159   2.432   3.504   2.781
 4595SOL    HW214160   2.410   3.351   2.730
 4596SOL     OW14161   2.864   2.658   3.100
 4596SOL    HW114162   2.905   2.626   3.186
 4596SOL    HW214163   2.768   2.631   3.097
 4597SOL     OW14164   1.902   2.406   2.976
 4597SOL    HW114165   1.987   2.373   2.935
 4597SOL    HW214166   1.915   2.421   3.074
 4598SOL     OW14167   3.231   2.812   3.522
 4598SOL    HW114168   3.270   2.901   3.542
 4598SOL    HW214169   3.241   2.792   3.425
 4599SOL     OW14170   2.677   2.434   2.187
 4599SOL    HW114171   2.684   2.345   2.141
 4599SOL    HW214172   2.583   2.468   2.179
 4600SOL     OW14173   3.519   2.466   3.068
 4600SOL    HW114174   3.481   2.397   3.130
 4600SOL    HW214175   3.601   2.430   3.024
 4601SOL     OW14176   2.114   3.426   3.606
 4601SOL    HW114177   2.084   3.483   3.682
 4601SOL    HW214178   2.107   3.329   3.632
 4602SOL     OW14179   2.792   3.540   3.327
 4602SOL    HW114180   2.768   3.522   3.232
 4602SOL    HW214181   2.822   3.634   3.337
 4603SOL     OW14182   2.021   2.999   3.328
 4603SOL    HW114183   2.043   2.938   3.404
 4603SOL    HW214184   2.031   2.950   3.242
 4604SOL     OW14185   3.209   2.921   3.096
 4604SOL    HW114186   3.233   2.858   3.022
 4604SOL    HW214187   3.119   2.961   3.078
 4605SOL     OW14188   3.164   2.717   2.171
 4605SOL    HW114189   3.078   2.686   2.213
 4605SOL    HW214190   3.160   2.703   2.072
 4606SOL     OW14191   3.621   3.609   3.016
 4606SOL    HW114192   3.682   3.639   2.943
 4606SOL    HW214193   3.583   3.520   2.994
 4607SOL     OW14194   3.114   3.593   2.990
 4607SOL    HW114195   3.198   3.598   2.936
 4607SOL    HW214196   3.091   3.497   3.008
 4608SOL     OW14197   1.945   3.120   2.884
 4608SOL    HW114198   1.940   3.119   2.984
 4608SOL    HW214199   1.862   3.079   2.846
 4609SOL     OW14200   2.550   3.524   3.578
 4609SOL    HW114201   2.494   3.605   3.587
 4609SOL    HW214202   2.602   3.528   3.492
 4610SOL     OW14203   3.588   1.997   2.385
 4610SOL    HW114204   3.661   1.980   2.318
 4610SOL    HW214205   3.557   1.910   2.423
 4611SOL     OW14206   3.250   3.435   2.339
 4611SOL    HW114207   3.317   3.447   2.265
 4611SOL    HW214208   3.210   3.524   2.362
 4612SOL     OW14209   1.992   3.656   3.713
 4612SOL    HW114210   1.951   3.582   3.766
 4612SOL    HW214211   2.056   3.707   3.771
 4613SOL     OW14212   3.142   2.789   2.534
 4613SOL    HW114213   3.202   2.708   2.536
 4613SOL    HW214214   3.182   2.858   2.474
 4614SOL     OW14215   2.692   3.135   3.284
 4614SOL    HW114216   2.687   3.168   3.379
 4614SOL    HW214217   2.606   3.154   3.238
 4615SOL     OW14218   2.534   3.478   2.016
 4615SOL    HW114219   2.543   3.488   1.917
 4615SOL    HW214220   2.494   3.389   2.037
 4616SOL     OW14221   3.512   3.582   3.256
 4616SOL    HW114222   3.565   3.592   3.172
 4616SOL    HW214223   3.485   3.672   3.290
 4617SOL     OW14224   3.703   2.037   2.825
 4617SOL    HW114225   3.742   1.952   2.789
 4617SOL    HW214226   3.605   2.039   2.806
 4618SOL     OW14227   3.056   3.474   1.893
 4618SOL    HW114228   3.062   3.381   1.930
 4618SOL    HW214229   2.997   3.474   1.813
 4619SOL     OW14230   2.684   2.864   3.234
 4619SOL    HW114231   2.724   2.863   3.142
 4619SOL    HW214232   2.694   2.956   3.274
 4620SOL     OW14233   2.778   2.772   2.153
 4620SOL    HW114234   2.841   2.810   2.085
 4620SOL    HW214235   2.818   2.689   2.192
 4621SOL     OW14236   3.366   3.469   1.906
 4621SOL    HW114237   3.274   3.506   1.913
 4621SOL    HW214238   3.404   3.489   1.816
 4622SOL     OW14239   2.234   3.150   3.352
 4622SOL    HW114240   2.221   3.243   3.318
 4622SOL    HW214241   2.150   3.098   3.339
 4623SOL     OW14242   3.476   3.154   3.151
 4623SOL    HW114243   3.536   3.157   3.231
 4623SOL    HW214244   3.401   3.218   3.164
 4624SOL     OW14245   2.901   2.960   2.558
 4624SOL    HW114246   2.831   2.913   2.612
 4624SOL    HW214247   2.960   2.892   2.515
 4625SOL     OW14248   2.876   2.098   2.833
 4625SOL    HW114249   2.868   2.062   2.740
 4625SOL    HW214250   2.874   2.022   2.898
 4626SOL     OW14251   2.452   3.349   2.353
 4626SOL    HW114252   2.494   3.291   2.283
 4626SOL    HW214253   2.408   3.428   2.309
 4627SOL     OW14254   3.571   2.247   3.243
 4627SOL    HW114255   3.644   2.316   3.247
 4627SOL    HW214256   3.599   2.172   3.184
 4628SOL     OW14257   2.117   3.210   2.152
 4628SOL    HW114258   2.021   3.211   2.125
 4628SOL    HW214259   2.129   3.263   2.236
 4629SOL     OW14260   1.967   2.875   3.588
 4629SOL    HW114261   1.890   2.842   3.642
 4629SOL    HW214262   2.052   2.845   3.630
 4630SOL     OW14263   2.534   2.065   3.351
 4630SOL    HW114264   2.624   2.049   3.311
 4630SOL    HW214265   2.542   2.070   3.450
 4631SOL     OW14266   1.937   2.207   1.895
 4631SOL    HW114267   1.845   2.179   1.866
 4631SOL    HW214268   1.968   2.284   1.839
 4632SOL     OW14269   3.302   2.718   3.260
 4632SOL    HW114270   3.245   2.770   3.197
 4632SOL    HW214271   3.398   2.730   3.236
 4633SOL     OW14272   1.934   2.028   2.180
 4633SOL    HW114273   1.917   2.111   2.126
 4633SOL    HW214274   2.024   1.991   2.158
 4634SOL     OW14275   3.045   3.197   1.981
 4634SOL    HW114276   2.946   3.186   1.983
 4634SOL    HW214277   3.079   3.212   2.074
 4635SOL     OW14278   2.475   2.704   3.293
 4635SOL    HW114279   2.531   2.785   3.276
 4635SOL    HW214280   2.534   2.624   3.296
 4636SOL     OW14281   3.355   3.629   2.821
 4636SOL    HW114282   3.388   3.693   2.752
 4636SOL    HW214283   3.421   3.623   2.896
 4637SOL     OW14284   2.578   2.427   3.570
 4637SOL    HW114285   2.597   2.492   3.644
 4637SOL    HW214286   2.638   2.347   3.579
 4638SOL     OW14287   3.312   3.082   3.495
 4638SOL    HW114288   3.303   3.072   3.594
 4638SOL    HW214289   3.408   3.075   3.469
 4639SOL     OW14290   2.252   3.603   3.422
 4639SOL    HW114291   2.161   3.644   3.420
 4639SOL    HW214292   2.245   3.509   3.454
 4640SOL     OW14293   3.536   2.745   3.116
 4640SOL    HW114294   3.509   2.656   3.079
 4640SOL    HW214295   3.537   2.813   3.043
 4641SOL     OW14296   3.087   2.187   2.311
 4641SOL    HW114297   3.152   2.113   2.300
 4641SOL    HW214298   3.107   2.237   2.395
 4642SOL     OW14299   2.456   2.607   2.514
 4642SOL    HW114300   2.506   2.692   2.495
 4642SOL    HW214301   2.368   2.609   2.466
 4643SOL     OW14302   3.639   2.204   3.504
 4643SOL    HW114303   3.622   2.235   3.410
 4643SOL    HW214304   3.555   2.167   3.542
 4644SOL     OW14305   3.592   2.796   3.379
 4644SOL    HW114306   3.630   2.887   3.394
 4644SOL    HW214307   3.584   2.779   3.280
 4645SOL     OW14308   2.721   3.236   1.878
 4645SOL    HW114309   2.675   3.251   1.966
 4645SOL    HW214310   2.765   3.321   1.848
 4646SOL     OW14311   2.523   3.652   2.815
 4646SOL    HW114312   2.477   3.740   2.802
 4646SOL    HW214313   2.622   3.664   2.808
 4647SOL     OW14314   2.721   2.818   2.723
 4647SOL    HW114315   2.775   2.749   2.771
 4647SOL    HW214316   2.689   2.887   2.789
 4648SOL     OW14317   2.945   2.846   1.949
 4648SOL    HW114318   2.922   2.899   1.867
 4648SOL    HW214319   3.026   2.790   1.930
 4649SOL     OW14320   3.723   3.431   2.713
 4649SOL    HW114321   3.652   3.419   2.643
 4649SOL    HW214322   3.724   3.352   2.773
 4650SOL     OW14323   2.083   3.176   3.706
 4650SOL    HW114324   2.018   3.103   3.685
 4650SOL    HW214325   2.087   3.190   3.804
 4651SOL     OW14326   1.941   3.102   2.515
 4651SOL    HW114327   1.940   3.055   2.603
 4651SOL    HW214328   2.023   3.074   2.464
 4652SOL     OW14329   2.534   3.253   3.486
 4652SOL    HW114330   2.456   3.203   3.524
 4652SOL    HW214331   2.531   3.348   3.517
 4653SOL     OW14332   3.686   2.054   3.089
 4653SOL    HW114333   3.682   1.964   3.133
 4653SOL    HW214334   3.689   2.043   2.990
 4654SOL     OW14335   3.567   3.349   2.966
 4654SOL    HW114336   3.474   3.324   2.939
 4654SOL    HW214337   3.593   3.299   3.048
 4655SOL     OW14338   2.674   3.448   2.549
 4655SOL    HW114339   2.706   3.458   2.455
 4655SOL    HW214340   2.595   3.386   2.551
 4656SOL     OW14341   3.286   2.076   2.974
 4656SOL    HW114342   3.338   2.011   3.029
 4656SOL    HW214343   3.237   2.139   3.035
 4657SOL     OW14344   2.863   1.896   3.016
 4657SOL    HW114345   2.800   1.824   2.985
 4657SOL    HW214346   2.956   1.860   3.016
 4658SOL     OW14347   2.632   3.192   2.163
 4658SOL    HW114348   2.586   3.105   2.180
 4658SOL    HW214349   2.723   3.189   2.204
 4659SOL     OW14350   2.480   3.429   3.146
 4659SOL    HW114351   2.475   3.511   3.203
 4659SOL    HW214352   2.569   3.426   3.101
 4660SOL     OW14353   3.214   1.914   2.030
 4660SOL    HW114354   3.249   1.873   1.946
 4660SOL    HW214355   3.124   1.876   2.050
 4661SOL     OW14356   3.162   2.315   2.553
 4661SOL    HW114357   3.103   2.395   2.557
 4661SOL    HW214358   3.177   2.280   2.646
 4662SOL     OW14359   3.455   2.083   2.744
 4662SOL    HW114360   3.371   2.082   2.798
 4662SOL    HW214361   3.457   2.166   2.688
 4663SOL     OW14362   1.901   2.939   2.162
 4663SOL    HW114363   2.000   2.928   2.153
 4663SOL    HW214364   1.861   2.853   2.194
 4664SOL     OW14365   2.737   3.508   2.199
 4664SOL    HW114366   2.660   3.473   2.145
 4664SOL    HW214367   2.705   3.579   2.261
 4665SOL     OW14368   2.092   2.490   3.837
 4665SOL    HW114369   1.999   2.488   3.874
 4665SOL    HW214370   2.093   2.451   3.745
 4666SOL     OW14371   1.881   2.230   4.371
 4666SOL    HW114372   1.799   2.273   4.410
 4666SOL    HW214373   1.853   2.157   4.308
 4667SOL     OW14374   2.431   3.137   4.889
 4667SOL    HW114375   2.338   3.130   4.852
 4667SOL    HW214376   2.442   3.226   4.933
 4668SOL     OW14377   3.417   3.373   4.427
 4668SOL    HW114378   3.360   3.357   4.508
 4668SOL    HW214379   3.358   3.383   4.347
 4669SOL     OW14380   2.997   2.565   4.441
 4669SOL    HW114381   3.054   2.643   4.416
 4669SOL    HW214382   2.937   2.591   4.517
 4670SOL     OW14383   3.617   2.469   3.955
 4670SOL    HW114384   3.605   2.456   3.856
 4670SOL    HW214385   3.587   2.388   4.004
 4671SOL     OW14386   2.630   3.006   4.747
 4671SOL    HW114387   2.552   3.023   4.807
 4671SOL    HW214388   2.664   3.093   4.711
 4672SOL     OW14389   2.547   2.874   4.389
 4672SOL    HW114390   2.616   2.858   4.459
 4672SOL    HW214391   2.474   2.931   4.427
 4673SOL     OW14392   2.197   3.297   4.785
 4673SOL    HW114393   2.119   3.266   4.732
 4673SOL    HW214394   2.255   3.355   4.728
 4674SOL     OW14395   3.322   3.367   5.063
 4674SOL    HW114396   3.346   3.461   5.089
 4674SOL    HW214397   3.306   3.313   5.145
 4675SOL     OW14398   3.465   2.309   4.461
 4675SOL    HW114399   3.391   2.355   4.411
 4675SOL    HW214400   3.516   2.377   4.514
 4676SOL     OW14401   2.093   3.575   4.207
 4676SOL    HW114402   2.127   3.652   4.261
 4676SOL    HW214403   2.137   3.575   4.117
 4677SOL     OW14404   2.989   3.203   5.414
 4677SOL    HW114405   3.036   3.203   5.502
 4677SOL    HW214406   2.941   3.116   5.403
 4678SOL     OW14407   2.092   3.296   4.262
 4678SOL    HW114408   2.066   3.392   4.262
 4678SOL    HW214409   2.021   3.242   4.307
 4679SOL     OW14410   2.102   2.953   4.610
 4679SOL    HW114411   2.116   2.869   4.662
 4679SOL    HW214412   2.047   3.017   4.665
 4680SOL     OW14413   2.482   3.648   5.163
 4680SOL    HW114414   2.390   3.631   5.198
 4680SOL    HW214415   2.510   3.740   5.189
 4681SOL     OW14416   2.468   2.826   3.847
 4681SOL    HW114417   2.475   2.910   3.793
 4681SOL    HW214418   2.514   2.839   3.935
 4682SOL     OW14419   3.456   1.976   5.204
 4682SOL    HW114420   3.438   2.043   5.132
 4682SOL    HW214421   3.453   2.022   5.293
 4683SOL     OW14422   1.984   2.505   4.287
 4683SOL    HW114423   1.939   2.417   4.304
 4683SOL    HW214424   1.983   2.559   4.371
 4684SOL     OW14425   3.704   3.629   4.083
 4684SOL    HW114426   3.758   3.600   4.163
 4684SOL    HW214427   3.734   3.719   4.054
 4685SOL     OW14428   1.889   3.458   3.841
 4685SOL    HW114429   1.870   3.362   3.862
 4685SOL    HW214430   1.856   3.516   3.916
 4686SOL     OW14431   3.551   2.784   4.336
 4686SOL    HW114432   3.646   2.755   4.344
 4686SOL    HW214433   3.543   2.849   4.261
 4687SOL     OW14434   3.503   2.970   4.156
 4687SOL    HW114435   3.589   2.972   4.104
 4687SOL    HW214436   3.517   3.017   4.244
 4688SOL     OW14437   1.975   2.599   5.321
 4688SOL    HW114438   2.063   2.586   5.366
 4688SOL    HW214439   1.962   2.696   5.299
 4689SOL     OW14440   2.475   3.227   4.450
 4689SOL    HW114441   2.426   3.140   4.459
 4689SOL    HW214442   2.452   3.270   4.363
 4690SOL     OW14443   3.155   3.090   5.147
 4690SOL    HW114444   3.192   3.017   5.089
 4690SOL    HW214445   3.207   3.095   5.232
 4691SOL     OW14446   2.671   1.866   4.226
 4691SOL    HW114447   2.711   1.957   4.217
 4691SOL    HW214448   2.571   1.874   4.232
 4692SOL     OW14449   2.059   2.838   4.988
 4692SOL    HW114450   2.148   2.793   4.974
 4692SOL    HW214451   1.986   2.773   4.969
 4693SOL     OW14452   3.387   2.861   3.914
 4693SOL    HW114453   3.324   2.785   3.927
 4693SOL    HW214454   3.435   2.879   4.000
 4694SOL     OW14455   3.049   3.654   5.340
 4694SOL    HW114456   3.073   3.714   5.264
 4694SOL    HW214457   3.056   3.559   5.310
 4695SOL     OW14458   3.328   3.279   4.677
 4695SOL    HW114459   3.269   3.285   4.757
 4695SOL    HW214460   3.313   3.191   4.631
 4696SOL     OW14461   3.529   3.576   4.296
 4696SOL    HW114462   3.488   3.553   4.208
 4696SOL    HW214463   3.511   3.502   4.361
 4697SOL     OW14464   2.460   2.591   3.994
 4697SOL    HW114465   2.484   2.660   3.926
 4697SOL    HW214466   2.382   2.624   4.048
 4698SOL     OW14467   3.143   2.207   4.668
 4698SOL    HW114468   3.057   2.157   4.655
 4698SOL    HW214469   3.205   2.153   4.724
 4699SOL     OW14470   3.438   3.524   4.031
 4699SOL    HW114471   3.527   3.570   4.034
 4699SOL    HW214472   3.417   3.500   3.936
 4700SOL     OW14473   2.669   2.467   5.189
 4700SOL    HW114474   2.622   2.464   5.278
 4700SOL    HW214475   2.618   2.412   5.123
 4701SOL     OW14476   3.256   2.331   5.398
 4701SOL    HW114477   3.236   2.374   5.486
 4701SOL    HW214478   3.334   2.269   5.407
 4702SOL     OW14479   2.853   2.272   4.966
 4702SOL    HW114480   2.776   2.306   5.020
 4702SOL    HW214481   2.819   2.221   4.887
 4703SOL     OW14482   2.903   2.563   4.153
 4703SOL    HW114483   2.929   2.559   4.249
 4703SOL    HW214484   2.818   2.512   4.139
 4704SOL     OW14485   1.938   2.673   4.513
 4704SOL    HW114486   2.037   2.661   4.522
 4704SOL    HW214487   1.914   2.768   4.534
 4705SOL     OW14488   1.992   3.683   5.295
 4705SOL    HW114489   1.982   3.668   5.394
 4705SOL    HW214490   1.906   3.719   5.259
 4706SOL     OW14491   2.727   2.210   3.919
 4706SOL    HW114492   2.786   2.273   3.870
 4706SOL    HW214493   2.746   2.116   3.890
 4707SOL     OW14494   3.581   2.447   5.555
 4707SOL    HW114495   3.555   2.536   5.519
 4707SOL    HW214496   3.579   2.379   5.482
 4708SOL     OW14497   3.224   3.006   4.269
 4708SOL    HW114498   3.307   2.977   4.221
 4708SOL    HW214499   3.175   3.073   4.213
 4709SOL     OW14500   2.870   3.318   4.201
 4709SOL    HW114501   2.824   3.390   4.149
 4709SOL    HW214502   2.866   3.338   4.299
 4710SOL     OW14503   2.213   3.663   4.577
 4710SOL    HW114504   2.263   3.577   4.583
 4710SOL    HW214505   2.278   3.740   4.574
 4711SOL     OW14506   3.657   2.928   4.597
 4711SOL    HW114507   3.595   2.913   4.521
 4711SOL    HW214508   3.605   2.939   4.682
 4712SOL     OW14509   3.089   3.412   5.230
 4712SOL    HW114510   3.095   3.335   5.294
 4712SOL    HW214511   3.037   3.386   5.150
 4713SOL     OW14512   2.183   2.805   3.966
 4713SOL    HW114513   2.265   2.844   3.924
 4713SOL    HW214514   2.156   2.723   3.917
 4714SOL     OW14515   3.320   2.597   4.452
 4714SOL    HW114516   3.315   2.532   4.527
 4714SOL    HW214517   3.400   2.656   4.465
 4715SOL     OW14518   2.323   3.128   5.451
 4715SOL    HW114519   2.273   3.129   5.365
 4715SOL    HW214520   2.260   3.110   5.527
 4716SOL     OW14521   2.973   3.638   3.961
 4716SOL    HW114522   2.913   3.576   4.011
 4716SOL    HW214523   3.004   3.594   3.876
 4717SOL     OW14524   2.064   2.147   5.222
 4717SOL    HW114525   1.984   2.207   5.209
 4717SOL    HW214526   2.054   2.098   5.308
 4718SOL     OW14527   3.494   3.239   3.805
 4718SOL    HW114528   3.462   3.333   3.795
 4718SOL    HW214529   3.418   3.176   3.793
 4719SOL     OW14530   2.326   3.605   4.047
 4719SOL    HW114531   2.359   3.644   4.133
 4719SOL    HW214532   2.402   3.598   3.982
 4720SOL     OW14533   3.262   1.969   4.150
 4720SOL    HW114534   3.238   1.932   4.060
 4720SOL    HW214535   3.361   1.985   4.154
 4721SOL     OW14536   2.111   3.647   4.965
 4721SOL    HW114537   2.168   3.582   5.015
 4721SOL    HW214538   2.095   3.614   4.872
 4722SOL     OW14539   2.802   3.560   4.628
 4722SOL    HW114540   2.882   3.503   4.649
 4722SOL    HW214541   2.753   3.520   4.551
 4723SOL     OW14542   2.244   2.562   4.204
 4723SOL    HW114543   2.289   2.472   4.201
 4723SOL    HW214544   2.150   2.551   4.237
 4724SOL     OW14545   3.409   2.084   5.453
 4724SOL    HW114546   3.404   2.121   5.545
 4724SOL    HW214547   3.337   2.015   5.441
 4725SOL     OW14548   2.476   1.984   3.841
 4725SOL    HW114549   2.574   1.962   3.848
 4725SOL    HW214550   2.445   1.967   3.748
 4726SOL     OW14551   2.643   2.126   5.473
 4726SOL    HW114552   2.710   2.065   5.516
 4726SOL    HW214553   2.570   2.145   5.538
 4727SOL     OW14554   2.750   3.376   4.919
 4727SOL    HW114555   2.727   3.351   4.825
 4727SOL    HW214556   2.811   3.307   4.958
 4728SOL     OW14557   3.213   2.452   5.157
 4728SOL    HW114558   3.241   2.409   5.242
 4728SOL    HW214559   3.238   2.548   5.158
 4729SOL     OW14560   2.665   3.264   4.648
 4729SOL    HW114561   2.755   3.278   4.606
 4729SOL    HW214562   2.594   3.266   4.577
 4730SOL     OW14563   2.784   2.365   4.623
 4730SOL    HW114564   2.759   2.356   4.527
 4730SOL    HW214565   2.832   2.283   4.654
 4731SOL     OW14566   2.401   1.926   4.236
 4731SOL    HW114567   2.320   1.927   4.294
 4731SOL    HW214568   2.404   2.009   4.181
 4732SOL     OW14569   3.296   3.050   3.765
 4732SOL    HW114570   3.328   2.974   3.822
 4732SOL    HW214571   3.204   3.077   3.795
 4733SOL     OW14572   2.159   1.897   3.895
 4733SOL    HW114573   2.208   1.981   3.874
 4733SOL    HW214574   2.221   1.832   3.940
 4734SOL     OW14575   2.797   2.098   4.204
 4734SOL    HW114576   2.749   2.139   4.126
 4734SOL    HW214577   2.896   2.096   4.185
 4735SOL     OW14578   3.089   3.432   4.517
 4735SOL    HW114579   3.110   3.506   4.452
 4735SOL    HW214580   3.157   3.432   4.590
 4736SOL     OW14581   2.321   3.014   4.465
 4736SOL    HW114582   2.250   2.987   4.530
 4736SOL    HW214583   2.295   2.986   4.372
 4737SOL     OW14584   3.133   3.659   4.315
 4737SOL    HW114585   3.177   3.723   4.251
 4737SOL    HW214586   3.083   3.711   4.385
 4738SOL     OW14587   2.894   2.411   3.740
 4738SOL    HW114588   2.853   2.493   3.701
 4738SOL    HW214589   2.958   2.437   3.813
 4739SOL     OW14590   1.940   2.418   5.110
 4739SOL    HW114591   2.032   2.417   5.069
 4739SOL    HW214592   1.934   2.492   5.177
 4740SOL     OW14593   2.728   2.316   4.366
 4740SOL    HW114594   2.696   2.388   4.304
 4740SOL    HW214595   2.752   2.235   4.313
 4741SOL     OW14596   2.879   1.901   4.477
 4741SOL    HW114597   2.807   1.906   4.408
 4741SOL    HW214598   2.855   1.832   4.546
 4742SOL     OW14599   3.291   3.035   4.591
 4742SOL    HW114600   3.236   2.951   4.584
 4742SOL    HW214601   3.317   3.064   4.499
 4743SOL     OW14602   3.328   2.452   4.716
 4743SOL    HW114603   3.298   2.357   4.723
 4743SOL    HW214604   3.401   2.468   4.782
 4744SOL     OW14605   3.719   2.695   4.101
 4744SOL    HW114606   3.761   2.631   4.165
 4744SOL    HW214607   3.681   2.644   4.023
 4745SOL     OW14608   2.350   3.247   3.898
 4745SOL    HW114609   2.263   3.232   3.945
 4745SOL    HW214610   2.333   3.273   3.803
 4746SOL     OW14611   3.526   3.142   4.381
 4746SOL    HW114612   3.625   3.150   4.395
 4746SOL    HW214613   3.481   3.226   4.412
 4747SOL     OW14614   3.252   2.437   3.802
 4747SOL    HW114615   3.198   2.416   3.883
 4747SOL    HW214616   3.343   2.396   3.811
 4748SOL     OW14617   3.616   3.085   5.312
 4748SOL    HW114618   3.707   3.046   5.299
 4748SOL    HW214619   3.624   3.181   5.336
 4749SOL     OW14620   2.926   3.209   5.064
 4749SOL    HW114621   2.846   3.186   5.119
 4749SOL    HW214622   3.009   3.183   5.113
 4750SOL     OW14623   3.454   3.491   5.349
 4750SOL    HW114624   3.481   3.525   5.259
 4750SOL    HW214625   3.533   3.453   5.395
 4751SOL     OW14626   2.973   3.057   4.824
 4751SOL    HW114627   2.933   3.101   4.905
 4751SOL    HW214628   2.932   3.094   4.741
 4752SOL     OW14629   3.500   2.961   4.803
 4752SOL    HW114630   3.505   3.042   4.862
 4752SOL    HW214631   3.414   2.963   4.752
 4753SOL     OW14632   2.567   2.912   4.092
 4753SOL    HW114633   2.553   2.919   4.191
 4753SOL    HW214634   2.651   2.861   4.074
 4754SOL     OW14635   2.272   2.675   4.975
 4754SOL    HW114636   2.358   2.687   5.025
 4754SOL    HW214637   2.230   2.588   5.002
 4755SOL     OW14638   3.136   2.248   4.986
 4755SOL    HW114639   3.157   2.322   5.050
 4755SOL    HW214640   3.047   2.265   4.943
 4756SOL     OW14641   1.926   3.426   5.055
 4756SOL    HW114642   1.880   3.508   5.021
 4756SOL    HW214643   2.024   3.445   5.064
 4757SOL     OW14644   2.229   2.962   4.225
 4757SOL    HW114645   2.222   3.045   4.169
 4757SOL    HW214646   2.233   2.882   4.165
 4758SOL     OW14647   3.114   3.210   4.112
 4758SOL    HW114648   3.164   3.287   4.152
 4758SOL    HW214649   3.019   3.212   4.144
 4759SOL     OW14650   3.134   3.307   4.866
 4759SOL    HW114651   3.181   3.320   4.953
 4759SOL    HW214652   3.068   3.233   4.875
 4760SOL     OW14653   3.444   2.501   4.196
 4760SOL    HW114654   3.413   2.562   4.269
 4760SOL    HW214655   3.494   2.553   4.127
 4761SOL     OW14656   2.216   3.372   5.053
 4761SOL    HW114657   2.195   3.328   4.966
 4761SOL    HW214658   2.313   3.398   5.056
 4762SOL     OW14659   2.264   2.613   5.322
 4762SOL    HW114660   2.332   2.668   5.275
 4762SOL    HW214661   2.304   2.525   5.349
 4763SOL     OW14662   3.449   2.641   5.394
 4763SOL    HW114663   3.357   2.679   5.389
 4763SOL    HW214664   3.509   2.688   5.329
 4764SOL     OW14665   2.366   1.912   5.464
 4764SOL    HW114666   2.324   1.855   5.394
 4764SOL    HW214667   2.300   1.981   5.496
 4765SOL     OW14668   2.435   2.732   4.753
 4765SOL    HW114669   2.479   2.821   4.744
 4765SOL    HW214670   2.372   2.732   4.830
 4766SOL     OW14671   3.222   2.724   4.769
 4766SOL    HW114672   3.147   2.724   4.703
 4766SOL    HW214673   3.259   2.632   4.778
 4767SOL     OW14674   3.071   2.387   3.999
 4767SOL    HW114675   3.084   2.303   4.053
 4767SOL    HW214676   3.042   2.461   4.059
 4768SOL     OW14677   1.899   3.172   5.006
 4768SOL    HW114678   1.952   3.123   5.074
 4768SOL    HW214679   1.921   3.270   5.011
 4769SOL     OW14680   2.594   2.496   4.788
 4769SOL    HW114681   2.653   2.470   4.712
 4769SOL    HW214682   2.566   2.592   4.777
 4770SOL     OW14683   3.590   2.797   5.578
 4770SOL    HW114684   3.544   2.790   5.489
 4770SOL    HW214685   3.528   2.841   5.644
 4771SOL     OW14686   2.169   1.925   4.342
 4771SOL    HW114687   2.158   2.019   4.375
 4771SOL    HW214688   2.164   1.862   4.419
 4772SOL     OW14689   3.484   2.229   4.098
 4772SOL    HW114690   3.486   2.153   4.162
 4772SOL    HW214691   3.436   2.306   4.138
 4773SOL     OW14692   2.885   2.628   4.690
 4773SOL    HW114693   2.900   2.649   4.786
 4773SOL    HW214694   2.855   2.533   4.681
 4774SOL     OW14695   2.842   3.435   5.424
 4774SOL    HW114696   2.822   3.479   5.336
 4774SOL    HW214697   2.881   3.344   5.408
 4775SOL     OW14698   3.721   3.380   5.329
 4775SOL    HW114699   3.735   3.407   5.234
 4775SOL    HW214700   3.804   3.402   5.382
 4776SOL     OW14701   3.402   2.136   3.849
 4776SOL    HW114702   3.341   2.061   3.872
 4776SOL    HW214703   3.424   2.188   3.932
 4777SOL     OW14704   3.165   2.700   3.766
 4777SOL    HW114705   3.199   2.607   3.781
 4777SOL    HW214706   3.183   2.727   3.671
 4778SOL     OW14707   2.930   3.195   4.573
 4778SOL    HW114708   2.937   3.111   4.518
 4778SOL    HW214709   2.992   3.264   4.537
 4779SOL     OW14710   2.181   2.672   4.673
 4779SOL    HW114711   2.274   2.708   4.678
 4779SOL    HW214712   2.175   2.587   4.725
 4780SOL     OW14713   1.870   3.188   3.924
 4780SOL    HW114714   1.777   3.209   3.893
 4780SOL    HW214715   1.880   3.089   3.937
 4781SOL     OW14716   1.950   3.663   4.651
 4781SOL    HW114717   1.908   3.577   4.624
 4781SOL    HW214718   2.044   3.666   4.617
 4782SOL     OW14719   2.366   3.430   4.634
 4782SOL    HW114720   2.432   3.504   4.643
 4782SOL    HW214721   2.410   3.351   4.592
 4783SOL     OW14722   2.864   2.658   4.962
 4783SOL    HW114723   2.905   2.626   5.048
 4783SOL    HW214724   2.768   2.631   4.959
 4784SOL     OW14725   1.902   2.406   4.838
 4784SOL    HW114726   1.987   2.373   4.797
 4784SOL    HW214727   1.915   2.421   4.936
 4785SOL     OW14728   3.231   2.812   5.384
 4785SOL    HW114729   3.270   2.901   5.404
 4785SOL    HW214730   3.241   2.792   5.287
 4786SOL     OW14731   2.677   2.434   4.049
 4786SOL    HW114732   2.684   2.345   4.003
 4786SOL    HW214733   2.583   2.468   4.041
 4787SOL     OW14734   3.519   2.466   4.930
 4787SOL    HW114735   3.481   2.397   4.992
 4787SOL    HW214736   3.601   2.430   4.886
 4788SOL     OW14737   2.114   3.426   5.468
 4788SOL    HW114738   2.084   3.483   5.544
 4788SOL    HW214739   2.107   3.329   5.494
 4789SOL     OW14740   2.533   2.326   4.993
 4789SOL    HW114741   2.499   2.237   4.963
 4789SOL    HW214742   2.559   2.380   4.913
 4790SOL     OW14743   2.792   3.540   5.189
 4790SOL    HW114744   2.768   3.522   5.094
 4790SOL    HW214745   2.822   3.634   5.199
 4791SOL     OW14746   3.209   2.921   4.958
 4791SOL    HW114747   3.233   2.858   4.884
 4791SOL    HW214748   3.119   2.961   4.940
 4792SOL     OW14749   3.164   2.717   4.033
 4792SOL    HW114750   3.078   2.686   4.075
 4792SOL    HW214751   3.160   2.703   3.934
 4793SOL     OW14752   3.621   3.609   4.878
 4793SOL    HW114753   3.682   3.639   4.805
 4793SOL    HW214754   3.583   3.520   4.856
 4794SOL     OW14755   3.114   3.593   4.852
 4794SOL    HW114756   3.198   3.598   4.798
 4794SOL    HW214757   3.091   3.497   4.870
 4795SOL     OW14758   1.945   3.120   4.746
 4795SOL    HW114759   1.940   3.119   4.846
 4795SOL    HW214760   1.862   3.079   4.708
 4796SOL     OW14761   2.550   3.524   5.440
 4796SOL    HW114762   2.494   3.605   5.449
 4796SOL    HW214763   2.602   3.528   5.354
 4797SOL     OW14764   3.588   1.997   4.247
 4797SOL    HW114765   3.661   1.980   4.180
 4797SOL    HW214766   3.557   1.910   4.285
 4798SOL     OW14767   3.250   3.435   4.201
 4798SOL    HW114768   3.317   3.447   4.127
 4798SOL    HW214769   3.210   3.524   4.224
 4799SOL     OW14770   1.992   3.656   5.575
 4799SOL    HW114771   1.951   3.582   5.628
 4799SOL    HW214772   2.056   3.707   5.633
 4800SOL     OW14773   3.142   2.789   4.396
 4800SOL    HW114774   3.202   2.708   4.398
 4800SOL    HW214775   3.182   2.858   4.336
 4801SOL     OW14776   2.692   3.135   5.146
 4801SOL    HW114777   2.687   3.168   5.241
 4801SOL    HW214778   2.606   3.154   5.100
 4802SOL     OW14779   2.534   3.478   3.878
 4802SOL    HW114780   2.543   3.488   3.779
 4802SOL    HW214781   2.494   3.389   3.899
 4803SOL     OW14782   3.512   3.582   5.118
 4803SOL    HW114783   3.565   3.592   5.034
 4803SOL    HW214784   3.485   3.672   5.152
 4804SOL     OW14785   3.703   2.037   4.687
 4804SOL    HW114786   3.742   1.952   4.651
 4804SOL    HW214787   3.605   2.039   4.668
 4805SOL     OW14788   3.056   3.474   3.755
 4805SOL    HW114789   3.062   3.381   3.792
 4805SOL    HW214790   2.997   3.474   3.675
 4806SOL     OW14791   2.778   2.772   4.015
 4806SOL    HW114792   2.841   2.810   3.947
 4806SOL    HW214793   2.818   2.689   4.054
 4807SOL     OW14794   3.366   3.469   3.768
 4807SOL    HW114795   3.274   3.506   3.775
 4807SOL    HW214796   3.404   3.489   3.678
 4808SOL     OW14797   2.234   3.150   5.214
 4808SOL    HW114798   2.221   3.243   5.180
 4808SOL    HW214799   2.150   3.098   5.201
 4809SOL     OW14800   3.476   3.154   5.013
 4809SOL    HW114801   3.536   3.157   5.093
 4809SOL    HW214802   3.401   3.218   5.026
 4810SOL     OW14803   2.901   2.960   4.420
 4810SOL    HW114804   2.831   2.913   4.474
 4810SOL    HW214805   2.960   2.892   4.377
 4811SOL     OW14806   2.876   2.098   4.695
 4811SOL    HW114807   2.868   2.062   4.602
 4811SOL    HW214808   2.874   2.022   4.760
 4812SOL     OW14809   2.452   3.349   4.215
 4812SOL    HW114810   2.494   3.291   4.145
 4812SOL    HW214811   2.408   3.428   4.171
 4813SOL     OW14812   3.571   2.247   5.105
 4813SOL    HW114813   3.644   2.316   5.109
 4813SOL    HW214814   3.599   2.172   5.046
 4814SOL     OW14815   2.117   3.210   4.014
 4814SOL    HW114816   2.021   3.211   3.987
 4814SOL    HW214817   2.129   3.263   4.098
 4815SOL     OW14818   2.534   2.065   5.213
 4815SOL    HW114819   2.624   2.049   5.173
 4815SOL    HW214820   2.542   2.070   5.312
 4816SOL     OW14821   1.937   2.207   3.757
 4816SOL    HW114822   1.845   2.179   3.728
 4816SOL    HW214823   1.968   2.284   3.701
 4817SOL     OW14824   3.302   2.718   5.122
 4817SOL    HW114825   3.245   2.770   5.059
 4817SOL    HW214826   3.398   2.730   5.098
 4818SOL     OW14827   1.934   2.028   4.042
 4818SOL    HW114828   1.917   2.111   3.988
 4818SOL    HW214829   2.024   1.991   4.020
 4819SOL     OW14830   3.045   3.197   3.843
 4819SOL    HW114831   2.946   3.186   3.845
 4819SOL    HW214832   3.079   3.212   3.936
 4820SOL     OW14833   2.475   2.704   5.155
 4820SOL    HW114834   2.531   2.785   5.138
 4820SOL    HW214835   2.534   2.624   5.158
 4821SOL     OW14836   3.355   3.629   4.683
 4821SOL    HW114837   3.388   3.693   4.614
 4821SOL    HW214838   3.421   3.623   4.758
 4822SOL     OW14839   2.578   2.427   5.432
 4822SOL    HW114840   2.597   2.492   5.506
 4822SOL    HW214841   2.638   2.347   5.441
 4823SOL     OW14842   3.312   3.082   5.357
 4823SOL    HW114843   3.303   3.072   5.456
 4823SOL    HW214844   3.408   3.075   5.331
 4824SOL     OW14845   2.252   3.603   5.284
 4824SOL    HW114846   2.161   3.644   5.282
 4824SOL    HW214847   2.245   3.509   5.316
 4825SOL     OW14848   3.536   2.745   4.978
 4825SOL    HW114849   3.509   2.656   4.941
 4825SOL    HW214850   3.537   2.813   4.905
 4826SOL     OW14851   3.087   2.187   4.173
 4826SOL    HW114852   3.152   2.113   4.162
 4826SOL    HW214853   3.107   2.237   4.257
 4827SOL     OW14854   2.456   2.607   4.376
 4827SOL    HW114855   2.506   2.692   4.357
 4827SOL    HW214856   2.368   2.609   4.328
 4828SOL     OW14857   3.639   2.204   5.366
 4828SOL    HW114858   3.622   2.235   5.272
 4828SOL    HW214859   3.555   2.167   5.404
 4829SOL     OW14860   3.592   2.796   5.241
 4829SOL    HW114861   3.630   2.887   5.256
 4829SOL    HW214862   3.584   2.779   5.142
 4830SOL     OW14863   2.721   3.236   3.740
 4830SOL    HW114864   2.675   3.251   3.828
 4830SOL    HW214865   2.765   3.321   3.710
 4831SOL     OW14866   2.523   3.652   4.677
 4831SOL    HW114867   2.477   3.740   4.664
 4831SOL    HW214868   2.622   3.664   4.670
 4832SOL     OW14869   2.721   2.818   4.585
 4832SOL    HW114870   2.775   2.749   4.633
 4832SOL    HW214871   2.689   2.887   4.651
 4833SOL     OW14872   2.945   2.846   3.811
 4833SOL    HW114873   2.922   2.899   3.729
 4833SOL    HW214874   3.026   2.790   3.792
 4834SOL     OW14875   3.723   3.431   4.575
 4834SOL    HW114876   3.652   3.419   4.505
 4834SOL    HW214877   3.724   3.352   4.635
 4835SOL     OW14878   1.941   3.102   4.377
 4835SOL    HW114879   1.940   3.055   4.465
 4835SOL    HW214880   2.023   3.074   4.326
 4836SOL     OW14881   2.534   3.253   5.348
 4836SOL    HW114882   2.456   3.203   5.386
 4836SOL    HW214883   2.531   3.348   5.379
 4837SOL     OW14884   3.686   2.054   4.951
 4837SOL    HW114885   3.682   1.964   4.995
 4837SOL    HW214886   3.689   2.043   4.852
 4838SOL     OW14887   3.567   3.349   4.828
 4838SOL    HW114888   3.474   3.324   4.801
 4838SOL    HW214889   3.593   3.299   4.910
 4839SOL     OW14890   2.674   3.448   4.411
 4839SOL    HW114891   2.706   3.458   4.317
 4839SOL    HW214892   2.595   3.386   4.413
 4840SOL     OW14893   3.286   2.076   4.836
 4840SOL    HW114894   3.338   2.011   4.891
 4840SOL    HW214895   3.237   2.139   4.897
 4841SOL     OW14896   2.863   1.896   4.878
 4841SOL    HW114897   2.800   1.824   4.847
 4841SOL    HW214898   2.956   1.860   4.878
 4842SOL     OW14899   2.632   3.192   4.025
 4842SOL    HW114900   2.586   3.105   4.042
 4842SOL    HW214901   2.723   3.189   4.066
 4843SOL     OW14902   2.480   3.429   5.008
 4843SOL    HW114903   2.475   3.511   5.065
 4843SOL    HW214904   2.569   3.426   4.963
 4844SOL     OW14905   3.214   1.914   3.892
 4844SOL    HW114906   3.249   1.873   3.808
 4844SOL    HW214907   3.124   1.876   3.912
 4845SOL     OW14908   3.162   2.315   4.415
 4845SOL    HW114909   3.103   2.395   4.419
 4845SOL    HW214910   3.177   2.280   4.508
 4846SOL     OW14911   3.455   2.083   4.606
 4846SOL    HW114912   3.371   2.082   4.660
 4846SOL    HW214913   3.457   2.166   4.550
 4847SOL     OW14914   1.901   2.939   4.024
 4847SOL    HW114915   2.000   2.928   4.015
 4847SOL    HW214916   1.861   2.853   4.056
 4848SOL     OW14917   2.737   3.508   4.061
 4848SOL    HW114918   2.660   3.473   4.007
 4848SOL    HW214919   2.705   3.579   4.123
 4849SOL     OW14920   2.092   2.490   5.699
 4849SOL    HW114921   1.999   2.488   5.736
 4849SOL    HW214922   2.093   2.451   5.607
 4850SOL     OW14923   1.881   2.230   6.233
 4850SOL    HW114924   1.799   2.273   6.272
 4850SOL    HW214925   1.853   2.157   6.170
 4851SOL     OW14926   2.431   3.137   6.751
 4851SOL    HW114927   2.338   3.130   6.714
 4851SOL    HW214928   2.442   3.226   6.795
 4852SOL     OW14929   3.417   3.373   6.289
 4852SOL    HW114930   3.360   3.357   6.370
 4852SOL    HW214931   3.358   3.383   6.209
 4853SOL     OW14932   2.997   2.565   6.303
 4853SOL    HW114933   3.054   2.643   6.278
 4853SOL    HW214934   2.937   2.591   6.379
 4854SOL     OW14935   3.617   2.469   5.817
 4854SOL    HW114936   3.605   2.456   5.718
 4854SOL    HW214937   3.587   2.388   5.866
 4855SOL     OW14938   2.630   3.006   6.609
 4855SOL    HW114939   2.552   3.023   6.669
 4855SOL    HW214940   2.664   3.093   6.573
 4856SOL     OW14941   2.712   2.660   7.409
 4856SOL    HW114942   2.708   2.736   7.474
 4856SOL    HW214943   2.734   2.696   7.318
 4857SOL     OW14944   2.547   2.874   6.251
 4857SOL    HW114945   2.616   2.858   6.321
 4857SOL    HW214946   2.474   2.931   6.289
 4858SOL     OW14947   2.548   3.023   7.389
 4858SOL    HW114948   2.608   3.102   7.403
 4858SOL    HW214949   2.462   3.054   7.348
 4859SOL     OW14950   2.197   3.297   6.647
 4859SOL    HW114951   2.119   3.266   6.594
 4859SOL    HW214952   2.255   3.355   6.590
 4860SOL     OW14953   3.322   3.367   6.925
 4860SOL    HW114954   3.346   3.461   6.951
 4860SOL    HW214955   3.306   3.313   7.007
 4861SOL     OW14956   3.465   2.309   6.323
 4861SOL    HW114957   3.391   2.355   6.273
 4861SOL    HW214958   3.516   2.377   6.376
 4862SOL     OW14959   2.093   3.575   6.069
 4862SOL    HW114960   2.127   3.652   6.123
 4862SOL    HW214961   2.137   3.575   5.979
 4863SOL     OW14962   2.989   3.203   7.276
 4863SOL    HW114963   3.036   3.203   7.364
 4863SOL    HW214964   2.941   3.116   7.265
 4864SOL     OW14965   2.092   3.296   6.124
 4864SOL    HW114966   2.066   3.392   6.124
 4864SOL    HW214967   2.021   3.242   6.169
 4865SOL     OW14968   2.102   2.953   6.472
 4865SOL    HW114969   2.116   2.869   6.524
 4865SOL    HW214970   2.047   3.017   6.527
 4866SOL     OW14971   2.482   3.648   7.025
 4866SOL    HW114972   2.390   3.631   7.060
 4866SOL    HW214973   2.510   3.740   7.051
 4867SOL     OW14974   3.456   1.976   7.066
 4867SOL    HW114975   3.438   2.043   6.994
 4867SOL    HW214976   3.453   2.022   7.155
 4868SOL     OW14977   1.984   2.505   6.149
 4868SOL    HW114978   1.939   2.417   6.166
 4868SOL    HW214979   1.983   2.559   6.233
 4869SOL     OW14980   3.704   3.629   5.945
 4869SOL    HW114981   3.758   3.600   6.025
 4869SOL    HW214982   3.734   3.719   5.916
 4870SOL     OW14983   1.889   3.458   5.703
 4870SOL    HW114984   1.870   3.362   5.724
 4870SOL    HW214985   1.856   3.516   5.778
 4871SOL     OW14986   3.551   2.784   6.198
 4871SOL    HW114987   3.646   2.755   6.206
 4871SOL    HW214988   3.543   2.849   6.123
 4872SOL     OW14989   3.503   2.970   6.018
 4872SOL    HW114990   3.589   2.972   5.966
 4872SOL    HW214991   3.517   3.017   6.106
 4873SOL     OW14992   1.975   2.599   7.183
 4873SOL    HW114993   2.063   2.586   7.228
 4873SOL    HW214994   1.962   2.696   7.161
 4874SOL     OW14995   2.475   3.227   6.312
 4874SOL    HW114996   2.426   3.140   6.321
 4874SOL    HW214997   2.452   3.270   6.225
 4875SOL     OW14998   3.155   3.090   7.009
 4875SOL    HW114999   3.192   3.017   6.951
 4875SOL    HW215000   3.207   3.095   7.094
 4876SOL     OW15001   2.671   1.866   6.088
 4876SOL    HW115002   2.711   1.957   6.079
 4876SOL    HW215003   2.571   1.874   6.094
 4877SOL     OW15004   2.059   2.838   6.850
 4877SOL    HW115005   2.148   2.793   6.836
 4877SOL    HW215006   1.986   2.773   6.831
 4878SOL     OW15007   3.387   2.861   5.776
 4878SOL    HW115008   3.324   2.785   5.789
 4878SOL    HW215009   3.435   2.879   5.862
 4879SOL     OW15010   3.049   3.654   7.202
 4879SOL    HW115011   3.073   3.714   7.126
 4879SOL    HW215012   3.056   3.559   7.172
 4880SOL     OW15013   3.328   3.279   6.539
 4880SOL    HW115014   3.269   3.285   6.619
 4880SOL    HW215015   3.313   3.191   6.493
 4881SOL     OW15016   3.529   3.576   6.158
 4881SOL    HW115017   3.488   3.553   6.070
 4881SOL    HW215018   3.511   3.502   6.223
 4882SOL     OW15019   3.143   2.207   6.530
 4882SOL    HW115020   3.057   2.157   6.517
 4882SOL    HW215021   3.205   2.153   6.586
 4883SOL     OW15022   3.438   3.524   5.893
 4883SOL    HW115023   3.527   3.570   5.896
 4883SOL    HW215024   3.417   3.500   5.798
 4884SOL     OW15025   2.669   2.467   7.051
 4884SOL    HW115026   2.622   2.464   7.140
 4884SOL    HW215027   2.618   2.412   6.985
 4885SOL     OW15028   3.256   2.331   7.260
 4885SOL    HW115029   3.236   2.374   7.348
 4885SOL    HW215030   3.334   2.269   7.269
 4886SOL     OW15031   2.835   2.752   7.158
 4886SOL    HW115032   2.881   2.668   7.129
 4886SOL    HW215033   2.779   2.786   7.083
 4887SOL     OW15034   2.853   2.272   6.828
 4887SOL    HW115035   2.776   2.306   6.882
 4887SOL    HW215036   2.819   2.221   6.749
 4888SOL     OW15037   2.903   2.563   6.015
 4888SOL    HW115038   2.929   2.559   6.111
 4888SOL    HW215039   2.818   2.512   6.001
 4889SOL     OW15040   1.938   2.673   6.375
 4889SOL    HW115041   2.037   2.661   6.384
 4889SOL    HW215042   1.914   2.768   6.396
 4890SOL     OW15043   1.992   3.683   7.157
 4890SOL    HW115044   1.982   3.668   7.256
 4890SOL    HW215045   1.906   3.719   7.121
 4891SOL     OW15046   3.581   2.447   7.417
 4891SOL    HW115047   3.555   2.536   7.381
 4891SOL    HW215048   3.579   2.379   7.344
 4892SOL     OW15049   3.224   3.006   6.131
 4892SOL    HW115050   3.307   2.977   6.083
 4892SOL    HW215051   3.175   3.073   6.075
 4893SOL     OW15052   2.412   2.058   6.471
 4893SOL    HW115053   2.407   2.053   6.571
 4893SOL    HW215054   2.414   2.154   6.442
 4894SOL     OW15055   2.870   3.318   6.063
 4894SOL    HW115056   2.824   3.390   6.011
 4894SOL    HW215057   2.866   3.338   6.161
 4895SOL     OW15058   2.213   3.663   6.439
 4895SOL    HW115059   2.263   3.577   6.445
 4895SOL    HW215060   2.278   3.740   6.436
 4896SOL     OW15061   3.657   2.928   6.459
 4896SOL    HW115062   3.595   2.913   6.383
 4896SOL    HW215063   3.605   2.939   6.544
 4897SOL     OW15064   3.089   3.412   7.092
 4897SOL    HW115065   3.095   3.335   7.156
 4897SOL    HW215066   3.037   3.386   7.012
 4898SOL     OW15067   3.320   2.597   6.314
 4898SOL    HW115068   3.315   2.532   6.389
 4898SOL    HW215069   3.400   2.656   6.327
 4899SOL     OW15070   2.323   3.128   7.313
 4899SOL    HW115071   2.273   3.129   7.227
 4899SOL    HW215072   2.260   3.110   7.389
 4900SOL     OW15073   2.973   3.638   5.823
 4900SOL    HW115074   2.913   3.576   5.873
 4900SOL    HW215075   3.004   3.594   5.738
 4901SOL     OW15076   3.494   3.239   5.667
 4901SOL    HW115077   3.462   3.333   5.657
 4901SOL    HW215078   3.418   3.176   5.655
 4902SOL     OW15079   2.326   3.605   5.909
 4902SOL    HW115080   2.359   3.644   5.995
 4902SOL    HW215081   2.402   3.598   5.844
 4903SOL     OW15082   3.262   1.969   6.012
 4903SOL    HW115083   3.238   1.932   5.922
 4903SOL    HW215084   3.361   1.985   6.016
 4904SOL     OW15085   2.111   3.647   6.827
 4904SOL    HW115086   2.168   3.582   6.877
 4904SOL    HW215087   2.095   3.614   6.734
 4905SOL     OW15088   2.802   3.560   6.490
 4905SOL    HW115089   2.882   3.503   6.511
 4905SOL    HW215090   2.753   3.520   6.413
 4906SOL     OW15091   3.409   2.084   7.315
 4906SOL    HW115092   3.404   2.121   7.407
 4906SOL    HW215093   3.337   2.015   7.303
 4907SOL     OW15094   2.476   1.984   5.703
 4907SOL    HW115095   2.574   1.962   5.710
 4907SOL    HW215096   2.445   1.967   5.610
 4908SOL     OW15097   2.643   2.126   7.335
 4908SOL    HW115098   2.710   2.065   7.378
 4908SOL    HW215099   2.570   2.145   7.400
 4909SOL     OW15100   2.750   3.376   6.781
 4909SOL    HW115101   2.727   3.351   6.687
 4909SOL    HW215102   2.811   3.307   6.820
 4910SOL     OW15103   3.213   2.452   7.019
 4910SOL    HW115104   3.241   2.409   7.104
 4910SOL    HW215105   3.238   2.548   7.020
 4911SOL     OW15106   2.665   3.264   6.510
 4911SOL    HW115107   2.755   3.278   6.468
 4911SOL    HW215108   2.594   3.266   6.439
 4912SOL     OW15109   2.784   2.365   6.485
 4912SOL    HW115110   2.759   2.356   6.389
 4912SOL    HW215111   2.832   2.283   6.516
 4913SOL     OW15112   2.401   1.926   6.098
 4913SOL    HW115113   2.320   1.927   6.156
 4913SOL    HW215114   2.404   2.009   6.043
 4914SOL     OW15115   3.296   3.050   5.627
 4914SOL    HW115116   3.328   2.974   5.684
 4914SOL    HW215117   3.204   3.077   5.657
 4915SOL     OW15118   2.797   2.098   6.066
 4915SOL    HW115119   2.749   2.139   5.988
 4915SOL    HW215120   2.896   2.096   6.047
 4916SOL     OW15121   2.938   2.545   7.050
 4916SOL    HW115122   2.858   2.484   7.053
 4916SOL    HW215123   3.019   2.492   7.026
 4917SOL     OW15124   3.089   3.432   6.379
 4917SOL    HW115125   3.110   3.506   6.314
 4917SOL    HW215126   3.157   3.432   6.452
 4918SOL     OW15127   2.321   3.014   6.327
 4918SOL    HW115128   2.250   2.987   6.392
 4918SOL    HW215129   2.295   2.986   6.234
 4919SOL     OW15130   3.133   3.659   6.177
 4919SOL    HW115131   3.177   3.723   6.113
 4919SOL    HW215132   3.083   3.711   6.247
 4920SOL     OW15133   1.940   2.418   6.972
 4920SOL    HW115134   2.032   2.417   6.931
 4920SOL    HW215135   1.934   2.492   7.039
 4921SOL     OW15136   2.423   2.084   6.733
 4921SOL    HW115137   2.461   2.000   6.770
 4921SOL    HW215138   2.335   2.103   6.777
 4922SOL     OW15139   2.728   2.316   6.228
 4922SOL    HW115140   2.696   2.388   6.166
 4922SOL    HW215141   2.752   2.235   6.175
 4923SOL     OW15142   2.879   1.901   6.339
 4923SOL    HW115143   2.807   1.906   6.270
 4923SOL    HW215144   2.855   1.832   6.408
 4924SOL     OW15145   3.291   3.035   6.453
 4924SOL    HW115146   3.236   2.951   6.446
 4924SOL    HW215147   3.317   3.064   6.361
 4925SOL     OW15148   3.328   2.452   6.578
 4925SOL    HW115149   3.298   2.357   6.585
 4925SOL    HW215150   3.401   2.468   6.644
 4926SOL     OW15151   3.719   2.695   5.963
 4926SOL    HW115152   3.761   2.631   6.027
 4926SOL    HW215153   3.681   2.644   5.885
 4927SOL     OW15154   2.350   3.247   5.760
 4927SOL    HW115155   2.263   3.232   5.807
 4927SOL    HW215156   2.333   3.273   5.665
 4928SOL     OW15157   3.526   3.142   6.243
 4928SOL    HW115158   3.625   3.150   6.257
 4928SOL    HW215159   3.481   3.226   6.274
 4929SOL     OW15160   3.252   2.437   5.664
 4929SOL    HW115161   3.198   2.416   5.745
 4929SOL    HW215162   3.343   2.396   5.673
 4930SOL     OW15163   3.616   3.085   7.174
 4930SOL    HW115164   3.707   3.046   7.161
 4930SOL    HW215165   3.624   3.181   7.198
 4931SOL     OW15166   2.926   3.209   6.926
 4931SOL    HW115167   2.846   3.186   6.981
 4931SOL    HW215168   3.009   3.183   6.975
 4932SOL     OW15169   3.454   3.491   7.211
 4932SOL    HW115170   3.481   3.525   7.121
 4932SOL    HW215171   3.533   3.453   7.257
 4933SOL     OW15172   2.973   3.057   6.686
 4933SOL    HW115173   2.933   3.101   6.767
 4933SOL    HW215174   2.932   3.094   6.603
 4934SOL     OW15175   3.500   2.961   6.665
 4934SOL    HW115176   3.505   3.042   6.724
 4934SOL    HW215177   3.414   2.963   6.614
 4935SOL     OW15178   2.777   1.951   6.988
 4935SOL    HW115179   2.802   1.931   6.893
 4935SOL    HW215180   2.849   2.007   7.030
 4936SOL     OW15181   2.842   2.978   7.305
 4936SOL    HW115182   2.743   2.984   7.315
 4936SOL    HW215183   2.865   2.898   7.249
 4937SOL     OW15184   2.567   2.912   5.954
 4937SOL    HW115185   2.553   2.919   6.053
 4937SOL    HW215186   2.651   2.861   5.936
 4938SOL     OW15187   2.272   2.675   6.837
 4938SOL    HW115188   2.358   2.687   6.887
 4938SOL    HW215189   2.230   2.588   6.864
 4939SOL     OW15190   3.136   2.248   6.848
 4939SOL    HW115191   3.157   2.322   6.912
 4939SOL    HW215192   3.047   2.265   6.805
 4940SOL     OW15193   1.926   3.426   6.917
 4940SOL    HW115194   1.880   3.508   6.883
 4940SOL    HW215195   2.024   3.445   6.926
 4941SOL     OW15196   2.229   2.962   6.087
 4941SOL    HW115197   2.222   3.045   6.031
 4941SOL    HW215198   2.233   2.882   6.027
 4942SOL     OW15199   2.428   2.399   6.451
 4942SOL    HW115200   2.440   2.465   6.377
 4942SOL    HW215201   2.474   2.433   6.534
 4943SOL     OW15202   3.114   3.210   5.974
 4943SOL    HW115203   3.164   3.287   6.014
 4943SOL    HW215204   3.019   3.212   6.006
 4944SOL     OW15205   3.134   3.307   6.728
 4944SOL    HW115206   3.181   3.320   6.815
 4944SOL    HW215207   3.068   3.233   6.737
 4945SOL     OW15208   3.444   2.501   6.058
 4945SOL    HW115209   3.413   2.562   6.131
 4945SOL    HW215210   3.494   2.553   5.989
 4946SOL     OW15211   2.216   3.372   6.915
 4946SOL    HW115212   2.195   3.328   6.828
 4946SOL    HW215213   2.313   3.398   6.918
 4947SOL     OW15214   2.264   2.613   7.184
 4947SOL    HW115215   2.332   2.668   7.137
 4947SOL    HW215216   2.304   2.525   7.211
 4948SOL     OW15217   3.449   2.641   7.256
 4948SOL    HW115218   3.357   2.679   7.251
 4948SOL    HW215219   3.509   2.688   7.191
 4949SOL     OW15220   2.875   1.967   7.356
 4949SOL    HW115221   2.881   2.052   7.304
 4949SOL    HW215222   2.907   1.891   7.299
 4950SOL     OW15223   2.366   1.912   7.326
 4950SOL    HW115224   2.324   1.855   7.256
 4950SOL    HW215225   2.300   1.981   7.358
 4951SOL     OW15226   2.435   2.732   6.615
 4951SOL    HW115227   2.479   2.821   6.606
 4951SOL    HW215228   2.372   2.732   6.692
 4952SOL     OW15229   3.222   2.724   6.631
 4952SOL    HW115230   3.147   2.724   6.565
 4952SOL    HW215231   3.259   2.632   6.640
 4953SOL     OW15232   3.071   2.387   5.861
 4953SOL    HW115233   3.084   2.303   5.915
 4953SOL    HW215234   3.042   2.461   5.921
 4954SOL     OW15235   1.899   3.172   6.868
 4954SOL    HW115236   1.952   3.123   6.936
 4954SOL    HW215237   1.921   3.270   6.873
 4955SOL     OW15238   2.594   2.496   6.650
 4955SOL    HW115239   2.653   2.470   6.574
 4955SOL    HW215240   2.566   2.592   6.639
 4956SOL     OW15241   3.590   2.797   7.440
 4956SOL    HW115242   3.544   2.790   7.351
 4956SOL    HW215243   3.528   2.841   7.506
 4957SOL     OW15244   3.484   2.229   5.960
 4957SOL    HW115245   3.486   2.153   6.024
 4957SOL    HW215246   3.436   2.306   6.000
 4958SOL     OW15247   2.885   2.628   6.552
 4958SOL    HW115248   2.900   2.649   6.648
 4958SOL    HW215249   2.855   2.533   6.543
 4959SOL     OW15250   2.842   3.435   7.286
 4959SOL    HW115251   2.822   3.479   7.198
 4959SOL    HW215252   2.881   3.344   7.270
 4960SOL     OW15253   3.721   3.380   7.191
 4960SOL    HW115254   3.735   3.407   7.096
 4960SOL    HW215255   3.804   3.402   7.244
 4961SOL     OW15256   2.212   2.760   7.390
 4961SOL    HW115257   2.288   2.804   7.438
 4961SOL    HW215258   2.247   2.713   7.308
 4962SOL     OW15259   3.402   2.136   5.711
 4962SOL    HW115260   3.341   2.061   5.734
 4962SOL    HW215261   3.424   2.188   5.794
 4963SOL     OW15262   3.165   2.700   5.628
 4963SOL    HW115263   3.199   2.607   5.643
 4963SOL    HW215264   3.183   2.727   5.533
 4964SOL     OW15265   2.930   3.195   6.435
 4964SOL    HW115266   2.937   3.111   6.380
 4964SOL    HW215267   2.992   3.264   6.399
 4965SOL     OW15268   2.181   2.672   6.535
 4965SOL    HW115269   2.274   2.708   6.540
 4965SOL    HW215270   2.175   2.587   6.587
 4966SOL     OW15271   3.000   2.242   7.264
 4966SOL    HW115272   2.955   2.305   7.328
 4966SOL    HW215273   3.093   2.273   7.247
 4967SOL     OW15274   3.022   2.069   7.063
 4967SOL    HW115275   3.022   2.133   7.140
 4967SOL    HW215276   3.050   2.117   6.980
 4968SOL     OW15277   1.870   3.188   5.786
 4968SOL    HW115278   1.777   3.209   5.755
 4968SOL    HW215279   1.880   3.089   5.799
 4969SOL     OW15280   1.950   3.663   6.513
 4969SOL    HW115281   1.908   3.577   6.486
 4969SOL    HW215282   2.044   3.666   6.479
 4970SOL     OW15283   2.366   3.430   6.496
 4970SOL    HW115284   2.432   3.504   6.505
 4970SOL    HW215285   2.410   3.351   6.454
 4971SOL     OW15286   2.864   2.658   6.824
 4971SOL    HW115287   2.905   2.626   6.910
 4971SOL    HW215288   2.768   2.631   6.821
 4972SOL     OW15289   1.902   2.406   6.700
 4972SOL    HW115290   1.987   2.373   6.659
 4972SOL    HW215291   1.915   2.421   6.798
 4973SOL     OW15292   3.231   2.812   7.246
 4973SOL    HW115293   3.270   2.901   7.266
 4973SOL    HW215294   3.241   2.792   7.149
 4974SOL     OW15295   2.677   2.434   5.911
 4974SOL    HW115296   2.684   2.345   5.865
 4974SOL    HW215297   2.583   2.468   5.903
 4975SOL     OW15298   3.519   2.466   6.792
 4975SOL    HW115299   3.481   2.397   6.854
 4975SOL    HW215300   3.601   2.430   6.748
 4976SOL     OW15301   2.114   3.426   7.330
 4976SOL    HW115302   2.084   3.483   7.406
 4976SOL    HW215303   2.107   3.329   7.356
 4977SOL     OW15304   2.792   3.540   7.051
 4977SOL    HW115305   2.768   3.522   6.956
 4977SOL    HW215306   2.822   3.634   7.061
 4978SOL     OW15307   2.021   2.999   7.052
 4978SOL    HW115308   2.043   2.938   7.128
 4978SOL    HW215309   2.031   2.950   6.966
 4979SOL     OW15310   3.209   2.921   6.820
 4979SOL    HW115311   3.233   2.858   6.746
 4979SOL    HW215312   3.119   2.961   6.802
 4980SOL     OW15313   3.164   2.717   5.895
 4980SOL    HW115314   3.078   2.686   5.937
 4980SOL    HW215315   3.160   2.703   5.796
 4981SOL     OW15316   3.621   3.609   6.740
 4981SOL    HW115317   3.682   3.639   6.667
 4981SOL    HW215318   3.583   3.520   6.718
 4982SOL     OW15319   3.114   3.593   6.714
 4982SOL    HW115320   3.198   3.598   6.660
 4982SOL    HW215321   3.091   3.497   6.732
 4983SOL     OW15322   1.945   3.120   6.608
 4983SOL    HW115323   1.940   3.119   6.708
 4983SOL    HW215324   1.862   3.079   6.570
 4984SOL     OW15325   2.550   3.524   7.302
 4984SOL    HW115326   2.494   3.605   7.311
 4984SOL    HW215327   2.602   3.528   7.216
 4985SOL     OW15328   3.588   1.997   6.109
 4985SOL    HW115329   3.661   1.980   6.042
 4985SOL    HW215330   3.557   1.910   6.147
 4986SOL     OW15331   3.250   3.435   6.063
 4986SOL    HW115332   3.317   3.447   5.989
 4986SOL    HW215333   3.210   3.524   6.086
 4987SOL     OW15334   1.992   3.656   7.437
 4987SOL    HW115335   1.951   3.582   7.490
 4987SOL    HW215336   2.056   3.707   7.495
 4988SOL     OW15337   3.142   2.789   6.258
 4988SOL    HW115338   3.202   2.708   6.260
 4988SOL    HW215339   3.182   2.858   6.198
 4989SOL     OW15340   2.692   3.135   7.008
 4989SOL    HW115341   2.687   3.168   7.103
 4989SOL    HW215342   2.606   3.154   6.962
 4990SOL     OW15343   2.534   3.478   5.740
 4990SOL    HW115344   2.543   3.488   5.641
 4990SOL    HW215345   2.494   3.389   5.761
 4991SOL     OW15346   3.512   3.582   6.980
 4991SOL    HW115347   3.565   3.592   6.896
 4991SOL    HW215348   3.485   3.672   7.014
 4992SOL     OW15349   3.703   2.037   6.549
 4992SOL    HW115350   3.742   1.952   6.513
 4992SOL    HW215351   3.605   2.039   6.530
 4993SOL     OW15352   3.056   3.474   5.617
 4993SOL    HW115353   3.062   3.381   5.654
 4993SOL    HW215354   2.997   3.474   5.537
 4994SOL     OW15355   2.684   2.864   6.958
 4994SOL    HW115356   2.724   2.863   6.866
 4994SOL    HW215357   2.694   2.956   6.998
 4995SOL     OW15358   3.366   3.469   5.630
 4995SOL    HW115359   3.274   3.506   5.637
 4995SOL    HW215360   3.404   3.489   5.540
 4996SOL     OW15361   2.234   3.150   7.076
 4996SOL    HW115362   2.221   3.243   7.042
 4996SOL    HW215363   2.150   3.098   7.063
 4997SOL     OW15364   3.476   3.154   6.875
 4997SOL    HW115365   3.536   3.157   6.955
 4997SOL    HW215366   3.401   3.218   6.888
 4998SOL     OW15367   2.901   2.960   6.282
 4998SOL    HW115368   2.831   2.913   6.336
 4998SOL    HW215369   2.960   2.892   6.239
 4999SOL     OW15370   2.876   2.098   6.557
 4999SOL    HW115371   2.868   2.062   6.464
 4999SOL    HW215372   2.874   2.022   6.622
 5000SOL     OW15373   2.452   3.349   6.077
 5000SOL    HW115374   2.494   3.291   6.007
 5000SOL    HW215375   2.408   3.428   6.033
 5001SOL     OW15376   3.571   2.247   6.967
 5001SOL    HW115377   3.644   2.316   6.971
 5001SOL    HW215378   3.599   2.172   6.908
 5002SOL     OW15379   2.117   3.210   5.876
 5002SOL    HW115380   2.021   3.211   5.849
 5002SOL    HW215381   2.129   3.263   5.960
 5003SOL     OW15382   1.967   2.875   7.312
 5003SOL    HW115383   1.890   2.842   7.366
 5003SOL    HW215384   2.052   2.845   7.354
 5004SOL     OW15385   2.534   2.065   7.075
 5004SOL    HW115386   2.624   2.049   7.035
 5004SOL    HW215387   2.542   2.070   7.174
 5005SOL     OW15388   3.302   2.718   6.984
 5005SOL    HW115389   3.245   2.770   6.921
 5005SOL    HW215390   3.398   2.730   6.960
 5006SOL     OW15391   1.934   2.028   5.904
 5006SOL    HW115392   1.917   2.111   5.850
 5006SOL    HW215393   2.024   1.991   5.882
 5007SOL     OW15394   3.045   3.197   5.705
 5007SOL    HW115395   2.946   3.186   5.707
 5007SOL    HW215396   3.079   3.212   5.798
 5008SOL     OW15397   2.475   2.704   7.017
 5008SOL    HW115398   2.531   2.785   7.000
 5008SOL    HW215399   2.534   2.624   7.020
 5009SOL     OW15400   3.355   3.629   6.545
 5009SOL    HW115401   3.388   3.693   6.476
 5009SOL    HW215402   3.421   3.623   6.620
 5010SOL     OW15403   2.578   2.427   7.294
 5010SOL    HW115404   2.597   2.492   7.368
 5010SOL    HW215405   2.638   2.347   7.303
 5011SOL     OW15406   3.312   3.082   7.219
 5011SOL    HW115407   3.303   3.072   7.318
 5011SOL    HW215408   3.408   3.075   7.193
 5012SOL     OW15409   2.252   3.603   7.146
 5012SOL    HW115410   2.161   3.644   7.144
 5012SOL    HW215411   2.245   3.509   7.178
 5013SOL     OW15412   3.536   2.745   6.840
 5013SOL    HW115413   3.509   2.656   6.803
 5013SOL    HW215414   3.537   2.813   6.767
 5014SOL     OW15415   3.087   2.187   6.035
 5014SOL    HW115416   3.152   2.113   6.024
 5014SOL    HW215417   3.107   2.237   6.119
 5015SOL     OW15418   2.456   2.607   6.238
 5015SOL    HW115419   2.506   2.692   6.219
 5015SOL    HW215420   2.368   2.609   6.190
 5016SOL     OW15421   3.639   2.204   7.228
 5016SOL    HW115422   3.622   2.235   7.134
 5016SOL    HW215423   3.555   2.167   7.266
 5017SOL     OW15424   3.592   2.796   7.103
 5017SOL    HW115425   3.630   2.887   7.118
 5017SOL    HW215426   3.584   2.779   7.004
 5018SOL     OW15427   2.721   3.236   5.602
 5018SOL    HW115428   2.675   3.251   5.690
 5018SOL    HW215429   2.765   3.321   5.572
 5019SOL     OW15430   2.523   3.652   6.539
 5019SOL    HW115431   2.477   3.740   6.526
 5019SOL    HW215432   2.622   3.664   6.532
 5020SOL     OW15433   2.721   2.818   6.447
 5020SOL    HW115434   2.775   2.749   6.495
 5020SOL    HW215435   2.689   2.887   6.513
 5021SOL     OW15436   2.945   2.846   5.673
 5021SOL    HW115437   2.922   2.899   5.591
 5021SOL    HW215438   3.026   2.790   5.654
 5022SOL     OW15439   3.723   3.431   6.437
 5022SOL    HW115440   3.652   3.419   6.367
 5022SOL    HW215441   3.724   3.352   6.497
 5023SOL     OW15442   2.083   3.176   7.430
 5023SOL    HW115443   2.018   3.103   7.409
 5023SOL    HW215444   2.087   3.190   7.528
 5024SOL     OW15445   1.941   3.102   6.239
 5024SOL    HW115446   1.940   3.055   6.327
 5024SOL    HW215447   2.023   3.074   6.188
 5025SOL     OW15448   2.534   3.253   7.210
 5025SOL    HW115449   2.456   3.203   7.248
 5025SOL    HW215450   2.531   3.348   7.241
 5026SOL     OW15451   3.686   2.054   6.813
 5026SOL    HW115452   3.682   1.964   6.857
 5026SOL    HW215453   3.689   2.043   6.714
 5027SOL     OW15454   3.567   3.349   6.690
 5027SOL    HW115455   3.474   3.324   6.663
 5027SOL    HW215456   3.593   3.299   6.772
 5028SOL     OW15457   2.674   3.448   6.273
 5028SOL    HW115458   2.706   3.458   6.179
 5028SOL    HW215459   2.595   3.386   6.275
 5029SOL     OW15460   3.286   2.076   6.698
 5029SOL    HW115461   3.338   2.011   6.753
 5029SOL    HW215462   3.237   2.139   6.759
 5030SOL     OW15463   2.863   1.896   6.740
 5030SOL    HW115464   2.800   1.824   6.709
 5030SOL    HW215465   2.956   1.860   6.740
 5031SOL     OW15466   2.632   3.192   5.887
 5031SOL    HW115467   2.586   3.105   5.904
 5031SOL    HW215468   2.723   3.189   5.928
 5032SOL     OW15469   2.480   3.429   6.870
 5032SOL    HW115470   2.475   3.511   6.927
 5032SOL    HW215471   2.569   3.426   6.825
 5033SOL     OW15472   3.214   1.914   5.754
 5033SOL    HW115473   3.249   1.873   5.670
 5033SOL    HW215474   3.124   1.876   5.774
 5034SOL     OW15475   3.162   2.315   6.277
 5034SOL    HW115476   3.103   2.395   6.281
 5034SOL    HW215477   3.177   2.280   6.370
 5035SOL     OW15478   3.455   2.083   6.468
 5035SOL    HW115479   3.371   2.082   6.522
 5035SOL    HW215480   3.457   2.166   6.412
 5036SOL     OW15481   1.901   2.939   5.886
 5036SOL    HW115482   2.000   2.928   5.877
 5036SOL    HW215483   1.861   2.853   5.918
 5037SOL     OW15484   2.737   3.508   5.923
 5037SOL    HW115485   2.660   3.473   5.869
 5037SOL    HW215486   2.705   3.579   5.985
 5038SOL     OW15487   2.092   2.490   7.561
 5038SOL    HW115488   1.999   2.488   7.598
 5038SOL    HW215489   2.093   2.451   7.469
 5039SOL     OW15490   1.881   2.230   8.095
 5039SOL    HW115491   1.799   2.273   8.134
 5039SOL    HW215492   1.853   2.157   8.032
 5040SOL     OW15493   2.431   3.137   8.613
 5040SOL    HW115494   2.338   3.130   8.576
 5040SOL    HW215495   2.442   3.226   8.657
 5041SOL     OW15496   3.417   3.373   8.151
 5041SOL    HW115497   3.360   3.357   8.232
 5041SOL    HW215498   3.358   3.383   8.071
 5042SOL     OW15499   2.997   2.565   8.165
 5042SOL    HW115500   3.054   2.643   8.140
 5042SOL    HW215501   2.937   2.591   8.241
 5043SOL     OW15502   3.617   2.469   7.679
 5043SOL    HW115503   3.605   2.456   7.580
 5043SOL    HW215504   3.587   2.388   7.728
 5044SOL     OW15505   2.630   3.006   8.471
 5044SOL    HW115506   2.552   3.023   8.531
 5044SOL    HW215507   2.664   3.093   8.435
 5045SOL     OW15508   2.712   2.660   9.271
 5045SOL    HW115509   2.708   2.736   9.336
 5045SOL    HW215510   2.734   2.696   9.180
 5046SOL     OW15511   2.547   2.874   8.113
 5046SOL    HW115512   2.616   2.858   8.183
 5046SOL    HW215513   2.474   2.931   8.151
 5047SOL     OW15514   2.548   3.023   9.251
 5047SOL    HW115515   2.608   3.102   9.265
 5047SOL    HW215516   2.462   3.054   9.210
 5048SOL     OW15517   2.197   3.297   8.509
 5048SOL    HW115518   2.119   3.266   8.456
 5048SOL    HW215519   2.255   3.355   8.452
 5049SOL     OW15520   3.322   3.367   8.787
 5049SOL    HW115521   3.346   3.461   8.813
 5049SOL    HW215522   3.306   3.313   8.869
 5050SOL     OW15523   3.465   2.309   8.185
 5050SOL    HW115524   3.391   2.355   8.135
 5050SOL    HW215525   3.516   2.377   8.238
 5051SOL     OW15526   2.093   3.575   7.931
 5051SOL    HW115527   2.127   3.652   7.985
 5051SOL    HW215528   2.137   3.575   7.841
 5052SOL     OW15529   2.989   3.203   9.138
 5052SOL    HW115530   3.036   3.203   9.226
 5052SOL    HW215531   2.941   3.116   9.127
 5053SOL     OW15532   2.092   3.296   7.986
 5053SOL    HW115533   2.066   3.392   7.986
 5053SOL    HW215534   2.021   3.242   8.031
 5054SOL     OW15535   2.102   2.953   8.334
 5054SOL    HW115536   2.116   2.869   8.386
 5054SOL    HW215537   2.047   3.017   8.389
 5055SOL     OW15538   2.482   3.648   8.887
 5055SOL    HW115539   2.390   3.631   8.922
 5055SOL    HW215540   2.510   3.740   8.913
 5056SOL     OW15541   2.468   2.826   7.571
 5056SOL    HW115542   2.475   2.910   7.517
 5056SOL    HW215543   2.514   2.839   7.659
 5057SOL     OW15544   3.456   1.976   8.928
 5057SOL    HW115545   3.438   2.043   8.856
 5057SOL    HW215546   3.453   2.022   9.017
 5058SOL     OW15547   1.984   2.505   8.011
 5058SOL    HW115548   1.939   2.417   8.028
 5058SOL    HW215549   1.983   2.559   8.095
 5059SOL     OW15550   3.704   3.629   7.807
 5059SOL    HW115551   3.758   3.600   7.887
 5059SOL    HW215552   3.734   3.719   7.778
 5060SOL     OW15553   1.889   3.458   7.565
 5060SOL    HW115554   1.870   3.362   7.586
 5060SOL    HW215555   1.856   3.516   7.640
 5061SOL     OW15556   3.551   2.784   8.060
 5061SOL    HW115557   3.646   2.755   8.068
 5061SOL    HW215558   3.543   2.849   7.985
 5062SOL     OW15559   3.503   2.970   7.880
 5062SOL    HW115560   3.589   2.972   7.828
 5062SOL    HW215561   3.517   3.017   7.968
 5063SOL     OW15562   1.975   2.599   9.045
 5063SOL    HW115563   2.063   2.586   9.090
 5063SOL    HW215564   1.962   2.696   9.023
 5064SOL     OW15565   2.475   3.227   8.174
 5064SOL    HW115566   2.426   3.140   8.183
 5064SOL    HW215567   2.452   3.270   8.087
 5065SOL     OW15568   3.155   3.090   8.871
 5065SOL    HW115569   3.192   3.017   8.813
 5065SOL    HW215570   3.207   3.095   8.956
 5066SOL     OW15571   2.671   1.866   7.950
 5066SOL    HW115572   2.711   1.957   7.941
 5066SOL    HW215573   2.571   1.874   7.956
 5067SOL     OW15574   2.059   2.838   8.712
 5067SOL    HW115575   2.148   2.793   8.698
 5067SOL    HW215576   1.986   2.773   8.693
 5068SOL     OW15577   3.387   2.861   7.638
 5068SOL    HW115578   3.324   2.785   7.651
 5068SOL    HW215579   3.435   2.879   7.724
 5069SOL     OW15580   3.049   3.654   9.064
 5069SOL    HW115581   3.073   3.714   8.988
 5069SOL    HW215582   3.056   3.559   9.034
 5070SOL     OW15583   3.328   3.279   8.401
 5070SOL    HW115584   3.269   3.285   8.481
 5070SOL    HW215585   3.313   3.191   8.355
 5071SOL     OW15586   3.529   3.576   8.020
 5071SOL    HW115587   3.488   3.553   7.932
 5071SOL    HW215588   3.511   3.502   8.085
 5072SOL     OW15589   2.460   2.591   7.718
 5072SOL    HW115590   2.484   2.660   7.650
 5072SOL    HW215591   2.382   2.624   7.772
 5073SOL     OW15592   3.143   2.207   8.392
 5073SOL    HW115593   3.057   2.157   8.379
 5073SOL    HW215594   3.205   2.153   8.448
 5074SOL     OW15595   3.438   3.524   7.755
 5074SOL    HW115596   3.527   3.570   7.758
 5074SOL    HW215597   3.417   3.500   7.660
 5075SOL     OW15598   2.669   2.467   8.913
 5075SOL    HW115599   2.622   2.464   9.002
 5075SOL    HW215600   2.618   2.412   8.847
 5076SOL     OW15601   3.256   2.331   9.122
 5076SOL    HW115602   3.236   2.374   9.210
 5076SOL    HW215603   3.334   2.269   9.131
 5077SOL     OW15604   2.835   2.752   9.020
 5077SOL    HW115605   2.881   2.668   8.991
 5077SOL    HW215606   2.779   2.786   8.945
 5078SOL     OW15607   2.853   2.272   8.690
 5078SOL    HW115608   2.776   2.306   8.744
 5078SOL    HW215609   2.819   2.221   8.611
 5079SOL     OW15610   2.903   2.563   7.877
 5079SOL    HW115611   2.929   2.559   7.973
 5079SOL    HW215612   2.818   2.512   7.863
 5080SOL     OW15613   1.938   2.673   8.237
 5080SOL    HW115614   2.037   2.661   8.246
 5080SOL    HW215615   1.914   2.768   8.258
 5081SOL     OW15616   1.992   3.683   9.019
 5081SOL    HW115617   1.982   3.668   9.118
 5081SOL    HW215618   1.906   3.719   8.983
 5082SOL     OW15619   2.727   2.210   7.643
 5082SOL    HW115620   2.786   2.273   7.594
 5082SOL    HW215621   2.746   2.116   7.614
 5083SOL     OW15622   3.581   2.447   9.279
 5083SOL    HW115623   3.555   2.536   9.243
 5083SOL    HW215624   3.579   2.379   9.206
 5084SOL     OW15625   3.224   3.006   7.993
 5084SOL    HW115626   3.307   2.977   7.945
 5084SOL    HW215627   3.175   3.073   7.937
 5085SOL     OW15628   2.870   3.318   7.925
 5085SOL    HW115629   2.824   3.390   7.873
 5085SOL    HW215630   2.866   3.338   8.023
 5086SOL     OW15631   2.213   3.663   8.301
 5086SOL    HW115632   2.263   3.577   8.307
 5086SOL    HW215633   2.278   3.740   8.298
 5087SOL     OW15634   3.657   2.928   8.321
 5087SOL    HW115635   3.595   2.913   8.245
 5087SOL    HW215636   3.605   2.939   8.406
 5088SOL     OW15637   3.089   3.412   8.954
 5088SOL    HW115638   3.095   3.335   9.018
 5088SOL    HW215639   3.037   3.386   8.874
 5089SOL     OW15640   2.183   2.805   7.690
 5089SOL    HW115641   2.265   2.844   7.648
 5089SOL    HW215642   2.156   2.723   7.641
 5090SOL     OW15643   3.320   2.597   8.176
 5090SOL    HW115644   3.315   2.532   8.251
 5090SOL    HW215645   3.400   2.656   8.189
 5091SOL     OW15646   2.323   3.128   9.175
 5091SOL    HW115647   2.273   3.129   9.089
 5091SOL    HW215648   2.260   3.110   9.251
 5092SOL     OW15649   2.973   3.638   7.685
 5092SOL    HW115650   2.913   3.576   7.735
 5092SOL    HW215651   3.004   3.594   7.600
 5093SOL     OW15652   2.064   2.147   8.946
 5093SOL    HW115653   1.984   2.207   8.933
 5093SOL    HW215654   2.054   2.098   9.032
 5094SOL     OW15655   3.494   3.239   7.529
 5094SOL    HW115656   3.462   3.333   7.519
 5094SOL    HW215657   3.418   3.176   7.517
 5095SOL     OW15658   2.326   3.605   7.771
 5095SOL    HW115659   2.359   3.644   7.857
 5095SOL    HW215660   2.402   3.598   7.706
 5096SOL     OW15661   3.262   1.969   7.874
 5096SOL    HW115662   3.238   1.932   7.784
 5096SOL    HW215663   3.361   1.985   7.878
 5097SOL     OW15664   2.111   3.647   8.689
 5097SOL    HW115665   2.168   3.582   8.739
 5097SOL    HW215666   2.095   3.614   8.596
 5098SOL     OW15667   2.802   3.560   8.352
 5098SOL    HW115668   2.882   3.503   8.373
 5098SOL    HW215669   2.753   3.520   8.275
 5099SOL     OW15670   3.409   2.084   9.177
 5099SOL    HW115671   3.404   2.121   9.269
 5099SOL    HW215672   3.337   2.015   9.165
 5100SOL     OW15673   2.476   1.984   7.565
 5100SOL    HW115674   2.574   1.962   7.572
 5100SOL    HW215675   2.445   1.967   7.472
 5101SOL     OW15676   2.643   2.126   9.197
 5101SOL    HW115677   2.710   2.065   9.240
 5101SOL    HW215678   2.570   2.145   9.262
 5102SOL     OW15679   2.750   3.376   8.643
 5102SOL    HW115680   2.727   3.351   8.549
 5102SOL    HW215681   2.811   3.307   8.682
 5103SOL     OW15682   3.213   2.452   8.881
 5103SOL    HW115683   3.241   2.409   8.966
 5103SOL    HW215684   3.238   2.548   8.882
 5104SOL     OW15685   2.665   3.264   8.372
 5104SOL    HW115686   2.755   3.278   8.330
 5104SOL    HW215687   2.594   3.266   8.301
 5105SOL     OW15688   2.784   2.365   8.347
 5105SOL    HW115689   2.759   2.356   8.251
 5105SOL    HW215690   2.832   2.283   8.378
 5106SOL     OW15691   2.401   1.926   7.960
 5106SOL    HW115692   2.320   1.927   8.018
 5106SOL    HW215693   2.404   2.009   7.905
 5107SOL     OW15694   3.296   3.050   7.489
 5107SOL    HW115695   3.328   2.974   7.546
 5107SOL    HW215696   3.204   3.077   7.519
 5108SOL     OW15697   2.159   1.897   7.619
 5108SOL    HW115698   2.208   1.981   7.598
 5108SOL    HW215699   2.221   1.832   7.664
 5109SOL     OW15700   2.797   2.098   7.928
 5109SOL    HW115701   2.749   2.139   7.850
 5109SOL    HW215702   2.896   2.096   7.909
 5110SOL     OW15703   2.938   2.545   8.912
 5110SOL    HW115704   2.858   2.484   8.915
 5110SOL    HW215705   3.019   2.492   8.888
 5111SOL     OW15706   3.089   3.432   8.241
 5111SOL    HW115707   3.110   3.506   8.176
 5111SOL    HW215708   3.157   3.432   8.314
 5112SOL     OW15709   2.321   3.014   8.189
 5112SOL    HW115710   2.250   2.987   8.254
 5112SOL    HW215711   2.295   2.986   8.096
 5113SOL     OW15712   3.133   3.659   8.039
 5113SOL    HW115713   3.177   3.723   7.975
 5113SOL    HW215714   3.083   3.711   8.109
 5114SOL     OW15715   2.894   2.411   7.464
 5114SOL    HW115716   2.853   2.493   7.425
 5114SOL    HW215717   2.958   2.437   7.537
 5115SOL     OW15718   1.940   2.418   8.834
 5115SOL    HW115719   2.032   2.417   8.793
 5115SOL    HW215720   1.934   2.492   8.901
 5116SOL     OW15721   2.728   2.316   8.090
 5116SOL    HW115722   2.696   2.388   8.028
 5116SOL    HW215723   2.752   2.235   8.037
 5117SOL     OW15724   2.879   1.901   8.201
 5117SOL    HW115725   2.807   1.906   8.132
 5117SOL    HW215726   2.855   1.832   8.270
 5118SOL     OW15727   3.291   3.035   8.315
 5118SOL    HW115728   3.236   2.951   8.308
 5118SOL    HW215729   3.317   3.064   8.223
 5119SOL     OW15730   3.328   2.452   8.440
 5119SOL    HW115731   3.298   2.357   8.447
 5119SOL    HW215732   3.401   2.468   8.506
 5120SOL     OW15733   3.719   2.695   7.825
 5120SOL    HW115734   3.761   2.631   7.889
 5120SOL    HW215735   3.681   2.644   7.747
 5121SOL     OW15736   2.350   3.247   7.622
 5121SOL    HW115737   2.263   3.232   7.669
 5121SOL    HW215738   2.333   3.273   7.527
 5122SOL     OW15739   3.526   3.142   8.105
 5122SOL    HW115740   3.625   3.150   8.119
 5122SOL    HW215741   3.481   3.226   8.136
 5123SOL     OW15742   3.252   2.437   7.526
 5123SOL    HW115743   3.198   2.416   7.607
 5123SOL    HW215744   3.343   2.396   7.535
 5124SOL     OW15745   3.616   3.085   9.036
 5124SOL    HW115746   3.707   3.046   9.023
 5124SOL    HW215747   3.624   3.181   9.060
 5125SOL     OW15748   2.926   3.209   8.788
 5125SOL    HW115749   2.846   3.186   8.843
 5125SOL    HW215750   3.009   3.183   8.837
 5126SOL     OW15751   3.454   3.491   9.073
 5126SOL    HW115752   3.481   3.525   8.983
 5126SOL    HW215753   3.533   3.453   9.119
 5127SOL     OW15754   2.973   3.057   8.548
 5127SOL    HW115755   2.933   3.101   8.629
 5127SOL    HW215756   2.932   3.094   8.465
 5128SOL     OW15757   3.500   2.961   8.527
 5128SOL    HW115758   3.505   3.042   8.586
 5128SOL    HW215759   3.414   2.963   8.476
 5129SOL     OW15760   2.777   1.951   8.850
 5129SOL    HW115761   2.802   1.931   8.755
 5129SOL    HW215762   2.849   2.007   8.892
 5130SOL     OW15763   2.842   2.978   9.167
 5130SOL    HW115764   2.743   2.984   9.177
 5130SOL    HW215765   2.865   2.898   9.111
 5131SOL     OW15766   2.567   2.912   7.816
 5131SOL    HW115767   2.553   2.919   7.915
 5131SOL    HW215768   2.651   2.861   7.798
 5132SOL     OW15769   2.272   2.675   8.699
 5132SOL    HW115770   2.358   2.687   8.749
 5132SOL    HW215771   2.230   2.588   8.726
 5133SOL     OW15772   3.136   2.248   8.710
 5133SOL    HW115773   3.157   2.322   8.774
 5133SOL    HW215774   3.047   2.265   8.667
 5134SOL     OW15775   1.926   3.426   8.779
 5134SOL    HW115776   1.880   3.508   8.745
 5134SOL    HW215777   2.024   3.445   8.788
 5135SOL     OW15778   2.229   2.962   7.949
 5135SOL    HW115779   2.222   3.045   7.893
 5135SOL    HW215780   2.233   2.882   7.889
 5136SOL     OW15781   3.114   3.210   7.836
 5136SOL    HW115782   3.164   3.287   7.876
 5136SOL    HW215783   3.019   3.212   7.868
 5137SOL     OW15784   3.134   3.307   8.590
 5137SOL    HW115785   3.181   3.320   8.677
 5137SOL    HW215786   3.068   3.233   8.599
 5138SOL     OW15787   3.444   2.501   7.920
 5138SOL    HW115788   3.413   2.562   7.993
 5138SOL    HW215789   3.494   2.553   7.851
 5139SOL     OW15790   2.216   3.372   8.777
 5139SOL    HW115791   2.195   3.328   8.690
 5139SOL    HW215792   2.313   3.398   8.780
 5140SOL     OW15793   2.264   2.613   9.046
 5140SOL    HW115794   2.332   2.668   8.999
 5140SOL    HW215795   2.304   2.525   9.073
 5141SOL     OW15796   3.449   2.641   9.118
 5141SOL    HW115797   3.357   2.679   9.113
 5141SOL    HW215798   3.509   2.688   9.053
 5142SOL     OW15799   2.875   1.967   9.218
 5142SOL    HW115800   2.881   2.052   9.166
 5142SOL    HW215801   2.907   1.891   9.161
 5143SOL     OW15802   2.366   1.912   9.188
 5143SOL    HW115803   2.324   1.855   9.118
 5143SOL    HW215804   2.300   1.981   9.220
 5144SOL     OW15805   2.435   2.732   8.477
 5144SOL    HW115806   2.479   2.821   8.468
 5144SOL    HW215807   2.372   2.732   8.554
 5145SOL     OW15808   3.222   2.724   8.493
 5145SOL    HW115809   3.147   2.724   8.427
 5145SOL    HW215810   3.259   2.632   8.502
 5146SOL     OW15811   3.071   2.387   7.723
 5146SOL    HW115812   3.084   2.303   7.777
 5146SOL    HW215813   3.042   2.461   7.783
 5147SOL     OW15814   1.899   3.172   8.730
 5147SOL    HW115815   1.952   3.123   8.798
 5147SOL    HW215816   1.921   3.270   8.735
 5148SOL     OW15817   2.594   2.496   8.512
 5148SOL    HW115818   2.653   2.470   8.436
 5148SOL    HW215819   2.566   2.592   8.501
 5149SOL     OW15820   3.590   2.797   9.302
 5149SOL    HW115821   3.544   2.790   9.213
 5149SOL    HW215822   3.528   2.841   9.368
 5150SOL     OW15823   2.169   1.925   8.066
 5150SOL    HW115824   2.158   2.019   8.099
 5150SOL    HW215825   2.164   1.862   8.143
 5151SOL     OW15826   3.484   2.229   7.822
 5151SOL    HW115827   3.486   2.153   7.886
 5151SOL    HW215828   3.436   2.306   7.862
 5152SOL     OW15829   2.885   2.628   8.414
 5152SOL    HW115830   2.900   2.649   8.510
 5152SOL    HW215831   2.855   2.533   8.405
 5153SOL     OW15832   2.842   3.435   9.148
 5153SOL    HW115833   2.822   3.479   9.060
 5153SOL    HW215834   2.881   3.344   9.132
 5154SOL     OW15835   3.721   3.380   9.053
 5154SOL    HW115836   3.735   3.407   8.958
 5154SOL    HW215837   3.804   3.402   9.106
 5155SOL     OW15838   2.212   2.760   9.252
 5155SOL    HW115839   2.288   2.804   9.300
 5155SOL    HW215840   2.247   2.713   9.170
 5156SOL     OW15841   3.402   2.136   7.573
 5156SOL    HW115842   3.341   2.061   7.596
 5156SOL    HW215843   3.424   2.188   7.656
 5157SOL     OW15844   3.165   2.700   7.490
 5157SOL    HW115845   3.199   2.607   7.505
 5157SOL    HW215846   3.183   2.727   7.395
 5158SOL     OW15847   2.930   3.195   8.297
 5158SOL    HW115848   2.937   3.111   8.242
 5158SOL    HW215849   2.992   3.264   8.261
 5159SOL     OW15850   2.181   2.672   8.397
 5159SOL    HW115851   2.274   2.708   8.402
 5159SOL    HW215852   2.175   2.587   8.449
 5160SOL     OW15853   3.000   2.242   9.126
 5160SOL    HW115854   2.955   2.305   9.190
 5160SOL    HW215855   3.093   2.273   9.109
 5161SOL     OW15856   3.022   2.069   8.925
 5161SOL    HW115857   3.022   2.133   9.002
 5161SOL    HW215858   3.050   2.117   8.842
 5162SOL     OW15859   1.870   3.188   7.648
 5162SOL    HW115860   1.777   3.209   7.617
 5162SOL    HW215861   1.880   3.089   7.661
 5163SOL     OW15862   1.950   3.663   8.375
 5163SOL    HW115863   1.908   3.577   8.348
 5163SOL    HW215864   2.044   3.666   8.341
 5164SOL     OW15865   2.366   3.430   8.358
 5164SOL    HW115866   2.432   3.504   8.367
 5164SOL    HW215867   2.410   3.351   8.316
 5165SOL     OW15868   2.864   2.658   8.686
 5165SOL    HW115869   2.905   2.626   8.772
 5165SOL    HW215870   2.768   2.631   8.683
 5166SOL     OW15871   1.902   2.406   8.562
 5166SOL    HW115872   1.987   2.373   8.521
 5166SOL    HW215873   1.915   2.421   8.660
 5167SOL     OW15874   3.231   2.812   9.108
 5167SOL    HW115875   3.270   2.901   9.128
 5167SOL    HW215876   3.241   2.792   9.011
 5168SOL     OW15877   2.677   2.434   7.773
 5168SOL    HW115878   2.684   2.345   7.727
 5168SOL    HW215879   2.583   2.468   7.765
 5169SOL     OW15880   3.519   2.466   8.654
 5169SOL    HW115881   3.481   2.397   8.716
 5169SOL    HW215882   3.601   2.430   8.610
 5170SOL     OW15883   2.114   3.426   9.192
 5170SOL    HW115884   2.084   3.483   9.268
 5170SOL    HW215885   2.107   3.329   9.218
 5171SOL     OW15886   2.792   3.540   8.913
 5171SOL    HW115887   2.768   3.522   8.818
 5171SOL    HW215888   2.822   3.634   8.923
 5172SOL     OW15889   2.021   2.999   8.914
 5172SOL    HW115890   2.043   2.938   8.990
 5172SOL    HW215891   2.031   2.950   8.828
 5173SOL     OW15892   3.209   2.921   8.682
 5173SOL    HW115893   3.233   2.858   8.608
 5173SOL    HW215894   3.119   2.961   8.664
 5174SOL     OW15895   3.164   2.717   7.757
 5174SOL    HW115896   3.078   2.686   7.799
 5174SOL    HW215897   3.160   2.703   7.658
 5175SOL     OW15898   3.621   3.609   8.602
 5175SOL    HW115899   3.682   3.639   8.529
 5175SOL    HW215900   3.583   3.520   8.580
 5176SOL     OW15901   3.114   3.593   8.576
 5176SOL    HW115902   3.198   3.598   8.522
 5176SOL    HW215903   3.091   3.497   8.594
 5177SOL     OW15904   1.945   3.120   8.470
 5177SOL    HW115905   1.940   3.119   8.570
 5177SOL    HW215906   1.862   3.079   8.432
 5178SOL     OW15907   2.550   3.524   9.164
 5178SOL    HW115908   2.494   3.605   9.173
 5178SOL    HW215909   2.602   3.528   9.078
 5179SOL     OW15910   3.588   1.997   7.971
 5179SOL    HW115911   3.661   1.980   7.904
 5179SOL    HW215912   3.557   1.910   8.009
 5180SOL     OW15913   3.250   3.435   7.925
 5180SOL    HW115914   3.317   3.447   7.851
 5180SOL    HW215915   3.210   3.524   7.948
 5181SOL     OW15916   1.992   3.656   9.299
 5181SOL    HW115917   1.951   3.582   9.352
 5181SOL    HW215918   2.056   3.707   9.357
 5182SOL     OW15919   3.142   2.789   8.120
 5182SOL    HW115920   3.202   2.708   8.122
 5182SOL    HW215921   3.182   2.858   8.060
 5183SOL     OW15922   2.692   3.135   8.870
 5183SOL    HW115923   2.687   3.168   8.965
 5183SOL    HW215924   2.606   3.154   8.824
 5184SOL     OW15925   2.534   3.478   7.602
 5184SOL    HW115926   2.543   3.488   7.503
 5184SOL    HW215927   2.494   3.389   7.623
 5185SOL     OW15928   3.512   3.582   8.842
 5185SOL    HW115929   3.565   3.592   8.758
 5185SOL    HW215930   3.485   3.672   8.876
 5186SOL     OW15931   3.703   2.037   8.411
 5186SOL    HW115932   3.742   1.952   8.375
 5186SOL    HW215933   3.605   2.039   8.392
 5187SOL     OW15934   3.056   3.474   7.479
 5187SOL    HW115935   3.062   3.381   7.516
 5187SOL    HW215936   2.997   3.474   7.399
 5188SOL     OW15937   2.684   2.864   8.820
 5188SOL    HW115938   2.724   2.863   8.728
 5188SOL    HW215939   2.694   2.956   8.860
 5189SOL     OW15940   2.778   2.772   7.739
 5189SOL    HW115941   2.841   2.810   7.671
 5189SOL    HW215942   2.818   2.689   7.778
 5190SOL     OW15943   3.366   3.469   7.492
 5190SOL    HW115944   3.274   3.506   7.499
 5190SOL    HW215945   3.404   3.489   7.402
 5191SOL     OW15946   2.234   3.150   8.938
 5191SOL    HW115947   2.221   3.243   8.904
 5191SOL    HW215948   2.150   3.098   8.925
 5192SOL     OW15949   3.476   3.154   8.737
 5192SOL    HW115950   3.536   3.157   8.817
 5192SOL    HW215951   3.401   3.218   8.750
 5193SOL     OW15952   2.901   2.960   8.144
 5193SOL    HW115953   2.831   2.913   8.198
 5193SOL    HW215954   2.960   2.892   8.101
 5194SOL     OW15955   2.876   2.098   8.419
 5194SOL    HW115956   2.868   2.062   8.326
 5194SOL    HW215957   2.874   2.022   8.484
 5195SOL     OW15958   2.452   3.349   7.939
 5195SOL    HW115959   2.494   3.291   7.869
 5195SOL    HW215960   2.408   3.428   7.895
 5196SOL     OW15961   3.571   2.247   8.829
 5196SOL    HW115962   3.644   2.316   8.833
 5196SOL    HW215963   3.599   2.172   8.770
 5197SOL     OW15964   2.117   3.210   7.738
 5197SOL    HW115965   2.021   3.211   7.711
 5197SOL    HW215966   2.129   3.263   7.822
 5198SOL     OW15967   1.967   2.875   9.174
 5198SOL    HW115968   1.890   2.842   9.228
 5198SOL    HW215969   2.052   2.845   9.216
 5199SOL     OW15970   2.534   2.065   8.937
 5199SOL    HW115971   2.624   2.049   8.897
 5199SOL    HW215972   2.542   2.070   9.036
 5200SOL     OW15973   1.937   2.207   7.481
 5200SOL    HW115974   1.845   2.179   7.452
 5200SOL    HW215975   1.968   2.284   7.425
 5201SOL     OW15976   3.302   2.718   8.846
 5201SOL    HW115977   3.245   2.770   8.783
 5201SOL    HW215978   3.398   2.730   8.822
 5202SOL     OW15979   1.934   2.028   7.766
 5202SOL    HW115980   1.917   2.111   7.712
 5202SOL    HW215981   2.024   1.991   7.744
 5203SOL     OW15982   3.045   3.197   7.567
 5203SOL    HW115983   2.946   3.186   7.569
 5203SOL    HW215984   3.079   3.212   7.660
 5204SOL     OW15985   2.475   2.704   8.879
 5204SOL    HW115986   2.531   2.785   8.862
 5204SOL    HW215987   2.534   2.624   8.882
 5205SOL     OW15988   3.355   3.629   8.407
 5205SOL    HW115989   3.388   3.693   8.338
 5205SOL    HW215990   3.421   3.623   8.482
 5206SOL     OW15991   2.578   2.427   9.156
 5206SOL    HW115992   2.597   2.492   9.230
 5206SOL    HW215993   2.638   2.347   9.165
 5207SOL     OW15994   3.312   3.082   9.081
 5207SOL    HW115995   3.303   3.072   9.180
 5207SOL    HW215996   3.408   3.075   9.055
 5208SOL     OW15997   2.252   3.603   9.008
 5208SOL    HW115998   2.161   3.644   9.006
 5208SOL    HW215999   2.245   3.509   9.040
 5209SOL     OW16000   3.536   2.745   8.702
 5209SOL    HW116001   3.509   2.656   8.665
 5209SOL    HW216002   3.537   2.813   8.629
 5210SOL     OW16003   3.087   2.187   7.897
 5210SOL    HW116004   3.152   2.113   7.886
 5210SOL    HW216005   3.107   2.237   7.981
 5211SOL     OW16006   2.456   2.607   8.100
 5211SOL    HW116007   2.506   2.692   8.081
 5211SOL    HW216008   2.368   2.609   8.052
 5212SOL     OW16009   3.639   2.204   9.090
 5212SOL    HW116010   3.622   2.235   8.996
 5212SOL    HW216011   3.555   2.167   9.128
 5213SOL     OW16012   3.592   2.796   8.965
 5213SOL    HW116013   3.630   2.887   8.980
 5213SOL    HW216014   3.584   2.779   8.866
 5214SOL     OW16015   2.721   3.236   7.464
 5214SOL    HW116016   2.675   3.251   7.552
 5214SOL    HW216017   2.765   3.321   7.434
 5215SOL     OW16018   2.523   3.652   8.401
 5215SOL    HW116019   2.477   3.740   8.388
 5215SOL    HW216020   2.622   3.664   8.394
 5216SOL     OW16021   2.721   2.818   8.309
 5216SOL    HW116022   2.775   2.749   8.357
 5216SOL    HW216023   2.689   2.887   8.375
 5217SOL     OW16024   2.945   2.846   7.535
 5217SOL    HW116025   2.922   2.899   7.453
 5217SOL    HW216026   3.026   2.790   7.516
 5218SOL     OW16027   3.723   3.431   8.299
 5218SOL    HW116028   3.652   3.419   8.229
 5218SOL    HW216029   3.724   3.352   8.359
 5219SOL     OW16030   2.083   3.176   9.292
 5219SOL    HW116031   2.018   3.103   9.271
 5219SOL    HW216032   2.087   3.190   9.390
 5220SOL     OW16033   1.941   3.102   8.101
 5220SOL    HW116034   1.940   3.055   8.189
 5220SOL    HW216035   2.023   3.074   8.050
 5221SOL     OW16036   2.534   3.253   9.072
 5221SOL    HW116037   2.456   3.203   9.110
 5221SOL    HW216038   2.531   3.348   9.103
 5222SOL     OW16039   3.686   2.054   8.675
 5222SOL    HW116040   3.682   1.964   8.719
 5222SOL    HW216041   3.689   2.043   8.576
 5223SOL     OW16042   3.567   3.349   8.552
 5223SOL    HW116043   3.474   3.324   8.525
 5223SOL    HW216044   3.593   3.299   8.634
 5224SOL     OW16045   2.674   3.448   8.135
 5224SOL    HW116046   2.706   3.458   8.041
 5224SOL    HW216047   2.595   3.386   8.137
 5225SOL     OW16048   3.286   2.076   8.560
 5225SOL    HW116049   3.338   2.011   8.615
 5225SOL    HW216050   3.237   2.139   8.621
 5226SOL     OW16051   2.863   1.896   8.602
 5226SOL    HW116052   2.800   1.824   8.571
 5226SOL    HW216053   2.956   1.860   8.602
 5227SOL     OW16054   2.632   3.192   7.749
 5227SOL    HW116055   2.586   3.105   7.766
 5227SOL    HW216056   2.723   3.189   7.790
 5228SOL     OW16057   2.480   3.429   8.732
 5228SOL    HW116058   2.475   3.511   8.789
 5228SOL    HW216059   2.569   3.426   8.687
 5229SOL     OW16060   3.214   1.914   7.616
 5229SOL    HW116061   3.249   1.873   7.532
 5229SOL    HW216062   3.124   1.876   7.636
 5230SOL     OW16063   3.162   2.315   8.139
 5230SOL    HW116064   3.103   2.395   8.143
 5230SOL    HW216065   3.177   2.280   8.232
 5231SOL     OW16066   3.455   2.083   8.330
 5231SOL    HW116067   3.371   2.082   8.384
 5231SOL    HW216068   3.457   2.166   8.274
 5232SOL     OW16069   1.901   2.939   7.748
 5232SOL    HW116070   2.000   2.928   7.739
 5232SOL    HW216071   1.861   2.853   7.780
 5233SOL     OW16072   2.737   3.508   7.785
 5233SOL    HW116073   2.660   3.473   7.731
 5233SOL    HW216074   2.705   3.579   7.847
 5234SOL     OW16075   2.092   2.490   9.423
 5234SOL    HW116076   1.999   2.488   9.460
 5234SOL    HW216077   2.093   2.451   9.331
 5235SOL     OW16078   1.881   2.230   9.957
 5235SOL    HW116079   1.799   2.273   9.996
 5235SOL    HW216080   1.853   2.157   9.894
 5236SOL     OW16081   2.431   3.137  10.475
 5236SOL    HW116082   2.338   3.130  10.438
 5236SOL    HW216083   2.442   3.226  10.519
 5237SOL     OW16084   3.417   3.373  10.013
 5237SOL    HW116085   3.360   3.357  10.094
 5237SOL    HW216086   3.358   3.383   9.933
 5238SOL     OW16087   2.997   2.565  10.027
 5238SOL    HW116088   3.054   2.643  10.002
 5238SOL    HW216089   2.937   2.591  10.103
 5239SOL     OW16090   3.617   2.469   9.541
 5239SOL    HW116091   3.605   2.456   9.442
 5239SOL    HW216092   3.587   2.388   9.590
 5240SOL     OW16093   2.630   3.006  10.333
 5240SOL    HW116094   2.552   3.023  10.393
 5240SOL    HW216095   2.664   3.093  10.297
 5241SOL     OW16096   2.712   2.660  11.133
 5241SOL    HW116097   2.708   2.736  11.198
 5241SOL    HW216098   2.734   2.696  11.042
 5242SOL     OW16099   2.547   2.874   9.975
 5242SOL    HW116100   2.616   2.858  10.045
 5242SOL    HW216101   2.474   2.931  10.013
 5243SOL     OW16102   2.197   3.297  10.371
 5243SOL    HW116103   2.119   3.266  10.318
 5243SOL    HW216104   2.255   3.355  10.314
 5244SOL     OW16105   3.322   3.367  10.649
 5244SOL    HW116106   3.346   3.461  10.675
 5244SOL    HW216107   3.306   3.313  10.731
 5245SOL     OW16108   3.465   2.309  10.047
 5245SOL    HW116109   3.391   2.355   9.997
 5245SOL    HW216110   3.516   2.377  10.100
 5246SOL     OW16111   2.093   3.575   9.793
 5246SOL    HW116112   2.127   3.652   9.847
 5246SOL    HW216113   2.137   3.575   9.703
 5247SOL     OW16114   2.092   3.296   9.848
 5247SOL    HW116115   2.066   3.392   9.848
 5247SOL    HW216116   2.021   3.242   9.893
 5248SOL     OW16117   2.102   2.953  10.196
 5248SOL    HW116118   2.116   2.869  10.248
 5248SOL    HW216119   2.047   3.017  10.251
 5249SOL     OW16120   2.482   3.648  10.749
 5249SOL    HW116121   2.390   3.631  10.784
 5249SOL    HW216122   2.510   3.740  10.775
 5250SOL     OW16123   2.468   2.826   9.433
 5250SOL    HW116124   2.475   2.910   9.379
 5250SOL    HW216125   2.514   2.839   9.521
 5251SOL     OW16126   3.456   1.976  10.790
 5251SOL    HW116127   3.438   2.043  10.718
 5251SOL    HW216128   3.453   2.022  10.879
 5252SOL     OW16129   1.984   2.505   9.873
 5252SOL    HW116130   1.939   2.417   9.890
 5252SOL    HW216131   1.983   2.559   9.957
 5253SOL     OW16132   3.704   3.629   9.669
 5253SOL    HW116133   3.758   3.600   9.749
 5253SOL    HW216134   3.734   3.719   9.640
 5254SOL     OW16135   1.889   3.458   9.427
 5254SOL    HW116136   1.870   3.362   9.448
 5254SOL    HW216137   1.856   3.516   9.502
 5255SOL     OW16138   3.551   2.784   9.922
 5255SOL    HW116139   3.646   2.755   9.930
 5255SOL    HW216140   3.543   2.849   9.847
 5256SOL     OW16141   3.503   2.970   9.742
 5256SOL    HW116142   3.589   2.972   9.690
 5256SOL    HW216143   3.517   3.017   9.830
 5257SOL     OW16144   1.975   2.599  10.907
 5257SOL    HW116145   2.063   2.586  10.952
 5257SOL    HW216146   1.962   2.696  10.885
 5258SOL     OW16147   2.475   3.227  10.036
 5258SOL    HW116148   2.426   3.140  10.045
 5258SOL    HW216149   2.452   3.270   9.949
 5259SOL     OW16150   3.155   3.090  10.733
 5259SOL    HW116151   3.192   3.017  10.675
 5259SOL    HW216152   3.207   3.095  10.818
 5260SOL     OW16153   2.671   1.866   9.812
 5260SOL    HW116154   2.711   1.957   9.803
 5260SOL    HW216155   2.571   1.874   9.818
 5261SOL     OW16156   2.059   2.838  10.574
 5261SOL    HW116157   2.148   2.793  10.560
 5261SOL    HW216158   1.986   2.773  10.555
 5262SOL     OW16159   3.387   2.861   9.500
 5262SOL    HW116160   3.324   2.785   9.513
 5262SOL    HW216161   3.435   2.879   9.586
 5263SOL     OW16162   3.049   3.654  10.926
 5263SOL    HW116163   3.073   3.714  10.850
 5263SOL    HW216164   3.056   3.559  10.896
 5264SOL     OW16165   3.328   3.279  10.263
 5264SOL    HW116166   3.269   3.285  10.343
 5264SOL    HW216167   3.313   3.191  10.217
 5265SOL     OW16168   3.529   3.576   9.882
 5265SOL    HW116169   3.488   3.553   9.794
 5265SOL    HW216170   3.511   3.502   9.947
 5266SOL     OW16171   2.460   2.591   9.580
 5266SOL    HW116172   2.484   2.660   9.512
 5266SOL    HW216173   2.382   2.624   9.634
 5267SOL     OW16174   3.143   2.207  10.254
 5267SOL    HW116175   3.057   2.157  10.241
 5267SOL    HW216176   3.205   2.153  10.310
 5268SOL     OW16177   3.438   3.524   9.617
 5268SOL    HW116178   3.527   3.570   9.620
 5268SOL    HW216179   3.417   3.500   9.522
 5269SOL     OW16180   2.669   2.467  10.775
 5269SOL    HW116181   2.622   2.464  10.864
 5269SOL    HW216182   2.618   2.412  10.709
 5270SOL     OW16183   2.835   2.752  10.882
 5270SOL    HW116184   2.881   2.668  10.853
 5270SOL    HW216185   2.779   2.786  10.807
 5271SOL     OW16186   2.853   2.272  10.552
 5271SOL    HW116187   2.776   2.306  10.606
 5271SOL    HW216188   2.819   2.221  10.473
 5272SOL     OW16189   2.903   2.563   9.739
 5272SOL    HW116190   2.929   2.559   9.835
 5272SOL    HW216191   2.818   2.512   9.725
 5273SOL     OW16192   1.938   2.673  10.099
 5273SOL    HW116193   2.037   2.661  10.108
 5273SOL    HW216194   1.914   2.768  10.120
 5274SOL     OW16195   1.992   3.683  10.881
 5274SOL    HW116196   1.982   3.668  10.980
 5274SOL    HW216197   1.906   3.719  10.845
 5275SOL     OW16198   2.727   2.210   9.505
 5275SOL    HW116199   2.786   2.273   9.456
 5275SOL    HW216200   2.746   2.116   9.476
 5276SOL     OW16201   3.224   3.006   9.855
 5276SOL    HW116202   3.307   2.977   9.807
 5276SOL    HW216203   3.175   3.073   9.799
 5277SOL     OW16204   2.870   3.318   9.787
 5277SOL    HW116205   2.824   3.390   9.735
 5277SOL    HW216206   2.866   3.338   9.885
 5278SOL     OW16207   2.213   3.663  10.163
 5278SOL    HW116208   2.263   3.577  10.169
 5278SOL    HW216209   2.278   3.740  10.160
 5279SOL     OW16210   3.657   2.928  10.183
 5279SOL    HW116211   3.595   2.913  10.107
 5279SOL    HW216212   3.605   2.939  10.268
 5280SOL     OW16213   3.089   3.412  10.816
 5280SOL    HW116214   3.095   3.335  10.880
 5280SOL    HW216215   3.037   3.386  10.736
 5281SOL     OW16216   2.183   2.805   9.552
 5281SOL    HW116217   2.265   2.844   9.510
 5281SOL    HW216218   2.156   2.723   9.503
 5282SOL     OW16219   3.320   2.597  10.038
 5282SOL    HW116220   3.315   2.532  10.113
 5282SOL    HW216221   3.400   2.656  10.051
 5283SOL     OW16222   2.323   3.128  11.037
 5283SOL    HW116223   2.273   3.129  10.951
 5283SOL    HW216224   2.260   3.110  11.113
 5284SOL     OW16225   2.973   3.638   9.547
 5284SOL    HW116226   2.913   3.576   9.597
 5284SOL    HW216227   3.004   3.594   9.462
 5285SOL     OW16228   3.494   3.239   9.391
 5285SOL    HW116229   3.462   3.333   9.381
 5285SOL    HW216230   3.418   3.176   9.379
 5286SOL     OW16231   2.326   3.605   9.633
 5286SOL    HW116232   2.359   3.644   9.719
 5286SOL    HW216233   2.402   3.598   9.568
 5287SOL     OW16234   3.262   1.969   9.736
 5287SOL    HW116235   3.238   1.932   9.646
 5287SOL    HW216236   3.361   1.985   9.740
 5288SOL     OW16237   2.111   3.647  10.551
 5288SOL    HW116238   2.168   3.582  10.601
 5288SOL    HW216239   2.095   3.614  10.458
 5289SOL     OW16240   2.802   3.560  10.214
 5289SOL    HW116241   2.882   3.503  10.235
 5289SOL    HW216242   2.753   3.520  10.137
 5290SOL     OW16243   2.476   1.984   9.427
 5290SOL    HW116244   2.574   1.962   9.434
 5290SOL    HW216245   2.445   1.967   9.334
 5291SOL     OW16246   2.643   2.126  11.059
 5291SOL    HW116247   2.710   2.065  11.102
 5291SOL    HW216248   2.570   2.145  11.124
 5292SOL     OW16249   2.750   3.376  10.505
 5292SOL    HW116250   2.727   3.351  10.411
 5292SOL    HW216251   2.811   3.307  10.544
 5293SOL     OW16252   3.213   2.452  10.743
 5293SOL    HW116253   3.241   2.409  10.828
 5293SOL    HW216254   3.238   2.548  10.744
 5294SOL     OW16255   2.665   3.264  10.234
 5294SOL    HW116256   2.755   3.278  10.192
 5294SOL    HW216257   2.594   3.266  10.163
 5295SOL     OW16258   2.784   2.365  10.209
 5295SOL    HW116259   2.759   2.356  10.113
 5295SOL    HW216260   2.832   2.283  10.240
 5296SOL     OW16261   2.401   1.926   9.822
 5296SOL    HW116262   2.320   1.927   9.880
 5296SOL    HW216263   2.404   2.009   9.767
 5297SOL     OW16264   3.296   3.050   9.351
 5297SOL    HW116265   3.328   2.974   9.408
 5297SOL    HW216266   3.204   3.077   9.381
 5298SOL     OW16267   2.159   1.897   9.481
 5298SOL    HW116268   2.208   1.981   9.460
 5298SOL    HW216269   2.221   1.832   9.526
 5299SOL     OW16270   2.797   2.098   9.790
 5299SOL    HW116271   2.749   2.139   9.712
 5299SOL    HW216272   2.896   2.096   9.771
 5300SOL     OW16273   2.938   2.545  10.774
 5300SOL    HW116274   2.858   2.484  10.777
 5300SOL    HW216275   3.019   2.492  10.750
 5301SOL     OW16276   3.089   3.432  10.103
 5301SOL    HW116277   3.110   3.506  10.038
 5301SOL    HW216278   3.157   3.432  10.176
 5302SOL     OW16279   2.321   3.014  10.051
 5302SOL    HW116280   2.250   2.987  10.116
 5302SOL    HW216281   2.295   2.986   9.958
 5303SOL     OW16282   3.133   3.659   9.901
 5303SOL    HW116283   3.177   3.723   9.837
 5303SOL    HW216284   3.083   3.711   9.971
 5304SOL     OW16285   2.894   2.411   9.326
 5304SOL    HW116286   2.853   2.493   9.287
 5304SOL    HW216287   2.958   2.437   9.399
 5305SOL     OW16288   1.940   2.418  10.696
 5305SOL    HW116289   2.032   2.417  10.655
 5305SOL    HW216290   1.934   2.492  10.763
 5306SOL     OW16291   2.423   2.084  10.457
 5306SOL    HW116292   2.461   2.000  10.494
 5306SOL    HW216293   2.335   2.103  10.501
 5307SOL     OW16294   2.728   2.316   9.952
 5307SOL    HW116295   2.696   2.388   9.890
 5307SOL    HW216296   2.752   2.235   9.899
 5308SOL     OW16297   2.879   1.901  10.063
 5308SOL    HW116298   2.807   1.906   9.994
 5308SOL    HW216299   2.855   1.832  10.132
 5309SOL     OW16300   3.291   3.035  10.177
 5309SOL    HW116301   3.236   2.951  10.170
 5309SOL    HW216302   3.317   3.064  10.085
 5310SOL     OW16303   3.328   2.452  10.302
 5310SOL    HW116304   3.298   2.357  10.309
 5310SOL    HW216305   3.401   2.468  10.368
 5311SOL     OW16306   3.719   2.695   9.687
 5311SOL    HW116307   3.761   2.631   9.751
 5311SOL    HW216308   3.681   2.644   9.609
 5312SOL     OW16309   2.350   3.247   9.484
 5312SOL    HW116310   2.263   3.232   9.531
 5312SOL    HW216311   2.333   3.273   9.389
 5313SOL     OW16312   3.526   3.142   9.967
 5313SOL    HW116313   3.625   3.150   9.981
 5313SOL    HW216314   3.481   3.226   9.998
 5314SOL     OW16315   3.252   2.437   9.388
 5314SOL    HW116316   3.198   2.416   9.469
 5314SOL    HW216317   3.343   2.396   9.397
 5315SOL     OW16318   3.616   3.085  10.898
 5315SOL    HW116319   3.707   3.046  10.885
 5315SOL    HW216320   3.624   3.181  10.922
 5316SOL     OW16321   2.926   3.209  10.650
 5316SOL    HW116322   2.846   3.186  10.705
 5316SOL    HW216323   3.009   3.183  10.699
 5317SOL     OW16324   2.973   3.057  10.410
 5317SOL    HW116325   2.933   3.101  10.491
 5317SOL    HW216326   2.932   3.094  10.327
 5318SOL     OW16327   3.500   2.961  10.389
 5318SOL    HW116328   3.505   3.042  10.448
 5318SOL    HW216329   3.414   2.963  10.338
 5319SOL     OW16330   2.777   1.951  10.712
 5319SOL    HW116331   2.802   1.931  10.617
 5319SOL    HW216332   2.849   2.007  10.754
 5320SOL     OW16333   2.567   2.912   9.678
 5320SOL    HW116334   2.553   2.919   9.777
 5320SOL    HW216335   2.651   2.861   9.660
 5321SOL     OW16336   2.272   2.675  10.561
 5321SOL    HW116337   2.358   2.687  10.611
 5321SOL    HW216338   2.230   2.588  10.588
 5322SOL     OW16339   3.136   2.248  10.572
 5322SOL    HW116340   3.157   2.322  10.636
 5322SOL    HW216341   3.047   2.265  10.529
 5323SOL     OW16342   1.926   3.426  10.641
 5323SOL    HW116343   1.880   3.508  10.607
 5323SOL    HW216344   2.024   3.445  10.650
 5324SOL     OW16345   2.229   2.962   9.811
 5324SOL    HW116346   2.222   3.045   9.755
 5324SOL    HW216347   2.233   2.882   9.751
 5325SOL     OW16348   2.428   2.399  10.175
 5325SOL    HW116349   2.440   2.465  10.101
 5325SOL    HW216350   2.474   2.433  10.258
 5326SOL     OW16351   3.114   3.210   9.698
 5326SOL    HW116352   3.164   3.287   9.738
 5326SOL    HW216353   3.019   3.212   9.730
 5327SOL     OW16354   3.134   3.307  10.452
 5327SOL    HW116355   3.181   3.320  10.539
 5327SOL    HW216356   3.068   3.233  10.461
 5328SOL     OW16357   3.444   2.501   9.782
 5328SOL    HW116358   3.413   2.562   9.855
 5328SOL    HW216359   3.494   2.553   9.713
 5329SOL     OW16360   2.216   3.372  10.639
 5329SOL    HW116361   2.195   3.328  10.552
 5329SOL    HW216362   2.313   3.398  10.642
 5330SOL     OW16363   2.264   2.613  10.908
 5330SOL    HW116364   2.332   2.668  10.861
 5330SOL    HW216365   2.304   2.525  10.935
 5331SOL     OW16366   3.449   2.641  10.980
 5331SOL    HW116367   3.357   2.679  10.975
 5331SOL    HW216368   3.509   2.688  10.915
 5332SOL     OW16369   2.435   2.732  10.339
 5332SOL    HW116370   2.479   2.821  10.330
 5332SOL    HW216371   2.372   2.732  10.416
 5333SOL     OW16372   3.222   2.724  10.355
 5333SOL    HW116373   3.147   2.724  10.289
 5333SOL    HW216374   3.259   2.632  10.364
 5334SOL     OW16375   3.071   2.387   9.585
 5334SOL    HW116376   3.084   2.303   9.639
 5334SOL    HW216377   3.042   2.461   9.645
 5335SOL     OW16378   1.899   3.172  10.592
 5335SOL    HW116379   1.952   3.123  10.660
 5335SOL    HW216380   1.921   3.270  10.597
 5336SOL     OW16381   2.594   2.496  10.374
 5336SOL    HW116382   2.653   2.470  10.298
 5336SOL    HW216383   2.566   2.592  10.363
 5337SOL     OW16384   2.169   1.925   9.928
 5337SOL    HW116385   2.158   2.019   9.961
 5337SOL    HW216386   2.164   1.862  10.005
 5338SOL     OW16387   3.484   2.229   9.684
 5338SOL    HW116388   3.486   2.153   9.748
 5338SOL    HW216389   3.436   2.306   9.724
 5339SOL     OW16390   2.885   2.628  10.276
 5339SOL    HW116391   2.900   2.649  10.372
 5339SOL    HW216392   2.855   2.533  10.267
 5340SOL     OW16393   2.842   3.435  11.010
 5340SOL    HW116394   2.822   3.479  10.922
 5340SOL    HW216395   2.881   3.344  10.994
 5341SOL     OW16396   3.721   3.380  10.915
 5341SOL    HW116397   3.735   3.407  10.820
 5341SOL    HW216398   3.804   3.402  10.968
 5342SOL     OW16399   2.212   2.760  11.114
 5342SOL    HW116400   2.288   2.804  11.162
 5342SOL    HW216401   2.247   2.713  11.032
 5343SOL     OW16402   3.402   2.136   9.435
 5343SOL    HW116403   3.341   2.061   9.458
 5343SOL    HW216404   3.424   2.188   9.518
 5344SOL     OW16405   3.165   2.700   9.352
 5344SOL    HW116406   3.199   2.607   9.367
 5344SOL    HW216407   3.183   2.727   9.257
 5345SOL     OW16408   2.930   3.195  10.159
 5345SOL    HW116409   2.937   3.111  10.104
 5345SOL    HW216410   2.992   3.264  10.123
 5346SOL     OW16411   2.181   2.672  10.259
 5346SOL    HW116412   2.274   2.708  10.264
 5346SOL    HW216413   2.175   2.587  10.311
 5347SOL     OW16414   3.022   2.069  10.787
 5347SOL    HW116415   3.022   2.133  10.864
 5347SOL    HW216416   3.050   2.117  10.704
 5348SOL     OW16417   1.870   3.188   9.510
 5348SOL    HW116418   1.777   3.209   9.479
 5348SOL    HW216419   1.880   3.089   9.523
 5349SOL     OW16420   1.950   3.663  10.237
 5349SOL    HW116421   1.908   3.577  10.210
 5349SOL    HW216422   2.044   3.666  10.203
 5350SOL     OW16423   2.366   3.430  10.220
 5350SOL    HW116424   2.432   3.504  10.229
 5350SOL    HW216425   2.410   3.351  10.178
 5351SOL     OW16426   2.864   2.658  10.548
 5351SOL    HW116427   2.905   2.626  10.634
 5351SOL    HW216428   2.768   2.631  10.545
 5352SOL     OW16429   1.902   2.406  10.424
 5352SOL    HW116430   1.987   2.373  10.383
 5352SOL    HW216431   1.915   2.421  10.522
 5353SOL     OW16432   2.677   2.434   9.635
 5353SOL    HW116433   2.684   2.345   9.589
 5353SOL    HW216434   2.583   2.468   9.627
 5354SOL     OW16435   3.519   2.466  10.516
 5354SOL    HW116436   3.481   2.397  10.578
 5354SOL    HW216437   3.601   2.430  10.472
 5355SOL     OW16438   2.114   3.426  11.054
 5355SOL    HW116439   2.084   3.483  11.130
 5355SOL    HW216440   2.107   3.329  11.080
 5356SOL     OW16441   2.792   3.540  10.775
 5356SOL    HW116442   2.768   3.522  10.680
 5356SOL    HW216443   2.822   3.634  10.785
 5357SOL     OW16444   2.021   2.999  10.776
 5357SOL    HW116445   2.043   2.938  10.852
 5357SOL    HW216446   2.031   2.950  10.690
 5358SOL     OW16447   3.209   2.921  10.544
 5358SOL    HW116448   3.233   2.858  10.470
 5358SOL    HW216449   3.119   2.961  10.526
 5359SOL     OW16450   3.164   2.717   9.619
 5359SOL    HW116451   3.078   2.686   9.661
 5359SOL    HW216452   3.160   2.703   9.520
 5360SOL     OW16453   3.621   3.609  10.464
 5360SOL    HW116454   3.682   3.639  10.391
 5360SOL    HW216455   3.583   3.520  10.442
 5361SOL     OW16456   3.114   3.593  10.438
 5361SOL    HW116457   3.198   3.598  10.384
 5361SOL    HW216458   3.091   3.497  10.456
 5362SOL     OW16459   1.945   3.120  10.332
 5362SOL    HW116460   1.940   3.119  10.432
 5362SOL    HW216461   1.862   3.079  10.294
 5363SOL     OW16462   3.588   1.997   9.833
 5363SOL    HW116463   3.661   1.980   9.766
 5363SOL    HW216464   3.557   1.910   9.871
 5364SOL     OW16465   3.250   3.435   9.787
 5364SOL    HW116466   3.317   3.447   9.713
 5364SOL    HW216467   3.210   3.524   9.810
 5365SOL     OW16468   3.142   2.789   9.982
 5365SOL    HW116469   3.202   2.708   9.984
 5365SOL    HW216470   3.182   2.858   9.922
 5366SOL     OW16471   2.692   3.135  10.732
 5366SOL    HW116472   2.687   3.168  10.827
 5366SOL    HW216473   2.606   3.154  10.686
 5367SOL     OW16474   2.534   3.478   9.464
 5367SOL    HW116475   2.543   3.488   9.365
 5367SOL    HW216476   2.494   3.389   9.485
 5368SOL     OW16477   3.512   3.582  10.704
 5368SOL    HW116478   3.565   3.592  10.620
 5368SOL    HW216479   3.485   3.672  10.738
 5369SOL     OW16480   3.703   2.037  10.273
 5369SOL    HW116481   3.742   1.952  10.237
 5369SOL    HW216482   3.605   2.039  10.254
 5370SOL     OW16483   3.056   3.474   9.341
 5370SOL    HW116484   3.062   3.381   9.378
 5370SOL    HW216485   2.997   3.474   9.261
 5371SOL     OW16486   2.684   2.864  10.682
 5371SOL    HW116487   2.724   2.863  10.590
 5371SOL    HW216488   2.694   2.956  10.722
 5372SOL     OW16489   2.778   2.772   9.601
 5372SOL    HW116490   2.841   2.810   9.533
 5372SOL    HW216491   2.818   2.689   9.640
 5373SOL     OW16492   3.366   3.469   9.354
 5373SOL    HW116493   3.274   3.506   9.361
 5373SOL    HW216494   3.404   3.489   9.264
 5374SOL     OW16495   2.234   3.150  10.800
 5374SOL    HW116496   2.221   3.243  10.766
 5374SOL    HW216497   2.150   3.098  10.787
 5375SOL     OW16498   3.476   3.154  10.599
 5375SOL    HW116499   3.536   3.157  10.679
 5375SOL    HW216500   3.401   3.218  10.612
 5376SOL     OW16501   2.901   2.960  10.006
 5376SOL    HW116502   2.831   2.913  10.060
 5376SOL    HW216503   2.960   2.892   9.963
 5377SOL     OW16504   2.876   2.098  10.281
 5377SOL    HW116505   2.868   2.062  10.188
 5377SOL    HW216506   2.874   2.022  10.346
 5378SOL     OW16507   2.452   3.349   9.801
 5378SOL    HW116508   2.494   3.291   9.731
 5378SOL    HW216509   2.408   3.428   9.757
 5379SOL     OW16510   3.571   2.247  10.691
 5379SOL    HW116511   3.644   2.316  10.695
 5379SOL    HW216512   3.599   2.172  10.632
 5380SOL     OW16513   2.117   3.210   9.600
 5380SOL    HW116514   2.021   3.211   9.573
 5380SOL    HW216515   2.129   3.263   9.684
 5381SOL     OW16516   1.967   2.875  11.036
 5381SOL    HW116517   1.890   2.842  11.090
 5381SOL    HW216518   2.052   2.845  11.078
 5382SOL     OW16519   2.534   2.065  10.799
 5382SOL    HW116520   2.624   2.049  10.759
 5382SOL    HW216521   2.542   2.070  10.898
 5383SOL     OW16522   1.937   2.207   9.343
 5383SOL    HW116523   1.845   2.179   9.314
 5383SOL    HW216524   1.968   2.284   9.287
 5384SOL     OW16525   3.302   2.718  10.708
 5384SOL    HW116526   3.245   2.770  10.645
 5384SOL    HW216527   3.398   2.730  10.684
 5385SOL     OW16528   1.934   2.028   9.628
 5385SOL    HW116529   1.917   2.111   9.574
 5385SOL    HW216530   2.024   1.991   9.606
 5386SOL     OW16531   3.045   3.197   9.429
 5386SOL    HW116532   2.946   3.186   9.431
 5386SOL    HW216533   3.079   3.212   9.522
 5387SOL     OW16534   2.475   2.704  10.741
 5387SOL    HW116535   2.531   2.785  10.724
 5387SOL    HW216536   2.534   2.624  10.744
 5388SOL     OW16537   3.355   3.629  10.269
 5388SOL    HW116538   3.388   3.693  10.200
 5388SOL    HW216539   3.421   3.623  10.344
 5389SOL     OW16540   2.578   2.427  11.018
 5389SOL    HW116541   2.597   2.492  11.092
 5389SOL    HW216542   2.638   2.347  11.027
 5390SOL     OW16543   2.252   3.603  10.870
 5390SOL    HW116544   2.161   3.644  10.868
 5390SOL    HW216545   2.245   3.509  10.902
 5391SOL     OW16546   3.536   2.745  10.564
 5391SOL    HW116547   3.509   2.656  10.527
 5391SOL    HW216548   3.537   2.813  10.491
 5392SOL     OW16549   3.087   2.187   9.759
 5392SOL    HW116550   3.152   2.113   9.748
 5392SOL    HW216551   3.107   2.237   9.843
 5393SOL     OW16552   2.456   2.607   9.962
 5393SOL    HW116553   2.506   2.692   9.943
 5393SOL    HW216554   2.368   2.609   9.914
 5394SOL     OW16555   3.639   2.204  10.952
 5394SOL    HW116556   3.622   2.235  10.858
 5394SOL    HW216557   3.555   2.167  10.990
 5395SOL     OW16558   3.592   2.796  10.827
 5395SOL    HW116559   3.630   2.887  10.842
 5395SOL    HW216560   3.584   2.779  10.728
 5396SOL     OW16561   2.721   3.236   9.326
 5396SOL    HW116562   2.675   3.251   9.414
 5396SOL    HW216563   2.765   3.321   9.296
 5397SOL     OW16564   2.523   3.652  10.263
 5397SOL    HW116565   2.477   3.740  10.250
 5397SOL    HW216566   2.622   3.664  10.256
 5398SOL     OW16567   2.721   2.818  10.171
 5398SOL    HW116568   2.775   2.749  10.219
 5398SOL    HW216569   2.689   2.887  10.237
 5399SOL     OW16570   2.945   2.846   9.397
 5399SOL    HW116571   2.922   2.899   9.315
 5399SOL    HW216572   3.026   2.790   9.378
 5400SOL     OW16573   3.723   3.431  10.161
 5400SOL    HW116574   3.652   3.419  10.091
 5400SOL    HW216575   3.724   3.352  10.221
 5401SOL     OW16576   1.941   3.102   9.963
 5401SOL    HW116577   1.940   3.055  10.051
 5401SOL    HW216578   2.023   3.074   9.912
 5402SOL     OW16579   2.534   3.253  10.934
 5402SOL    HW116580   2.456   3.203  10.972
 5402SOL    HW216581   2.531   3.348  10.965
 5403SOL     OW16582   3.686   2.054  10.537
 5403SOL    HW116583   3.682   1.964  10.581
 5403SOL    HW216584   3.689   2.043  10.438
 5404SOL     OW16585   3.567   3.349  10.414
 5404SOL    HW116586   3.474   3.324  10.387
 5404SOL    HW216587   3.593   3.299  10.496
 5405SOL     OW16588   2.674   3.448   9.997
 5405SOL    HW116589   2.706   3.458   9.903
 5405SOL    HW216590   2.595   3.386   9.999
 5406SOL     OW16591   3.286   2.076  10.422
 5406SOL    HW116592   3.338   2.011  10.477
 5406SOL    HW216593   3.237   2.139  10.483
 5407SOL     OW16594   2.863   1.896  10.464
 5407SOL    HW116595   2.800   1.824  10.433
 5407SOL    HW216596   2.956   1.860  10.464
 5408SOL     OW16597   2.632   3.192   9.611
 5408SOL    HW116598   2.586   3.105   9.628
 5408SOL    HW216599   2.723   3.189   9.652
 5409SOL     OW16600   2.480   3.429  10.594
 5409SOL    HW116601   2.475   3.511  10.651
 5409SOL    HW216602   2.569   3.426  10.549
 5410SOL     OW16603   3.214   1.914   9.478
 5410SOL    HW116604   3.249   1.873   9.394
 5410SOL    HW216605   3.124   1.876   9.498
 5411SOL     OW16606   3.162   2.315  10.001
 5411SOL    HW116607   3.103   2.395  10.005
 5411SOL    HW216608   3.177   2.280  10.094
 5412SOL     OW16609   3.455   2.083  10.192
 5412SOL    HW116610   3.371   2.082  10.246
 5412SOL    HW216611   3.457   2.166  10.136
 5413SOL     OW16612   1.901   2.939   9.610
 5413SOL    HW116613   2.000   2.928   9.601
 5413SOL    HW216614   1.861   2.853   9.642
 5414SOL     OW16615   2.737   3.508   9.647
 5414SOL    HW116616   2.660   3.473   9.593
 5414SOL    HW216617   2.705   3.579   9.709
 5415SOL     OW16618   2.092   4.352   0.113
 5415SOL    HW116619   1.999   4.350   0.150
 5415SOL    HW216620   2.093   4.313   0.021
 5416SOL     OW16621   2.087   3.999   0.996
 5416SOL    HW116622   2.122   3.982   1.088
 5416SOL    HW216623   1.999   3.954   0.984
 5417SOL     OW16624   1.881   4.092   0.647
 5417SOL    HW116625   1.799   4.135   0.686
 5417SOL    HW216626   1.853   4.019   0.584
 5418SOL     OW16627   3.617   4.331   0.231
 5418SOL    HW116628   3.605   4.318   0.132
 5418SOL    HW216629   3.587   4.250   0.280
 5419SOL     OW16630   2.547   4.736   0.665
 5419SOL    HW116631   2.616   4.720   0.735
 5419SOL    HW216632   2.474   4.793   0.703
 5420SOL     OW16633   2.300   4.116   1.499
 5420SOL    HW116634   2.382   4.060   1.508
 5420SOL    HW216635   2.219   4.058   1.503
 5421SOL     OW16636   3.465   4.171   0.737
 5421SOL    HW116637   3.391   4.217   0.687
 5421SOL    HW216638   3.516   4.239   0.790
 5422SOL     OW16639   3.456   3.838   1.480
 5422SOL    HW116640   3.438   3.905   1.408
 5422SOL    HW216641   3.453   3.884   1.569
 5423SOL     OW16642   1.984   4.367   0.563
 5423SOL    HW116643   1.939   4.279   0.580
 5423SOL    HW216644   1.983   4.421   0.647
 5424SOL     OW16645   1.975   4.461   1.597
 5424SOL    HW116646   2.063   4.448   1.642
 5424SOL    HW216647   1.962   4.558   1.575
 5425SOL     OW16648   2.671   3.728   0.502
 5425SOL    HW116649   2.711   3.819   0.493
 5425SOL    HW216650   2.571   3.736   0.508
 5426SOL     OW16651   2.179   3.975   1.801
 5426SOL    HW116652   2.250   4.046   1.807
 5426SOL    HW216653   2.091   4.014   1.829
 5427SOL     OW16654   3.143   4.069   0.944
 5427SOL    HW116655   3.057   4.019   0.931
 5427SOL    HW216656   3.205   4.015   1.000
 5428SOL     OW16657   2.669   4.329   1.465
 5428SOL    HW116658   2.622   4.326   1.554
 5428SOL    HW216659   2.618   4.274   1.399
 5429SOL     OW16660   3.256   4.193   1.674
 5429SOL    HW116661   3.236   4.236   1.762
 5429SOL    HW216662   3.334   4.131   1.683
 5430SOL     OW16663   2.853   4.134   1.242
 5430SOL    HW116664   2.776   4.168   1.296
 5430SOL    HW216665   2.819   4.083   1.163
 5431SOL     OW16666   2.903   4.425   0.429
 5431SOL    HW116667   2.929   4.421   0.525
 5431SOL    HW216668   2.818   4.374   0.415
 5432SOL     OW16669   2.727   4.072   0.195
 5432SOL    HW116670   2.786   4.135   0.146
 5432SOL    HW216671   2.746   3.978   0.166
 5433SOL     OW16672   3.581   4.309   1.831
 5433SOL    HW116673   3.555   4.398   1.795
 5433SOL    HW216674   3.579   4.241   1.758
 5434SOL     OW16675   2.412   3.920   0.885
 5434SOL    HW116676   2.407   3.915   0.985
 5434SOL    HW216677   2.414   4.016   0.856
 5435SOL     OW16678   3.320   4.459   0.728
 5435SOL    HW116679   3.315   4.394   0.803
 5435SOL    HW216680   3.400   4.518   0.741
 5436SOL     OW16681   2.064   4.009   1.498
 5436SOL    HW116682   1.984   4.069   1.485
 5436SOL    HW216683   2.054   3.960   1.584
 5437SOL     OW16684   3.262   3.831   0.426
 5437SOL    HW116685   3.238   3.794   0.336
 5437SOL    HW216686   3.361   3.847   0.430
 5438SOL     OW16687   2.244   4.424   0.480
 5438SOL    HW116688   2.289   4.334   0.477
 5438SOL    HW216689   2.150   4.413   0.513
 5439SOL     OW16690   3.409   3.946   1.729
 5439SOL    HW116691   3.404   3.983   1.821
 5439SOL    HW216692   3.337   3.877   1.717
 5440SOL     OW16693   2.476   3.846   0.117
 5440SOL    HW116694   2.574   3.824   0.124
 5440SOL    HW216695   2.445   3.829   0.024
 5441SOL     OW16696   2.643   3.988   1.749
 5441SOL    HW116697   2.710   3.927   1.792
 5441SOL    HW216698   2.570   4.007   1.814
 5442SOL     OW16699   3.213   4.314   1.433
 5442SOL    HW116700   3.241   4.271   1.518
 5442SOL    HW216701   3.238   4.410   1.434
 5443SOL     OW16702   2.784   4.227   0.899
 5443SOL    HW116703   2.759   4.218   0.803
 5443SOL    HW216704   2.832   4.145   0.930
 5444SOL     OW16705   2.401   3.788   0.512
 5444SOL    HW116706   2.320   3.789   0.570
 5444SOL    HW216707   2.404   3.871   0.457
 5445SOL     OW16708   2.159   3.759   0.171
 5445SOL    HW116709   2.208   3.843   0.150
 5445SOL    HW216710   2.221   3.694   0.216
 5446SOL     OW16711   2.797   3.960   0.480
 5446SOL    HW116712   2.749   4.001   0.402
 5446SOL    HW216713   2.896   3.958   0.461
 5447SOL     OW16714   2.938   4.407   1.464
 5447SOL    HW116715   2.858   4.346   1.467
 5447SOL    HW216716   3.019   4.354   1.440
 5448SOL     OW16717   2.894   4.273   0.016
 5448SOL    HW116718   2.853   4.355  -0.023
 5448SOL    HW216719   2.958   4.299   0.089
 5449SOL     OW16720   1.940   4.280   1.386
 5449SOL    HW116721   2.032   4.279   1.345
 5449SOL    HW216722   1.934   4.354   1.453
 5450SOL     OW16723   2.423   3.946   1.147
 5450SOL    HW116724   2.461   3.862   1.184
 5450SOL    HW216725   2.335   3.965   1.191
 5451SOL     OW16726   2.728   4.178   0.642
 5451SOL    HW116727   2.696   4.250   0.580
 5451SOL    HW216728   2.752   4.097   0.589
 5452SOL     OW16729   2.879   3.763   0.753
 5452SOL    HW116730   2.807   3.768   0.684
 5452SOL    HW216731   2.855   3.694   0.822
 5453SOL     OW16732   3.328   4.314   0.992
 5453SOL    HW116733   3.298   4.219   0.999
 5453SOL    HW216734   3.401   4.330   1.058
 5454SOL     OW16735   3.252   4.299   0.078
 5454SOL    HW116736   3.198   4.278   0.159
 5454SOL    HW216737   3.343   4.258   0.087
 5455SOL     OW16738   2.389   3.980   0.328
 5455SOL    HW116739   2.416   3.921   0.253
 5455SOL    HW216740   2.389   4.075   0.297
 5456SOL     OW16741   2.777   3.813   1.402
 5456SOL    HW116742   2.802   3.793   1.307
 5456SOL    HW216743   2.849   3.869   1.444
 5457SOL     OW16744   2.272   4.537   1.251
 5457SOL    HW116745   2.358   4.549   1.301
 5457SOL    HW216746   2.230   4.450   1.278
 5458SOL     OW16747   3.136   4.110   1.262
 5458SOL    HW116748   3.157   4.184   1.326
 5458SOL    HW216749   3.047   4.127   1.219
 5459SOL     OW16750   2.428   4.261   0.865
 5459SOL    HW116751   2.440   4.327   0.791
 5459SOL    HW216752   2.474   4.295   0.948
 5460SOL     OW16753   3.444   4.363   0.472
 5460SOL    HW116754   3.413   4.424   0.545
 5460SOL    HW216755   3.494   4.415   0.403
 5461SOL     OW16756   2.875   3.829   1.770
 5461SOL    HW116757   2.881   3.914   1.718
 5461SOL    HW216758   2.907   3.753   1.713
 5462SOL     OW16759   2.366   3.774   1.740
 5462SOL    HW116760   2.324   3.717   1.670
 5462SOL    HW216761   2.300   3.843   1.772
 5463SOL     OW16762   3.071   4.249   0.275
 5463SOL    HW116763   3.084   4.165   0.329
 5463SOL    HW216764   3.042   4.323   0.335
 5464SOL     OW16765   2.169   3.937   1.231
 5464SOL    HW116766   2.146   3.974   1.321
 5464SOL    HW216767   2.139   3.842   1.225
 5465SOL     OW16768   2.594   4.358   1.064
 5465SOL    HW116769   2.653   4.332   0.988
 5465SOL    HW216770   2.566   4.454   1.053
 5466SOL     OW16771   3.590   4.659   1.854
 5466SOL    HW116772   3.544   4.652   1.765
 5466SOL    HW216773   3.528   4.703   1.920
 5467SOL     OW16774   2.169   3.787   0.618
 5467SOL    HW116775   2.158   3.881   0.651
 5467SOL    HW216776   2.164   3.724   0.695
 5468SOL     OW16777   3.484   4.091   0.374
 5468SOL    HW116778   3.486   4.015   0.438
 5468SOL    HW216779   3.436   4.168   0.414
 5469SOL     OW16780   3.402   3.998   0.125
 5469SOL    HW116781   3.341   3.923   0.148
 5469SOL    HW216782   3.424   4.050   0.208
 5470SOL     OW16783   2.181   4.534   0.949
 5470SOL    HW116784   2.274   4.570   0.954
 5470SOL    HW216785   2.175   4.449   1.001
 5471SOL     OW16786   2.201   4.233   1.006
 5471SOL    HW116787   2.149   4.150   0.989
 5471SOL    HW216788   2.278   4.238   0.942
 5472SOL     OW16789   3.000   4.104   1.678
 5472SOL    HW116790   2.955   4.167   1.742
 5472SOL    HW216791   3.093   4.135   1.661
 5473SOL     OW16792   3.022   3.931   1.477
 5473SOL    HW116793   3.022   3.995   1.554
 5473SOL    HW216794   3.050   3.979   1.394
 5474SOL     OW16795   1.902   4.268   1.114
 5474SOL    HW116796   1.987   4.235   1.073
 5474SOL    HW216797   1.915   4.283   1.212
 5475SOL     OW16798   2.051   4.244   1.722
 5475SOL    HW116799   2.110   4.204   1.652
 5475SOL    HW216800   1.993   4.315   1.681
 5476SOL     OW16801   2.677   4.296   0.325
 5476SOL    HW116802   2.684   4.207   0.279
 5476SOL    HW216803   2.583   4.330   0.317
 5477SOL     OW16804   3.519   4.328   1.206
 5477SOL    HW116805   3.481   4.259   1.268
 5477SOL    HW216806   3.601   4.292   1.162
 5478SOL     OW16807   2.533   4.188   1.269
 5478SOL    HW116808   2.499   4.099   1.239
 5478SOL    HW216809   2.559   4.242   1.189
 5479SOL     OW16810   2.335   4.224   0.191
 5479SOL    HW116811   2.396   4.304   0.195
 5479SOL    HW216812   2.240   4.255   0.198
 5480SOL     OW16813   2.765   3.810   0.133
 5480SOL    HW116814   2.816   3.811   0.047
 5480SOL    HW216815   2.821   3.768   0.204
 5481SOL     OW16816   3.588   3.859   0.523
 5481SOL    HW116817   3.661   3.842   0.456
 5481SOL    HW216818   3.557   3.772   0.561
 5482SOL     OW16819   3.142   4.651   0.672
 5482SOL    HW116820   3.202   4.570   0.674
 5482SOL    HW216821   3.182   4.720   0.612
 5483SOL     OW16822   3.703   3.899   0.963
 5483SOL    HW116823   3.742   3.814   0.927
 5483SOL    HW216824   3.605   3.901   0.944
 5484SOL     OW16825   2.125   4.050   0.720
 5484SOL    HW116826   2.046   4.101   0.686
 5484SOL    HW216827   2.116   4.035   0.818
 5485SOL     OW16828   2.901   4.822   0.696
 5485SOL    HW116829   2.831   4.775   0.750
 5485SOL    HW216830   2.960   4.754   0.653
 5486SOL     OW16831   2.876   3.960   0.971
 5486SOL    HW116832   2.868   3.924   0.878
 5486SOL    HW216833   2.874   3.884   1.036
 5487SOL     OW16834   3.571   4.109   1.381
 5487SOL    HW116835   3.644   4.178   1.385
 5487SOL    HW216836   3.599   4.034   1.322
 5488SOL     OW16837   2.534   3.927   1.489
 5488SOL    HW116838   2.624   3.911   1.449
 5488SOL    HW216839   2.542   3.932   1.588
 5489SOL     OW16840   1.937   4.069   0.033
 5489SOL    HW116841   1.845   4.041   0.004
 5489SOL    HW216842   1.968   4.146  -0.023
 5490SOL     OW16843   1.934   3.890   0.318
 5490SOL    HW116844   1.917   3.973   0.264
 5490SOL    HW216845   2.024   3.853   0.296
 5491SOL     OW16846   2.578   4.289   1.708
 5491SOL    HW116847   2.597   4.354   1.782
 5491SOL    HW216848   2.638   4.209   1.717
 5492SOL     OW16849   3.087   4.049   0.449
 5492SOL    HW116850   3.152   3.975   0.438
 5492SOL    HW216851   3.107   4.099   0.533
 5493SOL     OW16852   3.639   4.066   1.642
 5493SOL    HW116853   3.622   4.097   1.548
 5493SOL    HW216854   3.555   4.029   1.680
 5494SOL     OW16855   2.945   4.708   0.087
 5494SOL    HW116856   2.922   4.761   0.005
 5494SOL    HW216857   3.026   4.652   0.068
 5495SOL     OW16858   3.686   3.916   1.227
 5495SOL    HW116859   3.682   3.826   1.271
 5495SOL    HW216860   3.689   3.905   1.128
 5496SOL     OW16861   2.290   4.148   0.520
 5496SOL    HW116862   2.320   4.076   0.458
 5496SOL    HW216863   2.251   4.108   0.603
 5497SOL     OW16864   2.179   4.271   1.280
 5497SOL    HW116865   2.217   4.212   1.352
 5497SOL    HW216866   2.219   4.245   1.192
 5498SOL     OW16867   3.286   3.938   1.112
 5498SOL    HW116868   3.338   3.873   1.167
 5498SOL    HW216869   3.237   4.001   1.173
 5499SOL     OW16870   2.863   3.758   1.154
 5499SOL    HW116871   2.800   3.686   1.123
 5499SOL    HW216872   2.956   3.722   1.154
 5500SOL     OW16873   3.214   3.776   0.168
 5500SOL    HW116874   3.249   3.735   0.084
 5500SOL    HW216875   3.124   3.738   0.188
 5501SOL     OW16876   3.162   4.177   0.691
 5501SOL    HW116877   3.103   4.257   0.695
 5501SOL    HW216878   3.177   4.142   0.784
 5502SOL     OW16879   3.455   3.945   0.882
 5502SOL    HW116880   3.371   3.944   0.936
 5502SOL    HW216881   3.457   4.028   0.826
 5503SOL     OW16882   2.092   4.352   1.975
 5503SOL    HW116883   1.999   4.350   2.012
 5503SOL    HW216884   2.093   4.313   1.883
 5504SOL     OW16885   2.087   3.999   2.858
 5504SOL    HW116886   2.122   3.982   2.950
 5504SOL    HW216887   1.999   3.954   2.846
 5505SOL     OW16888   1.881   4.092   2.509
 5505SOL    HW116889   1.799   4.135   2.548
 5505SOL    HW216890   1.853   4.019   2.446
 5506SOL     OW16891   3.617   4.331   2.093
 5506SOL    HW116892   3.605   4.318   1.994
 5506SOL    HW216893   3.587   4.250   2.142
 5507SOL     OW16894   2.547   4.736   2.527
 5507SOL    HW116895   2.616   4.720   2.597
 5507SOL    HW216896   2.474   4.793   2.565
 5508SOL     OW16897   2.300   4.116   3.361
 5508SOL    HW116898   2.382   4.060   3.370
 5508SOL    HW216899   2.219   4.058   3.365
 5509SOL     OW16900   3.465   4.171   2.599
 5509SOL    HW116901   3.391   4.217   2.549
 5509SOL    HW216902   3.516   4.239   2.652
 5510SOL     OW16903   3.456   3.838   3.342
 5510SOL    HW116904   3.438   3.905   3.270
 5510SOL    HW216905   3.453   3.884   3.431
 5511SOL     OW16906   1.984   4.367   2.425
 5511SOL    HW116907   1.939   4.279   2.442
 5511SOL    HW216908   1.983   4.421   2.509
 5512SOL     OW16909   1.975   4.461   3.459
 5512SOL    HW116910   2.063   4.448   3.504
 5512SOL    HW216911   1.962   4.558   3.437
 5513SOL     OW16912   2.671   3.728   2.364
 5513SOL    HW116913   2.711   3.819   2.355
 5513SOL    HW216914   2.571   3.736   2.370
 5514SOL     OW16915   2.179   3.975   3.663
 5514SOL    HW116916   2.250   4.046   3.669
 5514SOL    HW216917   2.091   4.014   3.691
 5515SOL     OW16918   3.143   4.069   2.806
 5515SOL    HW116919   3.057   4.019   2.793
 5515SOL    HW216920   3.205   4.015   2.862
 5516SOL     OW16921   2.669   4.329   3.327
 5516SOL    HW116922   2.622   4.326   3.416
 5516SOL    HW216923   2.618   4.274   3.261
 5517SOL     OW16924   3.256   4.193   3.536
 5517SOL    HW116925   3.236   4.236   3.624
 5517SOL    HW216926   3.334   4.131   3.545
 5518SOL     OW16927   2.853   4.134   3.104
 5518SOL    HW116928   2.776   4.168   3.158
 5518SOL    HW216929   2.819   4.083   3.025
 5519SOL     OW16930   2.903   4.425   2.291
 5519SOL    HW116931   2.929   4.421   2.387
 5519SOL    HW216932   2.818   4.374   2.277
 5520SOL     OW16933   2.727   4.072   2.057
 5520SOL    HW116934   2.786   4.135   2.008
 5520SOL    HW216935   2.746   3.978   2.028
 5521SOL     OW16936   3.581   4.309   3.693
 5521SOL    HW116937   3.555   4.398   3.657
 5521SOL    HW216938   3.579   4.241   3.620
 5522SOL     OW16939   2.412   3.920   2.747
 5522SOL    HW116940   2.407   3.915   2.847
 5522SOL    HW216941   2.414   4.016   2.718
 5523SOL     OW16942   3.320   4.459   2.590
 5523SOL    HW116943   3.315   4.394   2.665
 5523SOL    HW216944   3.400   4.518   2.603
 5524SOL     OW16945   2.064   4.009   3.360
 5524SOL    HW116946   1.984   4.069   3.347
 5524SOL    HW216947   2.054   3.960   3.446
 5525SOL     OW16948   3.262   3.831   2.288
 5525SOL    HW116949   3.238   3.794   2.198
 5525SOL    HW216950   3.361   3.847   2.292
 5526SOL     OW16951   2.244   4.424   2.342
 5526SOL    HW116952   2.289   4.334   2.339
 5526SOL    HW216953   2.150   4.413   2.375
 5527SOL     OW16954   3.409   3.946   3.591
 5527SOL    HW116955   3.404   3.983   3.683
 5527SOL    HW216956   3.337   3.877   3.579
 5528SOL     OW16957   2.476   3.846   1.979
 5528SOL    HW116958   2.574   3.824   1.986
 5528SOL    HW216959   2.445   3.829   1.886
 5529SOL     OW16960   2.643   3.988   3.611
 5529SOL    HW116961   2.710   3.927   3.654
 5529SOL    HW216962   2.570   4.007   3.676
 5530SOL     OW16963   3.213   4.314   3.295
 5530SOL    HW116964   3.241   4.271   3.380
 5530SOL    HW216965   3.238   4.410   3.296
 5531SOL     OW16966   2.784   4.227   2.761
 5531SOL    HW116967   2.759   4.218   2.665
 5531SOL    HW216968   2.832   4.145   2.792
 5532SOL     OW16969   2.401   3.788   2.374
 5532SOL    HW116970   2.320   3.789   2.432
 5532SOL    HW216971   2.404   3.871   2.319
 5533SOL     OW16972   2.159   3.759   2.033
 5533SOL    HW116973   2.208   3.843   2.012
 5533SOL    HW216974   2.221   3.694   2.078
 5534SOL     OW16975   2.797   3.960   2.342
 5534SOL    HW116976   2.749   4.001   2.264
 5534SOL    HW216977   2.896   3.958   2.323
 5535SOL     OW16978   2.938   4.407   3.326
 5535SOL    HW116979   2.858   4.346   3.329
 5535SOL    HW216980   3.019   4.354   3.302
 5536SOL     OW16981   2.894   4.273   1.878
 5536SOL    HW116982   2.853   4.355   1.839
 5536SOL    HW216983   2.958   4.299   1.951
 5537SOL     OW16984   1.940   4.280   3.248
 5537SOL    HW116985   2.032   4.279   3.207
 5537SOL    HW216986   1.934   4.354   3.315
 5538SOL     OW16987   2.423   3.946   3.009
 5538SOL    HW116988   2.461   3.862   3.046
 5538SOL    HW216989   2.335   3.965   3.053
 5539SOL     OW16990   2.728   4.178   2.504
 5539SOL    HW116991   2.696   4.250   2.442
 5539SOL    HW216992   2.752   4.097   2.451
 5540SOL     OW16993   2.879   3.763   2.615
 5540SOL    HW116994   2.807   3.768   2.546
 5540SOL    HW216995   2.855   3.694   2.684
 5541SOL     OW16996   3.328   4.314   2.854
 5541SOL    HW116997   3.298   4.219   2.861
 5541SOL    HW216998   3.401   4.330   2.920
 5542SOL     OW16999   3.252   4.299   1.940
 5542SOL    HW117000   3.198   4.278   2.021
 5542SOL    HW217001   3.343   4.258   1.949
 5543SOL     OW17002   2.389   3.980   2.190
 5543SOL    HW117003   2.416   3.921   2.115
 5543SOL    HW217004   2.389   4.075   2.159
 5544SOL     OW17005   2.777   3.813   3.264
 5544SOL    HW117006   2.802   3.793   3.169
 5544SOL    HW217007   2.849   3.869   3.306
 5545SOL     OW17008   2.272   4.537   3.113
 5545SOL    HW117009   2.358   4.549   3.163
 5545SOL    HW217010   2.230   4.450   3.140
 5546SOL     OW17011   3.136   4.110   3.124
 5546SOL    HW117012   3.157   4.184   3.188
 5546SOL    HW217013   3.047   4.127   3.081
 5547SOL     OW17014   2.428   4.261   2.727
 5547SOL    HW117015   2.440   4.327   2.653
 5547SOL    HW217016   2.474   4.295   2.810
 5548SOL     OW17017   3.444   4.363   2.334
 5548SOL    HW117018   3.413   4.424   2.407
 5548SOL    HW217019   3.494   4.415   2.265
 5549SOL     OW17020   2.875   3.829   3.632
 5549SOL    HW117021   2.881   3.914   3.580
 5549SOL    HW217022   2.907   3.753   3.575
 5550SOL     OW17023   2.366   3.774   3.602
 5550SOL    HW117024   2.324   3.717   3.532
 5550SOL    HW217025   2.300   3.843   3.634
 5551SOL     OW17026   3.071   4.249   2.137
 5551SOL    HW117027   3.084   4.165   2.191
 5551SOL    HW217028   3.042   4.323   2.197
 5552SOL     OW17029   2.169   3.937   3.093
 5552SOL    HW117030   2.146   3.974   3.183
 5552SOL    HW217031   2.139   3.842   3.087
 5553SOL     OW17032   2.594   4.358   2.926
 5553SOL    HW117033   2.653   4.332   2.850
 5553SOL    HW217034   2.566   4.454   2.915
 5554SOL     OW17035   3.590   4.659   3.716
 5554SOL    HW117036   3.544   4.652   3.627
 5554SOL    HW217037   3.528   4.703   3.782
 5555SOL     OW17038   2.169   3.787   2.480
 5555SOL    HW117039   2.158   3.881   2.513
 5555SOL    HW217040   2.164   3.724   2.557
 5556SOL     OW17041   3.484   4.091   2.236
 5556SOL    HW117042   3.486   4.015   2.300
 5556SOL    HW217043   3.436   4.168   2.276
 5557SOL     OW17044   3.402   3.998   1.987
 5557SOL    HW117045   3.341   3.923   2.010
 5557SOL    HW217046   3.424   4.050   2.070
 5558SOL     OW17047   2.181   4.534   2.811
 5558SOL    HW117048   2.274   4.570   2.816
 5558SOL    HW217049   2.175   4.449   2.863
 5559SOL     OW17050   2.201   4.233   2.868
 5559SOL    HW117051   2.149   4.150   2.851
 5559SOL    HW217052   2.278   4.238   2.804
 5560SOL     OW17053   3.000   4.104   3.540
 5560SOL    HW117054   2.955   4.167   3.604
 5560SOL    HW217055   3.093   4.135   3.523
 5561SOL     OW17056   3.022   3.931   3.339
 5561SOL    HW117057   3.022   3.995   3.416
 5561SOL    HW217058   3.050   3.979   3.256
 5562SOL     OW17059   1.902   4.268   2.976
 5562SOL    HW117060   1.987   4.235   2.935
 5562SOL    HW217061   1.915   4.283   3.074
 5563SOL     OW17062   2.051   4.244   3.584
 5563SOL    HW117063   2.110   4.204   3.514
 5563SOL    HW217064   1.993   4.315   3.543
 5564SOL     OW17065   2.677   4.296   2.187
 5564SOL    HW117066   2.684   4.207   2.141
 5564SOL    HW217067   2.583   4.330   2.179
 5565SOL     OW17068   3.519   4.328   3.068
 5565SOL    HW117069   3.481   4.259   3.130
 5565SOL    HW217070   3.601   4.292   3.024
 5566SOL     OW17071   2.533   4.188   3.131
 5566SOL    HW117072   2.499   4.099   3.101
 5566SOL    HW217073   2.559   4.242   3.051
 5567SOL     OW17074   2.335   4.224   2.053
 5567SOL    HW117075   2.396   4.304   2.057
 5567SOL    HW217076   2.240   4.255   2.060
 5568SOL     OW17077   3.588   3.859   2.385
 5568SOL    HW117078   3.661   3.842   2.318
 5568SOL    HW217079   3.557   3.772   2.423
 5569SOL     OW17080   3.142   4.651   2.534
 5569SOL    HW117081   3.202   4.570   2.536
 5569SOL    HW217082   3.182   4.720   2.474
 5570SOL     OW17083   3.703   3.899   2.825
 5570SOL    HW117084   3.742   3.814   2.789
 5570SOL    HW217085   3.605   3.901   2.806
 5571SOL     OW17086   2.125   4.050   2.582
 5571SOL    HW117087   2.046   4.101   2.548
 5571SOL    HW217088   2.116   4.035   2.680
 5572SOL     OW17089   2.778   4.634   2.153
 5572SOL    HW117090   2.841   4.672   2.085
 5572SOL    HW217091   2.818   4.551   2.192
 5573SOL     OW17092   2.901   4.822   2.558
 5573SOL    HW117093   2.831   4.775   2.612
 5573SOL    HW217094   2.960   4.754   2.515
 5574SOL     OW17095   2.876   3.960   2.833
 5574SOL    HW117096   2.868   3.924   2.740
 5574SOL    HW217097   2.874   3.884   2.898
 5575SOL     OW17098   3.571   4.109   3.243
 5575SOL    HW117099   3.644   4.178   3.247
 5575SOL    HW217100   3.599   4.034   3.184
 5576SOL     OW17101   2.534   3.927   3.351
 5576SOL    HW117102   2.624   3.911   3.311
 5576SOL    HW217103   2.542   3.932   3.450
 5577SOL     OW17104   1.937   4.069   1.895
 5577SOL    HW117105   1.845   4.041   1.866
 5577SOL    HW217106   1.968   4.146   1.839
 5578SOL     OW17107   1.934   3.890   2.180
 5578SOL    HW117108   1.917   3.973   2.126
 5578SOL    HW217109   2.024   3.853   2.158
 5579SOL     OW17110   2.578   4.289   3.570
 5579SOL    HW117111   2.597   4.354   3.644
 5579SOL    HW217112   2.638   4.209   3.579
 5580SOL     OW17113   3.087   4.049   2.311
 5580SOL    HW117114   3.152   3.975   2.300
 5580SOL    HW217115   3.107   4.099   2.395
 5581SOL     OW17116   3.639   4.066   3.504
 5581SOL    HW117117   3.622   4.097   3.410
 5581SOL    HW217118   3.555   4.029   3.542
 5582SOL     OW17119   2.945   4.708   1.949
 5582SOL    HW117120   2.922   4.761   1.867
 5582SOL    HW217121   3.026   4.652   1.930
 5583SOL     OW17122   3.686   3.916   3.089
 5583SOL    HW117123   3.682   3.826   3.133
 5583SOL    HW217124   3.689   3.905   2.990
 5584SOL     OW17125   2.290   4.148   2.382
 5584SOL    HW117126   2.320   4.076   2.320
 5584SOL    HW217127   2.251   4.108   2.465
 5585SOL     OW17128   2.179   4.271   3.142
 5585SOL    HW117129   2.217   4.212   3.214
 5585SOL    HW217130   2.219   4.245   3.054
 5586SOL     OW17131   3.286   3.938   2.974
 5586SOL    HW117132   3.338   3.873   3.029
 5586SOL    HW217133   3.237   4.001   3.035
 5587SOL     OW17134   2.863   3.758   3.016
 5587SOL    HW117135   2.800   3.686   2.985
 5587SOL    HW217136   2.956   3.722   3.016
 5588SOL     OW17137   3.214   3.776   2.030
 5588SOL    HW117138   3.249   3.735   1.946
 5588SOL    HW217139   3.124   3.738   2.050
 5589SOL     OW17140   3.162   4.177   2.553
 5589SOL    HW117141   3.103   4.257   2.557
 5589SOL    HW217142   3.177   4.142   2.646
 5590SOL     OW17143   3.455   3.945   2.744
 5590SOL    HW117144   3.371   3.944   2.798
 5590SOL    HW217145   3.457   4.028   2.688
 5591SOL     OW17146   2.092   4.352   3.837
 5591SOL    HW117147   1.999   4.350   3.874
 5591SOL    HW217148   2.093   4.313   3.745
 5592SOL     OW17149   2.087   3.999   4.720
 5592SOL    HW117150   2.122   3.982   4.812
 5592SOL    HW217151   1.999   3.954   4.708
 5593SOL     OW17152   1.881   4.092   4.371
 5593SOL    HW117153   1.799   4.135   4.410
 5593SOL    HW217154   1.853   4.019   4.308
 5594SOL     OW17155   3.617   4.331   3.955
 5594SOL    HW117156   3.605   4.318   3.856
 5594SOL    HW217157   3.587   4.250   4.004
 5595SOL     OW17158   2.547   4.736   4.389
 5595SOL    HW117159   2.616   4.720   4.459
 5595SOL    HW217160   2.474   4.793   4.427
 5596SOL     OW17161   2.300   4.116   5.223
 5596SOL    HW117162   2.382   4.060   5.232
 5596SOL    HW217163   2.219   4.058   5.227
 5597SOL     OW17164   3.465   4.171   4.461
 5597SOL    HW117165   3.391   4.217   4.411
 5597SOL    HW217166   3.516   4.239   4.514
 5598SOL     OW17167   3.456   3.838   5.204
 5598SOL    HW117168   3.438   3.905   5.132
 5598SOL    HW217169   3.453   3.884   5.293
 5599SOL     OW17170   1.984   4.367   4.287
 5599SOL    HW117171   1.939   4.279   4.304
 5599SOL    HW217172   1.983   4.421   4.371
 5600SOL     OW17173   1.975   4.461   5.321
 5600SOL    HW117174   2.063   4.448   5.366
 5600SOL    HW217175   1.962   4.558   5.299
 5601SOL     OW17176   2.671   3.728   4.226
 5601SOL    HW117177   2.711   3.819   4.217
 5601SOL    HW217178   2.571   3.736   4.232
 5602SOL     OW17179   2.179   3.975   5.525
 5602SOL    HW117180   2.250   4.046   5.531
 5602SOL    HW217181   2.091   4.014   5.553
 5603SOL     OW17182   3.143   4.069   4.668
 5603SOL    HW117183   3.057   4.019   4.655
 5603SOL    HW217184   3.205   4.015   4.724
 5604SOL     OW17185   2.669   4.329   5.189
 5604SOL    HW117186   2.622   4.326   5.278
 5604SOL    HW217187   2.618   4.274   5.123
 5605SOL     OW17188   3.256   4.193   5.398
 5605SOL    HW117189   3.236   4.236   5.486
 5605SOL    HW217190   3.334   4.131   5.407
 5606SOL     OW17191   2.853   4.134   4.966
 5606SOL    HW117192   2.776   4.168   5.020
 5606SOL    HW217193   2.819   4.083   4.887
 5607SOL     OW17194   2.903   4.425   4.153
 5607SOL    HW117195   2.929   4.421   4.249
 5607SOL    HW217196   2.818   4.374   4.139
 5608SOL     OW17197   2.727   4.072   3.919
 5608SOL    HW117198   2.786   4.135   3.870
 5608SOL    HW217199   2.746   3.978   3.890
 5609SOL     OW17200   3.581   4.309   5.555
 5609SOL    HW117201   3.555   4.398   5.519
 5609SOL    HW217202   3.579   4.241   5.482
 5610SOL     OW17203   2.412   3.920   4.609
 5610SOL    HW117204   2.407   3.915   4.709
 5610SOL    HW217205   2.414   4.016   4.580
 5611SOL     OW17206   3.320   4.459   4.452
 5611SOL    HW117207   3.315   4.394   4.527
 5611SOL    HW217208   3.400   4.518   4.465
 5612SOL     OW17209   2.064   4.009   5.222
 5612SOL    HW117210   1.984   4.069   5.209
 5612SOL    HW217211   2.054   3.960   5.308
 5613SOL     OW17212   3.262   3.831   4.150
 5613SOL    HW117213   3.238   3.794   4.060
 5613SOL    HW217214   3.361   3.847   4.154
 5614SOL     OW17215   2.244   4.424   4.204
 5614SOL    HW117216   2.289   4.334   4.201
 5614SOL    HW217217   2.150   4.413   4.237
 5615SOL     OW17218   3.409   3.946   5.453
 5615SOL    HW117219   3.404   3.983   5.545
 5615SOL    HW217220   3.337   3.877   5.441
 5616SOL     OW17221   2.476   3.846   3.841
 5616SOL    HW117222   2.574   3.824   3.848
 5616SOL    HW217223   2.445   3.829   3.748
 5617SOL     OW17224   2.643   3.988   5.473
 5617SOL    HW117225   2.710   3.927   5.516
 5617SOL    HW217226   2.570   4.007   5.538
 5618SOL     OW17227   3.213   4.314   5.157
 5618SOL    HW117228   3.241   4.271   5.242
 5618SOL    HW217229   3.238   4.410   5.158
 5619SOL     OW17230   2.784   4.227   4.623
 5619SOL    HW117231   2.759   4.218   4.527
 5619SOL    HW217232   2.832   4.145   4.654
 5620SOL     OW17233   2.401   3.788   4.236
 5620SOL    HW117234   2.320   3.789   4.294
 5620SOL    HW217235   2.404   3.871   4.181
 5621SOL     OW17236   2.159   3.759   3.895
 5621SOL    HW117237   2.208   3.843   3.874
 5621SOL    HW217238   2.221   3.694   3.940
 5622SOL     OW17239   2.797   3.960   4.204
 5622SOL    HW117240   2.749   4.001   4.126
 5622SOL    HW217241   2.896   3.958   4.185
 5623SOL     OW17242   2.938   4.407   5.188
 5623SOL    HW117243   2.858   4.346   5.191
 5623SOL    HW217244   3.019   4.354   5.164
 5624SOL     OW17245   2.894   4.273   3.740
 5624SOL    HW117246   2.853   4.355   3.701
 5624SOL    HW217247   2.958   4.299   3.813
 5625SOL     OW17248   1.940   4.280   5.110
 5625SOL    HW117249   2.032   4.279   5.069
 5625SOL    HW217250   1.934   4.354   5.177
 5626SOL     OW17251   2.423   3.946   4.871
 5626SOL    HW117252   2.461   3.862   4.908
 5626SOL    HW217253   2.335   3.965   4.915
 5627SOL     OW17254   2.728   4.178   4.366
 5627SOL    HW117255   2.696   4.250   4.304
 5627SOL    HW217256   2.752   4.097   4.313
 5628SOL     OW17257   2.879   3.763   4.477
 5628SOL    HW117258   2.807   3.768   4.408
 5628SOL    HW217259   2.855   3.694   4.546
 5629SOL     OW17260   3.328   4.314   4.716
 5629SOL    HW117261   3.298   4.219   4.723
 5629SOL    HW217262   3.401   4.330   4.782
 5630SOL     OW17263   3.252   4.299   3.802
 5630SOL    HW117264   3.198   4.278   3.883
 5630SOL    HW217265   3.343   4.258   3.811
 5631SOL     OW17266   2.389   3.980   4.052
 5631SOL    HW117267   2.416   3.921   3.977
 5631SOL    HW217268   2.389   4.075   4.021
 5632SOL     OW17269   2.777   3.813   5.126
 5632SOL    HW117270   2.802   3.793   5.031
 5632SOL    HW217271   2.849   3.869   5.168
 5633SOL     OW17272   2.272   4.537   4.975
 5633SOL    HW117273   2.358   4.549   5.025
 5633SOL    HW217274   2.230   4.450   5.002
 5634SOL     OW17275   3.136   4.110   4.986
 5634SOL    HW117276   3.157   4.184   5.050
 5634SOL    HW217277   3.047   4.127   4.943
 5635SOL     OW17278   2.428   4.261   4.589
 5635SOL    HW117279   2.440   4.327   4.515
 5635SOL    HW217280   2.474   4.295   4.672
 5636SOL     OW17281   3.444   4.363   4.196
 5636SOL    HW117282   3.413   4.424   4.269
 5636SOL    HW217283   3.494   4.415   4.127
 5637SOL     OW17284   2.875   3.829   5.494
 5637SOL    HW117285   2.881   3.914   5.442
 5637SOL    HW217286   2.907   3.753   5.437
 5638SOL     OW17287   2.366   3.774   5.464
 5638SOL    HW117288   2.324   3.717   5.394
 5638SOL    HW217289   2.300   3.843   5.496
 5639SOL     OW17290   3.071   4.249   3.999
 5639SOL    HW117291   3.084   4.165   4.053
 5639SOL    HW217292   3.042   4.323   4.059
 5640SOL     OW17293   2.169   3.937   4.955
 5640SOL    HW117294   2.146   3.974   5.045
 5640SOL    HW217295   2.139   3.842   4.949
 5641SOL     OW17296   2.594   4.358   4.788
 5641SOL    HW117297   2.653   4.332   4.712
 5641SOL    HW217298   2.566   4.454   4.777
 5642SOL     OW17299   3.590   4.659   5.578
 5642SOL    HW117300   3.544   4.652   5.489
 5642SOL    HW217301   3.528   4.703   5.644
 5643SOL     OW17302   2.169   3.787   4.342
 5643SOL    HW117303   2.158   3.881   4.375
 5643SOL    HW217304   2.164   3.724   4.419
 5644SOL     OW17305   3.484   4.091   4.098
 5644SOL    HW117306   3.486   4.015   4.162
 5644SOL    HW217307   3.436   4.168   4.138
 5645SOL     OW17308   3.402   3.998   3.849
 5645SOL    HW117309   3.341   3.923   3.872
 5645SOL    HW217310   3.424   4.050   3.932
 5646SOL     OW17311   2.181   4.534   4.673
 5646SOL    HW117312   2.274   4.570   4.678
 5646SOL    HW217313   2.175   4.449   4.725
 5647SOL     OW17314   2.201   4.233   4.730
 5647SOL    HW117315   2.149   4.150   4.713
 5647SOL    HW217316   2.278   4.238   4.666
 5648SOL     OW17317   3.000   4.104   5.402
 5648SOL    HW117318   2.955   4.167   5.466
 5648SOL    HW217319   3.093   4.135   5.385
 5649SOL     OW17320   3.022   3.931   5.201
 5649SOL    HW117321   3.022   3.995   5.278
 5649SOL    HW217322   3.050   3.979   5.118
 5650SOL     OW17323   1.902   4.268   4.838
 5650SOL    HW117324   1.987   4.235   4.797
 5650SOL    HW217325   1.915   4.283   4.936
 5651SOL     OW17326   2.051   4.244   5.446
 5651SOL    HW117327   2.110   4.204   5.376
 5651SOL    HW217328   1.993   4.315   5.405
 5652SOL     OW17329   2.677   4.296   4.049
 5652SOL    HW117330   2.684   4.207   4.003
 5652SOL    HW217331   2.583   4.330   4.041
 5653SOL     OW17332   3.519   4.328   4.930
 5653SOL    HW117333   3.481   4.259   4.992
 5653SOL    HW217334   3.601   4.292   4.886
 5654SOL     OW17335   2.533   4.188   4.993
 5654SOL    HW117336   2.499   4.099   4.963
 5654SOL    HW217337   2.559   4.242   4.913
 5655SOL     OW17338   2.335   4.224   3.915
 5655SOL    HW117339   2.396   4.304   3.919
 5655SOL    HW217340   2.240   4.255   3.922
 5656SOL     OW17341   3.588   3.859   4.247
 5656SOL    HW117342   3.661   3.842   4.180
 5656SOL    HW217343   3.557   3.772   4.285
 5657SOL     OW17344   3.142   4.651   4.396
 5657SOL    HW117345   3.202   4.570   4.398
 5657SOL    HW217346   3.182   4.720   4.336
 5658SOL     OW17347   3.703   3.899   4.687
 5658SOL    HW117348   3.742   3.814   4.651
 5658SOL    HW217349   3.605   3.901   4.668
 5659SOL     OW17350   2.125   4.050   4.444
 5659SOL    HW117351   2.046   4.101   4.410
 5659SOL    HW217352   2.116   4.035   4.542
 5660SOL     OW17353   2.778   4.634   4.015
 5660SOL    HW117354   2.841   4.672   3.947
 5660SOL    HW217355   2.818   4.551   4.054
 5661SOL     OW17356   2.901   4.822   4.420
 5661SOL    HW117357   2.831   4.775   4.474
 5661SOL    HW217358   2.960   4.754   4.377
 5662SOL     OW17359   2.876   3.960   4.695
 5662SOL    HW117360   2.868   3.924   4.602
 5662SOL    HW217361   2.874   3.884   4.760
 5663SOL     OW17362   3.571   4.109   5.105
 5663SOL    HW117363   3.644   4.178   5.109
 5663SOL    HW217364   3.599   4.034   5.046
 5664SOL     OW17365   2.534   3.927   5.213
 5664SOL    HW117366   2.624   3.911   5.173
 5664SOL    HW217367   2.542   3.932   5.312
 5665SOL     OW17368   1.937   4.069   3.757
 5665SOL    HW117369   1.845   4.041   3.728
 5665SOL    HW217370   1.968   4.146   3.701
 5666SOL     OW17371   1.934   3.890   4.042
 5666SOL    HW117372   1.917   3.973   3.988
 5666SOL    HW217373   2.024   3.853   4.020
 5667SOL     OW17374   2.578   4.289   5.432
 5667SOL    HW117375   2.597   4.354   5.506
 5667SOL    HW217376   2.638   4.209   5.441
 5668SOL     OW17377   3.087   4.049   4.173
 5668SOL    HW117378   3.152   3.975   4.162
 5668SOL    HW217379   3.107   4.099   4.257
 5669SOL     OW17380   3.639   4.066   5.366
 5669SOL    HW117381   3.622   4.097   5.272
 5669SOL    HW217382   3.555   4.029   5.404
 5670SOL     OW17383   2.945   4.708   3.811
 5670SOL    HW117384   2.922   4.761   3.729
 5670SOL    HW217385   3.026   4.652   3.792
 5671SOL     OW17386   3.686   3.916   4.951
 5671SOL    HW117387   3.682   3.826   4.995
 5671SOL    HW217388   3.689   3.905   4.852
 5672SOL     OW17389   2.290   4.148   4.244
 5672SOL    HW117390   2.320   4.076   4.182
 5672SOL    HW217391   2.251   4.108   4.327
 5673SOL     OW17392   2.179   4.271   5.004
 5673SOL    HW117393   2.217   4.212   5.076
 5673SOL    HW217394   2.219   4.245   4.916
 5674SOL     OW17395   3.286   3.938   4.836
 5674SOL    HW117396   3.338   3.873   4.891
 5674SOL    HW217397   3.237   4.001   4.897
 5675SOL     OW17398   2.863   3.758   4.878
 5675SOL    HW117399   2.800   3.686   4.847
 5675SOL    HW217400   2.956   3.722   4.878
 5676SOL     OW17401   3.214   3.776   3.892
 5676SOL    HW117402   3.249   3.735   3.808
 5676SOL    HW217403   3.124   3.738   3.912
 5677SOL     OW17404   3.162   4.177   4.415
 5677SOL    HW117405   3.103   4.257   4.419
 5677SOL    HW217406   3.177   4.142   4.508
 5678SOL     OW17407   3.455   3.945   4.606
 5678SOL    HW117408   3.371   3.944   4.660
 5678SOL    HW217409   3.457   4.028   4.550
 5679SOL     OW17410   2.092   4.352   5.699
 5679SOL    HW117411   1.999   4.350   5.736
 5679SOL    HW217412   2.093   4.313   5.607
 5680SOL     OW17413   2.087   3.999   6.582
 5680SOL    HW117414   2.122   3.982   6.674
 5680SOL    HW217415   1.999   3.954   6.570
 5681SOL     OW17416   1.881   4.092   6.233
 5681SOL    HW117417   1.799   4.135   6.272
 5681SOL    HW217418   1.853   4.019   6.170
 5682SOL     OW17419   3.617   4.331   5.817
 5682SOL    HW117420   3.605   4.318   5.718
 5682SOL    HW217421   3.587   4.250   5.866
 5683SOL     OW17422   2.547   4.736   6.251
 5683SOL    HW117423   2.616   4.720   6.321
 5683SOL    HW217424   2.474   4.793   6.289
 5684SOL     OW17425   2.300   4.116   7.085
 5684SOL    HW117426   2.382   4.060   7.094
 5684SOL    HW217427   2.219   4.058   7.089
 5685SOL     OW17428   3.465   4.171   6.323
 5685SOL    HW117429   3.391   4.217   6.273
 5685SOL    HW217430   3.516   4.239   6.376
 5686SOL     OW17431   3.456   3.838   7.066
 5686SOL    HW117432   3.438   3.905   6.994
 5686SOL    HW217433   3.453   3.884   7.155
 5687SOL     OW17434   1.984   4.367   6.149
 5687SOL    HW117435   1.939   4.279   6.166
 5687SOL    HW217436   1.983   4.421   6.233
 5688SOL     OW17437   1.975   4.461   7.183
 5688SOL    HW117438   2.063   4.448   7.228
 5688SOL    HW217439   1.962   4.558   7.161
 5689SOL     OW17440   2.671   3.728   6.088
 5689SOL    HW117441   2.711   3.819   6.079
 5689SOL    HW217442   2.571   3.736   6.094
 5690SOL     OW17443   2.179   3.975   7.387
 5690SOL    HW117444   2.250   4.046   7.393
 5690SOL    HW217445   2.091   4.014   7.415
 5691SOL     OW17446   3.143   4.069   6.530
 5691SOL    HW117447   3.057   4.019   6.517
 5691SOL    HW217448   3.205   4.015   6.586
 5692SOL     OW17449   2.669   4.329   7.051
 5692SOL    HW117450   2.622   4.326   7.140
 5692SOL    HW217451   2.618   4.274   6.985
 5693SOL     OW17452   3.256   4.193   7.260
 5693SOL    HW117453   3.236   4.236   7.348
 5693SOL    HW217454   3.334   4.131   7.269
 5694SOL     OW17455   2.853   4.134   6.828
 5694SOL    HW117456   2.776   4.168   6.882
 5694SOL    HW217457   2.819   4.083   6.749
 5695SOL     OW17458   2.903   4.425   6.015
 5695SOL    HW117459   2.929   4.421   6.111
 5695SOL    HW217460   2.818   4.374   6.001
 5696SOL     OW17461   2.727   4.072   5.781
 5696SOL    HW117462   2.786   4.135   5.732
 5696SOL    HW217463   2.746   3.978   5.752
 5697SOL     OW17464   3.581   4.309   7.417
 5697SOL    HW117465   3.555   4.398   7.381
 5697SOL    HW217466   3.579   4.241   7.344
 5698SOL     OW17467   2.412   3.920   6.471
 5698SOL    HW117468   2.407   3.915   6.571
 5698SOL    HW217469   2.414   4.016   6.442
 5699SOL     OW17470   3.320   4.459   6.314
 5699SOL    HW117471   3.315   4.394   6.389
 5699SOL    HW217472   3.400   4.518   6.327
 5700SOL     OW17473   2.064   4.009   7.084
 5700SOL    HW117474   1.984   4.069   7.071
 5700SOL    HW217475   2.054   3.960   7.170
 5701SOL     OW17476   3.262   3.831   6.012
 5701SOL    HW117477   3.238   3.794   5.922
 5701SOL    HW217478   3.361   3.847   6.016
 5702SOL     OW17479   2.244   4.424   6.066
 5702SOL    HW117480   2.289   4.334   6.063
 5702SOL    HW217481   2.150   4.413   6.099
 5703SOL     OW17482   3.409   3.946   7.315
 5703SOL    HW117483   3.404   3.983   7.407
 5703SOL    HW217484   3.337   3.877   7.303
 5704SOL     OW17485   2.476   3.846   5.703
 5704SOL    HW117486   2.574   3.824   5.710
 5704SOL    HW217487   2.445   3.829   5.610
 5705SOL     OW17488   2.643   3.988   7.335
 5705SOL    HW117489   2.710   3.927   7.378
 5705SOL    HW217490   2.570   4.007   7.400
 5706SOL     OW17491   3.213   4.314   7.019
 5706SOL    HW117492   3.241   4.271   7.104
 5706SOL    HW217493   3.238   4.410   7.020
 5707SOL     OW17494   2.784   4.227   6.485
 5707SOL    HW117495   2.759   4.218   6.389
 5707SOL    HW217496   2.832   4.145   6.516
 5708SOL     OW17497   2.401   3.788   6.098
 5708SOL    HW117498   2.320   3.789   6.156
 5708SOL    HW217499   2.404   3.871   6.043
 5709SOL     OW17500   2.159   3.759   5.757
 5709SOL    HW117501   2.208   3.843   5.736
 5709SOL    HW217502   2.221   3.694   5.802
 5710SOL     OW17503   2.797   3.960   6.066
 5710SOL    HW117504   2.749   4.001   5.988
 5710SOL    HW217505   2.896   3.958   6.047
 5711SOL     OW17506   2.938   4.407   7.050
 5711SOL    HW117507   2.858   4.346   7.053
 5711SOL    HW217508   3.019   4.354   7.026
 5712SOL     OW17509   2.894   4.273   5.602
 5712SOL    HW117510   2.853   4.355   5.563
 5712SOL    HW217511   2.958   4.299   5.675
 5713SOL     OW17512   1.940   4.280   6.972
 5713SOL    HW117513   2.032   4.279   6.931
 5713SOL    HW217514   1.934   4.354   7.039
 5714SOL     OW17515   2.423   3.946   6.733
 5714SOL    HW117516   2.461   3.862   6.770
 5714SOL    HW217517   2.335   3.965   6.777
 5715SOL     OW17518   2.728   4.178   6.228
 5715SOL    HW117519   2.696   4.250   6.166
 5715SOL    HW217520   2.752   4.097   6.175
 5716SOL     OW17521   2.879   3.763   6.339
 5716SOL    HW117522   2.807   3.768   6.270
 5716SOL    HW217523   2.855   3.694   6.408
 5717SOL     OW17524   3.328   4.314   6.578
 5717SOL    HW117525   3.298   4.219   6.585
 5717SOL    HW217526   3.401   4.330   6.644
 5718SOL     OW17527   3.252   4.299   5.664
 5718SOL    HW117528   3.198   4.278   5.745
 5718SOL    HW217529   3.343   4.258   5.673
 5719SOL     OW17530   2.389   3.980   5.914
 5719SOL    HW117531   2.416   3.921   5.839
 5719SOL    HW217532   2.389   4.075   5.883
 5720SOL     OW17533   2.777   3.813   6.988
 5720SOL    HW117534   2.802   3.793   6.893
 5720SOL    HW217535   2.849   3.869   7.030
 5721SOL     OW17536   2.272   4.537   6.837
 5721SOL    HW117537   2.358   4.549   6.887
 5721SOL    HW217538   2.230   4.450   6.864
 5722SOL     OW17539   3.136   4.110   6.848
 5722SOL    HW117540   3.157   4.184   6.912
 5722SOL    HW217541   3.047   4.127   6.805
 5723SOL     OW17542   2.428   4.261   6.451
 5723SOL    HW117543   2.440   4.327   6.377
 5723SOL    HW217544   2.474   4.295   6.534
 5724SOL     OW17545   3.444   4.363   6.058
 5724SOL    HW117546   3.413   4.424   6.131
 5724SOL    HW217547   3.494   4.415   5.989
 5725SOL     OW17548   2.875   3.829   7.356
 5725SOL    HW117549   2.881   3.914   7.304
 5725SOL    HW217550   2.907   3.753   7.299
 5726SOL     OW17551   2.366   3.774   7.326
 5726SOL    HW117552   2.324   3.717   7.256
 5726SOL    HW217553   2.300   3.843   7.358
 5727SOL     OW17554   3.071   4.249   5.861
 5727SOL    HW117555   3.084   4.165   5.915
 5727SOL    HW217556   3.042   4.323   5.921
 5728SOL     OW17557   2.169   3.937   6.817
 5728SOL    HW117558   2.146   3.974   6.907
 5728SOL    HW217559   2.139   3.842   6.811
 5729SOL     OW17560   2.594   4.358   6.650
 5729SOL    HW117561   2.653   4.332   6.574
 5729SOL    HW217562   2.566   4.454   6.639
 5730SOL     OW17563   3.590   4.659   7.440
 5730SOL    HW117564   3.544   4.652   7.351
 5730SOL    HW217565   3.528   4.703   7.506
 5731SOL     OW17566   2.169   3.787   6.204
 5731SOL    HW117567   2.158   3.881   6.237
 5731SOL    HW217568   2.164   3.724   6.281
 5732SOL     OW17569   3.484   4.091   5.960
 5732SOL    HW117570   3.486   4.015   6.024
 5732SOL    HW217571   3.436   4.168   6.000
 5733SOL     OW17572   3.402   3.998   5.711
 5733SOL    HW117573   3.341   3.923   5.734
 5733SOL    HW217574   3.424   4.050   5.794
 5734SOL     OW17575   2.181   4.534   6.535
 5734SOL    HW117576   2.274   4.570   6.540
 5734SOL    HW217577   2.175   4.449   6.587
 5735SOL     OW17578   2.201   4.233   6.592
 5735SOL    HW117579   2.149   4.150   6.575
 5735SOL    HW217580   2.278   4.238   6.528
 5736SOL     OW17581   3.000   4.104   7.264
 5736SOL    HW117582   2.955   4.167   7.328
 5736SOL    HW217583   3.093   4.135   7.247
 5737SOL     OW17584   3.022   3.931   7.063
 5737SOL    HW117585   3.022   3.995   7.140
 5737SOL    HW217586   3.050   3.979   6.980
 5738SOL     OW17587   1.902   4.268   6.700
 5738SOL    HW117588   1.987   4.235   6.659
 5738SOL    HW217589   1.915   4.283   6.798
 5739SOL     OW17590   2.051   4.244   7.308
 5739SOL    HW117591   2.110   4.204   7.238
 5739SOL    HW217592   1.993   4.315   7.267
 5740SOL     OW17593   2.677   4.296   5.911
 5740SOL    HW117594   2.684   4.207   5.865
 5740SOL    HW217595   2.583   4.330   5.903
 5741SOL     OW17596   3.519   4.328   6.792
 5741SOL    HW117597   3.481   4.259   6.854
 5741SOL    HW217598   3.601   4.292   6.748
 5742SOL     OW17599   2.533   4.188   6.855
 5742SOL    HW117600   2.499   4.099   6.825
 5742SOL    HW217601   2.559   4.242   6.775
 5743SOL     OW17602   2.335   4.224   5.777
 5743SOL    HW117603   2.396   4.304   5.781
 5743SOL    HW217604   2.240   4.255   5.784
 5744SOL     OW17605   3.588   3.859   6.109
 5744SOL    HW117606   3.661   3.842   6.042
 5744SOL    HW217607   3.557   3.772   6.147
 5745SOL     OW17608   3.142   4.651   6.258
 5745SOL    HW117609   3.202   4.570   6.260
 5745SOL    HW217610   3.182   4.720   6.198
 5746SOL     OW17611   3.703   3.899   6.549
 5746SOL    HW117612   3.742   3.814   6.513
 5746SOL    HW217613   3.605   3.901   6.530
 5747SOL     OW17614   2.125   4.050   6.306
 5747SOL    HW117615   2.046   4.101   6.272
 5747SOL    HW217616   2.116   4.035   6.404
 5748SOL     OW17617   2.778   4.634   5.877
 5748SOL    HW117618   2.841   4.672   5.809
 5748SOL    HW217619   2.818   4.551   5.916
 5749SOL     OW17620   2.901   4.822   6.282
 5749SOL    HW117621   2.831   4.775   6.336
 5749SOL    HW217622   2.960   4.754   6.239
 5750SOL     OW17623   2.876   3.960   6.557
 5750SOL    HW117624   2.868   3.924   6.464
 5750SOL    HW217625   2.874   3.884   6.622
 5751SOL     OW17626   3.571   4.109   6.967
 5751SOL    HW117627   3.644   4.178   6.971
 5751SOL    HW217628   3.599   4.034   6.908
 5752SOL     OW17629   2.534   3.927   7.075
 5752SOL    HW117630   2.624   3.911   7.035
 5752SOL    HW217631   2.542   3.932   7.174
 5753SOL     OW17632   1.937   4.069   5.619
 5753SOL    HW117633   1.845   4.041   5.590
 5753SOL    HW217634   1.968   4.146   5.563
 5754SOL     OW17635   1.934   3.890   5.904
 5754SOL    HW117636   1.917   3.973   5.850
 5754SOL    HW217637   2.024   3.853   5.882
 5755SOL     OW17638   2.578   4.289   7.294
 5755SOL    HW117639   2.597   4.354   7.368
 5755SOL    HW217640   2.638   4.209   7.303
 5756SOL     OW17641   3.087   4.049   6.035
 5756SOL    HW117642   3.152   3.975   6.024
 5756SOL    HW217643   3.107   4.099   6.119
 5757SOL     OW17644   3.639   4.066   7.228
 5757SOL    HW117645   3.622   4.097   7.134
 5757SOL    HW217646   3.555   4.029   7.266
 5758SOL     OW17647   2.945   4.708   5.673
 5758SOL    HW117648   2.922   4.761   5.591
 5758SOL    HW217649   3.026   4.652   5.654
 5759SOL     OW17650   3.686   3.916   6.813
 5759SOL    HW117651   3.682   3.826   6.857
 5759SOL    HW217652   3.689   3.905   6.714
 5760SOL     OW17653   2.290   4.148   6.106
 5760SOL    HW117654   2.320   4.076   6.044
 5760SOL    HW217655   2.251   4.108   6.189
 5761SOL     OW17656   2.179   4.271   6.866
 5761SOL    HW117657   2.217   4.212   6.938
 5761SOL    HW217658   2.219   4.245   6.778
 5762SOL     OW17659   3.286   3.938   6.698
 5762SOL    HW117660   3.338   3.873   6.753
 5762SOL    HW217661   3.237   4.001   6.759
 5763SOL     OW17662   2.863   3.758   6.740
 5763SOL    HW117663   2.800   3.686   6.709
 5763SOL    HW217664   2.956   3.722   6.740
 5764SOL     OW17665   3.214   3.776   5.754
 5764SOL    HW117666   3.249   3.735   5.670
 5764SOL    HW217667   3.124   3.738   5.774
 5765SOL     OW17668   3.162   4.177   6.277
 5765SOL    HW117669   3.103   4.257   6.281
 5765SOL    HW217670   3.177   4.142   6.370
 5766SOL     OW17671   3.455   3.945   6.468
 5766SOL    HW117672   3.371   3.944   6.522
 5766SOL    HW217673   3.457   4.028   6.412
 5767SOL     OW17674   2.092   4.352   7.561
 5767SOL    HW117675   1.999   4.350   7.598
 5767SOL    HW217676   2.093   4.313   7.469
 5768SOL     OW17677   2.087   3.999   8.444
 5768SOL    HW117678   2.122   3.982   8.536
 5768SOL    HW217679   1.999   3.954   8.432
 5769SOL     OW17680   1.881   4.092   8.095
 5769SOL    HW117681   1.799   4.135   8.134
 5769SOL    HW217682   1.853   4.019   8.032
 5770SOL     OW17683   3.617   4.331   7.679
 5770SOL    HW117684   3.605   4.318   7.580
 5770SOL    HW217685   3.587   4.250   7.728
 5771SOL     OW17686   2.547   4.736   8.113
 5771SOL    HW117687   2.616   4.720   8.183
 5771SOL    HW217688   2.474   4.793   8.151
 5772SOL     OW17689   2.300   4.116   8.947
 5772SOL    HW117690   2.382   4.060   8.956
 5772SOL    HW217691   2.219   4.058   8.951
 5773SOL     OW17692   3.465   4.171   8.185
 5773SOL    HW117693   3.391   4.217   8.135
 5773SOL    HW217694   3.516   4.239   8.238
 5774SOL     OW17695   3.456   3.838   8.928
 5774SOL    HW117696   3.438   3.905   8.856
 5774SOL    HW217697   3.453   3.884   9.017
 5775SOL     OW17698   1.984   4.367   8.011
 5775SOL    HW117699   1.939   4.279   8.028
 5775SOL    HW217700   1.983   4.421   8.095
 5776SOL     OW17701   1.975   4.461   9.045
 5776SOL    HW117702   2.063   4.448   9.090
 5776SOL    HW217703   1.962   4.558   9.023
 5777SOL     OW17704   2.671   3.728   7.950
 5777SOL    HW117705   2.711   3.819   7.941
 5777SOL    HW217706   2.571   3.736   7.956
 5778SOL     OW17707   2.179   3.975   9.249
 5778SOL    HW117708   2.250   4.046   9.255
 5778SOL    HW217709   2.091   4.014   9.277
 5779SOL     OW17710   3.143   4.069   8.392
 5779SOL    HW117711   3.057   4.019   8.379
 5779SOL    HW217712   3.205   4.015   8.448
 5780SOL     OW17713   2.669   4.329   8.913
 5780SOL    HW117714   2.622   4.326   9.002
 5780SOL    HW217715   2.618   4.274   8.847
 5781SOL     OW17716   3.256   4.193   9.122
 5781SOL    HW117717   3.236   4.236   9.210
 5781SOL    HW217718   3.334   4.131   9.131
 5782SOL     OW17719   2.853   4.134   8.690
 5782SOL    HW117720   2.776   4.168   8.744
 5782SOL    HW217721   2.819   4.083   8.611
 5783SOL     OW17722   2.903   4.425   7.877
 5783SOL    HW117723   2.929   4.421   7.973
 5783SOL    HW217724   2.818   4.374   7.863
 5784SOL     OW17725   2.727   4.072   7.643
 5784SOL    HW117726   2.786   4.135   7.594
 5784SOL    HW217727   2.746   3.978   7.614
 5785SOL     OW17728   3.581   4.309   9.279
 5785SOL    HW117729   3.555   4.398   9.243
 5785SOL    HW217730   3.579   4.241   9.206
 5786SOL     OW17731   2.412   3.920   8.333
 5786SOL    HW117732   2.407   3.915   8.433
 5786SOL    HW217733   2.414   4.016   8.304
 5787SOL     OW17734   3.320   4.459   8.176
 5787SOL    HW117735   3.315   4.394   8.251
 5787SOL    HW217736   3.400   4.518   8.189
 5788SOL     OW17737   2.064   4.009   8.946
 5788SOL    HW117738   1.984   4.069   8.933
 5788SOL    HW217739   2.054   3.960   9.032
 5789SOL     OW17740   3.262   3.831   7.874
 5789SOL    HW117741   3.238   3.794   7.784
 5789SOL    HW217742   3.361   3.847   7.878
 5790SOL     OW17743   2.244   4.424   7.928
 5790SOL    HW117744   2.289   4.334   7.925
 5790SOL    HW217745   2.150   4.413   7.961
 5791SOL     OW17746   3.409   3.946   9.177
 5791SOL    HW117747   3.404   3.983   9.269
 5791SOL    HW217748   3.337   3.877   9.165
 5792SOL     OW17749   2.476   3.846   7.565
 5792SOL    HW117750   2.574   3.824   7.572
 5792SOL    HW217751   2.445   3.829   7.472
 5793SOL     OW17752   2.643   3.988   9.197
 5793SOL    HW117753   2.710   3.927   9.240
 5793SOL    HW217754   2.570   4.007   9.262
 5794SOL     OW17755   3.213   4.314   8.881
 5794SOL    HW117756   3.241   4.271   8.966
 5794SOL    HW217757   3.238   4.410   8.882
 5795SOL     OW17758   2.784   4.227   8.347
 5795SOL    HW117759   2.759   4.218   8.251
 5795SOL    HW217760   2.832   4.145   8.378
 5796SOL     OW17761   2.401   3.788   7.960
 5796SOL    HW117762   2.320   3.789   8.018
 5796SOL    HW217763   2.404   3.871   7.905
 5797SOL     OW17764   2.159   3.759   7.619
 5797SOL    HW117765   2.208   3.843   7.598
 5797SOL    HW217766   2.221   3.694   7.664
 5798SOL     OW17767   2.797   3.960   7.928
 5798SOL    HW117768   2.749   4.001   7.850
 5798SOL    HW217769   2.896   3.958   7.909
 5799SOL     OW17770   2.938   4.407   8.912
 5799SOL    HW117771   2.858   4.346   8.915
 5799SOL    HW217772   3.019   4.354   8.888
 5800SOL     OW17773   2.894   4.273   7.464
 5800SOL    HW117774   2.853   4.355   7.425
 5800SOL    HW217775   2.958   4.299   7.537
 5801SOL     OW17776   1.940   4.280   8.834
 5801SOL    HW117777   2.032   4.279   8.793
 5801SOL    HW217778   1.934   4.354   8.901
 5802SOL     OW17779   2.423   3.946   8.595
 5802SOL    HW117780   2.461   3.862   8.632
 5802SOL    HW217781   2.335   3.965   8.639
 5803SOL     OW17782   2.728   4.178   8.090
 5803SOL    HW117783   2.696   4.250   8.028
 5803SOL    HW217784   2.752   4.097   8.037
 5804SOL     OW17785   2.879   3.763   8.201
 5804SOL    HW117786   2.807   3.768   8.132
 5804SOL    HW217787   2.855   3.694   8.270
 5805SOL     OW17788   3.328   4.314   8.440
 5805SOL    HW117789   3.298   4.219   8.447
 5805SOL    HW217790   3.401   4.330   8.506
 5806SOL     OW17791   3.252   4.299   7.526
 5806SOL    HW117792   3.198   4.278   7.607
 5806SOL    HW217793   3.343   4.258   7.535
 5807SOL     OW17794   2.389   3.980   7.776
 5807SOL    HW117795   2.416   3.921   7.701
 5807SOL    HW217796   2.389   4.075   7.745
 5808SOL     OW17797   2.777   3.813   8.850
 5808SOL    HW117798   2.802   3.793   8.755
 5808SOL    HW217799   2.849   3.869   8.892
 5809SOL     OW17800   2.272   4.537   8.699
 5809SOL    HW117801   2.358   4.549   8.749
 5809SOL    HW217802   2.230   4.450   8.726
 5810SOL     OW17803   3.136   4.110   8.710
 5810SOL    HW117804   3.157   4.184   8.774
 5810SOL    HW217805   3.047   4.127   8.667
 5811SOL     OW17806   2.428   4.261   8.313
 5811SOL    HW117807   2.440   4.327   8.239
 5811SOL    HW217808   2.474   4.295   8.396
 5812SOL     OW17809   3.444   4.363   7.920
 5812SOL    HW117810   3.413   4.424   7.993
 5812SOL    HW217811   3.494   4.415   7.851
 5813SOL     OW17812   2.875   3.829   9.218
 5813SOL    HW117813   2.881   3.914   9.166
 5813SOL    HW217814   2.907   3.753   9.161
 5814SOL     OW17815   2.366   3.774   9.188
 5814SOL    HW117816   2.324   3.717   9.118
 5814SOL    HW217817   2.300   3.843   9.220
 5815SOL     OW17818   3.071   4.249   7.723
 5815SOL    HW117819   3.084   4.165   7.777
 5815SOL    HW217820   3.042   4.323   7.783
 5816SOL     OW17821   2.169   3.937   8.679
 5816SOL    HW117822   2.146   3.974   8.769
 5816SOL    HW217823   2.139   3.842   8.673
 5817SOL     OW17824   2.594   4.358   8.512
 5817SOL    HW117825   2.653   4.332   8.436
 5817SOL    HW217826   2.566   4.454   8.501
 5818SOL     OW17827   3.590   4.659   9.302
 5818SOL    HW117828   3.544   4.652   9.213
 5818SOL    HW217829   3.528   4.703   9.368
 5819SOL     OW17830   2.169   3.787   8.066
 5819SOL    HW117831   2.158   3.881   8.099
 5819SOL    HW217832   2.164   3.724   8.143
 5820SOL     OW17833   3.484   4.091   7.822
 5820SOL    HW117834   3.486   4.015   7.886
 5820SOL    HW217835   3.436   4.168   7.862
 5821SOL     OW17836   3.402   3.998   7.573
 5821SOL    HW117837   3.341   3.923   7.596
 5821SOL    HW217838   3.424   4.050   7.656
 5822SOL     OW17839   2.181   4.534   8.397
 5822SOL    HW117840   2.274   4.570   8.402
 5822SOL    HW217841   2.175   4.449   8.449
 5823SOL     OW17842   2.201   4.233   8.454
 5823SOL    HW117843   2.149   4.150   8.437
 5823SOL    HW217844   2.278   4.238   8.390
 5824SOL     OW17845   3.000   4.104   9.126
 5824SOL    HW117846   2.955   4.167   9.190
 5824SOL    HW217847   3.093   4.135   9.109
 5825SOL     OW17848   3.022   3.931   8.925
 5825SOL    HW117849   3.022   3.995   9.002
 5825SOL    HW217850   3.050   3.979   8.842
 5826SOL     OW17851   1.902   4.268   8.562
 5826SOL    HW117852   1.987   4.235   8.521
 5826SOL    HW217853   1.915   4.283   8.660
 5827SOL     OW17854   2.051   4.244   9.170
 5827SOL    HW117855   2.110   4.204   9.100
 5827SOL    HW217856   1.993   4.315   9.129
 5828SOL     OW17857   2.677   4.296   7.773
 5828SOL    HW117858   2.684   4.207   7.727
 5828SOL    HW217859   2.583   4.330   7.765
 5829SOL     OW17860   3.519   4.328   8.654
 5829SOL    HW117861   3.481   4.259   8.716
 5829SOL    HW217862   3.601   4.292   8.610
 5830SOL     OW17863   2.533   4.188   8.717
 5830SOL    HW117864   2.499   4.099   8.687
 5830SOL    HW217865   2.559   4.242   8.637
 5831SOL     OW17866   2.335   4.224   7.639
 5831SOL    HW117867   2.396   4.304   7.643
 5831SOL    HW217868   2.240   4.255   7.646
 5832SOL     OW17869   3.588   3.859   7.971
 5832SOL    HW117870   3.661   3.842   7.904
 5832SOL    HW217871   3.557   3.772   8.009
 5833SOL     OW17872   3.142   4.651   8.120
 5833SOL    HW117873   3.202   4.570   8.122
 5833SOL    HW217874   3.182   4.720   8.060
 5834SOL     OW17875   3.703   3.899   8.411
 5834SOL    HW117876   3.742   3.814   8.375
 5834SOL    HW217877   3.605   3.901   8.392
 5835SOL     OW17878   2.125   4.050   8.168
 5835SOL    HW117879   2.046   4.101   8.134
 5835SOL    HW217880   2.116   4.035   8.266
 5836SOL     OW17881   2.778   4.634   7.739
 5836SOL    HW117882   2.841   4.672   7.671
 5836SOL    HW217883   2.818   4.551   7.778
 5837SOL     OW17884   2.901   4.822   8.144
 5837SOL    HW117885   2.831   4.775   8.198
 5837SOL    HW217886   2.960   4.754   8.101
 5838SOL     OW17887   2.876   3.960   8.419
 5838SOL    HW117888   2.868   3.924   8.326
 5838SOL    HW217889   2.874   3.884   8.484
 5839SOL     OW17890   3.571   4.109   8.829
 5839SOL    HW117891   3.644   4.178   8.833
 5839SOL    HW217892   3.599   4.034   8.770
 5840SOL     OW17893   2.534   3.927   8.937
 5840SOL    HW117894   2.624   3.911   8.897
 5840SOL    HW217895   2.542   3.932   9.036
 5841SOL     OW17896   1.937   4.069   7.481
 5841SOL    HW117897   1.845   4.041   7.452
 5841SOL    HW217898   1.968   4.146   7.425
 5842SOL     OW17899   1.934   3.890   7.766
 5842SOL    HW117900   1.917   3.973   7.712
 5842SOL    HW217901   2.024   3.853   7.744
 5843SOL     OW17902   2.578   4.289   9.156
 5843SOL    HW117903   2.597   4.354   9.230
 5843SOL    HW217904   2.638   4.209   9.165
 5844SOL     OW17905   3.087   4.049   7.897
 5844SOL    HW117906   3.152   3.975   7.886
 5844SOL    HW217907   3.107   4.099   7.981
 5845SOL     OW17908   3.639   4.066   9.090
 5845SOL    HW117909   3.622   4.097   8.996
 5845SOL    HW217910   3.555   4.029   9.128
 5846SOL     OW17911   2.945   4.708   7.535
 5846SOL    HW117912   2.922   4.761   7.453
 5846SOL    HW217913   3.026   4.652   7.516
 5847SOL     OW17914   3.686   3.916   8.675
 5847SOL    HW117915   3.682   3.826   8.719
 5847SOL    HW217916   3.689   3.905   8.576
 5848SOL     OW17917   2.290   4.148   7.968
 5848SOL    HW117918   2.320   4.076   7.906
 5848SOL    HW217919   2.251   4.108   8.051
 5849SOL     OW17920   2.179   4.271   8.728
 5849SOL    HW117921   2.217   4.212   8.800
 5849SOL    HW217922   2.219   4.245   8.640
 5850SOL     OW17923   3.286   3.938   8.560
 5850SOL    HW117924   3.338   3.873   8.615
 5850SOL    HW217925   3.237   4.001   8.621
 5851SOL     OW17926   2.863   3.758   8.602
 5851SOL    HW117927   2.800   3.686   8.571
 5851SOL    HW217928   2.956   3.722   8.602
 5852SOL     OW17929   3.214   3.776   7.616
 5852SOL    HW117930   3.249   3.735   7.532
 5852SOL    HW217931   3.124   3.738   7.636
 5853SOL     OW17932   3.162   4.177   8.139
 5853SOL    HW117933   3.103   4.257   8.143
 5853SOL    HW217934   3.177   4.142   8.232
 5854SOL     OW17935   3.455   3.945   8.330
 5854SOL    HW117936   3.371   3.944   8.384
 5854SOL    HW217937   3.457   4.028   8.274
 5855SOL     OW17938   2.092   4.352   9.423
 5855SOL    HW117939   1.999   4.350   9.460
 5855SOL    HW217940   2.093   4.313   9.331
 5856SOL     OW17941   2.087   3.999  10.306
 5856SOL    HW117942   2.122   3.982  10.398
 5856SOL    HW217943   1.999   3.954  10.294
 5857SOL     OW17944   1.881   4.092   9.957
 5857SOL    HW117945   1.799   4.135   9.996
 5857SOL    HW217946   1.853   4.019   9.894
 5858SOL     OW17947   3.617   4.331   9.541
 5858SOL    HW117948   3.605   4.318   9.442
 5858SOL    HW217949   3.587   4.250   9.590
 5859SOL     OW17950   2.547   4.736   9.975
 5859SOL    HW117951   2.616   4.720  10.045
 5859SOL    HW217952   2.474   4.793  10.013
 5860SOL     OW17953   2.300   4.116  10.809
 5860SOL    HW117954   2.382   4.060  10.818
 5860SOL    HW217955   2.219   4.058  10.813
 5861SOL     OW17956   3.465   4.171  10.047
 5861SOL    HW117957   3.391   4.217   9.997
 5861SOL    HW217958   3.516   4.239  10.100
 5862SOL     OW17959   3.456   3.838  10.790
 5862SOL    HW117960   3.438   3.905  10.718
 5862SOL    HW217961   3.453   3.884  10.879
 5863SOL     OW17962   1.984   4.367   9.873
 5863SOL    HW117963   1.939   4.279   9.890
 5863SOL    HW217964   1.983   4.421   9.957
 5864SOL     OW17965   1.975   4.461  10.907
 5864SOL    HW117966   2.063   4.448  10.952
 5864SOL    HW217967   1.962   4.558  10.885
 5865SOL     OW17968   2.671   3.728   9.812
 5865SOL    HW117969   2.711   3.819   9.803
 5865SOL    HW217970   2.571   3.736   9.818
 5866SOL     OW17971   2.179   3.975  11.111
 5866SOL    HW117972   2.250   4.046  11.117
 5866SOL    HW217973   2.091   4.014  11.139
 5867SOL     OW17974   3.143   4.069  10.254
 5867SOL    HW117975   3.057   4.019  10.241
 5867SOL    HW217976   3.205   4.015  10.310
 5868SOL     OW17977   2.669   4.329  10.775
 5868SOL    HW117978   2.622   4.326  10.864
 5868SOL    HW217979   2.618   4.274  10.709
 5869SOL     OW17980   2.853   4.134  10.552
 5869SOL    HW117981   2.776   4.168  10.606
 5869SOL    HW217982   2.819   4.083  10.473
 5870SOL     OW17983   2.903   4.425   9.739
 5870SOL    HW117984   2.929   4.421   9.835
 5870SOL    HW217985   2.818   4.374   9.725
 5871SOL     OW17986   2.727   4.072   9.505
 5871SOL    HW117987   2.786   4.135   9.456
 5871SOL    HW217988   2.746   3.978   9.476
 5872SOL     OW17989   2.412   3.920  10.195
 5872SOL    HW117990   2.407   3.915  10.295
 5872SOL    HW217991   2.414   4.016  10.166
 5873SOL     OW17992   3.320   4.459  10.038
 5873SOL    HW117993   3.315   4.394  10.113
 5873SOL    HW217994   3.400   4.518  10.051
 5874SOL     OW17995   2.064   4.009  10.808
 5874SOL    HW117996   1.984   4.069  10.795
 5874SOL    HW217997   2.054   3.960  10.894
 5875SOL     OW17998   3.262   3.831   9.736
 5875SOL    HW117999   3.238   3.794   9.646
 5875SOL    HW218000   3.361   3.847   9.740
 5876SOL     OW18001   2.244   4.424   9.790
 5876SOL    HW118002   2.289   4.334   9.787
 5876SOL    HW218003   2.150   4.413   9.823
 5877SOL     OW18004   2.476   3.846   9.427
 5877SOL    HW118005   2.574   3.824   9.434
 5877SOL    HW218006   2.445   3.829   9.334
 5878SOL     OW18007   2.643   3.988  11.059
 5878SOL    HW118008   2.710   3.927  11.102
 5878SOL    HW218009   2.570   4.007  11.124
 5879SOL     OW18010   3.213   4.314  10.743
 5879SOL    HW118011   3.241   4.271  10.828
 5879SOL    HW218012   3.238   4.410  10.744
 5880SOL     OW18013   2.784   4.227  10.209
 5880SOL    HW118014   2.759   4.218  10.113
 5880SOL    HW218015   2.832   4.145  10.240
 5881SOL     OW18016   2.401   3.788   9.822
 5881SOL    HW118017   2.320   3.789   9.880
 5881SOL    HW218018   2.404   3.871   9.767
 5882SOL     OW18019   2.159   3.759   9.481
 5882SOL    HW118020   2.208   3.843   9.460
 5882SOL    HW218021   2.221   3.694   9.526
 5883SOL     OW18022   2.797   3.960   9.790
 5883SOL    HW118023   2.749   4.001   9.712
 5883SOL    HW218024   2.896   3.958   9.771
 5884SOL     OW18025   2.938   4.407  10.774
 5884SOL    HW118026   2.858   4.346  10.777
 5884SOL    HW218027   3.019   4.354  10.750
 5885SOL     OW18028   2.894   4.273   9.326
 5885SOL    HW118029   2.853   4.355   9.287
 5885SOL    HW218030   2.958   4.299   9.399
 5886SOL     OW18031   1.940   4.280  10.696
 5886SOL    HW118032   2.032   4.279  10.655
 5886SOL    HW218033   1.934   4.354  10.763
 5887SOL     OW18034   2.423   3.946  10.457
 5887SOL    HW118035   2.461   3.862  10.494
 5887SOL    HW218036   2.335   3.965  10.501
 5888SOL     OW18037   2.728   4.178   9.952
 5888SOL    HW118038   2.696   4.250   9.890
 5888SOL    HW218039   2.752   4.097   9.899
 5889SOL     OW18040   2.879   3.763  10.063
 5889SOL    HW118041   2.807   3.768   9.994
 5889SOL    HW218042   2.855   3.694  10.132
 5890SOL     OW18043   3.328   4.314  10.302
 5890SOL    HW118044   3.298   4.219  10.309
 5890SOL    HW218045   3.401   4.330  10.368
 5891SOL     OW18046   3.252   4.299   9.388
 5891SOL    HW118047   3.198   4.278   9.469
 5891SOL    HW218048   3.343   4.258   9.397
 5892SOL     OW18049   2.389   3.980   9.638
 5892SOL    HW118050   2.416   3.921   9.563
 5892SOL    HW218051   2.389   4.075   9.607
 5893SOL     OW18052   2.777   3.813  10.712
 5893SOL    HW118053   2.802   3.793  10.617
 5893SOL    HW218054   2.849   3.869  10.754
 5894SOL     OW18055   2.272   4.537  10.561
 5894SOL    HW118056   2.358   4.549  10.611
 5894SOL    HW218057   2.230   4.450  10.588
 5895SOL     OW18058   3.136   4.110  10.572
 5895SOL    HW118059   3.157   4.184  10.636
 5895SOL    HW218060   3.047   4.127  10.529
 5896SOL     OW18061   2.428   4.261  10.175
 5896SOL    HW118062   2.440   4.327  10.101
 5896SOL    HW218063   2.474   4.295  10.258
 5897SOL     OW18064   3.444   4.363   9.782
 5897SOL    HW118065   3.413   4.424   9.855
 5897SOL    HW218066   3.494   4.415   9.713
 5898SOL     OW18067   2.264   4.475  10.908
 5898SOL    HW118068   2.332   4.530  10.861
 5898SOL    HW218069   2.304   4.387  10.935
 5899SOL     OW18070   3.071   4.249   9.585
 5899SOL    HW118071   3.084   4.165   9.639
 5899SOL    HW218072   3.042   4.323   9.645
 5900SOL     OW18073   2.169   3.937  10.541
 5900SOL    HW118074   2.146   3.974  10.631
 5900SOL    HW218075   2.139   3.842  10.535
 5901SOL     OW18076   2.594   4.358  10.374
 5901SOL    HW118077   2.653   4.332  10.298
 5901SOL    HW218078   2.566   4.454  10.363
 5902SOL     OW18079   2.169   3.787   9.928
 5902SOL    HW118080   2.158   3.881   9.961
 5902SOL    HW218081   2.164   3.724  10.005
 5903SOL     OW18082   3.484   4.091   9.684
 5903SOL    HW118083   3.486   4.015   9.748
 5903SOL    HW218084   3.436   4.168   9.724
 5904SOL     OW18085   3.402   3.998   9.435
 5904SOL    HW118086   3.341   3.923   9.458
 5904SOL    HW218087   3.424   4.050   9.518
 5905SOL     OW18088   2.181   4.534  10.259
 5905SOL    HW118089   2.274   4.570  10.264
 5905SOL    HW218090   2.175   4.449  10.311
 5906SOL     OW18091   2.201   4.233  10.316
 5906SOL    HW118092   2.149   4.150  10.299
 5906SOL    HW218093   2.278   4.238  10.252
 5907SOL     OW18094   3.022   3.931  10.787
 5907SOL    HW118095   3.022   3.995  10.864
 5907SOL    HW218096   3.050   3.979  10.704
 5908SOL     OW18097   1.902   4.268  10.424
 5908SOL    HW118098   1.987   4.235  10.383
 5908SOL    HW218099   1.915   4.283  10.522
 5909SOL     OW18100   3.231   4.674  10.970
 5909SOL    HW118101   3.270   4.763  10.990
 5909SOL    HW218102   3.241   4.654  10.873
 5910SOL     OW18103   2.677   4.296   9.635
 5910SOL    HW118104   2.684   4.207   9.589
 5910SOL    HW218105   2.583   4.330   9.627
 5911SOL     OW18106   3.519   4.328  10.516
 5911SOL    HW118107   3.481   4.259  10.578
 5911SOL    HW218108   3.601   4.292  10.472
 5912SOL     OW18109   2.533   4.188  10.579
 5912SOL    HW118110   2.499   4.099  10.549
 5912SOL    HW218111   2.559   4.242  10.499
 5913SOL     OW18112   2.335   4.224   9.501
 5913SOL    HW118113   2.396   4.304   9.505
 5913SOL    HW218114   2.240   4.255   9.508
 5914SOL     OW18115   3.588   3.859   9.833
 5914SOL    HW118116   3.661   3.842   9.766
 5914SOL    HW218117   3.557   3.772   9.871
 5915SOL     OW18118   3.142   4.651   9.982
 5915SOL    HW118119   3.202   4.570   9.984
 5915SOL    HW218120   3.182   4.720   9.922
 5916SOL     OW18121   3.703   3.899  10.273
 5916SOL    HW118122   3.742   3.814  10.237
 5916SOL    HW218123   3.605   3.901  10.254
 5917SOL     OW18124   2.125   4.050  10.030
 5917SOL    HW118125   2.046   4.101   9.996
 5917SOL    HW218126   2.116   4.035  10.128
 5918SOL     OW18127   2.778   4.634   9.601
 5918SOL    HW118128   2.841   4.672   9.533
 5918SOL    HW218129   2.818   4.551   9.640
 5919SOL     OW18130   2.901   4.822  10.006
 5919SOL    HW118131   2.831   4.775  10.060
 5919SOL    HW218132   2.960   4.754   9.963
 5920SOL     OW18133   2.876   3.960  10.281
 5920SOL    HW118134   2.868   3.924  10.188
 5920SOL    HW218135   2.874   3.884  10.346
 5921SOL     OW18136   3.571   4.109  10.691
 5921SOL    HW118137   3.644   4.178  10.695
 5921SOL    HW218138   3.599   4.034  10.632
 5922SOL     OW18139   2.534   3.927  10.799
 5922SOL    HW118140   2.624   3.911  10.759
 5922SOL    HW218141   2.542   3.932  10.898
 5923SOL     OW18142   1.937   4.069   9.343
 5923SOL    HW118143   1.845   4.041   9.314
 5923SOL    HW218144   1.968   4.146   9.287
 5924SOL     OW18145   1.934   3.890   9.628
 5924SOL    HW118146   1.917   3.973   9.574
 5924SOL    HW218147   2.024   3.853   9.606
 5925SOL     OW18148   2.578   4.289  11.018
 5925SOL    HW118149   2.597   4.354  11.092
 5925SOL    HW218150   2.638   4.209  11.027
 5926SOL     OW18151   3.087   4.049   9.759
 5926SOL    HW118152   3.152   3.975   9.748
 5926SOL    HW218153   3.107   4.099   9.843
 5927SOL     OW18154   3.639   4.066  10.952
 5927SOL    HW118155   3.622   4.097  10.858
 5927SOL    HW218156   3.555   4.029  10.990
 5928SOL     OW18157   2.945   4.708   9.397
 5928SOL    HW118158   2.922   4.761   9.315
 5928SOL    HW218159   3.026   4.652   9.378
 5929SOL     OW18160   3.686   3.916  10.537
 5929SOL    HW118161   3.682   3.826  10.581
 5929SOL    HW218162   3.689   3.905  10.438
 5930SOL     OW18163   2.290   4.148   9.830
 5930SOL    HW118164   2.320   4.076   9.768
 5930SOL    HW218165   2.251   4.108   9.913
 5931SOL     OW18166   2.179   4.271  10.590
 5931SOL    HW118167   2.217   4.212  10.662
 5931SOL    HW218168   2.219   4.245  10.502
 5932SOL     OW18169   3.286   3.938  10.422
 5932SOL    HW118170   3.338   3.873  10.477
 5932SOL    HW218171   3.237   4.001  10.483
 5933SOL     OW18172   2.863   3.758  10.464
 5933SOL    HW118173   2.800   3.686  10.433
 5933SOL    HW218174   2.956   3.722  10.464
 5934SOL     OW18175   3.214   3.776   9.478
 5934SOL    HW118176   3.249   3.735   9.394
 5934SOL    HW218177   3.124   3.738   9.498
 5935SOL     OW18178   3.162   4.177  10.001
 5935SOL    HW118179   3.103   4.257  10.005
 5935SOL    HW218180   3.177   4.142  10.094
 5936SOL     OW18181   3.455   3.945  10.192
 5936SOL    HW118182   3.371   3.944  10.246
 5936SOL    HW218183   3.457   4.028  10.136
 5937SOL     OW18184   3.954   0.628   0.113
 5937SOL    HW118185   3.861   0.626   0.150
 5937SOL    HW218186   3.955   0.589   0.021
 5938SOL     OW18187   3.949   0.275   0.996
 5938SOL    HW118188   3.984   0.258   1.088
 5938SOL    HW218189   3.861   0.230   0.984
 5939SOL     OW18190   3.743   0.368   0.647
 5939SOL    HW118191   3.661   0.411   0.686
 5939SOL    HW218192   3.715   0.295   0.584
 5940SOL     OW18193   4.293   1.275   1.165
 5940SOL    HW118194   4.200   1.268   1.128
 5940SOL    HW218195   4.304   1.364   1.209
 5941SOL     OW18196   4.574   0.798   1.823
 5941SOL    HW118197   4.570   0.874   1.888
 5941SOL    HW218198   4.596   0.834   1.732
 5942SOL     OW18199   4.409   1.012   0.665
 5942SOL    HW118200   4.478   0.996   0.735
 5942SOL    HW218201   4.336   1.069   0.703
 5943SOL     OW18202   4.410   1.161   1.803
 5943SOL    HW118203   4.470   1.240   1.817
 5943SOL    HW218204   4.324   1.192   1.762
 5944SOL     OW18205   4.059   1.435   1.061
 5944SOL    HW118206   3.981   1.404   1.008
 5944SOL    HW218207   4.117   1.493   1.004
 5945SOL     OW18208   4.162   0.392   1.499
 5945SOL    HW118209   4.244   0.336   1.508
 5945SOL    HW218210   4.081   0.334   1.503
 5946SOL     OW18211   3.955   1.713   0.483
 5946SOL    HW118212   3.989   1.790   0.537
 5946SOL    HW218213   3.999   1.713   0.393
 5947SOL     OW18214   3.954   1.434   0.538
 5947SOL    HW118215   3.928   1.530   0.538
 5947SOL    HW218216   3.883   1.380   0.583
 5948SOL     OW18217   3.964   1.091   0.886
 5948SOL    HW118218   3.978   1.007   0.938
 5948SOL    HW218219   3.909   1.155   0.941
 5949SOL     OW18220   4.344   1.786   1.439
 5949SOL    HW118221   4.252   1.769   1.474
 5949SOL    HW218222   4.372   1.878   1.465
 5950SOL     OW18223   4.330   0.964   0.123
 5950SOL    HW118224   4.337   1.048   0.069
 5950SOL    HW218225   4.376   0.977   0.211
 5951SOL     OW18226   3.846   0.643   0.563
 5951SOL    HW118227   3.801   0.555   0.580
 5951SOL    HW218228   3.845   0.697   0.647
 5952SOL     OW18229   3.751   1.596   0.117
 5952SOL    HW118230   3.732   1.500   0.138
 5952SOL    HW218231   3.718   1.654   0.192
 5953SOL     OW18232   3.837   0.737   1.597
 5953SOL    HW118233   3.925   0.724   1.642
 5953SOL    HW218234   3.824   0.834   1.575
 5954SOL     OW18235   4.337   1.365   0.726
 5954SOL    HW118236   4.288   1.278   0.735
 5954SOL    HW218237   4.314   1.408   0.639
 5955SOL     OW18238   4.533   0.004   0.502
 5955SOL    HW118239   4.573   0.095   0.493
 5955SOL    HW218240   4.433   0.012   0.508
 5956SOL     OW18241   3.921   0.976   1.264
 5956SOL    HW118242   4.010   0.931   1.250
 5956SOL    HW218243   3.848   0.911   1.245
 5957SOL     OW18244   4.041   0.251   1.801
 5957SOL    HW118245   4.112   0.322   1.807
 5957SOL    HW218246   3.953   0.290   1.829
 5958SOL     OW18247   4.322   0.729   0.270
 5958SOL    HW118248   4.346   0.798   0.202
 5958SOL    HW218249   4.244   0.762   0.324
 5959SOL     OW18250   3.800   0.811   0.789
 5959SOL    HW118251   3.899   0.799   0.798
 5959SOL    HW218252   3.776   0.906   0.810
 5960SOL     OW18253   3.854   1.821   1.571
 5960SOL    HW118254   3.844   1.806   1.670
 5960SOL    HW218255   3.768   1.857   1.535
 5961SOL     OW18256   4.274   0.196   0.885
 5961SOL    HW118257   4.269   0.191   0.985
 5961SOL    HW218258   4.276   0.292   0.856
 5962SOL     OW18259   4.075   1.801   0.853
 5962SOL    HW118260   4.125   1.715   0.859
 5962SOL    HW218261   4.140   1.878   0.850
 5963SOL     OW18262   4.045   0.943   0.242
 5963SOL    HW118263   4.127   0.982   0.200
 5963SOL    HW218264   4.018   0.861   0.193
 5964SOL     OW18265   4.185   1.266   1.727
 5964SOL    HW118266   4.135   1.267   1.641
 5964SOL    HW218267   4.122   1.248   1.803
 5965SOL     OW18268   3.926   0.285   1.498
 5965SOL    HW118269   3.846   0.345   1.485
 5965SOL    HW218270   3.916   0.236   1.584
 5966SOL     OW18271   4.188   1.743   0.323
 5966SOL    HW118272   4.221   1.782   0.409
 5966SOL    HW218273   4.264   1.736   0.258
 5967SOL     OW18274   3.973   1.785   1.241
 5967SOL    HW118275   4.030   1.720   1.291
 5967SOL    HW218276   3.957   1.752   1.148
 5968SOL     OW18277   4.106   0.700   0.480
 5968SOL    HW118278   4.151   0.610   0.477
 5968SOL    HW218279   4.012   0.689   0.513
 5969SOL     OW18280   4.338   0.122   0.117
 5969SOL    HW118281   4.436   0.100   0.124
 5969SOL    HW218282   4.307   0.105   0.024
 5970SOL     OW18283   4.527   1.402   0.924
 5970SOL    HW118284   4.617   1.416   0.882
 5970SOL    HW218285   4.456   1.404   0.853
 5971SOL     OW18286   4.263   0.064   0.512
 5971SOL    HW118287   4.182   0.065   0.570
 5971SOL    HW218288   4.266   0.147   0.457
 5972SOL     OW18289   4.021   0.035   0.171
 5972SOL    HW118290   4.070   0.119   0.150
 5972SOL    HW218291   4.083  -0.030   0.216
 5973SOL     OW18292   4.800   0.683   1.464
 5973SOL    HW118293   4.720   0.622   1.467
 5973SOL    HW218294   4.881   0.630   1.440
 5974SOL     OW18295   4.183   1.152   0.741
 5974SOL    HW118296   4.112   1.125   0.806
 5974SOL    HW218297   4.157   1.124   0.648
 5975SOL     OW18298   3.802   0.556   1.386
 5975SOL    HW118299   3.894   0.555   1.345
 5975SOL    HW218300   3.796   0.630   1.453
 5976SOL     OW18301   4.285   0.222   1.147
 5976SOL    HW118302   4.323   0.138   1.184
 5976SOL    HW218303   4.197   0.241   1.191
 5977SOL     OW18304   4.212   1.385   0.174
 5977SOL    HW118305   4.125   1.370   0.221
 5977SOL    HW218306   4.195   1.411   0.079
 5978SOL     OW18307   4.251   0.256   0.328
 5978SOL    HW118308   4.278   0.197   0.253
 5978SOL    HW218309   4.251   0.351   0.297
 5979SOL     OW18310   4.134   0.813   1.251
 5979SOL    HW118311   4.220   0.825   1.301
 5979SOL    HW218312   4.092   0.726   1.278
 5980SOL     OW18313   3.788   1.564   1.331
 5980SOL    HW118314   3.742   1.646   1.297
 5980SOL    HW218315   3.886   1.583   1.340
 5981SOL     OW18316   4.091   1.100   0.501
 5981SOL    HW118317   4.084   1.183   0.445
 5981SOL    HW218318   4.095   1.020   0.441
 5982SOL     OW18319   4.290   0.537   0.865
 5982SOL    HW118320   4.302   0.603   0.791
 5982SOL    HW218321   4.336   0.571   0.948
 5983SOL     OW18322   4.078   1.510   1.329
 5983SOL    HW118323   4.057   1.466   1.242
 5983SOL    HW218324   4.175   1.536   1.332
 5984SOL     OW18325   4.126   0.751   1.598
 5984SOL    HW118326   4.194   0.806   1.551
 5984SOL    HW218327   4.166   0.663   1.625
 5985SOL     OW18328   4.228   0.050   1.740
 5985SOL    HW118329   4.186  -0.007   1.670
 5985SOL    HW218330   4.162   0.119   1.772
 5986SOL     OW18331   4.297   0.870   1.029
 5986SOL    HW118332   4.341   0.959   1.020
 5986SOL    HW218333   4.234   0.870   1.106
 5987SOL     OW18334   4.031   0.213   1.231
 5987SOL    HW118335   4.008   0.250   1.321
 5987SOL    HW218336   4.001   0.118   1.225
 5988SOL     OW18337   3.761   1.310   1.282
 5988SOL    HW118338   3.814   1.261   1.350
 5988SOL    HW218339   3.783   1.408   1.287
 5989SOL     OW18340   4.031   0.063   0.618
 5989SOL    HW118341   4.020   0.157   0.651
 5989SOL    HW218342   4.026   0.000   0.695
 5990SOL     OW18343   4.074   0.898   1.804
 5990SOL    HW118344   4.150   0.942   1.852
 5990SOL    HW218345   4.109   0.851   1.722
 5991SOL     OW18346   4.043   0.810   0.949
 5991SOL    HW118347   4.136   0.846   0.954
 5991SOL    HW218348   4.037   0.725   1.001
 5992SOL     OW18349   4.063   0.509   1.006
 5992SOL    HW118350   4.011   0.426   0.989
 5992SOL    HW218351   4.140   0.514   0.942
 5993SOL     OW18352   3.732   1.326   0.200
 5993SOL    HW118353   3.639   1.347   0.169
 5993SOL    HW218354   3.742   1.227   0.213
 5994SOL     OW18355   3.812   1.801   0.927
 5994SOL    HW118356   3.770   1.715   0.900
 5994SOL    HW218357   3.906   1.804   0.893
 5995SOL     OW18358   4.228   1.568   0.910
 5995SOL    HW118359   4.294   1.642   0.919
 5995SOL    HW218360   4.272   1.489   0.868
 5996SOL     OW18361   3.764   0.544   1.114
 5996SOL    HW118362   3.849   0.511   1.073
 5996SOL    HW218363   3.777   0.559   1.212
 5997SOL     OW18364   3.913   0.520   1.722
 5997SOL    HW118365   3.972   0.480   1.652
 5997SOL    HW218366   3.855   0.591   1.681
 5998SOL     OW18367   4.539   0.572   0.325
 5998SOL    HW118368   4.546   0.483   0.279
 5998SOL    HW218369   4.445   0.606   0.317
 5999SOL     OW18370   3.976   1.564   1.744
 5999SOL    HW118371   3.946   1.621   1.820
 5999SOL    HW218372   3.969   1.467   1.770
 6000SOL     OW18373   4.197   0.500   0.191
 6000SOL    HW118374   4.258   0.580   0.195
 6000SOL    HW218375   4.102   0.531   0.198
 6001SOL     OW18376   3.883   1.137   1.466
 6001SOL    HW118377   3.905   1.076   1.542
 6001SOL    HW218378   3.893   1.088   1.380
 6002SOL     OW18379   3.807   1.258   1.022
 6002SOL    HW118380   3.802   1.257   1.122
 6002SOL    HW218381   3.724   1.217   0.984
 6003SOL     OW18382   4.412   1.662   1.716
 6003SOL    HW118383   4.356   1.743   1.725
 6003SOL    HW218384   4.464   1.666   1.630
 6004SOL     OW18385   3.854   1.794   1.851
 6004SOL    HW118386   3.813   1.720   1.904
 6004SOL    HW218387   3.918   1.845   1.909
 6005SOL     OW18388   3.987   0.326   0.720
 6005SOL    HW118389   3.908   0.377   0.686
 6005SOL    HW218390   3.978   0.311   0.818
 6006SOL     OW18391   4.096   1.288   1.490
 6006SOL    HW118392   4.083   1.381   1.456
 6006SOL    HW218393   4.012   1.236   1.477
 6007SOL     OW18394   4.314   1.487   0.491
 6007SOL    HW118395   4.356   1.429   0.421
 6007SOL    HW218396   4.270   1.566   0.447
 6008SOL     OW18397   3.979   1.348   0.290
 6008SOL    HW118398   3.883   1.349   0.263
 6008SOL    HW218399   3.991   1.401   0.374
 6009SOL     OW18400   3.829   1.013   1.726
 6009SOL    HW118401   3.752   0.980   1.780
 6009SOL    HW218402   3.914   0.983   1.768
 6010SOL     OW18403   4.396   0.203   1.489
 6010SOL    HW118404   4.486   0.187   1.449
 6010SOL    HW218405   4.404   0.208   1.588
 6011SOL     OW18406   3.799   0.345   0.033
 6011SOL    HW118407   3.707   0.317   0.004
 6011SOL    HW218408   3.830   0.422  -0.023
 6012SOL     OW18409   3.796   0.166   0.318
 6012SOL    HW118410   3.779   0.249   0.264
 6012SOL    HW218411   3.886   0.129   0.296
 6013SOL     OW18412   4.337   0.842   1.431
 6013SOL    HW118413   4.393   0.923   1.414
 6013SOL    HW218414   4.396   0.762   1.434
 6014SOL     OW18415   4.440   0.565   1.708
 6014SOL    HW118416   4.459   0.630   1.782
 6014SOL    HW218417   4.500   0.485   1.717
 6015SOL     OW18418   4.114   1.741   1.560
 6015SOL    HW118419   4.023   1.782   1.558
 6015SOL    HW218420   4.107   1.647   1.592
 6016SOL     OW18421   4.318   0.745   0.652
 6016SOL    HW118422   4.368   0.830   0.633
 6016SOL    HW218423   4.230   0.747   0.604
 6017SOL     OW18424   3.945   1.314   1.844
 6017SOL    HW118425   3.880   1.241   1.823
 6017SOL    HW218426   3.949   1.328   1.942
 6018SOL     OW18427   3.803   1.240   0.653
 6018SOL    HW118428   3.802   1.193   0.741
 6018SOL    HW218429   3.885   1.212   0.602
 6019SOL     OW18430   4.396   1.391   1.624
 6019SOL    HW118431   4.318   1.341   1.662
 6019SOL    HW218432   4.393   1.486   1.655
 6020SOL     OW18433   4.152   0.424   0.520
 6020SOL    HW118434   4.182   0.352   0.458
 6020SOL    HW218435   4.113   0.384   0.603
 6021SOL     OW18436   4.041   0.547   1.280
 6021SOL    HW118437   4.079   0.488   1.352
 6021SOL    HW218438   4.081   0.521   1.192
 6022SOL     OW18439   4.536   1.586   0.687
 6022SOL    HW118440   4.568   1.596   0.593
 6022SOL    HW218441   4.457   1.524   0.689
 6023SOL     OW18442   3.763   1.077   0.300
 6023SOL    HW118443   3.862   1.066   0.291
 6023SOL    HW218444   3.723   0.991   0.332
 6024SOL     OW18445   3.954   0.628   1.975
 6024SOL    HW118446   3.861   0.626   2.012
 6024SOL    HW218447   3.955   0.589   1.883
 6025SOL     OW18448   3.949   0.275   2.858
 6025SOL    HW118449   3.984   0.258   2.950
 6025SOL    HW218450   3.861   0.230   2.846
 6026SOL     OW18451   3.743   0.368   2.509
 6026SOL    HW118452   3.661   0.411   2.548
 6026SOL    HW218453   3.715   0.295   2.446
 6027SOL     OW18454   4.293   1.275   3.027
 6027SOL    HW118455   4.200   1.268   2.990
 6027SOL    HW218456   4.304   1.364   3.071
 6028SOL     OW18457   4.574   0.798   3.685
 6028SOL    HW118458   4.570   0.874   3.750
 6028SOL    HW218459   4.596   0.834   3.594
 6029SOL     OW18460   4.409   1.012   2.527
 6029SOL    HW118461   4.478   0.996   2.597
 6029SOL    HW218462   4.336   1.069   2.565
 6030SOL     OW18463   4.410   1.161   3.665
 6030SOL    HW118464   4.470   1.240   3.679
 6030SOL    HW218465   4.324   1.192   3.624
 6031SOL     OW18466   4.059   1.435   2.923
 6031SOL    HW118467   3.981   1.404   2.870
 6031SOL    HW218468   4.117   1.493   2.866
 6032SOL     OW18469   4.162   0.392   3.361
 6032SOL    HW118470   4.244   0.336   3.370
 6032SOL    HW218471   4.081   0.334   3.365
 6033SOL     OW18472   3.955   1.713   2.345
 6033SOL    HW118473   3.989   1.790   2.399
 6033SOL    HW218474   3.999   1.713   2.255
 6034SOL     OW18475   3.954   1.434   2.400
 6034SOL    HW118476   3.928   1.530   2.400
 6034SOL    HW218477   3.883   1.380   2.445
 6035SOL     OW18478   3.964   1.091   2.748
 6035SOL    HW118479   3.978   1.007   2.800
 6035SOL    HW218480   3.909   1.155   2.803
 6036SOL     OW18481   4.344   1.786   3.301
 6036SOL    HW118482   4.252   1.769   3.336
 6036SOL    HW218483   4.372   1.878   3.327
 6037SOL     OW18484   4.330   0.964   1.985
 6037SOL    HW118485   4.337   1.048   1.931
 6037SOL    HW218486   4.376   0.977   2.073
 6038SOL     OW18487   3.846   0.643   2.425
 6038SOL    HW118488   3.801   0.555   2.442
 6038SOL    HW218489   3.845   0.697   2.509
 6039SOL     OW18490   3.751   1.596   1.979
 6039SOL    HW118491   3.732   1.500   2.000
 6039SOL    HW218492   3.718   1.654   2.054
 6040SOL     OW18493   3.837   0.737   3.459
 6040SOL    HW118494   3.925   0.724   3.504
 6040SOL    HW218495   3.824   0.834   3.437
 6041SOL     OW18496   4.337   1.365   2.588
 6041SOL    HW118497   4.288   1.278   2.597
 6041SOL    HW218498   4.314   1.408   2.501
 6042SOL     OW18499   4.533   0.004   2.364
 6042SOL    HW118500   4.573   0.095   2.355
 6042SOL    HW218501   4.433   0.012   2.370
 6043SOL     OW18502   3.921   0.976   3.126
 6043SOL    HW118503   4.010   0.931   3.112
 6043SOL    HW218504   3.848   0.911   3.107
 6044SOL     OW18505   4.041   0.251   3.663
 6044SOL    HW118506   4.112   0.322   3.669
 6044SOL    HW218507   3.953   0.290   3.691
 6045SOL     OW18508   4.322   0.729   2.132
 6045SOL    HW118509   4.346   0.798   2.064
 6045SOL    HW218510   4.244   0.762   2.186
 6046SOL     OW18511   3.800   0.811   2.651
 6046SOL    HW118512   3.899   0.799   2.660
 6046SOL    HW218513   3.776   0.906   2.672
 6047SOL     OW18514   3.854   1.821   3.433
 6047SOL    HW118515   3.844   1.806   3.532
 6047SOL    HW218516   3.768   1.857   3.397
 6048SOL     OW18517   4.274   0.196   2.747
 6048SOL    HW118518   4.269   0.191   2.847
 6048SOL    HW218519   4.276   0.292   2.718
 6049SOL     OW18520   4.075   1.801   2.715
 6049SOL    HW118521   4.125   1.715   2.721
 6049SOL    HW218522   4.140   1.878   2.712
 6050SOL     OW18523   4.045   0.943   2.104
 6050SOL    HW118524   4.127   0.982   2.062
 6050SOL    HW218525   4.018   0.861   2.055
 6051SOL     OW18526   4.185   1.266   3.589
 6051SOL    HW118527   4.135   1.267   3.503
 6051SOL    HW218528   4.122   1.248   3.665
 6052SOL     OW18529   3.926   0.285   3.360
 6052SOL    HW118530   3.846   0.345   3.347
 6052SOL    HW218531   3.916   0.236   3.446
 6053SOL     OW18532   4.188   1.743   2.185
 6053SOL    HW118533   4.221   1.782   2.271
 6053SOL    HW218534   4.264   1.736   2.120
 6054SOL     OW18535   3.973   1.785   3.103
 6054SOL    HW118536   4.030   1.720   3.153
 6054SOL    HW218537   3.957   1.752   3.010
 6055SOL     OW18538   4.106   0.700   2.342
 6055SOL    HW118539   4.151   0.610   2.339
 6055SOL    HW218540   4.012   0.689   2.375
 6056SOL     OW18541   4.338   0.122   1.979
 6056SOL    HW118542   4.436   0.100   1.986
 6056SOL    HW218543   4.307   0.105   1.886
 6057SOL     OW18544   4.527   1.402   2.786
 6057SOL    HW118545   4.617   1.416   2.744
 6057SOL    HW218546   4.456   1.404   2.715
 6058SOL     OW18547   4.263   0.064   2.374
 6058SOL    HW118548   4.182   0.065   2.432
 6058SOL    HW218549   4.266   0.147   2.319
 6059SOL     OW18550   4.021   0.035   2.033
 6059SOL    HW118551   4.070   0.119   2.012
 6059SOL    HW218552   4.083  -0.030   2.078
 6060SOL     OW18553   4.800   0.683   3.326
 6060SOL    HW118554   4.720   0.622   3.329
 6060SOL    HW218555   4.881   0.630   3.302
 6061SOL     OW18556   4.183   1.152   2.603
 6061SOL    HW118557   4.112   1.125   2.668
 6061SOL    HW218558   4.157   1.124   2.510
 6062SOL     OW18559   3.802   0.556   3.248
 6062SOL    HW118560   3.894   0.555   3.207
 6062SOL    HW218561   3.796   0.630   3.315
 6063SOL     OW18562   4.285   0.222   3.009
 6063SOL    HW118563   4.323   0.138   3.046
 6063SOL    HW218564   4.197   0.241   3.053
 6064SOL     OW18565   4.212   1.385   2.036
 6064SOL    HW118566   4.125   1.370   2.083
 6064SOL    HW218567   4.195   1.411   1.941
 6065SOL     OW18568   4.251   0.256   2.190
 6065SOL    HW118569   4.278   0.197   2.115
 6065SOL    HW218570   4.251   0.351   2.159
 6066SOL     OW18571   4.134   0.813   3.113
 6066SOL    HW118572   4.220   0.825   3.163
 6066SOL    HW218573   4.092   0.726   3.140
 6067SOL     OW18574   3.788   1.564   3.193
 6067SOL    HW118575   3.742   1.646   3.159
 6067SOL    HW218576   3.886   1.583   3.202
 6068SOL     OW18577   4.091   1.100   2.363
 6068SOL    HW118578   4.084   1.183   2.307
 6068SOL    HW218579   4.095   1.020   2.303
 6069SOL     OW18580   4.290   0.537   2.727
 6069SOL    HW118581   4.302   0.603   2.653
 6069SOL    HW218582   4.336   0.571   2.810
 6070SOL     OW18583   4.078   1.510   3.191
 6070SOL    HW118584   4.057   1.466   3.104
 6070SOL    HW218585   4.175   1.536   3.194
 6071SOL     OW18586   4.126   0.751   3.460
 6071SOL    HW118587   4.194   0.806   3.413
 6071SOL    HW218588   4.166   0.663   3.487
 6072SOL     OW18589   4.228   0.050   3.602
 6072SOL    HW118590   4.186  -0.007   3.532
 6072SOL    HW218591   4.162   0.119   3.634
 6073SOL     OW18592   4.297   0.870   2.891
 6073SOL    HW118593   4.341   0.959   2.882
 6073SOL    HW218594   4.234   0.870   2.968
 6074SOL     OW18595   4.031   0.213   3.093
 6074SOL    HW118596   4.008   0.250   3.183
 6074SOL    HW218597   4.001   0.118   3.087
 6075SOL     OW18598   3.761   1.310   3.144
 6075SOL    HW118599   3.814   1.261   3.212
 6075SOL    HW218600   3.783   1.408   3.149
 6076SOL     OW18601   4.031   0.063   2.480
 6076SOL    HW118602   4.020   0.157   2.513
 6076SOL    HW218603   4.026   0.000   2.557
 6077SOL     OW18604   4.074   0.898   3.666
 6077SOL    HW118605   4.150   0.942   3.714
 6077SOL    HW218606   4.109   0.851   3.584
 6078SOL     OW18607   4.043   0.810   2.811
 6078SOL    HW118608   4.136   0.846   2.816
 6078SOL    HW218609   4.037   0.725   2.863
 6079SOL     OW18610   4.063   0.509   2.868
 6079SOL    HW118611   4.011   0.426   2.851
 6079SOL    HW218612   4.140   0.514   2.804
 6080SOL     OW18613   3.732   1.326   2.062
 6080SOL    HW118614   3.639   1.347   2.031
 6080SOL    HW218615   3.742   1.227   2.075
 6081SOL     OW18616   3.812   1.801   2.789
 6081SOL    HW118617   3.770   1.715   2.762
 6081SOL    HW218618   3.906   1.804   2.755
 6082SOL     OW18619   4.228   1.568   2.772
 6082SOL    HW118620   4.294   1.642   2.781
 6082SOL    HW218621   4.272   1.489   2.730
 6083SOL     OW18622   3.764   0.544   2.976
 6083SOL    HW118623   3.849   0.511   2.935
 6083SOL    HW218624   3.777   0.559   3.074
 6084SOL     OW18625   3.913   0.520   3.584
 6084SOL    HW118626   3.972   0.480   3.514
 6084SOL    HW218627   3.855   0.591   3.543
 6085SOL     OW18628   4.539   0.572   2.187
 6085SOL    HW118629   4.546   0.483   2.141
 6085SOL    HW218630   4.445   0.606   2.179
 6086SOL     OW18631   3.976   1.564   3.606
 6086SOL    HW118632   3.946   1.621   3.682
 6086SOL    HW218633   3.969   1.467   3.632
 6087SOL     OW18634   4.197   0.500   2.053
 6087SOL    HW118635   4.258   0.580   2.057
 6087SOL    HW218636   4.102   0.531   2.060
 6088SOL     OW18637   3.883   1.137   3.328
 6088SOL    HW118638   3.905   1.076   3.404
 6088SOL    HW218639   3.893   1.088   3.242
 6089SOL     OW18640   3.807   1.258   2.884
 6089SOL    HW118641   3.802   1.257   2.984
 6089SOL    HW218642   3.724   1.217   2.846
 6090SOL     OW18643   4.412   1.662   3.578
 6090SOL    HW118644   4.356   1.743   3.587
 6090SOL    HW218645   4.464   1.666   3.492
 6091SOL     OW18646   3.854   1.794   3.713
 6091SOL    HW118647   3.813   1.720   3.766
 6091SOL    HW218648   3.918   1.845   3.771
 6092SOL     OW18649   3.987   0.326   2.582
 6092SOL    HW118650   3.908   0.377   2.548
 6092SOL    HW218651   3.978   0.311   2.680
 6093SOL     OW18652   4.096   1.288   3.352
 6093SOL    HW118653   4.083   1.381   3.318
 6093SOL    HW218654   4.012   1.236   3.339
 6094SOL     OW18655   4.314   1.487   2.353
 6094SOL    HW118656   4.356   1.429   2.283
 6094SOL    HW218657   4.270   1.566   2.309
 6095SOL     OW18658   3.979   1.348   2.152
 6095SOL    HW118659   3.883   1.349   2.125
 6095SOL    HW218660   3.991   1.401   2.236
 6096SOL     OW18661   3.829   1.013   3.588
 6096SOL    HW118662   3.752   0.980   3.642
 6096SOL    HW218663   3.914   0.983   3.630
 6097SOL     OW18664   4.396   0.203   3.351
 6097SOL    HW118665   4.486   0.187   3.311
 6097SOL    HW218666   4.404   0.208   3.450
 6098SOL     OW18667   3.799   0.345   1.895
 6098SOL    HW118668   3.707   0.317   1.866
 6098SOL    HW218669   3.830   0.422   1.839
 6099SOL     OW18670   3.796   0.166   2.180
 6099SOL    HW118671   3.779   0.249   2.126
 6099SOL    HW218672   3.886   0.129   2.158
 6100SOL     OW18673   4.337   0.842   3.293
 6100SOL    HW118674   4.393   0.923   3.276
 6100SOL    HW218675   4.396   0.762   3.296
 6101SOL     OW18676   4.440   0.565   3.570
 6101SOL    HW118677   4.459   0.630   3.644
 6101SOL    HW218678   4.500   0.485   3.579
 6102SOL     OW18679   4.114   1.741   3.422
 6102SOL    HW118680   4.023   1.782   3.420
 6102SOL    HW218681   4.107   1.647   3.454
 6103SOL     OW18682   4.318   0.745   2.514
 6103SOL    HW118683   4.368   0.830   2.495
 6103SOL    HW218684   4.230   0.747   2.466
 6104SOL     OW18685   3.945   1.314   3.706
 6104SOL    HW118686   3.880   1.241   3.685
 6104SOL    HW218687   3.949   1.328   3.804
 6105SOL     OW18688   3.803   1.240   2.515
 6105SOL    HW118689   3.802   1.193   2.603
 6105SOL    HW218690   3.885   1.212   2.464
 6106SOL     OW18691   4.396   1.391   3.486
 6106SOL    HW118692   4.318   1.341   3.524
 6106SOL    HW218693   4.393   1.486   3.517
 6107SOL     OW18694   4.152   0.424   2.382
 6107SOL    HW118695   4.182   0.352   2.320
 6107SOL    HW218696   4.113   0.384   2.465
 6108SOL     OW18697   4.041   0.547   3.142
 6108SOL    HW118698   4.079   0.488   3.214
 6108SOL    HW218699   4.081   0.521   3.054
 6109SOL     OW18700   4.536   1.586   2.549
 6109SOL    HW118701   4.568   1.596   2.455
 6109SOL    HW218702   4.457   1.524   2.551
 6110SOL     OW18703   3.763   1.077   2.162
 6110SOL    HW118704   3.862   1.066   2.153
 6110SOL    HW218705   3.723   0.991   2.194
 6111SOL     OW18706   3.954   0.628   3.837
 6111SOL    HW118707   3.861   0.626   3.874
 6111SOL    HW218708   3.955   0.589   3.745
 6112SOL     OW18709   3.949   0.275   4.720
 6112SOL    HW118710   3.984   0.258   4.812
 6112SOL    HW218711   3.861   0.230   4.708
 6113SOL     OW18712   3.743   0.368   4.371
 6113SOL    HW118713   3.661   0.411   4.410
 6113SOL    HW218714   3.715   0.295   4.308
 6114SOL     OW18715   4.293   1.275   4.889
 6114SOL    HW118716   4.200   1.268   4.852
 6114SOL    HW218717   4.304   1.364   4.933
 6115SOL     OW18718   4.574   0.798   5.547
 6115SOL    HW118719   4.570   0.874   5.612
 6115SOL    HW218720   4.596   0.834   5.456
 6116SOL     OW18721   4.409   1.012   4.389
 6116SOL    HW118722   4.478   0.996   4.459
 6116SOL    HW218723   4.336   1.069   4.427
 6117SOL     OW18724   4.410   1.161   5.527
 6117SOL    HW118725   4.470   1.240   5.541
 6117SOL    HW218726   4.324   1.192   5.486
 6118SOL     OW18727   4.059   1.435   4.785
 6118SOL    HW118728   3.981   1.404   4.732
 6118SOL    HW218729   4.117   1.493   4.728
 6119SOL     OW18730   4.162   0.392   5.223
 6119SOL    HW118731   4.244   0.336   5.232
 6119SOL    HW218732   4.081   0.334   5.227
 6120SOL     OW18733   3.955   1.713   4.207
 6120SOL    HW118734   3.989   1.790   4.261
 6120SOL    HW218735   3.999   1.713   4.117
 6121SOL     OW18736   3.954   1.434   4.262
 6121SOL    HW118737   3.928   1.530   4.262
 6121SOL    HW218738   3.883   1.380   4.307
 6122SOL     OW18739   3.964   1.091   4.610
 6122SOL    HW118740   3.978   1.007   4.662
 6122SOL    HW218741   3.909   1.155   4.665
 6123SOL     OW18742   4.344   1.786   5.163
 6123SOL    HW118743   4.252   1.769   5.198
 6123SOL    HW218744   4.372   1.878   5.189
 6124SOL     OW18745   4.330   0.964   3.847
 6124SOL    HW118746   4.337   1.048   3.793
 6124SOL    HW218747   4.376   0.977   3.935
 6125SOL     OW18748   3.846   0.643   4.287
 6125SOL    HW118749   3.801   0.555   4.304
 6125SOL    HW218750   3.845   0.697   4.371
 6126SOL     OW18751   3.751   1.596   3.841
 6126SOL    HW118752   3.732   1.500   3.862
 6126SOL    HW218753   3.718   1.654   3.916
 6127SOL     OW18754   3.837   0.737   5.321
 6127SOL    HW118755   3.925   0.724   5.366
 6127SOL    HW218756   3.824   0.834   5.299
 6128SOL     OW18757   4.337   1.365   4.450
 6128SOL    HW118758   4.288   1.278   4.459
 6128SOL    HW218759   4.314   1.408   4.363
 6129SOL     OW18760   4.533   0.004   4.226
 6129SOL    HW118761   4.573   0.095   4.217
 6129SOL    HW218762   4.433   0.012   4.232
 6130SOL     OW18763   3.921   0.976   4.988
 6130SOL    HW118764   4.010   0.931   4.974
 6130SOL    HW218765   3.848   0.911   4.969
 6131SOL     OW18766   4.041   0.251   5.525
 6131SOL    HW118767   4.112   0.322   5.531
 6131SOL    HW218768   3.953   0.290   5.553
 6132SOL     OW18769   4.322   0.729   3.994
 6132SOL    HW118770   4.346   0.798   3.926
 6132SOL    HW218771   4.244   0.762   4.048
 6133SOL     OW18772   3.800   0.811   4.513
 6133SOL    HW118773   3.899   0.799   4.522
 6133SOL    HW218774   3.776   0.906   4.534
 6134SOL     OW18775   3.854   1.821   5.295
 6134SOL    HW118776   3.844   1.806   5.394
 6134SOL    HW218777   3.768   1.857   5.259
 6135SOL     OW18778   4.274   0.196   4.609
 6135SOL    HW118779   4.269   0.191   4.709
 6135SOL    HW218780   4.276   0.292   4.580
 6136SOL     OW18781   4.075   1.801   4.577
 6136SOL    HW118782   4.125   1.715   4.583
 6136SOL    HW218783   4.140   1.878   4.574
 6137SOL     OW18784   4.045   0.943   3.966
 6137SOL    HW118785   4.127   0.982   3.924
 6137SOL    HW218786   4.018   0.861   3.917
 6138SOL     OW18787   4.185   1.266   5.451
 6138SOL    HW118788   4.135   1.267   5.365
 6138SOL    HW218789   4.122   1.248   5.527
 6139SOL     OW18790   3.926   0.285   5.222
 6139SOL    HW118791   3.846   0.345   5.209
 6139SOL    HW218792   3.916   0.236   5.308
 6140SOL     OW18793   4.188   1.743   4.047
 6140SOL    HW118794   4.221   1.782   4.133
 6140SOL    HW218795   4.264   1.736   3.982
 6141SOL     OW18796   3.973   1.785   4.965
 6141SOL    HW118797   4.030   1.720   5.015
 6141SOL    HW218798   3.957   1.752   4.872
 6142SOL     OW18799   4.106   0.700   4.204
 6142SOL    HW118800   4.151   0.610   4.201
 6142SOL    HW218801   4.012   0.689   4.237
 6143SOL     OW18802   4.338   0.122   3.841
 6143SOL    HW118803   4.436   0.100   3.848
 6143SOL    HW218804   4.307   0.105   3.748
 6144SOL     OW18805   4.527   1.402   4.648
 6144SOL    HW118806   4.617   1.416   4.606
 6144SOL    HW218807   4.456   1.404   4.577
 6145SOL     OW18808   4.263   0.064   4.236
 6145SOL    HW118809   4.182   0.065   4.294
 6145SOL    HW218810   4.266   0.147   4.181
 6146SOL     OW18811   4.021   0.035   3.895
 6146SOL    HW118812   4.070   0.119   3.874
 6146SOL    HW218813   4.083  -0.030   3.940
 6147SOL     OW18814   4.800   0.683   5.188
 6147SOL    HW118815   4.720   0.622   5.191
 6147SOL    HW218816   4.881   0.630   5.164
 6148SOL     OW18817   4.183   1.152   4.465
 6148SOL    HW118818   4.112   1.125   4.530
 6148SOL    HW218819   4.157   1.124   4.372
 6149SOL     OW18820   3.802   0.556   5.110
 6149SOL    HW118821   3.894   0.555   5.069
 6149SOL    HW218822   3.796   0.630   5.177
 6150SOL     OW18823   4.285   0.222   4.871
 6150SOL    HW118824   4.323   0.138   4.908
 6150SOL    HW218825   4.197   0.241   4.915
 6151SOL     OW18826   4.212   1.385   3.898
 6151SOL    HW118827   4.125   1.370   3.945
 6151SOL    HW218828   4.195   1.411   3.803
 6152SOL     OW18829   4.251   0.256   4.052
 6152SOL    HW118830   4.278   0.197   3.977
 6152SOL    HW218831   4.251   0.351   4.021
 6153SOL     OW18832   4.134   0.813   4.975
 6153SOL    HW118833   4.220   0.825   5.025
 6153SOL    HW218834   4.092   0.726   5.002
 6154SOL     OW18835   3.788   1.564   5.055
 6154SOL    HW118836   3.742   1.646   5.021
 6154SOL    HW218837   3.886   1.583   5.064
 6155SOL     OW18838   4.091   1.100   4.225
 6155SOL    HW118839   4.084   1.183   4.169
 6155SOL    HW218840   4.095   1.020   4.165
 6156SOL     OW18841   4.290   0.537   4.589
 6156SOL    HW118842   4.302   0.603   4.515
 6156SOL    HW218843   4.336   0.571   4.672
 6157SOL     OW18844   4.078   1.510   5.053
 6157SOL    HW118845   4.057   1.466   4.966
 6157SOL    HW218846   4.175   1.536   5.056
 6158SOL     OW18847   4.126   0.751   5.322
 6158SOL    HW118848   4.194   0.806   5.275
 6158SOL    HW218849   4.166   0.663   5.349
 6159SOL     OW18850   4.228   0.050   5.464
 6159SOL    HW118851   4.186  -0.007   5.394
 6159SOL    HW218852   4.162   0.119   5.496
 6160SOL     OW18853   4.297   0.870   4.753
 6160SOL    HW118854   4.341   0.959   4.744
 6160SOL    HW218855   4.234   0.870   4.830
 6161SOL     OW18856   4.031   0.213   4.955
 6161SOL    HW118857   4.008   0.250   5.045
 6161SOL    HW218858   4.001   0.118   4.949
 6162SOL     OW18859   3.761   1.310   5.006
 6162SOL    HW118860   3.814   1.261   5.074
 6162SOL    HW218861   3.783   1.408   5.011
 6163SOL     OW18862   4.031   0.063   4.342
 6163SOL    HW118863   4.020   0.157   4.375
 6163SOL    HW218864   4.026   0.000   4.419
 6164SOL     OW18865   4.074   0.898   5.528
 6164SOL    HW118866   4.150   0.942   5.576
 6164SOL    HW218867   4.109   0.851   5.446
 6165SOL     OW18868   4.043   0.810   4.673
 6165SOL    HW118869   4.136   0.846   4.678
 6165SOL    HW218870   4.037   0.725   4.725
 6166SOL     OW18871   4.063   0.509   4.730
 6166SOL    HW118872   4.011   0.426   4.713
 6166SOL    HW218873   4.140   0.514   4.666
 6167SOL     OW18874   3.732   1.326   3.924
 6167SOL    HW118875   3.639   1.347   3.893
 6167SOL    HW218876   3.742   1.227   3.937
 6168SOL     OW18877   3.812   1.801   4.651
 6168SOL    HW118878   3.770   1.715   4.624
 6168SOL    HW218879   3.906   1.804   4.617
 6169SOL     OW18880   4.228   1.568   4.634
 6169SOL    HW118881   4.294   1.642   4.643
 6169SOL    HW218882   4.272   1.489   4.592
 6170SOL     OW18883   3.764   0.544   4.838
 6170SOL    HW118884   3.849   0.511   4.797
 6170SOL    HW218885   3.777   0.559   4.936
 6171SOL     OW18886   3.913   0.520   5.446
 6171SOL    HW118887   3.972   0.480   5.376
 6171SOL    HW218888   3.855   0.591   5.405
 6172SOL     OW18889   4.539   0.572   4.049
 6172SOL    HW118890   4.546   0.483   4.003
 6172SOL    HW218891   4.445   0.606   4.041
 6173SOL     OW18892   3.976   1.564   5.468
 6173SOL    HW118893   3.946   1.621   5.544
 6173SOL    HW218894   3.969   1.467   5.494
 6174SOL     OW18895   4.197   0.500   3.915
 6174SOL    HW118896   4.258   0.580   3.919
 6174SOL    HW218897   4.102   0.531   3.922
 6175SOL     OW18898   3.883   1.137   5.190
 6175SOL    HW118899   3.905   1.076   5.266
 6175SOL    HW218900   3.893   1.088   5.104
 6176SOL     OW18901   3.807   1.258   4.746
 6176SOL    HW118902   3.802   1.257   4.846
 6176SOL    HW218903   3.724   1.217   4.708
 6177SOL     OW18904   4.412   1.662   5.440
 6177SOL    HW118905   4.356   1.743   5.449
 6177SOL    HW218906   4.464   1.666   5.354
 6178SOL     OW18907   3.854   1.794   5.575
 6178SOL    HW118908   3.813   1.720   5.628
 6178SOL    HW218909   3.918   1.845   5.633
 6179SOL     OW18910   3.987   0.326   4.444
 6179SOL    HW118911   3.908   0.377   4.410
 6179SOL    HW218912   3.978   0.311   4.542
 6180SOL     OW18913   4.096   1.288   5.214
 6180SOL    HW118914   4.083   1.381   5.180
 6180SOL    HW218915   4.012   1.236   5.201
 6181SOL     OW18916   4.314   1.487   4.215
 6181SOL    HW118917   4.356   1.429   4.145
 6181SOL    HW218918   4.270   1.566   4.171
 6182SOL     OW18919   3.979   1.348   4.014
 6182SOL    HW118920   3.883   1.349   3.987
 6182SOL    HW218921   3.991   1.401   4.098
 6183SOL     OW18922   3.829   1.013   5.450
 6183SOL    HW118923   3.752   0.980   5.504
 6183SOL    HW218924   3.914   0.983   5.492
 6184SOL     OW18925   4.396   0.203   5.213
 6184SOL    HW118926   4.486   0.187   5.173
 6184SOL    HW218927   4.404   0.208   5.312
 6185SOL     OW18928   3.799   0.345   3.757
 6185SOL    HW118929   3.707   0.317   3.728
 6185SOL    HW218930   3.830   0.422   3.701
 6186SOL     OW18931   3.796   0.166   4.042
 6186SOL    HW118932   3.779   0.249   3.988
 6186SOL    HW218933   3.886   0.129   4.020
 6187SOL     OW18934   4.337   0.842   5.155
 6187SOL    HW118935   4.393   0.923   5.138
 6187SOL    HW218936   4.396   0.762   5.158
 6188SOL     OW18937   4.440   0.565   5.432
 6188SOL    HW118938   4.459   0.630   5.506
 6188SOL    HW218939   4.500   0.485   5.441
 6189SOL     OW18940   4.114   1.741   5.284
 6189SOL    HW118941   4.023   1.782   5.282
 6189SOL    HW218942   4.107   1.647   5.316
 6190SOL     OW18943   4.318   0.745   4.376
 6190SOL    HW118944   4.368   0.830   4.357
 6190SOL    HW218945   4.230   0.747   4.328
 6191SOL     OW18946   3.945   1.314   5.568
 6191SOL    HW118947   3.880   1.241   5.547
 6191SOL    HW218948   3.949   1.328   5.666
 6192SOL     OW18949   3.803   1.240   4.377
 6192SOL    HW118950   3.802   1.193   4.465
 6192SOL    HW218951   3.885   1.212   4.326
 6193SOL     OW18952   4.396   1.391   5.348
 6193SOL    HW118953   4.318   1.341   5.386
 6193SOL    HW218954   4.393   1.486   5.379
 6194SOL     OW18955   4.152   0.424   4.244
 6194SOL    HW118956   4.182   0.352   4.182
 6194SOL    HW218957   4.113   0.384   4.327
 6195SOL     OW18958   4.041   0.547   5.004
 6195SOL    HW118959   4.079   0.488   5.076
 6195SOL    HW218960   4.081   0.521   4.916
 6196SOL     OW18961   4.536   1.586   4.411
 6196SOL    HW118962   4.568   1.596   4.317
 6196SOL    HW218963   4.457   1.524   4.413
 6197SOL     OW18964   3.763   1.077   4.024
 6197SOL    HW118965   3.862   1.066   4.015
 6197SOL    HW218966   3.723   0.991   4.056
 6198SOL     OW18967   3.954   0.628   5.699
 6198SOL    HW118968   3.861   0.626   5.736
 6198SOL    HW218969   3.955   0.589   5.607
 6199SOL     OW18970   3.949   0.275   6.582
 6199SOL    HW118971   3.984   0.258   6.674
 6199SOL    HW218972   3.861   0.230   6.570
 6200SOL     OW18973   3.743   0.368   6.233
 6200SOL    HW118974   3.661   0.411   6.272
 6200SOL    HW218975   3.715   0.295   6.170
 6201SOL     OW18976   4.293   1.275   6.751
 6201SOL    HW118977   4.200   1.268   6.714
 6201SOL    HW218978   4.304   1.364   6.795
 6202SOL     OW18979   4.574   0.798   7.409
 6202SOL    HW118980   4.570   0.874   7.474
 6202SOL    HW218981   4.596   0.834   7.318
 6203SOL     OW18982   4.409   1.012   6.251
 6203SOL    HW118983   4.478   0.996   6.321
 6203SOL    HW218984   4.336   1.069   6.289
 6204SOL     OW18985   4.410   1.161   7.389
 6204SOL    HW118986   4.470   1.240   7.403
 6204SOL    HW218987   4.324   1.192   7.348
 6205SOL     OW18988   4.059   1.435   6.647
 6205SOL    HW118989   3.981   1.404   6.594
 6205SOL    HW218990   4.117   1.493   6.590
 6206SOL     OW18991   4.162   0.392   7.085
 6206SOL    HW118992   4.244   0.336   7.094
 6206SOL    HW218993   4.081   0.334   7.089
 6207SOL     OW18994   3.955   1.713   6.069
 6207SOL    HW118995   3.989   1.790   6.123
 6207SOL    HW218996   3.999   1.713   5.979
 6208SOL     OW18997   3.954   1.434   6.124
 6208SOL    HW118998   3.928   1.530   6.124
 6208SOL    HW218999   3.883   1.380   6.169
 6209SOL     OW19000   3.964   1.091   6.472
 6209SOL    HW119001   3.978   1.007   6.524
 6209SOL    HW219002   3.909   1.155   6.527
 6210SOL     OW19003   4.344   1.786   7.025
 6210SOL    HW119004   4.252   1.769   7.060
 6210SOL    HW219005   4.372   1.878   7.051
 6211SOL     OW19006   4.330   0.964   5.709
 6211SOL    HW119007   4.337   1.048   5.655
 6211SOL    HW219008   4.376   0.977   5.797
 6212SOL     OW19009   3.846   0.643   6.149
 6212SOL    HW119010   3.801   0.555   6.166
 6212SOL    HW219011   3.845   0.697   6.233
 6213SOL     OW19012   3.751   1.596   5.703
 6213SOL    HW119013   3.732   1.500   5.724
 6213SOL    HW219014   3.718   1.654   5.778
 6214SOL     OW19015   3.837   0.737   7.183
 6214SOL    HW119016   3.925   0.724   7.228
 6214SOL    HW219017   3.824   0.834   7.161
 6215SOL     OW19018   4.337   1.365   6.312
 6215SOL    HW119019   4.288   1.278   6.321
 6215SOL    HW219020   4.314   1.408   6.225
 6216SOL     OW19021   4.533   0.004   6.088
 6216SOL    HW119022   4.573   0.095   6.079
 6216SOL    HW219023   4.433   0.012   6.094
 6217SOL     OW19024   3.921   0.976   6.850
 6217SOL    HW119025   4.010   0.931   6.836
 6217SOL    HW219026   3.848   0.911   6.831
 6218SOL     OW19027   4.041   0.251   7.387
 6218SOL    HW119028   4.112   0.322   7.393
 6218SOL    HW219029   3.953   0.290   7.415
 6219SOL     OW19030   4.322   0.729   5.856
 6219SOL    HW119031   4.346   0.798   5.788
 6219SOL    HW219032   4.244   0.762   5.910
 6220SOL     OW19033   3.800   0.811   6.375
 6220SOL    HW119034   3.899   0.799   6.384
 6220SOL    HW219035   3.776   0.906   6.396
 6221SOL     OW19036   3.854   1.821   7.157
 6221SOL    HW119037   3.844   1.806   7.256
 6221SOL    HW219038   3.768   1.857   7.121
 6222SOL     OW19039   4.274   0.196   6.471
 6222SOL    HW119040   4.269   0.191   6.571
 6222SOL    HW219041   4.276   0.292   6.442
 6223SOL     OW19042   4.075   1.801   6.439
 6223SOL    HW119043   4.125   1.715   6.445
 6223SOL    HW219044   4.140   1.878   6.436
 6224SOL     OW19045   4.045   0.943   5.828
 6224SOL    HW119046   4.127   0.982   5.786
 6224SOL    HW219047   4.018   0.861   5.779
 6225SOL     OW19048   4.185   1.266   7.313
 6225SOL    HW119049   4.135   1.267   7.227
 6225SOL    HW219050   4.122   1.248   7.389
 6226SOL     OW19051   3.926   0.285   7.084
 6226SOL    HW119052   3.846   0.345   7.071
 6226SOL    HW219053   3.916   0.236   7.170
 6227SOL     OW19054   4.188   1.743   5.909
 6227SOL    HW119055   4.221   1.782   5.995
 6227SOL    HW219056   4.264   1.736   5.844
 6228SOL     OW19057   3.973   1.785   6.827
 6228SOL    HW119058   4.030   1.720   6.877
 6228SOL    HW219059   3.957   1.752   6.734
 6229SOL     OW19060   4.106   0.700   6.066
 6229SOL    HW119061   4.151   0.610   6.063
 6229SOL    HW219062   4.012   0.689   6.099
 6230SOL     OW19063   4.338   0.122   5.703
 6230SOL    HW119064   4.436   0.100   5.710
 6230SOL    HW219065   4.307   0.105   5.610
 6231SOL     OW19066   4.527   1.402   6.510
 6231SOL    HW119067   4.617   1.416   6.468
 6231SOL    HW219068   4.456   1.404   6.439
 6232SOL     OW19069   4.263   0.064   6.098
 6232SOL    HW119070   4.182   0.065   6.156
 6232SOL    HW219071   4.266   0.147   6.043
 6233SOL     OW19072   4.021   0.035   5.757
 6233SOL    HW119073   4.070   0.119   5.736
 6233SOL    HW219074   4.083  -0.030   5.802
 6234SOL     OW19075   4.800   0.683   7.050
 6234SOL    HW119076   4.720   0.622   7.053
 6234SOL    HW219077   4.881   0.630   7.026
 6235SOL     OW19078   4.183   1.152   6.327
 6235SOL    HW119079   4.112   1.125   6.392
 6235SOL    HW219080   4.157   1.124   6.234
 6236SOL     OW19081   3.802   0.556   6.972
 6236SOL    HW119082   3.894   0.555   6.931
 6236SOL    HW219083   3.796   0.630   7.039
 6237SOL     OW19084   4.285   0.222   6.733
 6237SOL    HW119085   4.323   0.138   6.770
 6237SOL    HW219086   4.197   0.241   6.777
 6238SOL     OW19087   4.212   1.385   5.760
 6238SOL    HW119088   4.125   1.370   5.807
 6238SOL    HW219089   4.195   1.411   5.665
 6239SOL     OW19090   4.251   0.256   5.914
 6239SOL    HW119091   4.278   0.197   5.839
 6239SOL    HW219092   4.251   0.351   5.883
 6240SOL     OW19093   4.134   0.813   6.837
 6240SOL    HW119094   4.220   0.825   6.887
 6240SOL    HW219095   4.092   0.726   6.864
 6241SOL     OW19096   3.788   1.564   6.917
 6241SOL    HW119097   3.742   1.646   6.883
 6241SOL    HW219098   3.886   1.583   6.926
 6242SOL     OW19099   4.091   1.100   6.087
 6242SOL    HW119100   4.084   1.183   6.031
 6242SOL    HW219101   4.095   1.020   6.027
 6243SOL     OW19102   4.290   0.537   6.451
 6243SOL    HW119103   4.302   0.603   6.377
 6243SOL    HW219104   4.336   0.571   6.534
 6244SOL     OW19105   4.078   1.510   6.915
 6244SOL    HW119106   4.057   1.466   6.828
 6244SOL    HW219107   4.175   1.536   6.918
 6245SOL     OW19108   4.126   0.751   7.184
 6245SOL    HW119109   4.194   0.806   7.137
 6245SOL    HW219110   4.166   0.663   7.211
 6246SOL     OW19111   4.228   0.050   7.326
 6246SOL    HW119112   4.186  -0.007   7.256
 6246SOL    HW219113   4.162   0.119   7.358
 6247SOL     OW19114   4.297   0.870   6.615
 6247SOL    HW119115   4.341   0.959   6.606
 6247SOL    HW219116   4.234   0.870   6.692
 6248SOL     OW19117   4.031   0.213   6.817
 6248SOL    HW119118   4.008   0.250   6.907
 6248SOL    HW219119   4.001   0.118   6.811
 6249SOL     OW19120   3.761   1.310   6.868
 6249SOL    HW119121   3.814   1.261   6.936
 6249SOL    HW219122   3.783   1.408   6.873
 6250SOL     OW19123   4.031   0.063   6.204
 6250SOL    HW119124   4.020   0.157   6.237
 6250SOL    HW219125   4.026   0.000   6.281
 6251SOL     OW19126   4.074   0.898   7.390
 6251SOL    HW119127   4.150   0.942   7.438
 6251SOL    HW219128   4.109   0.851   7.308
 6252SOL     OW19129   4.043   0.810   6.535
 6252SOL    HW119130   4.136   0.846   6.540
 6252SOL    HW219131   4.037   0.725   6.587
 6253SOL     OW19132   4.063   0.509   6.592
 6253SOL    HW119133   4.011   0.426   6.575
 6253SOL    HW219134   4.140   0.514   6.528
 6254SOL     OW19135   3.732   1.326   5.786
 6254SOL    HW119136   3.639   1.347   5.755
 6254SOL    HW219137   3.742   1.227   5.799
 6255SOL     OW19138   3.812   1.801   6.513
 6255SOL    HW119139   3.770   1.715   6.486
 6255SOL    HW219140   3.906   1.804   6.479
 6256SOL     OW19141   4.228   1.568   6.496
 6256SOL    HW119142   4.294   1.642   6.505
 6256SOL    HW219143   4.272   1.489   6.454
 6257SOL     OW19144   3.764   0.544   6.700
 6257SOL    HW119145   3.849   0.511   6.659
 6257SOL    HW219146   3.777   0.559   6.798
 6258SOL     OW19147   3.913   0.520   7.308
 6258SOL    HW119148   3.972   0.480   7.238
 6258SOL    HW219149   3.855   0.591   7.267
 6259SOL     OW19150   4.539   0.572   5.911
 6259SOL    HW119151   4.546   0.483   5.865
 6259SOL    HW219152   4.445   0.606   5.903
 6260SOL     OW19153   3.976   1.564   7.330
 6260SOL    HW119154   3.946   1.621   7.406
 6260SOL    HW219155   3.969   1.467   7.356
 6261SOL     OW19156   4.197   0.500   5.777
 6261SOL    HW119157   4.258   0.580   5.781
 6261SOL    HW219158   4.102   0.531   5.784
 6262SOL     OW19159   3.883   1.137   7.052
 6262SOL    HW119160   3.905   1.076   7.128
 6262SOL    HW219161   3.893   1.088   6.966
 6263SOL     OW19162   3.807   1.258   6.608
 6263SOL    HW119163   3.802   1.257   6.708
 6263SOL    HW219164   3.724   1.217   6.570
 6264SOL     OW19165   4.412   1.662   7.302
 6264SOL    HW119166   4.356   1.743   7.311
 6264SOL    HW219167   4.464   1.666   7.216
 6265SOL     OW19168   3.854   1.794   7.437
 6265SOL    HW119169   3.813   1.720   7.490
 6265SOL    HW219170   3.918   1.845   7.495
 6266SOL     OW19171   3.987   0.326   6.306
 6266SOL    HW119172   3.908   0.377   6.272
 6266SOL    HW219173   3.978   0.311   6.404
 6267SOL     OW19174   4.096   1.288   7.076
 6267SOL    HW119175   4.083   1.381   7.042
 6267SOL    HW219176   4.012   1.236   7.063
 6268SOL     OW19177   4.314   1.487   6.077
 6268SOL    HW119178   4.356   1.429   6.007
 6268SOL    HW219179   4.270   1.566   6.033
 6269SOL     OW19180   3.979   1.348   5.876
 6269SOL    HW119181   3.883   1.349   5.849
 6269SOL    HW219182   3.991   1.401   5.960
 6270SOL     OW19183   3.829   1.013   7.312
 6270SOL    HW119184   3.752   0.980   7.366
 6270SOL    HW219185   3.914   0.983   7.354
 6271SOL     OW19186   4.396   0.203   7.075
 6271SOL    HW119187   4.486   0.187   7.035
 6271SOL    HW219188   4.404   0.208   7.174
 6272SOL     OW19189   3.799   0.345   5.619
 6272SOL    HW119190   3.707   0.317   5.590
 6272SOL    HW219191   3.830   0.422   5.563
 6273SOL     OW19192   3.796   0.166   5.904
 6273SOL    HW119193   3.779   0.249   5.850
 6273SOL    HW219194   3.886   0.129   5.882
 6274SOL     OW19195   4.337   0.842   7.017
 6274SOL    HW119196   4.393   0.923   7.000
 6274SOL    HW219197   4.396   0.762   7.020
 6275SOL     OW19198   4.440   0.565   7.294
 6275SOL    HW119199   4.459   0.630   7.368
 6275SOL    HW219200   4.500   0.485   7.303
 6276SOL     OW19201   4.114   1.741   7.146
 6276SOL    HW119202   4.023   1.782   7.144
 6276SOL    HW219203   4.107   1.647   7.178
 6277SOL     OW19204   4.318   0.745   6.238
 6277SOL    HW119205   4.368   0.830   6.219
 6277SOL    HW219206   4.230   0.747   6.190
 6278SOL     OW19207   3.945   1.314   7.430
 6278SOL    HW119208   3.880   1.241   7.409
 6278SOL    HW219209   3.949   1.328   7.528
 6279SOL     OW19210   3.803   1.240   6.239
 6279SOL    HW119211   3.802   1.193   6.327
 6279SOL    HW219212   3.885   1.212   6.188
 6280SOL     OW19213   4.396   1.391   7.210
 6280SOL    HW119214   4.318   1.341   7.248
 6280SOL    HW219215   4.393   1.486   7.241
 6281SOL     OW19216   4.152   0.424   6.106
 6281SOL    HW119217   4.182   0.352   6.044
 6281SOL    HW219218   4.113   0.384   6.189
 6282SOL     OW19219   4.041   0.547   6.866
 6282SOL    HW119220   4.079   0.488   6.938
 6282SOL    HW219221   4.081   0.521   6.778
 6283SOL     OW19222   4.536   1.586   6.273
 6283SOL    HW119223   4.568   1.596   6.179
 6283SOL    HW219224   4.457   1.524   6.275
 6284SOL     OW19225   3.763   1.077   5.886
 6284SOL    HW119226   3.862   1.066   5.877
 6284SOL    HW219227   3.723   0.991   5.918
 6285SOL     OW19228   3.954   0.628   7.561
 6285SOL    HW119229   3.861   0.626   7.598
 6285SOL    HW219230   3.955   0.589   7.469
 6286SOL     OW19231   3.949   0.275   8.444
 6286SOL    HW119232   3.984   0.258   8.536
 6286SOL    HW219233   3.861   0.230   8.432
 6287SOL     OW19234   3.743   0.368   8.095
 6287SOL    HW119235   3.661   0.411   8.134
 6287SOL    HW219236   3.715   0.295   8.032
 6288SOL     OW19237   4.293   1.275   8.613
 6288SOL    HW119238   4.200   1.268   8.576
 6288SOL    HW219239   4.304   1.364   8.657
 6289SOL     OW19240   4.574   0.798   9.271
 6289SOL    HW119241   4.570   0.874   9.336
 6289SOL    HW219242   4.596   0.834   9.180
 6290SOL     OW19243   4.409   1.012   8.113
 6290SOL    HW119244   4.478   0.996   8.183
 6290SOL    HW219245   4.336   1.069   8.151
 6291SOL     OW19246   4.410   1.161   9.251
 6291SOL    HW119247   4.470   1.240   9.265
 6291SOL    HW219248   4.324   1.192   9.210
 6292SOL     OW19249   4.059   1.435   8.509
 6292SOL    HW119250   3.981   1.404   8.456
 6292SOL    HW219251   4.117   1.493   8.452
 6293SOL     OW19252   4.162   0.392   8.947
 6293SOL    HW119253   4.244   0.336   8.956
 6293SOL    HW219254   4.081   0.334   8.951
 6294SOL     OW19255   3.955   1.713   7.931
 6294SOL    HW119256   3.989   1.790   7.985
 6294SOL    HW219257   3.999   1.713   7.841
 6295SOL     OW19258   3.954   1.434   7.986
 6295SOL    HW119259   3.928   1.530   7.986
 6295SOL    HW219260   3.883   1.380   8.031
 6296SOL     OW19261   3.964   1.091   8.334
 6296SOL    HW119262   3.978   1.007   8.386
 6296SOL    HW219263   3.909   1.155   8.389
 6297SOL     OW19264   4.344   1.786   8.887
 6297SOL    HW119265   4.252   1.769   8.922
 6297SOL    HW219266   4.372   1.878   8.913
 6298SOL     OW19267   4.330   0.964   7.571
 6298SOL    HW119268   4.337   1.048   7.517
 6298SOL    HW219269   4.376   0.977   7.659
 6299SOL     OW19270   3.846   0.643   8.011
 6299SOL    HW119271   3.801   0.555   8.028
 6299SOL    HW219272   3.845   0.697   8.095
 6300SOL     OW19273   3.751   1.596   7.565
 6300SOL    HW119274   3.732   1.500   7.586
 6300SOL    HW219275   3.718   1.654   7.640
 6301SOL     OW19276   3.837   0.737   9.045
 6301SOL    HW119277   3.925   0.724   9.090
 6301SOL    HW219278   3.824   0.834   9.023
 6302SOL     OW19279   4.337   1.365   8.174
 6302SOL    HW119280   4.288   1.278   8.183
 6302SOL    HW219281   4.314   1.408   8.087
 6303SOL     OW19282   4.533   0.004   7.950
 6303SOL    HW119283   4.573   0.095   7.941
 6303SOL    HW219284   4.433   0.012   7.956
 6304SOL     OW19285   3.921   0.976   8.712
 6304SOL    HW119286   4.010   0.931   8.698
 6304SOL    HW219287   3.848   0.911   8.693
 6305SOL     OW19288   4.041   0.251   9.249
 6305SOL    HW119289   4.112   0.322   9.255
 6305SOL    HW219290   3.953   0.290   9.277
 6306SOL     OW19291   4.322   0.729   7.718
 6306SOL    HW119292   4.346   0.798   7.650
 6306SOL    HW219293   4.244   0.762   7.772
 6307SOL     OW19294   3.800   0.811   8.237
 6307SOL    HW119295   3.899   0.799   8.246
 6307SOL    HW219296   3.776   0.906   8.258
 6308SOL     OW19297   3.854   1.821   9.019
 6308SOL    HW119298   3.844   1.806   9.118
 6308SOL    HW219299   3.768   1.857   8.983
 6309SOL     OW19300   4.274   0.196   8.333
 6309SOL    HW119301   4.269   0.191   8.433
 6309SOL    HW219302   4.276   0.292   8.304
 6310SOL     OW19303   4.075   1.801   8.301
 6310SOL    HW119304   4.125   1.715   8.307
 6310SOL    HW219305   4.140   1.878   8.298
 6311SOL     OW19306   4.045   0.943   7.690
 6311SOL    HW119307   4.127   0.982   7.648
 6311SOL    HW219308   4.018   0.861   7.641
 6312SOL     OW19309   4.185   1.266   9.175
 6312SOL    HW119310   4.135   1.267   9.089
 6312SOL    HW219311   4.122   1.248   9.251
 6313SOL     OW19312   3.926   0.285   8.946
 6313SOL    HW119313   3.846   0.345   8.933
 6313SOL    HW219314   3.916   0.236   9.032
 6314SOL     OW19315   4.188   1.743   7.771
 6314SOL    HW119316   4.221   1.782   7.857
 6314SOL    HW219317   4.264   1.736   7.706
 6315SOL     OW19318   3.973   1.785   8.689
 6315SOL    HW119319   4.030   1.720   8.739
 6315SOL    HW219320   3.957   1.752   8.596
 6316SOL     OW19321   4.106   0.700   7.928
 6316SOL    HW119322   4.151   0.610   7.925
 6316SOL    HW219323   4.012   0.689   7.961
 6317SOL     OW19324   4.338   0.122   7.565
 6317SOL    HW119325   4.436   0.100   7.572
 6317SOL    HW219326   4.307   0.105   7.472
 6318SOL     OW19327   4.527   1.402   8.372
 6318SOL    HW119328   4.617   1.416   8.330
 6318SOL    HW219329   4.456   1.404   8.301
 6319SOL     OW19330   4.263   0.064   7.960
 6319SOL    HW119331   4.182   0.065   8.018
 6319SOL    HW219332   4.266   0.147   7.905
 6320SOL     OW19333   4.021   0.035   7.619
 6320SOL    HW119334   4.070   0.119   7.598
 6320SOL    HW219335   4.083  -0.030   7.664
 6321SOL     OW19336   4.800   0.683   8.912
 6321SOL    HW119337   4.720   0.622   8.915
 6321SOL    HW219338   4.881   0.630   8.888
 6322SOL     OW19339   4.183   1.152   8.189
 6322SOL    HW119340   4.112   1.125   8.254
 6322SOL    HW219341   4.157   1.124   8.096
 6323SOL     OW19342   3.802   0.556   8.834
 6323SOL    HW119343   3.894   0.555   8.793
 6323SOL    HW219344   3.796   0.630   8.901
 6324SOL     OW19345   4.285   0.222   8.595
 6324SOL    HW119346   4.323   0.138   8.632
 6324SOL    HW219347   4.197   0.241   8.639
 6325SOL     OW19348   4.212   1.385   7.622
 6325SOL    HW119349   4.125   1.370   7.669
 6325SOL    HW219350   4.195   1.411   7.527
 6326SOL     OW19351   4.251   0.256   7.776
 6326SOL    HW119352   4.278   0.197   7.701
 6326SOL    HW219353   4.251   0.351   7.745
 6327SOL     OW19354   4.134   0.813   8.699
 6327SOL    HW119355   4.220   0.825   8.749
 6327SOL    HW219356   4.092   0.726   8.726
 6328SOL     OW19357   3.788   1.564   8.779
 6328SOL    HW119358   3.742   1.646   8.745
 6328SOL    HW219359   3.886   1.583   8.788
 6329SOL     OW19360   4.091   1.100   7.949
 6329SOL    HW119361   4.084   1.183   7.893
 6329SOL    HW219362   4.095   1.020   7.889
 6330SOL     OW19363   4.290   0.537   8.313
 6330SOL    HW119364   4.302   0.603   8.239
 6330SOL    HW219365   4.336   0.571   8.396
 6331SOL     OW19366   4.078   1.510   8.777
 6331SOL    HW119367   4.057   1.466   8.690
 6331SOL    HW219368   4.175   1.536   8.780
 6332SOL     OW19369   4.126   0.751   9.046
 6332SOL    HW119370   4.194   0.806   8.999
 6332SOL    HW219371   4.166   0.663   9.073
 6333SOL     OW19372   4.228   0.050   9.188
 6333SOL    HW119373   4.186  -0.007   9.118
 6333SOL    HW219374   4.162   0.119   9.220
 6334SOL     OW19375   4.297   0.870   8.477
 6334SOL    HW119376   4.341   0.959   8.468
 6334SOL    HW219377   4.234   0.870   8.554
 6335SOL     OW19378   4.031   0.213   8.679
 6335SOL    HW119379   4.008   0.250   8.769
 6335SOL    HW219380   4.001   0.118   8.673
 6336SOL     OW19381   3.761   1.310   8.730
 6336SOL    HW119382   3.814   1.261   8.798
 6336SOL    HW219383   3.783   1.408   8.735
 6337SOL     OW19384   4.031   0.063   8.066
 6337SOL    HW119385   4.020   0.157   8.099
 6337SOL    HW219386   4.026   0.000   8.143
 6338SOL     OW19387   4.074   0.898   9.252
 6338SOL    HW119388   4.150   0.942   9.300
 6338SOL    HW219389   4.109   0.851   9.170
 6339SOL     OW19390   4.043   0.810   8.397
 6339SOL    HW119391   4.136   0.846   8.402
 6339SOL    HW219392   4.037   0.725   8.449
 6340SOL     OW19393   4.063   0.509   8.454
 6340SOL    HW119394   4.011   0.426   8.437
 6340SOL    HW219395   4.140   0.514   8.390
 6341SOL     OW19396   3.732   1.326   7.648
 6341SOL    HW119397   3.639   1.347   7.617
 6341SOL    HW219398   3.742   1.227   7.661
 6342SOL     OW19399   3.812   1.801   8.375
 6342SOL    HW119400   3.770   1.715   8.348
 6342SOL    HW219401   3.906   1.804   8.341
 6343SOL     OW19402   4.228   1.568   8.358
 6343SOL    HW119403   4.294   1.642   8.367
 6343SOL    HW219404   4.272   1.489   8.316
 6344SOL     OW19405   3.764   0.544   8.562
 6344SOL    HW119406   3.849   0.511   8.521
 6344SOL    HW219407   3.777   0.559   8.660
 6345SOL     OW19408   3.913   0.520   9.170
 6345SOL    HW119409   3.972   0.480   9.100
 6345SOL    HW219410   3.855   0.591   9.129
 6346SOL     OW19411   4.539   0.572   7.773
 6346SOL    HW119412   4.546   0.483   7.727
 6346SOL    HW219413   4.445   0.606   7.765
 6347SOL     OW19414   3.976   1.564   9.192
 6347SOL    HW119415   3.946   1.621   9.268
 6347SOL    HW219416   3.969   1.467   9.218
 6348SOL     OW19417   4.197   0.500   7.639
 6348SOL    HW119418   4.258   0.580   7.643
 6348SOL    HW219419   4.102   0.531   7.646
 6349SOL     OW19420   3.883   1.137   8.914
 6349SOL    HW119421   3.905   1.076   8.990
 6349SOL    HW219422   3.893   1.088   8.828
 6350SOL     OW19423   3.807   1.258   8.470
 6350SOL    HW119424   3.802   1.257   8.570
 6350SOL    HW219425   3.724   1.217   8.432
 6351SOL     OW19426   4.412   1.662   9.164
 6351SOL    HW119427   4.356   1.743   9.173
 6351SOL    HW219428   4.464   1.666   9.078
 6352SOL     OW19429   3.854   1.794   9.299
 6352SOL    HW119430   3.813   1.720   9.352
 6352SOL    HW219431   3.918   1.845   9.357
 6353SOL     OW19432   3.987   0.326   8.168
 6353SOL    HW119433   3.908   0.377   8.134
 6353SOL    HW219434   3.978   0.311   8.266
 6354SOL     OW19435   4.096   1.288   8.938
 6354SOL    HW119436   4.083   1.381   8.904
 6354SOL    HW219437   4.012   1.236   8.925
 6355SOL     OW19438   4.314   1.487   7.939
 6355SOL    HW119439   4.356   1.429   7.869
 6355SOL    HW219440   4.270   1.566   7.895
 6356SOL     OW19441   3.979   1.348   7.738
 6356SOL    HW119442   3.883   1.349   7.711
 6356SOL    HW219443   3.991   1.401   7.822
 6357SOL     OW19444   3.829   1.013   9.174
 6357SOL    HW119445   3.752   0.980   9.228
 6357SOL    HW219446   3.914   0.983   9.216
 6358SOL     OW19447   4.396   0.203   8.937
 6358SOL    HW119448   4.486   0.187   8.897
 6358SOL    HW219449   4.404   0.208   9.036
 6359SOL     OW19450   3.799   0.345   7.481
 6359SOL    HW119451   3.707   0.317   7.452
 6359SOL    HW219452   3.830   0.422   7.425
 6360SOL     OW19453   3.796   0.166   7.766
 6360SOL    HW119454   3.779   0.249   7.712
 6360SOL    HW219455   3.886   0.129   7.744
 6361SOL     OW19456   4.337   0.842   8.879
 6361SOL    HW119457   4.393   0.923   8.862
 6361SOL    HW219458   4.396   0.762   8.882
 6362SOL     OW19459   4.440   0.565   9.156
 6362SOL    HW119460   4.459   0.630   9.230
 6362SOL    HW219461   4.500   0.485   9.165
 6363SOL     OW19462   4.114   1.741   9.008
 6363SOL    HW119463   4.023   1.782   9.006
 6363SOL    HW219464   4.107   1.647   9.040
 6364SOL     OW19465   4.318   0.745   8.100
 6364SOL    HW119466   4.368   0.830   8.081
 6364SOL    HW219467   4.230   0.747   8.052
 6365SOL     OW19468   3.945   1.314   9.292
 6365SOL    HW119469   3.880   1.241   9.271
 6365SOL    HW219470   3.949   1.328   9.390
 6366SOL     OW19471   3.803   1.240   8.101
 6366SOL    HW119472   3.802   1.193   8.189
 6366SOL    HW219473   3.885   1.212   8.050
 6367SOL     OW19474   4.396   1.391   9.072
 6367SOL    HW119475   4.318   1.341   9.110
 6367SOL    HW219476   4.393   1.486   9.103
 6368SOL     OW19477   4.152   0.424   7.968
 6368SOL    HW119478   4.182   0.352   7.906
 6368SOL    HW219479   4.113   0.384   8.051
 6369SOL     OW19480   4.041   0.547   8.728
 6369SOL    HW119481   4.079   0.488   8.800
 6369SOL    HW219482   4.081   0.521   8.640
 6370SOL     OW19483   4.536   1.586   8.135
 6370SOL    HW119484   4.568   1.596   8.041
 6370SOL    HW219485   4.457   1.524   8.137
 6371SOL     OW19486   3.763   1.077   7.748
 6371SOL    HW119487   3.862   1.066   7.739
 6371SOL    HW219488   3.723   0.991   7.780
 6372SOL     OW19489   3.954   0.628   9.423
 6372SOL    HW119490   3.861   0.626   9.460
 6372SOL    HW219491   3.955   0.589   9.331
 6373SOL     OW19492   3.949   0.275  10.306
 6373SOL    HW119493   3.984   0.258  10.398
 6373SOL    HW219494   3.861   0.230  10.294
 6374SOL     OW19495   3.743   0.368   9.957
 6374SOL    HW119496   3.661   0.411   9.996
 6374SOL    HW219497   3.715   0.295   9.894
 6375SOL     OW19498   4.293   1.275  10.475
 6375SOL    HW119499   4.200   1.268  10.438
 6375SOL    HW219500   4.304   1.364  10.519
 6376SOL     OW19501   4.574   0.798  11.133
 6376SOL    HW119502   4.570   0.874  11.198
 6376SOL    HW219503   4.596   0.834  11.042
 6377SOL     OW19504   4.409   1.012   9.975
 6377SOL    HW119505   4.478   0.996  10.045
 6377SOL    HW219506   4.336   1.069  10.013
 6378SOL     OW19507   4.059   1.435  10.371
 6378SOL    HW119508   3.981   1.404  10.318
 6378SOL    HW219509   4.117   1.493  10.314
 6379SOL     OW19510   4.162   0.392  10.809
 6379SOL    HW119511   4.244   0.336  10.818
 6379SOL    HW219512   4.081   0.334  10.813
 6380SOL     OW19513   3.955   1.713   9.793
 6380SOL    HW119514   3.989   1.790   9.847
 6380SOL    HW219515   3.999   1.713   9.703
 6381SOL     OW19516   3.954   1.434   9.848
 6381SOL    HW119517   3.928   1.530   9.848
 6381SOL    HW219518   3.883   1.380   9.893
 6382SOL     OW19519   3.964   1.091  10.196
 6382SOL    HW119520   3.978   1.007  10.248
 6382SOL    HW219521   3.909   1.155  10.251
 6383SOL     OW19522   4.344   1.786  10.749
 6383SOL    HW119523   4.252   1.769  10.784
 6383SOL    HW219524   4.372   1.878  10.775
 6384SOL     OW19525   4.330   0.964   9.433
 6384SOL    HW119526   4.337   1.048   9.379
 6384SOL    HW219527   4.376   0.977   9.521
 6385SOL     OW19528   3.846   0.643   9.873
 6385SOL    HW119529   3.801   0.555   9.890
 6385SOL    HW219530   3.845   0.697   9.957
 6386SOL     OW19531   3.751   1.596   9.427
 6386SOL    HW119532   3.732   1.500   9.448
 6386SOL    HW219533   3.718   1.654   9.502
 6387SOL     OW19534   3.837   0.737  10.907
 6387SOL    HW119535   3.925   0.724  10.952
 6387SOL    HW219536   3.824   0.834  10.885
 6388SOL     OW19537   4.337   1.365  10.036
 6388SOL    HW119538   4.288   1.278  10.045
 6388SOL    HW219539   4.314   1.408   9.949
 6389SOL     OW19540   4.533   0.004   9.812
 6389SOL    HW119541   4.573   0.095   9.803
 6389SOL    HW219542   4.433   0.012   9.818
 6390SOL     OW19543   3.921   0.976  10.574
 6390SOL    HW119544   4.010   0.931  10.560
 6390SOL    HW219545   3.848   0.911  10.555
 6391SOL     OW19546   4.041   0.251  11.111
 6391SOL    HW119547   4.112   0.322  11.117
 6391SOL    HW219548   3.953   0.290  11.139
 6392SOL     OW19549   4.322   0.729   9.580
 6392SOL    HW119550   4.346   0.798   9.512
 6392SOL    HW219551   4.244   0.762   9.634
 6393SOL     OW19552   3.800   0.811  10.099
 6393SOL    HW119553   3.899   0.799  10.108
 6393SOL    HW219554   3.776   0.906  10.120
 6394SOL     OW19555   3.854   1.821  10.881
 6394SOL    HW119556   3.844   1.806  10.980
 6394SOL    HW219557   3.768   1.857  10.845
 6395SOL     OW19558   4.274   0.196  10.195
 6395SOL    HW119559   4.269   0.191  10.295
 6395SOL    HW219560   4.276   0.292  10.166
 6396SOL     OW19561   4.075   1.801  10.163
 6396SOL    HW119562   4.125   1.715  10.169
 6396SOL    HW219563   4.140   1.878  10.160
 6397SOL     OW19564   4.045   0.943   9.552
 6397SOL    HW119565   4.127   0.982   9.510
 6397SOL    HW219566   4.018   0.861   9.503
 6398SOL     OW19567   4.185   1.266  11.037
 6398SOL    HW119568   4.135   1.267  10.951
 6398SOL    HW219569   4.122   1.248  11.113
 6399SOL     OW19570   3.926   0.285  10.808
 6399SOL    HW119571   3.846   0.345  10.795
 6399SOL    HW219572   3.916   0.236  10.894
 6400SOL     OW19573   4.188   1.743   9.633
 6400SOL    HW119574   4.221   1.782   9.719
 6400SOL    HW219575   4.264   1.736   9.568
 6401SOL     OW19576   3.973   1.785  10.551
 6401SOL    HW119577   4.030   1.720  10.601
 6401SOL    HW219578   3.957   1.752  10.458
 6402SOL     OW19579   4.106   0.700   9.790
 6402SOL    HW119580   4.151   0.610   9.787
 6402SOL    HW219581   4.012   0.689   9.823
 6403SOL     OW19582   4.338   0.122   9.427
 6403SOL    HW119583   4.436   0.100   9.434
 6403SOL    HW219584   4.307   0.105   9.334
 6404SOL     OW19585   4.527   1.402  10.234
 6404SOL    HW119586   4.617   1.416  10.192
 6404SOL    HW219587   4.456   1.404  10.163
 6405SOL     OW19588   4.263   0.064   9.822
 6405SOL    HW119589   4.182   0.065   9.880
 6405SOL    HW219590   4.266   0.147   9.767
 6406SOL     OW19591   4.021   0.035   9.481
 6406SOL    HW119592   4.070   0.119   9.460
 6406SOL    HW219593   4.083  -0.030   9.526
 6407SOL     OW19594   4.800   0.683  10.774
 6407SOL    HW119595   4.720   0.622  10.777
 6407SOL    HW219596   4.881   0.630  10.750
 6408SOL     OW19597   4.183   1.152  10.051
 6408SOL    HW119598   4.112   1.125  10.116
 6408SOL    HW219599   4.157   1.124   9.958
 6409SOL     OW19600   3.802   0.556  10.696
 6409SOL    HW119601   3.894   0.555  10.655
 6409SOL    HW219602   3.796   0.630  10.763
 6410SOL     OW19603   4.285   0.222  10.457
 6410SOL    HW119604   4.323   0.138  10.494
 6410SOL    HW219605   4.197   0.241  10.501
 6411SOL     OW19606   4.212   1.385   9.484
 6411SOL    HW119607   4.125   1.370   9.531
 6411SOL    HW219608   4.195   1.411   9.389
 6412SOL     OW19609   4.251   0.256   9.638
 6412SOL    HW119610   4.278   0.197   9.563
 6412SOL    HW219611   4.251   0.351   9.607
 6413SOL     OW19612   4.134   0.813  10.561
 6413SOL    HW119613   4.220   0.825  10.611
 6413SOL    HW219614   4.092   0.726  10.588
 6414SOL     OW19615   3.788   1.564  10.641
 6414SOL    HW119616   3.742   1.646  10.607
 6414SOL    HW219617   3.886   1.583  10.650
 6415SOL     OW19618   4.091   1.100   9.811
 6415SOL    HW119619   4.084   1.183   9.755
 6415SOL    HW219620   4.095   1.020   9.751
 6416SOL     OW19621   4.290   0.537  10.175
 6416SOL    HW119622   4.302   0.603  10.101
 6416SOL    HW219623   4.336   0.571  10.258
 6417SOL     OW19624   4.078   1.510  10.639
 6417SOL    HW119625   4.057   1.466  10.552
 6417SOL    HW219626   4.175   1.536  10.642
 6418SOL     OW19627   4.126   0.751  10.908
 6418SOL    HW119628   4.194   0.806  10.861
 6418SOL    HW219629   4.166   0.663  10.935
 6419SOL     OW19630   4.297   0.870  10.339
 6419SOL    HW119631   4.341   0.959  10.330
 6419SOL    HW219632   4.234   0.870  10.416
 6420SOL     OW19633   4.031   0.213  10.541
 6420SOL    HW119634   4.008   0.250  10.631
 6420SOL    HW219635   4.001   0.118  10.535
 6421SOL     OW19636   3.761   1.310  10.592
 6421SOL    HW119637   3.814   1.261  10.660
 6421SOL    HW219638   3.783   1.408  10.597
 6422SOL     OW19639   4.031   0.063   9.928
 6422SOL    HW119640   4.020   0.157   9.961
 6422SOL    HW219641   4.026   0.000  10.005
 6423SOL     OW19642   4.074   0.898  11.114
 6423SOL    HW119643   4.150   0.942  11.162
 6423SOL    HW219644   4.109   0.851  11.032
 6424SOL     OW19645   4.043   0.810  10.259
 6424SOL    HW119646   4.136   0.846  10.264
 6424SOL    HW219647   4.037   0.725  10.311
 6425SOL     OW19648   4.063   0.509  10.316
 6425SOL    HW119649   4.011   0.426  10.299
 6425SOL    HW219650   4.140   0.514  10.252
 6426SOL     OW19651   3.732   1.326   9.510
 6426SOL    HW119652   3.639   1.347   9.479
 6426SOL    HW219653   3.742   1.227   9.523
 6427SOL     OW19654   3.812   1.801  10.237
 6427SOL    HW119655   3.770   1.715  10.210
 6427SOL    HW219656   3.906   1.804  10.203
 6428SOL     OW19657   4.228   1.568  10.220
 6428SOL    HW119658   4.294   1.642  10.229
 6428SOL    HW219659   4.272   1.489  10.178
 6429SOL     OW19660   3.764   0.544  10.424
 6429SOL    HW119661   3.849   0.511  10.383
 6429SOL    HW219662   3.777   0.559  10.522
 6430SOL     OW19663   4.539   0.572   9.635
 6430SOL    HW119664   4.546   0.483   9.589
 6430SOL    HW219665   4.445   0.606   9.627
 6431SOL     OW19666   3.976   1.564  11.054
 6431SOL    HW119667   3.946   1.621  11.130
 6431SOL    HW219668   3.969   1.467  11.080
 6432SOL     OW19669   4.197   0.500   9.501
 6432SOL    HW119670   4.258   0.580   9.505
 6432SOL    HW219671   4.102   0.531   9.508
 6433SOL     OW19672   3.883   1.137  10.776
 6433SOL    HW119673   3.905   1.076  10.852
 6433SOL    HW219674   3.893   1.088  10.690
 6434SOL     OW19675   3.807   1.258  10.332
 6434SOL    HW119676   3.802   1.257  10.432
 6434SOL    HW219677   3.724   1.217  10.294
 6435SOL     OW19678   4.412   1.662  11.026
 6435SOL    HW119679   4.356   1.743  11.035
 6435SOL    HW219680   4.464   1.666  10.940
 6436SOL     OW19681   3.987   0.326  10.030
 6436SOL    HW119682   3.908   0.377   9.996
 6436SOL    HW219683   3.978   0.311  10.128
 6437SOL     OW19684   4.096   1.288  10.800
 6437SOL    HW119685   4.083   1.381  10.766
 6437SOL    HW219686   4.012   1.236  10.787
 6438SOL     OW19687   4.314   1.487   9.801
 6438SOL    HW119688   4.356   1.429   9.731
 6438SOL    HW219689   4.270   1.566   9.757
 6439SOL     OW19690   3.979   1.348   9.600
 6439SOL    HW119691   3.883   1.349   9.573
 6439SOL    HW219692   3.991   1.401   9.684
 6440SOL     OW19693   3.829   1.013  11.036
 6440SOL    HW119694   3.752   0.980  11.090
 6440SOL    HW219695   3.914   0.983  11.078
 6441SOL     OW19696   4.396   0.203  10.799
 6441SOL    HW119697   4.486   0.187  10.759
 6441SOL    HW219698   4.404   0.208  10.898
 6442SOL     OW19699   3.799   0.345   9.343
 6442SOL    HW119700   3.707   0.317   9.314
 6442SOL    HW219701   3.830   0.422   9.287
 6443SOL     OW19702   3.796   0.166   9.628
 6443SOL    HW119703   3.779   0.249   9.574
 6443SOL    HW219704   3.886   0.129   9.606
 6444SOL     OW19705   4.337   0.842  10.741
 6444SOL    HW119706   4.393   0.923  10.724
 6444SOL    HW219707   4.396   0.762  10.744
 6445SOL     OW19708   4.114   1.741  10.870
 6445SOL    HW119709   4.023   1.782  10.868
 6445SOL    HW219710   4.107   1.647  10.902
 6446SOL     OW19711   4.318   0.745   9.962
 6446SOL    HW119712   4.368   0.830   9.943
 6446SOL    HW219713   4.230   0.747   9.914
 6447SOL     OW19714   3.803   1.240   9.963
 6447SOL    HW119715   3.802   1.193  10.051
 6447SOL    HW219716   3.885   1.212   9.912
 6448SOL     OW19717   4.396   1.391  10.934
 6448SOL    HW119718   4.318   1.341  10.972
 6448SOL    HW219719   4.393   1.486  10.965
 6449SOL     OW19720   4.152   0.424   9.830
 6449SOL    HW119721   4.182   0.352   9.768
 6449SOL    HW219722   4.113   0.384   9.913
 6450SOL     OW19723   4.041   0.547  10.590
 6450SOL    HW119724   4.079   0.488  10.662
 6450SOL    HW219725   4.081   0.521  10.502
 6451SOL     OW19726   4.536   1.586   9.997
 6451SOL    HW119727   4.568   1.596   9.903
 6451SOL    HW219728   4.457   1.524   9.999
 6452SOL     OW19729   3.763   1.077   9.610
 6452SOL    HW119730   3.862   1.066   9.601
 6452SOL    HW219731   3.723   0.991   9.642
 6453SOL     OW19732   3.954   2.490   0.113
 6453SOL    HW119733   3.861   2.488   0.150
 6453SOL    HW219734   3.955   2.451   0.021
 6454SOL     OW19735   3.949   2.137   0.996
 6454SOL    HW119736   3.984   2.120   1.088
 6454SOL    HW219737   3.861   2.092   0.984
 6455SOL     OW19738   3.743   2.230   0.647
 6455SOL    HW119739   3.661   2.273   0.686
 6455SOL    HW219740   3.715   2.157   0.584
 6456SOL     OW19741   4.293   3.137   1.165
 6456SOL    HW119742   4.200   3.130   1.128
 6456SOL    HW219743   4.304   3.226   1.209
 6457SOL     OW19744   4.574   2.660   1.823
 6457SOL    HW119745   4.570   2.736   1.888
 6457SOL    HW219746   4.596   2.696   1.732
 6458SOL     OW19747   4.409   2.874   0.665
 6458SOL    HW119748   4.478   2.858   0.735
 6458SOL    HW219749   4.336   2.931   0.703
 6459SOL     OW19750   4.410   3.023   1.803
 6459SOL    HW119751   4.470   3.102   1.817
 6459SOL    HW219752   4.324   3.054   1.762
 6460SOL     OW19753   4.059   3.297   1.061
 6460SOL    HW119754   3.981   3.266   1.008
 6460SOL    HW219755   4.117   3.355   1.004
 6461SOL     OW19756   4.162   2.254   1.499
 6461SOL    HW119757   4.244   2.198   1.508
 6461SOL    HW219758   4.081   2.196   1.503
 6462SOL     OW19759   3.955   3.575   0.483
 6462SOL    HW119760   3.989   3.652   0.537
 6462SOL    HW219761   3.999   3.575   0.393
 6463SOL     OW19762   3.954   3.296   0.538
 6463SOL    HW119763   3.928   3.392   0.538
 6463SOL    HW219764   3.883   3.242   0.583
 6464SOL     OW19765   3.964   2.953   0.886
 6464SOL    HW119766   3.978   2.869   0.938
 6464SOL    HW219767   3.909   3.017   0.941
 6465SOL     OW19768   4.344   3.648   1.439
 6465SOL    HW119769   4.252   3.631   1.474
 6465SOL    HW219770   4.372   3.740   1.465
 6466SOL     OW19771   4.330   2.826   0.123
 6466SOL    HW119772   4.337   2.910   0.069
 6466SOL    HW219773   4.376   2.839   0.211
 6467SOL     OW19774   3.846   2.505   0.563
 6467SOL    HW119775   3.801   2.417   0.580
 6467SOL    HW219776   3.845   2.559   0.647
 6468SOL     OW19777   3.751   3.458   0.117
 6468SOL    HW119778   3.732   3.362   0.138
 6468SOL    HW219779   3.718   3.516   0.192
 6469SOL     OW19780   3.837   2.599   1.597
 6469SOL    HW119781   3.925   2.586   1.642
 6469SOL    HW219782   3.824   2.696   1.575
 6470SOL     OW19783   4.337   3.227   0.726
 6470SOL    HW119784   4.288   3.140   0.735
 6470SOL    HW219785   4.314   3.270   0.639
 6471SOL     OW19786   4.533   1.866   0.502
 6471SOL    HW119787   4.573   1.957   0.493
 6471SOL    HW219788   4.433   1.874   0.508
 6472SOL     OW19789   3.921   2.838   1.264
 6472SOL    HW119790   4.010   2.793   1.250
 6472SOL    HW219791   3.848   2.773   1.245
 6473SOL     OW19792   4.041   2.113   1.801
 6473SOL    HW119793   4.112   2.184   1.807
 6473SOL    HW219794   3.953   2.152   1.829
 6474SOL     OW19795   4.322   2.591   0.270
 6474SOL    HW119796   4.346   2.660   0.202
 6474SOL    HW219797   4.244   2.624   0.324
 6475SOL     OW19798   3.800   2.673   0.789
 6475SOL    HW119799   3.899   2.661   0.798
 6475SOL    HW219800   3.776   2.768   0.810
 6476SOL     OW19801   3.854   3.683   1.571
 6476SOL    HW119802   3.844   3.668   1.670
 6476SOL    HW219803   3.768   3.719   1.535
 6477SOL     OW19804   4.274   2.058   0.885
 6477SOL    HW119805   4.269   2.053   0.985
 6477SOL    HW219806   4.276   2.154   0.856
 6478SOL     OW19807   4.075   3.663   0.853
 6478SOL    HW119808   4.125   3.577   0.859
 6478SOL    HW219809   4.140   3.740   0.850
 6479SOL     OW19810   4.045   2.805   0.242
 6479SOL    HW119811   4.127   2.844   0.200
 6479SOL    HW219812   4.018   2.723   0.193
 6480SOL     OW19813   4.185   3.128   1.727
 6480SOL    HW119814   4.135   3.129   1.641
 6480SOL    HW219815   4.122   3.110   1.803
 6481SOL     OW19816   3.926   2.147   1.498
 6481SOL    HW119817   3.846   2.207   1.485
 6481SOL    HW219818   3.916   2.098   1.584
 6482SOL     OW19819   4.188   3.605   0.323
 6482SOL    HW119820   4.221   3.644   0.409
 6482SOL    HW219821   4.264   3.598   0.258
 6483SOL     OW19822   3.973   3.647   1.241
 6483SOL    HW119823   4.030   3.582   1.291
 6483SOL    HW219824   3.957   3.614   1.148
 6484SOL     OW19825   4.106   2.562   0.480
 6484SOL    HW119826   4.151   2.472   0.477
 6484SOL    HW219827   4.012   2.551   0.513
 6485SOL     OW19828   4.338   1.984   0.117
 6485SOL    HW119829   4.436   1.962   0.124
 6485SOL    HW219830   4.307   1.967   0.024
 6486SOL     OW19831   4.527   3.264   0.924
 6486SOL    HW119832   4.617   3.278   0.882
 6486SOL    HW219833   4.456   3.266   0.853
 6487SOL     OW19834   4.263   1.926   0.512
 6487SOL    HW119835   4.182   1.927   0.570
 6487SOL    HW219836   4.266   2.009   0.457
 6488SOL     OW19837   4.021   1.897   0.171
 6488SOL    HW119838   4.070   1.981   0.150
 6488SOL    HW219839   4.083   1.832   0.216
 6489SOL     OW19840   4.800   2.545   1.464
 6489SOL    HW119841   4.720   2.484   1.467
 6489SOL    HW219842   4.881   2.492   1.440
 6490SOL     OW19843   4.183   3.014   0.741
 6490SOL    HW119844   4.112   2.987   0.806
 6490SOL    HW219845   4.157   2.986   0.648
 6491SOL     OW19846   3.802   2.418   1.386
 6491SOL    HW119847   3.894   2.417   1.345
 6491SOL    HW219848   3.796   2.492   1.453
 6492SOL     OW19849   4.285   2.084   1.147
 6492SOL    HW119850   4.323   2.000   1.184
 6492SOL    HW219851   4.197   2.103   1.191
 6493SOL     OW19852   4.212   3.247   0.174
 6493SOL    HW119853   4.125   3.232   0.221
 6493SOL    HW219854   4.195   3.273   0.079
 6494SOL     OW19855   4.251   2.118   0.328
 6494SOL    HW119856   4.278   2.059   0.253
 6494SOL    HW219857   4.251   2.213   0.297
 6495SOL     OW19858   4.134   2.675   1.251
 6495SOL    HW119859   4.220   2.687   1.301
 6495SOL    HW219860   4.092   2.588   1.278
 6496SOL     OW19861   3.788   3.426   1.331
 6496SOL    HW119862   3.742   3.508   1.297
 6496SOL    HW219863   3.886   3.445   1.340
 6497SOL     OW19864   4.091   2.962   0.501
 6497SOL    HW119865   4.084   3.045   0.445
 6497SOL    HW219866   4.095   2.882   0.441
 6498SOL     OW19867   4.290   2.399   0.865
 6498SOL    HW119868   4.302   2.465   0.791
 6498SOL    HW219869   4.336   2.433   0.948
 6499SOL     OW19870   4.078   3.372   1.329
 6499SOL    HW119871   4.057   3.328   1.242
 6499SOL    HW219872   4.175   3.398   1.332
 6500SOL     OW19873   4.126   2.613   1.598
 6500SOL    HW119874   4.194   2.668   1.551
 6500SOL    HW219875   4.166   2.525   1.625
 6501SOL     OW19876   4.228   1.912   1.740
 6501SOL    HW119877   4.186   1.855   1.670
 6501SOL    HW219878   4.162   1.981   1.772
 6502SOL     OW19879   4.297   2.732   1.029
 6502SOL    HW119880   4.341   2.821   1.020
 6502SOL    HW219881   4.234   2.732   1.106
 6503SOL     OW19882   4.031   2.075   1.231
 6503SOL    HW119883   4.008   2.112   1.321
 6503SOL    HW219884   4.001   1.980   1.225
 6504SOL     OW19885   3.761   3.172   1.282
 6504SOL    HW119886   3.814   3.123   1.350
 6504SOL    HW219887   3.783   3.270   1.287
 6505SOL     OW19888   4.031   1.925   0.618
 6505SOL    HW119889   4.020   2.019   0.651
 6505SOL    HW219890   4.026   1.862   0.695
 6506SOL     OW19891   4.074   2.760   1.804
 6506SOL    HW119892   4.150   2.804   1.852
 6506SOL    HW219893   4.109   2.713   1.722
 6507SOL     OW19894   4.043   2.672   0.949
 6507SOL    HW119895   4.136   2.708   0.954
 6507SOL    HW219896   4.037   2.587   1.001
 6508SOL     OW19897   4.063   2.371   1.006
 6508SOL    HW119898   4.011   2.288   0.989
 6508SOL    HW219899   4.140   2.376   0.942
 6509SOL     OW19900   3.732   3.188   0.200
 6509SOL    HW119901   3.639   3.209   0.169
 6509SOL    HW219902   3.742   3.089   0.213
 6510SOL     OW19903   3.812   3.663   0.927
 6510SOL    HW119904   3.770   3.577   0.900
 6510SOL    HW219905   3.906   3.666   0.893
 6511SOL     OW19906   4.228   3.430   0.910
 6511SOL    HW119907   4.294   3.504   0.919
 6511SOL    HW219908   4.272   3.351   0.868
 6512SOL     OW19909   3.764   2.406   1.114
 6512SOL    HW119910   3.849   2.373   1.073
 6512SOL    HW219911   3.777   2.421   1.212
 6513SOL     OW19912   3.913   2.382   1.722
 6513SOL    HW119913   3.972   2.342   1.652
 6513SOL    HW219914   3.855   2.453   1.681
 6514SOL     OW19915   4.539   2.434   0.325
 6514SOL    HW119916   4.546   2.345   0.279
 6514SOL    HW219917   4.445   2.468   0.317
 6515SOL     OW19918   3.976   3.426   1.744
 6515SOL    HW119919   3.946   3.483   1.820
 6515SOL    HW219920   3.969   3.329   1.770
 6516SOL     OW19921   4.197   2.362   0.191
 6516SOL    HW119922   4.258   2.442   0.195
 6516SOL    HW219923   4.102   2.393   0.198
 6517SOL     OW19924   3.883   2.999   1.466
 6517SOL    HW119925   3.905   2.938   1.542
 6517SOL    HW219926   3.893   2.950   1.380
 6518SOL     OW19927   3.807   3.120   1.022
 6518SOL    HW119928   3.802   3.119   1.122
 6518SOL    HW219929   3.724   3.079   0.984
 6519SOL     OW19930   4.412   3.524   1.716
 6519SOL    HW119931   4.356   3.605   1.725
 6519SOL    HW219932   4.464   3.528   1.630
 6520SOL     OW19933   3.854   3.656   1.851
 6520SOL    HW119934   3.813   3.582   1.904
 6520SOL    HW219935   3.918   3.707   1.909
 6521SOL     OW19936   3.987   2.188   0.720
 6521SOL    HW119937   3.908   2.239   0.686
 6521SOL    HW219938   3.978   2.173   0.818
 6522SOL     OW19939   4.096   3.150   1.490
 6522SOL    HW119940   4.083   3.243   1.456
 6522SOL    HW219941   4.012   3.098   1.477
 6523SOL     OW19942   4.314   3.349   0.491
 6523SOL    HW119943   4.356   3.291   0.421
 6523SOL    HW219944   4.270   3.428   0.447
 6524SOL     OW19945   3.979   3.210   0.290
 6524SOL    HW119946   3.883   3.211   0.263
 6524SOL    HW219947   3.991   3.263   0.374
 6525SOL     OW19948   3.829   2.875   1.726
 6525SOL    HW119949   3.752   2.842   1.780
 6525SOL    HW219950   3.914   2.845   1.768
 6526SOL     OW19951   4.396   2.065   1.489
 6526SOL    HW119952   4.486   2.049   1.449
 6526SOL    HW219953   4.404   2.070   1.588
 6527SOL     OW19954   3.799   2.207   0.033
 6527SOL    HW119955   3.707   2.179   0.004
 6527SOL    HW219956   3.830   2.284  -0.023
 6528SOL     OW19957   3.796   2.028   0.318
 6528SOL    HW119958   3.779   2.111   0.264
 6528SOL    HW219959   3.886   1.991   0.296
 6529SOL     OW19960   4.337   2.704   1.431
 6529SOL    HW119961   4.393   2.785   1.414
 6529SOL    HW219962   4.396   2.624   1.434
 6530SOL     OW19963   4.440   2.427   1.708
 6530SOL    HW119964   4.459   2.492   1.782
 6530SOL    HW219965   4.500   2.347   1.717
 6531SOL     OW19966   4.114   3.603   1.560
 6531SOL    HW119967   4.023   3.644   1.558
 6531SOL    HW219968   4.107   3.509   1.592
 6532SOL     OW19969   4.318   2.607   0.652
 6532SOL    HW119970   4.368   2.692   0.633
 6532SOL    HW219971   4.230   2.609   0.604
 6533SOL     OW19972   3.945   3.176   1.844
 6533SOL    HW119973   3.880   3.103   1.823
 6533SOL    HW219974   3.949   3.190   1.942
 6534SOL     OW19975   3.803   3.102   0.653
 6534SOL    HW119976   3.802   3.055   0.741
 6534SOL    HW219977   3.885   3.074   0.602
 6535SOL     OW19978   4.396   3.253   1.624
 6535SOL    HW119979   4.318   3.203   1.662
 6535SOL    HW219980   4.393   3.348   1.655
 6536SOL     OW19981   4.152   2.286   0.520
 6536SOL    HW119982   4.182   2.214   0.458
 6536SOL    HW219983   4.113   2.246   0.603
 6537SOL     OW19984   4.041   2.409   1.280
 6537SOL    HW119985   4.079   2.350   1.352
 6537SOL    HW219986   4.081   2.383   1.192
 6538SOL     OW19987   4.536   3.448   0.687
 6538SOL    HW119988   4.568   3.458   0.593
 6538SOL    HW219989   4.457   3.386   0.689
 6539SOL     OW19990   3.763   2.939   0.300
 6539SOL    HW119991   3.862   2.928   0.291
 6539SOL    HW219992   3.723   2.853   0.332
 6540SOL     OW19993   3.954   2.490   1.975
 6540SOL    HW119994   3.861   2.488   2.012
 6540SOL    HW219995   3.955   2.451   1.883
 6541SOL     OW19996   3.949   2.137   2.858
 6541SOL    HW119997   3.984   2.120   2.950
 6541SOL    HW219998   3.861   2.092   2.846
 6542SOL     OW19999   3.743   2.230   2.509
 6542SOL    HW120000   3.661   2.273   2.548
 6542SOL    HW220001   3.715   2.157   2.446
 6543SOL     OW20002   4.293   3.137   3.027
 6543SOL    HW120003   4.200   3.130   2.990
 6543SOL    HW220004   4.304   3.226   3.071
 6544SOL     OW20005   4.574   2.660   3.685
 6544SOL    HW120006   4.570   2.736   3.750
 6544SOL    HW220007   4.596   2.696   3.594
 6545SOL     OW20008   4.409   2.874   2.527
 6545SOL    HW120009   4.478   2.858   2.597
 6545SOL    HW220010   4.336   2.931   2.565
 6546SOL     OW20011   4.410   3.023   3.665
 6546SOL    HW120012   4.470   3.102   3.679
 6546SOL    HW220013   4.324   3.054   3.624
 6547SOL     OW20014   4.059   3.297   2.923
 6547SOL    HW120015   3.981   3.266   2.870
 6547SOL    HW220016   4.117   3.355   2.866
 6548SOL     OW20017   4.162   2.254   3.361
 6548SOL    HW120018   4.244   2.198   3.370
 6548SOL    HW220019   4.081   2.196   3.365
 6549SOL     OW20020   3.955   3.575   2.345
 6549SOL    HW120021   3.989   3.652   2.399
 6549SOL    HW220022   3.999   3.575   2.255
 6550SOL     OW20023   3.954   3.296   2.400
 6550SOL    HW120024   3.928   3.392   2.400
 6550SOL    HW220025   3.883   3.242   2.445
 6551SOL     OW20026   3.964   2.953   2.748
 6551SOL    HW120027   3.978   2.869   2.800
 6551SOL    HW220028   3.909   3.017   2.803
 6552SOL     OW20029   4.344   3.648   3.301
 6552SOL    HW120030   4.252   3.631   3.336
 6552SOL    HW220031   4.372   3.740   3.327
 6553SOL     OW20032   4.330   2.826   1.985
 6553SOL    HW120033   4.337   2.910   1.931
 6553SOL    HW220034   4.376   2.839   2.073
 6554SOL     OW20035   3.846   2.505   2.425
 6554SOL    HW120036   3.801   2.417   2.442
 6554SOL    HW220037   3.845   2.559   2.509
 6555SOL     OW20038   3.751   3.458   1.979
 6555SOL    HW120039   3.732   3.362   2.000
 6555SOL    HW220040   3.718   3.516   2.054
 6556SOL     OW20041   3.837   2.599   3.459
 6556SOL    HW120042   3.925   2.586   3.504
 6556SOL    HW220043   3.824   2.696   3.437
 6557SOL     OW20044   4.337   3.227   2.588
 6557SOL    HW120045   4.288   3.140   2.597
 6557SOL    HW220046   4.314   3.270   2.501
 6558SOL     OW20047   4.533   1.866   2.364
 6558SOL    HW120048   4.573   1.957   2.355
 6558SOL    HW220049   4.433   1.874   2.370
 6559SOL     OW20050   3.921   2.838   3.126
 6559SOL    HW120051   4.010   2.793   3.112
 6559SOL    HW220052   3.848   2.773   3.107
 6560SOL     OW20053   4.041   2.113   3.663
 6560SOL    HW120054   4.112   2.184   3.669
 6560SOL    HW220055   3.953   2.152   3.691
 6561SOL     OW20056   4.322   2.591   2.132
 6561SOL    HW120057   4.346   2.660   2.064
 6561SOL    HW220058   4.244   2.624   2.186
 6562SOL     OW20059   3.800   2.673   2.651
 6562SOL    HW120060   3.899   2.661   2.660
 6562SOL    HW220061   3.776   2.768   2.672
 6563SOL     OW20062   3.854   3.683   3.433
 6563SOL    HW120063   3.844   3.668   3.532
 6563SOL    HW220064   3.768   3.719   3.397
 6564SOL     OW20065   4.274   2.058   2.747
 6564SOL    HW120066   4.269   2.053   2.847
 6564SOL    HW220067   4.276   2.154   2.718
 6565SOL     OW20068   4.075   3.663   2.715
 6565SOL    HW120069   4.125   3.577   2.721
 6565SOL    HW220070   4.140   3.740   2.712
 6566SOL     OW20071   4.045   2.805   2.104
 6566SOL    HW120072   4.127   2.844   2.062
 6566SOL    HW220073   4.018   2.723   2.055
 6567SOL     OW20074   4.185   3.128   3.589
 6567SOL    HW120075   4.135   3.129   3.503
 6567SOL    HW220076   4.122   3.110   3.665
 6568SOL     OW20077   3.926   2.147   3.360
 6568SOL    HW120078   3.846   2.207   3.347
 6568SOL    HW220079   3.916   2.098   3.446
 6569SOL     OW20080   4.188   3.605   2.185
 6569SOL    HW120081   4.221   3.644   2.271
 6569SOL    HW220082   4.264   3.598   2.120
 6570SOL     OW20083   3.973   3.647   3.103
 6570SOL    HW120084   4.030   3.582   3.153
 6570SOL    HW220085   3.957   3.614   3.010
 6571SOL     OW20086   4.106   2.562   2.342
 6571SOL    HW120087   4.151   2.472   2.339
 6571SOL    HW220088   4.012   2.551   2.375
 6572SOL     OW20089   4.338   1.984   1.979
 6572SOL    HW120090   4.436   1.962   1.986
 6572SOL    HW220091   4.307   1.967   1.886
 6573SOL     OW20092   4.527   3.264   2.786
 6573SOL    HW120093   4.617   3.278   2.744
 6573SOL    HW220094   4.456   3.266   2.715
 6574SOL     OW20095   4.263   1.926   2.374
 6574SOL    HW120096   4.182   1.927   2.432
 6574SOL    HW220097   4.266   2.009   2.319
 6575SOL     OW20098   4.021   1.897   2.033
 6575SOL    HW120099   4.070   1.981   2.012
 6575SOL    HW220100   4.083   1.832   2.078
 6576SOL     OW20101   4.800   2.545   3.326
 6576SOL    HW120102   4.720   2.484   3.329
 6576SOL    HW220103   4.881   2.492   3.302
 6577SOL     OW20104   4.183   3.014   2.603
 6577SOL    HW120105   4.112   2.987   2.668
 6577SOL    HW220106   4.157   2.986   2.510
 6578SOL     OW20107   3.802   2.418   3.248
 6578SOL    HW120108   3.894   2.417   3.207
 6578SOL    HW220109   3.796   2.492   3.315
 6579SOL     OW20110   4.285   2.084   3.009
 6579SOL    HW120111   4.323   2.000   3.046
 6579SOL    HW220112   4.197   2.103   3.053
 6580SOL     OW20113   4.212   3.247   2.036
 6580SOL    HW120114   4.125   3.232   2.083
 6580SOL    HW220115   4.195   3.273   1.941
 6581SOL     OW20116   4.251   2.118   2.190
 6581SOL    HW120117   4.278   2.059   2.115
 6581SOL    HW220118   4.251   2.213   2.159
 6582SOL     OW20119   4.134   2.675   3.113
 6582SOL    HW120120   4.220   2.687   3.163
 6582SOL    HW220121   4.092   2.588   3.140
 6583SOL     OW20122   3.788   3.426   3.193
 6583SOL    HW120123   3.742   3.508   3.159
 6583SOL    HW220124   3.886   3.445   3.202
 6584SOL     OW20125   4.091   2.962   2.363
 6584SOL    HW120126   4.084   3.045   2.307
 6584SOL    HW220127   4.095   2.882   2.303
 6585SOL     OW20128   4.290   2.399   2.727
 6585SOL    HW120129   4.302   2.465   2.653
 6585SOL    HW220130   4.336   2.433   2.810
 6586SOL     OW20131   4.078   3.372   3.191
 6586SOL    HW120132   4.057   3.328   3.104
 6586SOL    HW220133   4.175   3.398   3.194
 6587SOL     OW20134   4.126   2.613   3.460
 6587SOL    HW120135   4.194   2.668   3.413
 6587SOL    HW220136   4.166   2.525   3.487
 6588SOL     OW20137   4.228   1.912   3.602
 6588SOL    HW120138   4.186   1.855   3.532
 6588SOL    HW220139   4.162   1.981   3.634
 6589SOL     OW20140   4.297   2.732   2.891
 6589SOL    HW120141   4.341   2.821   2.882
 6589SOL    HW220142   4.234   2.732   2.968
 6590SOL     OW20143   4.031   2.075   3.093
 6590SOL    HW120144   4.008   2.112   3.183
 6590SOL    HW220145   4.001   1.980   3.087
 6591SOL     OW20146   3.761   3.172   3.144
 6591SOL    HW120147   3.814   3.123   3.212
 6591SOL    HW220148   3.783   3.270   3.149
 6592SOL     OW20149   4.031   1.925   2.480
 6592SOL    HW120150   4.020   2.019   2.513
 6592SOL    HW220151   4.026   1.862   2.557
 6593SOL     OW20152   4.074   2.760   3.666
 6593SOL    HW120153   4.150   2.804   3.714
 6593SOL    HW220154   4.109   2.713   3.584
 6594SOL     OW20155   4.043   2.672   2.811
 6594SOL    HW120156   4.136   2.708   2.816
 6594SOL    HW220157   4.037   2.587   2.863
 6595SOL     OW20158   4.063   2.371   2.868
 6595SOL    HW120159   4.011   2.288   2.851
 6595SOL    HW220160   4.140   2.376   2.804
 6596SOL     OW20161   3.732   3.188   2.062
 6596SOL    HW120162   3.639   3.209   2.031
 6596SOL    HW220163   3.742   3.089   2.075
 6597SOL     OW20164   3.812   3.663   2.789
 6597SOL    HW120165   3.770   3.577   2.762
 6597SOL    HW220166   3.906   3.666   2.755
 6598SOL     OW20167   4.228   3.430   2.772
 6598SOL    HW120168   4.294   3.504   2.781
 6598SOL    HW220169   4.272   3.351   2.730
 6599SOL     OW20170   3.764   2.406   2.976
 6599SOL    HW120171   3.849   2.373   2.935
 6599SOL    HW220172   3.777   2.421   3.074
 6600SOL     OW20173   3.913   2.382   3.584
 6600SOL    HW120174   3.972   2.342   3.514
 6600SOL    HW220175   3.855   2.453   3.543
 6601SOL     OW20176   4.539   2.434   2.187
 6601SOL    HW120177   4.546   2.345   2.141
 6601SOL    HW220178   4.445   2.468   2.179
 6602SOL     OW20179   3.976   3.426   3.606
 6602SOL    HW120180   3.946   3.483   3.682
 6602SOL    HW220181   3.969   3.329   3.632
 6603SOL     OW20182   4.197   2.362   2.053
 6603SOL    HW120183   4.258   2.442   2.057
 6603SOL    HW220184   4.102   2.393   2.060
 6604SOL     OW20185   3.883   2.999   3.328
 6604SOL    HW120186   3.905   2.938   3.404
 6604SOL    HW220187   3.893   2.950   3.242
 6605SOL     OW20188   3.807   3.120   2.884
 6605SOL    HW120189   3.802   3.119   2.984
 6605SOL    HW220190   3.724   3.079   2.846
 6606SOL     OW20191   4.412   3.524   3.578
 6606SOL    HW120192   4.356   3.605   3.587
 6606SOL    HW220193   4.464   3.528   3.492
 6607SOL     OW20194   3.854   3.656   3.713
 6607SOL    HW120195   3.813   3.582   3.766
 6607SOL    HW220196   3.918   3.707   3.771
 6608SOL     OW20197   3.987   2.188   2.582
 6608SOL    HW120198   3.908   2.239   2.548
 6608SOL    HW220199   3.978   2.173   2.680
 6609SOL     OW20200   4.096   3.150   3.352
 6609SOL    HW120201   4.083   3.243   3.318
 6609SOL    HW220202   4.012   3.098   3.339
 6610SOL     OW20203   4.314   3.349   2.353
 6610SOL    HW120204   4.356   3.291   2.283
 6610SOL    HW220205   4.270   3.428   2.309
 6611SOL     OW20206   3.979   3.210   2.152
 6611SOL    HW120207   3.883   3.211   2.125
 6611SOL    HW220208   3.991   3.263   2.236
 6612SOL     OW20209   3.829   2.875   3.588
 6612SOL    HW120210   3.752   2.842   3.642
 6612SOL    HW220211   3.914   2.845   3.630
 6613SOL     OW20212   4.396   2.065   3.351
 6613SOL    HW120213   4.486   2.049   3.311
 6613SOL    HW220214   4.404   2.070   3.450
 6614SOL     OW20215   3.799   2.207   1.895
 6614SOL    HW120216   3.707   2.179   1.866
 6614SOL    HW220217   3.830   2.284   1.839
 6615SOL     OW20218   3.796   2.028   2.180
 6615SOL    HW120219   3.779   2.111   2.126
 6615SOL    HW220220   3.886   1.991   2.158
 6616SOL     OW20221   4.337   2.704   3.293
 6616SOL    HW120222   4.393   2.785   3.276
 6616SOL    HW220223   4.396   2.624   3.296
 6617SOL     OW20224   4.440   2.427   3.570
 6617SOL    HW120225   4.459   2.492   3.644
 6617SOL    HW220226   4.500   2.347   3.579
 6618SOL     OW20227   4.114   3.603   3.422
 6618SOL    HW120228   4.023   3.644   3.420
 6618SOL    HW220229   4.107   3.509   3.454
 6619SOL     OW20230   4.318   2.607   2.514
 6619SOL    HW120231   4.368   2.692   2.495
 6619SOL    HW220232   4.230   2.609   2.466
 6620SOL     OW20233   3.945   3.176   3.706
 6620SOL    HW120234   3.880   3.103   3.685
 6620SOL    HW220235   3.949   3.190   3.804
 6621SOL     OW20236   3.803   3.102   2.515
 6621SOL    HW120237   3.802   3.055   2.603
 6621SOL    HW220238   3.885   3.074   2.464
 6622SOL     OW20239   4.396   3.253   3.486
 6622SOL    HW120240   4.318   3.203   3.524
 6622SOL    HW220241   4.393   3.348   3.517
 6623SOL     OW20242   4.152   2.286   2.382
 6623SOL    HW120243   4.182   2.214   2.320
 6623SOL    HW220244   4.113   2.246   2.465
 6624SOL     OW20245   4.041   2.409   3.142
 6624SOL    HW120246   4.079   2.350   3.214
 6624SOL    HW220247   4.081   2.383   3.054
 6625SOL     OW20248   4.536   3.448   2.549
 6625SOL    HW120249   4.568   3.458   2.455
 6625SOL    HW220250   4.457   3.386   2.551
 6626SOL     OW20251   3.763   2.939   2.162
 6626SOL    HW120252   3.862   2.928   2.153
 6626SOL    HW220253   3.723   2.853   2.194
 6627SOL     OW20254   3.954   2.490   3.837
 6627SOL    HW120255   3.861   2.488   3.874
 6627SOL    HW220256   3.955   2.451   3.745
 6628SOL     OW20257   3.949   2.137   4.720
 6628SOL    HW120258   3.984   2.120   4.812
 6628SOL    HW220259   3.861   2.092   4.708
 6629SOL     OW20260   3.743   2.230   4.371
 6629SOL    HW120261   3.661   2.273   4.410
 6629SOL    HW220262   3.715   2.157   4.308
 6630SOL     OW20263   4.293   3.137   4.889
 6630SOL    HW120264   4.200   3.130   4.852
 6630SOL    HW220265   4.304   3.226   4.933
 6631SOL     OW20266   4.574   2.660   5.547
 6631SOL    HW120267   4.570   2.736   5.612
 6631SOL    HW220268   4.596   2.696   5.456
 6632SOL     OW20269   4.409   2.874   4.389
 6632SOL    HW120270   4.478   2.858   4.459
 6632SOL    HW220271   4.336   2.931   4.427
 6633SOL     OW20272   4.410   3.023   5.527
 6633SOL    HW120273   4.470   3.102   5.541
 6633SOL    HW220274   4.324   3.054   5.486
 6634SOL     OW20275   4.059   3.297   4.785
 6634SOL    HW120276   3.981   3.266   4.732
 6634SOL    HW220277   4.117   3.355   4.728
 6635SOL     OW20278   4.162   2.254   5.223
 6635SOL    HW120279   4.244   2.198   5.232
 6635SOL    HW220280   4.081   2.196   5.227
 6636SOL     OW20281   3.955   3.575   4.207
 6636SOL    HW120282   3.989   3.652   4.261
 6636SOL    HW220283   3.999   3.575   4.117
 6637SOL     OW20284   3.954   3.296   4.262
 6637SOL    HW120285   3.928   3.392   4.262
 6637SOL    HW220286   3.883   3.242   4.307
 6638SOL     OW20287   3.964   2.953   4.610
 6638SOL    HW120288   3.978   2.869   4.662
 6638SOL    HW220289   3.909   3.017   4.665
 6639SOL     OW20290   4.344   3.648   5.163
 6639SOL    HW120291   4.252   3.631   5.198
 6639SOL    HW220292   4.372   3.740   5.189
 6640SOL     OW20293   4.330   2.826   3.847
 6640SOL    HW120294   4.337   2.910   3.793
 6640SOL    HW220295   4.376   2.839   3.935
 6641SOL     OW20296   3.846   2.505   4.287
 6641SOL    HW120297   3.801   2.417   4.304
 6641SOL    HW220298   3.845   2.559   4.371
 6642SOL     OW20299   3.751   3.458   3.841
 6642SOL    HW120300   3.732   3.362   3.862
 6642SOL    HW220301   3.718   3.516   3.916
 6643SOL     OW20302   3.837   2.599   5.321
 6643SOL    HW120303   3.925   2.586   5.366
 6643SOL    HW220304   3.824   2.696   5.299
 6644SOL     OW20305   4.337   3.227   4.450
 6644SOL    HW120306   4.288   3.140   4.459
 6644SOL    HW220307   4.314   3.270   4.363
 6645SOL     OW20308   4.533   1.866   4.226
 6645SOL    HW120309   4.573   1.957   4.217
 6645SOL    HW220310   4.433   1.874   4.232
 6646SOL     OW20311   3.921   2.838   4.988
 6646SOL    HW120312   4.010   2.793   4.974
 6646SOL    HW220313   3.848   2.773   4.969
 6647SOL     OW20314   4.041   2.113   5.525
 6647SOL    HW120315   4.112   2.184   5.531
 6647SOL    HW220316   3.953   2.152   5.553
 6648SOL     OW20317   4.322   2.591   3.994
 6648SOL    HW120318   4.346   2.660   3.926
 6648SOL    HW220319   4.244   2.624   4.048
 6649SOL     OW20320   3.800   2.673   4.513
 6649SOL    HW120321   3.899   2.661   4.522
 6649SOL    HW220322   3.776   2.768   4.534
 6650SOL     OW20323   3.854   3.683   5.295
 6650SOL    HW120324   3.844   3.668   5.394
 6650SOL    HW220325   3.768   3.719   5.259
 6651SOL     OW20326   4.274   2.058   4.609
 6651SOL    HW120327   4.269   2.053   4.709
 6651SOL    HW220328   4.276   2.154   4.580
 6652SOL     OW20329   4.075   3.663   4.577
 6652SOL    HW120330   4.125   3.577   4.583
 6652SOL    HW220331   4.140   3.740   4.574
 6653SOL     OW20332   4.045   2.805   3.966
 6653SOL    HW120333   4.127   2.844   3.924
 6653SOL    HW220334   4.018   2.723   3.917
 6654SOL     OW20335   4.185   3.128   5.451
 6654SOL    HW120336   4.135   3.129   5.365
 6654SOL    HW220337   4.122   3.110   5.527
 6655SOL     OW20338   3.926   2.147   5.222
 6655SOL    HW120339   3.846   2.207   5.209
 6655SOL    HW220340   3.916   2.098   5.308
 6656SOL     OW20341   4.188   3.605   4.047
 6656SOL    HW120342   4.221   3.644   4.133
 6656SOL    HW220343   4.264   3.598   3.982
 6657SOL     OW20344   3.973   3.647   4.965
 6657SOL    HW120345   4.030   3.582   5.015
 6657SOL    HW220346   3.957   3.614   4.872
 6658SOL     OW20347   4.106   2.562   4.204
 6658SOL    HW120348   4.151   2.472   4.201
 6658SOL    HW220349   4.012   2.551   4.237
 6659SOL     OW20350   4.338   1.984   3.841
 6659SOL    HW120351   4.436   1.962   3.848
 6659SOL    HW220352   4.307   1.967   3.748
 6660SOL     OW20353   4.527   3.264   4.648
 6660SOL    HW120354   4.617   3.278   4.606
 6660SOL    HW220355   4.456   3.266   4.577
 6661SOL     OW20356   4.263   1.926   4.236
 6661SOL    HW120357   4.182   1.927   4.294
 6661SOL    HW220358   4.266   2.009   4.181
 6662SOL     OW20359   4.021   1.897   3.895
 6662SOL    HW120360   4.070   1.981   3.874
 6662SOL    HW220361   4.083   1.832   3.940
 6663SOL     OW20362   4.800   2.545   5.188
 6663SOL    HW120363   4.720   2.484   5.191
 6663SOL    HW220364   4.881   2.492   5.164
 6664SOL     OW20365   4.183   3.014   4.465
 6664SOL    HW120366   4.112   2.987   4.530
 6664SOL    HW220367   4.157   2.986   4.372
 6665SOL     OW20368   3.802   2.418   5.110
 6665SOL    HW120369   3.894   2.417   5.069
 6665SOL    HW220370   3.796   2.492   5.177
 6666SOL     OW20371   4.285   2.084   4.871
 6666SOL    HW120372   4.323   2.000   4.908
 6666SOL    HW220373   4.197   2.103   4.915
 6667SOL     OW20374   4.212   3.247   3.898
 6667SOL    HW120375   4.125   3.232   3.945
 6667SOL    HW220376   4.195   3.273   3.803
 6668SOL     OW20377   4.251   2.118   4.052
 6668SOL    HW120378   4.278   2.059   3.977
 6668SOL    HW220379   4.251   2.213   4.021
 6669SOL     OW20380   4.134   2.675   4.975
 6669SOL    HW120381   4.220   2.687   5.025
 6669SOL    HW220382   4.092   2.588   5.002
 6670SOL     OW20383   3.788   3.426   5.055
 6670SOL    HW120384   3.742   3.508   5.021
 6670SOL    HW220385   3.886   3.445   5.064
 6671SOL     OW20386   4.091   2.962   4.225
 6671SOL    HW120387   4.084   3.045   4.169
 6671SOL    HW220388   4.095   2.882   4.165
 6672SOL     OW20389   4.290   2.399   4.589
 6672SOL    HW120390   4.302   2.465   4.515
 6672SOL    HW220391   4.336   2.433   4.672
 6673SOL     OW20392   4.078   3.372   5.053
 6673SOL    HW120393   4.057   3.328   4.966
 6673SOL    HW220394   4.175   3.398   5.056
 6674SOL     OW20395   4.126   2.613   5.322
 6674SOL    HW120396   4.194   2.668   5.275
 6674SOL    HW220397   4.166   2.525   5.349
 6675SOL     OW20398   4.228   1.912   5.464
 6675SOL    HW120399   4.186   1.855   5.394
 6675SOL    HW220400   4.162   1.981   5.496
 6676SOL     OW20401   4.297   2.732   4.753
 6676SOL    HW120402   4.341   2.821   4.744
 6676SOL    HW220403   4.234   2.732   4.830
 6677SOL     OW20404   4.031   2.075   4.955
 6677SOL    HW120405   4.008   2.112   5.045
 6677SOL    HW220406   4.001   1.980   4.949
 6678SOL     OW20407   3.761   3.172   5.006
 6678SOL    HW120408   3.814   3.123   5.074
 6678SOL    HW220409   3.783   3.270   5.011
 6679SOL     OW20410   4.031   1.925   4.342
 6679SOL    HW120411   4.020   2.019   4.375
 6679SOL    HW220412   4.026   1.862   4.419
 6680SOL     OW20413   4.074   2.760   5.528
 6680SOL    HW120414   4.150   2.804   5.576
 6680SOL    HW220415   4.109   2.713   5.446
 6681SOL     OW20416   4.043   2.672   4.673
 6681SOL    HW120417   4.136   2.708   4.678
 6681SOL    HW220418   4.037   2.587   4.725
 6682SOL     OW20419   4.063   2.371   4.730
 6682SOL    HW120420   4.011   2.288   4.713
 6682SOL    HW220421   4.140   2.376   4.666
 6683SOL     OW20422   3.732   3.188   3.924
 6683SOL    HW120423   3.639   3.209   3.893
 6683SOL    HW220424   3.742   3.089   3.937
 6684SOL     OW20425   3.812   3.663   4.651
 6684SOL    HW120426   3.770   3.577   4.624
 6684SOL    HW220427   3.906   3.666   4.617
 6685SOL     OW20428   4.228   3.430   4.634
 6685SOL    HW120429   4.294   3.504   4.643
 6685SOL    HW220430   4.272   3.351   4.592
 6686SOL     OW20431   3.764   2.406   4.838
 6686SOL    HW120432   3.849   2.373   4.797
 6686SOL    HW220433   3.777   2.421   4.936
 6687SOL     OW20434   3.913   2.382   5.446
 6687SOL    HW120435   3.972   2.342   5.376
 6687SOL    HW220436   3.855   2.453   5.405
 6688SOL     OW20437   4.539   2.434   4.049
 6688SOL    HW120438   4.546   2.345   4.003
 6688SOL    HW220439   4.445   2.468   4.041
 6689SOL     OW20440   3.976   3.426   5.468
 6689SOL    HW120441   3.946   3.483   5.544
 6689SOL    HW220442   3.969   3.329   5.494
 6690SOL     OW20443   4.197   2.362   3.915
 6690SOL    HW120444   4.258   2.442   3.919
 6690SOL    HW220445   4.102   2.393   3.922
 6691SOL     OW20446   3.883   2.999   5.190
 6691SOL    HW120447   3.905   2.938   5.266
 6691SOL    HW220448   3.893   2.950   5.104
 6692SOL     OW20449   3.807   3.120   4.746
 6692SOL    HW120450   3.802   3.119   4.846
 6692SOL    HW220451   3.724   3.079   4.708
 6693SOL     OW20452   4.412   3.524   5.440
 6693SOL    HW120453   4.356   3.605   5.449
 6693SOL    HW220454   4.464   3.528   5.354
 6694SOL     OW20455   3.854   3.656   5.575
 6694SOL    HW120456   3.813   3.582   5.628
 6694SOL    HW220457   3.918   3.707   5.633
 6695SOL     OW20458   3.987   2.188   4.444
 6695SOL    HW120459   3.908   2.239   4.410
 6695SOL    HW220460   3.978   2.173   4.542
 6696SOL     OW20461   4.096   3.150   5.214
 6696SOL    HW120462   4.083   3.243   5.180
 6696SOL    HW220463   4.012   3.098   5.201
 6697SOL     OW20464   4.314   3.349   4.215
 6697SOL    HW120465   4.356   3.291   4.145
 6697SOL    HW220466   4.270   3.428   4.171
 6698SOL     OW20467   3.979   3.210   4.014
 6698SOL    HW120468   3.883   3.211   3.987
 6698SOL    HW220469   3.991   3.263   4.098
 6699SOL     OW20470   3.829   2.875   5.450
 6699SOL    HW120471   3.752   2.842   5.504
 6699SOL    HW220472   3.914   2.845   5.492
 6700SOL     OW20473   4.396   2.065   5.213
 6700SOL    HW120474   4.486   2.049   5.173
 6700SOL    HW220475   4.404   2.070   5.312
 6701SOL     OW20476   3.799   2.207   3.757
 6701SOL    HW120477   3.707   2.179   3.728
 6701SOL    HW220478   3.830   2.284   3.701
 6702SOL     OW20479   3.796   2.028   4.042
 6702SOL    HW120480   3.779   2.111   3.988
 6702SOL    HW220481   3.886   1.991   4.020
 6703SOL     OW20482   4.337   2.704   5.155
 6703SOL    HW120483   4.393   2.785   5.138
 6703SOL    HW220484   4.396   2.624   5.158
 6704SOL     OW20485   4.440   2.427   5.432
 6704SOL    HW120486   4.459   2.492   5.506
 6704SOL    HW220487   4.500   2.347   5.441
 6705SOL     OW20488   4.114   3.603   5.284
 6705SOL    HW120489   4.023   3.644   5.282
 6705SOL    HW220490   4.107   3.509   5.316
 6706SOL     OW20491   4.318   2.607   4.376
 6706SOL    HW120492   4.368   2.692   4.357
 6706SOL    HW220493   4.230   2.609   4.328
 6707SOL     OW20494   3.945   3.176   5.568
 6707SOL    HW120495   3.880   3.103   5.547
 6707SOL    HW220496   3.949   3.190   5.666
 6708SOL     OW20497   3.803   3.102   4.377
 6708SOL    HW120498   3.802   3.055   4.465
 6708SOL    HW220499   3.885   3.074   4.326
 6709SOL     OW20500   4.396   3.253   5.348
 6709SOL    HW120501   4.318   3.203   5.386
 6709SOL    HW220502   4.393   3.348   5.379
 6710SOL     OW20503   4.152   2.286   4.244
 6710SOL    HW120504   4.182   2.214   4.182
 6710SOL    HW220505   4.113   2.246   4.327
 6711SOL     OW20506   4.041   2.409   5.004
 6711SOL    HW120507   4.079   2.350   5.076
 6711SOL    HW220508   4.081   2.383   4.916
 6712SOL     OW20509   4.536   3.448   4.411
 6712SOL    HW120510   4.568   3.458   4.317
 6712SOL    HW220511   4.457   3.386   4.413
 6713SOL     OW20512   3.763   2.939   4.024
 6713SOL    HW120513   3.862   2.928   4.015
 6713SOL    HW220514   3.723   2.853   4.056
 6714SOL     OW20515   3.954   2.490   5.699
 6714SOL    HW120516   3.861   2.488   5.736
 6714SOL    HW220517   3.955   2.451   5.607
 6715SOL     OW20518   3.949   2.137   6.582
 6715SOL    HW120519   3.984   2.120   6.674
 6715SOL    HW220520   3.861   2.092   6.570
 6716SOL     OW20521   3.743   2.230   6.233
 6716SOL    HW120522   3.661   2.273   6.272
 6716SOL    HW220523   3.715   2.157   6.170
 6717SOL     OW20524   4.293   3.137   6.751
 6717SOL    HW120525   4.200   3.130   6.714
 6717SOL    HW220526   4.304   3.226   6.795
 6718SOL     OW20527   4.574   2.660   7.409
 6718SOL    HW120528   4.570   2.736   7.474
 6718SOL    HW220529   4.596   2.696   7.318
 6719SOL     OW20530   4.409   2.874   6.251
 6719SOL    HW120531   4.478   2.858   6.321
 6719SOL    HW220532   4.336   2.931   6.289
 6720SOL     OW20533   4.410   3.023   7.389
 6720SOL    HW120534   4.470   3.102   7.403
 6720SOL    HW220535   4.324   3.054   7.348
 6721SOL     OW20536   4.059   3.297   6.647
 6721SOL    HW120537   3.981   3.266   6.594
 6721SOL    HW220538   4.117   3.355   6.590
 6722SOL     OW20539   4.162   2.254   7.085
 6722SOL    HW120540   4.244   2.198   7.094
 6722SOL    HW220541   4.081   2.196   7.089
 6723SOL     OW20542   3.955   3.575   6.069
 6723SOL    HW120543   3.989   3.652   6.123
 6723SOL    HW220544   3.999   3.575   5.979
 6724SOL     OW20545   3.954   3.296   6.124
 6724SOL    HW120546   3.928   3.392   6.124
 6724SOL    HW220547   3.883   3.242   6.169
 6725SOL     OW20548   3.964   2.953   6.472
 6725SOL    HW120549   3.978   2.869   6.524
 6725SOL    HW220550   3.909   3.017   6.527
 6726SOL     OW20551   4.344   3.648   7.025
 6726SOL    HW120552   4.252   3.631   7.060
 6726SOL    HW220553   4.372   3.740   7.051
 6727SOL     OW20554   4.330   2.826   5.709
 6727SOL    HW120555   4.337   2.910   5.655
 6727SOL    HW220556   4.376   2.839   5.797
 6728SOL     OW20557   3.846   2.505   6.149
 6728SOL    HW120558   3.801   2.417   6.166
 6728SOL    HW220559   3.845   2.559   6.233
 6729SOL     OW20560   3.751   3.458   5.703
 6729SOL    HW120561   3.732   3.362   5.724
 6729SOL    HW220562   3.718   3.516   5.778
 6730SOL     OW20563   3.837   2.599   7.183
 6730SOL    HW120564   3.925   2.586   7.228
 6730SOL    HW220565   3.824   2.696   7.161
 6731SOL     OW20566   4.337   3.227   6.312
 6731SOL    HW120567   4.288   3.140   6.321
 6731SOL    HW220568   4.314   3.270   6.225
 6732SOL     OW20569   4.533   1.866   6.088
 6732SOL    HW120570   4.573   1.957   6.079
 6732SOL    HW220571   4.433   1.874   6.094
 6733SOL     OW20572   3.921   2.838   6.850
 6733SOL    HW120573   4.010   2.793   6.836
 6733SOL    HW220574   3.848   2.773   6.831
 6734SOL     OW20575   4.041   2.113   7.387
 6734SOL    HW120576   4.112   2.184   7.393
 6734SOL    HW220577   3.953   2.152   7.415
 6735SOL     OW20578   4.322   2.591   5.856
 6735SOL    HW120579   4.346   2.660   5.788
 6735SOL    HW220580   4.244   2.624   5.910
 6736SOL     OW20581   3.800   2.673   6.375
 6736SOL    HW120582   3.899   2.661   6.384
 6736SOL    HW220583   3.776   2.768   6.396
 6737SOL     OW20584   3.854   3.683   7.157
 6737SOL    HW120585   3.844   3.668   7.256
 6737SOL    HW220586   3.768   3.719   7.121
 6738SOL     OW20587   4.274   2.058   6.471
 6738SOL    HW120588   4.269   2.053   6.571
 6738SOL    HW220589   4.276   2.154   6.442
 6739SOL     OW20590   4.075   3.663   6.439
 6739SOL    HW120591   4.125   3.577   6.445
 6739SOL    HW220592   4.140   3.740   6.436
 6740SOL     OW20593   4.045   2.805   5.828
 6740SOL    HW120594   4.127   2.844   5.786
 6740SOL    HW220595   4.018   2.723   5.779
 6741SOL     OW20596   4.185   3.128   7.313
 6741SOL    HW120597   4.135   3.129   7.227
 6741SOL    HW220598   4.122   3.110   7.389
 6742SOL     OW20599   3.926   2.147   7.084
 6742SOL    HW120600   3.846   2.207   7.071
 6742SOL    HW220601   3.916   2.098   7.170
 6743SOL     OW20602   4.188   3.605   5.909
 6743SOL    HW120603   4.221   3.644   5.995
 6743SOL    HW220604   4.264   3.598   5.844
 6744SOL     OW20605   3.973   3.647   6.827
 6744SOL    HW120606   4.030   3.582   6.877
 6744SOL    HW220607   3.957   3.614   6.734
 6745SOL     OW20608   4.106   2.562   6.066
 6745SOL    HW120609   4.151   2.472   6.063
 6745SOL    HW220610   4.012   2.551   6.099
 6746SOL     OW20611   4.338   1.984   5.703
 6746SOL    HW120612   4.436   1.962   5.710
 6746SOL    HW220613   4.307   1.967   5.610
 6747SOL     OW20614   4.527   3.264   6.510
 6747SOL    HW120615   4.617   3.278   6.468
 6747SOL    HW220616   4.456   3.266   6.439
 6748SOL     OW20617   4.263   1.926   6.098
 6748SOL    HW120618   4.182   1.927   6.156
 6748SOL    HW220619   4.266   2.009   6.043
 6749SOL     OW20620   4.021   1.897   5.757
 6749SOL    HW120621   4.070   1.981   5.736
 6749SOL    HW220622   4.083   1.832   5.802
 6750SOL     OW20623   4.800   2.545   7.050
 6750SOL    HW120624   4.720   2.484   7.053
 6750SOL    HW220625   4.881   2.492   7.026
 6751SOL     OW20626   4.183   3.014   6.327
 6751SOL    HW120627   4.112   2.987   6.392
 6751SOL    HW220628   4.157   2.986   6.234
 6752SOL     OW20629   3.802   2.418   6.972
 6752SOL    HW120630   3.894   2.417   6.931
 6752SOL    HW220631   3.796   2.492   7.039
 6753SOL     OW20632   4.285   2.084   6.733
 6753SOL    HW120633   4.323   2.000   6.770
 6753SOL    HW220634   4.197   2.103   6.777
 6754SOL     OW20635   4.212   3.247   5.760
 6754SOL    HW120636   4.125   3.232   5.807
 6754SOL    HW220637   4.195   3.273   5.665
 6755SOL     OW20638   4.251   2.118   5.914
 6755SOL    HW120639   4.278   2.059   5.839
 6755SOL    HW220640   4.251   2.213   5.883
 6756SOL     OW20641   4.134   2.675   6.837
 6756SOL    HW120642   4.220   2.687   6.887
 6756SOL    HW220643   4.092   2.588   6.864
 6757SOL     OW20644   3.788   3.426   6.917
 6757SOL    HW120645   3.742   3.508   6.883
 6757SOL    HW220646   3.886   3.445   6.926
 6758SOL     OW20647   4.091   2.962   6.087
 6758SOL    HW120648   4.084   3.045   6.031
 6758SOL    HW220649   4.095   2.882   6.027
 6759SOL     OW20650   4.290   2.399   6.451
 6759SOL    HW120651   4.302   2.465   6.377
 6759SOL    HW220652   4.336   2.433   6.534
 6760SOL     OW20653   4.078   3.372   6.915
 6760SOL    HW120654   4.057   3.328   6.828
 6760SOL    HW220655   4.175   3.398   6.918
 6761SOL     OW20656   4.126   2.613   7.184
 6761SOL    HW120657   4.194   2.668   7.137
 6761SOL    HW220658   4.166   2.525   7.211
 6762SOL     OW20659   4.228   1.912   7.326
 6762SOL    HW120660   4.186   1.855   7.256
 6762SOL    HW220661   4.162   1.981   7.358
 6763SOL     OW20662   4.297   2.732   6.615
 6763SOL    HW120663   4.341   2.821   6.606
 6763SOL    HW220664   4.234   2.732   6.692
 6764SOL     OW20665   4.031   2.075   6.817
 6764SOL    HW120666   4.008   2.112   6.907
 6764SOL    HW220667   4.001   1.980   6.811
 6765SOL     OW20668   3.761   3.172   6.868
 6765SOL    HW120669   3.814   3.123   6.936
 6765SOL    HW220670   3.783   3.270   6.873
 6766SOL     OW20671   4.031   1.925   6.204
 6766SOL    HW120672   4.020   2.019   6.237
 6766SOL    HW220673   4.026   1.862   6.281
 6767SOL     OW20674   4.074   2.760   7.390
 6767SOL    HW120675   4.150   2.804   7.438
 6767SOL    HW220676   4.109   2.713   7.308
 6768SOL     OW20677   4.043   2.672   6.535
 6768SOL    HW120678   4.136   2.708   6.540
 6768SOL    HW220679   4.037   2.587   6.587
 6769SOL     OW20680   4.063   2.371   6.592
 6769SOL    HW120681   4.011   2.288   6.575
 6769SOL    HW220682   4.140   2.376   6.528
 6770SOL     OW20683   3.732   3.188   5.786
 6770SOL    HW120684   3.639   3.209   5.755
 6770SOL    HW220685   3.742   3.089   5.799
 6771SOL     OW20686   3.812   3.663   6.513
 6771SOL    HW120687   3.770   3.577   6.486
 6771SOL    HW220688   3.906   3.666   6.479
 6772SOL     OW20689   4.228   3.430   6.496
 6772SOL    HW120690   4.294   3.504   6.505
 6772SOL    HW220691   4.272   3.351   6.454
 6773SOL     OW20692   3.764   2.406   6.700
 6773SOL    HW120693   3.849   2.373   6.659
 6773SOL    HW220694   3.777   2.421   6.798
 6774SOL     OW20695   3.913   2.382   7.308
 6774SOL    HW120696   3.972   2.342   7.238
 6774SOL    HW220697   3.855   2.453   7.267
 6775SOL     OW20698   4.539   2.434   5.911
 6775SOL    HW120699   4.546   2.345   5.865
 6775SOL    HW220700   4.445   2.468   5.903
 6776SOL     OW20701   3.976   3.426   7.330
 6776SOL    HW120702   3.946   3.483   7.406
 6776SOL    HW220703   3.969   3.329   7.356
 6777SOL     OW20704   4.197   2.362   5.777
 6777SOL    HW120705   4.258   2.442   5.781
 6777SOL    HW220706   4.102   2.393   5.784
 6778SOL     OW20707   3.883   2.999   7.052
 6778SOL    HW120708   3.905   2.938   7.128
 6778SOL    HW220709   3.893   2.950   6.966
 6779SOL     OW20710   3.807   3.120   6.608
 6779SOL    HW120711   3.802   3.119   6.708
 6779SOL    HW220712   3.724   3.079   6.570
 6780SOL     OW20713   4.412   3.524   7.302
 6780SOL    HW120714   4.356   3.605   7.311
 6780SOL    HW220715   4.464   3.528   7.216
 6781SOL     OW20716   3.854   3.656   7.437
 6781SOL    HW120717   3.813   3.582   7.490
 6781SOL    HW220718   3.918   3.707   7.495
 6782SOL     OW20719   3.987   2.188   6.306
 6782SOL    HW120720   3.908   2.239   6.272
 6782SOL    HW220721   3.978   2.173   6.404
 6783SOL     OW20722   4.096   3.150   7.076
 6783SOL    HW120723   4.083   3.243   7.042
 6783SOL    HW220724   4.012   3.098   7.063
 6784SOL     OW20725   4.314   3.349   6.077
 6784SOL    HW120726   4.356   3.291   6.007
 6784SOL    HW220727   4.270   3.428   6.033
 6785SOL     OW20728   3.979   3.210   5.876
 6785SOL    HW120729   3.883   3.211   5.849
 6785SOL    HW220730   3.991   3.263   5.960
 6786SOL     OW20731   3.829   2.875   7.312
 6786SOL    HW120732   3.752   2.842   7.366
 6786SOL    HW220733   3.914   2.845   7.354
 6787SOL     OW20734   4.396   2.065   7.075
 6787SOL    HW120735   4.486   2.049   7.035
 6787SOL    HW220736   4.404   2.070   7.174
 6788SOL     OW20737   3.799   2.207   5.619
 6788SOL    HW120738   3.707   2.179   5.590
 6788SOL    HW220739   3.830   2.284   5.563
 6789SOL     OW20740   3.796   2.028   5.904
 6789SOL    HW120741   3.779   2.111   5.850
 6789SOL    HW220742   3.886   1.991   5.882
 6790SOL     OW20743   4.337   2.704   7.017
 6790SOL    HW120744   4.393   2.785   7.000
 6790SOL    HW220745   4.396   2.624   7.020
 6791SOL     OW20746   4.440   2.427   7.294
 6791SOL    HW120747   4.459   2.492   7.368
 6791SOL    HW220748   4.500   2.347   7.303
 6792SOL     OW20749   4.114   3.603   7.146
 6792SOL    HW120750   4.023   3.644   7.144
 6792SOL    HW220751   4.107   3.509   7.178
 6793SOL     OW20752   4.318   2.607   6.238
 6793SOL    HW120753   4.368   2.692   6.219
 6793SOL    HW220754   4.230   2.609   6.190
 6794SOL     OW20755   3.945   3.176   7.430
 6794SOL    HW120756   3.880   3.103   7.409
 6794SOL    HW220757   3.949   3.190   7.528
 6795SOL     OW20758   3.803   3.102   6.239
 6795SOL    HW120759   3.802   3.055   6.327
 6795SOL    HW220760   3.885   3.074   6.188
 6796SOL     OW20761   4.396   3.253   7.210
 6796SOL    HW120762   4.318   3.203   7.248
 6796SOL    HW220763   4.393   3.348   7.241
 6797SOL     OW20764   4.152   2.286   6.106
 6797SOL    HW120765   4.182   2.214   6.044
 6797SOL    HW220766   4.113   2.246   6.189
 6798SOL     OW20767   4.041   2.409   6.866
 6798SOL    HW120768   4.079   2.350   6.938
 6798SOL    HW220769   4.081   2.383   6.778
 6799SOL     OW20770   4.536   3.448   6.273
 6799SOL    HW120771   4.568   3.458   6.179
 6799SOL    HW220772   4.457   3.386   6.275
 6800SOL     OW20773   3.763   2.939   5.886
 6800SOL    HW120774   3.862   2.928   5.877
 6800SOL    HW220775   3.723   2.853   5.918
 6801SOL     OW20776   3.954   2.490   7.561
 6801SOL    HW120777   3.861   2.488   7.598
 6801SOL    HW220778   3.955   2.451   7.469
 6802SOL     OW20779   3.949   2.137   8.444
 6802SOL    HW120780   3.984   2.120   8.536
 6802SOL    HW220781   3.861   2.092   8.432
 6803SOL     OW20782   3.743   2.230   8.095
 6803SOL    HW120783   3.661   2.273   8.134
 6803SOL    HW220784   3.715   2.157   8.032
 6804SOL     OW20785   4.293   3.137   8.613
 6804SOL    HW120786   4.200   3.130   8.576
 6804SOL    HW220787   4.304   3.226   8.657
 6805SOL     OW20788   4.574   2.660   9.271
 6805SOL    HW120789   4.570   2.736   9.336
 6805SOL    HW220790   4.596   2.696   9.180
 6806SOL     OW20791   4.409   2.874   8.113
 6806SOL    HW120792   4.478   2.858   8.183
 6806SOL    HW220793   4.336   2.931   8.151
 6807SOL     OW20794   4.410   3.023   9.251
 6807SOL    HW120795   4.470   3.102   9.265
 6807SOL    HW220796   4.324   3.054   9.210
 6808SOL     OW20797   4.059   3.297   8.509
 6808SOL    HW120798   3.981   3.266   8.456
 6808SOL    HW220799   4.117   3.355   8.452
 6809SOL     OW20800   4.162   2.254   8.947
 6809SOL    HW120801   4.244   2.198   8.956
 6809SOL    HW220802   4.081   2.196   8.951
 6810SOL     OW20803   3.955   3.575   7.931
 6810SOL    HW120804   3.989   3.652   7.985
 6810SOL    HW220805   3.999   3.575   7.841
 6811SOL     OW20806   3.954   3.296   7.986
 6811SOL    HW120807   3.928   3.392   7.986
 6811SOL    HW220808   3.883   3.242   8.031
 6812SOL     OW20809   3.964   2.953   8.334
 6812SOL    HW120810   3.978   2.869   8.386
 6812SOL    HW220811   3.909   3.017   8.389
 6813SOL     OW20812   4.344   3.648   8.887
 6813SOL    HW120813   4.252   3.631   8.922
 6813SOL    HW220814   4.372   3.740   8.913
 6814SOL     OW20815   4.330   2.826   7.571
 6814SOL    HW120816   4.337   2.910   7.517
 6814SOL    HW220817   4.376   2.839   7.659
 6815SOL     OW20818   3.846   2.505   8.011
 6815SOL    HW120819   3.801   2.417   8.028
 6815SOL    HW220820   3.845   2.559   8.095
 6816SOL     OW20821   3.751   3.458   7.565
 6816SOL    HW120822   3.732   3.362   7.586
 6816SOL    HW220823   3.718   3.516   7.640
 6817SOL     OW20824   3.837   2.599   9.045
 6817SOL    HW120825   3.925   2.586   9.090
 6817SOL    HW220826   3.824   2.696   9.023
 6818SOL     OW20827   4.337   3.227   8.174
 6818SOL    HW120828   4.288   3.140   8.183
 6818SOL    HW220829   4.314   3.270   8.087
 6819SOL     OW20830   4.533   1.866   7.950
 6819SOL    HW120831   4.573   1.957   7.941
 6819SOL    HW220832   4.433   1.874   7.956
 6820SOL     OW20833   3.921   2.838   8.712
 6820SOL    HW120834   4.010   2.793   8.698
 6820SOL    HW220835   3.848   2.773   8.693
 6821SOL     OW20836   4.041   2.113   9.249
 6821SOL    HW120837   4.112   2.184   9.255
 6821SOL    HW220838   3.953   2.152   9.277
 6822SOL     OW20839   4.322   2.591   7.718
 6822SOL    HW120840   4.346   2.660   7.650
 6822SOL    HW220841   4.244   2.624   7.772
 6823SOL     OW20842   3.800   2.673   8.237
 6823SOL    HW120843   3.899   2.661   8.246
 6823SOL    HW220844   3.776   2.768   8.258
 6824SOL     OW20845   3.854   3.683   9.019
 6824SOL    HW120846   3.844   3.668   9.118
 6824SOL    HW220847   3.768   3.719   8.983
 6825SOL     OW20848   4.274   2.058   8.333
 6825SOL    HW120849   4.269   2.053   8.433
 6825SOL    HW220850   4.276   2.154   8.304
 6826SOL     OW20851   4.075   3.663   8.301
 6826SOL    HW120852   4.125   3.577   8.307
 6826SOL    HW220853   4.140   3.740   8.298
 6827SOL     OW20854   4.045   2.805   7.690
 6827SOL    HW120855   4.127   2.844   7.648
 6827SOL    HW220856   4.018   2.723   7.641
 6828SOL     OW20857   4.185   3.128   9.175
 6828SOL    HW120858   4.135   3.129   9.089
 6828SOL    HW220859   4.122   3.110   9.251
 6829SOL     OW20860   3.926   2.147   8.946
 6829SOL    HW120861   3.846   2.207   8.933
 6829SOL    HW220862   3.916   2.098   9.032
 6830SOL     OW20863   4.188   3.605   7.771
 6830SOL    HW120864   4.221   3.644   7.857
 6830SOL    HW220865   4.264   3.598   7.706
 6831SOL     OW20866   3.973   3.647   8.689
 6831SOL    HW120867   4.030   3.582   8.739
 6831SOL    HW220868   3.957   3.614   8.596
 6832SOL     OW20869   4.106   2.562   7.928
 6832SOL    HW120870   4.151   2.472   7.925
 6832SOL    HW220871   4.012   2.551   7.961
 6833SOL     OW20872   4.338   1.984   7.565
 6833SOL    HW120873   4.436   1.962   7.572
 6833SOL    HW220874   4.307   1.967   7.472
 6834SOL     OW20875   4.527   3.264   8.372
 6834SOL    HW120876   4.617   3.278   8.330
 6834SOL    HW220877   4.456   3.266   8.301
 6835SOL     OW20878   4.263   1.926   7.960
 6835SOL    HW120879   4.182   1.927   8.018
 6835SOL    HW220880   4.266   2.009   7.905
 6836SOL     OW20881   4.021   1.897   7.619
 6836SOL    HW120882   4.070   1.981   7.598
 6836SOL    HW220883   4.083   1.832   7.664
 6837SOL     OW20884   4.800   2.545   8.912
 6837SOL    HW120885   4.720   2.484   8.915
 6837SOL    HW220886   4.881   2.492   8.888
 6838SOL     OW20887   4.183   3.014   8.189
 6838SOL    HW120888   4.112   2.987   8.254
 6838SOL    HW220889   4.157   2.986   8.096
 6839SOL     OW20890   3.802   2.418   8.834
 6839SOL    HW120891   3.894   2.417   8.793
 6839SOL    HW220892   3.796   2.492   8.901
 6840SOL     OW20893   4.285   2.084   8.595
 6840SOL    HW120894   4.323   2.000   8.632
 6840SOL    HW220895   4.197   2.103   8.639
 6841SOL     OW20896   4.212   3.247   7.622
 6841SOL    HW120897   4.125   3.232   7.669
 6841SOL    HW220898   4.195   3.273   7.527
 6842SOL     OW20899   4.251   2.118   7.776
 6842SOL    HW120900   4.278   2.059   7.701
 6842SOL    HW220901   4.251   2.213   7.745
 6843SOL     OW20902   4.134   2.675   8.699
 6843SOL    HW120903   4.220   2.687   8.749
 6843SOL    HW220904   4.092   2.588   8.726
 6844SOL     OW20905   3.788   3.426   8.779
 6844SOL    HW120906   3.742   3.508   8.745
 6844SOL    HW220907   3.886   3.445   8.788
 6845SOL     OW20908   4.091   2.962   7.949
 6845SOL    HW120909   4.084   3.045   7.893
 6845SOL    HW220910   4.095   2.882   7.889
 6846SOL     OW20911   4.290   2.399   8.313
 6846SOL    HW120912   4.302   2.465   8.239
 6846SOL    HW220913   4.336   2.433   8.396
 6847SOL     OW20914   4.078   3.372   8.777
 6847SOL    HW120915   4.057   3.328   8.690
 6847SOL    HW220916   4.175   3.398   8.780
 6848SOL     OW20917   4.126   2.613   9.046
 6848SOL    HW120918   4.194   2.668   8.999
 6848SOL    HW220919   4.166   2.525   9.073
 6849SOL     OW20920   4.228   1.912   9.188
 6849SOL    HW120921   4.186   1.855   9.118
 6849SOL    HW220922   4.162   1.981   9.220
 6850SOL     OW20923   4.297   2.732   8.477
 6850SOL    HW120924   4.341   2.821   8.468
 6850SOL    HW220925   4.234   2.732   8.554
 6851SOL     OW20926   4.031   2.075   8.679
 6851SOL    HW120927   4.008   2.112   8.769
 6851SOL    HW220928   4.001   1.980   8.673
 6852SOL     OW20929   3.761   3.172   8.730
 6852SOL    HW120930   3.814   3.123   8.798
 6852SOL    HW220931   3.783   3.270   8.735
 6853SOL     OW20932   4.031   1.925   8.066
 6853SOL    HW120933   4.020   2.019   8.099
 6853SOL    HW220934   4.026   1.862   8.143
 6854SOL     OW20935   4.074   2.760   9.252
 6854SOL    HW120936   4.150   2.804   9.300
 6854SOL    HW220937   4.109   2.713   9.170
 6855SOL     OW20938   4.043   2.672   8.397
 6855SOL    HW120939   4.136   2.708   8.402
 6855SOL    HW220940   4.037   2.587   8.449
 6856SOL     OW20941   4.063   2.371   8.454
 6856SOL    HW120942   4.011   2.288   8.437
 6856SOL    HW220943   4.140   2.376   8.390
 6857SOL     OW20944   3.732   3.188   7.648
 6857SOL    HW120945   3.639   3.209   7.617
 6857SOL    HW220946   3.742   3.089   7.661
 6858SOL     OW20947   3.812   3.663   8.375
 6858SOL    HW120948   3.770   3.577   8.348
 6858SOL    HW220949   3.906   3.666   8.341
 6859SOL     OW20950   4.228   3.430   8.358
 6859SOL    HW120951   4.294   3.504   8.367
 6859SOL    HW220952   4.272   3.351   8.316
 6860SOL     OW20953   3.764   2.406   8.562
 6860SOL    HW120954   3.849   2.373   8.521
 6860SOL    HW220955   3.777   2.421   8.660
 6861SOL     OW20956   3.913   2.382   9.170
 6861SOL    HW120957   3.972   2.342   9.100
 6861SOL    HW220958   3.855   2.453   9.129
 6862SOL     OW20959   4.539   2.434   7.773
 6862SOL    HW120960   4.546   2.345   7.727
 6862SOL    HW220961   4.445   2.468   7.765
 6863SOL     OW20962   3.976   3.426   9.192
 6863SOL    HW120963   3.946   3.483   9.268
 6863SOL    HW220964   3.969   3.329   9.218
 6864SOL     OW20965   4.197   2.362   7.639
 6864SOL    HW120966   4.258   2.442   7.643
 6864SOL    HW220967   4.102   2.393   7.646
 6865SOL     OW20968   3.883   2.999   8.914
 6865SOL    HW120969   3.905   2.938   8.990
 6865SOL    HW220970   3.893   2.950   8.828
 6866SOL     OW20971   3.807   3.120   8.470
 6866SOL    HW120972   3.802   3.119   8.570
 6866SOL    HW220973   3.724   3.079   8.432
 6867SOL     OW20974   4.412   3.524   9.164
 6867SOL    HW120975   4.356   3.605   9.173
 6867SOL    HW220976   4.464   3.528   9.078
 6868SOL     OW20977   3.854   3.656   9.299
 6868SOL    HW120978   3.813   3.582   9.352
 6868SOL    HW220979   3.918   3.707   9.357
 6869SOL     OW20980   3.987   2.188   8.168
 6869SOL    HW120981   3.908   2.239   8.134
 6869SOL    HW220982   3.978   2.173   8.266
 6870SOL     OW20983   4.096   3.150   8.938
 6870SOL    HW120984   4.083   3.243   8.904
 6870SOL    HW220985   4.012   3.098   8.925
 6871SOL     OW20986   4.314   3.349   7.939
 6871SOL    HW120987   4.356   3.291   7.869
 6871SOL    HW220988   4.270   3.428   7.895
 6872SOL     OW20989   3.979   3.210   7.738
 6872SOL    HW120990   3.883   3.211   7.711
 6872SOL    HW220991   3.991   3.263   7.822
 6873SOL     OW20992   3.829   2.875   9.174
 6873SOL    HW120993   3.752   2.842   9.228
 6873SOL    HW220994   3.914   2.845   9.216
 6874SOL     OW20995   4.396   2.065   8.937
 6874SOL    HW120996   4.486   2.049   8.897
 6874SOL    HW220997   4.404   2.070   9.036
 6875SOL     OW20998   3.799   2.207   7.481
 6875SOL    HW120999   3.707   2.179   7.452
 6875SOL    HW221000   3.830   2.284   7.425
 6876SOL     OW21001   3.796   2.028   7.766
 6876SOL    HW121002   3.779   2.111   7.712
 6876SOL    HW221003   3.886   1.991   7.744
 6877SOL     OW21004   4.337   2.704   8.879
 6877SOL    HW121005   4.393   2.785   8.862
 6877SOL    HW221006   4.396   2.624   8.882
 6878SOL     OW21007   4.440   2.427   9.156
 6878SOL    HW121008   4.459   2.492   9.230
 6878SOL    HW221009   4.500   2.347   9.165
 6879SOL     OW21010   4.114   3.603   9.008
 6879SOL    HW121011   4.023   3.644   9.006
 6879SOL    HW221012   4.107   3.509   9.040
 6880SOL     OW21013   4.318   2.607   8.100
 6880SOL    HW121014   4.368   2.692   8.081
 6880SOL    HW221015   4.230   2.609   8.052
 6881SOL     OW21016   3.945   3.176   9.292
 6881SOL    HW121017   3.880   3.103   9.271
 6881SOL    HW221018   3.949   3.190   9.390
 6882SOL     OW21019   3.803   3.102   8.101
 6882SOL    HW121020   3.802   3.055   8.189
 6882SOL    HW221021   3.885   3.074   8.050
 6883SOL     OW21022   4.396   3.253   9.072
 6883SOL    HW121023   4.318   3.203   9.110
 6883SOL    HW221024   4.393   3.348   9.103
 6884SOL     OW21025   4.152   2.286   7.968
 6884SOL    HW121026   4.182   2.214   7.906
 6884SOL    HW221027   4.113   2.246   8.051
 6885SOL     OW21028   4.041   2.409   8.728
 6885SOL    HW121029   4.079   2.350   8.800
 6885SOL    HW221030   4.081   2.383   8.640
 6886SOL     OW21031   4.536   3.448   8.135
 6886SOL    HW121032   4.568   3.458   8.041
 6886SOL    HW221033   4.457   3.386   8.137
 6887SOL     OW21034   3.763   2.939   7.748
 6887SOL    HW121035   3.862   2.928   7.739
 6887SOL    HW221036   3.723   2.853   7.780
 6888SOL     OW21037   3.954   2.490   9.423
 6888SOL    HW121038   3.861   2.488   9.460
 6888SOL    HW221039   3.955   2.451   9.331
 6889SOL     OW21040   3.949   2.137  10.306
 6889SOL    HW121041   3.984   2.120  10.398
 6889SOL    HW221042   3.861   2.092  10.294
 6890SOL     OW21043   3.743   2.230   9.957
 6890SOL    HW121044   3.661   2.273   9.996
 6890SOL    HW221045   3.715   2.157   9.894
 6891SOL     OW21046   4.293   3.137  10.475
 6891SOL    HW121047   4.200   3.130  10.438
 6891SOL    HW221048   4.304   3.226  10.519
 6892SOL     OW21049   4.574   2.660  11.133
 6892SOL    HW121050   4.570   2.736  11.198
 6892SOL    HW221051   4.596   2.696  11.042
 6893SOL     OW21052   4.409   2.874   9.975
 6893SOL    HW121053   4.478   2.858  10.045
 6893SOL    HW221054   4.336   2.931  10.013
 6894SOL     OW21055   4.059   3.297  10.371
 6894SOL    HW121056   3.981   3.266  10.318
 6894SOL    HW221057   4.117   3.355  10.314
 6895SOL     OW21058   4.162   2.254  10.809
 6895SOL    HW121059   4.244   2.198  10.818
 6895SOL    HW221060   4.081   2.196  10.813
 6896SOL     OW21061   3.955   3.575   9.793
 6896SOL    HW121062   3.989   3.652   9.847
 6896SOL    HW221063   3.999   3.575   9.703
 6897SOL     OW21064   3.954   3.296   9.848
 6897SOL    HW121065   3.928   3.392   9.848
 6897SOL    HW221066   3.883   3.242   9.893
 6898SOL     OW21067   3.964   2.953  10.196
 6898SOL    HW121068   3.978   2.869  10.248
 6898SOL    HW221069   3.909   3.017  10.251
 6899SOL     OW21070   4.344   3.648  10.749
 6899SOL    HW121071   4.252   3.631  10.784
 6899SOL    HW221072   4.372   3.740  10.775
 6900SOL     OW21073   4.330   2.826   9.433
 6900SOL    HW121074   4.337   2.910   9.379
 6900SOL    HW221075   4.376   2.839   9.521
 6901SOL     OW21076   3.846   2.505   9.873
 6901SOL    HW121077   3.801   2.417   9.890
 6901SOL    HW221078   3.845   2.559   9.957
 6902SOL     OW21079   3.751   3.458   9.427
 6902SOL    HW121080   3.732   3.362   9.448
 6902SOL    HW221081   3.718   3.516   9.502
 6903SOL     OW21082   3.837   2.599  10.907
 6903SOL    HW121083   3.925   2.586  10.952
 6903SOL    HW221084   3.824   2.696  10.885
 6904SOL     OW21085   4.337   3.227  10.036
 6904SOL    HW121086   4.288   3.140  10.045
 6904SOL    HW221087   4.314   3.270   9.949
 6905SOL     OW21088   4.533   1.866   9.812
 6905SOL    HW121089   4.573   1.957   9.803
 6905SOL    HW221090   4.433   1.874   9.818
 6906SOL     OW21091   3.921   2.838  10.574
 6906SOL    HW121092   4.010   2.793  10.560
 6906SOL    HW221093   3.848   2.773  10.555
 6907SOL     OW21094   4.041   2.113  11.111
 6907SOL    HW121095   4.112   2.184  11.117
 6907SOL    HW221096   3.953   2.152  11.139
 6908SOL     OW21097   4.322   2.591   9.580
 6908SOL    HW121098   4.346   2.660   9.512
 6908SOL    HW221099   4.244   2.624   9.634
 6909SOL     OW21100   3.800   2.673  10.099
 6909SOL    HW121101   3.899   2.661  10.108
 6909SOL    HW221102   3.776   2.768  10.120
 6910SOL     OW21103   3.854   3.683  10.881
 6910SOL    HW121104   3.844   3.668  10.980
 6910SOL    HW221105   3.768   3.719  10.845
 6911SOL     OW21106   4.274   2.058  10.195
 6911SOL    HW121107   4.269   2.053  10.295
 6911SOL    HW221108   4.276   2.154  10.166
 6912SOL     OW21109   4.075   3.663  10.163
 6912SOL    HW121110   4.125   3.577  10.169
 6912SOL    HW221111   4.140   3.740  10.160
 6913SOL     OW21112   4.045   2.805   9.552
 6913SOL    HW121113   4.127   2.844   9.510
 6913SOL    HW221114   4.018   2.723   9.503
 6914SOL     OW21115   4.185   3.128  11.037
 6914SOL    HW121116   4.135   3.129  10.951
 6914SOL    HW221117   4.122   3.110  11.113
 6915SOL     OW21118   3.926   2.147  10.808
 6915SOL    HW121119   3.846   2.207  10.795
 6915SOL    HW221120   3.916   2.098  10.894
 6916SOL     OW21121   4.188   3.605   9.633
 6916SOL    HW121122   4.221   3.644   9.719
 6916SOL    HW221123   4.264   3.598   9.568
 6917SOL     OW21124   3.973   3.647  10.551
 6917SOL    HW121125   4.030   3.582  10.601
 6917SOL    HW221126   3.957   3.614  10.458
 6918SOL     OW21127   4.106   2.562   9.790
 6918SOL    HW121128   4.151   2.472   9.787
 6918SOL    HW221129   4.012   2.551   9.823
 6919SOL     OW21130   4.338   1.984   9.427
 6919SOL    HW121131   4.436   1.962   9.434
 6919SOL    HW221132   4.307   1.967   9.334
 6920SOL     OW21133   4.527   3.264  10.234
 6920SOL    HW121134   4.617   3.278  10.192
 6920SOL    HW221135   4.456   3.266  10.163
 6921SOL     OW21136   4.263   1.926   9.822
 6921SOL    HW121137   4.182   1.927   9.880
 6921SOL    HW221138   4.266   2.009   9.767
 6922SOL     OW21139   4.021   1.897   9.481
 6922SOL    HW121140   4.070   1.981   9.460
 6922SOL    HW221141   4.083   1.832   9.526
 6923SOL     OW21142   4.800   2.545  10.774
 6923SOL    HW121143   4.720   2.484  10.777
 6923SOL    HW221144   4.881   2.492  10.750
 6924SOL     OW21145   4.183   3.014  10.051
 6924SOL    HW121146   4.112   2.987  10.116
 6924SOL    HW221147   4.157   2.986   9.958
 6925SOL     OW21148   3.802   2.418  10.696
 6925SOL    HW121149   3.894   2.417  10.655
 6925SOL    HW221150   3.796   2.492  10.763
 6926SOL     OW21151   4.285   2.084  10.457
 6926SOL    HW121152   4.323   2.000  10.494
 6926SOL    HW221153   4.197   2.103  10.501
 6927SOL     OW21154   4.212   3.247   9.484
 6927SOL    HW121155   4.125   3.232   9.531
 6927SOL    HW221156   4.195   3.273   9.389
 6928SOL     OW21157   4.251   2.118   9.638
 6928SOL    HW121158   4.278   2.059   9.563
 6928SOL    HW221159   4.251   2.213   9.607
 6929SOL     OW21160   4.134   2.675  10.561
 6929SOL    HW121161   4.220   2.687  10.611
 6929SOL    HW221162   4.092   2.588  10.588
 6930SOL     OW21163   3.788   3.426  10.641
 6930SOL    HW121164   3.742   3.508  10.607
 6930SOL    HW221165   3.886   3.445  10.650
 6931SOL     OW21166   4.091   2.962   9.811
 6931SOL    HW121167   4.084   3.045   9.755
 6931SOL    HW221168   4.095   2.882   9.751
 6932SOL     OW21169   4.290   2.399  10.175
 6932SOL    HW121170   4.302   2.465  10.101
 6932SOL    HW221171   4.336   2.433  10.258
 6933SOL     OW21172   4.078   3.372  10.639
 6933SOL    HW121173   4.057   3.328  10.552
 6933SOL    HW221174   4.175   3.398  10.642
 6934SOL     OW21175   4.126   2.613  10.908
 6934SOL    HW121176   4.194   2.668  10.861
 6934SOL    HW221177   4.166   2.525  10.935
 6935SOL     OW21178   4.297   2.732  10.339
 6935SOL    HW121179   4.341   2.821  10.330
 6935SOL    HW221180   4.234   2.732  10.416
 6936SOL     OW21181   4.031   2.075  10.541
 6936SOL    HW121182   4.008   2.112  10.631
 6936SOL    HW221183   4.001   1.980  10.535
 6937SOL     OW21184   3.761   3.172  10.592
 6937SOL    HW121185   3.814   3.123  10.660
 6937SOL    HW221186   3.783   3.270  10.597
 6938SOL     OW21187   4.031   1.925   9.928
 6938SOL    HW121188   4.020   2.019   9.961
 6938SOL    HW221189   4.026   1.862  10.005
 6939SOL     OW21190   4.074   2.760  11.114
 6939SOL    HW121191   4.150   2.804  11.162
 6939SOL    HW221192   4.109   2.713  11.032
 6940SOL     OW21193   4.043   2.672  10.259
 6940SOL    HW121194   4.136   2.708  10.264
 6940SOL    HW221195   4.037   2.587  10.311
 6941SOL     OW21196   4.063   2.371  10.316
 6941SOL    HW121197   4.011   2.288  10.299
 6941SOL    HW221198   4.140   2.376  10.252
 6942SOL     OW21199   3.732   3.188   9.510
 6942SOL    HW121200   3.639   3.209   9.479
 6942SOL    HW221201   3.742   3.089   9.523
 6943SOL     OW21202   3.812   3.663  10.237
 6943SOL    HW121203   3.770   3.577  10.210
 6943SOL    HW221204   3.906   3.666  10.203
 6944SOL     OW21205   4.228   3.430  10.220
 6944SOL    HW121206   4.294   3.504  10.229
 6944SOL    HW221207   4.272   3.351  10.178
 6945SOL     OW21208   3.764   2.406  10.424
 6945SOL    HW121209   3.849   2.373  10.383
 6945SOL    HW221210   3.777   2.421  10.522
 6946SOL     OW21211   4.539   2.434   9.635
 6946SOL    HW121212   4.546   2.345   9.589
 6946SOL    HW221213   4.445   2.468   9.627
 6947SOL     OW21214   3.976   3.426  11.054
 6947SOL    HW121215   3.946   3.483  11.130
 6947SOL    HW221216   3.969   3.329  11.080
 6948SOL     OW21217   4.197   2.362   9.501
 6948SOL    HW121218   4.258   2.442   9.505
 6948SOL    HW221219   4.102   2.393   9.508
 6949SOL     OW21220   3.883   2.999  10.776
 6949SOL    HW121221   3.905   2.938  10.852
 6949SOL    HW221222   3.893   2.950  10.690
 6950SOL     OW21223   3.807   3.120  10.332
 6950SOL    HW121224   3.802   3.119  10.432
 6950SOL    HW221225   3.724   3.079  10.294
 6951SOL     OW21226   4.412   3.524  11.026
 6951SOL    HW121227   4.356   3.605  11.035
 6951SOL    HW221228   4.464   3.528  10.940
 6952SOL     OW21229   3.987   2.188  10.030
 6952SOL    HW121230   3.908   2.239   9.996
 6952SOL    HW221231   3.978   2.173  10.128
 6953SOL     OW21232   4.096   3.150  10.800
 6953SOL    HW121233   4.083   3.243  10.766
 6953SOL    HW221234   4.012   3.098  10.787
 6954SOL     OW21235   4.314   3.349   9.801
 6954SOL    HW121236   4.356   3.291   9.731
 6954SOL    HW221237   4.270   3.428   9.757
 6955SOL     OW21238   3.979   3.210   9.600
 6955SOL    HW121239   3.883   3.211   9.573
 6955SOL    HW221240   3.991   3.263   9.684
 6956SOL     OW21241   3.829   2.875  11.036
 6956SOL    HW121242   3.752   2.842  11.090
 6956SOL    HW221243   3.914   2.845  11.078
 6957SOL     OW21244   4.396   2.065  10.799
 6957SOL    HW121245   4.486   2.049  10.759
 6957SOL    HW221246   4.404   2.070  10.898
 6958SOL     OW21247   3.799   2.207   9.343
 6958SOL    HW121248   3.707   2.179   9.314
 6958SOL    HW221249   3.830   2.284   9.287
 6959SOL     OW21250   3.796   2.028   9.628
 6959SOL    HW121251   3.779   2.111   9.574
 6959SOL    HW221252   3.886   1.991   9.606
 6960SOL     OW21253   4.337   2.704  10.741
 6960SOL    HW121254   4.393   2.785  10.724
 6960SOL    HW221255   4.396   2.624  10.744
 6961SOL     OW21256   4.114   3.603  10.870
 6961SOL    HW121257   4.023   3.644  10.868
 6961SOL    HW221258   4.107   3.509  10.902
 6962SOL     OW21259   4.318   2.607   9.962
 6962SOL    HW121260   4.368   2.692   9.943
 6962SOL    HW221261   4.230   2.609   9.914
 6963SOL     OW21262   3.803   3.102   9.963
 6963SOL    HW121263   3.802   3.055  10.051
 6963SOL    HW221264   3.885   3.074   9.912
 6964SOL     OW21265   4.396   3.253  10.934
 6964SOL    HW121266   4.318   3.203  10.972
 6964SOL    HW221267   4.393   3.348  10.965
 6965SOL     OW21268   4.152   2.286   9.830
 6965SOL    HW121269   4.182   2.214   9.768
 6965SOL    HW221270   4.113   2.246   9.913
 6966SOL     OW21271   4.041   2.409  10.590
 6966SOL    HW121272   4.079   2.350  10.662
 6966SOL    HW221273   4.081   2.383  10.502
 6967SOL     OW21274   4.536   3.448   9.997
 6967SOL    HW121275   4.568   3.458   9.903
 6967SOL    HW221276   4.457   3.386   9.999
 6968SOL     OW21277   3.763   2.939   9.610
 6968SOL    HW121278   3.862   2.928   9.601
 6968SOL    HW221279   3.723   2.853   9.642
 6969SOL     OW21280   3.954   4.352   0.113
 6969SOL    HW121281   3.861   4.350   0.150
 6969SOL    HW221282   3.955   4.313   0.021
 6970SOL     OW21283   3.949   3.999   0.996
 6970SOL    HW121284   3.984   3.982   1.088
 6970SOL    HW221285   3.861   3.954   0.984
 6971SOL     OW21286   3.743   4.092   0.647
 6971SOL    HW121287   3.661   4.135   0.686
 6971SOL    HW221288   3.715   4.019   0.584
 6972SOL     OW21289   4.574   4.522   1.823
 6972SOL    HW121290   4.570   4.598   1.888
 6972SOL    HW221291   4.596   4.558   1.732
 6973SOL     OW21292   4.162   4.116   1.499
 6973SOL    HW121293   4.244   4.060   1.508
 6973SOL    HW221294   4.081   4.058   1.503
 6974SOL     OW21295   3.846   4.367   0.563
 6974SOL    HW121296   3.801   4.279   0.580
 6974SOL    HW221297   3.845   4.421   0.647
 6975SOL     OW21298   3.837   4.461   1.597
 6975SOL    HW121299   3.925   4.448   1.642
 6975SOL    HW221300   3.824   4.558   1.575
 6976SOL     OW21301   4.533   3.728   0.502
 6976SOL    HW121302   4.573   3.819   0.493
 6976SOL    HW221303   4.433   3.736   0.508
 6977SOL     OW21304   4.041   3.975   1.801
 6977SOL    HW121305   4.112   4.046   1.807
 6977SOL    HW221306   3.953   4.014   1.829
 6978SOL     OW21307   4.274   3.920   0.885
 6978SOL    HW121308   4.269   3.915   0.985
 6978SOL    HW221309   4.276   4.016   0.856
 6979SOL     OW21310   3.926   4.009   1.498
 6979SOL    HW121311   3.846   4.069   1.485
 6979SOL    HW221312   3.916   3.960   1.584
 6980SOL     OW21313   4.106   4.424   0.480
 6980SOL    HW121314   4.151   4.334   0.477
 6980SOL    HW221315   4.012   4.413   0.513
 6981SOL     OW21316   4.338   3.846   0.117
 6981SOL    HW121317   4.436   3.824   0.124
 6981SOL    HW221318   4.307   3.829   0.024
 6982SOL     OW21319   4.263   3.788   0.512
 6982SOL    HW121320   4.182   3.789   0.570
 6982SOL    HW221321   4.266   3.871   0.457
 6983SOL     OW21322   4.021   3.759   0.171
 6983SOL    HW121323   4.070   3.843   0.150
 6983SOL    HW221324   4.083   3.694   0.216
 6984SOL     OW21325   4.800   4.407   1.464
 6984SOL    HW121326   4.720   4.346   1.467
 6984SOL    HW221327   4.881   4.354   1.440
 6985SOL     OW21328   3.802   4.280   1.386
 6985SOL    HW121329   3.894   4.279   1.345
 6985SOL    HW221330   3.796   4.354   1.453
 6986SOL     OW21331   4.285   3.946   1.147
 6986SOL    HW121332   4.323   3.862   1.184
 6986SOL    HW221333   4.197   3.965   1.191
 6987SOL     OW21334   4.251   3.980   0.328
 6987SOL    HW121335   4.278   3.921   0.253
 6987SOL    HW221336   4.251   4.075   0.297
 6988SOL     OW21337   4.134   4.537   1.251
 6988SOL    HW121338   4.220   4.549   1.301
 6988SOL    HW221339   4.092   4.450   1.278
 6989SOL     OW21340   4.290   4.261   0.865
 6989SOL    HW121341   4.302   4.327   0.791
 6989SOL    HW221342   4.336   4.295   0.948
 6990SOL     OW21343   4.228   3.774   1.740
 6990SOL    HW121344   4.186   3.717   1.670
 6990SOL    HW221345   4.162   3.843   1.772
 6991SOL     OW21346   4.031   3.937   1.231
 6991SOL    HW121347   4.008   3.974   1.321
 6991SOL    HW221348   4.001   3.842   1.225
 6992SOL     OW21349   4.031   3.787   0.618
 6992SOL    HW121350   4.020   3.881   0.651
 6992SOL    HW221351   4.026   3.724   0.695
 6993SOL     OW21352   4.043   4.534   0.949
 6993SOL    HW121353   4.136   4.570   0.954
 6993SOL    HW221354   4.037   4.449   1.001
 6994SOL     OW21355   4.063   4.233   1.006
 6994SOL    HW121356   4.011   4.150   0.989
 6994SOL    HW221357   4.140   4.238   0.942
 6995SOL     OW21358   3.764   4.268   1.114
 6995SOL    HW121359   3.849   4.235   1.073
 6995SOL    HW221360   3.777   4.283   1.212
 6996SOL     OW21361   3.913   4.244   1.722
 6996SOL    HW121362   3.972   4.204   1.652
 6996SOL    HW221363   3.855   4.315   1.681
 6997SOL     OW21364   4.539   4.296   0.325
 6997SOL    HW121365   4.546   4.207   0.279
 6997SOL    HW221366   4.445   4.330   0.317
 6998SOL     OW21367   4.197   4.224   0.191
 6998SOL    HW121368   4.258   4.304   0.195
 6998SOL    HW221369   4.102   4.255   0.198
 6999SOL     OW21370   3.987   4.050   0.720
 6999SOL    HW121371   3.908   4.101   0.686
 6999SOL    HW221372   3.978   4.035   0.818
 7000SOL     OW21373   4.396   3.927   1.489
 7000SOL    HW121374   4.486   3.911   1.449
 7000SOL    HW221375   4.404   3.932   1.588
 7001SOL     OW21376   3.799   4.069   0.033
 7001SOL    HW121377   3.707   4.041   0.004
 7001SOL    HW221378   3.830   4.146  -0.023
 7002SOL     OW21379   3.796   3.890   0.318
 7002SOL    HW121380   3.779   3.973   0.264
 7002SOL    HW221381   3.886   3.853   0.296
 7003SOL     OW21382   4.440   4.289   1.708
 7003SOL    HW121383   4.459   4.354   1.782
 7003SOL    HW221384   4.500   4.209   1.717
 7004SOL     OW21385   4.152   4.148   0.520
 7004SOL    HW121386   4.182   4.076   0.458
 7004SOL    HW221387   4.113   4.108   0.603
 7005SOL     OW21388   4.041   4.271   1.280
 7005SOL    HW121389   4.079   4.212   1.352
 7005SOL    HW221390   4.081   4.245   1.192
 7006SOL     OW21391   3.954   4.352   1.975
 7006SOL    HW121392   3.861   4.350   2.012
 7006SOL    HW221393   3.955   4.313   1.883
 7007SOL     OW21394   3.949   3.999   2.858
 7007SOL    HW121395   3.984   3.982   2.950
 7007SOL    HW221396   3.861   3.954   2.846
 7008SOL     OW21397   3.743   4.092   2.509
 7008SOL    HW121398   3.661   4.135   2.548
 7008SOL    HW221399   3.715   4.019   2.446
 7009SOL     OW21400   4.574   4.522   3.685
 7009SOL    HW121401   4.570   4.598   3.750
 7009SOL    HW221402   4.596   4.558   3.594
 7010SOL     OW21403   4.162   4.116   3.361
 7010SOL    HW121404   4.244   4.060   3.370
 7010SOL    HW221405   4.081   4.058   3.365
 7011SOL     OW21406   3.846   4.367   2.425
 7011SOL    HW121407   3.801   4.279   2.442
 7011SOL    HW221408   3.845   4.421   2.509
 7012SOL     OW21409   3.837   4.461   3.459
 7012SOL    HW121410   3.925   4.448   3.504
 7012SOL    HW221411   3.824   4.558   3.437
 7013SOL     OW21412   4.533   3.728   2.364
 7013SOL    HW121413   4.573   3.819   2.355
 7013SOL    HW221414   4.433   3.736   2.370
 7014SOL     OW21415   4.041   3.975   3.663
 7014SOL    HW121416   4.112   4.046   3.669
 7014SOL    HW221417   3.953   4.014   3.691
 7015SOL     OW21418   4.274   3.920   2.747
 7015SOL    HW121419   4.269   3.915   2.847
 7015SOL    HW221420   4.276   4.016   2.718
 7016SOL     OW21421   3.926   4.009   3.360
 7016SOL    HW121422   3.846   4.069   3.347
 7016SOL    HW221423   3.916   3.960   3.446
 7017SOL     OW21424   4.106   4.424   2.342
 7017SOL    HW121425   4.151   4.334   2.339
 7017SOL    HW221426   4.012   4.413   2.375
 7018SOL     OW21427   4.338   3.846   1.979
 7018SOL    HW121428   4.436   3.824   1.986
 7018SOL    HW221429   4.307   3.829   1.886
 7019SOL     OW21430   4.263   3.788   2.374
 7019SOL    HW121431   4.182   3.789   2.432
 7019SOL    HW221432   4.266   3.871   2.319
 7020SOL     OW21433   4.021   3.759   2.033
 7020SOL    HW121434   4.070   3.843   2.012
 7020SOL    HW221435   4.083   3.694   2.078
 7021SOL     OW21436   4.800   4.407   3.326
 7021SOL    HW121437   4.720   4.346   3.329
 7021SOL    HW221438   4.881   4.354   3.302
 7022SOL     OW21439   3.802   4.280   3.248
 7022SOL    HW121440   3.894   4.279   3.207
 7022SOL    HW221441   3.796   4.354   3.315
 7023SOL     OW21442   4.285   3.946   3.009
 7023SOL    HW121443   4.323   3.862   3.046
 7023SOL    HW221444   4.197   3.965   3.053
 7024SOL     OW21445   4.251   3.980   2.190
 7024SOL    HW121446   4.278   3.921   2.115
 7024SOL    HW221447   4.251   4.075   2.159
 7025SOL     OW21448   4.134   4.537   3.113
 7025SOL    HW121449   4.220   4.549   3.163
 7025SOL    HW221450   4.092   4.450   3.140
 7026SOL     OW21451   4.290   4.261   2.727
 7026SOL    HW121452   4.302   4.327   2.653
 7026SOL    HW221453   4.336   4.295   2.810
 7027SOL     OW21454   4.228   3.774   3.602
 7027SOL    HW121455   4.186   3.717   3.532
 7027SOL    HW221456   4.162   3.843   3.634
 7028SOL     OW21457   4.031   3.937   3.093
 7028SOL    HW121458   4.008   3.974   3.183
 7028SOL    HW221459   4.001   3.842   3.087
 7029SOL     OW21460   4.031   3.787   2.480
 7029SOL    HW121461   4.020   3.881   2.513
 7029SOL    HW221462   4.026   3.724   2.557
 7030SOL     OW21463   4.043   4.534   2.811
 7030SOL    HW121464   4.136   4.570   2.816
 7030SOL    HW221465   4.037   4.449   2.863
 7031SOL     OW21466   4.063   4.233   2.868
 7031SOL    HW121467   4.011   4.150   2.851
 7031SOL    HW221468   4.140   4.238   2.804
 7032SOL     OW21469   3.764   4.268   2.976
 7032SOL    HW121470   3.849   4.235   2.935
 7032SOL    HW221471   3.777   4.283   3.074
 7033SOL     OW21472   3.913   4.244   3.584
 7033SOL    HW121473   3.972   4.204   3.514
 7033SOL    HW221474   3.855   4.315   3.543
 7034SOL     OW21475   4.539   4.296   2.187
 7034SOL    HW121476   4.546   4.207   2.141
 7034SOL    HW221477   4.445   4.330   2.179
 7035SOL     OW21478   4.197   4.224   2.053
 7035SOL    HW121479   4.258   4.304   2.057
 7035SOL    HW221480   4.102   4.255   2.060
 7036SOL     OW21481   3.987   4.050   2.582
 7036SOL    HW121482   3.908   4.101   2.548
 7036SOL    HW221483   3.978   4.035   2.680
 7037SOL     OW21484   4.396   3.927   3.351
 7037SOL    HW121485   4.486   3.911   3.311
 7037SOL    HW221486   4.404   3.932   3.450
 7038SOL     OW21487   3.799   4.069   1.895
 7038SOL    HW121488   3.707   4.041   1.866
 7038SOL    HW221489   3.830   4.146   1.839
 7039SOL     OW21490   3.796   3.890   2.180
 7039SOL    HW121491   3.779   3.973   2.126
 7039SOL    HW221492   3.886   3.853   2.158
 7040SOL     OW21493   4.440   4.289   3.570
 7040SOL    HW121494   4.459   4.354   3.644
 7040SOL    HW221495   4.500   4.209   3.579
 7041SOL     OW21496   4.152   4.148   2.382
 7041SOL    HW121497   4.182   4.076   2.320
 7041SOL    HW221498   4.113   4.108   2.465
 7042SOL     OW21499   4.041   4.271   3.142
 7042SOL    HW121500   4.079   4.212   3.214
 7042SOL    HW221501   4.081   4.245   3.054
 7043SOL     OW21502   3.954   4.352   3.837
 7043SOL    HW121503   3.861   4.350   3.874
 7043SOL    HW221504   3.955   4.313   3.745
 7044SOL     OW21505   3.949   3.999   4.720
 7044SOL    HW121506   3.984   3.982   4.812
 7044SOL    HW221507   3.861   3.954   4.708
 7045SOL     OW21508   3.743   4.092   4.371
 7045SOL    HW121509   3.661   4.135   4.410
 7045SOL    HW221510   3.715   4.019   4.308
 7046SOL     OW21511   4.574   4.522   5.547
 7046SOL    HW121512   4.570   4.598   5.612
 7046SOL    HW221513   4.596   4.558   5.456
 7047SOL     OW21514   4.162   4.116   5.223
 7047SOL    HW121515   4.244   4.060   5.232
 7047SOL    HW221516   4.081   4.058   5.227
 7048SOL     OW21517   3.846   4.367   4.287
 7048SOL    HW121518   3.801   4.279   4.304
 7048SOL    HW221519   3.845   4.421   4.371
 7049SOL     OW21520   3.837   4.461   5.321
 7049SOL    HW121521   3.925   4.448   5.366
 7049SOL    HW221522   3.824   4.558   5.299
 7050SOL     OW21523   4.533   3.728   4.226
 7050SOL    HW121524   4.573   3.819   4.217
 7050SOL    HW221525   4.433   3.736   4.232
 7051SOL     OW21526   4.041   3.975   5.525
 7051SOL    HW121527   4.112   4.046   5.531
 7051SOL    HW221528   3.953   4.014   5.553
 7052SOL     OW21529   4.274   3.920   4.609
 7052SOL    HW121530   4.269   3.915   4.709
 7052SOL    HW221531   4.276   4.016   4.580
 7053SOL     OW21532   3.926   4.009   5.222
 7053SOL    HW121533   3.846   4.069   5.209
 7053SOL    HW221534   3.916   3.960   5.308
 7054SOL     OW21535   4.106   4.424   4.204
 7054SOL    HW121536   4.151   4.334   4.201
 7054SOL    HW221537   4.012   4.413   4.237
 7055SOL     OW21538   4.338   3.846   3.841
 7055SOL    HW121539   4.436   3.824   3.848
 7055SOL    HW221540   4.307   3.829   3.748
 7056SOL     OW21541   4.263   3.788   4.236
 7056SOL    HW121542   4.182   3.789   4.294
 7056SOL    HW221543   4.266   3.871   4.181
 7057SOL     OW21544   4.021   3.759   3.895
 7057SOL    HW121545   4.070   3.843   3.874
 7057SOL    HW221546   4.083   3.694   3.940
 7058SOL     OW21547   4.800   4.407   5.188
 7058SOL    HW121548   4.720   4.346   5.191
 7058SOL    HW221549   4.881   4.354   5.164
 7059SOL     OW21550   3.802   4.280   5.110
 7059SOL    HW121551   3.894   4.279   5.069
 7059SOL    HW221552   3.796   4.354   5.177
 7060SOL     OW21553   4.285   3.946   4.871
 7060SOL    HW121554   4.323   3.862   4.908
 7060SOL    HW221555   4.197   3.965   4.915
 7061SOL     OW21556   4.251   3.980   4.052
 7061SOL    HW121557   4.278   3.921   3.977
 7061SOL    HW221558   4.251   4.075   4.021
 7062SOL     OW21559   4.134   4.537   4.975
 7062SOL    HW121560   4.220   4.549   5.025
 7062SOL    HW221561   4.092   4.450   5.002
 7063SOL     OW21562   4.290   4.261   4.589
 7063SOL    HW121563   4.302   4.327   4.515
 7063SOL    HW221564   4.336   4.295   4.672
 7064SOL     OW21565   4.228   3.774   5.464
 7064SOL    HW121566   4.186   3.717   5.394
 7064SOL    HW221567   4.162   3.843   5.496
 7065SOL     OW21568   4.031   3.937   4.955
 7065SOL    HW121569   4.008   3.974   5.045
 7065SOL    HW221570   4.001   3.842   4.949
 7066SOL     OW21571   4.031   3.787   4.342
 7066SOL    HW121572   4.020   3.881   4.375
 7066SOL    HW221573   4.026   3.724   4.419
 7067SOL     OW21574   4.043   4.534   4.673
 7067SOL    HW121575   4.136   4.570   4.678
 7067SOL    HW221576   4.037   4.449   4.725
 7068SOL     OW21577   4.063   4.233   4.730
 7068SOL    HW121578   4.011   4.150   4.713
 7068SOL    HW221579   4.140   4.238   4.666
 7069SOL     OW21580   3.764   4.268   4.838
 7069SOL    HW121581   3.849   4.235   4.797
 7069SOL    HW221582   3.777   4.283   4.936
 7070SOL     OW21583   3.913   4.244   5.446
 7070SOL    HW121584   3.972   4.204   5.376
 7070SOL    HW221585   3.855   4.315   5.405
 7071SOL     OW21586   4.539   4.296   4.049
 7071SOL    HW121587   4.546   4.207   4.003
 7071SOL    HW221588   4.445   4.330   4.041
 7072SOL     OW21589   4.197   4.224   3.915
 7072SOL    HW121590   4.258   4.304   3.919
 7072SOL    HW221591   4.102   4.255   3.922
 7073SOL     OW21592   3.987   4.050   4.444
 7073SOL    HW121593   3.908   4.101   4.410
 7073SOL    HW221594   3.978   4.035   4.542
 7074SOL     OW21595   4.396   3.927   5.213
 7074SOL    HW121596   4.486   3.911   5.173
 7074SOL    HW221597   4.404   3.932   5.312
 7075SOL     OW21598   3.799   4.069   3.757
 7075SOL    HW121599   3.707   4.041   3.728
 7075SOL    HW221600   3.830   4.146   3.701
 7076SOL     OW21601   3.796   3.890   4.042
 7076SOL    HW121602   3.779   3.973   3.988
 7076SOL    HW221603   3.886   3.853   4.020
 7077SOL     OW21604   4.440   4.289   5.432
 7077SOL    HW121605   4.459   4.354   5.506
 7077SOL    HW221606   4.500   4.209   5.441
 7078SOL     OW21607   4.152   4.148   4.244
 7078SOL    HW121608   4.182   4.076   4.182
 7078SOL    HW221609   4.113   4.108   4.327
 7079SOL     OW21610   4.041   4.271   5.004
 7079SOL    HW121611   4.079   4.212   5.076
 7079SOL    HW221612   4.081   4.245   4.916
 7080SOL     OW21613   3.954   4.352   5.699
 7080SOL    HW121614   3.861   4.350   5.736
 7080SOL    HW221615   3.955   4.313   5.607
 7081SOL     OW21616   3.949   3.999   6.582
 7081SOL    HW121617   3.984   3.982   6.674
 7081SOL    HW221618   3.861   3.954   6.570
 7082SOL     OW21619   3.743   4.092   6.233
 7082SOL    HW121620   3.661   4.135   6.272
 7082SOL    HW221621   3.715   4.019   6.170
 7083SOL     OW21622   4.574   4.522   7.409
 7083SOL    HW121623   4.570   4.598   7.474
 7083SOL    HW221624   4.596   4.558   7.318
 7084SOL     OW21625   4.162   4.116   7.085
 7084SOL    HW121626   4.244   4.060   7.094
 7084SOL    HW221627   4.081   4.058   7.089
 7085SOL     OW21628   3.846   4.367   6.149
 7085SOL    HW121629   3.801   4.279   6.166
 7085SOL    HW221630   3.845   4.421   6.233
 7086SOL     OW21631   3.837   4.461   7.183
 7086SOL    HW121632   3.925   4.448   7.228
 7086SOL    HW221633   3.824   4.558   7.161
 7087SOL     OW21634   4.533   3.728   6.088
 7087SOL    HW121635   4.573   3.819   6.079
 7087SOL    HW221636   4.433   3.736   6.094
 7088SOL     OW21637   4.041   3.975   7.387
 7088SOL    HW121638   4.112   4.046   7.393
 7088SOL    HW221639   3.953   4.014   7.415
 7089SOL     OW21640   4.274   3.920   6.471
 7089SOL    HW121641   4.269   3.915   6.571
 7089SOL    HW221642   4.276   4.016   6.442
 7090SOL     OW21643   3.926   4.009   7.084
 7090SOL    HW121644   3.846   4.069   7.071
 7090SOL    HW221645   3.916   3.960   7.170
 7091SOL     OW21646   4.106   4.424   6.066
 7091SOL    HW121647   4.151   4.334   6.063
 7091SOL    HW221648   4.012   4.413   6.099
 7092SOL     OW21649   4.338   3.846   5.703
 7092SOL    HW121650   4.436   3.824   5.710
 7092SOL    HW221651   4.307   3.829   5.610
 7093SOL     OW21652   4.263   3.788   6.098
 7093SOL    HW121653   4.182   3.789   6.156
 7093SOL    HW221654   4.266   3.871   6.043
 7094SOL     OW21655   4.021   3.759   5.757
 7094SOL    HW121656   4.070   3.843   5.736
 7094SOL    HW221657   4.083   3.694   5.802
 7095SOL     OW21658   4.800   4.407   7.050
 7095SOL    HW121659   4.720   4.346   7.053
 7095SOL    HW221660   4.881   4.354   7.026
 7096SOL     OW21661   3.802   4.280   6.972
 7096SOL    HW121662   3.894   4.279   6.931
 7096SOL    HW221663   3.796   4.354   7.039
 7097SOL     OW21664   4.285   3.946   6.733
 7097SOL    HW121665   4.323   3.862   6.770
 7097SOL    HW221666   4.197   3.965   6.777
 7098SOL     OW21667   4.251   3.980   5.914
 7098SOL    HW121668   4.278   3.921   5.839
 7098SOL    HW221669   4.251   4.075   5.883
 7099SOL     OW21670   4.134   4.537   6.837
 7099SOL    HW121671   4.220   4.549   6.887
 7099SOL    HW221672   4.092   4.450   6.864
 7100SOL     OW21673   4.290   4.261   6.451
 7100SOL    HW121674   4.302   4.327   6.377
 7100SOL    HW221675   4.336   4.295   6.534
 7101SOL     OW21676   4.228   3.774   7.326
 7101SOL    HW121677   4.186   3.717   7.256
 7101SOL    HW221678   4.162   3.843   7.358
 7102SOL     OW21679   4.031   3.937   6.817
 7102SOL    HW121680   4.008   3.974   6.907
 7102SOL    HW221681   4.001   3.842   6.811
 7103SOL     OW21682   4.031   3.787   6.204
 7103SOL    HW121683   4.020   3.881   6.237
 7103SOL    HW221684   4.026   3.724   6.281
 7104SOL     OW21685   4.043   4.534   6.535
 7104SOL    HW121686   4.136   4.570   6.540
 7104SOL    HW221687   4.037   4.449   6.587
 7105SOL     OW21688   4.063   4.233   6.592
 7105SOL    HW121689   4.011   4.150   6.575
 7105SOL    HW221690   4.140   4.238   6.528
 7106SOL     OW21691   3.764   4.268   6.700
 7106SOL    HW121692   3.849   4.235   6.659
 7106SOL    HW221693   3.777   4.283   6.798
 7107SOL     OW21694   3.913   4.244   7.308
 7107SOL    HW121695   3.972   4.204   7.238
 7107SOL    HW221696   3.855   4.315   7.267
 7108SOL     OW21697   4.539   4.296   5.911
 7108SOL    HW121698   4.546   4.207   5.865
 7108SOL    HW221699   4.445   4.330   5.903
 7109SOL     OW21700   4.197   4.224   5.777
 7109SOL    HW121701   4.258   4.304   5.781
 7109SOL    HW221702   4.102   4.255   5.784
 7110SOL     OW21703   3.987   4.050   6.306
 7110SOL    HW121704   3.908   4.101   6.272
 7110SOL    HW221705   3.978   4.035   6.404
 7111SOL     OW21706   4.396   3.927   7.075
 7111SOL    HW121707   4.486   3.911   7.035
 7111SOL    HW221708   4.404   3.932   7.174
 7112SOL     OW21709   3.799   4.069   5.619
 7112SOL    HW121710   3.707   4.041   5.590
 7112SOL    HW221711   3.830   4.146   5.563
 7113SOL     OW21712   3.796   3.890   5.904
 7113SOL    HW121713   3.779   3.973   5.850
 7113SOL    HW221714   3.886   3.853   5.882
 7114SOL     OW21715   4.440   4.289   7.294
 7114SOL    HW121716   4.459   4.354   7.368
 7114SOL    HW221717   4.500   4.209   7.303
 7115SOL     OW21718   4.152   4.148   6.106
 7115SOL    HW121719   4.182   4.076   6.044
 7115SOL    HW221720   4.113   4.108   6.189
 7116SOL     OW21721   4.041   4.271   6.866
 7116SOL    HW121722   4.079   4.212   6.938
 7116SOL    HW221723   4.081   4.245   6.778
 7117SOL     OW21724   3.954   4.352   7.561
 7117SOL    HW121725   3.861   4.350   7.598
 7117SOL    HW221726   3.955   4.313   7.469
 7118SOL     OW21727   3.949   3.999   8.444
 7118SOL    HW121728   3.984   3.982   8.536
 7118SOL    HW221729   3.861   3.954   8.432
 7119SOL     OW21730   3.743   4.092   8.095
 7119SOL    HW121731   3.661   4.135   8.134
 7119SOL    HW221732   3.715   4.019   8.032
 7120SOL     OW21733   4.574   4.522   9.271
 7120SOL    HW121734   4.570   4.598   9.336
 7120SOL    HW221735   4.596   4.558   9.180
 7121SOL     OW21736   4.162   4.116   8.947
 7121SOL    HW121737   4.244   4.060   8.956
 7121SOL    HW221738   4.081   4.058   8.951
 7122SOL     OW21739   3.846   4.367   8.011
 7122SOL    HW121740   3.801   4.279   8.028
 7122SOL    HW221741   3.845   4.421   8.095
 7123SOL     OW21742   3.837   4.461   9.045
 7123SOL    HW121743   3.925   4.448   9.090
 7123SOL    HW221744   3.824   4.558   9.023
 7124SOL     OW21745   4.533   3.728   7.950
 7124SOL    HW121746   4.573   3.819   7.941
 7124SOL    HW221747   4.433   3.736   7.956
 7125SOL     OW21748   4.041   3.975   9.249
 7125SOL    HW121749   4.112   4.046   9.255
 7125SOL    HW221750   3.953   4.014   9.277
 7126SOL     OW21751   4.274   3.920   8.333
 7126SOL    HW121752   4.269   3.915   8.433
 7126SOL    HW221753   4.276   4.016   8.304
 7127SOL     OW21754   3.926   4.009   8.946
 7127SOL    HW121755   3.846   4.069   8.933
 7127SOL    HW221756   3.916   3.960   9.032
 7128SOL     OW21757   4.106   4.424   7.928
 7128SOL    HW121758   4.151   4.334   7.925
 7128SOL    HW221759   4.012   4.413   7.961
 7129SOL     OW21760   4.338   3.846   7.565
 7129SOL    HW121761   4.436   3.824   7.572
 7129SOL    HW221762   4.307   3.829   7.472
 7130SOL     OW21763   4.263   3.788   7.960
 7130SOL    HW121764   4.182   3.789   8.018
 7130SOL    HW221765   4.266   3.871   7.905
 7131SOL     OW21766   4.021   3.759   7.619
 7131SOL    HW121767   4.070   3.843   7.598
 7131SOL    HW221768   4.083   3.694   7.664
 7132SOL     OW21769   4.800   4.407   8.912
 7132SOL    HW121770   4.720   4.346   8.915
 7132SOL    HW221771   4.881   4.354   8.888
 7133SOL     OW21772   3.802   4.280   8.834
 7133SOL    HW121773   3.894   4.279   8.793
 7133SOL    HW221774   3.796   4.354   8.901
 7134SOL     OW21775   4.285   3.946   8.595
 7134SOL    HW121776   4.323   3.862   8.632
 7134SOL    HW221777   4.197   3.965   8.639
 7135SOL     OW21778   4.251   3.980   7.776
 7135SOL    HW121779   4.278   3.921   7.701
 7135SOL    HW221780   4.251   4.075   7.745
 7136SOL     OW21781   4.134   4.537   8.699
 7136SOL    HW121782   4.220   4.549   8.749
 7136SOL    HW221783   4.092   4.450   8.726
 7137SOL     OW21784   4.290   4.261   8.313
 7137SOL    HW121785   4.302   4.327   8.239
 7137SOL    HW221786   4.336   4.295   8.396
 7138SOL     OW21787   4.228   3.774   9.188
 7138SOL    HW121788   4.186   3.717   9.118
 7138SOL    HW221789   4.162   3.843   9.220
 7139SOL     OW21790   4.031   3.937   8.679
 7139SOL    HW121791   4.008   3.974   8.769
 7139SOL    HW221792   4.001   3.842   8.673
 7140SOL     OW21793   4.031   3.787   8.066
 7140SOL    HW121794   4.020   3.881   8.099
 7140SOL    HW221795   4.026   3.724   8.143
 7141SOL     OW21796   4.043   4.534   8.397
 7141SOL    HW121797   4.136   4.570   8.402
 7141SOL    HW221798   4.037   4.449   8.449
 7142SOL     OW21799   4.063   4.233   8.454
 7142SOL    HW121800   4.011   4.150   8.437
 7142SOL    HW221801   4.140   4.238   8.390
 7143SOL     OW21802   3.764   4.268   8.562
 7143SOL    HW121803   3.849   4.235   8.521
 7143SOL    HW221804   3.777   4.283   8.660
 7144SOL     OW21805   3.913   4.244   9.170
 7144SOL    HW121806   3.972   4.204   9.100
 7144SOL    HW221807   3.855   4.315   9.129
 7145SOL     OW21808   4.539   4.296   7.773
 7145SOL    HW121809   4.546   4.207   7.727
 7145SOL    HW221810   4.445   4.330   7.765
 7146SOL     OW21811   4.197   4.224   7.639
 7146SOL    HW121812   4.258   4.304   7.643
 7146SOL    HW221813   4.102   4.255   7.646
 7147SOL     OW21814   3.987   4.050   8.168
 7147SOL    HW121815   3.908   4.101   8.134
 7147SOL    HW221816   3.978   4.035   8.266
 7148SOL     OW21817   4.396   3.927   8.937
 7148SOL    HW121818   4.486   3.911   8.897
 7148SOL    HW221819   4.404   3.932   9.036
 7149SOL     OW21820   3.799   4.069   7.481
 7149SOL    HW121821   3.707   4.041   7.452
 7149SOL    HW221822   3.830   4.146   7.425
 7150SOL     OW21823   3.796   3.890   7.766
 7150SOL    HW121824   3.779   3.973   7.712
 7150SOL    HW221825   3.886   3.853   7.744
 7151SOL     OW21826   4.440   4.289   9.156
 7151SOL    HW121827   4.459   4.354   9.230
 7151SOL    HW221828   4.500   4.209   9.165
 7152SOL     OW21829   4.152   4.148   7.968
 7152SOL    HW121830   4.182   4.076   7.906
 7152SOL    HW221831   4.113   4.108   8.051
 7153SOL     OW21832   4.041   4.271   8.728
 7153SOL    HW121833   4.079   4.212   8.800
 7153SOL    HW221834   4.081   4.245   8.640
 7154SOL     OW21835   3.954   4.352   9.423
 7154SOL    HW121836   3.861   4.350   9.460
 7154SOL    HW221837   3.955   4.313   9.331
 7155SOL     OW21838   3.949   3.999  10.306
 7155SOL    HW121839   3.984   3.982  10.398
 7155SOL    HW221840   3.861   3.954  10.294
 7156SOL     OW21841   3.743   4.092   9.957
 7156SOL    HW121842   3.661   4.135   9.996
 7156SOL    HW221843   3.715   4.019   9.894
 7157SOL     OW21844   4.162   4.116  10.809
 7157SOL    HW121845   4.244   4.060  10.818
 7157SOL    HW221846   4.081   4.058  10.813
 7158SOL     OW21847   3.846   4.367   9.873
 7158SOL    HW121848   3.801   4.279   9.890
 7158SOL    HW221849   3.845   4.421   9.957
 7159SOL     OW21850   3.837   4.461  10.907
 7159SOL    HW121851   3.925   4.448  10.952
 7159SOL    HW221852   3.824   4.558  10.885
 7160SOL     OW21853   4.533   3.728   9.812
 7160SOL    HW121854   4.573   3.819   9.803
 7160SOL    HW221855   4.433   3.736   9.818
 7161SOL     OW21856   4.041   3.975  11.111
 7161SOL    HW121857   4.112   4.046  11.117
 7161SOL    HW221858   3.953   4.014  11.139
 7162SOL     OW21859   4.274   3.920  10.195
 7162SOL    HW121860   4.269   3.915  10.295
 7162SOL    HW221861   4.276   4.016  10.166
 7163SOL     OW21862   3.926   4.009  10.808
 7163SOL    HW121863   3.846   4.069  10.795
 7163SOL    HW221864   3.916   3.960  10.894
 7164SOL     OW21865   4.106   4.424   9.790
 7164SOL    HW121866   4.151   4.334   9.787
 7164SOL    HW221867   4.012   4.413   9.823
 7165SOL     OW21868   4.338   3.846   9.427
 7165SOL    HW121869   4.436   3.824   9.434
 7165SOL    HW221870   4.307   3.829   9.334
 7166SOL     OW21871   4.263   3.788   9.822
 7166SOL    HW121872   4.182   3.789   9.880
 7166SOL    HW221873   4.266   3.871   9.767
 7167SOL     OW21874   4.021   3.759   9.481
 7167SOL    HW121875   4.070   3.843   9.460
 7167SOL    HW221876   4.083   3.694   9.526
 7168SOL     OW21877   4.800   4.407  10.774
 7168SOL    HW121878   4.720   4.346  10.777
 7168SOL    HW221879   4.881   4.354  10.750
 7169SOL     OW21880   3.802   4.280  10.696
 7169SOL    HW121881   3.894   4.279  10.655
 7169SOL    HW221882   3.796   4.354  10.763
 7170SOL     OW21883   4.285   3.946  10.457
 7170SOL    HW121884   4.323   3.862  10.494
 7170SOL    HW221885   4.197   3.965  10.501
 7171SOL     OW21886   4.251   3.980   9.638
 7171SOL    HW121887   4.278   3.921   9.563
 7171SOL    HW221888   4.251   4.075   9.607
 7172SOL     OW21889   4.134   4.537  10.561
 7172SOL    HW121890   4.220   4.549  10.611
 7172SOL    HW221891   4.092   4.450  10.588
 7173SOL     OW21892   4.290   4.261  10.175
 7173SOL    HW121893   4.302   4.327  10.101
 7173SOL    HW221894   4.336   4.295  10.258
 7174SOL     OW21895   4.126   4.475  10.908
 7174SOL    HW121896   4.194   4.530  10.861
 7174SOL    HW221897   4.166   4.387  10.935
 7175SOL     OW21898   4.031   3.937  10.541
 7175SOL    HW121899   4.008   3.974  10.631
 7175SOL    HW221900   4.001   3.842  10.535
 7176SOL     OW21901   4.031   3.787   9.928
 7176SOL    HW121902   4.020   3.881   9.961
 7176SOL    HW221903   4.026   3.724  10.005
 7177SOL     OW21904   4.043   4.534  10.259
 7177SOL    HW121905   4.136   4.570  10.264
 7177SOL    HW221906   4.037   4.449  10.311
 7178SOL     OW21907   4.063   4.233  10.316
 7178SOL    HW121908   4.011   4.150  10.299
 7178SOL    HW221909   4.140   4.238  10.252
 7179SOL     OW21910   3.764   4.268  10.424
 7179SOL    HW121911   3.849   4.235  10.383
 7179SOL    HW221912   3.777   4.283  10.522
 7180SOL     OW21913   4.539   4.296   9.635
 7180SOL    HW121914   4.546   4.207   9.589
 7180SOL    HW221915   4.445   4.330   9.627
 7181SOL     OW21916   4.197   4.224   9.501
 7181SOL    HW121917   4.258   4.304   9.505
 7181SOL    HW221918   4.102   4.255   9.508
 7182SOL     OW21919   3.987   4.050  10.030
 7182SOL    HW121920   3.908   4.101   9.996
 7182SOL    HW221921   3.978   4.035  10.128
 7183SOL     OW21922   4.396   3.927  10.799
 7183SOL    HW121923   4.486   3.911  10.759
 7183SOL    HW221924   4.404   3.932  10.898
 7184SOL     OW21925   3.799   4.069   9.343
 7184SOL    HW121926   3.707   4.041   9.314
 7184SOL    HW221927   3.830   4.146   9.287
 7185SOL     OW21928   3.796   3.890   9.628
 7185SOL    HW121929   3.779   3.973   9.574
 7185SOL    HW221930   3.886   3.853   9.606
 7186SOL     OW21931   4.152   4.148   9.830
 7186SOL    HW121932   4.182   4.076   9.768
 7186SOL    HW221933   4.113   4.108   9.913
 7187SOL     OW21934   4.041   4.271  10.590
 7187SOL    HW121935   4.079   4.212  10.662
 7187SOL    HW221936   4.081   4.245  10.502
   4.50000   4.50000  11.10000
