Built with Packmol
21720
    1LIG      O    1   2.227   2.220   0.013
    1LIG      C    2   2.292   2.270   0.132
    1LIG     C1    3   2.221   2.217   0.259
    1LIG     O1    4   2.285   2.267   0.379
    1LIG     C2    5   2.220   2.218   0.499
    1LIG     C3    6   2.291   2.273   0.624
    1LIG     O2    7   2.227   2.225   0.743
    1LIG     C4    8   2.290   2.275   0.864
    1LIG     C5    9   2.218   2.220   0.989
    1LIG     O3   10   2.281   2.270   1.109
    1LIG     C6   11   2.216   2.221   1.228
    1LIG     C7   12   2.288   2.277   1.353
    1LIG     O4   13   2.224   2.229   1.473
    1LIG     C8   14   2.288   2.279   1.593
    1LIG     C9   15   2.215   2.223   1.717
    1LIG     O5   16   2.279   2.273   1.837
    1LIG    C10   17   2.215   2.224   1.958
    1LIG    C11   18   2.287   2.280   2.081
    1LIG     O6   19   2.223   2.231   2.201
    1LIG    C12   20   2.286   2.280   2.322
    1LIG    C13   21   2.213   2.225   2.446
    1LIG     O7   22   2.277   2.274   2.566
    1LIG    C14   23   2.213   2.225   2.686
    1LIG    C15   24   2.285   2.280   2.811
    1LIG     O8   25   2.221   2.231   2.932
    1LIG    C16   26   2.285   2.281   3.051
    1LIG    C17   27   2.214   2.226   3.176
    1LIG     O9   28   2.277   2.275   3.297
    1LIG    C18   29   2.212   2.226   3.416
    1LIG    C19   30   2.284   2.281   3.540
    1LIG    O10   31   2.221   2.232   3.661
    1LIG    C20   32   2.285   2.282   3.780
    1LIG    C21   33   2.212   2.226   3.904
    1LIG    O11   34   2.276   2.275   4.025
    1LIG    C22   35   2.212   2.226   4.144
    1LIG    C23   36   2.284   2.282   4.269
    1LIG    O12   37   2.220   2.233   4.388
    1LIG    C24   38   2.284   2.282   4.509
    1LIG    C25   39   2.212   2.227   4.634
    1LIG    O13   40   2.275   2.276   4.755
    1LIG    C26   41   2.211   2.227   4.874
    1LIG    C27   42   2.283   2.282   4.998
    1LIG    O14   43   2.219   2.233   5.118
    1LIG    C28   44   2.284   2.282   5.239
    1LIG    C29   45   2.212   2.226   5.364
    1LIG    O15   46   2.276   2.275   5.484
    1LIG    C30   47   2.212   2.226   5.603
    1LIG    C31   48   2.284   2.281   5.727
    1LIG    O16   49   2.220   2.232   5.847
    1LIG    C32   50   2.284   2.281   5.967
    1LIG    C33   51   2.212   2.226   6.092
    1LIG    O17   52   2.276   2.275   6.212
    1LIG    C34   53   2.212   2.225   6.332
    1LIG    C35   54   2.284   2.280   6.457
    1LIG    O18   55   2.220   2.231   6.577
    1LIG    C36   56   2.284   2.280   6.697
    1LIG    C37   57   2.213   2.225   6.821
    1LIG    O19   58   2.277   2.274   6.942
    1LIG    C38   59   2.213   2.224   7.061
    1LIG    C39   60   2.284   2.279   7.186
    1LIG    O20   61   2.221   2.230   7.307
    1LIG    C40   62   2.285   2.279   7.426
    1LIG    C41   63   2.214   2.224   7.551
    1LIG    O21   64   2.277   2.273   7.672
    1LIG    C42   65   2.213   2.223   7.791
    1LIG    C43   66   2.285   2.278   7.915
    1LIG    O22   67   2.222   2.229   8.036
    1LIG    C44   68   2.286   2.278   8.156
    1LIG    C45   69   2.214   2.222   8.280
    1LIG    O23   70   2.278   2.271   8.400
    1LIG    C46   71   2.214   2.222   8.520
    1LIG    C47   72   2.287   2.278   8.644
    1LIG    O24   73   2.223   2.228   8.764
    1LIG    C48   74   2.286   2.277   8.884
    1LIG    C49   75   2.214   2.221   9.008
    1LIG    O25   76   2.278   2.270   9.128
    1LIG    C50   77   2.215   2.221   9.249
    1LIG    C51   78   2.287   2.277   9.373
    1LIG    O26   79   2.224   2.227   9.493
    1LIG    C52   80   2.287   2.276   9.613
    1LIG    C53   81   2.215   2.219   9.737
    1LIG    O27   82   2.279   2.269   9.857
    1LIG    C54   83   2.216   2.219   9.977
    1LIG    C55   84   2.288   2.275  10.103
    1LIG    O28   85   2.224   2.225  10.223
    1LIG    C56   86   2.288   2.274  10.343
    1LIG    C57   87   2.217   2.218  10.468
    1LIG    O29   88   2.281   2.267  10.589
    1LIG    C58   89   2.217   2.217  10.709
    1LIG    C59   90   2.288   2.272  10.834
    1LIG      H   91   2.289   2.380   0.130
    1LIG     H1   92   2.397   2.239   0.131
    1LIG     H2   93   2.224   2.108   0.258
    1LIG     H3   94   2.116   2.248   0.257
    1LIG     H4   95   2.223   2.108   0.501
    1LIG     H5   96   2.115   2.249   0.500
    1LIG     H6   97   2.289   2.383   0.621
    1LIG     H7   98   2.397   2.242   0.623
    1LIG     H8   99   2.288   2.384   0.865
    1LIG     H9  100   2.395   2.244   0.866
    1LIG    H10  101   2.221   2.111   0.988
    1LIG    H11  102   2.113   2.251   0.986
    1LIG    H12  103   2.219   2.112   1.230
    1LIG    H13  104   2.111   2.252   1.229
    1LIG    H14  105   2.285   2.387   1.351
    1LIG    H15  106   2.393   2.246   1.352
    1LIG    H16  107   2.285   2.388   1.595
    1LIG    H17  108   2.393   2.248   1.595
    1LIG    H18  109   2.218   2.114   1.716
    1LIG    H19  110   2.110   2.254   1.715
    1LIG    H20  111   2.217   2.114   1.959
    1LIG    H21  112   2.109   2.255   1.959
    1LIG    H22  113   2.284   2.389   2.080
    1LIG    H23  114   2.392   2.249   2.080
    1LIG    H24  115   2.283   2.389   2.323
    1LIG    H25  116   2.391   2.249   2.324
    1LIG    H26  117   2.216   2.115   2.445
    1LIG    H27  118   2.108   2.256   2.444
    1LIG    H28  119   2.216   2.115   2.688
    1LIG    H29  120   2.108   2.256   2.687
    1LIG    H30  121   2.282   2.390   2.810
    1LIG    H31  122   2.390   2.249   2.810
    1LIG    H32  123   2.282   2.391   3.052
    1LIG    H33  124   2.390   2.250   3.053
    1LIG    H34  125   2.216   2.117   3.175
    1LIG    H35  126   2.108   2.257   3.175
    1LIG    H36  127   2.215   2.116   3.418
    1LIG    H37  128   2.107   2.257   3.417
    1LIG    H38  129   2.281   2.391   3.539
    1LIG    H39  130   2.389   2.250   3.539
    1LIG    H40  131   2.282   2.391   3.782
    1LIG    H41  132   2.390   2.251   3.782
    1LIG    H42  133   2.215   2.117   3.903
    1LIG    H43  134   2.107   2.257   3.903
    1LIG    H44  135   2.215   2.117   4.146
    1LIG    H45  136   2.107   2.257   4.146
    1LIG    H46  137   2.281   2.392   4.267
    1LIG    H47  138   2.390   2.251   4.267
    1LIG    H48  139   2.281   2.391   4.511
    1LIG    H49  140   2.389   2.251   4.511
    1LIG    H50  141   2.215   2.117   4.633
    1LIG    H51  142   2.107   2.258   4.633
    1LIG    H52  143   2.214   2.117   4.876
    1LIG    H53  144   2.106   2.258   4.876
    1LIG    H54  145   2.280   2.392   4.997
    1LIG    H55  146   2.388   2.251   4.997
    1LIG    H56  147   2.281   2.391   5.240
    1LIG    H57  148   2.389   2.251   5.240
    1LIG    H58  149   2.215   2.117   5.362
    1LIG    H59  150   2.107   2.257   5.362
    1LIG    H60  151   2.215   2.116   5.605
    1LIG    H61  152   2.107   2.257   5.605
    1LIG    H62  153   2.281   2.391   5.726
    1LIG    H63  154   2.389   2.250   5.726
    1LIG    H64  155   2.281   2.390   5.969
    1LIG    H65  156   2.389   2.250   5.969
    1LIG    H66  157   2.215   2.116   6.091
    1LIG    H67  158   2.107   2.257   6.091
    1LIG    H68  159   2.215   2.116   6.333
    1LIG    H69  160   2.107   2.256   6.333
    1LIG    H70  161   2.281   2.390   6.456
    1LIG    H71  162   2.389   2.250   6.455
    1LIG    H72  163   2.281   2.390   6.698
    1LIG    H73  164   2.390   2.250   6.698
    1LIG    H74  165   2.216   2.116   6.820
    1LIG    H75  166   2.108   2.256   6.820
    1LIG    H76  167   2.216   2.115   7.062
    1LIG    H77  168   2.108   2.255   7.063
    1LIG    H78  169   2.281   2.388   7.185
    1LIG    H79  170   2.390   2.248   7.185
    1LIG    H80  171   2.282   2.389   7.428
    1LIG    H81  172   2.390   2.249   7.427
    1LIG    H82  173   2.217   2.114   7.550
    1LIG    H83  174   2.108   2.254   7.550
    1LIG    H84  175   2.217   2.113   7.792
    1LIG    H85  176   2.108   2.253   7.793
    1LIG    H86  177   2.282   2.388   7.914
    1LIG    H87  178   2.391   2.248   7.913
    1LIG    H88  179   2.283   2.388   8.157
    1LIG    H89  180   2.391   2.248   8.157
    1LIG    H90  181   2.217   2.113   8.278
    1LIG    H91  182   2.109   2.253   8.278
    1LIG    H92  183   2.218   2.112   8.522
    1LIG    H93  184   2.109   2.252   8.522
    1LIG    H94  185   2.283   2.387   8.643
    1LIG    H95  186   2.392   2.247   8.643
    1LIG    H96  187   2.283   2.386   8.886
    1LIG    H97  188   2.391   2.246   8.886
    1LIG    H98  189   2.218   2.111   9.007
    1LIG    H99  190   2.109   2.251   9.007
    1LIG   H100  191   2.218   2.111   9.250
    1LIG   H101  192   2.110   2.251   9.251
    1LIG   H102  193   2.284   2.386   9.372
    1LIG   H103  194   2.392   2.246   9.371
    1LIG   H104  195   2.284   2.385   9.615
    1LIG   H105  196   2.392   2.245   9.615
    1LIG   H106  197   2.219   2.110   9.736
    1LIG   H107  198   2.110   2.250   9.736
    1LIG   H108  199   2.220   2.110   9.979
    1LIG   H109  200   2.111   2.250   9.979
    1LIG   H110  201   2.284   2.384  10.102
    1LIG   H111  202   2.393   2.244  10.101
    1LIG   H112  203   2.285   2.384  10.345
    1LIG   H113  204   2.394   2.244  10.344
    1LIG   H114  205   2.221   2.109  10.467
    1LIG   H115  206   2.112   2.249  10.467
    1LIG   H116  207   2.221   2.107  10.709
    1LIG   H117  208   2.112   2.249  10.710
    1LIG   H118  209   2.393   2.242  10.834
    1LIG   H119  210   2.241   2.235  10.928
    1MOL     C1  211   2.803   2.247   5.445
    1MOL     H1  212   2.892   2.307   5.466
    1MOL     O1  213   2.777   2.174   5.563
    1MOL     C2  214   2.656   2.095   5.558
    1MOL     H2  215   2.571   2.159   5.532
    1MOL     C3  216   2.632   2.039   5.699
    1MOL     H3  217   2.728   2.036   5.751
    1MOL     H4  218   2.592   1.937   5.693
    1MOL     O2  219   2.543   2.121   5.774
    1MOL     H5  220   2.456   2.077   5.772
    1MOL     C4  221   2.825   2.151   5.327
    1MOL     H6  222   2.914   2.091   5.348
    1MOL     O3  223   2.850   2.219   5.206
    1MOL     H7  224   2.796   2.301   5.204
    1MOL     C5  225   2.704   2.059   5.314
    1MOL     H8  226   2.617   2.120   5.286
    1MOL     O4  227   2.726   1.958   5.216
    1MOL     H9  228   2.761   2.004   5.138
    1MOL     C6  229   2.670   1.990   5.446
    1MOL    H10  230   2.747   1.916   5.471
    1MOL     O5  231   2.544   1.925   5.423
    1MOL     C7  232   2.524   1.791   5.463
    1MOL    H11  233   2.619   1.743   5.488
    1MOL     O6  234   2.445   1.783   5.580
    1MOL     C8  235   2.316   1.847   5.569
    1MOL    H12  236   2.330   1.953   5.541
    1MOL     C9  237   2.253   1.843   5.707
    1MOL    H13  238   2.269   1.744   5.751
    1MOL    H14  239   2.145   1.861   5.698
    1MOL     O7  240   2.315   1.944   5.787
    1MOL    H15  241   2.292   1.929   5.880
    1MOL    C10  242   2.454   1.721   5.347
    1MOL    H16  243   2.443   1.615   5.372
    1MOL     O8  244   2.527   1.726   5.226
    1MOL    H17  245   2.573   1.813   5.221
    1MOL    C11  246   2.314   1.781   5.329
    1MOL    H18  247   2.325   1.885   5.297
    1MOL     O9  248   2.241   1.708   5.230
    1MOL    H19  249   2.302   1.698   5.154
    1MOL    C12  250   2.233   1.779   5.458
    1MOL    H20  251   2.210   1.676   5.487
    1MOL    O10  252   2.114   1.853   5.435
    1MOL    C13  253   1.986   1.793   5.454
    1MOL    H21  254   1.998   1.686   5.474
    1MOL    O11  255   1.920   1.847   5.566
    1MOL    C14  256   1.894   1.988   5.560
    1MOL    H22  257   1.990   2.042   5.561
    1MOL    C15  258   1.817   2.025   5.686
    1MOL    H23  259   1.813   2.135   5.692
    1MOL    H24  260   1.873   1.987   5.773
    1MOL    O12  261   1.687   1.969   5.680
    1MOL    H25  262   1.633   2.011   5.748
    1MOL    C16  263   1.904   1.817   5.327
    1MOL    H26  264   1.806   1.770   5.341
    1MOL    O13  265   1.959   1.759   5.210
    1MOL    H27  266   2.057   1.762   5.214
    1MOL    C17  267   1.884   1.967   5.309
    1MOL    H28  268   1.982   2.014   5.295
    1MOL    O14  269   1.801   1.994   5.196
    1MOL    H29  270   1.834   1.937   5.124
    1MOL    C18  271   1.818   2.028   5.432
    1MOL    H30  272   1.714   1.994   5.439
    1MOL    O15  273   1.824   2.170   5.416
    1MOL    C19  274   1.708   2.249   5.432
    1MOL    H31  275   1.619   2.186   5.445
    1MOL    O16  276   1.716   2.330   5.547
    1MOL    C20  277   1.831   2.417   5.552
    1MOL    H32  278   1.922   2.356   5.554
    1MOL    C21  279   1.824   2.496   5.681
    1MOL    H33  280   1.921   2.545   5.697
    1MOL    H34  281   1.807   2.425   5.764
    1MOL    O17  282   1.718   2.591   5.673
    1MOL    H35  283   1.726   2.650   5.749
    1MOL    C22  284   1.696   2.337   5.306
    1MOL    H36  285   1.607   2.399   5.317
    1MOL    O18  286   1.681   2.263   5.187
    1MOL    H37  287   1.738   2.184   5.190
    1MOL    C23  288   1.819   2.428   5.299
    1MOL    H38  289   1.908   2.365   5.285
    1MOL    O19  290   1.808   2.520   5.191
    1MOL    H39  291   1.779   2.468   5.114
    1MOL    C24  292   1.838   2.508   5.427
    1MOL    H40  293   1.761   2.585   5.433
    1MOL    O20  294   1.968   2.567   5.417
    1MOL    C25  295   1.990   2.700   5.458
    1MOL    H41  296   1.895   2.748   5.486
    1MOL    O21  297   2.071   2.706   5.573
    1MOL    C26  298   2.200   2.641   5.558
    1MOL    H42  299   2.182   2.537   5.529
    1MOL    C27  300   2.271   2.643   5.695
    1MOL    H43  301   2.328   2.551   5.707
    1MOL    H44  302   2.193   2.644   5.772
    1MOL    O22  303   2.354   2.756   5.715
    1MOL    H45  304   2.445   2.726   5.698
    1MOL    C28  305   2.057   2.772   5.340
    1MOL    H46  306   2.069   2.878   5.366
    1MOL    O23  307   1.980   2.768   5.221
    1MOL    H47  308   1.942   2.678   5.211
    1MOL    C29  309   2.196   2.711   5.317
    1MOL    H48  310   2.184   2.607   5.284
    1MOL    O24  311   2.268   2.785   5.218
    1MOL    H49  312   2.205   2.798   5.145
    1MOL    C30  313   2.277   2.712   5.446
    1MOL    H50  314   2.299   2.815   5.477
    1MOL    O25  315   2.399   2.643   5.417
    1MOL    C31  316   2.522   2.702   5.451
    1MOL    H51  317   2.509   2.808   5.476
    1MOL    O26  318   2.579   2.642   5.567
    1MOL    C32  319   2.600   2.499   5.556
    1MOL    H52  320   2.504   2.450   5.535
    1MOL    C33  321   2.650   2.451   5.693
    1MOL    H53  322   2.705   2.534   5.740
    1MOL    H54  323   2.720   2.368   5.680
    1MOL    O27  324   2.543   2.414   5.779
    1MOL    H55  325   2.538   2.316   5.778
    1MOL    C34  326   2.616   2.684   5.331
    1MOL    H56  327   2.711   2.735   5.354
    1MOL    O28  328   2.566   2.743   5.212
    1MOL    H57  329   2.468   2.735   5.212
    1MOL    C35  330   2.644   2.535   5.310
    1MOL    H58  331   2.549   2.487   5.284
    1MOL    O29  332   2.740   2.514   5.207
    1MOL    H59  333   2.712   2.570   5.133
    1MOL    C36  334   2.694   2.469   5.438
    1MOL    H60  335   2.797   2.503   5.460
    1MOL    O30  336   2.695   2.329   5.409
    2SOL     OW  337   0.230   0.628   0.113
    2SOL    HW1  338   0.137   0.626   0.150
    2SOL    HW2  339   0.231   0.589   0.021
    3SOL     OW  340   0.225   0.275   0.996
    3SOL    HW1  341   0.260   0.258   1.088
    3SOL    HW2  342   0.137   0.230   0.984
    4SOL     OW  343   0.019   0.368   0.647
    4SOL    HW1  344  -0.063   0.411   0.686
    4SOL    HW2  345  -0.009   0.295   0.584
    5SOL     OW  346   0.569   1.275   1.165
    5SOL    HW1  347   0.476   1.268   1.128
    5SOL    HW2  348   0.580   1.364   1.209
    6SOL     OW  349   1.555   1.511   0.703
    6SOL    HW1  350   1.498   1.495   0.784
    6SOL    HW2  351   1.496   1.521   0.623
    7SOL     OW  352   1.135   0.703   0.717
    7SOL    HW1  353   1.192   0.781   0.692
    7SOL    HW2  354   1.075   0.729   0.793
    8SOL     OW  355   1.755   0.607   0.231
    8SOL    HW1  356   1.743   0.594   0.132
    8SOL    HW2  357   1.725   0.526   0.280
    9SOL     OW  358   0.768   1.144   1.023
    9SOL    HW1  359   0.690   1.161   1.083
    9SOL    HW2  360   0.802   1.231   0.987
   10SOL     OW  361   0.850   0.798   1.823
   10SOL    HW1  362   0.846   0.874   1.888
   10SOL    HW2  363   0.872   0.834   1.732
   11SOL     OW  364   0.685   1.012   0.665
   11SOL    HW1  365   0.754   0.996   0.735
   11SOL    HW2  366   0.612   1.069   0.703
   12SOL     OW  367   0.686   1.161   1.803
   12SOL    HW1  368   0.746   1.240   1.817
   12SOL    HW2  369   0.600   1.192   1.762
   13SOL     OW  370   0.335   1.435   1.061
   13SOL    HW1  371   0.257   1.404   1.008
   13SOL    HW2  372   0.393   1.493   1.004
   14SOL     OW  373   1.460   1.505   1.339
   14SOL    HW1  374   1.484   1.599   1.365
   14SOL    HW2  375   1.444   1.451   1.421
   15SOL     OW  376   0.438   0.392   1.499
   15SOL    HW1  377   0.520   0.336   1.508
   15SOL    HW2  378   0.357   0.334   1.503
   16SOL     OW  379   1.603   0.447   0.737
   16SOL    HW1  380   1.529   0.493   0.687
   16SOL    HW2  381   1.654   0.515   0.790
   17SOL     OW  382   0.231   1.713   0.483
   17SOL    HW1  383   0.265   1.790   0.537
   17SOL    HW2  384   0.275   1.713   0.393
   18SOL     OW  385   1.127   1.341   1.690
   18SOL    HW1  386   1.174   1.341   1.778
   18SOL    HW2  387   1.079   1.254   1.679
   19SOL     OW  388   0.230   1.434   0.538
   19SOL    HW1  389   0.204   1.530   0.538
   19SOL    HW2  390   0.159   1.380   0.583
   20SOL     OW  391   0.240   1.091   0.886
   20SOL    HW1  392   0.254   1.007   0.938
   20SOL    HW2  393   0.185   1.155   0.941
   21SOL     OW  394   0.620   1.786   1.439
   21SOL    HW1  395   0.528   1.769   1.474
   21SOL    HW2  396   0.648   1.878   1.465
   22SOL     OW  397   0.606   0.964   0.123
   22SOL    HW1  398   0.613   1.048   0.069
   22SOL    HW2  399   0.652   0.977   0.211
   23SOL     OW  400   1.594   0.114   1.480
   23SOL    HW1  401   1.576   0.181   1.408
   23SOL    HW2  402   1.591   0.160   1.569
   24SOL     OW  403   0.122   0.643   0.563
   24SOL    HW1  404   0.077   0.555   0.580
   24SOL    HW2  405   0.121   0.697   0.647
   25SOL     OW  406   1.842   1.767   0.359
   25SOL    HW1  407   1.896   1.738   0.439
   25SOL    HW2  408   1.872   1.857   0.330
   26SOL     OW  409   0.027   1.596   0.117
   26SOL    HW1  410   0.008   1.500   0.138
   26SOL    HW2  411  -0.006   1.654   0.192
   27SOL     OW  412   1.689   0.922   0.612
   27SOL    HW1  413   1.784   0.893   0.620
   27SOL    HW2  414   1.681   0.987   0.537
   28SOL     OW  415   1.641   1.108   0.432
   28SOL    HW1  416   1.727   1.110   0.380
   28SOL    HW2  417   1.655   1.155   0.520
   29SOL     OW  418   0.113   0.737   1.597
   29SOL    HW1  419   0.201   0.724   1.642
   29SOL    HW2  420   0.100   0.834   1.575
   30SOL     OW  421   0.613   1.365   0.726
   30SOL    HW1  422   0.564   1.278   0.735
   30SOL    HW2  423   0.590   1.408   0.639
   31SOL     OW  424   1.293   1.228   1.423
   31SOL    HW1  425   1.330   1.155   1.365
   31SOL    HW2  426   1.345   1.233   1.508
   32SOL     OW  427   0.809   0.004   0.502
   32SOL    HW1  428   0.849   0.095   0.493
   32SOL    HW2  429   0.709   0.012   0.508
   33SOL     OW  430   0.197   0.976   1.264
   33SOL    HW1  431   0.286   0.931   1.250
   33SOL    HW2  432   0.124   0.911   1.245
   34SOL     OW  433   1.525   0.999   0.190
   34SOL    HW1  434   1.462   0.923   0.203
   34SOL    HW2  435   1.573   1.017   0.276
   35SOL     OW  436   1.187   1.792   1.616
   35SOL    HW1  437   1.211   1.852   1.540
   35SOL    HW2  438   1.194   1.697   1.586
   36SOL     OW  439   0.317   0.251   1.801
   36SOL    HW1  440   0.388   0.322   1.807
   36SOL    HW2  441   0.229   0.290   1.829
   37SOL     OW  442   1.466   1.417   0.953
   37SOL    HW1  443   1.407   1.423   1.033
   37SOL    HW2  444   1.451   1.329   0.907
   38SOL     OW  445   1.667   1.714   0.572
   38SOL    HW1  446   1.626   1.691   0.484
   38SOL    HW2  447   1.649   1.640   0.637
   39SOL     OW  448   0.598   0.729   0.270
   39SOL    HW1  449   0.622   0.798   0.202
   39SOL    HW2  450   0.520   0.762   0.324
   40SOL     OW  451   1.281   0.345   0.944
   40SOL    HW1  452   1.195   0.295   0.931
   40SOL    HW2  453   1.343   0.291   1.000
   41SOL     OW  454   1.576   1.662   0.307
   41SOL    HW1  455   1.665   1.708   0.310
   41SOL    HW2  456   1.555   1.638   0.212
   42SOL     OW  457   0.807   0.605   1.465
   42SOL    HW1  458   0.760   0.602   1.554
   42SOL    HW2  459   0.756   0.550   1.399
   43SOL     OW  460   1.394   0.469   1.674
   43SOL    HW1  461   1.374   0.512   1.762
   43SOL    HW2  462   1.472   0.407   1.683
   44SOL     OW  463   0.973   0.890   1.572
   44SOL    HW1  464   1.019   0.806   1.543
   44SOL    HW2  465   0.917   0.924   1.497
   45SOL     OW  466   0.991   0.410   1.242
   45SOL    HW1  467   0.914   0.444   1.296
   45SOL    HW2  468   0.957   0.359   1.163
   46SOL     OW  469   1.041   0.701   0.429
   46SOL    HW1  470   1.067   0.697   0.525
   46SOL    HW2  471   0.956   0.650   0.415
   47SOL     OW  472   0.076   0.811   0.789
   47SOL    HW1  473   0.175   0.799   0.798
   47SOL    HW2  474   0.052   0.906   0.810
   48SOL     OW  475   0.130   1.821   1.571
   48SOL    HW1  476   0.120   1.806   1.670
   48SOL    HW2  477   0.044   1.857   1.535
   49SOL     OW  478   0.865   0.348   0.195
   49SOL    HW1  479   0.924   0.411   0.146
   49SOL    HW2  480   0.884   0.254   0.166
   50SOL     OW  481   1.719   0.585   1.831
   50SOL    HW1  482   1.693   0.674   1.795
   50SOL    HW2  483   1.717   0.517   1.758
   51SOL     OW  484   1.362   1.144   0.545
   51SOL    HW1  485   1.445   1.115   0.497
   51SOL    HW2  486   1.313   1.211   0.489
   52SOL     OW  487   0.550   0.196   0.885
   52SOL    HW1  488   0.545   0.191   0.985
   52SOL    HW2  489   0.552   0.292   0.856
   53SOL     OW  490   1.008   1.456   0.477
   53SOL    HW1  491   0.962   1.528   0.425
   53SOL    HW2  492   1.004   1.476   0.575
   54SOL     OW  493   0.351   1.801   0.853
   54SOL    HW1  494   0.401   1.715   0.859
   54SOL    HW2  495   0.416   1.878   0.850
   55SOL     OW  496   1.795   1.066   0.873
   55SOL    HW1  497   1.733   1.051   0.797
   55SOL    HW2  498   1.743   1.077   0.958
   56SOL     OW  499   1.227   1.550   1.506
   56SOL    HW1  500   1.233   1.473   1.570
   56SOL    HW2  501   1.175   1.524   1.426
   57SOL     OW  502   0.321   0.943   0.242
   57SOL    HW1  503   0.403   0.982   0.200
   57SOL    HW2  504   0.294   0.861   0.193
   58SOL     OW  505   1.458   0.735   0.728
   58SOL    HW1  506   1.453   0.670   0.803
   58SOL    HW2  507   1.538   0.794   0.741
   59SOL     OW  508   0.461   1.266   1.727
   59SOL    HW1  509   0.411   1.267   1.641
   59SOL    HW2  510   0.398   1.248   1.803
   60SOL     OW  511   1.111   1.776   0.237
   60SOL    HW1  512   1.051   1.714   0.287
   60SOL    HW2  513   1.142   1.732   0.152
   61SOL     OW  514   0.202   0.285   1.498
   61SOL    HW1  515   0.122   0.345   1.485
   61SOL    HW2  516   0.192   0.236   1.584
   62SOL     OW  517   1.632   1.377   0.081
   62SOL    HW1  518   1.600   1.471   0.071
   62SOL    HW2  519   1.556   1.314   0.069
   63SOL     OW  520   0.464   1.743   0.323
   63SOL    HW1  521   0.497   1.782   0.409
   63SOL    HW2  522   0.540   1.736   0.258
   64SOL     OW  523   1.400   0.107   0.426
   64SOL    HW1  524   1.376   0.070   0.336
   64SOL    HW2  525   1.499   0.123   0.430
   65SOL     OW  526   0.249   1.785   1.241
   65SOL    HW1  527   0.306   1.720   1.291
   65SOL    HW2  528   0.233   1.752   1.148
   66SOL     OW  529   0.940   1.698   0.904
   66SOL    HW1  530   1.020   1.641   0.925
   66SOL    HW2  531   0.891   1.658   0.827
   67SOL     OW  532   0.382   0.700   0.480
   67SOL    HW1  533   0.427   0.610   0.477
   67SOL    HW2  534   0.288   0.689   0.513
   68SOL     OW  535   1.547   0.222   1.729
   68SOL    HW1  536   1.542   0.259   1.821
   68SOL    HW2  537   1.475   0.153   1.717
   69SOL     OW  538   0.614   0.122   0.117
   69SOL    HW1  539   0.712   0.100   0.124
   69SOL    HW2  540   0.583   0.105   0.024
   70SOL     OW  541   0.781   0.264   1.749
   70SOL    HW1  542   0.848   0.203   1.792
   70SOL    HW2  543   0.708   0.283   1.814
   71SOL     OW  544   0.888   1.514   1.195
   71SOL    HW1  545   0.865   1.489   1.101
   71SOL    HW2  546   0.949   1.445   1.234
   72SOL     OW  547   1.351   0.590   1.433
   72SOL    HW1  548   1.379   0.547   1.518
   72SOL    HW2  549   1.376   0.686   1.434
   73SOL     OW  550   0.803   1.402   0.924
   73SOL    HW1  551   0.893   1.416   0.882
   73SOL    HW2  552   0.732   1.404   0.853
   74SOL     OW  553   0.922   0.503   0.899
   74SOL    HW1  554   0.897   0.494   0.803
   74SOL    HW2  555   0.970   0.421   0.930
   75SOL     OW  556   0.539   0.064   0.512
   75SOL    HW1  557   0.458   0.065   0.570
   75SOL    HW2  558   0.542   0.147   0.457
   76SOL     OW  559   1.434   1.188   0.041
   76SOL    HW1  560   1.466   1.112   0.098
   76SOL    HW2  561   1.342   1.215   0.071
   77SOL     OW  562   0.297   0.035   0.171
   77SOL    HW1  563   0.346   0.119   0.150
   77SOL    HW2  564   0.359  -0.030   0.216
   78SOL     OW  565   0.935   0.236   0.480
   78SOL    HW1  566   0.887   0.277   0.402
   78SOL    HW2  567   1.034   0.234   0.461
   79SOL     OW  568   1.076   0.683   1.464
   79SOL    HW1  569   0.996   0.622   1.467
   79SOL    HW2  570   1.157   0.630   1.440
   80SOL     OW  571   1.227   1.570   0.793
   80SOL    HW1  572   1.248   1.644   0.728
   80SOL    HW2  573   1.295   1.570   0.866
   81SOL     OW  574   0.459   1.152   0.741
   81SOL    HW1  575   0.388   1.125   0.806
   81SOL    HW2  576   0.433   1.124   0.648
   82SOL     OW  577   1.271   1.797   0.591
   82SOL    HW1  578   1.315   1.861   0.527
   82SOL    HW2  579   1.221   1.849   0.661
   83SOL     OW  580   1.032   0.549   0.016
   83SOL    HW1  581   0.991   0.631  -0.023
   83SOL    HW2  582   1.096   0.575   0.089
   84SOL     OW  583   0.078   0.556   1.386
   84SOL    HW1  584   0.170   0.555   1.345
   84SOL    HW2  585   0.072   0.630   1.453
   85SOL     OW  586   0.561   0.222   1.147
   85SOL    HW1  587   0.599   0.138   1.184
   85SOL    HW2  588   0.473   0.241   1.191
   86SOL     OW  589   0.866   0.454   0.642
   86SOL    HW1  590   0.834   0.526   0.580
   86SOL    HW2  591   0.890   0.373   0.589
   87SOL     OW  592   1.017   0.039   0.753
   87SOL    HW1  593   0.945   0.044   0.684
   87SOL    HW2  594   0.993  -0.030   0.822
   88SOL     OW  595   1.429   1.173   0.867
   88SOL    HW1  596   1.374   1.089   0.860
   88SOL    HW2  597   1.455   1.202   0.775
   89SOL     OW  598   1.466   0.590   0.992
   89SOL    HW1  599   1.436   0.495   0.999
   89SOL    HW2  600   1.539   0.606   1.058
   90SOL     OW  601   1.857   0.833   0.377
   90SOL    HW1  602   1.899   0.769   0.441
   90SOL    HW2  603   1.819   0.782   0.299
   91SOL     OW  604   0.488   1.385   0.174
   91SOL    HW1  605   0.401   1.370   0.221
   91SOL    HW2  606   0.471   1.411   0.079
   92SOL     OW  607   1.664   1.280   0.657
   92SOL    HW1  608   1.763   1.288   0.671
   92SOL    HW2  609   1.619   1.364   0.688
   93SOL     OW  610   1.390   0.575   0.078
   93SOL    HW1  611   1.336   0.554   0.159
   93SOL    HW2  612   1.481   0.534   0.087
   94SOL     OW  613   0.527   0.256   0.328
   94SOL    HW1  614   0.554   0.197   0.253
   94SOL    HW2  615   0.527   0.351   0.297
   95SOL     OW  616   1.754   1.223   1.588
   95SOL    HW1  617   1.845   1.184   1.575
   95SOL    HW2  618   1.762   1.319   1.612
   96SOL     OW  619   1.064   1.347   1.340
   96SOL    HW1  620   0.984   1.324   1.395
   96SOL    HW2  621   1.147   1.321   1.389
   97SOL     OW  622   1.592   1.629   1.625
   97SOL    HW1  623   1.619   1.663   1.535
   97SOL    HW2  624   1.671   1.591   1.671
   98SOL     OW  625   1.111   1.195   1.100
   98SOL    HW1  626   1.071   1.239   1.181
   98SOL    HW2  627   1.070   1.232   1.017
   99SOL     OW  628   1.638   1.099   1.079
   99SOL    HW1  629   1.643   1.180   1.138
   99SOL    HW2  630   1.552   1.101   1.028
  100SOL     OW  631   0.915   0.089   1.402
  100SOL    HW1  632   0.940   0.069   1.307
  100SOL    HW2  633   0.987   0.145   1.444
  101SOL     OW  634   0.980   1.116   1.719
  101SOL    HW1  635   0.881   1.122   1.729
  101SOL    HW2  636   1.003   1.036   1.663
  102SOL     OW  637   0.705   1.050   0.368
  102SOL    HW1  638   0.691   1.057   0.467
  102SOL    HW2  639   0.789   0.999   0.350
  103SOL     OW  640   0.410   0.813   1.251
  103SOL    HW1  641   0.496   0.825   1.301
  103SOL    HW2  642   0.368   0.726   1.278
  104SOL     OW  643   1.274   0.386   1.262
  104SOL    HW1  644   1.295   0.460   1.326
  104SOL    HW2  645   1.185   0.403   1.219
  105SOL     OW  646   0.064   1.564   1.331
  105SOL    HW1  647   0.018   1.646   1.297
  105SOL    HW2  648   0.162   1.583   1.340
  106SOL     OW  649   0.367   1.100   0.501
  106SOL    HW1  650   0.360   1.183   0.445
  106SOL    HW2  651   0.371   1.020   0.441
  107SOL     OW  652   0.566   0.537   0.865
  107SOL    HW1  653   0.578   0.603   0.791
  107SOL    HW2  654   0.612   0.571   0.948
  108SOL     OW  655   1.252   1.348   0.388
  108SOL    HW1  656   1.302   1.425   0.428
  108SOL    HW2  657   1.157   1.350   0.420
  109SOL     OW  658   1.272   1.445   1.142
  109SOL    HW1  659   1.319   1.458   1.229
  109SOL    HW2  660   1.206   1.371   1.151
  110SOL     OW  661   1.582   0.639   0.472
  110SOL    HW1  662   1.551   0.700   0.545
  110SOL    HW2  663   1.632   0.691   0.403
  111SOL     OW  664   0.354   1.510   1.329
  111SOL    HW1  665   0.333   1.466   1.242
  111SOL    HW2  666   0.451   1.536   1.332
  112SOL     OW  667   0.402   0.751   1.598
  112SOL    HW1  668   0.470   0.806   1.551
  112SOL    HW2  669   0.442   0.663   1.625
  113SOL     OW  670   1.587   0.779   1.670
  113SOL    HW1  671   1.495   0.817   1.665
  113SOL    HW2  672   1.647   0.826   1.605
  114SOL     OW  673   1.013   0.105   1.770
  114SOL    HW1  674   1.019   0.190   1.718
  114SOL    HW2  675   1.045   0.029   1.713
  115SOL     OW  676   0.504   0.050   1.740
  115SOL    HW1  677   0.462  -0.007   1.670
  115SOL    HW2  678   0.438   0.119   1.772
  116SOL     OW  679   0.573   0.870   1.029
  116SOL    HW1  680   0.617   0.959   1.020
  116SOL    HW2  681   0.510   0.870   1.106
  117SOL     OW  682   1.360   0.862   1.045
  117SOL    HW1  683   1.285   0.862   0.979
  117SOL    HW2  684   1.397   0.770   1.054
  118SOL     OW  685   1.209   0.525   0.275
  118SOL    HW1  686   1.222   0.441   0.329
  118SOL    HW2  687   1.180   0.599   0.335
  119SOL     OW  688   0.307   0.213   1.231
  119SOL    HW1  689   0.284   0.250   1.321
  119SOL    HW2  690   0.277   0.118   1.225
  120SOL     OW  691   0.037   1.310   1.282
  120SOL    HW1  692   0.090   1.261   1.350
  120SOL    HW2  693   0.059   1.408   1.287
  121SOL     OW  694   0.732   0.634   1.064
  121SOL    HW1  695   0.791   0.608   0.988
  121SOL    HW2  696   0.704   0.730   1.053
  122SOL     OW  697   1.728   0.935   1.854
  122SOL    HW1  698   1.682   0.928   1.765
  122SOL    HW2  699   1.666   0.979   1.920
  123SOL     OW  700   0.307   0.063   0.618
  123SOL    HW1  701   0.296   0.157   0.651
  123SOL    HW2  702   0.302   0.000   0.695
  124SOL     OW  703   1.622   0.367   0.374
  124SOL    HW1  704   1.624   0.291   0.438
  124SOL    HW2  705   1.574   0.444   0.414
  125SOL     OW  706   1.023   0.766   0.966
  125SOL    HW1  707   1.038   0.787   1.062
  125SOL    HW2  708   0.993   0.671   0.957
  126SOL     OW  709   0.980   1.573   1.700
  126SOL    HW1  710   0.960   1.617   1.612
  126SOL    HW2  711   1.019   1.482   1.684
  127SOL     OW  712   1.859   1.518   1.605
  127SOL    HW1  713   1.873   1.545   1.510
  127SOL    HW2  714   1.942   1.540   1.658
  128SOL     OW  715   0.350   0.898   1.804
  128SOL    HW1  716   0.426   0.942   1.852
  128SOL    HW2  717   0.385   0.851   1.722
  129SOL     OW  718   1.540   0.274   0.125
  129SOL    HW1  719   1.479   0.199   0.148
  129SOL    HW2  720   1.562   0.326   0.208
  130SOL     OW  721   1.303   0.838   0.042
  130SOL    HW1  722   1.337   0.745   0.057
  130SOL    HW2  723   1.321   0.865  -0.053
  131SOL     OW  724   1.068   1.333   0.849
  131SOL    HW1  725   1.075   1.249   0.794
  131SOL    HW2  726   1.130   1.402   0.813
  132SOL     OW  727   0.319   0.810   0.949
  132SOL    HW1  728   0.412   0.846   0.954
  132SOL    HW2  729   0.313   0.725   1.001
  133SOL     OW  730   0.339   0.509   1.006
  133SOL    HW1  731   0.287   0.426   0.989
  133SOL    HW2  732   0.416   0.514   0.942
  134SOL     OW  733   1.138   0.380   1.678
  134SOL    HW1  734   1.093   0.443   1.742
  134SOL    HW2  735   1.231   0.411   1.661
  135SOL     OW  736   1.160   0.207   1.477
  135SOL    HW1  737   1.160   0.271   1.554
  135SOL    HW2  738   1.188   0.255   1.394
  136SOL     OW  739   0.008   1.326   0.200
  136SOL    HW1  740  -0.085   1.347   0.169
  136SOL    HW2  741   0.018   1.227   0.213
  137SOL     OW  742   0.088   1.801   0.927
  137SOL    HW1  743   0.046   1.715   0.900
  137SOL    HW2  744   0.182   1.804   0.893
  138SOL     OW  745   0.504   1.568   0.910
  138SOL    HW1  746   0.570   1.642   0.919
  138SOL    HW2  747   0.548   1.489   0.868
  139SOL     OW  748   1.002   0.796   1.238
  139SOL    HW1  749   1.043   0.764   1.324
  139SOL    HW2  750   0.906   0.769   1.235
  140SOL     OW  751   0.040   0.544   1.114
  140SOL    HW1  752   0.125   0.511   1.073
  140SOL    HW2  753   0.053   0.559   1.212
  141SOL     OW  754   0.189   0.520   1.722
  141SOL    HW1  755   0.248   0.480   1.652
  141SOL    HW2  756   0.131   0.591   1.681
  142SOL     OW  757   1.369   0.950   1.660
  142SOL    HW1  758   1.408   1.039   1.680
  142SOL    HW2  759   1.379   0.930   1.563
  143SOL     OW  760   0.815   0.572   0.325
  143SOL    HW1  761   0.822   0.483   0.279
  143SOL    HW2  762   0.721   0.606   0.317
  144SOL     OW  763   1.657   0.604   1.206
  144SOL    HW1  764   1.619   0.535   1.268
  144SOL    HW2  765   1.739   0.568   1.162
  145SOL     OW  766   0.252   1.564   1.744
  145SOL    HW1  767   0.222   1.621   1.820
  145SOL    HW2  768   0.245   1.467   1.770
  146SOL     OW  769   0.671   0.464   1.269
  146SOL    HW1  770   0.637   0.375   1.239
  146SOL    HW2  771   0.697   0.518   1.189
  147SOL     OW  772   0.930   1.678   1.465
  147SOL    HW1  773   0.906   1.660   1.370
  147SOL    HW2  774   0.960   1.772   1.475
  148SOL     OW  775   0.473   0.500   0.191
  148SOL    HW1  776   0.534   0.580   0.195
  148SOL    HW2  777   0.378   0.531   0.198
  149SOL     OW  778   0.159   1.137   1.466
  149SOL    HW1  779   0.181   1.076   1.542
  149SOL    HW2  780   0.169   1.088   1.380
  150SOL     OW  781   1.347   1.059   1.234
  150SOL    HW1  782   1.371   0.996   1.160
  150SOL    HW2  783   1.257   1.099   1.216
  151SOL     OW  784   1.302   0.855   0.309
  151SOL    HW1  785   1.216   0.824   0.351
  151SOL    HW2  786   1.298   0.841   0.210
  152SOL     OW  787   1.759   1.747   1.154
  152SOL    HW1  788   1.820   1.777   1.081
  152SOL    HW2  789   1.721   1.658   1.132
  153SOL     OW  790   1.252   1.731   1.128
  153SOL    HW1  791   1.336   1.736   1.074
  153SOL    HW2  792   1.229   1.635   1.146
  154SOL     OW  793   0.083   1.258   1.022
  154SOL    HW1  794   0.078   1.257   1.122
  154SOL    HW2  795   0.000   1.217   0.984
  155SOL     OW  796   0.688   1.662   1.716
  155SOL    HW1  797   0.632   1.743   1.725
  155SOL    HW2  798   0.740   1.666   1.630
  156SOL     OW  799   0.903   0.086   0.133
  156SOL    HW1  800   0.954   0.087   0.047
  156SOL    HW2  801   0.959   0.044   0.204
  157SOL     OW  802   1.726   0.135   0.523
  157SOL    HW1  803   1.799   0.118   0.456
  157SOL    HW2  804   1.695   0.048   0.561
  158SOL     OW  805   1.388   1.573   0.477
  158SOL    HW1  806   1.455   1.585   0.403
  158SOL    HW2  807   1.348   1.662   0.500
  159SOL     OW  808   0.130   1.794   1.851
  159SOL    HW1  809   0.089   1.720   1.904
  159SOL    HW2  810   0.194   1.845   1.909
  160SOL     OW  811   1.280   0.927   0.672
  160SOL    HW1  812   1.340   0.846   0.674
  160SOL    HW2  813   1.320   0.996   0.612
  161SOL     OW  814   0.830   1.273   1.422
  161SOL    HW1  815   0.825   1.306   1.517
  161SOL    HW2  816   0.744   1.292   1.376
  162SOL     OW  817   0.672   1.616   0.154
  162SOL    HW1  818   0.681   1.626   0.055
  162SOL    HW2  819   0.632   1.527   0.175
  163SOL     OW  820   1.650   1.720   1.394
  163SOL    HW1  821   1.703   1.730   1.310
  163SOL    HW2  822   1.623   1.810   1.428
  164SOL     OW  823   1.841   0.175   0.963
  164SOL    HW1  824   1.880   0.090   0.927
  164SOL    HW2  825   1.743   0.177   0.944
  165SOL     OW  826   0.263   0.326   0.720
  165SOL    HW1  827   0.184   0.377   0.686
  165SOL    HW2  828   0.254   0.311   0.818
  166SOL     OW  829   1.194   1.612   0.031
  166SOL    HW1  830   1.200   1.519   0.068
  166SOL    HW2  831   1.135   1.612  -0.049
  167SOL     OW  832   0.822   1.002   1.372
  167SOL    HW1  833   0.862   1.001   1.280
  167SOL    HW2  834   0.832   1.094   1.412
  168SOL     OW  835   0.916   0.910   0.291
  168SOL    HW1  836   0.979   0.948   0.223
  168SOL    HW2  837   0.956   0.827   0.330
  169SOL     OW  838   1.504   1.607   0.044
  169SOL    HW1  839   1.412   1.644   0.051
  169SOL    HW2  840   1.542   1.627  -0.046
  170SOL     OW  841   0.372   1.288   1.490
  170SOL    HW1  842   0.359   1.381   1.456
  170SOL    HW2  843   0.288   1.236   1.477
  171SOL     OW  844   1.614   1.292   1.289
  171SOL    HW1  845   1.674   1.295   1.369
  171SOL    HW2  846   1.539   1.356   1.302
  172SOL     OW  847   1.039   1.098   0.696
  172SOL    HW1  848   0.969   1.051   0.750
  172SOL    HW2  849   1.098   1.030   0.653
  173SOL     OW  850   1.014   0.236   0.971
  173SOL    HW1  851   1.006   0.200   0.878
  173SOL    HW2  852   1.012   0.160   1.036
  174SOL     OW  853   0.590   1.487   0.491
  174SOL    HW1  854   0.632   1.429   0.421
  174SOL    HW2  855   0.546   1.566   0.447
  175SOL     OW  856   1.709   0.385   1.381
  175SOL    HW1  857   1.782   0.454   1.385
  175SOL    HW2  858   1.737   0.310   1.322
  176SOL     OW  859   0.255   1.348   0.290
  176SOL    HW1  860   0.159   1.349   0.263
  176SOL    HW2  861   0.267   1.401   0.374
  177SOL     OW  862   0.105   1.013   1.726
  177SOL    HW1  863   0.028   0.980   1.780
  177SOL    HW2  864   0.190   0.983   1.768
  178SOL     OW  865   0.672   0.203   1.489
  178SOL    HW1  866   0.762   0.187   1.449
  178SOL    HW2  867   0.680   0.208   1.588
  179SOL     OW  868   0.075   0.345   0.033
  179SOL    HW1  869  -0.017   0.317   0.004
  179SOL    HW2  870   0.106   0.422  -0.023
  180SOL     OW  871   1.440   0.856   1.398
  180SOL    HW1  872   1.383   0.908   1.335
  180SOL    HW2  873   1.536   0.868   1.374
  181SOL     OW  874   0.072   0.166   0.318
  181SOL    HW1  875   0.055   0.249   0.264
  181SOL    HW2  876   0.162   0.129   0.296
  182SOL     OW  877   1.183   1.335   0.119
  182SOL    HW1  878   1.084   1.324   0.121
  182SOL    HW2  879   1.217   1.350   0.212
  183SOL     OW  880   0.613   0.842   1.431
  183SOL    HW1  881   0.669   0.923   1.414
  183SOL    HW2  882   0.672   0.762   1.434
  184SOL     OW  883   1.493   1.767   0.959
  184SOL    HW1  884   1.526   1.831   0.890
  184SOL    HW2  885   1.559   1.761   1.034
  185SOL     OW  886   0.716   0.565   1.708
  185SOL    HW1  887   0.735   0.630   1.782
  185SOL    HW2  888   0.776   0.485   1.717
  186SOL     OW  889   1.450   1.220   1.633
  186SOL    HW1  890   1.441   1.210   1.732
  186SOL    HW2  891   1.546   1.213   1.607
  187SOL     OW  892   0.390   1.741   1.560
  187SOL    HW1  893   0.299   1.782   1.558
  187SOL    HW2  894   0.383   1.647   1.592
  188SOL     OW  895   1.674   0.883   1.254
  188SOL    HW1  896   1.647   0.794   1.217
  188SOL    HW2  897   1.675   0.951   1.181
  189SOL     OW  898   1.225   0.325   0.449
  189SOL    HW1  899   1.290   0.251   0.438
  189SOL    HW2  900   1.245   0.375   0.533
  190SOL     OW  901   0.594   0.745   0.652
  190SOL    HW1  902   0.644   0.830   0.633
  190SOL    HW2  903   0.506   0.747   0.604
  191SOL     OW  904   1.777   0.342   1.642
  191SOL    HW1  905   1.760   0.373   1.548
  191SOL    HW2  906   1.693   0.305   1.680
  192SOL     OW  907   1.730   0.934   1.517
  192SOL    HW1  908   1.768   1.025   1.532
  192SOL    HW2  909   1.722   0.917   1.418
  193SOL     OW  910   0.859   1.374   0.016
  193SOL    HW1  911   0.813   1.389   0.104
  193SOL    HW2  912   0.903   1.459  -0.014
  194SOL     OW  913   0.661   1.790   0.953
  194SOL    HW1  914   0.615   1.878   0.940
  194SOL    HW2  915   0.760   1.802   0.946
  195SOL     OW  916   0.859   0.956   0.861
  195SOL    HW1  917   0.913   0.887   0.909
  195SOL    HW2  918   0.827   1.025   0.927
  196SOL     OW  919   1.083   0.984   0.087
  196SOL    HW1  920   1.060   1.037   0.005
  196SOL    HW2  921   1.164   0.928   0.068
  197SOL     OW  922   1.861   1.569   0.851
  197SOL    HW1  923   1.790   1.557   0.781
  197SOL    HW2  924   1.862   1.490   0.911
  198SOL     OW  925   0.221   1.314   1.844
  198SOL    HW1  926   0.156   1.241   1.823
  198SOL    HW2  927   0.225   1.328   1.942
  199SOL     OW  928   0.079   1.240   0.653
  199SOL    HW1  929   0.078   1.193   0.741
  199SOL    HW2  930   0.161   1.212   0.602
  200SOL     OW  931   0.672   1.391   1.624
  200SOL    HW1  932   0.594   1.341   1.662
  200SOL    HW2  933   0.669   1.486   1.655
  201SOL     OW  934   1.824   0.192   1.227
  201SOL    HW1  935   1.820   0.102   1.271
  201SOL    HW2  936   1.827   0.181   1.128
  202SOL     OW  937   0.428   0.424   0.520
  202SOL    HW1  938   0.458   0.352   0.458
  202SOL    HW2  939   0.389   0.384   0.603
  203SOL     OW  940   1.705   1.487   1.104
  203SOL    HW1  941   1.612   1.462   1.077
  203SOL    HW2  942   1.731   1.437   1.186
  204SOL     OW  943   0.317   0.547   1.280
  204SOL    HW1  944   0.355   0.488   1.352
  204SOL    HW2  945   0.357   0.521   1.192
  205SOL     OW  946   0.812   1.586   0.687
  205SOL    HW1  947   0.844   1.596   0.593
  205SOL    HW2  948   0.733   1.524   0.689
  206SOL     OW  949   1.424   0.214   1.112
  206SOL    HW1  950   1.476   0.149   1.167
  206SOL    HW2  951   1.375   0.277   1.173
  207SOL     OW  952   1.001   0.034   1.154
  207SOL    HW1  953   0.938  -0.038   1.123
  207SOL    HW2  954   1.094  -0.002   1.154
  208SOL     OW  955   0.770   1.330   0.301
  208SOL    HW1  956   0.724   1.243   0.318
  208SOL    HW2  957   0.861   1.327   0.342
  209SOL     OW  958   0.618   1.567   1.284
  209SOL    HW1  959   0.613   1.649   1.341
  209SOL    HW2  960   0.707   1.564   1.239
  210SOL     OW  961   1.352   0.052   0.168
  210SOL    HW1  962   1.387   0.011   0.084
  210SOL    HW2  963   1.262   0.014   0.188
  211SOL     OW  964   1.300   0.453   0.691
  211SOL    HW1  965   1.241   0.533   0.695
  211SOL    HW2  966   1.315   0.418   0.784
  212SOL     OW  967   1.593   0.221   0.882
  212SOL    HW1  968   1.509   0.220   0.936
  212SOL    HW2  969   1.595   0.304   0.826
  213SOL     OW  970   0.039   1.077   0.300
  213SOL    HW1  971   0.138   1.066   0.291
  213SOL    HW2  972  -0.001   0.991   0.332
  214SOL     OW  973   0.875   1.646   0.337
  214SOL    HW1  974   0.798   1.611   0.283
  214SOL    HW2  975   0.843   1.717   0.399
  215SOL     OW  976   0.230   0.628   1.975
  215SOL    HW1  977   0.137   0.626   2.012
  215SOL    HW2  978   0.231   0.589   1.883
  216SOL     OW  979   0.225   0.275   2.858
  216SOL    HW1  980   0.260   0.258   2.950
  216SOL    HW2  981   0.137   0.230   2.846
  217SOL     OW  982   0.019   0.368   2.509
  217SOL    HW1  983  -0.063   0.411   2.548
  217SOL    HW2  984  -0.009   0.295   2.446
  218SOL     OW  985   0.569   1.275   3.027
  218SOL    HW1  986   0.476   1.268   2.990
  218SOL    HW2  987   0.580   1.364   3.071
  219SOL     OW  988   1.555   1.511   2.565
  219SOL    HW1  989   1.498   1.495   2.646
  219SOL    HW2  990   1.496   1.521   2.485
  220SOL     OW  991   1.135   0.703   2.579
  220SOL    HW1  992   1.192   0.781   2.554
  220SOL    HW2  993   1.075   0.729   2.655
  221SOL     OW  994   1.755   0.607   2.093
  221SOL    HW1  995   1.743   0.594   1.994
  221SOL    HW2  996   1.725   0.526   2.142
  222SOL     OW  997   0.768   1.144   2.885
  222SOL    HW1  998   0.690   1.161   2.945
  222SOL    HW2  999   0.802   1.231   2.849
  223SOL     OW 1000   0.850   0.798   3.685
  223SOL    HW1 1001   0.846   0.874   3.750
  223SOL    HW2 1002   0.872   0.834   3.594
  224SOL     OW 1003   0.685   1.012   2.527
  224SOL    HW1 1004   0.754   0.996   2.597
  224SOL    HW2 1005   0.612   1.069   2.565
  225SOL     OW 1006   0.686   1.161   3.665
  225SOL    HW1 1007   0.746   1.240   3.679
  225SOL    HW2 1008   0.600   1.192   3.624
  226SOL     OW 1009   0.335   1.435   2.923
  226SOL    HW1 1010   0.257   1.404   2.870
  226SOL    HW2 1011   0.393   1.493   2.866
  227SOL     OW 1012   1.460   1.505   3.201
  227SOL    HW1 1013   1.484   1.599   3.227
  227SOL    HW2 1014   1.444   1.451   3.283
  228SOL     OW 1015   0.438   0.392   3.361
  228SOL    HW1 1016   0.520   0.336   3.370
  228SOL    HW2 1017   0.357   0.334   3.365
  229SOL     OW 1018   1.603   0.447   2.599
  229SOL    HW1 1019   1.529   0.493   2.549
  229SOL    HW2 1020   1.654   0.515   2.652
  230SOL     OW 1021   0.231   1.713   2.345
  230SOL    HW1 1022   0.265   1.790   2.399
  230SOL    HW2 1023   0.275   1.713   2.255
  231SOL     OW 1024   1.127   1.341   3.552
  231SOL    HW1 1025   1.174   1.341   3.640
  231SOL    HW2 1026   1.079   1.254   3.541
  232SOL     OW 1027   0.230   1.434   2.400
  232SOL    HW1 1028   0.204   1.530   2.400
  232SOL    HW2 1029   0.159   1.380   2.445
  233SOL     OW 1030   0.240   1.091   2.748
  233SOL    HW1 1031   0.254   1.007   2.800
  233SOL    HW2 1032   0.185   1.155   2.803
  234SOL     OW 1033   0.620   1.786   3.301
  234SOL    HW1 1034   0.528   1.769   3.336
  234SOL    HW2 1035   0.648   1.878   3.327
  235SOL     OW 1036   0.606   0.964   1.985
  235SOL    HW1 1037   0.613   1.048   1.931
  235SOL    HW2 1038   0.652   0.977   2.073
  236SOL     OW 1039   1.594   0.114   3.342
  236SOL    HW1 1040   1.576   0.181   3.270
  236SOL    HW2 1041   1.591   0.160   3.431
  237SOL     OW 1042   0.122   0.643   2.425
  237SOL    HW1 1043   0.077   0.555   2.442
  237SOL    HW2 1044   0.121   0.697   2.509
  238SOL     OW 1045   1.842   1.767   2.221
  238SOL    HW1 1046   1.896   1.738   2.301
  238SOL    HW2 1047   1.872   1.857   2.192
  239SOL     OW 1048   0.027   1.596   1.979
  239SOL    HW1 1049   0.008   1.500   2.000
  239SOL    HW2 1050  -0.006   1.654   2.054
  240SOL     OW 1051   1.689   0.922   2.474
  240SOL    HW1 1052   1.784   0.893   2.482
  240SOL    HW2 1053   1.681   0.987   2.399
  241SOL     OW 1054   1.641   1.108   2.294
  241SOL    HW1 1055   1.727   1.110   2.242
  241SOL    HW2 1056   1.655   1.155   2.382
  242SOL     OW 1057   0.113   0.737   3.459
  242SOL    HW1 1058   0.201   0.724   3.504
  242SOL    HW2 1059   0.100   0.834   3.437
  243SOL     OW 1060   0.613   1.365   2.588
  243SOL    HW1 1061   0.564   1.278   2.597
  243SOL    HW2 1062   0.590   1.408   2.501
  244SOL     OW 1063   1.293   1.228   3.285
  244SOL    HW1 1064   1.330   1.155   3.227
  244SOL    HW2 1065   1.345   1.233   3.370
  245SOL     OW 1066   0.809   0.004   2.364
  245SOL    HW1 1067   0.849   0.095   2.355
  245SOL    HW2 1068   0.709   0.012   2.370
  246SOL     OW 1069   0.197   0.976   3.126
  246SOL    HW1 1070   0.286   0.931   3.112
  246SOL    HW2 1071   0.124   0.911   3.107
  247SOL     OW 1072   1.525   0.999   2.052
  247SOL    HW1 1073   1.462   0.923   2.065
  247SOL    HW2 1074   1.573   1.017   2.138
  248SOL     OW 1075   1.187   1.792   3.478
  248SOL    HW1 1076   1.211   1.852   3.402
  248SOL    HW2 1077   1.194   1.697   3.448
  249SOL     OW 1078   0.317   0.251   3.663
  249SOL    HW1 1079   0.388   0.322   3.669
  249SOL    HW2 1080   0.229   0.290   3.691
  250SOL     OW 1081   1.466   1.417   2.815
  250SOL    HW1 1082   1.407   1.423   2.895
  250SOL    HW2 1083   1.451   1.329   2.769
  251SOL     OW 1084   1.667   1.714   2.434
  251SOL    HW1 1085   1.626   1.691   2.346
  251SOL    HW2 1086   1.649   1.640   2.499
  252SOL     OW 1087   0.598   0.729   2.132
  252SOL    HW1 1088   0.622   0.798   2.064
  252SOL    HW2 1089   0.520   0.762   2.186
  253SOL     OW 1090   1.281   0.345   2.806
  253SOL    HW1 1091   1.195   0.295   2.793
  253SOL    HW2 1092   1.343   0.291   2.862
  254SOL     OW 1093   1.576   1.662   2.169
  254SOL    HW1 1094   1.665   1.708   2.172
  254SOL    HW2 1095   1.555   1.638   2.074
  255SOL     OW 1096   0.807   0.605   3.327
  255SOL    HW1 1097   0.760   0.602   3.416
  255SOL    HW2 1098   0.756   0.550   3.261
  256SOL     OW 1099   1.394   0.469   3.536
  256SOL    HW1 1100   1.374   0.512   3.624
  256SOL    HW2 1101   1.472   0.407   3.545
  257SOL     OW 1102   0.973   0.890   3.434
  257SOL    HW1 1103   1.019   0.806   3.405
  257SOL    HW2 1104   0.917   0.924   3.359
  258SOL     OW 1105   0.991   0.410   3.104
  258SOL    HW1 1106   0.914   0.444   3.158
  258SOL    HW2 1107   0.957   0.359   3.025
  259SOL     OW 1108   1.041   0.701   2.291
  259SOL    HW1 1109   1.067   0.697   2.387
  259SOL    HW2 1110   0.956   0.650   2.277
  260SOL     OW 1111   0.076   0.811   2.651
  260SOL    HW1 1112   0.175   0.799   2.660
  260SOL    HW2 1113   0.052   0.906   2.672
  261SOL     OW 1114   0.130   1.821   3.433
  261SOL    HW1 1115   0.120   1.806   3.532
  261SOL    HW2 1116   0.044   1.857   3.397
  262SOL     OW 1117   0.865   0.348   2.057
  262SOL    HW1 1118   0.924   0.411   2.008
  262SOL    HW2 1119   0.884   0.254   2.028
  263SOL     OW 1120   1.719   0.585   3.693
  263SOL    HW1 1121   1.693   0.674   3.657
  263SOL    HW2 1122   1.717   0.517   3.620
  264SOL     OW 1123   1.362   1.144   2.407
  264SOL    HW1 1124   1.445   1.115   2.359
  264SOL    HW2 1125   1.313   1.211   2.351
  265SOL     OW 1126   0.550   0.196   2.747
  265SOL    HW1 1127   0.545   0.191   2.847
  265SOL    HW2 1128   0.552   0.292   2.718
  266SOL     OW 1129   1.008   1.456   2.339
  266SOL    HW1 1130   0.962   1.528   2.287
  266SOL    HW2 1131   1.004   1.476   2.437
  267SOL     OW 1132   0.351   1.801   2.715
  267SOL    HW1 1133   0.401   1.715   2.721
  267SOL    HW2 1134   0.416   1.878   2.712
  268SOL     OW 1135   1.795   1.066   2.735
  268SOL    HW1 1136   1.733   1.051   2.659
  268SOL    HW2 1137   1.743   1.077   2.820
  269SOL     OW 1138   1.227   1.550   3.368
  269SOL    HW1 1139   1.233   1.473   3.432
  269SOL    HW2 1140   1.175   1.524   3.288
  270SOL     OW 1141   0.321   0.943   2.104
  270SOL    HW1 1142   0.403   0.982   2.062
  270SOL    HW2 1143   0.294   0.861   2.055
  271SOL     OW 1144   1.458   0.735   2.590
  271SOL    HW1 1145   1.453   0.670   2.665
  271SOL    HW2 1146   1.538   0.794   2.603
  272SOL     OW 1147   0.461   1.266   3.589
  272SOL    HW1 1148   0.411   1.267   3.503
  272SOL    HW2 1149   0.398   1.248   3.665
  273SOL     OW 1150   1.111   1.776   2.099
  273SOL    HW1 1151   1.051   1.714   2.149
  273SOL    HW2 1152   1.142   1.732   2.014
  274SOL     OW 1153   0.202   0.285   3.360
  274SOL    HW1 1154   0.122   0.345   3.347
  274SOL    HW2 1155   0.192   0.236   3.446
  275SOL     OW 1156   1.632   1.377   1.943
  275SOL    HW1 1157   1.600   1.471   1.933
  275SOL    HW2 1158   1.556   1.314   1.931
  276SOL     OW 1159   0.464   1.743   2.185
  276SOL    HW1 1160   0.497   1.782   2.271
  276SOL    HW2 1161   0.540   1.736   2.120
  277SOL     OW 1162   1.400   0.107   2.288
  277SOL    HW1 1163   1.376   0.070   2.198
  277SOL    HW2 1164   1.499   0.123   2.292
  278SOL     OW 1165   0.249   1.785   3.103
  278SOL    HW1 1166   0.306   1.720   3.153
  278SOL    HW2 1167   0.233   1.752   3.010
  279SOL     OW 1168   0.940   1.698   2.766
  279SOL    HW1 1169   1.020   1.641   2.787
  279SOL    HW2 1170   0.891   1.658   2.689
  280SOL     OW 1171   0.382   0.700   2.342
  280SOL    HW1 1172   0.427   0.610   2.339
  280SOL    HW2 1173   0.288   0.689   2.375
  281SOL     OW 1174   1.547   0.222   3.591
  281SOL    HW1 1175   1.542   0.259   3.683
  281SOL    HW2 1176   1.475   0.153   3.579
  282SOL     OW 1177   0.614   0.122   1.979
  282SOL    HW1 1178   0.712   0.100   1.986
  282SOL    HW2 1179   0.583   0.105   1.886
  283SOL     OW 1180   0.781   0.264   3.611
  283SOL    HW1 1181   0.848   0.203   3.654
  283SOL    HW2 1182   0.708   0.283   3.676
  284SOL     OW 1183   0.888   1.514   3.057
  284SOL    HW1 1184   0.865   1.489   2.963
  284SOL    HW2 1185   0.949   1.445   3.096
  285SOL     OW 1186   1.351   0.590   3.295
  285SOL    HW1 1187   1.379   0.547   3.380
  285SOL    HW2 1188   1.376   0.686   3.296
  286SOL     OW 1189   0.803   1.402   2.786
  286SOL    HW1 1190   0.893   1.416   2.744
  286SOL    HW2 1191   0.732   1.404   2.715
  287SOL     OW 1192   0.922   0.503   2.761
  287SOL    HW1 1193   0.897   0.494   2.665
  287SOL    HW2 1194   0.970   0.421   2.792
  288SOL     OW 1195   0.539   0.064   2.374
  288SOL    HW1 1196   0.458   0.065   2.432
  288SOL    HW2 1197   0.542   0.147   2.319
  289SOL     OW 1198   1.434   1.188   1.903
  289SOL    HW1 1199   1.466   1.112   1.960
  289SOL    HW2 1200   1.342   1.215   1.933
  290SOL     OW 1201   0.297   0.035   2.033
  290SOL    HW1 1202   0.346   0.119   2.012
  290SOL    HW2 1203   0.359  -0.030   2.078
  291SOL     OW 1204   0.935   0.236   2.342
  291SOL    HW1 1205   0.887   0.277   2.264
  291SOL    HW2 1206   1.034   0.234   2.323
  292SOL     OW 1207   1.076   0.683   3.326
  292SOL    HW1 1208   0.996   0.622   3.329
  292SOL    HW2 1209   1.157   0.630   3.302
  293SOL     OW 1210   1.227   1.570   2.655
  293SOL    HW1 1211   1.248   1.644   2.590
  293SOL    HW2 1212   1.295   1.570   2.728
  294SOL     OW 1213   0.459   1.152   2.603
  294SOL    HW1 1214   0.388   1.125   2.668
  294SOL    HW2 1215   0.433   1.124   2.510
  295SOL     OW 1216   1.271   1.797   2.453
  295SOL    HW1 1217   1.315   1.861   2.389
  295SOL    HW2 1218   1.221   1.849   2.523
  296SOL     OW 1219   1.032   0.549   1.878
  296SOL    HW1 1220   0.991   0.631   1.839
  296SOL    HW2 1221   1.096   0.575   1.951
  297SOL     OW 1222   0.078   0.556   3.248
  297SOL    HW1 1223   0.170   0.555   3.207
  297SOL    HW2 1224   0.072   0.630   3.315
  298SOL     OW 1225   0.561   0.222   3.009
  298SOL    HW1 1226   0.599   0.138   3.046
  298SOL    HW2 1227   0.473   0.241   3.053
  299SOL     OW 1228   0.866   0.454   2.504
  299SOL    HW1 1229   0.834   0.526   2.442
  299SOL    HW2 1230   0.890   0.373   2.451
  300SOL     OW 1231   1.017   0.039   2.615
  300SOL    HW1 1232   0.945   0.044   2.546
  300SOL    HW2 1233   0.993  -0.030   2.684
  301SOL     OW 1234   1.429   1.173   2.729
  301SOL    HW1 1235   1.374   1.089   2.722
  301SOL    HW2 1236   1.455   1.202   2.637
  302SOL     OW 1237   1.466   0.590   2.854
  302SOL    HW1 1238   1.436   0.495   2.861
  302SOL    HW2 1239   1.539   0.606   2.920
  303SOL     OW 1240   1.857   0.833   2.239
  303SOL    HW1 1241   1.899   0.769   2.303
  303SOL    HW2 1242   1.819   0.782   2.161
  304SOL     OW 1243   0.488   1.385   2.036
  304SOL    HW1 1244   0.401   1.370   2.083
  304SOL    HW2 1245   0.471   1.411   1.941
  305SOL     OW 1246   1.664   1.280   2.519
  305SOL    HW1 1247   1.763   1.288   2.533
  305SOL    HW2 1248   1.619   1.364   2.550
  306SOL     OW 1249   1.390   0.575   1.940
  306SOL    HW1 1250   1.336   0.554   2.021
  306SOL    HW2 1251   1.481   0.534   1.949
  307SOL     OW 1252   0.527   0.256   2.190
  307SOL    HW1 1253   0.554   0.197   2.115
  307SOL    HW2 1254   0.527   0.351   2.159
  308SOL     OW 1255   1.754   1.223   3.450
  308SOL    HW1 1256   1.845   1.184   3.437
  308SOL    HW2 1257   1.762   1.319   3.474
  309SOL     OW 1258   1.064   1.347   3.202
  309SOL    HW1 1259   0.984   1.324   3.257
  309SOL    HW2 1260   1.147   1.321   3.251
  310SOL     OW 1261   1.592   1.629   3.487
  310SOL    HW1 1262   1.619   1.663   3.397
  310SOL    HW2 1263   1.671   1.591   3.533
  311SOL     OW 1264   1.111   1.195   2.962
  311SOL    HW1 1265   1.071   1.239   3.043
  311SOL    HW2 1266   1.070   1.232   2.879
  312SOL     OW 1267   1.638   1.099   2.941
  312SOL    HW1 1268   1.643   1.180   3.000
  312SOL    HW2 1269   1.552   1.101   2.890
  313SOL     OW 1270   0.915   0.089   3.264
  313SOL    HW1 1271   0.940   0.069   3.169
  313SOL    HW2 1272   0.987   0.145   3.306
  314SOL     OW 1273   0.980   1.116   3.581
  314SOL    HW1 1274   0.881   1.122   3.591
  314SOL    HW2 1275   1.003   1.036   3.525
  315SOL     OW 1276   0.705   1.050   2.230
  315SOL    HW1 1277   0.691   1.057   2.329
  315SOL    HW2 1278   0.789   0.999   2.212
  316SOL     OW 1279   0.410   0.813   3.113
  316SOL    HW1 1280   0.496   0.825   3.163
  316SOL    HW2 1281   0.368   0.726   3.140
  317SOL     OW 1282   1.274   0.386   3.124
  317SOL    HW1 1283   1.295   0.460   3.188
  317SOL    HW2 1284   1.185   0.403   3.081
  318SOL     OW 1285   0.064   1.564   3.193
  318SOL    HW1 1286   0.018   1.646   3.159
  318SOL    HW2 1287   0.162   1.583   3.202
  319SOL     OW 1288   0.367   1.100   2.363
  319SOL    HW1 1289   0.360   1.183   2.307
  319SOL    HW2 1290   0.371   1.020   2.303
  320SOL     OW 1291   0.566   0.537   2.727
  320SOL    HW1 1292   0.578   0.603   2.653
  320SOL    HW2 1293   0.612   0.571   2.810
  321SOL     OW 1294   1.252   1.348   2.250
  321SOL    HW1 1295   1.302   1.425   2.290
  321SOL    HW2 1296   1.157   1.350   2.282
  322SOL     OW 1297   1.272   1.445   3.004
  322SOL    HW1 1298   1.319   1.458   3.091
  322SOL    HW2 1299   1.206   1.371   3.013
  323SOL     OW 1300   1.582   0.639   2.334
  323SOL    HW1 1301   1.551   0.700   2.407
  323SOL    HW2 1302   1.632   0.691   2.265
  324SOL     OW 1303   0.354   1.510   3.191
  324SOL    HW1 1304   0.333   1.466   3.104
  324SOL    HW2 1305   0.451   1.536   3.194
  325SOL     OW 1306   0.402   0.751   3.460
  325SOL    HW1 1307   0.470   0.806   3.413
  325SOL    HW2 1308   0.442   0.663   3.487
  326SOL     OW 1309   1.587   0.779   3.532
  326SOL    HW1 1310   1.495   0.817   3.527
  326SOL    HW2 1311   1.647   0.826   3.467
  327SOL     OW 1312   1.013   0.105   3.632
  327SOL    HW1 1313   1.019   0.190   3.580
  327SOL    HW2 1314   1.045   0.029   3.575
  328SOL     OW 1315   0.504   0.050   3.602
  328SOL    HW1 1316   0.462  -0.007   3.532
  328SOL    HW2 1317   0.438   0.119   3.634
  329SOL     OW 1318   0.573   0.870   2.891
  329SOL    HW1 1319   0.617   0.959   2.882
  329SOL    HW2 1320   0.510   0.870   2.968
  330SOL     OW 1321   1.360   0.862   2.907
  330SOL    HW1 1322   1.285   0.862   2.841
  330SOL    HW2 1323   1.397   0.770   2.916
  331SOL     OW 1324   1.209   0.525   2.137
  331SOL    HW1 1325   1.222   0.441   2.191
  331SOL    HW2 1326   1.180   0.599   2.197
  332SOL     OW 1327   0.307   0.213   3.093
  332SOL    HW1 1328   0.284   0.250   3.183
  332SOL    HW2 1329   0.277   0.118   3.087
  333SOL     OW 1330   0.037   1.310   3.144
  333SOL    HW1 1331   0.090   1.261   3.212
  333SOL    HW2 1332   0.059   1.408   3.149
  334SOL     OW 1333   0.732   0.634   2.926
  334SOL    HW1 1334   0.791   0.608   2.850
  334SOL    HW2 1335   0.704   0.730   2.915
  335SOL     OW 1336   1.728   0.935   3.716
  335SOL    HW1 1337   1.682   0.928   3.627
  335SOL    HW2 1338   1.666   0.979   3.782
  336SOL     OW 1339   0.307   0.063   2.480
  336SOL    HW1 1340   0.296   0.157   2.513
  336SOL    HW2 1341   0.302   0.000   2.557
  337SOL     OW 1342   1.622   0.367   2.236
  337SOL    HW1 1343   1.624   0.291   2.300
  337SOL    HW2 1344   1.574   0.444   2.276
  338SOL     OW 1345   1.023   0.766   2.828
  338SOL    HW1 1346   1.038   0.787   2.924
  338SOL    HW2 1347   0.993   0.671   2.819
  339SOL     OW 1348   0.980   1.573   3.562
  339SOL    HW1 1349   0.960   1.617   3.474
  339SOL    HW2 1350   1.019   1.482   3.546
  340SOL     OW 1351   1.859   1.518   3.467
  340SOL    HW1 1352   1.873   1.545   3.372
  340SOL    HW2 1353   1.942   1.540   3.520
  341SOL     OW 1354   0.350   0.898   3.666
  341SOL    HW1 1355   0.426   0.942   3.714
  341SOL    HW2 1356   0.385   0.851   3.584
  342SOL     OW 1357   1.540   0.274   1.987
  342SOL    HW1 1358   1.479   0.199   2.010
  342SOL    HW2 1359   1.562   0.326   2.070
  343SOL     OW 1360   1.303   0.838   1.904
  343SOL    HW1 1361   1.337   0.745   1.919
  343SOL    HW2 1362   1.321   0.865   1.809
  344SOL     OW 1363   1.068   1.333   2.711
  344SOL    HW1 1364   1.075   1.249   2.656
  344SOL    HW2 1365   1.130   1.402   2.675
  345SOL     OW 1366   0.319   0.810   2.811
  345SOL    HW1 1367   0.412   0.846   2.816
  345SOL    HW2 1368   0.313   0.725   2.863
  346SOL     OW 1369   0.339   0.509   2.868
  346SOL    HW1 1370   0.287   0.426   2.851
  346SOL    HW2 1371   0.416   0.514   2.804
  347SOL     OW 1372   1.138   0.380   3.540
  347SOL    HW1 1373   1.093   0.443   3.604
  347SOL    HW2 1374   1.231   0.411   3.523
  348SOL     OW 1375   1.160   0.207   3.339
  348SOL    HW1 1376   1.160   0.271   3.416
  348SOL    HW2 1377   1.188   0.255   3.256
  349SOL     OW 1378   0.008   1.326   2.062
  349SOL    HW1 1379  -0.085   1.347   2.031
  349SOL    HW2 1380   0.018   1.227   2.075
  350SOL     OW 1381   0.088   1.801   2.789
  350SOL    HW1 1382   0.046   1.715   2.762
  350SOL    HW2 1383   0.182   1.804   2.755
  351SOL     OW 1384   0.504   1.568   2.772
  351SOL    HW1 1385   0.570   1.642   2.781
  351SOL    HW2 1386   0.548   1.489   2.730
  352SOL     OW 1387   1.002   0.796   3.100
  352SOL    HW1 1388   1.043   0.764   3.186
  352SOL    HW2 1389   0.906   0.769   3.097
  353SOL     OW 1390   0.040   0.544   2.976
  353SOL    HW1 1391   0.125   0.511   2.935
  353SOL    HW2 1392   0.053   0.559   3.074
  354SOL     OW 1393   0.189   0.520   3.584
  354SOL    HW1 1394   0.248   0.480   3.514
  354SOL    HW2 1395   0.131   0.591   3.543
  355SOL     OW 1396   1.369   0.950   3.522
  355SOL    HW1 1397   1.408   1.039   3.542
  355SOL    HW2 1398   1.379   0.930   3.425
  356SOL     OW 1399   0.815   0.572   2.187
  356SOL    HW1 1400   0.822   0.483   2.141
  356SOL    HW2 1401   0.721   0.606   2.179
  357SOL     OW 1402   1.657   0.604   3.068
  357SOL    HW1 1403   1.619   0.535   3.130
  357SOL    HW2 1404   1.739   0.568   3.024
  358SOL     OW 1405   0.252   1.564   3.606
  358SOL    HW1 1406   0.222   1.621   3.682
  358SOL    HW2 1407   0.245   1.467   3.632
  359SOL     OW 1408   0.671   0.464   3.131
  359SOL    HW1 1409   0.637   0.375   3.101
  359SOL    HW2 1410   0.697   0.518   3.051
  360SOL     OW 1411   0.930   1.678   3.327
  360SOL    HW1 1412   0.906   1.660   3.232
  360SOL    HW2 1413   0.960   1.772   3.337
  361SOL     OW 1414   0.473   0.500   2.053
  361SOL    HW1 1415   0.534   0.580   2.057
  361SOL    HW2 1416   0.378   0.531   2.060
  362SOL     OW 1417   0.159   1.137   3.328
  362SOL    HW1 1418   0.181   1.076   3.404
  362SOL    HW2 1419   0.169   1.088   3.242
  363SOL     OW 1420   1.347   1.059   3.096
  363SOL    HW1 1421   1.371   0.996   3.022
  363SOL    HW2 1422   1.257   1.099   3.078
  364SOL     OW 1423   1.302   0.855   2.171
  364SOL    HW1 1424   1.216   0.824   2.213
  364SOL    HW2 1425   1.298   0.841   2.072
  365SOL     OW 1426   1.759   1.747   3.016
  365SOL    HW1 1427   1.820   1.777   2.943
  365SOL    HW2 1428   1.721   1.658   2.994
  366SOL     OW 1429   1.252   1.731   2.990
  366SOL    HW1 1430   1.336   1.736   2.936
  366SOL    HW2 1431   1.229   1.635   3.008
  367SOL     OW 1432   0.083   1.258   2.884
  367SOL    HW1 1433   0.078   1.257   2.984
  367SOL    HW2 1434   0.000   1.217   2.846
  368SOL     OW 1435   0.688   1.662   3.578
  368SOL    HW1 1436   0.632   1.743   3.587
  368SOL    HW2 1437   0.740   1.666   3.492
  369SOL     OW 1438   1.726   0.135   2.385
  369SOL    HW1 1439   1.799   0.118   2.318
  369SOL    HW2 1440   1.695   0.048   2.423
  370SOL     OW 1441   1.388   1.573   2.339
  370SOL    HW1 1442   1.455   1.585   2.265
  370SOL    HW2 1443   1.348   1.662   2.362
  371SOL     OW 1444   0.130   1.794   3.713
  371SOL    HW1 1445   0.089   1.720   3.766
  371SOL    HW2 1446   0.194   1.845   3.771
  372SOL     OW 1447   1.280   0.927   2.534
  372SOL    HW1 1448   1.340   0.846   2.536
  372SOL    HW2 1449   1.320   0.996   2.474
  373SOL     OW 1450   0.830   1.273   3.284
  373SOL    HW1 1451   0.825   1.306   3.379
  373SOL    HW2 1452   0.744   1.292   3.238
  374SOL     OW 1453   0.672   1.616   2.016
  374SOL    HW1 1454   0.681   1.626   1.917
  374SOL    HW2 1455   0.632   1.527   2.037
  375SOL     OW 1456   1.650   1.720   3.256
  375SOL    HW1 1457   1.703   1.730   3.172
  375SOL    HW2 1458   1.623   1.810   3.290
  376SOL     OW 1459   1.841   0.175   2.825
  376SOL    HW1 1460   1.880   0.090   2.789
  376SOL    HW2 1461   1.743   0.177   2.806
  377SOL     OW 1462   0.263   0.326   2.582
  377SOL    HW1 1463   0.184   0.377   2.548
  377SOL    HW2 1464   0.254   0.311   2.680
  378SOL     OW 1465   1.194   1.612   1.893
  378SOL    HW1 1466   1.200   1.519   1.930
  378SOL    HW2 1467   1.135   1.612   1.813
  379SOL     OW 1468   0.822   1.002   3.234
  379SOL    HW1 1469   0.862   1.001   3.142
  379SOL    HW2 1470   0.832   1.094   3.274
  380SOL     OW 1471   0.916   0.910   2.153
  380SOL    HW1 1472   0.979   0.948   2.085
  380SOL    HW2 1473   0.956   0.827   2.192
  381SOL     OW 1474   1.504   1.607   1.906
  381SOL    HW1 1475   1.412   1.644   1.913
  381SOL    HW2 1476   1.542   1.627   1.816
  382SOL     OW 1477   0.372   1.288   3.352
  382SOL    HW1 1478   0.359   1.381   3.318
  382SOL    HW2 1479   0.288   1.236   3.339
  383SOL     OW 1480   1.614   1.292   3.151
  383SOL    HW1 1481   1.674   1.295   3.231
  383SOL    HW2 1482   1.539   1.356   3.164
  384SOL     OW 1483   1.039   1.098   2.558
  384SOL    HW1 1484   0.969   1.051   2.612
  384SOL    HW2 1485   1.098   1.030   2.515
  385SOL     OW 1486   1.014   0.236   2.833
  385SOL    HW1 1487   1.006   0.200   2.740
  385SOL    HW2 1488   1.012   0.160   2.898
  386SOL     OW 1489   0.590   1.487   2.353
  386SOL    HW1 1490   0.632   1.429   2.283
  386SOL    HW2 1491   0.546   1.566   2.309
  387SOL     OW 1492   1.709   0.385   3.243
  387SOL    HW1 1493   1.782   0.454   3.247
  387SOL    HW2 1494   1.737   0.310   3.184
  388SOL     OW 1495   0.255   1.348   2.152
  388SOL    HW1 1496   0.159   1.349   2.125
  388SOL    HW2 1497   0.267   1.401   2.236
  389SOL     OW 1498   0.105   1.013   3.588
  389SOL    HW1 1499   0.028   0.980   3.642
  389SOL    HW2 1500   0.190   0.983   3.630
  390SOL     OW 1501   0.672   0.203   3.351
  390SOL    HW1 1502   0.762   0.187   3.311
  390SOL    HW2 1503   0.680   0.208   3.450
  391SOL     OW 1504   0.075   0.345   1.895
  391SOL    HW1 1505  -0.017   0.317   1.866
  391SOL    HW2 1506   0.106   0.422   1.839
  392SOL     OW 1507   1.440   0.856   3.260
  392SOL    HW1 1508   1.383   0.908   3.197
  392SOL    HW2 1509   1.536   0.868   3.236
  393SOL     OW 1510   0.072   0.166   2.180
  393SOL    HW1 1511   0.055   0.249   2.126
  393SOL    HW2 1512   0.162   0.129   2.158
  394SOL     OW 1513   1.183   1.335   1.981
  394SOL    HW1 1514   1.084   1.324   1.983
  394SOL    HW2 1515   1.217   1.350   2.074
  395SOL     OW 1516   0.613   0.842   3.293
  395SOL    HW1 1517   0.669   0.923   3.276
  395SOL    HW2 1518   0.672   0.762   3.296
  396SOL     OW 1519   1.493   1.767   2.821
  396SOL    HW1 1520   1.526   1.831   2.752
  396SOL    HW2 1521   1.559   1.761   2.896
  397SOL     OW 1522   0.716   0.565   3.570
  397SOL    HW1 1523   0.735   0.630   3.644
  397SOL    HW2 1524   0.776   0.485   3.579
  398SOL     OW 1525   1.450   1.220   3.495
  398SOL    HW1 1526   1.441   1.210   3.594
  398SOL    HW2 1527   1.546   1.213   3.469
  399SOL     OW 1528   0.390   1.741   3.422
  399SOL    HW1 1529   0.299   1.782   3.420
  399SOL    HW2 1530   0.383   1.647   3.454
  400SOL     OW 1531   1.674   0.883   3.116
  400SOL    HW1 1532   1.647   0.794   3.079
  400SOL    HW2 1533   1.675   0.951   3.043
  401SOL     OW 1534   1.225   0.325   2.311
  401SOL    HW1 1535   1.290   0.251   2.300
  401SOL    HW2 1536   1.245   0.375   2.395
  402SOL     OW 1537   0.594   0.745   2.514
  402SOL    HW1 1538   0.644   0.830   2.495
  402SOL    HW2 1539   0.506   0.747   2.466
  403SOL     OW 1540   1.777   0.342   3.504
  403SOL    HW1 1541   1.760   0.373   3.410
  403SOL    HW2 1542   1.693   0.305   3.542
  404SOL     OW 1543   1.730   0.934   3.379
  404SOL    HW1 1544   1.768   1.025   3.394
  404SOL    HW2 1545   1.722   0.917   3.280
  405SOL     OW 1546   0.859   1.374   1.878
  405SOL    HW1 1547   0.813   1.389   1.966
  405SOL    HW2 1548   0.903   1.459   1.848
  406SOL     OW 1549   0.661   1.790   2.815
  406SOL    HW1 1550   0.615   1.878   2.802
  406SOL    HW2 1551   0.760   1.802   2.808
  407SOL     OW 1552   0.859   0.956   2.723
  407SOL    HW1 1553   0.913   0.887   2.771
  407SOL    HW2 1554   0.827   1.025   2.789
  408SOL     OW 1555   1.083   0.984   1.949
  408SOL    HW1 1556   1.060   1.037   1.867
  408SOL    HW2 1557   1.164   0.928   1.930
  409SOL     OW 1558   1.861   1.569   2.713
  409SOL    HW1 1559   1.790   1.557   2.643
  409SOL    HW2 1560   1.862   1.490   2.773
  410SOL     OW 1561   0.221   1.314   3.706
  410SOL    HW1 1562   0.156   1.241   3.685
  410SOL    HW2 1563   0.225   1.328   3.804
  411SOL     OW 1564   0.079   1.240   2.515
  411SOL    HW1 1565   0.078   1.193   2.603
  411SOL    HW2 1566   0.161   1.212   2.464
  412SOL     OW 1567   0.672   1.391   3.486
  412SOL    HW1 1568   0.594   1.341   3.524
  412SOL    HW2 1569   0.669   1.486   3.517
  413SOL     OW 1570   1.824   0.192   3.089
  413SOL    HW1 1571   1.820   0.102   3.133
  413SOL    HW2 1572   1.827   0.181   2.990
  414SOL     OW 1573   0.428   0.424   2.382
  414SOL    HW1 1574   0.458   0.352   2.320
  414SOL    HW2 1575   0.389   0.384   2.465
  415SOL     OW 1576   1.705   1.487   2.966
  415SOL    HW1 1577   1.612   1.462   2.939
  415SOL    HW2 1578   1.731   1.437   3.048
  416SOL     OW 1579   0.317   0.547   3.142
  416SOL    HW1 1580   0.355   0.488   3.214
  416SOL    HW2 1581   0.357   0.521   3.054
  417SOL     OW 1582   0.812   1.586   2.549
  417SOL    HW1 1583   0.844   1.596   2.455
  417SOL    HW2 1584   0.733   1.524   2.551
  418SOL     OW 1585   1.424   0.214   2.974
  418SOL    HW1 1586   1.476   0.149   3.029
  418SOL    HW2 1587   1.375   0.277   3.035
  419SOL     OW 1588   1.001   0.034   3.016
  419SOL    HW1 1589   0.938  -0.038   2.985
  419SOL    HW2 1590   1.094  -0.002   3.016
  420SOL     OW 1591   0.770   1.330   2.163
  420SOL    HW1 1592   0.724   1.243   2.180
  420SOL    HW2 1593   0.861   1.327   2.204
  421SOL     OW 1594   0.618   1.567   3.146
  421SOL    HW1 1595   0.613   1.649   3.203
  421SOL    HW2 1596   0.707   1.564   3.101
  422SOL     OW 1597   1.352   0.052   2.030
  422SOL    HW1 1598   1.387   0.011   1.946
  422SOL    HW2 1599   1.262   0.014   2.050
  423SOL     OW 1600   1.300   0.453   2.553
  423SOL    HW1 1601   1.241   0.533   2.557
  423SOL    HW2 1602   1.315   0.418   2.646
  424SOL     OW 1603   1.593   0.221   2.744
  424SOL    HW1 1604   1.509   0.220   2.798
  424SOL    HW2 1605   1.595   0.304   2.688
  425SOL     OW 1606   0.039   1.077   2.162
  425SOL    HW1 1607   0.138   1.066   2.153
  425SOL    HW2 1608  -0.001   0.991   2.194
  426SOL     OW 1609   0.875   1.646   2.199
  426SOL    HW1 1610   0.798   1.611   2.145
  426SOL    HW2 1611   0.843   1.717   2.261
  427SOL     OW 1612   0.230   0.628   3.837
  427SOL    HW1 1613   0.137   0.626   3.874
  427SOL    HW2 1614   0.231   0.589   3.745
  428SOL     OW 1615   0.225   0.275   4.720
  428SOL    HW1 1616   0.260   0.258   4.812
  428SOL    HW2 1617   0.137   0.230   4.708
  429SOL     OW 1618   0.019   0.368   4.371
  429SOL    HW1 1619  -0.063   0.411   4.410
  429SOL    HW2 1620  -0.009   0.295   4.308
  430SOL     OW 1621   0.569   1.275   4.889
  430SOL    HW1 1622   0.476   1.268   4.852
  430SOL    HW2 1623   0.580   1.364   4.933
  431SOL     OW 1624   1.555   1.511   4.427
  431SOL    HW1 1625   1.498   1.495   4.508
  431SOL    HW2 1626   1.496   1.521   4.347
  432SOL     OW 1627   1.135   0.703   4.441
  432SOL    HW1 1628   1.192   0.781   4.416
  432SOL    HW2 1629   1.075   0.729   4.517
  433SOL     OW 1630   1.755   0.607   3.955
  433SOL    HW1 1631   1.743   0.594   3.856
  433SOL    HW2 1632   1.725   0.526   4.004
  434SOL     OW 1633   0.768   1.144   4.747
  434SOL    HW1 1634   0.690   1.161   4.807
  434SOL    HW2 1635   0.802   1.231   4.711
  435SOL     OW 1636   0.850   0.798   5.547
  435SOL    HW1 1637   0.846   0.874   5.612
  435SOL    HW2 1638   0.872   0.834   5.456
  436SOL     OW 1639   0.685   1.012   4.389
  436SOL    HW1 1640   0.754   0.996   4.459
  436SOL    HW2 1641   0.612   1.069   4.427
  437SOL     OW 1642   0.686   1.161   5.527
  437SOL    HW1 1643   0.746   1.240   5.541
  437SOL    HW2 1644   0.600   1.192   5.486
  438SOL     OW 1645   0.335   1.435   4.785
  438SOL    HW1 1646   0.257   1.404   4.732
  438SOL    HW2 1647   0.393   1.493   4.728
  439SOL     OW 1648   1.460   1.505   5.063
  439SOL    HW1 1649   1.484   1.599   5.089
  439SOL    HW2 1650   1.444   1.451   5.145
  440SOL     OW 1651   0.438   0.392   5.223
  440SOL    HW1 1652   0.520   0.336   5.232
  440SOL    HW2 1653   0.357   0.334   5.227
  441SOL     OW 1654   1.603   0.447   4.461
  441SOL    HW1 1655   1.529   0.493   4.411
  441SOL    HW2 1656   1.654   0.515   4.514
  442SOL     OW 1657   0.231   1.713   4.207
  442SOL    HW1 1658   0.265   1.790   4.261
  442SOL    HW2 1659   0.275   1.713   4.117
  443SOL     OW 1660   1.127   1.341   5.414
  443SOL    HW1 1661   1.174   1.341   5.502
  443SOL    HW2 1662   1.079   1.254   5.403
  444SOL     OW 1663   0.230   1.434   4.262
  444SOL    HW1 1664   0.204   1.530   4.262
  444SOL    HW2 1665   0.159   1.380   4.307
  445SOL     OW 1666   0.240   1.091   4.610
  445SOL    HW1 1667   0.254   1.007   4.662
  445SOL    HW2 1668   0.185   1.155   4.665
  446SOL     OW 1669   0.620   1.786   5.163
  446SOL    HW1 1670   0.528   1.769   5.198
  446SOL    HW2 1671   0.648   1.878   5.189
  447SOL     OW 1672   0.606   0.964   3.847
  447SOL    HW1 1673   0.613   1.048   3.793
  447SOL    HW2 1674   0.652   0.977   3.935
  448SOL     OW 1675   1.594   0.114   5.204
  448SOL    HW1 1676   1.576   0.181   5.132
  448SOL    HW2 1677   1.591   0.160   5.293
  449SOL     OW 1678   0.122   0.643   4.287
  449SOL    HW1 1679   0.077   0.555   4.304
  449SOL    HW2 1680   0.121   0.697   4.371
  450SOL     OW 1681   1.842   1.767   4.083
  450SOL    HW1 1682   1.896   1.738   4.163
  450SOL    HW2 1683   1.872   1.857   4.054
  451SOL     OW 1684   0.027   1.596   3.841
  451SOL    HW1 1685   0.008   1.500   3.862
  451SOL    HW2 1686  -0.006   1.654   3.916
  452SOL     OW 1687   1.689   0.922   4.336
  452SOL    HW1 1688   1.784   0.893   4.344
  452SOL    HW2 1689   1.681   0.987   4.261
  453SOL     OW 1690   1.641   1.108   4.156
  453SOL    HW1 1691   1.727   1.110   4.104
  453SOL    HW2 1692   1.655   1.155   4.244
  454SOL     OW 1693   0.113   0.737   5.321
  454SOL    HW1 1694   0.201   0.724   5.366
  454SOL    HW2 1695   0.100   0.834   5.299
  455SOL     OW 1696   0.613   1.365   4.450
  455SOL    HW1 1697   0.564   1.278   4.459
  455SOL    HW2 1698   0.590   1.408   4.363
  456SOL     OW 1699   1.293   1.228   5.147
  456SOL    HW1 1700   1.330   1.155   5.089
  456SOL    HW2 1701   1.345   1.233   5.232
  457SOL     OW 1702   0.809   0.004   4.226
  457SOL    HW1 1703   0.849   0.095   4.217
  457SOL    HW2 1704   0.709   0.012   4.232
  458SOL     OW 1705   0.197   0.976   4.988
  458SOL    HW1 1706   0.286   0.931   4.974
  458SOL    HW2 1707   0.124   0.911   4.969
  459SOL     OW 1708   1.525   0.999   3.914
  459SOL    HW1 1709   1.462   0.923   3.927
  459SOL    HW2 1710   1.573   1.017   4.000
  460SOL     OW 1711   1.187   1.792   5.340
  460SOL    HW1 1712   1.211   1.852   5.264
  460SOL    HW2 1713   1.194   1.697   5.310
  461SOL     OW 1714   0.317   0.251   5.525
  461SOL    HW1 1715   0.388   0.322   5.531
  461SOL    HW2 1716   0.229   0.290   5.553
  462SOL     OW 1717   1.466   1.417   4.677
  462SOL    HW1 1718   1.407   1.423   4.757
  462SOL    HW2 1719   1.451   1.329   4.631
  463SOL     OW 1720   1.667   1.714   4.296
  463SOL    HW1 1721   1.626   1.691   4.208
  463SOL    HW2 1722   1.649   1.640   4.361
  464SOL     OW 1723   0.598   0.729   3.994
  464SOL    HW1 1724   0.622   0.798   3.926
  464SOL    HW2 1725   0.520   0.762   4.048
  465SOL     OW 1726   1.281   0.345   4.668
  465SOL    HW1 1727   1.195   0.295   4.655
  465SOL    HW2 1728   1.343   0.291   4.724
  466SOL     OW 1729   1.576   1.662   4.031
  466SOL    HW1 1730   1.665   1.708   4.034
  466SOL    HW2 1731   1.555   1.638   3.936
  467SOL     OW 1732   0.807   0.605   5.189
  467SOL    HW1 1733   0.760   0.602   5.278
  467SOL    HW2 1734   0.756   0.550   5.123
  468SOL     OW 1735   1.394   0.469   5.398
  468SOL    HW1 1736   1.374   0.512   5.486
  468SOL    HW2 1737   1.472   0.407   5.407
  469SOL     OW 1738   0.973   0.890   5.296
  469SOL    HW1 1739   1.019   0.806   5.267
  469SOL    HW2 1740   0.917   0.924   5.221
  470SOL     OW 1741   0.991   0.410   4.966
  470SOL    HW1 1742   0.914   0.444   5.020
  470SOL    HW2 1743   0.957   0.359   4.887
  471SOL     OW 1744   1.041   0.701   4.153
  471SOL    HW1 1745   1.067   0.697   4.249
  471SOL    HW2 1746   0.956   0.650   4.139
  472SOL     OW 1747   0.076   0.811   4.513
  472SOL    HW1 1748   0.175   0.799   4.522
  472SOL    HW2 1749   0.052   0.906   4.534
  473SOL     OW 1750   0.130   1.821   5.295
  473SOL    HW1 1751   0.120   1.806   5.394
  473SOL    HW2 1752   0.044   1.857   5.259
  474SOL     OW 1753   0.865   0.348   3.919
  474SOL    HW1 1754   0.924   0.411   3.870
  474SOL    HW2 1755   0.884   0.254   3.890
  475SOL     OW 1756   1.719   0.585   5.555
  475SOL    HW1 1757   1.693   0.674   5.519
  475SOL    HW2 1758   1.717   0.517   5.482
  476SOL     OW 1759   1.362   1.144   4.269
  476SOL    HW1 1760   1.445   1.115   4.221
  476SOL    HW2 1761   1.313   1.211   4.213
  477SOL     OW 1762   0.550   0.196   4.609
  477SOL    HW1 1763   0.545   0.191   4.709
  477SOL    HW2 1764   0.552   0.292   4.580
  478SOL     OW 1765   1.008   1.456   4.201
  478SOL    HW1 1766   0.962   1.528   4.149
  478SOL    HW2 1767   1.004   1.476   4.299
  479SOL     OW 1768   0.351   1.801   4.577
  479SOL    HW1 1769   0.401   1.715   4.583
  479SOL    HW2 1770   0.416   1.878   4.574
  480SOL     OW 1771   1.795   1.066   4.597
  480SOL    HW1 1772   1.733   1.051   4.521
  480SOL    HW2 1773   1.743   1.077   4.682
  481SOL     OW 1774   1.227   1.550   5.230
  481SOL    HW1 1775   1.233   1.473   5.294
  481SOL    HW2 1776   1.175   1.524   5.150
  482SOL     OW 1777   0.321   0.943   3.966
  482SOL    HW1 1778   0.403   0.982   3.924
  482SOL    HW2 1779   0.294   0.861   3.917
  483SOL     OW 1780   1.458   0.735   4.452
  483SOL    HW1 1781   1.453   0.670   4.527
  483SOL    HW2 1782   1.538   0.794   4.465
  484SOL     OW 1783   0.461   1.266   5.451
  484SOL    HW1 1784   0.411   1.267   5.365
  484SOL    HW2 1785   0.398   1.248   5.527
  485SOL     OW 1786   1.111   1.776   3.961
  485SOL    HW1 1787   1.051   1.714   4.011
  485SOL    HW2 1788   1.142   1.732   3.876
  486SOL     OW 1789   0.202   0.285   5.222
  486SOL    HW1 1790   0.122   0.345   5.209
  486SOL    HW2 1791   0.192   0.236   5.308
  487SOL     OW 1792   1.632   1.377   3.805
  487SOL    HW1 1793   1.600   1.471   3.795
  487SOL    HW2 1794   1.556   1.314   3.793
  488SOL     OW 1795   0.464   1.743   4.047
  488SOL    HW1 1796   0.497   1.782   4.133
  488SOL    HW2 1797   0.540   1.736   3.982
  489SOL     OW 1798   1.400   0.107   4.150
  489SOL    HW1 1799   1.376   0.070   4.060
  489SOL    HW2 1800   1.499   0.123   4.154
  490SOL     OW 1801   0.249   1.785   4.965
  490SOL    HW1 1802   0.306   1.720   5.015
  490SOL    HW2 1803   0.233   1.752   4.872
  491SOL     OW 1804   0.940   1.698   4.628
  491SOL    HW1 1805   1.020   1.641   4.649
  491SOL    HW2 1806   0.891   1.658   4.551
  492SOL     OW 1807   0.382   0.700   4.204
  492SOL    HW1 1808   0.427   0.610   4.201
  492SOL    HW2 1809   0.288   0.689   4.237
  493SOL     OW 1810   1.547   0.222   5.453
  493SOL    HW1 1811   1.542   0.259   5.545
  493SOL    HW2 1812   1.475   0.153   5.441
  494SOL     OW 1813   0.614   0.122   3.841
  494SOL    HW1 1814   0.712   0.100   3.848
  494SOL    HW2 1815   0.583   0.105   3.748
  495SOL     OW 1816   0.781   0.264   5.473
  495SOL    HW1 1817   0.848   0.203   5.516
  495SOL    HW2 1818   0.708   0.283   5.538
  496SOL     OW 1819   0.888   1.514   4.919
  496SOL    HW1 1820   0.865   1.489   4.825
  496SOL    HW2 1821   0.949   1.445   4.958
  497SOL     OW 1822   1.351   0.590   5.157
  497SOL    HW1 1823   1.379   0.547   5.242
  497SOL    HW2 1824   1.376   0.686   5.158
  498SOL     OW 1825   0.803   1.402   4.648
  498SOL    HW1 1826   0.893   1.416   4.606
  498SOL    HW2 1827   0.732   1.404   4.577
  499SOL     OW 1828   0.922   0.503   4.623
  499SOL    HW1 1829   0.897   0.494   4.527
  499SOL    HW2 1830   0.970   0.421   4.654
  500SOL     OW 1831   0.539   0.064   4.236
  500SOL    HW1 1832   0.458   0.065   4.294
  500SOL    HW2 1833   0.542   0.147   4.181
  501SOL     OW 1834   1.434   1.188   3.765
  501SOL    HW1 1835   1.466   1.112   3.822
  501SOL    HW2 1836   1.342   1.215   3.795
  502SOL     OW 1837   0.297   0.035   3.895
  502SOL    HW1 1838   0.346   0.119   3.874
  502SOL    HW2 1839   0.359  -0.030   3.940
  503SOL     OW 1840   0.935   0.236   4.204
  503SOL    HW1 1841   0.887   0.277   4.126
  503SOL    HW2 1842   1.034   0.234   4.185
  504SOL     OW 1843   1.076   0.683   5.188
  504SOL    HW1 1844   0.996   0.622   5.191
  504SOL    HW2 1845   1.157   0.630   5.164
  505SOL     OW 1846   1.227   1.570   4.517
  505SOL    HW1 1847   1.248   1.644   4.452
  505SOL    HW2 1848   1.295   1.570   4.590
  506SOL     OW 1849   0.459   1.152   4.465
  506SOL    HW1 1850   0.388   1.125   4.530
  506SOL    HW2 1851   0.433   1.124   4.372
  507SOL     OW 1852   1.271   1.797   4.315
  507SOL    HW1 1853   1.315   1.861   4.251
  507SOL    HW2 1854   1.221   1.849   4.385
  508SOL     OW 1855   1.032   0.549   3.740
  508SOL    HW1 1856   0.991   0.631   3.701
  508SOL    HW2 1857   1.096   0.575   3.813
  509SOL     OW 1858   0.078   0.556   5.110
  509SOL    HW1 1859   0.170   0.555   5.069
  509SOL    HW2 1860   0.072   0.630   5.177
  510SOL     OW 1861   0.561   0.222   4.871
  510SOL    HW1 1862   0.599   0.138   4.908
  510SOL    HW2 1863   0.473   0.241   4.915
  511SOL     OW 1864   0.866   0.454   4.366
  511SOL    HW1 1865   0.834   0.526   4.304
  511SOL    HW2 1866   0.890   0.373   4.313
  512SOL     OW 1867   1.017   0.039   4.477
  512SOL    HW1 1868   0.945   0.044   4.408
  512SOL    HW2 1869   0.993  -0.030   4.546
  513SOL     OW 1870   1.429   1.173   4.591
  513SOL    HW1 1871   1.374   1.089   4.584
  513SOL    HW2 1872   1.455   1.202   4.499
  514SOL     OW 1873   1.466   0.590   4.716
  514SOL    HW1 1874   1.436   0.495   4.723
  514SOL    HW2 1875   1.539   0.606   4.782
  515SOL     OW 1876   1.857   0.833   4.101
  515SOL    HW1 1877   1.899   0.769   4.165
  515SOL    HW2 1878   1.819   0.782   4.023
  516SOL     OW 1879   0.488   1.385   3.898
  516SOL    HW1 1880   0.401   1.370   3.945
  516SOL    HW2 1881   0.471   1.411   3.803
  517SOL     OW 1882   1.664   1.280   4.381
  517SOL    HW1 1883   1.763   1.288   4.395
  517SOL    HW2 1884   1.619   1.364   4.412
  518SOL     OW 1885   1.390   0.575   3.802
  518SOL    HW1 1886   1.336   0.554   3.883
  518SOL    HW2 1887   1.481   0.534   3.811
  519SOL     OW 1888   0.527   0.256   4.052
  519SOL    HW1 1889   0.554   0.197   3.977
  519SOL    HW2 1890   0.527   0.351   4.021
  520SOL     OW 1891   1.754   1.223   5.312
  520SOL    HW1 1892   1.845   1.184   5.299
  520SOL    HW2 1893   1.762   1.319   5.336
  521SOL     OW 1894   1.064   1.347   5.064
  521SOL    HW1 1895   0.984   1.324   5.119
  521SOL    HW2 1896   1.147   1.321   5.113
  522SOL     OW 1897   1.592   1.629   5.349
  522SOL    HW1 1898   1.619   1.663   5.259
  522SOL    HW2 1899   1.671   1.591   5.395
  523SOL     OW 1900   1.111   1.195   4.824
  523SOL    HW1 1901   1.071   1.239   4.905
  523SOL    HW2 1902   1.070   1.232   4.741
  524SOL     OW 1903   1.638   1.099   4.803
  524SOL    HW1 1904   1.643   1.180   4.862
  524SOL    HW2 1905   1.552   1.101   4.752
  525SOL     OW 1906   0.915   0.089   5.126
  525SOL    HW1 1907   0.940   0.069   5.031
  525SOL    HW2 1908   0.987   0.145   5.168
  526SOL     OW 1909   0.980   1.116   5.443
  526SOL    HW1 1910   0.881   1.122   5.453
  526SOL    HW2 1911   1.003   1.036   5.387
  527SOL     OW 1912   0.705   1.050   4.092
  527SOL    HW1 1913   0.691   1.057   4.191
  527SOL    HW2 1914   0.789   0.999   4.074
  528SOL     OW 1915   0.410   0.813   4.975
  528SOL    HW1 1916   0.496   0.825   5.025
  528SOL    HW2 1917   0.368   0.726   5.002
  529SOL     OW 1918   1.274   0.386   4.986
  529SOL    HW1 1919   1.295   0.460   5.050
  529SOL    HW2 1920   1.185   0.403   4.943
  530SOL     OW 1921   0.064   1.564   5.055
  530SOL    HW1 1922   0.018   1.646   5.021
  530SOL    HW2 1923   0.162   1.583   5.064
  531SOL     OW 1924   0.367   1.100   4.225
  531SOL    HW1 1925   0.360   1.183   4.169
  531SOL    HW2 1926   0.371   1.020   4.165
  532SOL     OW 1927   0.566   0.537   4.589
  532SOL    HW1 1928   0.578   0.603   4.515
  532SOL    HW2 1929   0.612   0.571   4.672
  533SOL     OW 1930   1.252   1.348   4.112
  533SOL    HW1 1931   1.302   1.425   4.152
  533SOL    HW2 1932   1.157   1.350   4.144
  534SOL     OW 1933   1.272   1.445   4.866
  534SOL    HW1 1934   1.319   1.458   4.953
  534SOL    HW2 1935   1.206   1.371   4.875
  535SOL     OW 1936   1.582   0.639   4.196
  535SOL    HW1 1937   1.551   0.700   4.269
  535SOL    HW2 1938   1.632   0.691   4.127
  536SOL     OW 1939   0.354   1.510   5.053
  536SOL    HW1 1940   0.333   1.466   4.966
  536SOL    HW2 1941   0.451   1.536   5.056
  537SOL     OW 1942   0.402   0.751   5.322
  537SOL    HW1 1943   0.470   0.806   5.275
  537SOL    HW2 1944   0.442   0.663   5.349
  538SOL     OW 1945   1.587   0.779   5.394
  538SOL    HW1 1946   1.495   0.817   5.389
  538SOL    HW2 1947   1.647   0.826   5.329
  539SOL     OW 1948   1.013   0.105   5.494
  539SOL    HW1 1949   1.019   0.190   5.442
  539SOL    HW2 1950   1.045   0.029   5.437
  540SOL     OW 1951   0.504   0.050   5.464
  540SOL    HW1 1952   0.462  -0.007   5.394
  540SOL    HW2 1953   0.438   0.119   5.496
  541SOL     OW 1954   0.573   0.870   4.753
  541SOL    HW1 1955   0.617   0.959   4.744
  541SOL    HW2 1956   0.510   0.870   4.830
  542SOL     OW 1957   1.360   0.862   4.769
  542SOL    HW1 1958   1.285   0.862   4.703
  542SOL    HW2 1959   1.397   0.770   4.778
  543SOL     OW 1960   1.209   0.525   3.999
  543SOL    HW1 1961   1.222   0.441   4.053
  543SOL    HW2 1962   1.180   0.599   4.059
  544SOL     OW 1963   0.307   0.213   4.955
  544SOL    HW1 1964   0.284   0.250   5.045
  544SOL    HW2 1965   0.277   0.118   4.949
  545SOL     OW 1966   0.037   1.310   5.006
  545SOL    HW1 1967   0.090   1.261   5.074
  545SOL    HW2 1968   0.059   1.408   5.011
  546SOL     OW 1969   0.732   0.634   4.788
  546SOL    HW1 1970   0.791   0.608   4.712
  546SOL    HW2 1971   0.704   0.730   4.777
  547SOL     OW 1972   1.728   0.935   5.578
  547SOL    HW1 1973   1.682   0.928   5.489
  547SOL    HW2 1974   1.666   0.979   5.644
  548SOL     OW 1975   0.307   0.063   4.342
  548SOL    HW1 1976   0.296   0.157   4.375
  548SOL    HW2 1977   0.302   0.000   4.419
  549SOL     OW 1978   1.622   0.367   4.098
  549SOL    HW1 1979   1.624   0.291   4.162
  549SOL    HW2 1980   1.574   0.444   4.138
  550SOL     OW 1981   1.023   0.766   4.690
  550SOL    HW1 1982   1.038   0.787   4.786
  550SOL    HW2 1983   0.993   0.671   4.681
  551SOL     OW 1984   0.980   1.573   5.424
  551SOL    HW1 1985   0.960   1.617   5.336
  551SOL    HW2 1986   1.019   1.482   5.408
  552SOL     OW 1987   1.859   1.518   5.329
  552SOL    HW1 1988   1.873   1.545   5.234
  552SOL    HW2 1989   1.942   1.540   5.382
  553SOL     OW 1990   0.350   0.898   5.528
  553SOL    HW1 1991   0.426   0.942   5.576
  553SOL    HW2 1992   0.385   0.851   5.446
  554SOL     OW 1993   1.540   0.274   3.849
  554SOL    HW1 1994   1.479   0.199   3.872
  554SOL    HW2 1995   1.562   0.326   3.932
  555SOL     OW 1996   1.303   0.838   3.766
  555SOL    HW1 1997   1.337   0.745   3.781
  555SOL    HW2 1998   1.321   0.865   3.671
  556SOL     OW 1999   1.068   1.333   4.573
  556SOL    HW1 2000   1.075   1.249   4.518
  556SOL    HW2 2001   1.130   1.402   4.537
  557SOL     OW 2002   0.319   0.810   4.673
  557SOL    HW1 2003   0.412   0.846   4.678
  557SOL    HW2 2004   0.313   0.725   4.725
  558SOL     OW 2005   0.339   0.509   4.730
  558SOL    HW1 2006   0.287   0.426   4.713
  558SOL    HW2 2007   0.416   0.514   4.666
  559SOL     OW 2008   1.138   0.380   5.402
  559SOL    HW1 2009   1.093   0.443   5.466
  559SOL    HW2 2010   1.231   0.411   5.385
  560SOL     OW 2011   1.160   0.207   5.201
  560SOL    HW1 2012   1.160   0.271   5.278
  560SOL    HW2 2013   1.188   0.255   5.118
  561SOL     OW 2014   0.008   1.326   3.924
  561SOL    HW1 2015  -0.085   1.347   3.893
  561SOL    HW2 2016   0.018   1.227   3.937
  562SOL     OW 2017   0.088   1.801   4.651
  562SOL    HW1 2018   0.046   1.715   4.624
  562SOL    HW2 2019   0.182   1.804   4.617
  563SOL     OW 2020   0.504   1.568   4.634
  563SOL    HW1 2021   0.570   1.642   4.643
  563SOL    HW2 2022   0.548   1.489   4.592
  564SOL     OW 2023   1.002   0.796   4.962
  564SOL    HW1 2024   1.043   0.764   5.048
  564SOL    HW2 2025   0.906   0.769   4.959
  565SOL     OW 2026   0.040   0.544   4.838
  565SOL    HW1 2027   0.125   0.511   4.797
  565SOL    HW2 2028   0.053   0.559   4.936
  566SOL     OW 2029   0.189   0.520   5.446
  566SOL    HW1 2030   0.248   0.480   5.376
  566SOL    HW2 2031   0.131   0.591   5.405
  567SOL     OW 2032   1.369   0.950   5.384
  567SOL    HW1 2033   1.408   1.039   5.404
  567SOL    HW2 2034   1.379   0.930   5.287
  568SOL     OW 2035   0.815   0.572   4.049
  568SOL    HW1 2036   0.822   0.483   4.003
  568SOL    HW2 2037   0.721   0.606   4.041
  569SOL     OW 2038   1.657   0.604   4.930
  569SOL    HW1 2039   1.619   0.535   4.992
  569SOL    HW2 2040   1.739   0.568   4.886
  570SOL     OW 2041   0.252   1.564   5.468
  570SOL    HW1 2042   0.222   1.621   5.544
  570SOL    HW2 2043   0.245   1.467   5.494
  571SOL     OW 2044   0.671   0.464   4.993
  571SOL    HW1 2045   0.637   0.375   4.963
  571SOL    HW2 2046   0.697   0.518   4.913
  572SOL     OW 2047   0.930   1.678   5.189
  572SOL    HW1 2048   0.906   1.660   5.094
  572SOL    HW2 2049   0.960   1.772   5.199
  573SOL     OW 2050   0.473   0.500   3.915
  573SOL    HW1 2051   0.534   0.580   3.919
  573SOL    HW2 2052   0.378   0.531   3.922
  574SOL     OW 2053   0.159   1.137   5.190
  574SOL    HW1 2054   0.181   1.076   5.266
  574SOL    HW2 2055   0.169   1.088   5.104
  575SOL     OW 2056   1.347   1.059   4.958
  575SOL    HW1 2057   1.371   0.996   4.884
  575SOL    HW2 2058   1.257   1.099   4.940
  576SOL     OW 2059   1.302   0.855   4.033
  576SOL    HW1 2060   1.216   0.824   4.075
  576SOL    HW2 2061   1.298   0.841   3.934
  577SOL     OW 2062   1.759   1.747   4.878
  577SOL    HW1 2063   1.820   1.777   4.805
  577SOL    HW2 2064   1.721   1.658   4.856
  578SOL     OW 2065   1.252   1.731   4.852
  578SOL    HW1 2066   1.336   1.736   4.798
  578SOL    HW2 2067   1.229   1.635   4.870
  579SOL     OW 2068   0.083   1.258   4.746
  579SOL    HW1 2069   0.078   1.257   4.846
  579SOL    HW2 2070   0.000   1.217   4.708
  580SOL     OW 2071   0.688   1.662   5.440
  580SOL    HW1 2072   0.632   1.743   5.449
  580SOL    HW2 2073   0.740   1.666   5.354
  581SOL     OW 2074   1.726   0.135   4.247
  581SOL    HW1 2075   1.799   0.118   4.180
  581SOL    HW2 2076   1.695   0.048   4.285
  582SOL     OW 2077   1.388   1.573   4.201
  582SOL    HW1 2078   1.455   1.585   4.127
  582SOL    HW2 2079   1.348   1.662   4.224
  583SOL     OW 2080   0.130   1.794   5.575
  583SOL    HW1 2081   0.089   1.720   5.628
  583SOL    HW2 2082   0.194   1.845   5.633
  584SOL     OW 2083   1.280   0.927   4.396
  584SOL    HW1 2084   1.340   0.846   4.398
  584SOL    HW2 2085   1.320   0.996   4.336
  585SOL     OW 2086   0.830   1.273   5.146
  585SOL    HW1 2087   0.825   1.306   5.241
  585SOL    HW2 2088   0.744   1.292   5.100
  586SOL     OW 2089   0.672   1.616   3.878
  586SOL    HW1 2090   0.681   1.626   3.779
  586SOL    HW2 2091   0.632   1.527   3.899
  587SOL     OW 2092   1.650   1.720   5.118
  587SOL    HW1 2093   1.703   1.730   5.034
  587SOL    HW2 2094   1.623   1.810   5.152
  588SOL     OW 2095   1.841   0.175   4.687
  588SOL    HW1 2096   1.880   0.090   4.651
  588SOL    HW2 2097   1.743   0.177   4.668
  589SOL     OW 2098   0.263   0.326   4.444
  589SOL    HW1 2099   0.184   0.377   4.410
  589SOL    HW2 2100   0.254   0.311   4.542
  590SOL     OW 2101   1.194   1.612   3.755
  590SOL    HW1 2102   1.200   1.519   3.792
  590SOL    HW2 2103   1.135   1.612   3.675
  591SOL     OW 2104   0.822   1.002   5.096
  591SOL    HW1 2105   0.862   1.001   5.004
  591SOL    HW2 2106   0.832   1.094   5.136
  592SOL     OW 2107   0.916   0.910   4.015
  592SOL    HW1 2108   0.979   0.948   3.947
  592SOL    HW2 2109   0.956   0.827   4.054
  593SOL     OW 2110   1.504   1.607   3.768
  593SOL    HW1 2111   1.412   1.644   3.775
  593SOL    HW2 2112   1.542   1.627   3.678
  594SOL     OW 2113   0.372   1.288   5.214
  594SOL    HW1 2114   0.359   1.381   5.180
  594SOL    HW2 2115   0.288   1.236   5.201
  595SOL     OW 2116   1.614   1.292   5.013
  595SOL    HW1 2117   1.674   1.295   5.093
  595SOL    HW2 2118   1.539   1.356   5.026
  596SOL     OW 2119   1.039   1.098   4.420
  596SOL    HW1 2120   0.969   1.051   4.474
  596SOL    HW2 2121   1.098   1.030   4.377
  597SOL     OW 2122   1.014   0.236   4.695
  597SOL    HW1 2123   1.006   0.200   4.602
  597SOL    HW2 2124   1.012   0.160   4.760
  598SOL     OW 2125   0.590   1.487   4.215
  598SOL    HW1 2126   0.632   1.429   4.145
  598SOL    HW2 2127   0.546   1.566   4.171
  599SOL     OW 2128   1.709   0.385   5.105
  599SOL    HW1 2129   1.782   0.454   5.109
  599SOL    HW2 2130   1.737   0.310   5.046
  600SOL     OW 2131   0.255   1.348   4.014
  600SOL    HW1 2132   0.159   1.349   3.987
  600SOL    HW2 2133   0.267   1.401   4.098
  601SOL     OW 2134   0.105   1.013   5.450
  601SOL    HW1 2135   0.028   0.980   5.504
  601SOL    HW2 2136   0.190   0.983   5.492
  602SOL     OW 2137   0.672   0.203   5.213
  602SOL    HW1 2138   0.762   0.187   5.173
  602SOL    HW2 2139   0.680   0.208   5.312
  603SOL     OW 2140   0.075   0.345   3.757
  603SOL    HW1 2141  -0.017   0.317   3.728
  603SOL    HW2 2142   0.106   0.422   3.701
  604SOL     OW 2143   1.440   0.856   5.122
  604SOL    HW1 2144   1.383   0.908   5.059
  604SOL    HW2 2145   1.536   0.868   5.098
  605SOL     OW 2146   0.072   0.166   4.042
  605SOL    HW1 2147   0.055   0.249   3.988
  605SOL    HW2 2148   0.162   0.129   4.020
  606SOL     OW 2149   1.183   1.335   3.843
  606SOL    HW1 2150   1.084   1.324   3.845
  606SOL    HW2 2151   1.217   1.350   3.936
  607SOL     OW 2152   0.613   0.842   5.155
  607SOL    HW1 2153   0.669   0.923   5.138
  607SOL    HW2 2154   0.672   0.762   5.158
  608SOL     OW 2155   1.493   1.767   4.683
  608SOL    HW1 2156   1.526   1.831   4.614
  608SOL    HW2 2157   1.559   1.761   4.758
  609SOL     OW 2158   0.716   0.565   5.432
  609SOL    HW1 2159   0.735   0.630   5.506
  609SOL    HW2 2160   0.776   0.485   5.441
  610SOL     OW 2161   1.450   1.220   5.357
  610SOL    HW1 2162   1.441   1.210   5.456
  610SOL    HW2 2163   1.546   1.213   5.331
  611SOL     OW 2164   0.390   1.741   5.284
  611SOL    HW1 2165   0.299   1.782   5.282
  611SOL    HW2 2166   0.383   1.647   5.316
  612SOL     OW 2167   1.674   0.883   4.978
  612SOL    HW1 2168   1.647   0.794   4.941
  612SOL    HW2 2169   1.675   0.951   4.905
  613SOL     OW 2170   1.225   0.325   4.173
  613SOL    HW1 2171   1.290   0.251   4.162
  613SOL    HW2 2172   1.245   0.375   4.257
  614SOL     OW 2173   0.594   0.745   4.376
  614SOL    HW1 2174   0.644   0.830   4.357
  614SOL    HW2 2175   0.506   0.747   4.328
  615SOL     OW 2176   1.777   0.342   5.366
  615SOL    HW1 2177   1.760   0.373   5.272
  615SOL    HW2 2178   1.693   0.305   5.404
  616SOL     OW 2179   1.730   0.934   5.241
  616SOL    HW1 2180   1.768   1.025   5.256
  616SOL    HW2 2181   1.722   0.917   5.142
  617SOL     OW 2182   0.859   1.374   3.740
  617SOL    HW1 2183   0.813   1.389   3.828
  617SOL    HW2 2184   0.903   1.459   3.710
  618SOL     OW 2185   0.661   1.790   4.677
  618SOL    HW1 2186   0.615   1.878   4.664
  618SOL    HW2 2187   0.760   1.802   4.670
  619SOL     OW 2188   0.859   0.956   4.585
  619SOL    HW1 2189   0.913   0.887   4.633
  619SOL    HW2 2190   0.827   1.025   4.651
  620SOL     OW 2191   1.083   0.984   3.811
  620SOL    HW1 2192   1.060   1.037   3.729
  620SOL    HW2 2193   1.164   0.928   3.792
  621SOL     OW 2194   1.861   1.569   4.575
  621SOL    HW1 2195   1.790   1.557   4.505
  621SOL    HW2 2196   1.862   1.490   4.635
  622SOL     OW 2197   0.221   1.314   5.568
  622SOL    HW1 2198   0.156   1.241   5.547
  622SOL    HW2 2199   0.225   1.328   5.666
  623SOL     OW 2200   0.079   1.240   4.377
  623SOL    HW1 2201   0.078   1.193   4.465
  623SOL    HW2 2202   0.161   1.212   4.326
  624SOL     OW 2203   0.672   1.391   5.348
  624SOL    HW1 2204   0.594   1.341   5.386
  624SOL    HW2 2205   0.669   1.486   5.379
  625SOL     OW 2206   1.824   0.192   4.951
  625SOL    HW1 2207   1.820   0.102   4.995
  625SOL    HW2 2208   1.827   0.181   4.852
  626SOL     OW 2209   0.428   0.424   4.244
  626SOL    HW1 2210   0.458   0.352   4.182
  626SOL    HW2 2211   0.389   0.384   4.327
  627SOL     OW 2212   1.705   1.487   4.828
  627SOL    HW1 2213   1.612   1.462   4.801
  627SOL    HW2 2214   1.731   1.437   4.910
  628SOL     OW 2215   0.317   0.547   5.004
  628SOL    HW1 2216   0.355   0.488   5.076
  628SOL    HW2 2217   0.357   0.521   4.916
  629SOL     OW 2218   0.812   1.586   4.411
  629SOL    HW1 2219   0.844   1.596   4.317
  629SOL    HW2 2220   0.733   1.524   4.413
  630SOL     OW 2221   1.424   0.214   4.836
  630SOL    HW1 2222   1.476   0.149   4.891
  630SOL    HW2 2223   1.375   0.277   4.897
  631SOL     OW 2224   1.001   0.034   4.878
  631SOL    HW1 2225   0.938  -0.038   4.847
  631SOL    HW2 2226   1.094  -0.002   4.878
  632SOL     OW 2227   0.770   1.330   4.025
  632SOL    HW1 2228   0.724   1.243   4.042
  632SOL    HW2 2229   0.861   1.327   4.066
  633SOL     OW 2230   0.618   1.567   5.008
  633SOL    HW1 2231   0.613   1.649   5.065
  633SOL    HW2 2232   0.707   1.564   4.963
  634SOL     OW 2233   1.352   0.052   3.892
  634SOL    HW1 2234   1.387   0.011   3.808
  634SOL    HW2 2235   1.262   0.014   3.912
  635SOL     OW 2236   1.300   0.453   4.415
  635SOL    HW1 2237   1.241   0.533   4.419
  635SOL    HW2 2238   1.315   0.418   4.508
  636SOL     OW 2239   1.593   0.221   4.606
  636SOL    HW1 2240   1.509   0.220   4.660
  636SOL    HW2 2241   1.595   0.304   4.550
  637SOL     OW 2242   0.039   1.077   4.024
  637SOL    HW1 2243   0.138   1.066   4.015
  637SOL    HW2 2244  -0.001   0.991   4.056
  638SOL     OW 2245   0.875   1.646   4.061
  638SOL    HW1 2246   0.798   1.611   4.007
  638SOL    HW2 2247   0.843   1.717   4.123
  639SOL     OW 2248   0.230   0.628   5.699
  639SOL    HW1 2249   0.137   0.626   5.736
  639SOL    HW2 2250   0.231   0.589   5.607
  640SOL     OW 2251   0.225   0.275   6.582
  640SOL    HW1 2252   0.260   0.258   6.674
  640SOL    HW2 2253   0.137   0.230   6.570
  641SOL     OW 2254   0.019   0.368   6.233
  641SOL    HW1 2255  -0.063   0.411   6.272
  641SOL    HW2 2256  -0.009   0.295   6.170
  642SOL     OW 2257   0.569   1.275   6.751
  642SOL    HW1 2258   0.476   1.268   6.714
  642SOL    HW2 2259   0.580   1.364   6.795
  643SOL     OW 2260   1.555   1.511   6.289
  643SOL    HW1 2261   1.498   1.495   6.370
  643SOL    HW2 2262   1.496   1.521   6.209
  644SOL     OW 2263   1.135   0.703   6.303
  644SOL    HW1 2264   1.192   0.781   6.278
  644SOL    HW2 2265   1.075   0.729   6.379
  645SOL     OW 2266   1.755   0.607   5.817
  645SOL    HW1 2267   1.743   0.594   5.718
  645SOL    HW2 2268   1.725   0.526   5.866
  646SOL     OW 2269   0.768   1.144   6.609
  646SOL    HW1 2270   0.690   1.161   6.669
  646SOL    HW2 2271   0.802   1.231   6.573
  647SOL     OW 2272   0.850   0.798   7.409
  647SOL    HW1 2273   0.846   0.874   7.474
  647SOL    HW2 2274   0.872   0.834   7.318
  648SOL     OW 2275   0.685   1.012   6.251
  648SOL    HW1 2276   0.754   0.996   6.321
  648SOL    HW2 2277   0.612   1.069   6.289
  649SOL     OW 2278   0.686   1.161   7.389
  649SOL    HW1 2279   0.746   1.240   7.403
  649SOL    HW2 2280   0.600   1.192   7.348
  650SOL     OW 2281   0.335   1.435   6.647
  650SOL    HW1 2282   0.257   1.404   6.594
  650SOL    HW2 2283   0.393   1.493   6.590
  651SOL     OW 2284   1.460   1.505   6.925
  651SOL    HW1 2285   1.484   1.599   6.951
  651SOL    HW2 2286   1.444   1.451   7.007
  652SOL     OW 2287   0.438   0.392   7.085
  652SOL    HW1 2288   0.520   0.336   7.094
  652SOL    HW2 2289   0.357   0.334   7.089
  653SOL     OW 2290   1.603   0.447   6.323
  653SOL    HW1 2291   1.529   0.493   6.273
  653SOL    HW2 2292   1.654   0.515   6.376
  654SOL     OW 2293   0.231   1.713   6.069
  654SOL    HW1 2294   0.265   1.790   6.123
  654SOL    HW2 2295   0.275   1.713   5.979
  655SOL     OW 2296   1.127   1.341   7.276
  655SOL    HW1 2297   1.174   1.341   7.364
  655SOL    HW2 2298   1.079   1.254   7.265
  656SOL     OW 2299   0.230   1.434   6.124
  656SOL    HW1 2300   0.204   1.530   6.124
  656SOL    HW2 2301   0.159   1.380   6.169
  657SOL     OW 2302   0.240   1.091   6.472
  657SOL    HW1 2303   0.254   1.007   6.524
  657SOL    HW2 2304   0.185   1.155   6.527
  658SOL     OW 2305   0.620   1.786   7.025
  658SOL    HW1 2306   0.528   1.769   7.060
  658SOL    HW2 2307   0.648   1.878   7.051
  659SOL     OW 2308   0.606   0.964   5.709
  659SOL    HW1 2309   0.613   1.048   5.655
  659SOL    HW2 2310   0.652   0.977   5.797
  660SOL     OW 2311   1.594   0.114   7.066
  660SOL    HW1 2312   1.576   0.181   6.994
  660SOL    HW2 2313   1.591   0.160   7.155
  661SOL     OW 2314   0.122   0.643   6.149
  661SOL    HW1 2315   0.077   0.555   6.166
  661SOL    HW2 2316   0.121   0.697   6.233
  662SOL     OW 2317   1.842   1.767   5.945
  662SOL    HW1 2318   1.896   1.738   6.025
  662SOL    HW2 2319   1.872   1.857   5.916
  663SOL     OW 2320   0.027   1.596   5.703
  663SOL    HW1 2321   0.008   1.500   5.724
  663SOL    HW2 2322  -0.006   1.654   5.778
  664SOL     OW 2323   1.689   0.922   6.198
  664SOL    HW1 2324   1.784   0.893   6.206
  664SOL    HW2 2325   1.681   0.987   6.123
  665SOL     OW 2326   1.641   1.108   6.018
  665SOL    HW1 2327   1.727   1.110   5.966
  665SOL    HW2 2328   1.655   1.155   6.106
  666SOL     OW 2329   0.113   0.737   7.183
  666SOL    HW1 2330   0.201   0.724   7.228
  666SOL    HW2 2331   0.100   0.834   7.161
  667SOL     OW 2332   0.613   1.365   6.312
  667SOL    HW1 2333   0.564   1.278   6.321
  667SOL    HW2 2334   0.590   1.408   6.225
  668SOL     OW 2335   1.293   1.228   7.009
  668SOL    HW1 2336   1.330   1.155   6.951
  668SOL    HW2 2337   1.345   1.233   7.094
  669SOL     OW 2338   0.809   0.004   6.088
  669SOL    HW1 2339   0.849   0.095   6.079
  669SOL    HW2 2340   0.709   0.012   6.094
  670SOL     OW 2341   0.197   0.976   6.850
  670SOL    HW1 2342   0.286   0.931   6.836
  670SOL    HW2 2343   0.124   0.911   6.831
  671SOL     OW 2344   1.525   0.999   5.776
  671SOL    HW1 2345   1.462   0.923   5.789
  671SOL    HW2 2346   1.573   1.017   5.862
  672SOL     OW 2347   1.187   1.792   7.202
  672SOL    HW1 2348   1.211   1.852   7.126
  672SOL    HW2 2349   1.194   1.697   7.172
  673SOL     OW 2350   0.317   0.251   7.387
  673SOL    HW1 2351   0.388   0.322   7.393
  673SOL    HW2 2352   0.229   0.290   7.415
  674SOL     OW 2353   1.466   1.417   6.539
  674SOL    HW1 2354   1.407   1.423   6.619
  674SOL    HW2 2355   1.451   1.329   6.493
  675SOL     OW 2356   1.667   1.714   6.158
  675SOL    HW1 2357   1.626   1.691   6.070
  675SOL    HW2 2358   1.649   1.640   6.223
  676SOL     OW 2359   0.598   0.729   5.856
  676SOL    HW1 2360   0.622   0.798   5.788
  676SOL    HW2 2361   0.520   0.762   5.910
  677SOL     OW 2362   1.281   0.345   6.530
  677SOL    HW1 2363   1.195   0.295   6.517
  677SOL    HW2 2364   1.343   0.291   6.586
  678SOL     OW 2365   1.576   1.662   5.893
  678SOL    HW1 2366   1.665   1.708   5.896
  678SOL    HW2 2367   1.555   1.638   5.798
  679SOL     OW 2368   0.807   0.605   7.051
  679SOL    HW1 2369   0.760   0.602   7.140
  679SOL    HW2 2370   0.756   0.550   6.985
  680SOL     OW 2371   1.394   0.469   7.260
  680SOL    HW1 2372   1.374   0.512   7.348
  680SOL    HW2 2373   1.472   0.407   7.269
  681SOL     OW 2374   0.973   0.890   7.158
  681SOL    HW1 2375   1.019   0.806   7.129
  681SOL    HW2 2376   0.917   0.924   7.083
  682SOL     OW 2377   0.991   0.410   6.828
  682SOL    HW1 2378   0.914   0.444   6.882
  682SOL    HW2 2379   0.957   0.359   6.749
  683SOL     OW 2380   1.041   0.701   6.015
  683SOL    HW1 2381   1.067   0.697   6.111
  683SOL    HW2 2382   0.956   0.650   6.001
  684SOL     OW 2383   0.076   0.811   6.375
  684SOL    HW1 2384   0.175   0.799   6.384
  684SOL    HW2 2385   0.052   0.906   6.396
  685SOL     OW 2386   0.130   1.821   7.157
  685SOL    HW1 2387   0.120   1.806   7.256
  685SOL    HW2 2388   0.044   1.857   7.121
  686SOL     OW 2389   0.865   0.348   5.781
  686SOL    HW1 2390   0.924   0.411   5.732
  686SOL    HW2 2391   0.884   0.254   5.752
  687SOL     OW 2392   1.719   0.585   7.417
  687SOL    HW1 2393   1.693   0.674   7.381
  687SOL    HW2 2394   1.717   0.517   7.344
  688SOL     OW 2395   1.362   1.144   6.131
  688SOL    HW1 2396   1.445   1.115   6.083
  688SOL    HW2 2397   1.313   1.211   6.075
  689SOL     OW 2398   0.550   0.196   6.471
  689SOL    HW1 2399   0.545   0.191   6.571
  689SOL    HW2 2400   0.552   0.292   6.442
  690SOL     OW 2401   1.008   1.456   6.063
  690SOL    HW1 2402   0.962   1.528   6.011
  690SOL    HW2 2403   1.004   1.476   6.161
  691SOL     OW 2404   0.351   1.801   6.439
  691SOL    HW1 2405   0.401   1.715   6.445
  691SOL    HW2 2406   0.416   1.878   6.436
  692SOL     OW 2407   1.795   1.066   6.459
  692SOL    HW1 2408   1.733   1.051   6.383
  692SOL    HW2 2409   1.743   1.077   6.544
  693SOL     OW 2410   1.227   1.550   7.092
  693SOL    HW1 2411   1.233   1.473   7.156
  693SOL    HW2 2412   1.175   1.524   7.012
  694SOL     OW 2413   0.321   0.943   5.828
  694SOL    HW1 2414   0.403   0.982   5.786
  694SOL    HW2 2415   0.294   0.861   5.779
  695SOL     OW 2416   1.458   0.735   6.314
  695SOL    HW1 2417   1.453   0.670   6.389
  695SOL    HW2 2418   1.538   0.794   6.327
  696SOL     OW 2419   0.461   1.266   7.313
  696SOL    HW1 2420   0.411   1.267   7.227
  696SOL    HW2 2421   0.398   1.248   7.389
  697SOL     OW 2422   1.111   1.776   5.823
  697SOL    HW1 2423   1.051   1.714   5.873
  697SOL    HW2 2424   1.142   1.732   5.738
  698SOL     OW 2425   0.202   0.285   7.084
  698SOL    HW1 2426   0.122   0.345   7.071
  698SOL    HW2 2427   0.192   0.236   7.170
  699SOL     OW 2428   1.632   1.377   5.667
  699SOL    HW1 2429   1.600   1.471   5.657
  699SOL    HW2 2430   1.556   1.314   5.655
  700SOL     OW 2431   0.464   1.743   5.909
  700SOL    HW1 2432   0.497   1.782   5.995
  700SOL    HW2 2433   0.540   1.736   5.844
  701SOL     OW 2434   1.400   0.107   6.012
  701SOL    HW1 2435   1.376   0.070   5.922
  701SOL    HW2 2436   1.499   0.123   6.016
  702SOL     OW 2437   0.249   1.785   6.827
  702SOL    HW1 2438   0.306   1.720   6.877
  702SOL    HW2 2439   0.233   1.752   6.734
  703SOL     OW 2440   0.940   1.698   6.490
  703SOL    HW1 2441   1.020   1.641   6.511
  703SOL    HW2 2442   0.891   1.658   6.413
  704SOL     OW 2443   0.382   0.700   6.066
  704SOL    HW1 2444   0.427   0.610   6.063
  704SOL    HW2 2445   0.288   0.689   6.099
  705SOL     OW 2446   1.547   0.222   7.315
  705SOL    HW1 2447   1.542   0.259   7.407
  705SOL    HW2 2448   1.475   0.153   7.303
  706SOL     OW 2449   0.614   0.122   5.703
  706SOL    HW1 2450   0.712   0.100   5.710
  706SOL    HW2 2451   0.583   0.105   5.610
  707SOL     OW 2452   0.781   0.264   7.335
  707SOL    HW1 2453   0.848   0.203   7.378
  707SOL    HW2 2454   0.708   0.283   7.400
  708SOL     OW 2455   0.888   1.514   6.781
  708SOL    HW1 2456   0.865   1.489   6.687
  708SOL    HW2 2457   0.949   1.445   6.820
  709SOL     OW 2458   1.351   0.590   7.019
  709SOL    HW1 2459   1.379   0.547   7.104
  709SOL    HW2 2460   1.376   0.686   7.020
  710SOL     OW 2461   0.803   1.402   6.510
  710SOL    HW1 2462   0.893   1.416   6.468
  710SOL    HW2 2463   0.732   1.404   6.439
  711SOL     OW 2464   0.922   0.503   6.485
  711SOL    HW1 2465   0.897   0.494   6.389
  711SOL    HW2 2466   0.970   0.421   6.516
  712SOL     OW 2467   0.539   0.064   6.098
  712SOL    HW1 2468   0.458   0.065   6.156
  712SOL    HW2 2469   0.542   0.147   6.043
  713SOL     OW 2470   1.434   1.188   5.627
  713SOL    HW1 2471   1.466   1.112   5.684
  713SOL    HW2 2472   1.342   1.215   5.657
  714SOL     OW 2473   0.297   0.035   5.757
  714SOL    HW1 2474   0.346   0.119   5.736
  714SOL    HW2 2475   0.359  -0.030   5.802
  715SOL     OW 2476   0.935   0.236   6.066
  715SOL    HW1 2477   0.887   0.277   5.988
  715SOL    HW2 2478   1.034   0.234   6.047
  716SOL     OW 2479   1.076   0.683   7.050
  716SOL    HW1 2480   0.996   0.622   7.053
  716SOL    HW2 2481   1.157   0.630   7.026
  717SOL     OW 2482   1.227   1.570   6.379
  717SOL    HW1 2483   1.248   1.644   6.314
  717SOL    HW2 2484   1.295   1.570   6.452
  718SOL     OW 2485   0.459   1.152   6.327
  718SOL    HW1 2486   0.388   1.125   6.392
  718SOL    HW2 2487   0.433   1.124   6.234
  719SOL     OW 2488   1.271   1.797   6.177
  719SOL    HW1 2489   1.315   1.861   6.113
  719SOL    HW2 2490   1.221   1.849   6.247
  720SOL     OW 2491   1.032   0.549   5.602
  720SOL    HW1 2492   0.991   0.631   5.563
  720SOL    HW2 2493   1.096   0.575   5.675
  721SOL     OW 2494   0.078   0.556   6.972
  721SOL    HW1 2495   0.170   0.555   6.931
  721SOL    HW2 2496   0.072   0.630   7.039
  722SOL     OW 2497   0.561   0.222   6.733
  722SOL    HW1 2498   0.599   0.138   6.770
  722SOL    HW2 2499   0.473   0.241   6.777
  723SOL     OW 2500   0.866   0.454   6.228
  723SOL    HW1 2501   0.834   0.526   6.166
  723SOL    HW2 2502   0.890   0.373   6.175
  724SOL     OW 2503   1.017   0.039   6.339
  724SOL    HW1 2504   0.945   0.044   6.270
  724SOL    HW2 2505   0.993  -0.030   6.408
  725SOL     OW 2506   1.429   1.173   6.453
  725SOL    HW1 2507   1.374   1.089   6.446
  725SOL    HW2 2508   1.455   1.202   6.361
  726SOL     OW 2509   1.466   0.590   6.578
  726SOL    HW1 2510   1.436   0.495   6.585
  726SOL    HW2 2511   1.539   0.606   6.644
  727SOL     OW 2512   1.857   0.833   5.963
  727SOL    HW1 2513   1.899   0.769   6.027
  727SOL    HW2 2514   1.819   0.782   5.885
  728SOL     OW 2515   0.488   1.385   5.760
  728SOL    HW1 2516   0.401   1.370   5.807
  728SOL    HW2 2517   0.471   1.411   5.665
  729SOL     OW 2518   1.664   1.280   6.243
  729SOL    HW1 2519   1.763   1.288   6.257
  729SOL    HW2 2520   1.619   1.364   6.274
  730SOL     OW 2521   1.390   0.575   5.664
  730SOL    HW1 2522   1.336   0.554   5.745
  730SOL    HW2 2523   1.481   0.534   5.673
  731SOL     OW 2524   0.527   0.256   5.914
  731SOL    HW1 2525   0.554   0.197   5.839
  731SOL    HW2 2526   0.527   0.351   5.883
  732SOL     OW 2527   1.754   1.223   7.174
  732SOL    HW1 2528   1.845   1.184   7.161
  732SOL    HW2 2529   1.762   1.319   7.198
  733SOL     OW 2530   1.064   1.347   6.926
  733SOL    HW1 2531   0.984   1.324   6.981
  733SOL    HW2 2532   1.147   1.321   6.975
  734SOL     OW 2533   1.592   1.629   7.211
  734SOL    HW1 2534   1.619   1.663   7.121
  734SOL    HW2 2535   1.671   1.591   7.257
  735SOL     OW 2536   1.111   1.195   6.686
  735SOL    HW1 2537   1.071   1.239   6.767
  735SOL    HW2 2538   1.070   1.232   6.603
  736SOL     OW 2539   1.638   1.099   6.665
  736SOL    HW1 2540   1.643   1.180   6.724
  736SOL    HW2 2541   1.552   1.101   6.614
  737SOL     OW 2542   0.915   0.089   6.988
  737SOL    HW1 2543   0.940   0.069   6.893
  737SOL    HW2 2544   0.987   0.145   7.030
  738SOL     OW 2545   0.980   1.116   7.305
  738SOL    HW1 2546   0.881   1.122   7.315
  738SOL    HW2 2547   1.003   1.036   7.249
  739SOL     OW 2548   0.705   1.050   5.954
  739SOL    HW1 2549   0.691   1.057   6.053
  739SOL    HW2 2550   0.789   0.999   5.936
  740SOL     OW 2551   0.410   0.813   6.837
  740SOL    HW1 2552   0.496   0.825   6.887
  740SOL    HW2 2553   0.368   0.726   6.864
  741SOL     OW 2554   1.274   0.386   6.848
  741SOL    HW1 2555   1.295   0.460   6.912
  741SOL    HW2 2556   1.185   0.403   6.805
  742SOL     OW 2557   0.064   1.564   6.917
  742SOL    HW1 2558   0.018   1.646   6.883
  742SOL    HW2 2559   0.162   1.583   6.926
  743SOL     OW 2560   0.367   1.100   6.087
  743SOL    HW1 2561   0.360   1.183   6.031
  743SOL    HW2 2562   0.371   1.020   6.027
  744SOL     OW 2563   0.566   0.537   6.451
  744SOL    HW1 2564   0.578   0.603   6.377
  744SOL    HW2 2565   0.612   0.571   6.534
  745SOL     OW 2566   1.252   1.348   5.974
  745SOL    HW1 2567   1.302   1.425   6.014
  745SOL    HW2 2568   1.157   1.350   6.006
  746SOL     OW 2569   1.272   1.445   6.728
  746SOL    HW1 2570   1.319   1.458   6.815
  746SOL    HW2 2571   1.206   1.371   6.737
  747SOL     OW 2572   1.582   0.639   6.058
  747SOL    HW1 2573   1.551   0.700   6.131
  747SOL    HW2 2574   1.632   0.691   5.989
  748SOL     OW 2575   0.354   1.510   6.915
  748SOL    HW1 2576   0.333   1.466   6.828
  748SOL    HW2 2577   0.451   1.536   6.918
  749SOL     OW 2578   0.402   0.751   7.184
  749SOL    HW1 2579   0.470   0.806   7.137
  749SOL    HW2 2580   0.442   0.663   7.211
  750SOL     OW 2581   1.587   0.779   7.256
  750SOL    HW1 2582   1.495   0.817   7.251
  750SOL    HW2 2583   1.647   0.826   7.191
  751SOL     OW 2584   1.013   0.105   7.356
  751SOL    HW1 2585   1.019   0.190   7.304
  751SOL    HW2 2586   1.045   0.029   7.299
  752SOL     OW 2587   0.504   0.050   7.326
  752SOL    HW1 2588   0.462  -0.007   7.256
  752SOL    HW2 2589   0.438   0.119   7.358
  753SOL     OW 2590   0.573   0.870   6.615
  753SOL    HW1 2591   0.617   0.959   6.606
  753SOL    HW2 2592   0.510   0.870   6.692
  754SOL     OW 2593   1.360   0.862   6.631
  754SOL    HW1 2594   1.285   0.862   6.565
  754SOL    HW2 2595   1.397   0.770   6.640
  755SOL     OW 2596   1.209   0.525   5.861
  755SOL    HW1 2597   1.222   0.441   5.915
  755SOL    HW2 2598   1.180   0.599   5.921
  756SOL     OW 2599   0.307   0.213   6.817
  756SOL    HW1 2600   0.284   0.250   6.907
  756SOL    HW2 2601   0.277   0.118   6.811
  757SOL     OW 2602   0.037   1.310   6.868
  757SOL    HW1 2603   0.090   1.261   6.936
  757SOL    HW2 2604   0.059   1.408   6.873
  758SOL     OW 2605   0.732   0.634   6.650
  758SOL    HW1 2606   0.791   0.608   6.574
  758SOL    HW2 2607   0.704   0.730   6.639
  759SOL     OW 2608   1.728   0.935   7.440
  759SOL    HW1 2609   1.682   0.928   7.351
  759SOL    HW2 2610   1.666   0.979   7.506
  760SOL     OW 2611   0.307   0.063   6.204
  760SOL    HW1 2612   0.296   0.157   6.237
  760SOL    HW2 2613   0.302   0.000   6.281
  761SOL     OW 2614   1.622   0.367   5.960
  761SOL    HW1 2615   1.624   0.291   6.024
  761SOL    HW2 2616   1.574   0.444   6.000
  762SOL     OW 2617   1.023   0.766   6.552
  762SOL    HW1 2618   1.038   0.787   6.648
  762SOL    HW2 2619   0.993   0.671   6.543
  763SOL     OW 2620   0.980   1.573   7.286
  763SOL    HW1 2621   0.960   1.617   7.198
  763SOL    HW2 2622   1.019   1.482   7.270
  764SOL     OW 2623   1.859   1.518   7.191
  764SOL    HW1 2624   1.873   1.545   7.096
  764SOL    HW2 2625   1.942   1.540   7.244
  765SOL     OW 2626   0.350   0.898   7.390
  765SOL    HW1 2627   0.426   0.942   7.438
  765SOL    HW2 2628   0.385   0.851   7.308
  766SOL     OW 2629   1.540   0.274   5.711
  766SOL    HW1 2630   1.479   0.199   5.734
  766SOL    HW2 2631   1.562   0.326   5.794
  767SOL     OW 2632   1.303   0.838   5.628
  767SOL    HW1 2633   1.337   0.745   5.643
  767SOL    HW2 2634   1.321   0.865   5.533
  768SOL     OW 2635   1.068   1.333   6.435
  768SOL    HW1 2636   1.075   1.249   6.380
  768SOL    HW2 2637   1.130   1.402   6.399
  769SOL     OW 2638   0.319   0.810   6.535
  769SOL    HW1 2639   0.412   0.846   6.540
  769SOL    HW2 2640   0.313   0.725   6.587
  770SOL     OW 2641   0.339   0.509   6.592
  770SOL    HW1 2642   0.287   0.426   6.575
  770SOL    HW2 2643   0.416   0.514   6.528
  771SOL     OW 2644   1.138   0.380   7.264
  771SOL    HW1 2645   1.093   0.443   7.328
  771SOL    HW2 2646   1.231   0.411   7.247
  772SOL     OW 2647   1.160   0.207   7.063
  772SOL    HW1 2648   1.160   0.271   7.140
  772SOL    HW2 2649   1.188   0.255   6.980
  773SOL     OW 2650   0.008   1.326   5.786
  773SOL    HW1 2651  -0.085   1.347   5.755
  773SOL    HW2 2652   0.018   1.227   5.799
  774SOL     OW 2653   0.088   1.801   6.513
  774SOL    HW1 2654   0.046   1.715   6.486
  774SOL    HW2 2655   0.182   1.804   6.479
  775SOL     OW 2656   0.504   1.568   6.496
  775SOL    HW1 2657   0.570   1.642   6.505
  775SOL    HW2 2658   0.548   1.489   6.454
  776SOL     OW 2659   1.002   0.796   6.824
  776SOL    HW1 2660   1.043   0.764   6.910
  776SOL    HW2 2661   0.906   0.769   6.821
  777SOL     OW 2662   0.040   0.544   6.700
  777SOL    HW1 2663   0.125   0.511   6.659
  777SOL    HW2 2664   0.053   0.559   6.798
  778SOL     OW 2665   0.189   0.520   7.308
  778SOL    HW1 2666   0.248   0.480   7.238
  778SOL    HW2 2667   0.131   0.591   7.267
  779SOL     OW 2668   1.369   0.950   7.246
  779SOL    HW1 2669   1.408   1.039   7.266
  779SOL    HW2 2670   1.379   0.930   7.149
  780SOL     OW 2671   0.815   0.572   5.911
  780SOL    HW1 2672   0.822   0.483   5.865
  780SOL    HW2 2673   0.721   0.606   5.903
  781SOL     OW 2674   1.657   0.604   6.792
  781SOL    HW1 2675   1.619   0.535   6.854
  781SOL    HW2 2676   1.739   0.568   6.748
  782SOL     OW 2677   0.252   1.564   7.330
  782SOL    HW1 2678   0.222   1.621   7.406
  782SOL    HW2 2679   0.245   1.467   7.356
  783SOL     OW 2680   0.671   0.464   6.855
  783SOL    HW1 2681   0.637   0.375   6.825
  783SOL    HW2 2682   0.697   0.518   6.775
  784SOL     OW 2683   0.930   1.678   7.051
  784SOL    HW1 2684   0.906   1.660   6.956
  784SOL    HW2 2685   0.960   1.772   7.061
  785SOL     OW 2686   0.473   0.500   5.777
  785SOL    HW1 2687   0.534   0.580   5.781
  785SOL    HW2 2688   0.378   0.531   5.784
  786SOL     OW 2689   0.159   1.137   7.052
  786SOL    HW1 2690   0.181   1.076   7.128
  786SOL    HW2 2691   0.169   1.088   6.966
  787SOL     OW 2692   1.347   1.059   6.820
  787SOL    HW1 2693   1.371   0.996   6.746
  787SOL    HW2 2694   1.257   1.099   6.802
  788SOL     OW 2695   1.302   0.855   5.895
  788SOL    HW1 2696   1.216   0.824   5.937
  788SOL    HW2 2697   1.298   0.841   5.796
  789SOL     OW 2698   1.759   1.747   6.740
  789SOL    HW1 2699   1.820   1.777   6.667
  789SOL    HW2 2700   1.721   1.658   6.718
  790SOL     OW 2701   1.252   1.731   6.714
  790SOL    HW1 2702   1.336   1.736   6.660
  790SOL    HW2 2703   1.229   1.635   6.732
  791SOL     OW 2704   0.083   1.258   6.608
  791SOL    HW1 2705   0.078   1.257   6.708
  791SOL    HW2 2706   0.000   1.217   6.570
  792SOL     OW 2707   0.688   1.662   7.302
  792SOL    HW1 2708   0.632   1.743   7.311
  792SOL    HW2 2709   0.740   1.666   7.216
  793SOL     OW 2710   1.726   0.135   6.109
  793SOL    HW1 2711   1.799   0.118   6.042
  793SOL    HW2 2712   1.695   0.048   6.147
  794SOL     OW 2713   1.388   1.573   6.063
  794SOL    HW1 2714   1.455   1.585   5.989
  794SOL    HW2 2715   1.348   1.662   6.086
  795SOL     OW 2716   0.130   1.794   7.437
  795SOL    HW1 2717   0.089   1.720   7.490
  795SOL    HW2 2718   0.194   1.845   7.495
  796SOL     OW 2719   1.280   0.927   6.258
  796SOL    HW1 2720   1.340   0.846   6.260
  796SOL    HW2 2721   1.320   0.996   6.198
  797SOL     OW 2722   0.830   1.273   7.008
  797SOL    HW1 2723   0.825   1.306   7.103
  797SOL    HW2 2724   0.744   1.292   6.962
  798SOL     OW 2725   0.672   1.616   5.740
  798SOL    HW1 2726   0.681   1.626   5.641
  798SOL    HW2 2727   0.632   1.527   5.761
  799SOL     OW 2728   1.650   1.720   6.980
  799SOL    HW1 2729   1.703   1.730   6.896
  799SOL    HW2 2730   1.623   1.810   7.014
  800SOL     OW 2731   1.841   0.175   6.549
  800SOL    HW1 2732   1.880   0.090   6.513
  800SOL    HW2 2733   1.743   0.177   6.530
  801SOL     OW 2734   0.263   0.326   6.306
  801SOL    HW1 2735   0.184   0.377   6.272
  801SOL    HW2 2736   0.254   0.311   6.404
  802SOL     OW 2737   1.194   1.612   5.617
  802SOL    HW1 2738   1.200   1.519   5.654
  802SOL    HW2 2739   1.135   1.612   5.537
  803SOL     OW 2740   0.822   1.002   6.958
  803SOL    HW1 2741   0.862   1.001   6.866
  803SOL    HW2 2742   0.832   1.094   6.998
  804SOL     OW 2743   0.916   0.910   5.877
  804SOL    HW1 2744   0.979   0.948   5.809
  804SOL    HW2 2745   0.956   0.827   5.916
  805SOL     OW 2746   1.504   1.607   5.630
  805SOL    HW1 2747   1.412   1.644   5.637
  805SOL    HW2 2748   1.542   1.627   5.540
  806SOL     OW 2749   0.372   1.288   7.076
  806SOL    HW1 2750   0.359   1.381   7.042
  806SOL    HW2 2751   0.288   1.236   7.063
  807SOL     OW 2752   1.614   1.292   6.875
  807SOL    HW1 2753   1.674   1.295   6.955
  807SOL    HW2 2754   1.539   1.356   6.888
  808SOL     OW 2755   1.039   1.098   6.282
  808SOL    HW1 2756   0.969   1.051   6.336
  808SOL    HW2 2757   1.098   1.030   6.239
  809SOL     OW 2758   1.014   0.236   6.557
  809SOL    HW1 2759   1.006   0.200   6.464
  809SOL    HW2 2760   1.012   0.160   6.622
  810SOL     OW 2761   0.590   1.487   6.077
  810SOL    HW1 2762   0.632   1.429   6.007
  810SOL    HW2 2763   0.546   1.566   6.033
  811SOL     OW 2764   1.709   0.385   6.967
  811SOL    HW1 2765   1.782   0.454   6.971
  811SOL    HW2 2766   1.737   0.310   6.908
  812SOL     OW 2767   0.255   1.348   5.876
  812SOL    HW1 2768   0.159   1.349   5.849
  812SOL    HW2 2769   0.267   1.401   5.960
  813SOL     OW 2770   0.105   1.013   7.312
  813SOL    HW1 2771   0.028   0.980   7.366
  813SOL    HW2 2772   0.190   0.983   7.354
  814SOL     OW 2773   0.672   0.203   7.075
  814SOL    HW1 2774   0.762   0.187   7.035
  814SOL    HW2 2775   0.680   0.208   7.174
  815SOL     OW 2776   0.075   0.345   5.619
  815SOL    HW1 2777  -0.017   0.317   5.590
  815SOL    HW2 2778   0.106   0.422   5.563
  816SOL     OW 2779   1.440   0.856   6.984
  816SOL    HW1 2780   1.383   0.908   6.921
  816SOL    HW2 2781   1.536   0.868   6.960
  817SOL     OW 2782   0.072   0.166   5.904
  817SOL    HW1 2783   0.055   0.249   5.850
  817SOL    HW2 2784   0.162   0.129   5.882
  818SOL     OW 2785   1.183   1.335   5.705
  818SOL    HW1 2786   1.084   1.324   5.707
  818SOL    HW2 2787   1.217   1.350   5.798
  819SOL     OW 2788   0.613   0.842   7.017
  819SOL    HW1 2789   0.669   0.923   7.000
  819SOL    HW2 2790   0.672   0.762   7.020
  820SOL     OW 2791   1.493   1.767   6.545
  820SOL    HW1 2792   1.526   1.831   6.476
  820SOL    HW2 2793   1.559   1.761   6.620
  821SOL     OW 2794   0.716   0.565   7.294
  821SOL    HW1 2795   0.735   0.630   7.368
  821SOL    HW2 2796   0.776   0.485   7.303
  822SOL     OW 2797   1.450   1.220   7.219
  822SOL    HW1 2798   1.441   1.210   7.318
  822SOL    HW2 2799   1.546   1.213   7.193
  823SOL     OW 2800   0.390   1.741   7.146
  823SOL    HW1 2801   0.299   1.782   7.144
  823SOL    HW2 2802   0.383   1.647   7.178
  824SOL     OW 2803   1.674   0.883   6.840
  824SOL    HW1 2804   1.647   0.794   6.803
  824SOL    HW2 2805   1.675   0.951   6.767
  825SOL     OW 2806   1.225   0.325   6.035
  825SOL    HW1 2807   1.290   0.251   6.024
  825SOL    HW2 2808   1.245   0.375   6.119
  826SOL     OW 2809   0.594   0.745   6.238
  826SOL    HW1 2810   0.644   0.830   6.219
  826SOL    HW2 2811   0.506   0.747   6.190
  827SOL     OW 2812   1.777   0.342   7.228
  827SOL    HW1 2813   1.760   0.373   7.134
  827SOL    HW2 2814   1.693   0.305   7.266
  828SOL     OW 2815   1.730   0.934   7.103
  828SOL    HW1 2816   1.768   1.025   7.118
  828SOL    HW2 2817   1.722   0.917   7.004
  829SOL     OW 2818   0.859   1.374   5.602
  829SOL    HW1 2819   0.813   1.389   5.690
  829SOL    HW2 2820   0.903   1.459   5.572
  830SOL     OW 2821   0.661   1.790   6.539
  830SOL    HW1 2822   0.615   1.878   6.526
  830SOL    HW2 2823   0.760   1.802   6.532
  831SOL     OW 2824   0.859   0.956   6.447
  831SOL    HW1 2825   0.913   0.887   6.495
  831SOL    HW2 2826   0.827   1.025   6.513
  832SOL     OW 2827   1.083   0.984   5.673
  832SOL    HW1 2828   1.060   1.037   5.591
  832SOL    HW2 2829   1.164   0.928   5.654
  833SOL     OW 2830   1.861   1.569   6.437
  833SOL    HW1 2831   1.790   1.557   6.367
  833SOL    HW2 2832   1.862   1.490   6.497
  834SOL     OW 2833   0.221   1.314   7.430
  834SOL    HW1 2834   0.156   1.241   7.409
  834SOL    HW2 2835   0.225   1.328   7.528
  835SOL     OW 2836   0.079   1.240   6.239
  835SOL    HW1 2837   0.078   1.193   6.327
  835SOL    HW2 2838   0.161   1.212   6.188
  836SOL     OW 2839   0.672   1.391   7.210
  836SOL    HW1 2840   0.594   1.341   7.248
  836SOL    HW2 2841   0.669   1.486   7.241
  837SOL     OW 2842   1.824   0.192   6.813
  837SOL    HW1 2843   1.820   0.102   6.857
  837SOL    HW2 2844   1.827   0.181   6.714
  838SOL     OW 2845   0.428   0.424   6.106
  838SOL    HW1 2846   0.458   0.352   6.044
  838SOL    HW2 2847   0.389   0.384   6.189
  839SOL     OW 2848   1.705   1.487   6.690
  839SOL    HW1 2849   1.612   1.462   6.663
  839SOL    HW2 2850   1.731   1.437   6.772
  840SOL     OW 2851   0.317   0.547   6.866
  840SOL    HW1 2852   0.355   0.488   6.938
  840SOL    HW2 2853   0.357   0.521   6.778
  841SOL     OW 2854   0.812   1.586   6.273
  841SOL    HW1 2855   0.844   1.596   6.179
  841SOL    HW2 2856   0.733   1.524   6.275
  842SOL     OW 2857   1.424   0.214   6.698
  842SOL    HW1 2858   1.476   0.149   6.753
  842SOL    HW2 2859   1.375   0.277   6.759
  843SOL     OW 2860   1.001   0.034   6.740
  843SOL    HW1 2861   0.938  -0.038   6.709
  843SOL    HW2 2862   1.094  -0.002   6.740
  844SOL     OW 2863   0.770   1.330   5.887
  844SOL    HW1 2864   0.724   1.243   5.904
  844SOL    HW2 2865   0.861   1.327   5.928
  845SOL     OW 2866   0.618   1.567   6.870
  845SOL    HW1 2867   0.613   1.649   6.927
  845SOL    HW2 2868   0.707   1.564   6.825
  846SOL     OW 2869   1.352   0.052   5.754
  846SOL    HW1 2870   1.387   0.011   5.670
  846SOL    HW2 2871   1.262   0.014   5.774
  847SOL     OW 2872   1.300   0.453   6.277
  847SOL    HW1 2873   1.241   0.533   6.281
  847SOL    HW2 2874   1.315   0.418   6.370
  848SOL     OW 2875   1.593   0.221   6.468
  848SOL    HW1 2876   1.509   0.220   6.522
  848SOL    HW2 2877   1.595   0.304   6.412
  849SOL     OW 2878   0.039   1.077   5.886
  849SOL    HW1 2879   0.138   1.066   5.877
  849SOL    HW2 2880  -0.001   0.991   5.918
  850SOL     OW 2881   0.875   1.646   5.923
  850SOL    HW1 2882   0.798   1.611   5.869
  850SOL    HW2 2883   0.843   1.717   5.985
  851SOL     OW 2884   0.230   0.628   7.561
  851SOL    HW1 2885   0.137   0.626   7.598
  851SOL    HW2 2886   0.231   0.589   7.469
  852SOL     OW 2887   0.225   0.275   8.444
  852SOL    HW1 2888   0.260   0.258   8.536
  852SOL    HW2 2889   0.137   0.230   8.432
  853SOL     OW 2890   0.019   0.368   8.095
  853SOL    HW1 2891  -0.063   0.411   8.134
  853SOL    HW2 2892  -0.009   0.295   8.032
  854SOL     OW 2893   0.569   1.275   8.613
  854SOL    HW1 2894   0.476   1.268   8.576
  854SOL    HW2 2895   0.580   1.364   8.657
  855SOL     OW 2896   1.555   1.511   8.151
  855SOL    HW1 2897   1.498   1.495   8.232
  855SOL    HW2 2898   1.496   1.521   8.071
  856SOL     OW 2899   1.135   0.703   8.165
  856SOL    HW1 2900   1.192   0.781   8.140
  856SOL    HW2 2901   1.075   0.729   8.241
  857SOL     OW 2902   1.755   0.607   7.679
  857SOL    HW1 2903   1.743   0.594   7.580
  857SOL    HW2 2904   1.725   0.526   7.728
  858SOL     OW 2905   0.768   1.144   8.471
  858SOL    HW1 2906   0.690   1.161   8.531
  858SOL    HW2 2907   0.802   1.231   8.435
  859SOL     OW 2908   0.850   0.798   9.271
  859SOL    HW1 2909   0.846   0.874   9.336
  859SOL    HW2 2910   0.872   0.834   9.180
  860SOL     OW 2911   0.685   1.012   8.113
  860SOL    HW1 2912   0.754   0.996   8.183
  860SOL    HW2 2913   0.612   1.069   8.151
  861SOL     OW 2914   0.686   1.161   9.251
  861SOL    HW1 2915   0.746   1.240   9.265
  861SOL    HW2 2916   0.600   1.192   9.210
  862SOL     OW 2917   0.335   1.435   8.509
  862SOL    HW1 2918   0.257   1.404   8.456
  862SOL    HW2 2919   0.393   1.493   8.452
  863SOL     OW 2920   1.460   1.505   8.787
  863SOL    HW1 2921   1.484   1.599   8.813
  863SOL    HW2 2922   1.444   1.451   8.869
  864SOL     OW 2923   0.438   0.392   8.947
  864SOL    HW1 2924   0.520   0.336   8.956
  864SOL    HW2 2925   0.357   0.334   8.951
  865SOL     OW 2926   1.603   0.447   8.185
  865SOL    HW1 2927   1.529   0.493   8.135
  865SOL    HW2 2928   1.654   0.515   8.238
  866SOL     OW 2929   0.231   1.713   7.931
  866SOL    HW1 2930   0.265   1.790   7.985
  866SOL    HW2 2931   0.275   1.713   7.841
  867SOL     OW 2932   1.127   1.341   9.138
  867SOL    HW1 2933   1.174   1.341   9.226
  867SOL    HW2 2934   1.079   1.254   9.127
  868SOL     OW 2935   0.230   1.434   7.986
  868SOL    HW1 2936   0.204   1.530   7.986
  868SOL    HW2 2937   0.159   1.380   8.031
  869SOL     OW 2938   0.240   1.091   8.334
  869SOL    HW1 2939   0.254   1.007   8.386
  869SOL    HW2 2940   0.185   1.155   8.389
  870SOL     OW 2941   0.620   1.786   8.887
  870SOL    HW1 2942   0.528   1.769   8.922
  870SOL    HW2 2943   0.648   1.878   8.913
  871SOL     OW 2944   0.606   0.964   7.571
  871SOL    HW1 2945   0.613   1.048   7.517
  871SOL    HW2 2946   0.652   0.977   7.659
  872SOL     OW 2947   1.594   0.114   8.928
  872SOL    HW1 2948   1.576   0.181   8.856
  872SOL    HW2 2949   1.591   0.160   9.017
  873SOL     OW 2950   0.122   0.643   8.011
  873SOL    HW1 2951   0.077   0.555   8.028
  873SOL    HW2 2952   0.121   0.697   8.095
  874SOL     OW 2953   1.842   1.767   7.807
  874SOL    HW1 2954   1.896   1.738   7.887
  874SOL    HW2 2955   1.872   1.857   7.778
  875SOL     OW 2956   0.027   1.596   7.565
  875SOL    HW1 2957   0.008   1.500   7.586
  875SOL    HW2 2958  -0.006   1.654   7.640
  876SOL     OW 2959   1.689   0.922   8.060
  876SOL    HW1 2960   1.784   0.893   8.068
  876SOL    HW2 2961   1.681   0.987   7.985
  877SOL     OW 2962   1.641   1.108   7.880
  877SOL    HW1 2963   1.727   1.110   7.828
  877SOL    HW2 2964   1.655   1.155   7.968
  878SOL     OW 2965   0.113   0.737   9.045
  878SOL    HW1 2966   0.201   0.724   9.090
  878SOL    HW2 2967   0.100   0.834   9.023
  879SOL     OW 2968   0.613   1.365   8.174
  879SOL    HW1 2969   0.564   1.278   8.183
  879SOL    HW2 2970   0.590   1.408   8.087
  880SOL     OW 2971   1.293   1.228   8.871
  880SOL    HW1 2972   1.330   1.155   8.813
  880SOL    HW2 2973   1.345   1.233   8.956
  881SOL     OW 2974   0.809   0.004   7.950
  881SOL    HW1 2975   0.849   0.095   7.941
  881SOL    HW2 2976   0.709   0.012   7.956
  882SOL     OW 2977   0.197   0.976   8.712
  882SOL    HW1 2978   0.286   0.931   8.698
  882SOL    HW2 2979   0.124   0.911   8.693
  883SOL     OW 2980   1.525   0.999   7.638
  883SOL    HW1 2981   1.462   0.923   7.651
  883SOL    HW2 2982   1.573   1.017   7.724
  884SOL     OW 2983   1.187   1.792   9.064
  884SOL    HW1 2984   1.211   1.852   8.988
  884SOL    HW2 2985   1.194   1.697   9.034
  885SOL     OW 2986   0.317   0.251   9.249
  885SOL    HW1 2987   0.388   0.322   9.255
  885SOL    HW2 2988   0.229   0.290   9.277
  886SOL     OW 2989   1.466   1.417   8.401
  886SOL    HW1 2990   1.407   1.423   8.481
  886SOL    HW2 2991   1.451   1.329   8.355
  887SOL     OW 2992   1.667   1.714   8.020
  887SOL    HW1 2993   1.626   1.691   7.932
  887SOL    HW2 2994   1.649   1.640   8.085
  888SOL     OW 2995   0.598   0.729   7.718
  888SOL    HW1 2996   0.622   0.798   7.650
  888SOL    HW2 2997   0.520   0.762   7.772
  889SOL     OW 2998   1.281   0.345   8.392
  889SOL    HW1 2999   1.195   0.295   8.379
  889SOL    HW2 3000   1.343   0.291   8.448
  890SOL     OW 3001   1.576   1.662   7.755
  890SOL    HW1 3002   1.665   1.708   7.758
  890SOL    HW2 3003   1.555   1.638   7.660
  891SOL     OW 3004   0.807   0.605   8.913
  891SOL    HW1 3005   0.760   0.602   9.002
  891SOL    HW2 3006   0.756   0.550   8.847
  892SOL     OW 3007   1.394   0.469   9.122
  892SOL    HW1 3008   1.374   0.512   9.210
  892SOL    HW2 3009   1.472   0.407   9.131
  893SOL     OW 3010   0.973   0.890   9.020
  893SOL    HW1 3011   1.019   0.806   8.991
  893SOL    HW2 3012   0.917   0.924   8.945
  894SOL     OW 3013   0.991   0.410   8.690
  894SOL    HW1 3014   0.914   0.444   8.744
  894SOL    HW2 3015   0.957   0.359   8.611
  895SOL     OW 3016   1.041   0.701   7.877
  895SOL    HW1 3017   1.067   0.697   7.973
  895SOL    HW2 3018   0.956   0.650   7.863
  896SOL     OW 3019   0.076   0.811   8.237
  896SOL    HW1 3020   0.175   0.799   8.246
  896SOL    HW2 3021   0.052   0.906   8.258
  897SOL     OW 3022   0.130   1.821   9.019
  897SOL    HW1 3023   0.120   1.806   9.118
  897SOL    HW2 3024   0.044   1.857   8.983
  898SOL     OW 3025   0.865   0.348   7.643
  898SOL    HW1 3026   0.924   0.411   7.594
  898SOL    HW2 3027   0.884   0.254   7.614
  899SOL     OW 3028   1.719   0.585   9.279
  899SOL    HW1 3029   1.693   0.674   9.243
  899SOL    HW2 3030   1.717   0.517   9.206
  900SOL     OW 3031   1.362   1.144   7.993
  900SOL    HW1 3032   1.445   1.115   7.945
  900SOL    HW2 3033   1.313   1.211   7.937
  901SOL     OW 3034   0.550   0.196   8.333
  901SOL    HW1 3035   0.545   0.191   8.433
  901SOL    HW2 3036   0.552   0.292   8.304
  902SOL     OW 3037   1.008   1.456   7.925
  902SOL    HW1 3038   0.962   1.528   7.873
  902SOL    HW2 3039   1.004   1.476   8.023
  903SOL     OW 3040   0.351   1.801   8.301
  903SOL    HW1 3041   0.401   1.715   8.307
  903SOL    HW2 3042   0.416   1.878   8.298
  904SOL     OW 3043   1.795   1.066   8.321
  904SOL    HW1 3044   1.733   1.051   8.245
  904SOL    HW2 3045   1.743   1.077   8.406
  905SOL     OW 3046   1.227   1.550   8.954
  905SOL    HW1 3047   1.233   1.473   9.018
  905SOL    HW2 3048   1.175   1.524   8.874
  906SOL     OW 3049   0.321   0.943   7.690
  906SOL    HW1 3050   0.403   0.982   7.648
  906SOL    HW2 3051   0.294   0.861   7.641
  907SOL     OW 3052   1.458   0.735   8.176
  907SOL    HW1 3053   1.453   0.670   8.251
  907SOL    HW2 3054   1.538   0.794   8.189
  908SOL     OW 3055   0.461   1.266   9.175
  908SOL    HW1 3056   0.411   1.267   9.089
  908SOL    HW2 3057   0.398   1.248   9.251
  909SOL     OW 3058   1.111   1.776   7.685
  909SOL    HW1 3059   1.051   1.714   7.735
  909SOL    HW2 3060   1.142   1.732   7.600
  910SOL     OW 3061   0.202   0.285   8.946
  910SOL    HW1 3062   0.122   0.345   8.933
  910SOL    HW2 3063   0.192   0.236   9.032
  911SOL     OW 3064   1.632   1.377   7.529
  911SOL    HW1 3065   1.600   1.471   7.519
  911SOL    HW2 3066   1.556   1.314   7.517
  912SOL     OW 3067   0.464   1.743   7.771
  912SOL    HW1 3068   0.497   1.782   7.857
  912SOL    HW2 3069   0.540   1.736   7.706
  913SOL     OW 3070   1.400   0.107   7.874
  913SOL    HW1 3071   1.376   0.070   7.784
  913SOL    HW2 3072   1.499   0.123   7.878
  914SOL     OW 3073   0.249   1.785   8.689
  914SOL    HW1 3074   0.306   1.720   8.739
  914SOL    HW2 3075   0.233   1.752   8.596
  915SOL     OW 3076   0.940   1.698   8.352
  915SOL    HW1 3077   1.020   1.641   8.373
  915SOL    HW2 3078   0.891   1.658   8.275
  916SOL     OW 3079   0.382   0.700   7.928
  916SOL    HW1 3080   0.427   0.610   7.925
  916SOL    HW2 3081   0.288   0.689   7.961
  917SOL     OW 3082   1.547   0.222   9.177
  917SOL    HW1 3083   1.542   0.259   9.269
  917SOL    HW2 3084   1.475   0.153   9.165
  918SOL     OW 3085   0.614   0.122   7.565
  918SOL    HW1 3086   0.712   0.100   7.572
  918SOL    HW2 3087   0.583   0.105   7.472
  919SOL     OW 3088   0.781   0.264   9.197
  919SOL    HW1 3089   0.848   0.203   9.240
  919SOL    HW2 3090   0.708   0.283   9.262
  920SOL     OW 3091   0.888   1.514   8.643
  920SOL    HW1 3092   0.865   1.489   8.549
  920SOL    HW2 3093   0.949   1.445   8.682
  921SOL     OW 3094   1.351   0.590   8.881
  921SOL    HW1 3095   1.379   0.547   8.966
  921SOL    HW2 3096   1.376   0.686   8.882
  922SOL     OW 3097   0.803   1.402   8.372
  922SOL    HW1 3098   0.893   1.416   8.330
  922SOL    HW2 3099   0.732   1.404   8.301
  923SOL     OW 3100   0.922   0.503   8.347
  923SOL    HW1 3101   0.897   0.494   8.251
  923SOL    HW2 3102   0.970   0.421   8.378
  924SOL     OW 3103   0.539   0.064   7.960
  924SOL    HW1 3104   0.458   0.065   8.018
  924SOL    HW2 3105   0.542   0.147   7.905
  925SOL     OW 3106   1.434   1.188   7.489
  925SOL    HW1 3107   1.466   1.112   7.546
  925SOL    HW2 3108   1.342   1.215   7.519
  926SOL     OW 3109   0.297   0.035   7.619
  926SOL    HW1 3110   0.346   0.119   7.598
  926SOL    HW2 3111   0.359  -0.030   7.664
  927SOL     OW 3112   0.935   0.236   7.928
  927SOL    HW1 3113   0.887   0.277   7.850
  927SOL    HW2 3114   1.034   0.234   7.909
  928SOL     OW 3115   1.076   0.683   8.912
  928SOL    HW1 3116   0.996   0.622   8.915
  928SOL    HW2 3117   1.157   0.630   8.888
  929SOL     OW 3118   1.227   1.570   8.241
  929SOL    HW1 3119   1.248   1.644   8.176
  929SOL    HW2 3120   1.295   1.570   8.314
  930SOL     OW 3121   0.459   1.152   8.189
  930SOL    HW1 3122   0.388   1.125   8.254
  930SOL    HW2 3123   0.433   1.124   8.096
  931SOL     OW 3124   1.271   1.797   8.039
  931SOL    HW1 3125   1.315   1.861   7.975
  931SOL    HW2 3126   1.221   1.849   8.109
  932SOL     OW 3127   1.032   0.549   7.464
  932SOL    HW1 3128   0.991   0.631   7.425
  932SOL    HW2 3129   1.096   0.575   7.537
  933SOL     OW 3130   0.078   0.556   8.834
  933SOL    HW1 3131   0.170   0.555   8.793
  933SOL    HW2 3132   0.072   0.630   8.901
  934SOL     OW 3133   0.561   0.222   8.595
  934SOL    HW1 3134   0.599   0.138   8.632
  934SOL    HW2 3135   0.473   0.241   8.639
  935SOL     OW 3136   0.866   0.454   8.090
  935SOL    HW1 3137   0.834   0.526   8.028
  935SOL    HW2 3138   0.890   0.373   8.037
  936SOL     OW 3139   1.017   0.039   8.201
  936SOL    HW1 3140   0.945   0.044   8.132
  936SOL    HW2 3141   0.993  -0.030   8.270
  937SOL     OW 3142   1.429   1.173   8.315
  937SOL    HW1 3143   1.374   1.089   8.308
  937SOL    HW2 3144   1.455   1.202   8.223
  938SOL     OW 3145   1.466   0.590   8.440
  938SOL    HW1 3146   1.436   0.495   8.447
  938SOL    HW2 3147   1.539   0.606   8.506
  939SOL     OW 3148   1.857   0.833   7.825
  939SOL    HW1 3149   1.899   0.769   7.889
  939SOL    HW2 3150   1.819   0.782   7.747
  940SOL     OW 3151   0.488   1.385   7.622
  940SOL    HW1 3152   0.401   1.370   7.669
  940SOL    HW2 3153   0.471   1.411   7.527
  941SOL     OW 3154   1.664   1.280   8.105
  941SOL    HW1 3155   1.763   1.288   8.119
  941SOL    HW2 3156   1.619   1.364   8.136
  942SOL     OW 3157   1.390   0.575   7.526
  942SOL    HW1 3158   1.336   0.554   7.607
  942SOL    HW2 3159   1.481   0.534   7.535
  943SOL     OW 3160   0.527   0.256   7.776
  943SOL    HW1 3161   0.554   0.197   7.701
  943SOL    HW2 3162   0.527   0.351   7.745
  944SOL     OW 3163   1.754   1.223   9.036
  944SOL    HW1 3164   1.845   1.184   9.023
  944SOL    HW2 3165   1.762   1.319   9.060
  945SOL     OW 3166   1.064   1.347   8.788
  945SOL    HW1 3167   0.984   1.324   8.843
  945SOL    HW2 3168   1.147   1.321   8.837
  946SOL     OW 3169   1.592   1.629   9.073
  946SOL    HW1 3170   1.619   1.663   8.983
  946SOL    HW2 3171   1.671   1.591   9.119
  947SOL     OW 3172   1.111   1.195   8.548
  947SOL    HW1 3173   1.071   1.239   8.629
  947SOL    HW2 3174   1.070   1.232   8.465
  948SOL     OW 3175   1.638   1.099   8.527
  948SOL    HW1 3176   1.643   1.180   8.586
  948SOL    HW2 3177   1.552   1.101   8.476
  949SOL     OW 3178   0.915   0.089   8.850
  949SOL    HW1 3179   0.940   0.069   8.755
  949SOL    HW2 3180   0.987   0.145   8.892
  950SOL     OW 3181   0.980   1.116   9.167
  950SOL    HW1 3182   0.881   1.122   9.177
  950SOL    HW2 3183   1.003   1.036   9.111
  951SOL     OW 3184   0.705   1.050   7.816
  951SOL    HW1 3185   0.691   1.057   7.915
  951SOL    HW2 3186   0.789   0.999   7.798
  952SOL     OW 3187   0.410   0.813   8.699
  952SOL    HW1 3188   0.496   0.825   8.749
  952SOL    HW2 3189   0.368   0.726   8.726
  953SOL     OW 3190   1.274   0.386   8.710
  953SOL    HW1 3191   1.295   0.460   8.774
  953SOL    HW2 3192   1.185   0.403   8.667
  954SOL     OW 3193   0.064   1.564   8.779
  954SOL    HW1 3194   0.018   1.646   8.745
  954SOL    HW2 3195   0.162   1.583   8.788
  955SOL     OW 3196   0.367   1.100   7.949
  955SOL    HW1 3197   0.360   1.183   7.893
  955SOL    HW2 3198   0.371   1.020   7.889
  956SOL     OW 3199   0.566   0.537   8.313
  956SOL    HW1 3200   0.578   0.603   8.239
  956SOL    HW2 3201   0.612   0.571   8.396
  957SOL     OW 3202   1.252   1.348   7.836
  957SOL    HW1 3203   1.302   1.425   7.876
  957SOL    HW2 3204   1.157   1.350   7.868
  958SOL     OW 3205   1.272   1.445   8.590
  958SOL    HW1 3206   1.319   1.458   8.677
  958SOL    HW2 3207   1.206   1.371   8.599
  959SOL     OW 3208   1.582   0.639   7.920
  959SOL    HW1 3209   1.551   0.700   7.993
  959SOL    HW2 3210   1.632   0.691   7.851
  960SOL     OW 3211   0.354   1.510   8.777
  960SOL    HW1 3212   0.333   1.466   8.690
  960SOL    HW2 3213   0.451   1.536   8.780
  961SOL     OW 3214   0.402   0.751   9.046
  961SOL    HW1 3215   0.470   0.806   8.999
  961SOL    HW2 3216   0.442   0.663   9.073
  962SOL     OW 3217   1.587   0.779   9.118
  962SOL    HW1 3218   1.495   0.817   9.113
  962SOL    HW2 3219   1.647   0.826   9.053
  963SOL     OW 3220   1.013   0.105   9.218
  963SOL    HW1 3221   1.019   0.190   9.166
  963SOL    HW2 3222   1.045   0.029   9.161
  964SOL     OW 3223   0.504   0.050   9.188
  964SOL    HW1 3224   0.462  -0.007   9.118
  964SOL    HW2 3225   0.438   0.119   9.220
  965SOL     OW 3226   0.573   0.870   8.477
  965SOL    HW1 3227   0.617   0.959   8.468
  965SOL    HW2 3228   0.510   0.870   8.554
  966SOL     OW 3229   1.360   0.862   8.493
  966SOL    HW1 3230   1.285   0.862   8.427
  966SOL    HW2 3231   1.397   0.770   8.502
  967SOL     OW 3232   1.209   0.525   7.723
  967SOL    HW1 3233   1.222   0.441   7.777
  967SOL    HW2 3234   1.180   0.599   7.783
  968SOL     OW 3235   0.307   0.213   8.679
  968SOL    HW1 3236   0.284   0.250   8.769
  968SOL    HW2 3237   0.277   0.118   8.673
  969SOL     OW 3238   0.037   1.310   8.730
  969SOL    HW1 3239   0.090   1.261   8.798
  969SOL    HW2 3240   0.059   1.408   8.735
  970SOL     OW 3241   0.732   0.634   8.512
  970SOL    HW1 3242   0.791   0.608   8.436
  970SOL    HW2 3243   0.704   0.730   8.501
  971SOL     OW 3244   1.728   0.935   9.302
  971SOL    HW1 3245   1.682   0.928   9.213
  971SOL    HW2 3246   1.666   0.979   9.368
  972SOL     OW 3247   0.307   0.063   8.066
  972SOL    HW1 3248   0.296   0.157   8.099
  972SOL    HW2 3249   0.302   0.000   8.143
  973SOL     OW 3250   1.622   0.367   7.822
  973SOL    HW1 3251   1.624   0.291   7.886
  973SOL    HW2 3252   1.574   0.444   7.862
  974SOL     OW 3253   1.023   0.766   8.414
  974SOL    HW1 3254   1.038   0.787   8.510
  974SOL    HW2 3255   0.993   0.671   8.405
  975SOL     OW 3256   0.980   1.573   9.148
  975SOL    HW1 3257   0.960   1.617   9.060
  975SOL    HW2 3258   1.019   1.482   9.132
  976SOL     OW 3259   1.859   1.518   9.053
  976SOL    HW1 3260   1.873   1.545   8.958
  976SOL    HW2 3261   1.942   1.540   9.106
  977SOL     OW 3262   0.350   0.898   9.252
  977SOL    HW1 3263   0.426   0.942   9.300
  977SOL    HW2 3264   0.385   0.851   9.170
  978SOL     OW 3265   1.540   0.274   7.573
  978SOL    HW1 3266   1.479   0.199   7.596
  978SOL    HW2 3267   1.562   0.326   7.656
  979SOL     OW 3268   1.303   0.838   7.490
  979SOL    HW1 3269   1.337   0.745   7.505
  979SOL    HW2 3270   1.321   0.865   7.395
  980SOL     OW 3271   1.068   1.333   8.297
  980SOL    HW1 3272   1.075   1.249   8.242
  980SOL    HW2 3273   1.130   1.402   8.261
  981SOL     OW 3274   0.319   0.810   8.397
  981SOL    HW1 3275   0.412   0.846   8.402
  981SOL    HW2 3276   0.313   0.725   8.449
  982SOL     OW 3277   0.339   0.509   8.454
  982SOL    HW1 3278   0.287   0.426   8.437
  982SOL    HW2 3279   0.416   0.514   8.390
  983SOL     OW 3280   1.138   0.380   9.126
  983SOL    HW1 3281   1.093   0.443   9.190
  983SOL    HW2 3282   1.231   0.411   9.109
  984SOL     OW 3283   1.160   0.207   8.925
  984SOL    HW1 3284   1.160   0.271   9.002
  984SOL    HW2 3285   1.188   0.255   8.842
  985SOL     OW 3286   0.008   1.326   7.648
  985SOL    HW1 3287  -0.085   1.347   7.617
  985SOL    HW2 3288   0.018   1.227   7.661
  986SOL     OW 3289   0.088   1.801   8.375
  986SOL    HW1 3290   0.046   1.715   8.348
  986SOL    HW2 3291   0.182   1.804   8.341
  987SOL     OW 3292   0.504   1.568   8.358
  987SOL    HW1 3293   0.570   1.642   8.367
  987SOL    HW2 3294   0.548   1.489   8.316
  988SOL     OW 3295   1.002   0.796   8.686
  988SOL    HW1 3296   1.043   0.764   8.772
  988SOL    HW2 3297   0.906   0.769   8.683
  989SOL     OW 3298   0.040   0.544   8.562
  989SOL    HW1 3299   0.125   0.511   8.521
  989SOL    HW2 3300   0.053   0.559   8.660
  990SOL     OW 3301   0.189   0.520   9.170
  990SOL    HW1 3302   0.248   0.480   9.100
  990SOL    HW2 3303   0.131   0.591   9.129
  991SOL     OW 3304   1.369   0.950   9.108
  991SOL    HW1 3305   1.408   1.039   9.128
  991SOL    HW2 3306   1.379   0.930   9.011
  992SOL     OW 3307   0.815   0.572   7.773
  992SOL    HW1 3308   0.822   0.483   7.727
  992SOL    HW2 3309   0.721   0.606   7.765
  993SOL     OW 3310   1.657   0.604   8.654
  993SOL    HW1 3311   1.619   0.535   8.716
  993SOL    HW2 3312   1.739   0.568   8.610
  994SOL     OW 3313   0.252   1.564   9.192
  994SOL    HW1 3314   0.222   1.621   9.268
  994SOL    HW2 3315   0.245   1.467   9.218
  995SOL     OW 3316   0.671   0.464   8.717
  995SOL    HW1 3317   0.637   0.375   8.687
  995SOL    HW2 3318   0.697   0.518   8.637
  996SOL     OW 3319   0.930   1.678   8.913
  996SOL    HW1 3320   0.906   1.660   8.818
  996SOL    HW2 3321   0.960   1.772   8.923
  997SOL     OW 3322   0.473   0.500   7.639
  997SOL    HW1 3323   0.534   0.580   7.643
  997SOL    HW2 3324   0.378   0.531   7.646
  998SOL     OW 3325   0.159   1.137   8.914
  998SOL    HW1 3326   0.181   1.076   8.990
  998SOL    HW2 3327   0.169   1.088   8.828
  999SOL     OW 3328   1.347   1.059   8.682
  999SOL    HW1 3329   1.371   0.996   8.608
  999SOL    HW2 3330   1.257   1.099   8.664
 1000SOL     OW 3331   1.302   0.855   7.757
 1000SOL    HW1 3332   1.216   0.824   7.799
 1000SOL    HW2 3333   1.298   0.841   7.658
 1001SOL     OW 3334   1.759   1.747   8.602
 1001SOL    HW1 3335   1.820   1.777   8.529
 1001SOL    HW2 3336   1.721   1.658   8.580
 1002SOL     OW 3337   1.252   1.731   8.576
 1002SOL    HW1 3338   1.336   1.736   8.522
 1002SOL    HW2 3339   1.229   1.635   8.594
 1003SOL     OW 3340   0.083   1.258   8.470
 1003SOL    HW1 3341   0.078   1.257   8.570
 1003SOL    HW2 3342   0.000   1.217   8.432
 1004SOL     OW 3343   0.688   1.662   9.164
 1004SOL    HW1 3344   0.632   1.743   9.173
 1004SOL    HW2 3345   0.740   1.666   9.078
 1005SOL     OW 3346   1.726   0.135   7.971
 1005SOL    HW1 3347   1.799   0.118   7.904
 1005SOL    HW2 3348   1.695   0.048   8.009
 1006SOL     OW 3349   1.388   1.573   7.925
 1006SOL    HW1 3350   1.455   1.585   7.851
 1006SOL    HW2 3351   1.348   1.662   7.948
 1007SOL     OW 3352   0.130   1.794   9.299
 1007SOL    HW1 3353   0.089   1.720   9.352
 1007SOL    HW2 3354   0.194   1.845   9.357
 1008SOL     OW 3355   1.280   0.927   8.120
 1008SOL    HW1 3356   1.340   0.846   8.122
 1008SOL    HW2 3357   1.320   0.996   8.060
 1009SOL     OW 3358   0.830   1.273   8.870
 1009SOL    HW1 3359   0.825   1.306   8.965
 1009SOL    HW2 3360   0.744   1.292   8.824
 1010SOL     OW 3361   0.672   1.616   7.602
 1010SOL    HW1 3362   0.681   1.626   7.503
 1010SOL    HW2 3363   0.632   1.527   7.623
 1011SOL     OW 3364   1.650   1.720   8.842
 1011SOL    HW1 3365   1.703   1.730   8.758
 1011SOL    HW2 3366   1.623   1.810   8.876
 1012SOL     OW 3367   1.841   0.175   8.411
 1012SOL    HW1 3368   1.880   0.090   8.375
 1012SOL    HW2 3369   1.743   0.177   8.392
 1013SOL     OW 3370   0.263   0.326   8.168
 1013SOL    HW1 3371   0.184   0.377   8.134
 1013SOL    HW2 3372   0.254   0.311   8.266
 1014SOL     OW 3373   1.194   1.612   7.479
 1014SOL    HW1 3374   1.200   1.519   7.516
 1014SOL    HW2 3375   1.135   1.612   7.399
 1015SOL     OW 3376   0.822   1.002   8.820
 1015SOL    HW1 3377   0.862   1.001   8.728
 1015SOL    HW2 3378   0.832   1.094   8.860
 1016SOL     OW 3379   0.916   0.910   7.739
 1016SOL    HW1 3380   0.979   0.948   7.671
 1016SOL    HW2 3381   0.956   0.827   7.778
 1017SOL     OW 3382   1.504   1.607   7.492
 1017SOL    HW1 3383   1.412   1.644   7.499
 1017SOL    HW2 3384   1.542   1.627   7.402
 1018SOL     OW 3385   0.372   1.288   8.938
 1018SOL    HW1 3386   0.359   1.381   8.904
 1018SOL    HW2 3387   0.288   1.236   8.925
 1019SOL     OW 3388   1.614   1.292   8.737
 1019SOL    HW1 3389   1.674   1.295   8.817
 1019SOL    HW2 3390   1.539   1.356   8.750
 1020SOL     OW 3391   1.039   1.098   8.144
 1020SOL    HW1 3392   0.969   1.051   8.198
 1020SOL    HW2 3393   1.098   1.030   8.101
 1021SOL     OW 3394   1.014   0.236   8.419
 1021SOL    HW1 3395   1.006   0.200   8.326
 1021SOL    HW2 3396   1.012   0.160   8.484
 1022SOL     OW 3397   0.590   1.487   7.939
 1022SOL    HW1 3398   0.632   1.429   7.869
 1022SOL    HW2 3399   0.546   1.566   7.895
 1023SOL     OW 3400   1.709   0.385   8.829
 1023SOL    HW1 3401   1.782   0.454   8.833
 1023SOL    HW2 3402   1.737   0.310   8.770
 1024SOL     OW 3403   0.255   1.348   7.738
 1024SOL    HW1 3404   0.159   1.349   7.711
 1024SOL    HW2 3405   0.267   1.401   7.822
 1025SOL     OW 3406   0.105   1.013   9.174
 1025SOL    HW1 3407   0.028   0.980   9.228
 1025SOL    HW2 3408   0.190   0.983   9.216
 1026SOL     OW 3409   0.672   0.203   8.937
 1026SOL    HW1 3410   0.762   0.187   8.897
 1026SOL    HW2 3411   0.680   0.208   9.036
 1027SOL     OW 3412   0.075   0.345   7.481
 1027SOL    HW1 3413  -0.017   0.317   7.452
 1027SOL    HW2 3414   0.106   0.422   7.425
 1028SOL     OW 3415   1.440   0.856   8.846
 1028SOL    HW1 3416   1.383   0.908   8.783
 1028SOL    HW2 3417   1.536   0.868   8.822
 1029SOL     OW 3418   0.072   0.166   7.766
 1029SOL    HW1 3419   0.055   0.249   7.712
 1029SOL    HW2 3420   0.162   0.129   7.744
 1030SOL     OW 3421   1.183   1.335   7.567
 1030SOL    HW1 3422   1.084   1.324   7.569
 1030SOL    HW2 3423   1.217   1.350   7.660
 1031SOL     OW 3424   0.613   0.842   8.879
 1031SOL    HW1 3425   0.669   0.923   8.862
 1031SOL    HW2 3426   0.672   0.762   8.882
 1032SOL     OW 3427   1.493   1.767   8.407
 1032SOL    HW1 3428   1.526   1.831   8.338
 1032SOL    HW2 3429   1.559   1.761   8.482
 1033SOL     OW 3430   0.716   0.565   9.156
 1033SOL    HW1 3431   0.735   0.630   9.230
 1033SOL    HW2 3432   0.776   0.485   9.165
 1034SOL     OW 3433   1.450   1.220   9.081
 1034SOL    HW1 3434   1.441   1.210   9.180
 1034SOL    HW2 3435   1.546   1.213   9.055
 1035SOL     OW 3436   0.390   1.741   9.008
 1035SOL    HW1 3437   0.299   1.782   9.006
 1035SOL    HW2 3438   0.383   1.647   9.040
 1036SOL     OW 3439   1.674   0.883   8.702
 1036SOL    HW1 3440   1.647   0.794   8.665
 1036SOL    HW2 3441   1.675   0.951   8.629
 1037SOL     OW 3442   1.225   0.325   7.897
 1037SOL    HW1 3443   1.290   0.251   7.886
 1037SOL    HW2 3444   1.245   0.375   7.981
 1038SOL     OW 3445   0.594   0.745   8.100
 1038SOL    HW1 3446   0.644   0.830   8.081
 1038SOL    HW2 3447   0.506   0.747   8.052
 1039SOL     OW 3448   1.777   0.342   9.090
 1039SOL    HW1 3449   1.760   0.373   8.996
 1039SOL    HW2 3450   1.693   0.305   9.128
 1040SOL     OW 3451   1.730   0.934   8.965
 1040SOL    HW1 3452   1.768   1.025   8.980
 1040SOL    HW2 3453   1.722   0.917   8.866
 1041SOL     OW 3454   0.859   1.374   7.464
 1041SOL    HW1 3455   0.813   1.389   7.552
 1041SOL    HW2 3456   0.903   1.459   7.434
 1042SOL     OW 3457   0.661   1.790   8.401
 1042SOL    HW1 3458   0.615   1.878   8.388
 1042SOL    HW2 3459   0.760   1.802   8.394
 1043SOL     OW 3460   0.859   0.956   8.309
 1043SOL    HW1 3461   0.913   0.887   8.357
 1043SOL    HW2 3462   0.827   1.025   8.375
 1044SOL     OW 3463   1.083   0.984   7.535
 1044SOL    HW1 3464   1.060   1.037   7.453
 1044SOL    HW2 3465   1.164   0.928   7.516
 1045SOL     OW 3466   1.861   1.569   8.299
 1045SOL    HW1 3467   1.790   1.557   8.229
 1045SOL    HW2 3468   1.862   1.490   8.359
 1046SOL     OW 3469   0.221   1.314   9.292
 1046SOL    HW1 3470   0.156   1.241   9.271
 1046SOL    HW2 3471   0.225   1.328   9.390
 1047SOL     OW 3472   0.079   1.240   8.101
 1047SOL    HW1 3473   0.078   1.193   8.189
 1047SOL    HW2 3474   0.161   1.212   8.050
 1048SOL     OW 3475   0.672   1.391   9.072
 1048SOL    HW1 3476   0.594   1.341   9.110
 1048SOL    HW2 3477   0.669   1.486   9.103
 1049SOL     OW 3478   1.824   0.192   8.675
 1049SOL    HW1 3479   1.820   0.102   8.719
 1049SOL    HW2 3480   1.827   0.181   8.576
 1050SOL     OW 3481   0.428   0.424   7.968
 1050SOL    HW1 3482   0.458   0.352   7.906
 1050SOL    HW2 3483   0.389   0.384   8.051
 1051SOL     OW 3484   1.705   1.487   8.552
 1051SOL    HW1 3485   1.612   1.462   8.525
 1051SOL    HW2 3486   1.731   1.437   8.634
 1052SOL     OW 3487   0.317   0.547   8.728
 1052SOL    HW1 3488   0.355   0.488   8.800
 1052SOL    HW2 3489   0.357   0.521   8.640
 1053SOL     OW 3490   0.812   1.586   8.135
 1053SOL    HW1 3491   0.844   1.596   8.041
 1053SOL    HW2 3492   0.733   1.524   8.137
 1054SOL     OW 3493   1.424   0.214   8.560
 1054SOL    HW1 3494   1.476   0.149   8.615
 1054SOL    HW2 3495   1.375   0.277   8.621
 1055SOL     OW 3496   1.001   0.034   8.602
 1055SOL    HW1 3497   0.938  -0.038   8.571
 1055SOL    HW2 3498   1.094  -0.002   8.602
 1056SOL     OW 3499   0.770   1.330   7.749
 1056SOL    HW1 3500   0.724   1.243   7.766
 1056SOL    HW2 3501   0.861   1.327   7.790
 1057SOL     OW 3502   0.618   1.567   8.732
 1057SOL    HW1 3503   0.613   1.649   8.789
 1057SOL    HW2 3504   0.707   1.564   8.687
 1058SOL     OW 3505   1.352   0.052   7.616
 1058SOL    HW1 3506   1.387   0.011   7.532
 1058SOL    HW2 3507   1.262   0.014   7.636
 1059SOL     OW 3508   1.300   0.453   8.139
 1059SOL    HW1 3509   1.241   0.533   8.143
 1059SOL    HW2 3510   1.315   0.418   8.232
 1060SOL     OW 3511   1.593   0.221   8.330
 1060SOL    HW1 3512   1.509   0.220   8.384
 1060SOL    HW2 3513   1.595   0.304   8.274
 1061SOL     OW 3514   0.039   1.077   7.748
 1061SOL    HW1 3515   0.138   1.066   7.739
 1061SOL    HW2 3516  -0.001   0.991   7.780
 1062SOL     OW 3517   0.875   1.646   7.785
 1062SOL    HW1 3518   0.798   1.611   7.731
 1062SOL    HW2 3519   0.843   1.717   7.847
 1063SOL     OW 3520   0.230   0.628   9.423
 1063SOL    HW1 3521   0.137   0.626   9.460
 1063SOL    HW2 3522   0.231   0.589   9.331
 1064SOL     OW 3523   0.225   0.275  10.306
 1064SOL    HW1 3524   0.260   0.258  10.398
 1064SOL    HW2 3525   0.137   0.230  10.294
 1065SOL     OW 3526   0.019   0.368   9.957
 1065SOL    HW1 3527  -0.063   0.411   9.996
 1065SOL    HW2 3528  -0.009   0.295   9.894
 1066SOL     OW 3529   0.569   1.275  10.475
 1066SOL    HW1 3530   0.476   1.268  10.438
 1066SOL    HW2 3531   0.580   1.364  10.519
 1067SOL     OW 3532   1.555   1.511  10.013
 1067SOL    HW1 3533   1.498   1.495  10.094
 1067SOL    HW2 3534   1.496   1.521   9.933
 1068SOL     OW 3535   1.135   0.703  10.027
 1068SOL    HW1 3536   1.192   0.781  10.002
 1068SOL    HW2 3537   1.075   0.729  10.103
 1069SOL     OW 3538   1.755   0.607   9.541
 1069SOL    HW1 3539   1.743   0.594   9.442
 1069SOL    HW2 3540   1.725   0.526   9.590
 1070SOL     OW 3541   0.768   1.144  10.333
 1070SOL    HW1 3542   0.690   1.161  10.393
 1070SOL    HW2 3543   0.802   1.231  10.297
 1071SOL     OW 3544   0.685   1.012   9.975
 1071SOL    HW1 3545   0.754   0.996  10.045
 1071SOL    HW2 3546   0.612   1.069  10.013
 1072SOL     OW 3547   0.335   1.435  10.371
 1072SOL    HW1 3548   0.257   1.404  10.318
 1072SOL    HW2 3549   0.393   1.493  10.314
 1073SOL     OW 3550   1.460   1.505  10.649
 1073SOL    HW1 3551   1.484   1.599  10.675
 1073SOL    HW2 3552   1.444   1.451  10.731
 1074SOL     OW 3553   0.438   0.392  10.809
 1074SOL    HW1 3554   0.520   0.336  10.818
 1074SOL    HW2 3555   0.357   0.334  10.813
 1075SOL     OW 3556   1.603   0.447  10.047
 1075SOL    HW1 3557   1.529   0.493   9.997
 1075SOL    HW2 3558   1.654   0.515  10.100
 1076SOL     OW 3559   0.231   1.713   9.793
 1076SOL    HW1 3560   0.265   1.790   9.847
 1076SOL    HW2 3561   0.275   1.713   9.703
 1077SOL     OW 3562   0.230   1.434   9.848
 1077SOL    HW1 3563   0.204   1.530   9.848
 1077SOL    HW2 3564   0.159   1.380   9.893
 1078SOL     OW 3565   0.240   1.091  10.196
 1078SOL    HW1 3566   0.254   1.007  10.248
 1078SOL    HW2 3567   0.185   1.155  10.251
 1079SOL     OW 3568   0.620   1.786  10.749
 1079SOL    HW1 3569   0.528   1.769  10.784
 1079SOL    HW2 3570   0.648   1.878  10.775
 1080SOL     OW 3571   0.606   0.964   9.433
 1080SOL    HW1 3572   0.613   1.048   9.379
 1080SOL    HW2 3573   0.652   0.977   9.521
 1081SOL     OW 3574   1.594   0.114  10.790
 1081SOL    HW1 3575   1.576   0.181  10.718
 1081SOL    HW2 3576   1.591   0.160  10.879
 1082SOL     OW 3577   0.122   0.643   9.873
 1082SOL    HW1 3578   0.077   0.555   9.890
 1082SOL    HW2 3579   0.121   0.697   9.957
 1083SOL     OW 3580   1.842   1.767   9.669
 1083SOL    HW1 3581   1.896   1.738   9.749
 1083SOL    HW2 3582   1.872   1.857   9.640
 1084SOL     OW 3583   0.027   1.596   9.427
 1084SOL    HW1 3584   0.008   1.500   9.448
 1084SOL    HW2 3585  -0.006   1.654   9.502
 1085SOL     OW 3586   1.689   0.922   9.922
 1085SOL    HW1 3587   1.784   0.893   9.930
 1085SOL    HW2 3588   1.681   0.987   9.847
 1086SOL     OW 3589   1.641   1.108   9.742
 1086SOL    HW1 3590   1.727   1.110   9.690
 1086SOL    HW2 3591   1.655   1.155   9.830
 1087SOL     OW 3592   0.613   1.365  10.036
 1087SOL    HW1 3593   0.564   1.278  10.045
 1087SOL    HW2 3594   0.590   1.408   9.949
 1088SOL     OW 3595   1.293   1.228  10.733
 1088SOL    HW1 3596   1.330   1.155  10.675
 1088SOL    HW2 3597   1.345   1.233  10.818
 1089SOL     OW 3598   0.809   0.004   9.812
 1089SOL    HW1 3599   0.849   0.095   9.803
 1089SOL    HW2 3600   0.709   0.012   9.818
 1090SOL     OW 3601   0.197   0.976  10.574
 1090SOL    HW1 3602   0.286   0.931  10.560
 1090SOL    HW2 3603   0.124   0.911  10.555
 1091SOL     OW 3604   1.525   0.999   9.500
 1091SOL    HW1 3605   1.462   0.923   9.513
 1091SOL    HW2 3606   1.573   1.017   9.586
 1092SOL     OW 3607   1.466   1.417  10.263
 1092SOL    HW1 3608   1.407   1.423  10.343
 1092SOL    HW2 3609   1.451   1.329  10.217
 1093SOL     OW 3610   1.667   1.714   9.882
 1093SOL    HW1 3611   1.626   1.691   9.794
 1093SOL    HW2 3612   1.649   1.640   9.947
 1094SOL     OW 3613   0.598   0.729   9.580
 1094SOL    HW1 3614   0.622   0.798   9.512
 1094SOL    HW2 3615   0.520   0.762   9.634
 1095SOL     OW 3616   1.281   0.345  10.254
 1095SOL    HW1 3617   1.195   0.295  10.241
 1095SOL    HW2 3618   1.343   0.291  10.310
 1096SOL     OW 3619   1.576   1.662   9.617
 1096SOL    HW1 3620   1.665   1.708   9.620
 1096SOL    HW2 3621   1.555   1.638   9.522
 1097SOL     OW 3622   0.807   0.605  10.775
 1097SOL    HW1 3623   0.760   0.602  10.864
 1097SOL    HW2 3624   0.756   0.550  10.709
 1098SOL     OW 3625   0.973   0.890  10.882
 1098SOL    HW1 3626   1.019   0.806  10.853
 1098SOL    HW2 3627   0.917   0.924  10.807
 1099SOL     OW 3628   0.991   0.410  10.552
 1099SOL    HW1 3629   0.914   0.444  10.606
 1099SOL    HW2 3630   0.957   0.359  10.473
 1100SOL     OW 3631   1.041   0.701   9.739
 1100SOL    HW1 3632   1.067   0.697   9.835
 1100SOL    HW2 3633   0.956   0.650   9.725
 1101SOL     OW 3634   0.076   0.811  10.099
 1101SOL    HW1 3635   0.175   0.799  10.108
 1101SOL    HW2 3636   0.052   0.906  10.120
 1102SOL     OW 3637   0.130   1.821  10.881
 1102SOL    HW1 3638   0.120   1.806  10.980
 1102SOL    HW2 3639   0.044   1.857  10.845
 1103SOL     OW 3640   0.865   0.348   9.505
 1103SOL    HW1 3641   0.924   0.411   9.456
 1103SOL    HW2 3642   0.884   0.254   9.476
 1104SOL     OW 3643   1.362   1.144   9.855
 1104SOL    HW1 3644   1.445   1.115   9.807
 1104SOL    HW2 3645   1.313   1.211   9.799
 1105SOL     OW 3646   0.550   0.196  10.195
 1105SOL    HW1 3647   0.545   0.191  10.295
 1105SOL    HW2 3648   0.552   0.292  10.166
 1106SOL     OW 3649   1.008   1.456   9.787
 1106SOL    HW1 3650   0.962   1.528   9.735
 1106SOL    HW2 3651   1.004   1.476   9.885
 1107SOL     OW 3652   0.351   1.801  10.163
 1107SOL    HW1 3653   0.401   1.715  10.169
 1107SOL    HW2 3654   0.416   1.878  10.160
 1108SOL     OW 3655   1.795   1.066  10.183
 1108SOL    HW1 3656   1.733   1.051  10.107
 1108SOL    HW2 3657   1.743   1.077  10.268
 1109SOL     OW 3658   0.321   0.943   9.552
 1109SOL    HW1 3659   0.403   0.982   9.510
 1109SOL    HW2 3660   0.294   0.861   9.503
 1110SOL     OW 3661   1.458   0.735  10.038
 1110SOL    HW1 3662   1.453   0.670  10.113
 1110SOL    HW2 3663   1.538   0.794  10.051
 1111SOL     OW 3664   1.111   1.776   9.547
 1111SOL    HW1 3665   1.051   1.714   9.597
 1111SOL    HW2 3666   1.142   1.732   9.462
 1112SOL     OW 3667   1.632   1.377   9.391
 1112SOL    HW1 3668   1.600   1.471   9.381
 1112SOL    HW2 3669   1.556   1.314   9.379
 1113SOL     OW 3670   0.464   1.743   9.633
 1113SOL    HW1 3671   0.497   1.782   9.719
 1113SOL    HW2 3672   0.540   1.736   9.568
 1114SOL     OW 3673   1.400   0.107   9.736
 1114SOL    HW1 3674   1.376   0.070   9.646
 1114SOL    HW2 3675   1.499   0.123   9.740
 1115SOL     OW 3676   0.249   1.785  10.551
 1115SOL    HW1 3677   0.306   1.720  10.601
 1115SOL    HW2 3678   0.233   1.752  10.458
 1116SOL     OW 3679   0.940   1.698  10.214
 1116SOL    HW1 3680   1.020   1.641  10.235
 1116SOL    HW2 3681   0.891   1.658  10.137
 1117SOL     OW 3682   0.382   0.700   9.790
 1117SOL    HW1 3683   0.427   0.610   9.787
 1117SOL    HW2 3684   0.288   0.689   9.823
 1118SOL     OW 3685   0.614   0.122   9.427
 1118SOL    HW1 3686   0.712   0.100   9.434
 1118SOL    HW2 3687   0.583   0.105   9.334
 1119SOL     OW 3688   0.888   1.514  10.505
 1119SOL    HW1 3689   0.865   1.489  10.411
 1119SOL    HW2 3690   0.949   1.445  10.544
 1120SOL     OW 3691   1.351   0.590  10.743
 1120SOL    HW1 3692   1.379   0.547  10.828
 1120SOL    HW2 3693   1.376   0.686  10.744
 1121SOL     OW 3694   0.803   1.402  10.234
 1121SOL    HW1 3695   0.893   1.416  10.192
 1121SOL    HW2 3696   0.732   1.404  10.163
 1122SOL     OW 3697   0.922   0.503  10.209
 1122SOL    HW1 3698   0.897   0.494  10.113
 1122SOL    HW2 3699   0.970   0.421  10.240
 1123SOL     OW 3700   0.539   0.064   9.822
 1123SOL    HW1 3701   0.458   0.065   9.880
 1123SOL    HW2 3702   0.542   0.147   9.767
 1124SOL     OW 3703   1.434   1.188   9.351
 1124SOL    HW1 3704   1.466   1.112   9.408
 1124SOL    HW2 3705   1.342   1.215   9.381
 1125SOL     OW 3706   0.297   0.035   9.481
 1125SOL    HW1 3707   0.346   0.119   9.460
 1125SOL    HW2 3708   0.359  -0.030   9.526
 1126SOL     OW 3709   0.935   0.236   9.790
 1126SOL    HW1 3710   0.887   0.277   9.712
 1126SOL    HW2 3711   1.034   0.234   9.771
 1127SOL     OW 3712   1.227   1.570  10.103
 1127SOL    HW1 3713   1.248   1.644  10.038
 1127SOL    HW2 3714   1.295   1.570  10.176
 1128SOL     OW 3715   0.459   1.152  10.051
 1128SOL    HW1 3716   0.388   1.125  10.116
 1128SOL    HW2 3717   0.433   1.124   9.958
 1129SOL     OW 3718   1.271   1.797   9.901
 1129SOL    HW1 3719   1.315   1.861   9.837
 1129SOL    HW2 3720   1.221   1.849   9.971
 1130SOL     OW 3721   1.032   0.549   9.326
 1130SOL    HW1 3722   0.991   0.631   9.287
 1130SOL    HW2 3723   1.096   0.575   9.399
 1131SOL     OW 3724   0.078   0.556  10.696
 1131SOL    HW1 3725   0.170   0.555  10.655
 1131SOL    HW2 3726   0.072   0.630  10.763
 1132SOL     OW 3727   0.561   0.222  10.457
 1132SOL    HW1 3728   0.599   0.138  10.494
 1132SOL    HW2 3729   0.473   0.241  10.501
 1133SOL     OW 3730   0.866   0.454   9.952
 1133SOL    HW1 3731   0.834   0.526   9.890
 1133SOL    HW2 3732   0.890   0.373   9.899
 1134SOL     OW 3733   1.017   0.039  10.063
 1134SOL    HW1 3734   0.945   0.044   9.994
 1134SOL    HW2 3735   0.993  -0.030  10.132
 1135SOL     OW 3736   1.429   1.173  10.177
 1135SOL    HW1 3737   1.374   1.089  10.170
 1135SOL    HW2 3738   1.455   1.202  10.085
 1136SOL     OW 3739   1.466   0.590  10.302
 1136SOL    HW1 3740   1.436   0.495  10.309
 1136SOL    HW2 3741   1.539   0.606  10.368
 1137SOL     OW 3742   1.857   0.833   9.687
 1137SOL    HW1 3743   1.899   0.769   9.751
 1137SOL    HW2 3744   1.819   0.782   9.609
 1138SOL     OW 3745   0.488   1.385   9.484
 1138SOL    HW1 3746   0.401   1.370   9.531
 1138SOL    HW2 3747   0.471   1.411   9.389
 1139SOL     OW 3748   1.664   1.280   9.967
 1139SOL    HW1 3749   1.763   1.288   9.981
 1139SOL    HW2 3750   1.619   1.364   9.998
 1140SOL     OW 3751   1.390   0.575   9.388
 1140SOL    HW1 3752   1.336   0.554   9.469
 1140SOL    HW2 3753   1.481   0.534   9.397
 1141SOL     OW 3754   0.527   0.256   9.638
 1141SOL    HW1 3755   0.554   0.197   9.563
 1141SOL    HW2 3756   0.527   0.351   9.607
 1142SOL     OW 3757   1.754   1.223  10.898
 1142SOL    HW1 3758   1.845   1.184  10.885
 1142SOL    HW2 3759   1.762   1.319  10.922
 1143SOL     OW 3760   1.064   1.347  10.650
 1143SOL    HW1 3761   0.984   1.324  10.705
 1143SOL    HW2 3762   1.147   1.321  10.699
 1144SOL     OW 3763   1.111   1.195  10.410
 1144SOL    HW1 3764   1.071   1.239  10.491
 1144SOL    HW2 3765   1.070   1.232  10.327
 1145SOL     OW 3766   1.638   1.099  10.389
 1145SOL    HW1 3767   1.643   1.180  10.448
 1145SOL    HW2 3768   1.552   1.101  10.338
 1146SOL     OW 3769   0.915   0.089  10.712
 1146SOL    HW1 3770   0.940   0.069  10.617
 1146SOL    HW2 3771   0.987   0.145  10.754
 1147SOL     OW 3772   0.705   1.050   9.678
 1147SOL    HW1 3773   0.691   1.057   9.777
 1147SOL    HW2 3774   0.789   0.999   9.660
 1148SOL     OW 3775   0.410   0.813  10.561
 1148SOL    HW1 3776   0.496   0.825  10.611
 1148SOL    HW2 3777   0.368   0.726  10.588
 1149SOL     OW 3778   1.274   0.386  10.572
 1149SOL    HW1 3779   1.295   0.460  10.636
 1149SOL    HW2 3780   1.185   0.403  10.529
 1150SOL     OW 3781   0.064   1.564  10.641
 1150SOL    HW1 3782   0.018   1.646  10.607
 1150SOL    HW2 3783   0.162   1.583  10.650
 1151SOL     OW 3784   0.367   1.100   9.811
 1151SOL    HW1 3785   0.360   1.183   9.755
 1151SOL    HW2 3786   0.371   1.020   9.751
 1152SOL     OW 3787   0.566   0.537  10.175
 1152SOL    HW1 3788   0.578   0.603  10.101
 1152SOL    HW2 3789   0.612   0.571  10.258
 1153SOL     OW 3790   1.252   1.348   9.698
 1153SOL    HW1 3791   1.302   1.425   9.738
 1153SOL    HW2 3792   1.157   1.350   9.730
 1154SOL     OW 3793   1.272   1.445  10.452
 1154SOL    HW1 3794   1.319   1.458  10.539
 1154SOL    HW2 3795   1.206   1.371  10.461
 1155SOL     OW 3796   1.582   0.639   9.782
 1155SOL    HW1 3797   1.551   0.700   9.855
 1155SOL    HW2 3798   1.632   0.691   9.713
 1156SOL     OW 3799   0.354   1.510  10.639
 1156SOL    HW1 3800   0.333   1.466  10.552
 1156SOL    HW2 3801   0.451   1.536  10.642
 1157SOL     OW 3802   0.402   0.751  10.908
 1157SOL    HW1 3803   0.470   0.806  10.861
 1157SOL    HW2 3804   0.442   0.663  10.935
 1158SOL     OW 3805   1.587   0.779  10.980
 1158SOL    HW1 3806   1.495   0.817  10.975
 1158SOL    HW2 3807   1.647   0.826  10.915
 1159SOL     OW 3808   0.573   0.870  10.339
 1159SOL    HW1 3809   0.617   0.959  10.330
 1159SOL    HW2 3810   0.510   0.870  10.416
 1160SOL     OW 3811   1.360   0.862  10.355
 1160SOL    HW1 3812   1.285   0.862  10.289
 1160SOL    HW2 3813   1.397   0.770  10.364
 1161SOL     OW 3814   1.209   0.525   9.585
 1161SOL    HW1 3815   1.222   0.441   9.639
 1161SOL    HW2 3816   1.180   0.599   9.645
 1162SOL     OW 3817   0.307   0.213  10.541
 1162SOL    HW1 3818   0.284   0.250  10.631
 1162SOL    HW2 3819   0.277   0.118  10.535
 1163SOL     OW 3820   0.037   1.310  10.592
 1163SOL    HW1 3821   0.090   1.261  10.660
 1163SOL    HW2 3822   0.059   1.408  10.597
 1164SOL     OW 3823   0.732   0.634  10.374
 1164SOL    HW1 3824   0.791   0.608  10.298
 1164SOL    HW2 3825   0.704   0.730  10.363
 1165SOL     OW 3826   0.307   0.063   9.928
 1165SOL    HW1 3827   0.296   0.157   9.961
 1165SOL    HW2 3828   0.302   0.000  10.005
 1166SOL     OW 3829   1.622   0.367   9.684
 1166SOL    HW1 3830   1.624   0.291   9.748
 1166SOL    HW2 3831   1.574   0.444   9.724
 1167SOL     OW 3832   1.023   0.766  10.276
 1167SOL    HW1 3833   1.038   0.787  10.372
 1167SOL    HW2 3834   0.993   0.671  10.267
 1168SOL     OW 3835   0.980   1.573  11.010
 1168SOL    HW1 3836   0.960   1.617  10.922
 1168SOL    HW2 3837   1.019   1.482  10.994
 1169SOL     OW 3838   1.540   0.274   9.435
 1169SOL    HW1 3839   1.479   0.199   9.458
 1169SOL    HW2 3840   1.562   0.326   9.518
 1170SOL     OW 3841   1.303   0.838   9.352
 1170SOL    HW1 3842   1.337   0.745   9.367
 1170SOL    HW2 3843   1.321   0.865   9.257
 1171SOL     OW 3844   1.068   1.333  10.159
 1171SOL    HW1 3845   1.075   1.249  10.104
 1171SOL    HW2 3846   1.130   1.402  10.123
 1172SOL     OW 3847   0.319   0.810  10.259
 1172SOL    HW1 3848   0.412   0.846  10.264
 1172SOL    HW2 3849   0.313   0.725  10.311
 1173SOL     OW 3850   0.339   0.509  10.316
 1173SOL    HW1 3851   0.287   0.426  10.299
 1173SOL    HW2 3852   0.416   0.514  10.252
 1174SOL     OW 3853   1.138   0.380  10.988
 1174SOL    HW1 3854   1.093   0.443  11.052
 1174SOL    HW2 3855   1.231   0.411  10.971
 1175SOL     OW 3856   1.160   0.207  10.787
 1175SOL    HW1 3857   1.160   0.271  10.864
 1175SOL    HW2 3858   1.188   0.255  10.704
 1176SOL     OW 3859   0.008   1.326   9.510
 1176SOL    HW1 3860  -0.085   1.347   9.479
 1176SOL    HW2 3861   0.018   1.227   9.523
 1177SOL     OW 3862   0.088   1.801  10.237
 1177SOL    HW1 3863   0.046   1.715  10.210
 1177SOL    HW2 3864   0.182   1.804  10.203
 1178SOL     OW 3865   0.504   1.568  10.220
 1178SOL    HW1 3866   0.570   1.642  10.229
 1178SOL    HW2 3867   0.548   1.489  10.178
 1179SOL     OW 3868   1.002   0.796  10.548
 1179SOL    HW1 3869   1.043   0.764  10.634
 1179SOL    HW2 3870   0.906   0.769  10.545
 1180SOL     OW 3871   0.040   0.544  10.424
 1180SOL    HW1 3872   0.125   0.511  10.383
 1180SOL    HW2 3873   0.053   0.559  10.522
 1181SOL     OW 3874   0.815   0.572   9.635
 1181SOL    HW1 3875   0.822   0.483   9.589
 1181SOL    HW2 3876   0.721   0.606   9.627
 1182SOL     OW 3877   1.657   0.604  10.516
 1182SOL    HW1 3878   1.619   0.535  10.578
 1182SOL    HW2 3879   1.739   0.568  10.472
 1183SOL     OW 3880   0.252   1.564  11.054
 1183SOL    HW1 3881   0.222   1.621  11.130
 1183SOL    HW2 3882   0.245   1.467  11.080
 1184SOL     OW 3883   0.671   0.464  10.579
 1184SOL    HW1 3884   0.637   0.375  10.549
 1184SOL    HW2 3885   0.697   0.518  10.499
 1185SOL     OW 3886   0.930   1.678  10.775
 1185SOL    HW1 3887   0.906   1.660  10.680
 1185SOL    HW2 3888   0.960   1.772  10.785
 1186SOL     OW 3889   0.473   0.500   9.501
 1186SOL    HW1 3890   0.534   0.580   9.505
 1186SOL    HW2 3891   0.378   0.531   9.508
 1187SOL     OW 3892   0.159   1.137  10.776
 1187SOL    HW1 3893   0.181   1.076  10.852
 1187SOL    HW2 3894   0.169   1.088  10.690
 1188SOL     OW 3895   1.347   1.059  10.544
 1188SOL    HW1 3896   1.371   0.996  10.470
 1188SOL    HW2 3897   1.257   1.099  10.526
 1189SOL     OW 3898   1.302   0.855   9.619
 1189SOL    HW1 3899   1.216   0.824   9.661
 1189SOL    HW2 3900   1.298   0.841   9.520
 1190SOL     OW 3901   1.759   1.747  10.464
 1190SOL    HW1 3902   1.820   1.777  10.391
 1190SOL    HW2 3903   1.721   1.658  10.442
 1191SOL     OW 3904   1.252   1.731  10.438
 1191SOL    HW1 3905   1.336   1.736  10.384
 1191SOL    HW2 3906   1.229   1.635  10.456
 1192SOL     OW 3907   0.083   1.258  10.332
 1192SOL    HW1 3908   0.078   1.257  10.432
 1192SOL    HW2 3909   0.000   1.217  10.294
 1193SOL     OW 3910   1.726   0.135   9.833
 1193SOL    HW1 3911   1.799   0.118   9.766
 1193SOL    HW2 3912   1.695   0.048   9.871
 1194SOL     OW 3913   1.388   1.573   9.787
 1194SOL    HW1 3914   1.455   1.585   9.713
 1194SOL    HW2 3915   1.348   1.662   9.810
 1195SOL     OW 3916   0.130   1.794  11.161
 1195SOL    HW1 3917   0.089   1.720  11.214
 1195SOL    HW2 3918   0.194   1.845  11.219
 1196SOL     OW 3919   1.280   0.927   9.982
 1196SOL    HW1 3920   1.340   0.846   9.984
 1196SOL    HW2 3921   1.320   0.996   9.922
 1197SOL     OW 3922   0.672   1.616   9.464
 1197SOL    HW1 3923   0.681   1.626   9.365
 1197SOL    HW2 3924   0.632   1.527   9.485
 1198SOL     OW 3925   1.650   1.720  10.704
 1198SOL    HW1 3926   1.703   1.730  10.620
 1198SOL    HW2 3927   1.623   1.810  10.738
 1199SOL     OW 3928   1.841   0.175  10.273
 1199SOL    HW1 3929   1.880   0.090  10.237
 1199SOL    HW2 3930   1.743   0.177  10.254
 1200SOL     OW 3931   0.263   0.326  10.030
 1200SOL    HW1 3932   0.184   0.377   9.996
 1200SOL    HW2 3933   0.254   0.311  10.128
 1201SOL     OW 3934   1.194   1.612   9.341
 1201SOL    HW1 3935   1.200   1.519   9.378
 1201SOL    HW2 3936   1.135   1.612   9.261
 1202SOL     OW 3937   0.822   1.002  10.682
 1202SOL    HW1 3938   0.862   1.001  10.590
 1202SOL    HW2 3939   0.832   1.094  10.722
 1203SOL     OW 3940   0.916   0.910   9.601
 1203SOL    HW1 3941   0.979   0.948   9.533
 1203SOL    HW2 3942   0.956   0.827   9.640
 1204SOL     OW 3943   1.504   1.607   9.354
 1204SOL    HW1 3944   1.412   1.644   9.361
 1204SOL    HW2 3945   1.542   1.627   9.264
 1205SOL     OW 3946   0.372   1.288  10.800
 1205SOL    HW1 3947   0.359   1.381  10.766
 1205SOL    HW2 3948   0.288   1.236  10.787
 1206SOL     OW 3949   1.614   1.292  10.599
 1206SOL    HW1 3950   1.674   1.295  10.679
 1206SOL    HW2 3951   1.539   1.356  10.612
 1207SOL     OW 3952   1.039   1.098  10.006
 1207SOL    HW1 3953   0.969   1.051  10.060
 1207SOL    HW2 3954   1.098   1.030   9.963
 1208SOL     OW 3955   1.014   0.236  10.281
 1208SOL    HW1 3956   1.006   0.200  10.188
 1208SOL    HW2 3957   1.012   0.160  10.346
 1209SOL     OW 3958   0.590   1.487   9.801
 1209SOL    HW1 3959   0.632   1.429   9.731
 1209SOL    HW2 3960   0.546   1.566   9.757
 1210SOL     OW 3961   1.709   0.385  10.691
 1210SOL    HW1 3962   1.782   0.454  10.695
 1210SOL    HW2 3963   1.737   0.310  10.632
 1211SOL     OW 3964   0.255   1.348   9.600
 1211SOL    HW1 3965   0.159   1.349   9.573
 1211SOL    HW2 3966   0.267   1.401   9.684
 1212SOL     OW 3967   0.105   1.013  11.036
 1212SOL    HW1 3968   0.028   0.980  11.090
 1212SOL    HW2 3969   0.190   0.983  11.078
 1213SOL     OW 3970   0.672   0.203  10.799
 1213SOL    HW1 3971   0.762   0.187  10.759
 1213SOL    HW2 3972   0.680   0.208  10.898
 1214SOL     OW 3973   0.075   0.345   9.343
 1214SOL    HW1 3974  -0.017   0.317   9.314
 1214SOL    HW2 3975   0.106   0.422   9.287
 1215SOL     OW 3976   1.440   0.856  10.708
 1215SOL    HW1 3977   1.383   0.908  10.645
 1215SOL    HW2 3978   1.536   0.868  10.684
 1216SOL     OW 3979   0.072   0.166   9.628
 1216SOL    HW1 3980   0.055   0.249   9.574
 1216SOL    HW2 3981   0.162   0.129   9.606
 1217SOL     OW 3982   1.183   1.335   9.429
 1217SOL    HW1 3983   1.084   1.324   9.431
 1217SOL    HW2 3984   1.217   1.350   9.522
 1218SOL     OW 3985   0.613   0.842  10.741
 1218SOL    HW1 3986   0.669   0.923  10.724
 1218SOL    HW2 3987   0.672   0.762  10.744
 1219SOL     OW 3988   1.493   1.767  10.269
 1219SOL    HW1 3989   1.526   1.831  10.200
 1219SOL    HW2 3990   1.559   1.761  10.344
 1220SOL     OW 3991   0.716   0.565  11.018
 1220SOL    HW1 3992   0.735   0.630  11.092
 1220SOL    HW2 3993   0.776   0.485  11.027
 1221SOL     OW 3994   0.390   1.741  10.870
 1221SOL    HW1 3995   0.299   1.782  10.868
 1221SOL    HW2 3996   0.383   1.647  10.902
 1222SOL     OW 3997   1.674   0.883  10.564
 1222SOL    HW1 3998   1.647   0.794  10.527
 1222SOL    HW2 3999   1.675   0.951  10.491
 1223SOL     OW 4000   1.225   0.325   9.759
 1223SOL    HW1 4001   1.290   0.251   9.748
 1223SOL    HW2 4002   1.245   0.375   9.843
 1224SOL     OW 4003   0.594   0.745   9.962
 1224SOL    HW1 4004   0.644   0.830   9.943
 1224SOL    HW2 4005   0.506   0.747   9.914
 1225SOL     OW 4006   1.777   0.342  10.952
 1225SOL    HW1 4007   1.760   0.373  10.858
 1225SOL    HW2 4008   1.693   0.305  10.990
 1226SOL     OW 4009   1.730   0.934  10.827
 1226SOL    HW1 4010   1.768   1.025  10.842
 1226SOL    HW2 4011   1.722   0.917  10.728
 1227SOL     OW 4012   0.859   1.374   9.326
 1227SOL    HW1 4013   0.813   1.389   9.414
 1227SOL    HW2 4014   0.903   1.459   9.296
 1228SOL     OW 4015   0.661   1.790  10.263
 1228SOL    HW1 4016   0.615   1.878  10.250
 1228SOL    HW2 4017   0.760   1.802  10.256
 1229SOL     OW 4018   0.859   0.956  10.171
 1229SOL    HW1 4019   0.913   0.887  10.219
 1229SOL    HW2 4020   0.827   1.025  10.237
 1230SOL     OW 4021   1.083   0.984   9.397
 1230SOL    HW1 4022   1.060   1.037   9.315
 1230SOL    HW2 4023   1.164   0.928   9.378
 1231SOL     OW 4024   1.861   1.569  10.161
 1231SOL    HW1 4025   1.790   1.557  10.091
 1231SOL    HW2 4026   1.862   1.490  10.221
 1232SOL     OW 4027   0.079   1.240   9.963
 1232SOL    HW1 4028   0.078   1.193  10.051
 1232SOL    HW2 4029   0.161   1.212   9.912
 1233SOL     OW 4030   1.824   0.192  10.537
 1233SOL    HW1 4031   1.820   0.102  10.581
 1233SOL    HW2 4032   1.827   0.181  10.438
 1234SOL     OW 4033   0.428   0.424   9.830
 1234SOL    HW1 4034   0.458   0.352   9.768
 1234SOL    HW2 4035   0.389   0.384   9.913
 1235SOL     OW 4036   1.705   1.487  10.414
 1235SOL    HW1 4037   1.612   1.462  10.387
 1235SOL    HW2 4038   1.731   1.437  10.496
 1236SOL     OW 4039   0.317   0.547  10.590
 1236SOL    HW1 4040   0.355   0.488  10.662
 1236SOL    HW2 4041   0.357   0.521  10.502
 1237SOL     OW 4042   0.812   1.586   9.997
 1237SOL    HW1 4043   0.844   1.596   9.903
 1237SOL    HW2 4044   0.733   1.524   9.999
 1238SOL     OW 4045   1.424   0.214  10.422
 1238SOL    HW1 4046   1.476   0.149  10.477
 1238SOL    HW2 4047   1.375   0.277  10.483
 1239SOL     OW 4048   1.001   0.034  10.464
 1239SOL    HW1 4049   0.938  -0.038  10.433
 1239SOL    HW2 4050   1.094  -0.002  10.464
 1240SOL     OW 4051   0.770   1.330   9.611
 1240SOL    HW1 4052   0.724   1.243   9.628
 1240SOL    HW2 4053   0.861   1.327   9.652
 1241SOL     OW 4054   0.618   1.567  10.594
 1241SOL    HW1 4055   0.613   1.649  10.651
 1241SOL    HW2 4056   0.707   1.564  10.549
 1242SOL     OW 4057   1.352   0.052   9.478
 1242SOL    HW1 4058   1.387   0.011   9.394
 1242SOL    HW2 4059   1.262   0.014   9.498
 1243SOL     OW 4060   1.300   0.453  10.001
 1243SOL    HW1 4061   1.241   0.533  10.005
 1243SOL    HW2 4062   1.315   0.418  10.094
 1244SOL     OW 4063   1.593   0.221  10.192
 1244SOL    HW1 4064   1.509   0.220  10.246
 1244SOL    HW2 4065   1.595   0.304  10.136
 1245SOL     OW 4066   0.039   1.077   9.610
 1245SOL    HW1 4067   0.138   1.066   9.601
 1245SOL    HW2 4068  -0.001   0.991   9.642
 1246SOL     OW 4069   0.875   1.646   9.647
 1246SOL    HW1 4070   0.798   1.611   9.593
 1246SOL    HW2 4071   0.843   1.717   9.709
 1247SOL     OW 4072   0.230   2.490   0.113
 1247SOL    HW1 4073   0.137   2.488   0.150
 1247SOL    HW2 4074   0.231   2.451   0.021
 1248SOL     OW 4075   0.225   2.137   0.996
 1248SOL    HW1 4076   0.260   2.120   1.088
 1248SOL    HW2 4077   0.137   2.092   0.984
 1249SOL     OW 4078   0.019   2.230   0.647
 1249SOL    HW1 4079  -0.063   2.273   0.686
 1249SOL    HW2 4080  -0.009   2.157   0.584
 1250SOL     OW 4081   0.569   3.137   1.165
 1250SOL    HW1 4082   0.476   3.130   1.128
 1250SOL    HW2 4083   0.580   3.226   1.209
 1251SOL     OW 4084   1.555   3.373   0.703
 1251SOL    HW1 4085   1.498   3.357   0.784
 1251SOL    HW2 4086   1.496   3.383   0.623
 1252SOL     OW 4087   1.135   2.565   0.717
 1252SOL    HW1 4088   1.192   2.643   0.692
 1252SOL    HW2 4089   1.075   2.591   0.793
 1253SOL     OW 4090   1.755   2.469   0.231
 1253SOL    HW1 4091   1.743   2.456   0.132
 1253SOL    HW2 4092   1.725   2.388   0.280
 1254SOL     OW 4093   0.768   3.006   1.023
 1254SOL    HW1 4094   0.690   3.023   1.083
 1254SOL    HW2 4095   0.802   3.093   0.987
 1255SOL     OW 4096   0.850   2.660   1.823
 1255SOL    HW1 4097   0.846   2.736   1.888
 1255SOL    HW2 4098   0.872   2.696   1.732
 1256SOL     OW 4099   0.685   2.874   0.665
 1256SOL    HW1 4100   0.754   2.858   0.735
 1256SOL    HW2 4101   0.612   2.931   0.703
 1257SOL     OW 4102   0.686   3.023   1.803
 1257SOL    HW1 4103   0.746   3.102   1.817
 1257SOL    HW2 4104   0.600   3.054   1.762
 1258SOL     OW 4105   0.335   3.297   1.061
 1258SOL    HW1 4106   0.257   3.266   1.008
 1258SOL    HW2 4107   0.393   3.355   1.004
 1259SOL     OW 4108   1.460   3.367   1.339
 1259SOL    HW1 4109   1.484   3.461   1.365
 1259SOL    HW2 4110   1.444   3.313   1.421
 1260SOL     OW 4111   0.438   2.254   1.499
 1260SOL    HW1 4112   0.520   2.198   1.508
 1260SOL    HW2 4113   0.357   2.196   1.503
 1261SOL     OW 4114   1.603   2.309   0.737
 1261SOL    HW1 4115   1.529   2.355   0.687
 1261SOL    HW2 4116   1.654   2.377   0.790
 1262SOL     OW 4117   0.231   3.575   0.483
 1262SOL    HW1 4118   0.265   3.652   0.537
 1262SOL    HW2 4119   0.275   3.575   0.393
 1263SOL     OW 4120   1.127   3.203   1.690
 1263SOL    HW1 4121   1.174   3.203   1.778
 1263SOL    HW2 4122   1.079   3.116   1.679
 1264SOL     OW 4123   0.230   3.296   0.538
 1264SOL    HW1 4124   0.204   3.392   0.538
 1264SOL    HW2 4125   0.159   3.242   0.583
 1265SOL     OW 4126   0.240   2.953   0.886
 1265SOL    HW1 4127   0.254   2.869   0.938
 1265SOL    HW2 4128   0.185   3.017   0.941
 1266SOL     OW 4129   0.620   3.648   1.439
 1266SOL    HW1 4130   0.528   3.631   1.474
 1266SOL    HW2 4131   0.648   3.740   1.465
 1267SOL     OW 4132   0.606   2.826   0.123
 1267SOL    HW1 4133   0.613   2.910   0.069
 1267SOL    HW2 4134   0.652   2.839   0.211
 1268SOL     OW 4135   1.594   1.976   1.480
 1268SOL    HW1 4136   1.576   2.043   1.408
 1268SOL    HW2 4137   1.591   2.022   1.569
 1269SOL     OW 4138   0.122   2.505   0.563
 1269SOL    HW1 4139   0.077   2.417   0.580
 1269SOL    HW2 4140   0.121   2.559   0.647
 1270SOL     OW 4141   1.842   3.629   0.359
 1270SOL    HW1 4142   1.896   3.600   0.439
 1270SOL    HW2 4143   1.872   3.719   0.330
 1271SOL     OW 4144   0.027   3.458   0.117
 1271SOL    HW1 4145   0.008   3.362   0.138
 1271SOL    HW2 4146  -0.006   3.516   0.192
 1272SOL     OW 4147   1.689   2.784   0.612
 1272SOL    HW1 4148   1.784   2.755   0.620
 1272SOL    HW2 4149   1.681   2.849   0.537
 1273SOL     OW 4150   1.641   2.970   0.432
 1273SOL    HW1 4151   1.727   2.972   0.380
 1273SOL    HW2 4152   1.655   3.017   0.520
 1274SOL     OW 4153   0.113   2.599   1.597
 1274SOL    HW1 4154   0.201   2.586   1.642
 1274SOL    HW2 4155   0.100   2.696   1.575
 1275SOL     OW 4156   0.613   3.227   0.726
 1275SOL    HW1 4157   0.564   3.140   0.735
 1275SOL    HW2 4158   0.590   3.270   0.639
 1276SOL     OW 4159   1.293   3.090   1.423
 1276SOL    HW1 4160   1.330   3.017   1.365
 1276SOL    HW2 4161   1.345   3.095   1.508
 1277SOL     OW 4162   0.809   1.866   0.502
 1277SOL    HW1 4163   0.849   1.957   0.493
 1277SOL    HW2 4164   0.709   1.874   0.508
 1278SOL     OW 4165   0.197   2.838   1.264
 1278SOL    HW1 4166   0.286   2.793   1.250
 1278SOL    HW2 4167   0.124   2.773   1.245
 1279SOL     OW 4168   1.525   2.861   0.190
 1279SOL    HW1 4169   1.462   2.785   0.203
 1279SOL    HW2 4170   1.573   2.879   0.276
 1280SOL     OW 4171   1.187   3.654   1.616
 1280SOL    HW1 4172   1.211   3.714   1.540
 1280SOL    HW2 4173   1.194   3.559   1.586
 1281SOL     OW 4174   0.317   2.113   1.801
 1281SOL    HW1 4175   0.388   2.184   1.807
 1281SOL    HW2 4176   0.229   2.152   1.829
 1282SOL     OW 4177   1.466   3.279   0.953
 1282SOL    HW1 4178   1.407   3.285   1.033
 1282SOL    HW2 4179   1.451   3.191   0.907
 1283SOL     OW 4180   1.667   3.576   0.572
 1283SOL    HW1 4181   1.626   3.553   0.484
 1283SOL    HW2 4182   1.649   3.502   0.637
 1284SOL     OW 4183   0.598   2.591   0.270
 1284SOL    HW1 4184   0.622   2.660   0.202
 1284SOL    HW2 4185   0.520   2.624   0.324
 1285SOL     OW 4186   1.281   2.207   0.944
 1285SOL    HW1 4187   1.195   2.157   0.931
 1285SOL    HW2 4188   1.343   2.153   1.000
 1286SOL     OW 4189   1.576   3.524   0.307
 1286SOL    HW1 4190   1.665   3.570   0.310
 1286SOL    HW2 4191   1.555   3.500   0.212
 1287SOL     OW 4192   0.807   2.467   1.465
 1287SOL    HW1 4193   0.760   2.464   1.554
 1287SOL    HW2 4194   0.756   2.412   1.399
 1288SOL     OW 4195   1.394   2.331   1.674
 1288SOL    HW1 4196   1.374   2.374   1.762
 1288SOL    HW2 4197   1.472   2.269   1.683
 1289SOL     OW 4198   0.973   2.752   1.572
 1289SOL    HW1 4199   1.019   2.668   1.543
 1289SOL    HW2 4200   0.917   2.786   1.497
 1290SOL     OW 4201   0.991   2.272   1.242
 1290SOL    HW1 4202   0.914   2.306   1.296
 1290SOL    HW2 4203   0.957   2.221   1.163
 1291SOL     OW 4204   1.041   2.563   0.429
 1291SOL    HW1 4205   1.067   2.559   0.525
 1291SOL    HW2 4206   0.956   2.512   0.415
 1292SOL     OW 4207   0.076   2.673   0.789
 1292SOL    HW1 4208   0.175   2.661   0.798
 1292SOL    HW2 4209   0.052   2.768   0.810
 1293SOL     OW 4210   0.130   3.683   1.571
 1293SOL    HW1 4211   0.120   3.668   1.670
 1293SOL    HW2 4212   0.044   3.719   1.535
 1294SOL     OW 4213   0.865   2.210   0.195
 1294SOL    HW1 4214   0.924   2.273   0.146
 1294SOL    HW2 4215   0.884   2.116   0.166
 1295SOL     OW 4216   1.719   2.447   1.831
 1295SOL    HW1 4217   1.693   2.536   1.795
 1295SOL    HW2 4218   1.717   2.379   1.758
 1296SOL     OW 4219   1.362   3.006   0.545
 1296SOL    HW1 4220   1.445   2.977   0.497
 1296SOL    HW2 4221   1.313   3.073   0.489
 1297SOL     OW 4222   0.550   2.058   0.885
 1297SOL    HW1 4223   0.545   2.053   0.985
 1297SOL    HW2 4224   0.552   2.154   0.856
 1298SOL     OW 4225   1.008   3.318   0.477
 1298SOL    HW1 4226   0.962   3.390   0.425
 1298SOL    HW2 4227   1.004   3.338   0.575
 1299SOL     OW 4228   0.351   3.663   0.853
 1299SOL    HW1 4229   0.401   3.577   0.859
 1299SOL    HW2 4230   0.416   3.740   0.850
 1300SOL     OW 4231   1.795   2.928   0.873
 1300SOL    HW1 4232   1.733   2.913   0.797
 1300SOL    HW2 4233   1.743   2.939   0.958
 1301SOL     OW 4234   1.227   3.412   1.506
 1301SOL    HW1 4235   1.233   3.335   1.570
 1301SOL    HW2 4236   1.175   3.386   1.426
 1302SOL     OW 4237   0.321   2.805   0.242
 1302SOL    HW1 4238   0.403   2.844   0.200
 1302SOL    HW2 4239   0.294   2.723   0.193
 1303SOL     OW 4240   1.458   2.597   0.728
 1303SOL    HW1 4241   1.453   2.532   0.803
 1303SOL    HW2 4242   1.538   2.656   0.741
 1304SOL     OW 4243   0.461   3.128   1.727
 1304SOL    HW1 4244   0.411   3.129   1.641
 1304SOL    HW2 4245   0.398   3.110   1.803
 1305SOL     OW 4246   1.111   3.638   0.237
 1305SOL    HW1 4247   1.051   3.576   0.287
 1305SOL    HW2 4248   1.142   3.594   0.152
 1306SOL     OW 4249   0.202   2.147   1.498
 1306SOL    HW1 4250   0.122   2.207   1.485
 1306SOL    HW2 4251   0.192   2.098   1.584
 1307SOL     OW 4252   1.632   3.239   0.081
 1307SOL    HW1 4253   1.600   3.333   0.071
 1307SOL    HW2 4254   1.556   3.176   0.069
 1308SOL     OW 4255   0.464   3.605   0.323
 1308SOL    HW1 4256   0.497   3.644   0.409
 1308SOL    HW2 4257   0.540   3.598   0.258
 1309SOL     OW 4258   1.400   1.969   0.426
 1309SOL    HW1 4259   1.376   1.932   0.336
 1309SOL    HW2 4260   1.499   1.985   0.430
 1310SOL     OW 4261   0.249   3.647   1.241
 1310SOL    HW1 4262   0.306   3.582   1.291
 1310SOL    HW2 4263   0.233   3.614   1.148
 1311SOL     OW 4264   0.940   3.560   0.904
 1311SOL    HW1 4265   1.020   3.503   0.925
 1311SOL    HW2 4266   0.891   3.520   0.827
 1312SOL     OW 4267   0.382   2.562   0.480
 1312SOL    HW1 4268   0.427   2.472   0.477
 1312SOL    HW2 4269   0.288   2.551   0.513
 1313SOL     OW 4270   1.547   2.084   1.729
 1313SOL    HW1 4271   1.542   2.121   1.821
 1313SOL    HW2 4272   1.475   2.015   1.717
 1314SOL     OW 4273   0.614   1.984   0.117
 1314SOL    HW1 4274   0.712   1.962   0.124
 1314SOL    HW2 4275   0.583   1.967   0.024
 1315SOL     OW 4276   0.781   2.126   1.749
 1315SOL    HW1 4277   0.848   2.065   1.792
 1315SOL    HW2 4278   0.708   2.145   1.814
 1316SOL     OW 4279   0.888   3.376   1.195
 1316SOL    HW1 4280   0.865   3.351   1.101
 1316SOL    HW2 4281   0.949   3.307   1.234
 1317SOL     OW 4282   1.351   2.452   1.433
 1317SOL    HW1 4283   1.379   2.409   1.518
 1317SOL    HW2 4284   1.376   2.548   1.434
 1318SOL     OW 4285   0.803   3.264   0.924
 1318SOL    HW1 4286   0.893   3.278   0.882
 1318SOL    HW2 4287   0.732   3.266   0.853
 1319SOL     OW 4288   0.922   2.365   0.899
 1319SOL    HW1 4289   0.897   2.356   0.803
 1319SOL    HW2 4290   0.970   2.283   0.930
 1320SOL     OW 4291   0.539   1.926   0.512
 1320SOL    HW1 4292   0.458   1.927   0.570
 1320SOL    HW2 4293   0.542   2.009   0.457
 1321SOL     OW 4294   1.434   3.050   0.041
 1321SOL    HW1 4295   1.466   2.974   0.098
 1321SOL    HW2 4296   1.342   3.077   0.071
 1322SOL     OW 4297   0.297   1.897   0.171
 1322SOL    HW1 4298   0.346   1.981   0.150
 1322SOL    HW2 4299   0.359   1.832   0.216
 1323SOL     OW 4300   0.935   2.098   0.480
 1323SOL    HW1 4301   0.887   2.139   0.402
 1323SOL    HW2 4302   1.034   2.096   0.461
 1324SOL     OW 4303   1.076   2.545   1.464
 1324SOL    HW1 4304   0.996   2.484   1.467
 1324SOL    HW2 4305   1.157   2.492   1.440
 1325SOL     OW 4306   1.227   3.432   0.793
 1325SOL    HW1 4307   1.248   3.506   0.728
 1325SOL    HW2 4308   1.295   3.432   0.866
 1326SOL     OW 4309   0.459   3.014   0.741
 1326SOL    HW1 4310   0.388   2.987   0.806
 1326SOL    HW2 4311   0.433   2.986   0.648
 1327SOL     OW 4312   1.271   3.659   0.591
 1327SOL    HW1 4313   1.315   3.723   0.527
 1327SOL    HW2 4314   1.221   3.711   0.661
 1328SOL     OW 4315   1.032   2.411   0.016
 1328SOL    HW1 4316   0.991   2.493  -0.023
 1328SOL    HW2 4317   1.096   2.437   0.089
 1329SOL     OW 4318   0.078   2.418   1.386
 1329SOL    HW1 4319   0.170   2.417   1.345
 1329SOL    HW2 4320   0.072   2.492   1.453
 1330SOL     OW 4321   0.561   2.084   1.147
 1330SOL    HW1 4322   0.599   2.000   1.184
 1330SOL    HW2 4323   0.473   2.103   1.191
 1331SOL     OW 4324   0.866   2.316   0.642
 1331SOL    HW1 4325   0.834   2.388   0.580
 1331SOL    HW2 4326   0.890   2.235   0.589
 1332SOL     OW 4327   1.017   1.901   0.753
 1332SOL    HW1 4328   0.945   1.906   0.684
 1332SOL    HW2 4329   0.993   1.832   0.822
 1333SOL     OW 4330   1.429   3.035   0.867
 1333SOL    HW1 4331   1.374   2.951   0.860
 1333SOL    HW2 4332   1.455   3.064   0.775
 1334SOL     OW 4333   1.466   2.452   0.992
 1334SOL    HW1 4334   1.436   2.357   0.999
 1334SOL    HW2 4335   1.539   2.468   1.058
 1335SOL     OW 4336   1.857   2.695   0.377
 1335SOL    HW1 4337   1.899   2.631   0.441
 1335SOL    HW2 4338   1.819   2.644   0.299
 1336SOL     OW 4339   0.488   3.247   0.174
 1336SOL    HW1 4340   0.401   3.232   0.221
 1336SOL    HW2 4341   0.471   3.273   0.079
 1337SOL     OW 4342   1.664   3.142   0.657
 1337SOL    HW1 4343   1.763   3.150   0.671
 1337SOL    HW2 4344   1.619   3.226   0.688
 1338SOL     OW 4345   1.390   2.437   0.078
 1338SOL    HW1 4346   1.336   2.416   0.159
 1338SOL    HW2 4347   1.481   2.396   0.087
 1339SOL     OW 4348   0.527   2.118   0.328
 1339SOL    HW1 4349   0.554   2.059   0.253
 1339SOL    HW2 4350   0.527   2.213   0.297
 1340SOL     OW 4351   1.754   3.085   1.588
 1340SOL    HW1 4352   1.845   3.046   1.575
 1340SOL    HW2 4353   1.762   3.181   1.612
 1341SOL     OW 4354   1.064   3.209   1.340
 1341SOL    HW1 4355   0.984   3.186   1.395
 1341SOL    HW2 4356   1.147   3.183   1.389
 1342SOL     OW 4357   1.592   3.491   1.625
 1342SOL    HW1 4358   1.619   3.525   1.535
 1342SOL    HW2 4359   1.671   3.453   1.671
 1343SOL     OW 4360   1.111   3.057   1.100
 1343SOL    HW1 4361   1.071   3.101   1.181
 1343SOL    HW2 4362   1.070   3.094   1.017
 1344SOL     OW 4363   1.638   2.961   1.079
 1344SOL    HW1 4364   1.643   3.042   1.138
 1344SOL    HW2 4365   1.552   2.963   1.028
 1345SOL     OW 4366   0.915   1.951   1.402
 1345SOL    HW1 4367   0.940   1.931   1.307
 1345SOL    HW2 4368   0.987   2.007   1.444
 1346SOL     OW 4369   0.980   2.978   1.719
 1346SOL    HW1 4370   0.881   2.984   1.729
 1346SOL    HW2 4371   1.003   2.898   1.663
 1347SOL     OW 4372   0.705   2.912   0.368
 1347SOL    HW1 4373   0.691   2.919   0.467
 1347SOL    HW2 4374   0.789   2.861   0.350
 1348SOL     OW 4375   0.410   2.675   1.251
 1348SOL    HW1 4376   0.496   2.687   1.301
 1348SOL    HW2 4377   0.368   2.588   1.278
 1349SOL     OW 4378   1.274   2.248   1.262
 1349SOL    HW1 4379   1.295   2.322   1.326
 1349SOL    HW2 4380   1.185   2.265   1.219
 1350SOL     OW 4381   0.064   3.426   1.331
 1350SOL    HW1 4382   0.018   3.508   1.297
 1350SOL    HW2 4383   0.162   3.445   1.340
 1351SOL     OW 4384   0.367   2.962   0.501
 1351SOL    HW1 4385   0.360   3.045   0.445
 1351SOL    HW2 4386   0.371   2.882   0.441
 1352SOL     OW 4387   0.566   2.399   0.865
 1352SOL    HW1 4388   0.578   2.465   0.791
 1352SOL    HW2 4389   0.612   2.433   0.948
 1353SOL     OW 4390   1.252   3.210   0.388
 1353SOL    HW1 4391   1.302   3.287   0.428
 1353SOL    HW2 4392   1.157   3.212   0.420
 1354SOL     OW 4393   1.272   3.307   1.142
 1354SOL    HW1 4394   1.319   3.320   1.229
 1354SOL    HW2 4395   1.206   3.233   1.151
 1355SOL     OW 4396   1.582   2.501   0.472
 1355SOL    HW1 4397   1.551   2.562   0.545
 1355SOL    HW2 4398   1.632   2.553   0.403
 1356SOL     OW 4399   0.354   3.372   1.329
 1356SOL    HW1 4400   0.333   3.328   1.242
 1356SOL    HW2 4401   0.451   3.398   1.332
 1357SOL     OW 4402   0.402   2.613   1.598
 1357SOL    HW1 4403   0.470   2.668   1.551
 1357SOL    HW2 4404   0.442   2.525   1.625
 1358SOL     OW 4405   1.587   2.641   1.670
 1358SOL    HW1 4406   1.495   2.679   1.665
 1358SOL    HW2 4407   1.647   2.688   1.605
 1359SOL     OW 4408   1.013   1.967   1.770
 1359SOL    HW1 4409   1.019   2.052   1.718
 1359SOL    HW2 4410   1.045   1.891   1.713
 1360SOL     OW 4411   0.504   1.912   1.740
 1360SOL    HW1 4412   0.462   1.855   1.670
 1360SOL    HW2 4413   0.438   1.981   1.772
 1361SOL     OW 4414   0.573   2.732   1.029
 1361SOL    HW1 4415   0.617   2.821   1.020
 1361SOL    HW2 4416   0.510   2.732   1.106
 1362SOL     OW 4417   1.360   2.724   1.045
 1362SOL    HW1 4418   1.285   2.724   0.979
 1362SOL    HW2 4419   1.397   2.632   1.054
 1363SOL     OW 4420   1.209   2.387   0.275
 1363SOL    HW1 4421   1.222   2.303   0.329
 1363SOL    HW2 4422   1.180   2.461   0.335
 1364SOL     OW 4423   0.307   2.075   1.231
 1364SOL    HW1 4424   0.284   2.112   1.321
 1364SOL    HW2 4425   0.277   1.980   1.225
 1365SOL     OW 4426   0.037   3.172   1.282
 1365SOL    HW1 4427   0.090   3.123   1.350
 1365SOL    HW2 4428   0.059   3.270   1.287
 1366SOL     OW 4429   0.732   2.496   1.064
 1366SOL    HW1 4430   0.791   2.470   0.988
 1366SOL    HW2 4431   0.704   2.592   1.053
 1367SOL     OW 4432   1.728   2.797   1.854
 1367SOL    HW1 4433   1.682   2.790   1.765
 1367SOL    HW2 4434   1.666   2.841   1.920
 1368SOL     OW 4435   0.307   1.925   0.618
 1368SOL    HW1 4436   0.296   2.019   0.651
 1368SOL    HW2 4437   0.302   1.862   0.695
 1369SOL     OW 4438   1.622   2.229   0.374
 1369SOL    HW1 4439   1.624   2.153   0.438
 1369SOL    HW2 4440   1.574   2.306   0.414
 1370SOL     OW 4441   1.023   2.628   0.966
 1370SOL    HW1 4442   1.038   2.649   1.062
 1370SOL    HW2 4443   0.993   2.533   0.957
 1371SOL     OW 4444   0.980   3.435   1.700
 1371SOL    HW1 4445   0.960   3.479   1.612
 1371SOL    HW2 4446   1.019   3.344   1.684
 1372SOL     OW 4447   1.859   3.380   1.605
 1372SOL    HW1 4448   1.873   3.407   1.510
 1372SOL    HW2 4449   1.942   3.402   1.658
 1373SOL     OW 4450   0.350   2.760   1.804
 1373SOL    HW1 4451   0.426   2.804   1.852
 1373SOL    HW2 4452   0.385   2.713   1.722
 1374SOL     OW 4453   1.540   2.136   0.125
 1374SOL    HW1 4454   1.479   2.061   0.148
 1374SOL    HW2 4455   1.562   2.188   0.208
 1375SOL     OW 4456   1.303   2.700   0.042
 1375SOL    HW1 4457   1.337   2.607   0.057
 1375SOL    HW2 4458   1.321   2.727  -0.053
 1376SOL     OW 4459   1.068   3.195   0.849
 1376SOL    HW1 4460   1.075   3.111   0.794
 1376SOL    HW2 4461   1.130   3.264   0.813
 1377SOL     OW 4462   0.319   2.672   0.949
 1377SOL    HW1 4463   0.412   2.708   0.954
 1377SOL    HW2 4464   0.313   2.587   1.001
 1378SOL     OW 4465   0.339   2.371   1.006
 1378SOL    HW1 4466   0.287   2.288   0.989
 1378SOL    HW2 4467   0.416   2.376   0.942
 1379SOL     OW 4468   1.138   2.242   1.678
 1379SOL    HW1 4469   1.093   2.305   1.742
 1379SOL    HW2 4470   1.231   2.273   1.661
 1380SOL     OW 4471   1.160   2.069   1.477
 1380SOL    HW1 4472   1.160   2.133   1.554
 1380SOL    HW2 4473   1.188   2.117   1.394
 1381SOL     OW 4474   0.008   3.188   0.200
 1381SOL    HW1 4475  -0.085   3.209   0.169
 1381SOL    HW2 4476   0.018   3.089   0.213
 1382SOL     OW 4477   0.088   3.663   0.927
 1382SOL    HW1 4478   0.046   3.577   0.900
 1382SOL    HW2 4479   0.182   3.666   0.893
 1383SOL     OW 4480   0.504   3.430   0.910
 1383SOL    HW1 4481   0.570   3.504   0.919
 1383SOL    HW2 4482   0.548   3.351   0.868
 1384SOL     OW 4483   1.002   2.658   1.238
 1384SOL    HW1 4484   1.043   2.626   1.324
 1384SOL    HW2 4485   0.906   2.631   1.235
 1385SOL     OW 4486   0.040   2.406   1.114
 1385SOL    HW1 4487   0.125   2.373   1.073
 1385SOL    HW2 4488   0.053   2.421   1.212
 1386SOL     OW 4489   0.189   2.382   1.722
 1386SOL    HW1 4490   0.248   2.342   1.652
 1386SOL    HW2 4491   0.131   2.453   1.681
 1387SOL     OW 4492   1.369   2.812   1.660
 1387SOL    HW1 4493   1.408   2.901   1.680
 1387SOL    HW2 4494   1.379   2.792   1.563
 1388SOL     OW 4495   0.815   2.434   0.325
 1388SOL    HW1 4496   0.822   2.345   0.279
 1388SOL    HW2 4497   0.721   2.468   0.317
 1389SOL     OW 4498   1.657   2.466   1.206
 1389SOL    HW1 4499   1.619   2.397   1.268
 1389SOL    HW2 4500   1.739   2.430   1.162
 1390SOL     OW 4501   0.252   3.426   1.744
 1390SOL    HW1 4502   0.222   3.483   1.820
 1390SOL    HW2 4503   0.245   3.329   1.770
 1391SOL     OW 4504   0.671   2.326   1.269
 1391SOL    HW1 4505   0.637   2.237   1.239
 1391SOL    HW2 4506   0.697   2.380   1.189
 1392SOL     OW 4507   0.930   3.540   1.465
 1392SOL    HW1 4508   0.906   3.522   1.370
 1392SOL    HW2 4509   0.960   3.634   1.475
 1393SOL     OW 4510   0.473   2.362   0.191
 1393SOL    HW1 4511   0.534   2.442   0.195
 1393SOL    HW2 4512   0.378   2.393   0.198
 1394SOL     OW 4513   0.159   2.999   1.466
 1394SOL    HW1 4514   0.181   2.938   1.542
 1394SOL    HW2 4515   0.169   2.950   1.380
 1395SOL     OW 4516   1.347   2.921   1.234
 1395SOL    HW1 4517   1.371   2.858   1.160
 1395SOL    HW2 4518   1.257   2.961   1.216
 1396SOL     OW 4519   1.302   2.717   0.309
 1396SOL    HW1 4520   1.216   2.686   0.351
 1396SOL    HW2 4521   1.298   2.703   0.210
 1397SOL     OW 4522   1.759   3.609   1.154
 1397SOL    HW1 4523   1.820   3.639   1.081
 1397SOL    HW2 4524   1.721   3.520   1.132
 1398SOL     OW 4525   1.252   3.593   1.128
 1398SOL    HW1 4526   1.336   3.598   1.074
 1398SOL    HW2 4527   1.229   3.497   1.146
 1399SOL     OW 4528   0.083   3.120   1.022
 1399SOL    HW1 4529   0.078   3.119   1.122
 1399SOL    HW2 4530   0.000   3.079   0.984
 1400SOL     OW 4531   0.688   3.524   1.716
 1400SOL    HW1 4532   0.632   3.605   1.725
 1400SOL    HW2 4533   0.740   3.528   1.630
 1401SOL     OW 4534   0.903   1.948   0.133
 1401SOL    HW1 4535   0.954   1.949   0.047
 1401SOL    HW2 4536   0.959   1.906   0.204
 1402SOL     OW 4537   1.726   1.997   0.523
 1402SOL    HW1 4538   1.799   1.980   0.456
 1402SOL    HW2 4539   1.695   1.910   0.561
 1403SOL     OW 4540   1.388   3.435   0.477
 1403SOL    HW1 4541   1.455   3.447   0.403
 1403SOL    HW2 4542   1.348   3.524   0.500
 1404SOL     OW 4543   0.130   3.656   1.851
 1404SOL    HW1 4544   0.089   3.582   1.904
 1404SOL    HW2 4545   0.194   3.707   1.909
 1405SOL     OW 4546   1.280   2.789   0.672
 1405SOL    HW1 4547   1.340   2.708   0.674
 1405SOL    HW2 4548   1.320   2.858   0.612
 1406SOL     OW 4549   0.830   3.135   1.422
 1406SOL    HW1 4550   0.825   3.168   1.517
 1406SOL    HW2 4551   0.744   3.154   1.376
 1407SOL     OW 4552   0.672   3.478   0.154
 1407SOL    HW1 4553   0.681   3.488   0.055
 1407SOL    HW2 4554   0.632   3.389   0.175
 1408SOL     OW 4555   1.650   3.582   1.394
 1408SOL    HW1 4556   1.703   3.592   1.310
 1408SOL    HW2 4557   1.623   3.672   1.428
 1409SOL     OW 4558   1.841   2.037   0.963
 1409SOL    HW1 4559   1.880   1.952   0.927
 1409SOL    HW2 4560   1.743   2.039   0.944
 1410SOL     OW 4561   0.263   2.188   0.720
 1410SOL    HW1 4562   0.184   2.239   0.686
 1410SOL    HW2 4563   0.254   2.173   0.818
 1411SOL     OW 4564   1.194   3.474   0.031
 1411SOL    HW1 4565   1.200   3.381   0.068
 1411SOL    HW2 4566   1.135   3.474  -0.049
 1412SOL     OW 4567   0.822   2.864   1.372
 1412SOL    HW1 4568   0.862   2.863   1.280
 1412SOL    HW2 4569   0.832   2.956   1.412
 1413SOL     OW 4570   0.916   2.772   0.291
 1413SOL    HW1 4571   0.979   2.810   0.223
 1413SOL    HW2 4572   0.956   2.689   0.330
 1414SOL     OW 4573   1.504   3.469   0.044
 1414SOL    HW1 4574   1.412   3.506   0.051
 1414SOL    HW2 4575   1.542   3.489  -0.046
 1415SOL     OW 4576   0.372   3.150   1.490
 1415SOL    HW1 4577   0.359   3.243   1.456
 1415SOL    HW2 4578   0.288   3.098   1.477
 1416SOL     OW 4579   1.614   3.154   1.289
 1416SOL    HW1 4580   1.674   3.157   1.369
 1416SOL    HW2 4581   1.539   3.218   1.302
 1417SOL     OW 4582   1.039   2.960   0.696
 1417SOL    HW1 4583   0.969   2.913   0.750
 1417SOL    HW2 4584   1.098   2.892   0.653
 1418SOL     OW 4585   1.014   2.098   0.971
 1418SOL    HW1 4586   1.006   2.062   0.878
 1418SOL    HW2 4587   1.012   2.022   1.036
 1419SOL     OW 4588   0.590   3.349   0.491
 1419SOL    HW1 4589   0.632   3.291   0.421
 1419SOL    HW2 4590   0.546   3.428   0.447
 1420SOL     OW 4591   1.709   2.247   1.381
 1420SOL    HW1 4592   1.782   2.316   1.385
 1420SOL    HW2 4593   1.737   2.172   1.322
 1421SOL     OW 4594   0.255   3.210   0.290
 1421SOL    HW1 4595   0.159   3.211   0.263
 1421SOL    HW2 4596   0.267   3.263   0.374
 1422SOL     OW 4597   0.105   2.875   1.726
 1422SOL    HW1 4598   0.028   2.842   1.780
 1422SOL    HW2 4599   0.190   2.845   1.768
 1423SOL     OW 4600   0.672   2.065   1.489
 1423SOL    HW1 4601   0.762   2.049   1.449
 1423SOL    HW2 4602   0.680   2.070   1.588
 1424SOL     OW 4603   0.075   2.207   0.033
 1424SOL    HW1 4604  -0.017   2.179   0.004
 1424SOL    HW2 4605   0.106   2.284  -0.023
 1425SOL     OW 4606   1.440   2.718   1.398
 1425SOL    HW1 4607   1.383   2.770   1.335
 1425SOL    HW2 4608   1.536   2.730   1.374
 1426SOL     OW 4609   0.072   2.028   0.318
 1426SOL    HW1 4610   0.055   2.111   0.264
 1426SOL    HW2 4611   0.162   1.991   0.296
 1427SOL     OW 4612   1.183   3.197   0.119
 1427SOL    HW1 4613   1.084   3.186   0.121
 1427SOL    HW2 4614   1.217   3.212   0.212
 1428SOL     OW 4615   0.613   2.704   1.431
 1428SOL    HW1 4616   0.669   2.785   1.414
 1428SOL    HW2 4617   0.672   2.624   1.434
 1429SOL     OW 4618   1.493   3.629   0.959
 1429SOL    HW1 4619   1.526   3.693   0.890
 1429SOL    HW2 4620   1.559   3.623   1.034
 1430SOL     OW 4621   0.716   2.427   1.708
 1430SOL    HW1 4622   0.735   2.492   1.782
 1430SOL    HW2 4623   0.776   2.347   1.717
 1431SOL     OW 4624   1.450   3.082   1.633
 1431SOL    HW1 4625   1.441   3.072   1.732
 1431SOL    HW2 4626   1.546   3.075   1.607
 1432SOL     OW 4627   0.390   3.603   1.560
 1432SOL    HW1 4628   0.299   3.644   1.558
 1432SOL    HW2 4629   0.383   3.509   1.592
 1433SOL     OW 4630   1.674   2.745   1.254
 1433SOL    HW1 4631   1.647   2.656   1.217
 1433SOL    HW2 4632   1.675   2.813   1.181
 1434SOL     OW 4633   1.225   2.187   0.449
 1434SOL    HW1 4634   1.290   2.113   0.438
 1434SOL    HW2 4635   1.245   2.237   0.533
 1435SOL     OW 4636   0.594   2.607   0.652
 1435SOL    HW1 4637   0.644   2.692   0.633
 1435SOL    HW2 4638   0.506   2.609   0.604
 1436SOL     OW 4639   1.777   2.204   1.642
 1436SOL    HW1 4640   1.760   2.235   1.548
 1436SOL    HW2 4641   1.693   2.167   1.680
 1437SOL     OW 4642   1.730   2.796   1.517
 1437SOL    HW1 4643   1.768   2.887   1.532
 1437SOL    HW2 4644   1.722   2.779   1.418
 1438SOL     OW 4645   0.859   3.236   0.016
 1438SOL    HW1 4646   0.813   3.251   0.104
 1438SOL    HW2 4647   0.903   3.321  -0.014
 1439SOL     OW 4648   0.661   3.652   0.953
 1439SOL    HW1 4649   0.615   3.740   0.940
 1439SOL    HW2 4650   0.760   3.664   0.946
 1440SOL     OW 4651   0.859   2.818   0.861
 1440SOL    HW1 4652   0.913   2.749   0.909
 1440SOL    HW2 4653   0.827   2.887   0.927
 1441SOL     OW 4654   1.083   2.846   0.087
 1441SOL    HW1 4655   1.060   2.899   0.005
 1441SOL    HW2 4656   1.164   2.790   0.068
 1442SOL     OW 4657   1.861   3.431   0.851
 1442SOL    HW1 4658   1.790   3.419   0.781
 1442SOL    HW2 4659   1.862   3.352   0.911
 1443SOL     OW 4660   0.221   3.176   1.844
 1443SOL    HW1 4661   0.156   3.103   1.823
 1443SOL    HW2 4662   0.225   3.190   1.942
 1444SOL     OW 4663   0.079   3.102   0.653
 1444SOL    HW1 4664   0.078   3.055   0.741
 1444SOL    HW2 4665   0.161   3.074   0.602
 1445SOL     OW 4666   0.672   3.253   1.624
 1445SOL    HW1 4667   0.594   3.203   1.662
 1445SOL    HW2 4668   0.669   3.348   1.655
 1446SOL     OW 4669   1.824   2.054   1.227
 1446SOL    HW1 4670   1.820   1.964   1.271
 1446SOL    HW2 4671   1.827   2.043   1.128
 1447SOL     OW 4672   0.428   2.286   0.520
 1447SOL    HW1 4673   0.458   2.214   0.458
 1447SOL    HW2 4674   0.389   2.246   0.603
 1448SOL     OW 4675   1.705   3.349   1.104
 1448SOL    HW1 4676   1.612   3.324   1.077
 1448SOL    HW2 4677   1.731   3.299   1.186
 1449SOL     OW 4678   0.317   2.409   1.280
 1449SOL    HW1 4679   0.355   2.350   1.352
 1449SOL    HW2 4680   0.357   2.383   1.192
 1450SOL     OW 4681   0.812   3.448   0.687
 1450SOL    HW1 4682   0.844   3.458   0.593
 1450SOL    HW2 4683   0.733   3.386   0.689
 1451SOL     OW 4684   1.424   2.076   1.112
 1451SOL    HW1 4685   1.476   2.011   1.167
 1451SOL    HW2 4686   1.375   2.139   1.173
 1452SOL     OW 4687   1.001   1.896   1.154
 1452SOL    HW1 4688   0.938   1.824   1.123
 1452SOL    HW2 4689   1.094   1.860   1.154
 1453SOL     OW 4690   0.770   3.192   0.301
 1453SOL    HW1 4691   0.724   3.105   0.318
 1453SOL    HW2 4692   0.861   3.189   0.342
 1454SOL     OW 4693   0.618   3.429   1.284
 1454SOL    HW1 4694   0.613   3.511   1.341
 1454SOL    HW2 4695   0.707   3.426   1.239
 1455SOL     OW 4696   1.352   1.914   0.168
 1455SOL    HW1 4697   1.387   1.873   0.084
 1455SOL    HW2 4698   1.262   1.876   0.188
 1456SOL     OW 4699   1.300   2.315   0.691
 1456SOL    HW1 4700   1.241   2.395   0.695
 1456SOL    HW2 4701   1.315   2.280   0.784
 1457SOL     OW 4702   1.593   2.083   0.882
 1457SOL    HW1 4703   1.509   2.082   0.936
 1457SOL    HW2 4704   1.595   2.166   0.826
 1458SOL     OW 4705   0.039   2.939   0.300
 1458SOL    HW1 4706   0.138   2.928   0.291
 1458SOL    HW2 4707  -0.001   2.853   0.332
 1459SOL     OW 4708   0.875   3.508   0.337
 1459SOL    HW1 4709   0.798   3.473   0.283
 1459SOL    HW2 4710   0.843   3.579   0.399
 1460SOL     OW 4711   0.230   2.490   1.975
 1460SOL    HW1 4712   0.137   2.488   2.012
 1460SOL    HW2 4713   0.231   2.451   1.883
 1461SOL     OW 4714   0.225   2.137   2.858
 1461SOL    HW1 4715   0.260   2.120   2.950
 1461SOL    HW2 4716   0.137   2.092   2.846
 1462SOL     OW 4717   0.019   2.230   2.509
 1462SOL    HW1 4718  -0.063   2.273   2.548
 1462SOL    HW2 4719  -0.009   2.157   2.446
 1463SOL     OW 4720   0.569   3.137   3.027
 1463SOL    HW1 4721   0.476   3.130   2.990
 1463SOL    HW2 4722   0.580   3.226   3.071
 1464SOL     OW 4723   1.555   3.373   2.565
 1464SOL    HW1 4724   1.498   3.357   2.646
 1464SOL    HW2 4725   1.496   3.383   2.485
 1465SOL     OW 4726   1.135   2.565   2.579
 1465SOL    HW1 4727   1.192   2.643   2.554
 1465SOL    HW2 4728   1.075   2.591   2.655
 1466SOL     OW 4729   1.755   2.469   2.093
 1466SOL    HW1 4730   1.743   2.456   1.994
 1466SOL    HW2 4731   1.725   2.388   2.142
 1467SOL     OW 4732   0.768   3.006   2.885
 1467SOL    HW1 4733   0.690   3.023   2.945
 1467SOL    HW2 4734   0.802   3.093   2.849
 1468SOL     OW 4735   0.850   2.660   3.685
 1468SOL    HW1 4736   0.846   2.736   3.750
 1468SOL    HW2 4737   0.872   2.696   3.594
 1469SOL     OW 4738   0.685   2.874   2.527
 1469SOL    HW1 4739   0.754   2.858   2.597
 1469SOL    HW2 4740   0.612   2.931   2.565
 1470SOL     OW 4741   0.686   3.023   3.665
 1470SOL    HW1 4742   0.746   3.102   3.679
 1470SOL    HW2 4743   0.600   3.054   3.624
 1471SOL     OW 4744   0.335   3.297   2.923
 1471SOL    HW1 4745   0.257   3.266   2.870
 1471SOL    HW2 4746   0.393   3.355   2.866
 1472SOL     OW 4747   1.460   3.367   3.201
 1472SOL    HW1 4748   1.484   3.461   3.227
 1472SOL    HW2 4749   1.444   3.313   3.283
 1473SOL     OW 4750   0.438   2.254   3.361
 1473SOL    HW1 4751   0.520   2.198   3.370
 1473SOL    HW2 4752   0.357   2.196   3.365
 1474SOL     OW 4753   1.603   2.309   2.599
 1474SOL    HW1 4754   1.529   2.355   2.549
 1474SOL    HW2 4755   1.654   2.377   2.652
 1475SOL     OW 4756   0.231   3.575   2.345
 1475SOL    HW1 4757   0.265   3.652   2.399
 1475SOL    HW2 4758   0.275   3.575   2.255
 1476SOL     OW 4759   1.127   3.203   3.552
 1476SOL    HW1 4760   1.174   3.203   3.640
 1476SOL    HW2 4761   1.079   3.116   3.541
 1477SOL     OW 4762   0.230   3.296   2.400
 1477SOL    HW1 4763   0.204   3.392   2.400
 1477SOL    HW2 4764   0.159   3.242   2.445
 1478SOL     OW 4765   0.240   2.953   2.748
 1478SOL    HW1 4766   0.254   2.869   2.800
 1478SOL    HW2 4767   0.185   3.017   2.803
 1479SOL     OW 4768   0.620   3.648   3.301
 1479SOL    HW1 4769   0.528   3.631   3.336
 1479SOL    HW2 4770   0.648   3.740   3.327
 1480SOL     OW 4771   0.606   2.826   1.985
 1480SOL    HW1 4772   0.613   2.910   1.931
 1480SOL    HW2 4773   0.652   2.839   2.073
 1481SOL     OW 4774   1.594   1.976   3.342
 1481SOL    HW1 4775   1.576   2.043   3.270
 1481SOL    HW2 4776   1.591   2.022   3.431
 1482SOL     OW 4777   0.122   2.505   2.425
 1482SOL    HW1 4778   0.077   2.417   2.442
 1482SOL    HW2 4779   0.121   2.559   2.509
 1483SOL     OW 4780   1.842   3.629   2.221
 1483SOL    HW1 4781   1.896   3.600   2.301
 1483SOL    HW2 4782   1.872   3.719   2.192
 1484SOL     OW 4783   0.027   3.458   1.979
 1484SOL    HW1 4784   0.008   3.362   2.000
 1484SOL    HW2 4785  -0.006   3.516   2.054
 1485SOL     OW 4786   1.689   2.784   2.474
 1485SOL    HW1 4787   1.784   2.755   2.482
 1485SOL    HW2 4788   1.681   2.849   2.399
 1486SOL     OW 4789   1.641   2.970   2.294
 1486SOL    HW1 4790   1.727   2.972   2.242
 1486SOL    HW2 4791   1.655   3.017   2.382
 1487SOL     OW 4792   0.113   2.599   3.459
 1487SOL    HW1 4793   0.201   2.586   3.504
 1487SOL    HW2 4794   0.100   2.696   3.437
 1488SOL     OW 4795   0.613   3.227   2.588
 1488SOL    HW1 4796   0.564   3.140   2.597
 1488SOL    HW2 4797   0.590   3.270   2.501
 1489SOL     OW 4798   1.293   3.090   3.285
 1489SOL    HW1 4799   1.330   3.017   3.227
 1489SOL    HW2 4800   1.345   3.095   3.370
 1490SOL     OW 4801   0.809   1.866   2.364
 1490SOL    HW1 4802   0.849   1.957   2.355
 1490SOL    HW2 4803   0.709   1.874   2.370
 1491SOL     OW 4804   0.197   2.838   3.126
 1491SOL    HW1 4805   0.286   2.793   3.112
 1491SOL    HW2 4806   0.124   2.773   3.107
 1492SOL     OW 4807   1.525   2.861   2.052
 1492SOL    HW1 4808   1.462   2.785   2.065
 1492SOL    HW2 4809   1.573   2.879   2.138
 1493SOL     OW 4810   1.187   3.654   3.478
 1493SOL    HW1 4811   1.211   3.714   3.402
 1493SOL    HW2 4812   1.194   3.559   3.448
 1494SOL     OW 4813   0.317   2.113   3.663
 1494SOL    HW1 4814   0.388   2.184   3.669
 1494SOL    HW2 4815   0.229   2.152   3.691
 1495SOL     OW 4816   1.466   3.279   2.815
 1495SOL    HW1 4817   1.407   3.285   2.895
 1495SOL    HW2 4818   1.451   3.191   2.769
 1496SOL     OW 4819   1.667   3.576   2.434
 1496SOL    HW1 4820   1.626   3.553   2.346
 1496SOL    HW2 4821   1.649   3.502   2.499
 1497SOL     OW 4822   0.598   2.591   2.132
 1497SOL    HW1 4823   0.622   2.660   2.064
 1497SOL    HW2 4824   0.520   2.624   2.186
 1498SOL     OW 4825   1.281   2.207   2.806
 1498SOL    HW1 4826   1.195   2.157   2.793
 1498SOL    HW2 4827   1.343   2.153   2.862
 1499SOL     OW 4828   1.576   3.524   2.169
 1499SOL    HW1 4829   1.665   3.570   2.172
 1499SOL    HW2 4830   1.555   3.500   2.074
 1500SOL     OW 4831   0.807   2.467   3.327
 1500SOL    HW1 4832   0.760   2.464   3.416
 1500SOL    HW2 4833   0.756   2.412   3.261
 1501SOL     OW 4834   1.394   2.331   3.536
 1501SOL    HW1 4835   1.374   2.374   3.624
 1501SOL    HW2 4836   1.472   2.269   3.545
 1502SOL     OW 4837   0.973   2.752   3.434
 1502SOL    HW1 4838   1.019   2.668   3.405
 1502SOL    HW2 4839   0.917   2.786   3.359
 1503SOL     OW 4840   0.991   2.272   3.104
 1503SOL    HW1 4841   0.914   2.306   3.158
 1503SOL    HW2 4842   0.957   2.221   3.025
 1504SOL     OW 4843   1.041   2.563   2.291
 1504SOL    HW1 4844   1.067   2.559   2.387
 1504SOL    HW2 4845   0.956   2.512   2.277
 1505SOL     OW 4846   0.076   2.673   2.651
 1505SOL    HW1 4847   0.175   2.661   2.660
 1505SOL    HW2 4848   0.052   2.768   2.672
 1506SOL     OW 4849   0.130   3.683   3.433
 1506SOL    HW1 4850   0.120   3.668   3.532
 1506SOL    HW2 4851   0.044   3.719   3.397
 1507SOL     OW 4852   0.865   2.210   2.057
 1507SOL    HW1 4853   0.924   2.273   2.008
 1507SOL    HW2 4854   0.884   2.116   2.028
 1508SOL     OW 4855   1.719   2.447   3.693
 1508SOL    HW1 4856   1.693   2.536   3.657
 1508SOL    HW2 4857   1.717   2.379   3.620
 1509SOL     OW 4858   1.362   3.006   2.407
 1509SOL    HW1 4859   1.445   2.977   2.359
 1509SOL    HW2 4860   1.313   3.073   2.351
 1510SOL     OW 4861   0.550   2.058   2.747
 1510SOL    HW1 4862   0.545   2.053   2.847
 1510SOL    HW2 4863   0.552   2.154   2.718
 1511SOL     OW 4864   1.008   3.318   2.339
 1511SOL    HW1 4865   0.962   3.390   2.287
 1511SOL    HW2 4866   1.004   3.338   2.437
 1512SOL     OW 4867   0.351   3.663   2.715
 1512SOL    HW1 4868   0.401   3.577   2.721
 1512SOL    HW2 4869   0.416   3.740   2.712
 1513SOL     OW 4870   1.795   2.928   2.735
 1513SOL    HW1 4871   1.733   2.913   2.659
 1513SOL    HW2 4872   1.743   2.939   2.820
 1514SOL     OW 4873   1.227   3.412   3.368
 1514SOL    HW1 4874   1.233   3.335   3.432
 1514SOL    HW2 4875   1.175   3.386   3.288
 1515SOL     OW 4876   0.321   2.805   2.104
 1515SOL    HW1 4877   0.403   2.844   2.062
 1515SOL    HW2 4878   0.294   2.723   2.055
 1516SOL     OW 4879   1.458   2.597   2.590
 1516SOL    HW1 4880   1.453   2.532   2.665
 1516SOL    HW2 4881   1.538   2.656   2.603
 1517SOL     OW 4882   0.461   3.128   3.589
 1517SOL    HW1 4883   0.411   3.129   3.503
 1517SOL    HW2 4884   0.398   3.110   3.665
 1518SOL     OW 4885   1.111   3.638   2.099
 1518SOL    HW1 4886   1.051   3.576   2.149
 1518SOL    HW2 4887   1.142   3.594   2.014
 1519SOL     OW 4888   0.202   2.147   3.360
 1519SOL    HW1 4889   0.122   2.207   3.347
 1519SOL    HW2 4890   0.192   2.098   3.446
 1520SOL     OW 4891   1.632   3.239   1.943
 1520SOL    HW1 4892   1.600   3.333   1.933
 1520SOL    HW2 4893   1.556   3.176   1.931
 1521SOL     OW 4894   0.464   3.605   2.185
 1521SOL    HW1 4895   0.497   3.644   2.271
 1521SOL    HW2 4896   0.540   3.598   2.120
 1522SOL     OW 4897   1.400   1.969   2.288
 1522SOL    HW1 4898   1.376   1.932   2.198
 1522SOL    HW2 4899   1.499   1.985   2.292
 1523SOL     OW 4900   0.249   3.647   3.103
 1523SOL    HW1 4901   0.306   3.582   3.153
 1523SOL    HW2 4902   0.233   3.614   3.010
 1524SOL     OW 4903   0.940   3.560   2.766
 1524SOL    HW1 4904   1.020   3.503   2.787
 1524SOL    HW2 4905   0.891   3.520   2.689
 1525SOL     OW 4906   0.382   2.562   2.342
 1525SOL    HW1 4907   0.427   2.472   2.339
 1525SOL    HW2 4908   0.288   2.551   2.375
 1526SOL     OW 4909   1.547   2.084   3.591
 1526SOL    HW1 4910   1.542   2.121   3.683
 1526SOL    HW2 4911   1.475   2.015   3.579
 1527SOL     OW 4912   0.614   1.984   1.979
 1527SOL    HW1 4913   0.712   1.962   1.986
 1527SOL    HW2 4914   0.583   1.967   1.886
 1528SOL     OW 4915   0.781   2.126   3.611
 1528SOL    HW1 4916   0.848   2.065   3.654
 1528SOL    HW2 4917   0.708   2.145   3.676
 1529SOL     OW 4918   0.888   3.376   3.057
 1529SOL    HW1 4919   0.865   3.351   2.963
 1529SOL    HW2 4920   0.949   3.307   3.096
 1530SOL     OW 4921   1.351   2.452   3.295
 1530SOL    HW1 4922   1.379   2.409   3.380
 1530SOL    HW2 4923   1.376   2.548   3.296
 1531SOL     OW 4924   0.803   3.264   2.786
 1531SOL    HW1 4925   0.893   3.278   2.744
 1531SOL    HW2 4926   0.732   3.266   2.715
 1532SOL     OW 4927   0.922   2.365   2.761
 1532SOL    HW1 4928   0.897   2.356   2.665
 1532SOL    HW2 4929   0.970   2.283   2.792
 1533SOL     OW 4930   0.539   1.926   2.374
 1533SOL    HW1 4931   0.458   1.927   2.432
 1533SOL    HW2 4932   0.542   2.009   2.319
 1534SOL     OW 4933   1.434   3.050   1.903
 1534SOL    HW1 4934   1.466   2.974   1.960
 1534SOL    HW2 4935   1.342   3.077   1.933
 1535SOL     OW 4936   0.297   1.897   2.033
 1535SOL    HW1 4937   0.346   1.981   2.012
 1535SOL    HW2 4938   0.359   1.832   2.078
 1536SOL     OW 4939   0.935   2.098   2.342
 1536SOL    HW1 4940   0.887   2.139   2.264
 1536SOL    HW2 4941   1.034   2.096   2.323
 1537SOL     OW 4942   1.076   2.545   3.326
 1537SOL    HW1 4943   0.996   2.484   3.329
 1537SOL    HW2 4944   1.157   2.492   3.302
 1538SOL     OW 4945   1.227   3.432   2.655
 1538SOL    HW1 4946   1.248   3.506   2.590
 1538SOL    HW2 4947   1.295   3.432   2.728
 1539SOL     OW 4948   0.459   3.014   2.603
 1539SOL    HW1 4949   0.388   2.987   2.668
 1539SOL    HW2 4950   0.433   2.986   2.510
 1540SOL     OW 4951   1.271   3.659   2.453
 1540SOL    HW1 4952   1.315   3.723   2.389
 1540SOL    HW2 4953   1.221   3.711   2.523
 1541SOL     OW 4954   1.032   2.411   1.878
 1541SOL    HW1 4955   0.991   2.493   1.839
 1541SOL    HW2 4956   1.096   2.437   1.951
 1542SOL     OW 4957   0.078   2.418   3.248
 1542SOL    HW1 4958   0.170   2.417   3.207
 1542SOL    HW2 4959   0.072   2.492   3.315
 1543SOL     OW 4960   0.561   2.084   3.009
 1543SOL    HW1 4961   0.599   2.000   3.046
 1543SOL    HW2 4962   0.473   2.103   3.053
 1544SOL     OW 4963   0.866   2.316   2.504
 1544SOL    HW1 4964   0.834   2.388   2.442
 1544SOL    HW2 4965   0.890   2.235   2.451
 1545SOL     OW 4966   1.017   1.901   2.615
 1545SOL    HW1 4967   0.945   1.906   2.546
 1545SOL    HW2 4968   0.993   1.832   2.684
 1546SOL     OW 4969   1.429   3.035   2.729
 1546SOL    HW1 4970   1.374   2.951   2.722
 1546SOL    HW2 4971   1.455   3.064   2.637
 1547SOL     OW 4972   1.466   2.452   2.854
 1547SOL    HW1 4973   1.436   2.357   2.861
 1547SOL    HW2 4974   1.539   2.468   2.920
 1548SOL     OW 4975   1.857   2.695   2.239
 1548SOL    HW1 4976   1.899   2.631   2.303
 1548SOL    HW2 4977   1.819   2.644   2.161
 1549SOL     OW 4978   0.488   3.247   2.036
 1549SOL    HW1 4979   0.401   3.232   2.083
 1549SOL    HW2 4980   0.471   3.273   1.941
 1550SOL     OW 4981   1.664   3.142   2.519
 1550SOL    HW1 4982   1.763   3.150   2.533
 1550SOL    HW2 4983   1.619   3.226   2.550
 1551SOL     OW 4984   1.390   2.437   1.940
 1551SOL    HW1 4985   1.336   2.416   2.021
 1551SOL    HW2 4986   1.481   2.396   1.949
 1552SOL     OW 4987   0.527   2.118   2.190
 1552SOL    HW1 4988   0.554   2.059   2.115
 1552SOL    HW2 4989   0.527   2.213   2.159
 1553SOL     OW 4990   1.754   3.085   3.450
 1553SOL    HW1 4991   1.845   3.046   3.437
 1553SOL    HW2 4992   1.762   3.181   3.474
 1554SOL     OW 4993   1.064   3.209   3.202
 1554SOL    HW1 4994   0.984   3.186   3.257
 1554SOL    HW2 4995   1.147   3.183   3.251
 1555SOL     OW 4996   1.592   3.491   3.487
 1555SOL    HW1 4997   1.619   3.525   3.397
 1555SOL    HW2 4998   1.671   3.453   3.533
 1556SOL     OW 4999   1.111   3.057   2.962
 1556SOL    HW1 5000   1.071   3.101   3.043
 1556SOL    HW2 5001   1.070   3.094   2.879
 1557SOL     OW 5002   1.638   2.961   2.941
 1557SOL    HW1 5003   1.643   3.042   3.000
 1557SOL    HW2 5004   1.552   2.963   2.890
 1558SOL     OW 5005   0.915   1.951   3.264
 1558SOL    HW1 5006   0.940   1.931   3.169
 1558SOL    HW2 5007   0.987   2.007   3.306
 1559SOL     OW 5008   0.980   2.978   3.581
 1559SOL    HW1 5009   0.881   2.984   3.591
 1559SOL    HW2 5010   1.003   2.898   3.525
 1560SOL     OW 5011   0.705   2.912   2.230
 1560SOL    HW1 5012   0.691   2.919   2.329
 1560SOL    HW2 5013   0.789   2.861   2.212
 1561SOL     OW 5014   0.410   2.675   3.113
 1561SOL    HW1 5015   0.496   2.687   3.163
 1561SOL    HW2 5016   0.368   2.588   3.140
 1562SOL     OW 5017   1.274   2.248   3.124
 1562SOL    HW1 5018   1.295   2.322   3.188
 1562SOL    HW2 5019   1.185   2.265   3.081
 1563SOL     OW 5020   0.064   3.426   3.193
 1563SOL    HW1 5021   0.018   3.508   3.159
 1563SOL    HW2 5022   0.162   3.445   3.202
 1564SOL     OW 5023   0.367   2.962   2.363
 1564SOL    HW1 5024   0.360   3.045   2.307
 1564SOL    HW2 5025   0.371   2.882   2.303
 1565SOL     OW 5026   0.566   2.399   2.727
 1565SOL    HW1 5027   0.578   2.465   2.653
 1565SOL    HW2 5028   0.612   2.433   2.810
 1566SOL     OW 5029   1.252   3.210   2.250
 1566SOL    HW1 5030   1.302   3.287   2.290
 1566SOL    HW2 5031   1.157   3.212   2.282
 1567SOL     OW 5032   1.272   3.307   3.004
 1567SOL    HW1 5033   1.319   3.320   3.091
 1567SOL    HW2 5034   1.206   3.233   3.013
 1568SOL     OW 5035   1.582   2.501   2.334
 1568SOL    HW1 5036   1.551   2.562   2.407
 1568SOL    HW2 5037   1.632   2.553   2.265
 1569SOL     OW 5038   0.354   3.372   3.191
 1569SOL    HW1 5039   0.333   3.328   3.104
 1569SOL    HW2 5040   0.451   3.398   3.194
 1570SOL     OW 5041   0.402   2.613   3.460
 1570SOL    HW1 5042   0.470   2.668   3.413
 1570SOL    HW2 5043   0.442   2.525   3.487
 1571SOL     OW 5044   1.587   2.641   3.532
 1571SOL    HW1 5045   1.495   2.679   3.527
 1571SOL    HW2 5046   1.647   2.688   3.467
 1572SOL     OW 5047   1.013   1.967   3.632
 1572SOL    HW1 5048   1.019   2.052   3.580
 1572SOL    HW2 5049   1.045   1.891   3.575
 1573SOL     OW 5050   0.504   1.912   3.602
 1573SOL    HW1 5051   0.462   1.855   3.532
 1573SOL    HW2 5052   0.438   1.981   3.634
 1574SOL     OW 5053   0.573   2.732   2.891
 1574SOL    HW1 5054   0.617   2.821   2.882
 1574SOL    HW2 5055   0.510   2.732   2.968
 1575SOL     OW 5056   1.360   2.724   2.907
 1575SOL    HW1 5057   1.285   2.724   2.841
 1575SOL    HW2 5058   1.397   2.632   2.916
 1576SOL     OW 5059   1.209   2.387   2.137
 1576SOL    HW1 5060   1.222   2.303   2.191
 1576SOL    HW2 5061   1.180   2.461   2.197
 1577SOL     OW 5062   0.307   2.075   3.093
 1577SOL    HW1 5063   0.284   2.112   3.183
 1577SOL    HW2 5064   0.277   1.980   3.087
 1578SOL     OW 5065   0.037   3.172   3.144
 1578SOL    HW1 5066   0.090   3.123   3.212
 1578SOL    HW2 5067   0.059   3.270   3.149
 1579SOL     OW 5068   0.732   2.496   2.926
 1579SOL    HW1 5069   0.791   2.470   2.850
 1579SOL    HW2 5070   0.704   2.592   2.915
 1580SOL     OW 5071   1.728   2.797   3.716
 1580SOL    HW1 5072   1.682   2.790   3.627
 1580SOL    HW2 5073   1.666   2.841   3.782
 1581SOL     OW 5074   0.307   1.925   2.480
 1581SOL    HW1 5075   0.296   2.019   2.513
 1581SOL    HW2 5076   0.302   1.862   2.557
 1582SOL     OW 5077   1.622   2.229   2.236
 1582SOL    HW1 5078   1.624   2.153   2.300
 1582SOL    HW2 5079   1.574   2.306   2.276
 1583SOL     OW 5080   1.023   2.628   2.828
 1583SOL    HW1 5081   1.038   2.649   2.924
 1583SOL    HW2 5082   0.993   2.533   2.819
 1584SOL     OW 5083   0.980   3.435   3.562
 1584SOL    HW1 5084   0.960   3.479   3.474
 1584SOL    HW2 5085   1.019   3.344   3.546
 1585SOL     OW 5086   1.859   3.380   3.467
 1585SOL    HW1 5087   1.873   3.407   3.372
 1585SOL    HW2 5088   1.942   3.402   3.520
 1586SOL     OW 5089   0.350   2.760   3.666
 1586SOL    HW1 5090   0.426   2.804   3.714
 1586SOL    HW2 5091   0.385   2.713   3.584
 1587SOL     OW 5092   1.540   2.136   1.987
 1587SOL    HW1 5093   1.479   2.061   2.010
 1587SOL    HW2 5094   1.562   2.188   2.070
 1588SOL     OW 5095   1.303   2.700   1.904
 1588SOL    HW1 5096   1.337   2.607   1.919
 1588SOL    HW2 5097   1.321   2.727   1.809
 1589SOL     OW 5098   1.068   3.195   2.711
 1589SOL    HW1 5099   1.075   3.111   2.656
 1589SOL    HW2 5100   1.130   3.264   2.675
 1590SOL     OW 5101   0.319   2.672   2.811
 1590SOL    HW1 5102   0.412   2.708   2.816
 1590SOL    HW2 5103   0.313   2.587   2.863
 1591SOL     OW 5104   0.339   2.371   2.868
 1591SOL    HW1 5105   0.287   2.288   2.851
 1591SOL    HW2 5106   0.416   2.376   2.804
 1592SOL     OW 5107   1.138   2.242   3.540
 1592SOL    HW1 5108   1.093   2.305   3.604
 1592SOL    HW2 5109   1.231   2.273   3.523
 1593SOL     OW 5110   1.160   2.069   3.339
 1593SOL    HW1 5111   1.160   2.133   3.416
 1593SOL    HW2 5112   1.188   2.117   3.256
 1594SOL     OW 5113   0.008   3.188   2.062
 1594SOL    HW1 5114  -0.085   3.209   2.031
 1594SOL    HW2 5115   0.018   3.089   2.075
 1595SOL     OW 5116   0.088   3.663   2.789
 1595SOL    HW1 5117   0.046   3.577   2.762
 1595SOL    HW2 5118   0.182   3.666   2.755
 1596SOL     OW 5119   0.504   3.430   2.772
 1596SOL    HW1 5120   0.570   3.504   2.781
 1596SOL    HW2 5121   0.548   3.351   2.730
 1597SOL     OW 5122   1.002   2.658   3.100
 1597SOL    HW1 5123   1.043   2.626   3.186
 1597SOL    HW2 5124   0.906   2.631   3.097
 1598SOL     OW 5125   0.040   2.406   2.976
 1598SOL    HW1 5126   0.125   2.373   2.935
 1598SOL    HW2 5127   0.053   2.421   3.074
 1599SOL     OW 5128   0.189   2.382   3.584
 1599SOL    HW1 5129   0.248   2.342   3.514
 1599SOL    HW2 5130   0.131   2.453   3.543
 1600SOL     OW 5131   1.369   2.812   3.522
 1600SOL    HW1 5132   1.408   2.901   3.542
 1600SOL    HW2 5133   1.379   2.792   3.425
 1601SOL     OW 5134   0.815   2.434   2.187
 1601SOL    HW1 5135   0.822   2.345   2.141
 1601SOL    HW2 5136   0.721   2.468   2.179
 1602SOL     OW 5137   1.657   2.466   3.068
 1602SOL    HW1 5138   1.619   2.397   3.130
 1602SOL    HW2 5139   1.739   2.430   3.024
 1603SOL     OW 5140   0.252   3.426   3.606
 1603SOL    HW1 5141   0.222   3.483   3.682
 1603SOL    HW2 5142   0.245   3.329   3.632
 1604SOL     OW 5143   0.671   2.326   3.131
 1604SOL    HW1 5144   0.637   2.237   3.101
 1604SOL    HW2 5145   0.697   2.380   3.051
 1605SOL     OW 5146   0.930   3.540   3.327
 1605SOL    HW1 5147   0.906   3.522   3.232
 1605SOL    HW2 5148   0.960   3.634   3.337
 1606SOL     OW 5149   0.473   2.362   2.053
 1606SOL    HW1 5150   0.534   2.442   2.057
 1606SOL    HW2 5151   0.378   2.393   2.060
 1607SOL     OW 5152   0.159   2.999   3.328
 1607SOL    HW1 5153   0.181   2.938   3.404
 1607SOL    HW2 5154   0.169   2.950   3.242
 1608SOL     OW 5155   1.347   2.921   3.096
 1608SOL    HW1 5156   1.371   2.858   3.022
 1608SOL    HW2 5157   1.257   2.961   3.078
 1609SOL     OW 5158   1.302   2.717   2.171
 1609SOL    HW1 5159   1.216   2.686   2.213
 1609SOL    HW2 5160   1.298   2.703   2.072
 1610SOL     OW 5161   1.759   3.609   3.016
 1610SOL    HW1 5162   1.820   3.639   2.943
 1610SOL    HW2 5163   1.721   3.520   2.994
 1611SOL     OW 5164   1.252   3.593   2.990
 1611SOL    HW1 5165   1.336   3.598   2.936
 1611SOL    HW2 5166   1.229   3.497   3.008
 1612SOL     OW 5167   0.083   3.120   2.884
 1612SOL    HW1 5168   0.078   3.119   2.984
 1612SOL    HW2 5169   0.000   3.079   2.846
 1613SOL     OW 5170   0.688   3.524   3.578
 1613SOL    HW1 5171   0.632   3.605   3.587
 1613SOL    HW2 5172   0.740   3.528   3.492
 1614SOL     OW 5173   1.726   1.997   2.385
 1614SOL    HW1 5174   1.799   1.980   2.318
 1614SOL    HW2 5175   1.695   1.910   2.423
 1615SOL     OW 5176   1.388   3.435   2.339
 1615SOL    HW1 5177   1.455   3.447   2.265
 1615SOL    HW2 5178   1.348   3.524   2.362
 1616SOL     OW 5179   0.130   3.656   3.713
 1616SOL    HW1 5180   0.089   3.582   3.766
 1616SOL    HW2 5181   0.194   3.707   3.771
 1617SOL     OW 5182   1.280   2.789   2.534
 1617SOL    HW1 5183   1.340   2.708   2.536
 1617SOL    HW2 5184   1.320   2.858   2.474
 1618SOL     OW 5185   0.830   3.135   3.284
 1618SOL    HW1 5186   0.825   3.168   3.379
 1618SOL    HW2 5187   0.744   3.154   3.238
 1619SOL     OW 5188   0.672   3.478   2.016
 1619SOL    HW1 5189   0.681   3.488   1.917
 1619SOL    HW2 5190   0.632   3.389   2.037
 1620SOL     OW 5191   1.650   3.582   3.256
 1620SOL    HW1 5192   1.703   3.592   3.172
 1620SOL    HW2 5193   1.623   3.672   3.290
 1621SOL     OW 5194   1.841   2.037   2.825
 1621SOL    HW1 5195   1.880   1.952   2.789
 1621SOL    HW2 5196   1.743   2.039   2.806
 1622SOL     OW 5197   0.263   2.188   2.582
 1622SOL    HW1 5198   0.184   2.239   2.548
 1622SOL    HW2 5199   0.254   2.173   2.680
 1623SOL     OW 5200   1.194   3.474   1.893
 1623SOL    HW1 5201   1.200   3.381   1.930
 1623SOL    HW2 5202   1.135   3.474   1.813
 1624SOL     OW 5203   0.822   2.864   3.234
 1624SOL    HW1 5204   0.862   2.863   3.142
 1624SOL    HW2 5205   0.832   2.956   3.274
 1625SOL     OW 5206   0.916   2.772   2.153
 1625SOL    HW1 5207   0.979   2.810   2.085
 1625SOL    HW2 5208   0.956   2.689   2.192
 1626SOL     OW 5209   1.504   3.469   1.906
 1626SOL    HW1 5210   1.412   3.506   1.913
 1626SOL    HW2 5211   1.542   3.489   1.816
 1627SOL     OW 5212   0.372   3.150   3.352
 1627SOL    HW1 5213   0.359   3.243   3.318
 1627SOL    HW2 5214   0.288   3.098   3.339
 1628SOL     OW 5215   1.614   3.154   3.151
 1628SOL    HW1 5216   1.674   3.157   3.231
 1628SOL    HW2 5217   1.539   3.218   3.164
 1629SOL     OW 5218   1.039   2.960   2.558
 1629SOL    HW1 5219   0.969   2.913   2.612
 1629SOL    HW2 5220   1.098   2.892   2.515
 1630SOL     OW 5221   1.014   2.098   2.833
 1630SOL    HW1 5222   1.006   2.062   2.740
 1630SOL    HW2 5223   1.012   2.022   2.898
 1631SOL     OW 5224   0.590   3.349   2.353
 1631SOL    HW1 5225   0.632   3.291   2.283
 1631SOL    HW2 5226   0.546   3.428   2.309
 1632SOL     OW 5227   1.709   2.247   3.243
 1632SOL    HW1 5228   1.782   2.316   3.247
 1632SOL    HW2 5229   1.737   2.172   3.184
 1633SOL     OW 5230   0.255   3.210   2.152
 1633SOL    HW1 5231   0.159   3.211   2.125
 1633SOL    HW2 5232   0.267   3.263   2.236
 1634SOL     OW 5233   0.105   2.875   3.588
 1634SOL    HW1 5234   0.028   2.842   3.642
 1634SOL    HW2 5235   0.190   2.845   3.630
 1635SOL     OW 5236   0.672   2.065   3.351
 1635SOL    HW1 5237   0.762   2.049   3.311
 1635SOL    HW2 5238   0.680   2.070   3.450
 1636SOL     OW 5239   0.075   2.207   1.895
 1636SOL    HW1 5240  -0.017   2.179   1.866
 1636SOL    HW2 5241   0.106   2.284   1.839
 1637SOL     OW 5242   1.440   2.718   3.260
 1637SOL    HW1 5243   1.383   2.770   3.197
 1637SOL    HW2 5244   1.536   2.730   3.236
 1638SOL     OW 5245   0.072   2.028   2.180
 1638SOL    HW1 5246   0.055   2.111   2.126
 1638SOL    HW2 5247   0.162   1.991   2.158
 1639SOL     OW 5248   1.183   3.197   1.981
 1639SOL    HW1 5249   1.084   3.186   1.983
 1639SOL    HW2 5250   1.217   3.212   2.074
 1640SOL     OW 5251   0.613   2.704   3.293
 1640SOL    HW1 5252   0.669   2.785   3.276
 1640SOL    HW2 5253   0.672   2.624   3.296
 1641SOL     OW 5254   1.493   3.629   2.821
 1641SOL    HW1 5255   1.526   3.693   2.752
 1641SOL    HW2 5256   1.559   3.623   2.896
 1642SOL     OW 5257   0.716   2.427   3.570
 1642SOL    HW1 5258   0.735   2.492   3.644
 1642SOL    HW2 5259   0.776   2.347   3.579
 1643SOL     OW 5260   1.450   3.082   3.495
 1643SOL    HW1 5261   1.441   3.072   3.594
 1643SOL    HW2 5262   1.546   3.075   3.469
 1644SOL     OW 5263   0.390   3.603   3.422
 1644SOL    HW1 5264   0.299   3.644   3.420
 1644SOL    HW2 5265   0.383   3.509   3.454
 1645SOL     OW 5266   1.674   2.745   3.116
 1645SOL    HW1 5267   1.647   2.656   3.079
 1645SOL    HW2 5268   1.675   2.813   3.043
 1646SOL     OW 5269   1.225   2.187   2.311
 1646SOL    HW1 5270   1.290   2.113   2.300
 1646SOL    HW2 5271   1.245   2.237   2.395
 1647SOL     OW 5272   0.594   2.607   2.514
 1647SOL    HW1 5273   0.644   2.692   2.495
 1647SOL    HW2 5274   0.506   2.609   2.466
 1648SOL     OW 5275   1.777   2.204   3.504
 1648SOL    HW1 5276   1.760   2.235   3.410
 1648SOL    HW2 5277   1.693   2.167   3.542
 1649SOL     OW 5278   1.730   2.796   3.379
 1649SOL    HW1 5279   1.768   2.887   3.394
 1649SOL    HW2 5280   1.722   2.779   3.280
 1650SOL     OW 5281   0.859   3.236   1.878
 1650SOL    HW1 5282   0.813   3.251   1.966
 1650SOL    HW2 5283   0.903   3.321   1.848
 1651SOL     OW 5284   0.661   3.652   2.815
 1651SOL    HW1 5285   0.615   3.740   2.802
 1651SOL    HW2 5286   0.760   3.664   2.808
 1652SOL     OW 5287   0.859   2.818   2.723
 1652SOL    HW1 5288   0.913   2.749   2.771
 1652SOL    HW2 5289   0.827   2.887   2.789
 1653SOL     OW 5290   1.083   2.846   1.949
 1653SOL    HW1 5291   1.060   2.899   1.867
 1653SOL    HW2 5292   1.164   2.790   1.930
 1654SOL     OW 5293   1.861   3.431   2.713
 1654SOL    HW1 5294   1.790   3.419   2.643
 1654SOL    HW2 5295   1.862   3.352   2.773
 1655SOL     OW 5296   0.221   3.176   3.706
 1655SOL    HW1 5297   0.156   3.103   3.685
 1655SOL    HW2 5298   0.225   3.190   3.804
 1656SOL     OW 5299   0.079   3.102   2.515
 1656SOL    HW1 5300   0.078   3.055   2.603
 1656SOL    HW2 5301   0.161   3.074   2.464
 1657SOL     OW 5302   0.672   3.253   3.486
 1657SOL    HW1 5303   0.594   3.203   3.524
 1657SOL    HW2 5304   0.669   3.348   3.517
 1658SOL     OW 5305   1.824   2.054   3.089
 1658SOL    HW1 5306   1.820   1.964   3.133
 1658SOL    HW2 5307   1.827   2.043   2.990
 1659SOL     OW 5308   0.428   2.286   2.382
 1659SOL    HW1 5309   0.458   2.214   2.320
 1659SOL    HW2 5310   0.389   2.246   2.465
 1660SOL     OW 5311   1.705   3.349   2.966
 1660SOL    HW1 5312   1.612   3.324   2.939
 1660SOL    HW2 5313   1.731   3.299   3.048
 1661SOL     OW 5314   0.317   2.409   3.142
 1661SOL    HW1 5315   0.355   2.350   3.214
 1661SOL    HW2 5316   0.357   2.383   3.054
 1662SOL     OW 5317   0.812   3.448   2.549
 1662SOL    HW1 5318   0.844   3.458   2.455
 1662SOL    HW2 5319   0.733   3.386   2.551
 1663SOL     OW 5320   1.424   2.076   2.974
 1663SOL    HW1 5321   1.476   2.011   3.029
 1663SOL    HW2 5322   1.375   2.139   3.035
 1664SOL     OW 5323   1.001   1.896   3.016
 1664SOL    HW1 5324   0.938   1.824   2.985
 1664SOL    HW2 5325   1.094   1.860   3.016
 1665SOL     OW 5326   0.770   3.192   2.163
 1665SOL    HW1 5327   0.724   3.105   2.180
 1665SOL    HW2 5328   0.861   3.189   2.204
 1666SOL     OW 5329   0.618   3.429   3.146
 1666SOL    HW1 5330   0.613   3.511   3.203
 1666SOL    HW2 5331   0.707   3.426   3.101
 1667SOL     OW 5332   1.352   1.914   2.030
 1667SOL    HW1 5333   1.387   1.873   1.946
 1667SOL    HW2 5334   1.262   1.876   2.050
 1668SOL     OW 5335   1.300   2.315   2.553
 1668SOL    HW1 5336   1.241   2.395   2.557
 1668SOL    HW2 5337   1.315   2.280   2.646
 1669SOL     OW 5338   1.593   2.083   2.744
 1669SOL    HW1 5339   1.509   2.082   2.798
 1669SOL    HW2 5340   1.595   2.166   2.688
 1670SOL     OW 5341   0.039   2.939   2.162
 1670SOL    HW1 5342   0.138   2.928   2.153
 1670SOL    HW2 5343  -0.001   2.853   2.194
 1671SOL     OW 5344   0.875   3.508   2.199
 1671SOL    HW1 5345   0.798   3.473   2.145
 1671SOL    HW2 5346   0.843   3.579   2.261
 1672SOL     OW 5347   0.230   2.490   3.837
 1672SOL    HW1 5348   0.137   2.488   3.874
 1672SOL    HW2 5349   0.231   2.451   3.745
 1673SOL     OW 5350   0.225   2.137   4.720
 1673SOL    HW1 5351   0.260   2.120   4.812
 1673SOL    HW2 5352   0.137   2.092   4.708
 1674SOL     OW 5353   0.019   2.230   4.371
 1674SOL    HW1 5354  -0.063   2.273   4.410
 1674SOL    HW2 5355  -0.009   2.157   4.308
 1675SOL     OW 5356   0.569   3.137   4.889
 1675SOL    HW1 5357   0.476   3.130   4.852
 1675SOL    HW2 5358   0.580   3.226   4.933
 1676SOL     OW 5359   1.555   3.373   4.427
 1676SOL    HW1 5360   1.498   3.357   4.508
 1676SOL    HW2 5361   1.496   3.383   4.347
 1677SOL     OW 5362   1.135   2.565   4.441
 1677SOL    HW1 5363   1.192   2.643   4.416
 1677SOL    HW2 5364   1.075   2.591   4.517
 1678SOL     OW 5365   1.755   2.469   3.955
 1678SOL    HW1 5366   1.743   2.456   3.856
 1678SOL    HW2 5367   1.725   2.388   4.004
 1679SOL     OW 5368   0.768   3.006   4.747
 1679SOL    HW1 5369   0.690   3.023   4.807
 1679SOL    HW2 5370   0.802   3.093   4.711
 1680SOL     OW 5371   0.850   2.660   5.547
 1680SOL    HW1 5372   0.846   2.736   5.612
 1680SOL    HW2 5373   0.872   2.696   5.456
 1681SOL     OW 5374   0.685   2.874   4.389
 1681SOL    HW1 5375   0.754   2.858   4.459
 1681SOL    HW2 5376   0.612   2.931   4.427
 1682SOL     OW 5377   0.686   3.023   5.527
 1682SOL    HW1 5378   0.746   3.102   5.541
 1682SOL    HW2 5379   0.600   3.054   5.486
 1683SOL     OW 5380   0.335   3.297   4.785
 1683SOL    HW1 5381   0.257   3.266   4.732
 1683SOL    HW2 5382   0.393   3.355   4.728
 1684SOL     OW 5383   1.460   3.367   5.063
 1684SOL    HW1 5384   1.484   3.461   5.089
 1684SOL    HW2 5385   1.444   3.313   5.145
 1685SOL     OW 5386   0.438   2.254   5.223
 1685SOL    HW1 5387   0.520   2.198   5.232
 1685SOL    HW2 5388   0.357   2.196   5.227
 1686SOL     OW 5389   1.603   2.309   4.461
 1686SOL    HW1 5390   1.529   2.355   4.411
 1686SOL    HW2 5391   1.654   2.377   4.514
 1687SOL     OW 5392   0.231   3.575   4.207
 1687SOL    HW1 5393   0.265   3.652   4.261
 1687SOL    HW2 5394   0.275   3.575   4.117
 1688SOL     OW 5395   1.127   3.203   5.414
 1688SOL    HW1 5396   1.174   3.203   5.502
 1688SOL    HW2 5397   1.079   3.116   5.403
 1689SOL     OW 5398   0.230   3.296   4.262
 1689SOL    HW1 5399   0.204   3.392   4.262
 1689SOL    HW2 5400   0.159   3.242   4.307
 1690SOL     OW 5401   0.240   2.953   4.610
 1690SOL    HW1 5402   0.254   2.869   4.662
 1690SOL    HW2 5403   0.185   3.017   4.665
 1691SOL     OW 5404   0.620   3.648   5.163
 1691SOL    HW1 5405   0.528   3.631   5.198
 1691SOL    HW2 5406   0.648   3.740   5.189
 1692SOL     OW 5407   0.606   2.826   3.847
 1692SOL    HW1 5408   0.613   2.910   3.793
 1692SOL    HW2 5409   0.652   2.839   3.935
 1693SOL     OW 5410   1.594   1.976   5.204
 1693SOL    HW1 5411   1.576   2.043   5.132
 1693SOL    HW2 5412   1.591   2.022   5.293
 1694SOL     OW 5413   0.122   2.505   4.287
 1694SOL    HW1 5414   0.077   2.417   4.304
 1694SOL    HW2 5415   0.121   2.559   4.371
 1695SOL     OW 5416   1.842   3.629   4.083
 1695SOL    HW1 5417   1.896   3.600   4.163
 1695SOL    HW2 5418   1.872   3.719   4.054
 1696SOL     OW 5419   0.027   3.458   3.841
 1696SOL    HW1 5420   0.008   3.362   3.862
 1696SOL    HW2 5421  -0.006   3.516   3.916
 1697SOL     OW 5422   1.689   2.784   4.336
 1697SOL    HW1 5423   1.784   2.755   4.344
 1697SOL    HW2 5424   1.681   2.849   4.261
 1698SOL     OW 5425   1.641   2.970   4.156
 1698SOL    HW1 5426   1.727   2.972   4.104
 1698SOL    HW2 5427   1.655   3.017   4.244
 1699SOL     OW 5428   0.113   2.599   5.321
 1699SOL    HW1 5429   0.201   2.586   5.366
 1699SOL    HW2 5430   0.100   2.696   5.299
 1700SOL     OW 5431   0.613   3.227   4.450
 1700SOL    HW1 5432   0.564   3.140   4.459
 1700SOL    HW2 5433   0.590   3.270   4.363
 1701SOL     OW 5434   1.293   3.090   5.147
 1701SOL    HW1 5435   1.330   3.017   5.089
 1701SOL    HW2 5436   1.345   3.095   5.232
 1702SOL     OW 5437   0.809   1.866   4.226
 1702SOL    HW1 5438   0.849   1.957   4.217
 1702SOL    HW2 5439   0.709   1.874   4.232
 1703SOL     OW 5440   0.197   2.838   4.988
 1703SOL    HW1 5441   0.286   2.793   4.974
 1703SOL    HW2 5442   0.124   2.773   4.969
 1704SOL     OW 5443   1.525   2.861   3.914
 1704SOL    HW1 5444   1.462   2.785   3.927
 1704SOL    HW2 5445   1.573   2.879   4.000
 1705SOL     OW 5446   1.187   3.654   5.340
 1705SOL    HW1 5447   1.211   3.714   5.264
 1705SOL    HW2 5448   1.194   3.559   5.310
 1706SOL     OW 5449   0.317   2.113   5.525
 1706SOL    HW1 5450   0.388   2.184   5.531
 1706SOL    HW2 5451   0.229   2.152   5.553
 1707SOL     OW 5452   1.466   3.279   4.677
 1707SOL    HW1 5453   1.407   3.285   4.757
 1707SOL    HW2 5454   1.451   3.191   4.631
 1708SOL     OW 5455   1.667   3.576   4.296
 1708SOL    HW1 5456   1.626   3.553   4.208
 1708SOL    HW2 5457   1.649   3.502   4.361
 1709SOL     OW 5458   0.598   2.591   3.994
 1709SOL    HW1 5459   0.622   2.660   3.926
 1709SOL    HW2 5460   0.520   2.624   4.048
 1710SOL     OW 5461   1.281   2.207   4.668
 1710SOL    HW1 5462   1.195   2.157   4.655
 1710SOL    HW2 5463   1.343   2.153   4.724
 1711SOL     OW 5464   1.576   3.524   4.031
 1711SOL    HW1 5465   1.665   3.570   4.034
 1711SOL    HW2 5466   1.555   3.500   3.936
 1712SOL     OW 5467   0.807   2.467   5.189
 1712SOL    HW1 5468   0.760   2.464   5.278
 1712SOL    HW2 5469   0.756   2.412   5.123
 1713SOL     OW 5470   1.394   2.331   5.398
 1713SOL    HW1 5471   1.374   2.374   5.486
 1713SOL    HW2 5472   1.472   2.269   5.407
 1714SOL     OW 5473   0.973   2.752   5.296
 1714SOL    HW1 5474   1.019   2.668   5.267
 1714SOL    HW2 5475   0.917   2.786   5.221
 1715SOL     OW 5476   0.991   2.272   4.966
 1715SOL    HW1 5477   0.914   2.306   5.020
 1715SOL    HW2 5478   0.957   2.221   4.887
 1716SOL     OW 5479   1.041   2.563   4.153
 1716SOL    HW1 5480   1.067   2.559   4.249
 1716SOL    HW2 5481   0.956   2.512   4.139
 1717SOL     OW 5482   0.076   2.673   4.513
 1717SOL    HW1 5483   0.175   2.661   4.522
 1717SOL    HW2 5484   0.052   2.768   4.534
 1718SOL     OW 5485   0.130   3.683   5.295
 1718SOL    HW1 5486   0.120   3.668   5.394
 1718SOL    HW2 5487   0.044   3.719   5.259
 1719SOL     OW 5488   0.865   2.210   3.919
 1719SOL    HW1 5489   0.924   2.273   3.870
 1719SOL    HW2 5490   0.884   2.116   3.890
 1720SOL     OW 5491   1.362   3.006   4.269
 1720SOL    HW1 5492   1.445   2.977   4.221
 1720SOL    HW2 5493   1.313   3.073   4.213
 1721SOL     OW 5494   0.550   2.058   4.609
 1721SOL    HW1 5495   0.545   2.053   4.709
 1721SOL    HW2 5496   0.552   2.154   4.580
 1722SOL     OW 5497   1.008   3.318   4.201
 1722SOL    HW1 5498   0.962   3.390   4.149
 1722SOL    HW2 5499   1.004   3.338   4.299
 1723SOL     OW 5500   0.351   3.663   4.577
 1723SOL    HW1 5501   0.401   3.577   4.583
 1723SOL    HW2 5502   0.416   3.740   4.574
 1724SOL     OW 5503   1.795   2.928   4.597
 1724SOL    HW1 5504   1.733   2.913   4.521
 1724SOL    HW2 5505   1.743   2.939   4.682
 1725SOL     OW 5506   1.227   3.412   5.230
 1725SOL    HW1 5507   1.233   3.335   5.294
 1725SOL    HW2 5508   1.175   3.386   5.150
 1726SOL     OW 5509   0.321   2.805   3.966
 1726SOL    HW1 5510   0.403   2.844   3.924
 1726SOL    HW2 5511   0.294   2.723   3.917
 1727SOL     OW 5512   1.458   2.597   4.452
 1727SOL    HW1 5513   1.453   2.532   4.527
 1727SOL    HW2 5514   1.538   2.656   4.465
 1728SOL     OW 5515   0.461   3.128   5.451
 1728SOL    HW1 5516   0.411   3.129   5.365
 1728SOL    HW2 5517   0.398   3.110   5.527
 1729SOL     OW 5518   1.111   3.638   3.961
 1729SOL    HW1 5519   1.051   3.576   4.011
 1729SOL    HW2 5520   1.142   3.594   3.876
 1730SOL     OW 5521   0.202   2.147   5.222
 1730SOL    HW1 5522   0.122   2.207   5.209
 1730SOL    HW2 5523   0.192   2.098   5.308
 1731SOL     OW 5524   1.632   3.239   3.805
 1731SOL    HW1 5525   1.600   3.333   3.795
 1731SOL    HW2 5526   1.556   3.176   3.793
 1732SOL     OW 5527   0.464   3.605   4.047
 1732SOL    HW1 5528   0.497   3.644   4.133
 1732SOL    HW2 5529   0.540   3.598   3.982
 1733SOL     OW 5530   1.400   1.969   4.150
 1733SOL    HW1 5531   1.376   1.932   4.060
 1733SOL    HW2 5532   1.499   1.985   4.154
 1734SOL     OW 5533   0.249   3.647   4.965
 1734SOL    HW1 5534   0.306   3.582   5.015
 1734SOL    HW2 5535   0.233   3.614   4.872
 1735SOL     OW 5536   0.940   3.560   4.628
 1735SOL    HW1 5537   1.020   3.503   4.649
 1735SOL    HW2 5538   0.891   3.520   4.551
 1736SOL     OW 5539   0.382   2.562   4.204
 1736SOL    HW1 5540   0.427   2.472   4.201
 1736SOL    HW2 5541   0.288   2.551   4.237
 1737SOL     OW 5542   0.614   1.984   3.841
 1737SOL    HW1 5543   0.712   1.962   3.848
 1737SOL    HW2 5544   0.583   1.967   3.748
 1738SOL     OW 5545   0.781   2.126   5.473
 1738SOL    HW1 5546   0.848   2.065   5.516
 1738SOL    HW2 5547   0.708   2.145   5.538
 1739SOL     OW 5548   0.888   3.376   4.919
 1739SOL    HW1 5549   0.865   3.351   4.825
 1739SOL    HW2 5550   0.949   3.307   4.958
 1740SOL     OW 5551   1.351   2.452   5.157
 1740SOL    HW1 5552   1.379   2.409   5.242
 1740SOL    HW2 5553   1.376   2.548   5.158
 1741SOL     OW 5554   0.803   3.264   4.648
 1741SOL    HW1 5555   0.893   3.278   4.606
 1741SOL    HW2 5556   0.732   3.266   4.577
 1742SOL     OW 5557   0.922   2.365   4.623
 1742SOL    HW1 5558   0.897   2.356   4.527
 1742SOL    HW2 5559   0.970   2.283   4.654
 1743SOL     OW 5560   0.539   1.926   4.236
 1743SOL    HW1 5561   0.458   1.927   4.294
 1743SOL    HW2 5562   0.542   2.009   4.181
 1744SOL     OW 5563   1.434   3.050   3.765
 1744SOL    HW1 5564   1.466   2.974   3.822
 1744SOL    HW2 5565   1.342   3.077   3.795
 1745SOL     OW 5566   0.297   1.897   3.895
 1745SOL    HW1 5567   0.346   1.981   3.874
 1745SOL    HW2 5568   0.359   1.832   3.940
 1746SOL     OW 5569   0.935   2.098   4.204
 1746SOL    HW1 5570   0.887   2.139   4.126
 1746SOL    HW2 5571   1.034   2.096   4.185
 1747SOL     OW 5572   1.076   2.545   5.188
 1747SOL    HW1 5573   0.996   2.484   5.191
 1747SOL    HW2 5574   1.157   2.492   5.164
 1748SOL     OW 5575   1.227   3.432   4.517
 1748SOL    HW1 5576   1.248   3.506   4.452
 1748SOL    HW2 5577   1.295   3.432   4.590
 1749SOL     OW 5578   0.459   3.014   4.465
 1749SOL    HW1 5579   0.388   2.987   4.530
 1749SOL    HW2 5580   0.433   2.986   4.372
 1750SOL     OW 5581   1.271   3.659   4.315
 1750SOL    HW1 5582   1.315   3.723   4.251
 1750SOL    HW2 5583   1.221   3.711   4.385
 1751SOL     OW 5584   1.032   2.411   3.740
 1751SOL    HW1 5585   0.991   2.493   3.701
 1751SOL    HW2 5586   1.096   2.437   3.813
 1752SOL     OW 5587   0.078   2.418   5.110
 1752SOL    HW1 5588   0.170   2.417   5.069
 1752SOL    HW2 5589   0.072   2.492   5.177
 1753SOL     OW 5590   0.561   2.084   4.871
 1753SOL    HW1 5591   0.599   2.000   4.908
 1753SOL    HW2 5592   0.473   2.103   4.915
 1754SOL     OW 5593   0.866   2.316   4.366
 1754SOL    HW1 5594   0.834   2.388   4.304
 1754SOL    HW2 5595   0.890   2.235   4.313
 1755SOL     OW 5596   1.017   1.901   4.477
 1755SOL    HW1 5597   0.945   1.906   4.408
 1755SOL    HW2 5598   0.993   1.832   4.546
 1756SOL     OW 5599   1.429   3.035   4.591
 1756SOL    HW1 5600   1.374   2.951   4.584
 1756SOL    HW2 5601   1.455   3.064   4.499
 1757SOL     OW 5602   1.466   2.452   4.716
 1757SOL    HW1 5603   1.436   2.357   4.723
 1757SOL    HW2 5604   1.539   2.468   4.782
 1758SOL     OW 5605   1.857   2.695   4.101
 1758SOL    HW1 5606   1.899   2.631   4.165
 1758SOL    HW2 5607   1.819   2.644   4.023
 1759SOL     OW 5608   0.488   3.247   3.898
 1759SOL    HW1 5609   0.401   3.232   3.945
 1759SOL    HW2 5610   0.471   3.273   3.803
 1760SOL     OW 5611   1.664   3.142   4.381
 1760SOL    HW1 5612   1.763   3.150   4.395
 1760SOL    HW2 5613   1.619   3.226   4.412
 1761SOL     OW 5614   1.390   2.437   3.802
 1761SOL    HW1 5615   1.336   2.416   3.883
 1761SOL    HW2 5616   1.481   2.396   3.811
 1762SOL     OW 5617   0.527   2.118   4.052
 1762SOL    HW1 5618   0.554   2.059   3.977
 1762SOL    HW2 5619   0.527   2.213   4.021
 1763SOL     OW 5620   1.754   3.085   5.312
 1763SOL    HW1 5621   1.845   3.046   5.299
 1763SOL    HW2 5622   1.762   3.181   5.336
 1764SOL     OW 5623   1.064   3.209   5.064
 1764SOL    HW1 5624   0.984   3.186   5.119
 1764SOL    HW2 5625   1.147   3.183   5.113
 1765SOL     OW 5626   1.592   3.491   5.349
 1765SOL    HW1 5627   1.619   3.525   5.259
 1765SOL    HW2 5628   1.671   3.453   5.395
 1766SOL     OW 5629   1.111   3.057   4.824
 1766SOL    HW1 5630   1.071   3.101   4.905
 1766SOL    HW2 5631   1.070   3.094   4.741
 1767SOL     OW 5632   1.638   2.961   4.803
 1767SOL    HW1 5633   1.643   3.042   4.862
 1767SOL    HW2 5634   1.552   2.963   4.752
 1768SOL     OW 5635   0.915   1.951   5.126
 1768SOL    HW1 5636   0.940   1.931   5.031
 1768SOL    HW2 5637   0.987   2.007   5.168
 1769SOL     OW 5638   0.980   2.978   5.443
 1769SOL    HW1 5639   0.881   2.984   5.453
 1769SOL    HW2 5640   1.003   2.898   5.387
 1770SOL     OW 5641   0.705   2.912   4.092
 1770SOL    HW1 5642   0.691   2.919   4.191
 1770SOL    HW2 5643   0.789   2.861   4.074
 1771SOL     OW 5644   0.410   2.675   4.975
 1771SOL    HW1 5645   0.496   2.687   5.025
 1771SOL    HW2 5646   0.368   2.588   5.002
 1772SOL     OW 5647   1.274   2.248   4.986
 1772SOL    HW1 5648   1.295   2.322   5.050
 1772SOL    HW2 5649   1.185   2.265   4.943
 1773SOL     OW 5650   0.064   3.426   5.055
 1773SOL    HW1 5651   0.018   3.508   5.021
 1773SOL    HW2 5652   0.162   3.445   5.064
 1774SOL     OW 5653   0.367   2.962   4.225
 1774SOL    HW1 5654   0.360   3.045   4.169
 1774SOL    HW2 5655   0.371   2.882   4.165
 1775SOL     OW 5656   0.566   2.399   4.589
 1775SOL    HW1 5657   0.578   2.465   4.515
 1775SOL    HW2 5658   0.612   2.433   4.672
 1776SOL     OW 5659   1.252   3.210   4.112
 1776SOL    HW1 5660   1.302   3.287   4.152
 1776SOL    HW2 5661   1.157   3.212   4.144
 1777SOL     OW 5662   1.272   3.307   4.866
 1777SOL    HW1 5663   1.319   3.320   4.953
 1777SOL    HW2 5664   1.206   3.233   4.875
 1778SOL     OW 5665   1.582   2.501   4.196
 1778SOL    HW1 5666   1.551   2.562   4.269
 1778SOL    HW2 5667   1.632   2.553   4.127
 1779SOL     OW 5668   0.354   3.372   5.053
 1779SOL    HW1 5669   0.333   3.328   4.966
 1779SOL    HW2 5670   0.451   3.398   5.056
 1780SOL     OW 5671   0.402   2.613   5.322
 1780SOL    HW1 5672   0.470   2.668   5.275
 1780SOL    HW2 5673   0.442   2.525   5.349
 1781SOL     OW 5674   1.587   2.641   5.394
 1781SOL    HW1 5675   1.495   2.679   5.389
 1781SOL    HW2 5676   1.647   2.688   5.329
 1782SOL     OW 5677   1.013   1.967   5.494
 1782SOL    HW1 5678   1.019   2.052   5.442
 1782SOL    HW2 5679   1.045   1.891   5.437
 1783SOL     OW 5680   0.504   1.912   5.464
 1783SOL    HW1 5681   0.462   1.855   5.394
 1783SOL    HW2 5682   0.438   1.981   5.496
 1784SOL     OW 5683   0.573   2.732   4.753
 1784SOL    HW1 5684   0.617   2.821   4.744
 1784SOL    HW2 5685   0.510   2.732   4.830
 1785SOL     OW 5686   1.360   2.724   4.769
 1785SOL    HW1 5687   1.285   2.724   4.703
 1785SOL    HW2 5688   1.397   2.632   4.778
 1786SOL     OW 5689   1.209   2.387   3.999
 1786SOL    HW1 5690   1.222   2.303   4.053
 1786SOL    HW2 5691   1.180   2.461   4.059
 1787SOL     OW 5692   0.307   2.075   4.955
 1787SOL    HW1 5693   0.284   2.112   5.045
 1787SOL    HW2 5694   0.277   1.980   4.949
 1788SOL     OW 5695   0.037   3.172   5.006
 1788SOL    HW1 5696   0.090   3.123   5.074
 1788SOL    HW2 5697   0.059   3.270   5.011
 1789SOL     OW 5698   0.732   2.496   4.788
 1789SOL    HW1 5699   0.791   2.470   4.712
 1789SOL    HW2 5700   0.704   2.592   4.777
 1790SOL     OW 5701   1.728   2.797   5.578
 1790SOL    HW1 5702   1.682   2.790   5.489
 1790SOL    HW2 5703   1.666   2.841   5.644
 1791SOL     OW 5704   0.307   1.925   4.342
 1791SOL    HW1 5705   0.296   2.019   4.375
 1791SOL    HW2 5706   0.302   1.862   4.419
 1792SOL     OW 5707   1.622   2.229   4.098
 1792SOL    HW1 5708   1.624   2.153   4.162
 1792SOL    HW2 5709   1.574   2.306   4.138
 1793SOL     OW 5710   1.023   2.628   4.690
 1793SOL    HW1 5711   1.038   2.649   4.786
 1793SOL    HW2 5712   0.993   2.533   4.681
 1794SOL     OW 5713   0.980   3.435   5.424
 1794SOL    HW1 5714   0.960   3.479   5.336
 1794SOL    HW2 5715   1.019   3.344   5.408
 1795SOL     OW 5716   1.859   3.380   5.329
 1795SOL    HW1 5717   1.873   3.407   5.234
 1795SOL    HW2 5718   1.942   3.402   5.382
 1796SOL     OW 5719   0.350   2.760   5.528
 1796SOL    HW1 5720   0.426   2.804   5.576
 1796SOL    HW2 5721   0.385   2.713   5.446
 1797SOL     OW 5722   1.540   2.136   3.849
 1797SOL    HW1 5723   1.479   2.061   3.872
 1797SOL    HW2 5724   1.562   2.188   3.932
 1798SOL     OW 5725   1.303   2.700   3.766
 1798SOL    HW1 5726   1.337   2.607   3.781
 1798SOL    HW2 5727   1.321   2.727   3.671
 1799SOL     OW 5728   1.068   3.195   4.573
 1799SOL    HW1 5729   1.075   3.111   4.518
 1799SOL    HW2 5730   1.130   3.264   4.537
 1800SOL     OW 5731   0.319   2.672   4.673
 1800SOL    HW1 5732   0.412   2.708   4.678
 1800SOL    HW2 5733   0.313   2.587   4.725
 1801SOL     OW 5734   0.339   2.371   4.730
 1801SOL    HW1 5735   0.287   2.288   4.713
 1801SOL    HW2 5736   0.416   2.376   4.666
 1802SOL     OW 5737   1.138   2.242   5.402
 1802SOL    HW1 5738   1.093   2.305   5.466
 1802SOL    HW2 5739   1.231   2.273   5.385
 1803SOL     OW 5740   1.160   2.069   5.201
 1803SOL    HW1 5741   1.160   2.133   5.278
 1803SOL    HW2 5742   1.188   2.117   5.118
 1804SOL     OW 5743   0.008   3.188   3.924
 1804SOL    HW1 5744  -0.085   3.209   3.893
 1804SOL    HW2 5745   0.018   3.089   3.937
 1805SOL     OW 5746   0.088   3.663   4.651
 1805SOL    HW1 5747   0.046   3.577   4.624
 1805SOL    HW2 5748   0.182   3.666   4.617
 1806SOL     OW 5749   0.504   3.430   4.634
 1806SOL    HW1 5750   0.570   3.504   4.643
 1806SOL    HW2 5751   0.548   3.351   4.592
 1807SOL     OW 5752   1.002   2.658   4.962
 1807SOL    HW1 5753   1.043   2.626   5.048
 1807SOL    HW2 5754   0.906   2.631   4.959
 1808SOL     OW 5755   0.040   2.406   4.838
 1808SOL    HW1 5756   0.125   2.373   4.797
 1808SOL    HW2 5757   0.053   2.421   4.936
 1809SOL     OW 5758   0.189   2.382   5.446
 1809SOL    HW1 5759   0.248   2.342   5.376
 1809SOL    HW2 5760   0.131   2.453   5.405
 1810SOL     OW 5761   1.369   2.812   5.384
 1810SOL    HW1 5762   1.408   2.901   5.404
 1810SOL    HW2 5763   1.379   2.792   5.287
 1811SOL     OW 5764   0.815   2.434   4.049
 1811SOL    HW1 5765   0.822   2.345   4.003
 1811SOL    HW2 5766   0.721   2.468   4.041
 1812SOL     OW 5767   1.657   2.466   4.930
 1812SOL    HW1 5768   1.619   2.397   4.992
 1812SOL    HW2 5769   1.739   2.430   4.886
 1813SOL     OW 5770   0.252   3.426   5.468
 1813SOL    HW1 5771   0.222   3.483   5.544
 1813SOL    HW2 5772   0.245   3.329   5.494
 1814SOL     OW 5773   0.671   2.326   4.993
 1814SOL    HW1 5774   0.637   2.237   4.963
 1814SOL    HW2 5775   0.697   2.380   4.913
 1815SOL     OW 5776   0.930   3.540   5.189
 1815SOL    HW1 5777   0.906   3.522   5.094
 1815SOL    HW2 5778   0.960   3.634   5.199
 1816SOL     OW 5779   0.473   2.362   3.915
 1816SOL    HW1 5780   0.534   2.442   3.919
 1816SOL    HW2 5781   0.378   2.393   3.922
 1817SOL     OW 5782   0.159   2.999   5.190
 1817SOL    HW1 5783   0.181   2.938   5.266
 1817SOL    HW2 5784   0.169   2.950   5.104
 1818SOL     OW 5785   1.347   2.921   4.958
 1818SOL    HW1 5786   1.371   2.858   4.884
 1818SOL    HW2 5787   1.257   2.961   4.940
 1819SOL     OW 5788   1.302   2.717   4.033
 1819SOL    HW1 5789   1.216   2.686   4.075
 1819SOL    HW2 5790   1.298   2.703   3.934
 1820SOL     OW 5791   1.759   3.609   4.878
 1820SOL    HW1 5792   1.820   3.639   4.805
 1820SOL    HW2 5793   1.721   3.520   4.856
 1821SOL     OW 5794   1.252   3.593   4.852
 1821SOL    HW1 5795   1.336   3.598   4.798
 1821SOL    HW2 5796   1.229   3.497   4.870
 1822SOL     OW 5797   0.083   3.120   4.746
 1822SOL    HW1 5798   0.078   3.119   4.846
 1822SOL    HW2 5799   0.000   3.079   4.708
 1823SOL     OW 5800   0.688   3.524   5.440
 1823SOL    HW1 5801   0.632   3.605   5.449
 1823SOL    HW2 5802   0.740   3.528   5.354
 1824SOL     OW 5803   1.726   1.997   4.247
 1824SOL    HW1 5804   1.799   1.980   4.180
 1824SOL    HW2 5805   1.695   1.910   4.285
 1825SOL     OW 5806   1.388   3.435   4.201
 1825SOL    HW1 5807   1.455   3.447   4.127
 1825SOL    HW2 5808   1.348   3.524   4.224
 1826SOL     OW 5809   0.130   3.656   5.575
 1826SOL    HW1 5810   0.089   3.582   5.628
 1826SOL    HW2 5811   0.194   3.707   5.633
 1827SOL     OW 5812   1.280   2.789   4.396
 1827SOL    HW1 5813   1.340   2.708   4.398
 1827SOL    HW2 5814   1.320   2.858   4.336
 1828SOL     OW 5815   0.830   3.135   5.146
 1828SOL    HW1 5816   0.825   3.168   5.241
 1828SOL    HW2 5817   0.744   3.154   5.100
 1829SOL     OW 5818   0.672   3.478   3.878
 1829SOL    HW1 5819   0.681   3.488   3.779
 1829SOL    HW2 5820   0.632   3.389   3.899
 1830SOL     OW 5821   1.650   3.582   5.118
 1830SOL    HW1 5822   1.703   3.592   5.034
 1830SOL    HW2 5823   1.623   3.672   5.152
 1831SOL     OW 5824   1.841   2.037   4.687
 1831SOL    HW1 5825   1.880   1.952   4.651
 1831SOL    HW2 5826   1.743   2.039   4.668
 1832SOL     OW 5827   0.263   2.188   4.444
 1832SOL    HW1 5828   0.184   2.239   4.410
 1832SOL    HW2 5829   0.254   2.173   4.542
 1833SOL     OW 5830   1.194   3.474   3.755
 1833SOL    HW1 5831   1.200   3.381   3.792
 1833SOL    HW2 5832   1.135   3.474   3.675
 1834SOL     OW 5833   0.822   2.864   5.096
 1834SOL    HW1 5834   0.862   2.863   5.004
 1834SOL    HW2 5835   0.832   2.956   5.136
 1835SOL     OW 5836   0.916   2.772   4.015
 1835SOL    HW1 5837   0.979   2.810   3.947
 1835SOL    HW2 5838   0.956   2.689   4.054
 1836SOL     OW 5839   1.504   3.469   3.768
 1836SOL    HW1 5840   1.412   3.506   3.775
 1836SOL    HW2 5841   1.542   3.489   3.678
 1837SOL     OW 5842   0.372   3.150   5.214
 1837SOL    HW1 5843   0.359   3.243   5.180
 1837SOL    HW2 5844   0.288   3.098   5.201
 1838SOL     OW 5845   1.614   3.154   5.013
 1838SOL    HW1 5846   1.674   3.157   5.093
 1838SOL    HW2 5847   1.539   3.218   5.026
 1839SOL     OW 5848   1.039   2.960   4.420
 1839SOL    HW1 5849   0.969   2.913   4.474
 1839SOL    HW2 5850   1.098   2.892   4.377
 1840SOL     OW 5851   1.014   2.098   4.695
 1840SOL    HW1 5852   1.006   2.062   4.602
 1840SOL    HW2 5853   1.012   2.022   4.760
 1841SOL     OW 5854   0.590   3.349   4.215
 1841SOL    HW1 5855   0.632   3.291   4.145
 1841SOL    HW2 5856   0.546   3.428   4.171
 1842SOL     OW 5857   0.255   3.210   4.014
 1842SOL    HW1 5858   0.159   3.211   3.987
 1842SOL    HW2 5859   0.267   3.263   4.098
 1843SOL     OW 5860   0.105   2.875   5.450
 1843SOL    HW1 5861   0.028   2.842   5.504
 1843SOL    HW2 5862   0.190   2.845   5.492
 1844SOL     OW 5863   0.672   2.065   5.213
 1844SOL    HW1 5864   0.762   2.049   5.173
 1844SOL    HW2 5865   0.680   2.070   5.312
 1845SOL     OW 5866   0.075   2.207   3.757
 1845SOL    HW1 5867  -0.017   2.179   3.728
 1845SOL    HW2 5868   0.106   2.284   3.701
 1846SOL     OW 5869   1.440   2.718   5.122
 1846SOL    HW1 5870   1.383   2.770   5.059
 1846SOL    HW2 5871   1.536   2.730   5.098
 1847SOL     OW 5872   0.072   2.028   4.042
 1847SOL    HW1 5873   0.055   2.111   3.988
 1847SOL    HW2 5874   0.162   1.991   4.020
 1848SOL     OW 5875   1.183   3.197   3.843
 1848SOL    HW1 5876   1.084   3.186   3.845
 1848SOL    HW2 5877   1.217   3.212   3.936
 1849SOL     OW 5878   0.613   2.704   5.155
 1849SOL    HW1 5879   0.669   2.785   5.138
 1849SOL    HW2 5880   0.672   2.624   5.158
 1850SOL     OW 5881   1.493   3.629   4.683
 1850SOL    HW1 5882   1.526   3.693   4.614
 1850SOL    HW2 5883   1.559   3.623   4.758
 1851SOL     OW 5884   0.716   2.427   5.432
 1851SOL    HW1 5885   0.735   2.492   5.506
 1851SOL    HW2 5886   0.776   2.347   5.441
 1852SOL     OW 5887   1.450   3.082   5.357
 1852SOL    HW1 5888   1.441   3.072   5.456
 1852SOL    HW2 5889   1.546   3.075   5.331
 1853SOL     OW 5890   0.390   3.603   5.284
 1853SOL    HW1 5891   0.299   3.644   5.282
 1853SOL    HW2 5892   0.383   3.509   5.316
 1854SOL     OW 5893   1.674   2.745   4.978
 1854SOL    HW1 5894   1.647   2.656   4.941
 1854SOL    HW2 5895   1.675   2.813   4.905
 1855SOL     OW 5896   1.225   2.187   4.173
 1855SOL    HW1 5897   1.290   2.113   4.162
 1855SOL    HW2 5898   1.245   2.237   4.257
 1856SOL     OW 5899   0.594   2.607   4.376
 1856SOL    HW1 5900   0.644   2.692   4.357
 1856SOL    HW2 5901   0.506   2.609   4.328
 1857SOL     OW 5902   1.730   2.796   5.241
 1857SOL    HW1 5903   1.768   2.887   5.256
 1857SOL    HW2 5904   1.722   2.779   5.142
 1858SOL     OW 5905   0.859   3.236   3.740
 1858SOL    HW1 5906   0.813   3.251   3.828
 1858SOL    HW2 5907   0.903   3.321   3.710
 1859SOL     OW 5908   0.661   3.652   4.677
 1859SOL    HW1 5909   0.615   3.740   4.664
 1859SOL    HW2 5910   0.760   3.664   4.670
 1860SOL     OW 5911   0.859   2.818   4.585
 1860SOL    HW1 5912   0.913   2.749   4.633
 1860SOL    HW2 5913   0.827   2.887   4.651
 1861SOL     OW 5914   1.083   2.846   3.811
 1861SOL    HW1 5915   1.060   2.899   3.729
 1861SOL    HW2 5916   1.164   2.790   3.792
 1862SOL     OW 5917   1.861   3.431   4.575
 1862SOL    HW1 5918   1.790   3.419   4.505
 1862SOL    HW2 5919   1.862   3.352   4.635
 1863SOL     OW 5920   0.221   3.176   5.568
 1863SOL    HW1 5921   0.156   3.103   5.547
 1863SOL    HW2 5922   0.225   3.190   5.666
 1864SOL     OW 5923   0.079   3.102   4.377
 1864SOL    HW1 5924   0.078   3.055   4.465
 1864SOL    HW2 5925   0.161   3.074   4.326
 1865SOL     OW 5926   0.672   3.253   5.348
 1865SOL    HW1 5927   0.594   3.203   5.386
 1865SOL    HW2 5928   0.669   3.348   5.379
 1866SOL     OW 5929   0.428   2.286   4.244
 1866SOL    HW1 5930   0.458   2.214   4.182
 1866SOL    HW2 5931   0.389   2.246   4.327
 1867SOL     OW 5932   1.705   3.349   4.828
 1867SOL    HW1 5933   1.612   3.324   4.801
 1867SOL    HW2 5934   1.731   3.299   4.910
 1868SOL     OW 5935   0.317   2.409   5.004
 1868SOL    HW1 5936   0.355   2.350   5.076
 1868SOL    HW2 5937   0.357   2.383   4.916
 1869SOL     OW 5938   0.812   3.448   4.411
 1869SOL    HW1 5939   0.844   3.458   4.317
 1869SOL    HW2 5940   0.733   3.386   4.413
 1870SOL     OW 5941   1.424   2.076   4.836
 1870SOL    HW1 5942   1.476   2.011   4.891
 1870SOL    HW2 5943   1.375   2.139   4.897
 1871SOL     OW 5944   1.001   1.896   4.878
 1871SOL    HW1 5945   0.938   1.824   4.847
 1871SOL    HW2 5946   1.094   1.860   4.878
 1872SOL     OW 5947   0.770   3.192   4.025
 1872SOL    HW1 5948   0.724   3.105   4.042
 1872SOL    HW2 5949   0.861   3.189   4.066
 1873SOL     OW 5950   0.618   3.429   5.008
 1873SOL    HW1 5951   0.613   3.511   5.065
 1873SOL    HW2 5952   0.707   3.426   4.963
 1874SOL     OW 5953   1.352   1.914   3.892
 1874SOL    HW1 5954   1.387   1.873   3.808
 1874SOL    HW2 5955   1.262   1.876   3.912
 1875SOL     OW 5956   1.300   2.315   4.415
 1875SOL    HW1 5957   1.241   2.395   4.419
 1875SOL    HW2 5958   1.315   2.280   4.508
 1876SOL     OW 5959   1.593   2.083   4.606
 1876SOL    HW1 5960   1.509   2.082   4.660
 1876SOL    HW2 5961   1.595   2.166   4.550
 1877SOL     OW 5962   0.039   2.939   4.024
 1877SOL    HW1 5963   0.138   2.928   4.015
 1877SOL    HW2 5964  -0.001   2.853   4.056
 1878SOL     OW 5965   0.875   3.508   4.061
 1878SOL    HW1 5966   0.798   3.473   4.007
 1878SOL    HW2 5967   0.843   3.579   4.123
 1879SOL     OW 5968   0.230   2.490   5.699
 1879SOL    HW1 5969   0.137   2.488   5.736
 1879SOL    HW2 5970   0.231   2.451   5.607
 1880SOL     OW 5971   0.225   2.137   6.582
 1880SOL    HW1 5972   0.260   2.120   6.674
 1880SOL    HW2 5973   0.137   2.092   6.570
 1881SOL     OW 5974   0.019   2.230   6.233
 1881SOL    HW1 5975  -0.063   2.273   6.272
 1881SOL    HW2 5976  -0.009   2.157   6.170
 1882SOL     OW 5977   0.569   3.137   6.751
 1882SOL    HW1 5978   0.476   3.130   6.714
 1882SOL    HW2 5979   0.580   3.226   6.795
 1883SOL     OW 5980   1.555   3.373   6.289
 1883SOL    HW1 5981   1.498   3.357   6.370
 1883SOL    HW2 5982   1.496   3.383   6.209
 1884SOL     OW 5983   1.135   2.565   6.303
 1884SOL    HW1 5984   1.192   2.643   6.278
 1884SOL    HW2 5985   1.075   2.591   6.379
 1885SOL     OW 5986   0.768   3.006   6.609
 1885SOL    HW1 5987   0.690   3.023   6.669
 1885SOL    HW2 5988   0.802   3.093   6.573
 1886SOL     OW 5989   0.850   2.660   7.409
 1886SOL    HW1 5990   0.846   2.736   7.474
 1886SOL    HW2 5991   0.872   2.696   7.318
 1887SOL     OW 5992   0.685   2.874   6.251
 1887SOL    HW1 5993   0.754   2.858   6.321
 1887SOL    HW2 5994   0.612   2.931   6.289
 1888SOL     OW 5995   0.686   3.023   7.389
 1888SOL    HW1 5996   0.746   3.102   7.403
 1888SOL    HW2 5997   0.600   3.054   7.348
 1889SOL     OW 5998   0.335   3.297   6.647
 1889SOL    HW1 5999   0.257   3.266   6.594
 1889SOL    HW2 6000   0.393   3.355   6.590
 1890SOL     OW 6001   1.460   3.367   6.925
 1890SOL    HW1 6002   1.484   3.461   6.951
 1890SOL    HW2 6003   1.444   3.313   7.007
 1891SOL     OW 6004   0.438   2.254   7.085
 1891SOL    HW1 6005   0.520   2.198   7.094
 1891SOL    HW2 6006   0.357   2.196   7.089
 1892SOL     OW 6007   1.603   2.309   6.323
 1892SOL    HW1 6008   1.529   2.355   6.273
 1892SOL    HW2 6009   1.654   2.377   6.376
 1893SOL     OW 6010   0.231   3.575   6.069
 1893SOL    HW1 6011   0.265   3.652   6.123
 1893SOL    HW2 6012   0.275   3.575   5.979
 1894SOL     OW 6013   1.127   3.203   7.276
 1894SOL    HW1 6014   1.174   3.203   7.364
 1894SOL    HW2 6015   1.079   3.116   7.265
 1895SOL     OW 6016   0.230   3.296   6.124
 1895SOL    HW1 6017   0.204   3.392   6.124
 1895SOL    HW2 6018   0.159   3.242   6.169
 1896SOL     OW 6019   0.240   2.953   6.472
 1896SOL    HW1 6020   0.254   2.869   6.524
 1896SOL    HW2 6021   0.185   3.017   6.527
 1897SOL     OW 6022   0.620   3.648   7.025
 1897SOL    HW1 6023   0.528   3.631   7.060
 1897SOL    HW2 6024   0.648   3.740   7.051
 1898SOL     OW 6025   0.606   2.826   5.709
 1898SOL    HW1 6026   0.613   2.910   5.655
 1898SOL    HW2 6027   0.652   2.839   5.797
 1899SOL     OW 6028   1.594   1.976   7.066
 1899SOL    HW1 6029   1.576   2.043   6.994
 1899SOL    HW2 6030   1.591   2.022   7.155
 1900SOL     OW 6031   0.122   2.505   6.149
 1900SOL    HW1 6032   0.077   2.417   6.166
 1900SOL    HW2 6033   0.121   2.559   6.233
 1901SOL     OW 6034   1.842   3.629   5.945
 1901SOL    HW1 6035   1.896   3.600   6.025
 1901SOL    HW2 6036   1.872   3.719   5.916
 1902SOL     OW 6037   0.027   3.458   5.703
 1902SOL    HW1 6038   0.008   3.362   5.724
 1902SOL    HW2 6039  -0.006   3.516   5.778
 1903SOL     OW 6040   1.689   2.784   6.198
 1903SOL    HW1 6041   1.784   2.755   6.206
 1903SOL    HW2 6042   1.681   2.849   6.123
 1904SOL     OW 6043   1.641   2.970   6.018
 1904SOL    HW1 6044   1.727   2.972   5.966
 1904SOL    HW2 6045   1.655   3.017   6.106
 1905SOL     OW 6046   0.113   2.599   7.183
 1905SOL    HW1 6047   0.201   2.586   7.228
 1905SOL    HW2 6048   0.100   2.696   7.161
 1906SOL     OW 6049   0.613   3.227   6.312
 1906SOL    HW1 6050   0.564   3.140   6.321
 1906SOL    HW2 6051   0.590   3.270   6.225
 1907SOL     OW 6052   1.293   3.090   7.009
 1907SOL    HW1 6053   1.330   3.017   6.951
 1907SOL    HW2 6054   1.345   3.095   7.094
 1908SOL     OW 6055   0.809   1.866   6.088
 1908SOL    HW1 6056   0.849   1.957   6.079
 1908SOL    HW2 6057   0.709   1.874   6.094
 1909SOL     OW 6058   0.197   2.838   6.850
 1909SOL    HW1 6059   0.286   2.793   6.836
 1909SOL    HW2 6060   0.124   2.773   6.831
 1910SOL     OW 6061   1.525   2.861   5.776
 1910SOL    HW1 6062   1.462   2.785   5.789
 1910SOL    HW2 6063   1.573   2.879   5.862
 1911SOL     OW 6064   1.187   3.654   7.202
 1911SOL    HW1 6065   1.211   3.714   7.126
 1911SOL    HW2 6066   1.194   3.559   7.172
 1912SOL     OW 6067   0.317   2.113   7.387
 1912SOL    HW1 6068   0.388   2.184   7.393
 1912SOL    HW2 6069   0.229   2.152   7.415
 1913SOL     OW 6070   1.466   3.279   6.539
 1913SOL    HW1 6071   1.407   3.285   6.619
 1913SOL    HW2 6072   1.451   3.191   6.493
 1914SOL     OW 6073   1.667   3.576   6.158
 1914SOL    HW1 6074   1.626   3.553   6.070
 1914SOL    HW2 6075   1.649   3.502   6.223
 1915SOL     OW 6076   0.598   2.591   5.856
 1915SOL    HW1 6077   0.622   2.660   5.788
 1915SOL    HW2 6078   0.520   2.624   5.910
 1916SOL     OW 6079   1.281   2.207   6.530
 1916SOL    HW1 6080   1.195   2.157   6.517
 1916SOL    HW2 6081   1.343   2.153   6.586
 1917SOL     OW 6082   1.576   3.524   5.893
 1917SOL    HW1 6083   1.665   3.570   5.896
 1917SOL    HW2 6084   1.555   3.500   5.798
 1918SOL     OW 6085   0.807   2.467   7.051
 1918SOL    HW1 6086   0.760   2.464   7.140
 1918SOL    HW2 6087   0.756   2.412   6.985
 1919SOL     OW 6088   1.394   2.331   7.260
 1919SOL    HW1 6089   1.374   2.374   7.348
 1919SOL    HW2 6090   1.472   2.269   7.269
 1920SOL     OW 6091   0.973   2.752   7.158
 1920SOL    HW1 6092   1.019   2.668   7.129
 1920SOL    HW2 6093   0.917   2.786   7.083
 1921SOL     OW 6094   0.991   2.272   6.828
 1921SOL    HW1 6095   0.914   2.306   6.882
 1921SOL    HW2 6096   0.957   2.221   6.749
 1922SOL     OW 6097   1.041   2.563   6.015
 1922SOL    HW1 6098   1.067   2.559   6.111
 1922SOL    HW2 6099   0.956   2.512   6.001
 1923SOL     OW 6100   0.076   2.673   6.375
 1923SOL    HW1 6101   0.175   2.661   6.384
 1923SOL    HW2 6102   0.052   2.768   6.396
 1924SOL     OW 6103   0.130   3.683   7.157
 1924SOL    HW1 6104   0.120   3.668   7.256
 1924SOL    HW2 6105   0.044   3.719   7.121
 1925SOL     OW 6106   0.865   2.210   5.781
 1925SOL    HW1 6107   0.924   2.273   5.732
 1925SOL    HW2 6108   0.884   2.116   5.752
 1926SOL     OW 6109   1.719   2.447   7.417
 1926SOL    HW1 6110   1.693   2.536   7.381
 1926SOL    HW2 6111   1.717   2.379   7.344
 1927SOL     OW 6112   1.362   3.006   6.131
 1927SOL    HW1 6113   1.445   2.977   6.083
 1927SOL    HW2 6114   1.313   3.073   6.075
 1928SOL     OW 6115   0.550   2.058   6.471
 1928SOL    HW1 6116   0.545   2.053   6.571
 1928SOL    HW2 6117   0.552   2.154   6.442
 1929SOL     OW 6118   1.008   3.318   6.063
 1929SOL    HW1 6119   0.962   3.390   6.011
 1929SOL    HW2 6120   1.004   3.338   6.161
 1930SOL     OW 6121   0.351   3.663   6.439
 1930SOL    HW1 6122   0.401   3.577   6.445
 1930SOL    HW2 6123   0.416   3.740   6.436
 1931SOL     OW 6124   1.795   2.928   6.459
 1931SOL    HW1 6125   1.733   2.913   6.383
 1931SOL    HW2 6126   1.743   2.939   6.544
 1932SOL     OW 6127   1.227   3.412   7.092
 1932SOL    HW1 6128   1.233   3.335   7.156
 1932SOL    HW2 6129   1.175   3.386   7.012
 1933SOL     OW 6130   0.321   2.805   5.828
 1933SOL    HW1 6131   0.403   2.844   5.786
 1933SOL    HW2 6132   0.294   2.723   5.779
 1934SOL     OW 6133   1.458   2.597   6.314
 1934SOL    HW1 6134   1.453   2.532   6.389
 1934SOL    HW2 6135   1.538   2.656   6.327
 1935SOL     OW 6136   0.461   3.128   7.313
 1935SOL    HW1 6137   0.411   3.129   7.227
 1935SOL    HW2 6138   0.398   3.110   7.389
 1936SOL     OW 6139   1.111   3.638   5.823
 1936SOL    HW1 6140   1.051   3.576   5.873
 1936SOL    HW2 6141   1.142   3.594   5.738
 1937SOL     OW 6142   0.202   2.147   7.084
 1937SOL    HW1 6143   0.122   2.207   7.071
 1937SOL    HW2 6144   0.192   2.098   7.170
 1938SOL     OW 6145   1.632   3.239   5.667
 1938SOL    HW1 6146   1.600   3.333   5.657
 1938SOL    HW2 6147   1.556   3.176   5.655
 1939SOL     OW 6148   0.464   3.605   5.909
 1939SOL    HW1 6149   0.497   3.644   5.995
 1939SOL    HW2 6150   0.540   3.598   5.844
 1940SOL     OW 6151   1.400   1.969   6.012
 1940SOL    HW1 6152   1.376   1.932   5.922
 1940SOL    HW2 6153   1.499   1.985   6.016
 1941SOL     OW 6154   0.249   3.647   6.827
 1941SOL    HW1 6155   0.306   3.582   6.877
 1941SOL    HW2 6156   0.233   3.614   6.734
 1942SOL     OW 6157   0.940   3.560   6.490
 1942SOL    HW1 6158   1.020   3.503   6.511
 1942SOL    HW2 6159   0.891   3.520   6.413
 1943SOL     OW 6160   0.382   2.562   6.066
 1943SOL    HW1 6161   0.427   2.472   6.063
 1943SOL    HW2 6162   0.288   2.551   6.099
 1944SOL     OW 6163   1.547   2.084   7.315
 1944SOL    HW1 6164   1.542   2.121   7.407
 1944SOL    HW2 6165   1.475   2.015   7.303
 1945SOL     OW 6166   0.614   1.984   5.703
 1945SOL    HW1 6167   0.712   1.962   5.710
 1945SOL    HW2 6168   0.583   1.967   5.610
 1946SOL     OW 6169   0.781   2.126   7.335
 1946SOL    HW1 6170   0.848   2.065   7.378
 1946SOL    HW2 6171   0.708   2.145   7.400
 1947SOL     OW 6172   0.888   3.376   6.781
 1947SOL    HW1 6173   0.865   3.351   6.687
 1947SOL    HW2 6174   0.949   3.307   6.820
 1948SOL     OW 6175   1.351   2.452   7.019
 1948SOL    HW1 6176   1.379   2.409   7.104
 1948SOL    HW2 6177   1.376   2.548   7.020
 1949SOL     OW 6178   0.803   3.264   6.510
 1949SOL    HW1 6179   0.893   3.278   6.468
 1949SOL    HW2 6180   0.732   3.266   6.439
 1950SOL     OW 6181   0.922   2.365   6.485
 1950SOL    HW1 6182   0.897   2.356   6.389
 1950SOL    HW2 6183   0.970   2.283   6.516
 1951SOL     OW 6184   0.539   1.926   6.098
 1951SOL    HW1 6185   0.458   1.927   6.156
 1951SOL    HW2 6186   0.542   2.009   6.043
 1952SOL     OW 6187   1.434   3.050   5.627
 1952SOL    HW1 6188   1.466   2.974   5.684
 1952SOL    HW2 6189   1.342   3.077   5.657
 1953SOL     OW 6190   0.297   1.897   5.757
 1953SOL    HW1 6191   0.346   1.981   5.736
 1953SOL    HW2 6192   0.359   1.832   5.802
 1954SOL     OW 6193   0.935   2.098   6.066
 1954SOL    HW1 6194   0.887   2.139   5.988
 1954SOL    HW2 6195   1.034   2.096   6.047
 1955SOL     OW 6196   1.076   2.545   7.050
 1955SOL    HW1 6197   0.996   2.484   7.053
 1955SOL    HW2 6198   1.157   2.492   7.026
 1956SOL     OW 6199   1.227   3.432   6.379
 1956SOL    HW1 6200   1.248   3.506   6.314
 1956SOL    HW2 6201   1.295   3.432   6.452
 1957SOL     OW 6202   0.459   3.014   6.327
 1957SOL    HW1 6203   0.388   2.987   6.392
 1957SOL    HW2 6204   0.433   2.986   6.234
 1958SOL     OW 6205   1.271   3.659   6.177
 1958SOL    HW1 6206   1.315   3.723   6.113
 1958SOL    HW2 6207   1.221   3.711   6.247
 1959SOL     OW 6208   1.032   2.411   5.602
 1959SOL    HW1 6209   0.991   2.493   5.563
 1959SOL    HW2 6210   1.096   2.437   5.675
 1960SOL     OW 6211   0.078   2.418   6.972
 1960SOL    HW1 6212   0.170   2.417   6.931
 1960SOL    HW2 6213   0.072   2.492   7.039
 1961SOL     OW 6214   0.561   2.084   6.733
 1961SOL    HW1 6215   0.599   2.000   6.770
 1961SOL    HW2 6216   0.473   2.103   6.777
 1962SOL     OW 6217   0.866   2.316   6.228
 1962SOL    HW1 6218   0.834   2.388   6.166
 1962SOL    HW2 6219   0.890   2.235   6.175
 1963SOL     OW 6220   1.017   1.901   6.339
 1963SOL    HW1 6221   0.945   1.906   6.270
 1963SOL    HW2 6222   0.993   1.832   6.408
 1964SOL     OW 6223   1.429   3.035   6.453
 1964SOL    HW1 6224   1.374   2.951   6.446
 1964SOL    HW2 6225   1.455   3.064   6.361
 1965SOL     OW 6226   1.466   2.452   6.578
 1965SOL    HW1 6227   1.436   2.357   6.585
 1965SOL    HW2 6228   1.539   2.468   6.644
 1966SOL     OW 6229   1.857   2.695   5.963
 1966SOL    HW1 6230   1.899   2.631   6.027
 1966SOL    HW2 6231   1.819   2.644   5.885
 1967SOL     OW 6232   0.488   3.247   5.760
 1967SOL    HW1 6233   0.401   3.232   5.807
 1967SOL    HW2 6234   0.471   3.273   5.665
 1968SOL     OW 6235   1.664   3.142   6.243
 1968SOL    HW1 6236   1.763   3.150   6.257
 1968SOL    HW2 6237   1.619   3.226   6.274
 1969SOL     OW 6238   1.390   2.437   5.664
 1969SOL    HW1 6239   1.336   2.416   5.745
 1969SOL    HW2 6240   1.481   2.396   5.673
 1970SOL     OW 6241   0.527   2.118   5.914
 1970SOL    HW1 6242   0.554   2.059   5.839
 1970SOL    HW2 6243   0.527   2.213   5.883
 1971SOL     OW 6244   1.754   3.085   7.174
 1971SOL    HW1 6245   1.845   3.046   7.161
 1971SOL    HW2 6246   1.762   3.181   7.198
 1972SOL     OW 6247   1.064   3.209   6.926
 1972SOL    HW1 6248   0.984   3.186   6.981
 1972SOL    HW2 6249   1.147   3.183   6.975
 1973SOL     OW 6250   1.592   3.491   7.211
 1973SOL    HW1 6251   1.619   3.525   7.121
 1973SOL    HW2 6252   1.671   3.453   7.257
 1974SOL     OW 6253   1.111   3.057   6.686
 1974SOL    HW1 6254   1.071   3.101   6.767
 1974SOL    HW2 6255   1.070   3.094   6.603
 1975SOL     OW 6256   1.638   2.961   6.665
 1975SOL    HW1 6257   1.643   3.042   6.724
 1975SOL    HW2 6258   1.552   2.963   6.614
 1976SOL     OW 6259   0.915   1.951   6.988
 1976SOL    HW1 6260   0.940   1.931   6.893
 1976SOL    HW2 6261   0.987   2.007   7.030
 1977SOL     OW 6262   0.980   2.978   7.305
 1977SOL    HW1 6263   0.881   2.984   7.315
 1977SOL    HW2 6264   1.003   2.898   7.249
 1978SOL     OW 6265   0.705   2.912   5.954
 1978SOL    HW1 6266   0.691   2.919   6.053
 1978SOL    HW2 6267   0.789   2.861   5.936
 1979SOL     OW 6268   0.410   2.675   6.837
 1979SOL    HW1 6269   0.496   2.687   6.887
 1979SOL    HW2 6270   0.368   2.588   6.864
 1980SOL     OW 6271   1.274   2.248   6.848
 1980SOL    HW1 6272   1.295   2.322   6.912
 1980SOL    HW2 6273   1.185   2.265   6.805
 1981SOL     OW 6274   0.064   3.426   6.917
 1981SOL    HW1 6275   0.018   3.508   6.883
 1981SOL    HW2 6276   0.162   3.445   6.926
 1982SOL     OW 6277   0.367   2.962   6.087
 1982SOL    HW1 6278   0.360   3.045   6.031
 1982SOL    HW2 6279   0.371   2.882   6.027
 1983SOL     OW 6280   0.566   2.399   6.451
 1983SOL    HW1 6281   0.578   2.465   6.377
 1983SOL    HW2 6282   0.612   2.433   6.534
 1984SOL     OW 6283   1.252   3.210   5.974
 1984SOL    HW1 6284   1.302   3.287   6.014
 1984SOL    HW2 6285   1.157   3.212   6.006
 1985SOL     OW 6286   1.272   3.307   6.728
 1985SOL    HW1 6287   1.319   3.320   6.815
 1985SOL    HW2 6288   1.206   3.233   6.737
 1986SOL     OW 6289   1.582   2.501   6.058
 1986SOL    HW1 6290   1.551   2.562   6.131
 1986SOL    HW2 6291   1.632   2.553   5.989
 1987SOL     OW 6292   0.354   3.372   6.915
 1987SOL    HW1 6293   0.333   3.328   6.828
 1987SOL    HW2 6294   0.451   3.398   6.918
 1988SOL     OW 6295   0.402   2.613   7.184
 1988SOL    HW1 6296   0.470   2.668   7.137
 1988SOL    HW2 6297   0.442   2.525   7.211
 1989SOL     OW 6298   1.587   2.641   7.256
 1989SOL    HW1 6299   1.495   2.679   7.251
 1989SOL    HW2 6300   1.647   2.688   7.191
 1990SOL     OW 6301   1.013   1.967   7.356
 1990SOL    HW1 6302   1.019   2.052   7.304
 1990SOL    HW2 6303   1.045   1.891   7.299
 1991SOL     OW 6304   0.504   1.912   7.326
 1991SOL    HW1 6305   0.462   1.855   7.256
 1991SOL    HW2 6306   0.438   1.981   7.358
 1992SOL     OW 6307   0.573   2.732   6.615
 1992SOL    HW1 6308   0.617   2.821   6.606
 1992SOL    HW2 6309   0.510   2.732   6.692
 1993SOL     OW 6310   1.360   2.724   6.631
 1993SOL    HW1 6311   1.285   2.724   6.565
 1993SOL    HW2 6312   1.397   2.632   6.640
 1994SOL     OW 6313   1.209   2.387   5.861
 1994SOL    HW1 6314   1.222   2.303   5.915
 1994SOL    HW2 6315   1.180   2.461   5.921
 1995SOL     OW 6316   0.307   2.075   6.817
 1995SOL    HW1 6317   0.284   2.112   6.907
 1995SOL    HW2 6318   0.277   1.980   6.811
 1996SOL     OW 6319   0.037   3.172   6.868
 1996SOL    HW1 6320   0.090   3.123   6.936
 1996SOL    HW2 6321   0.059   3.270   6.873
 1997SOL     OW 6322   0.732   2.496   6.650
 1997SOL    HW1 6323   0.791   2.470   6.574
 1997SOL    HW2 6324   0.704   2.592   6.639
 1998SOL     OW 6325   1.728   2.797   7.440
 1998SOL    HW1 6326   1.682   2.790   7.351
 1998SOL    HW2 6327   1.666   2.841   7.506
 1999SOL     OW 6328   0.307   1.925   6.204
 1999SOL    HW1 6329   0.296   2.019   6.237
 1999SOL    HW2 6330   0.302   1.862   6.281
 2000SOL     OW 6331   1.622   2.229   5.960
 2000SOL    HW1 6332   1.624   2.153   6.024
 2000SOL    HW2 6333   1.574   2.306   6.000
 2001SOL     OW 6334   1.023   2.628   6.552
 2001SOL    HW1 6335   1.038   2.649   6.648
 2001SOL    HW2 6336   0.993   2.533   6.543
 2002SOL     OW 6337   0.980   3.435   7.286
 2002SOL    HW1 6338   0.960   3.479   7.198
 2002SOL    HW2 6339   1.019   3.344   7.270
 2003SOL     OW 6340   1.859   3.380   7.191
 2003SOL    HW1 6341   1.873   3.407   7.096
 2003SOL    HW2 6342   1.942   3.402   7.244
 2004SOL     OW 6343   0.350   2.760   7.390
 2004SOL    HW1 6344   0.426   2.804   7.438
 2004SOL    HW2 6345   0.385   2.713   7.308
 2005SOL     OW 6346   1.540   2.136   5.711
 2005SOL    HW1 6347   1.479   2.061   5.734
 2005SOL    HW2 6348   1.562   2.188   5.794
 2006SOL     OW 6349   1.303   2.700   5.628
 2006SOL    HW1 6350   1.337   2.607   5.643
 2006SOL    HW2 6351   1.321   2.727   5.533
 2007SOL     OW 6352   1.068   3.195   6.435
 2007SOL    HW1 6353   1.075   3.111   6.380
 2007SOL    HW2 6354   1.130   3.264   6.399
 2008SOL     OW 6355   0.319   2.672   6.535
 2008SOL    HW1 6356   0.412   2.708   6.540
 2008SOL    HW2 6357   0.313   2.587   6.587
 2009SOL     OW 6358   0.339   2.371   6.592
 2009SOL    HW1 6359   0.287   2.288   6.575
 2009SOL    HW2 6360   0.416   2.376   6.528
 2010SOL     OW 6361   1.138   2.242   7.264
 2010SOL    HW1 6362   1.093   2.305   7.328
 2010SOL    HW2 6363   1.231   2.273   7.247
 2011SOL     OW 6364   1.160   2.069   7.063
 2011SOL    HW1 6365   1.160   2.133   7.140
 2011SOL    HW2 6366   1.188   2.117   6.980
 2012SOL     OW 6367   0.008   3.188   5.786
 2012SOL    HW1 6368  -0.085   3.209   5.755
 2012SOL    HW2 6369   0.018   3.089   5.799
 2013SOL     OW 6370   0.088   3.663   6.513
 2013SOL    HW1 6371   0.046   3.577   6.486
 2013SOL    HW2 6372   0.182   3.666   6.479
 2014SOL     OW 6373   0.504   3.430   6.496
 2014SOL    HW1 6374   0.570   3.504   6.505
 2014SOL    HW2 6375   0.548   3.351   6.454
 2015SOL     OW 6376   1.002   2.658   6.824
 2015SOL    HW1 6377   1.043   2.626   6.910
 2015SOL    HW2 6378   0.906   2.631   6.821
 2016SOL     OW 6379   0.040   2.406   6.700
 2016SOL    HW1 6380   0.125   2.373   6.659
 2016SOL    HW2 6381   0.053   2.421   6.798
 2017SOL     OW 6382   0.189   2.382   7.308
 2017SOL    HW1 6383   0.248   2.342   7.238
 2017SOL    HW2 6384   0.131   2.453   7.267
 2018SOL     OW 6385   1.369   2.812   7.246
 2018SOL    HW1 6386   1.408   2.901   7.266
 2018SOL    HW2 6387   1.379   2.792   7.149
 2019SOL     OW 6388   0.815   2.434   5.911
 2019SOL    HW1 6389   0.822   2.345   5.865
 2019SOL    HW2 6390   0.721   2.468   5.903
 2020SOL     OW 6391   1.657   2.466   6.792
 2020SOL    HW1 6392   1.619   2.397   6.854
 2020SOL    HW2 6393   1.739   2.430   6.748
 2021SOL     OW 6394   0.252   3.426   7.330
 2021SOL    HW1 6395   0.222   3.483   7.406
 2021SOL    HW2 6396   0.245   3.329   7.356
 2022SOL     OW 6397   0.671   2.326   6.855
 2022SOL    HW1 6398   0.637   2.237   6.825
 2022SOL    HW2 6399   0.697   2.380   6.775
 2023SOL     OW 6400   0.930   3.540   7.051
 2023SOL    HW1 6401   0.906   3.522   6.956
 2023SOL    HW2 6402   0.960   3.634   7.061
 2024SOL     OW 6403   0.473   2.362   5.777
 2024SOL    HW1 6404   0.534   2.442   5.781
 2024SOL    HW2 6405   0.378   2.393   5.784
 2025SOL     OW 6406   0.159   2.999   7.052
 2025SOL    HW1 6407   0.181   2.938   7.128
 2025SOL    HW2 6408   0.169   2.950   6.966
 2026SOL     OW 6409   1.347   2.921   6.820
 2026SOL    HW1 6410   1.371   2.858   6.746
 2026SOL    HW2 6411   1.257   2.961   6.802
 2027SOL     OW 6412   1.302   2.717   5.895
 2027SOL    HW1 6413   1.216   2.686   5.937
 2027SOL    HW2 6414   1.298   2.703   5.796
 2028SOL     OW 6415   1.759   3.609   6.740
 2028SOL    HW1 6416   1.820   3.639   6.667
 2028SOL    HW2 6417   1.721   3.520   6.718
 2029SOL     OW 6418   1.252   3.593   6.714
 2029SOL    HW1 6419   1.336   3.598   6.660
 2029SOL    HW2 6420   1.229   3.497   6.732
 2030SOL     OW 6421   0.083   3.120   6.608
 2030SOL    HW1 6422   0.078   3.119   6.708
 2030SOL    HW2 6423   0.000   3.079   6.570
 2031SOL     OW 6424   0.688   3.524   7.302
 2031SOL    HW1 6425   0.632   3.605   7.311
 2031SOL    HW2 6426   0.740   3.528   7.216
 2032SOL     OW 6427   1.726   1.997   6.109
 2032SOL    HW1 6428   1.799   1.980   6.042
 2032SOL    HW2 6429   1.695   1.910   6.147
 2033SOL     OW 6430   1.388   3.435   6.063
 2033SOL    HW1 6431   1.455   3.447   5.989
 2033SOL    HW2 6432   1.348   3.524   6.086
 2034SOL     OW 6433   0.130   3.656   7.437
 2034SOL    HW1 6434   0.089   3.582   7.490
 2034SOL    HW2 6435   0.194   3.707   7.495
 2035SOL     OW 6436   1.280   2.789   6.258
 2035SOL    HW1 6437   1.340   2.708   6.260
 2035SOL    HW2 6438   1.320   2.858   6.198
 2036SOL     OW 6439   0.830   3.135   7.008
 2036SOL    HW1 6440   0.825   3.168   7.103
 2036SOL    HW2 6441   0.744   3.154   6.962
 2037SOL     OW 6442   0.672   3.478   5.740
 2037SOL    HW1 6443   0.681   3.488   5.641
 2037SOL    HW2 6444   0.632   3.389   5.761
 2038SOL     OW 6445   1.650   3.582   6.980
 2038SOL    HW1 6446   1.703   3.592   6.896
 2038SOL    HW2 6447   1.623   3.672   7.014
 2039SOL     OW 6448   1.841   2.037   6.549
 2039SOL    HW1 6449   1.880   1.952   6.513
 2039SOL    HW2 6450   1.743   2.039   6.530
 2040SOL     OW 6451   0.263   2.188   6.306
 2040SOL    HW1 6452   0.184   2.239   6.272
 2040SOL    HW2 6453   0.254   2.173   6.404
 2041SOL     OW 6454   1.194   3.474   5.617
 2041SOL    HW1 6455   1.200   3.381   5.654
 2041SOL    HW2 6456   1.135   3.474   5.537
 2042SOL     OW 6457   0.822   2.864   6.958
 2042SOL    HW1 6458   0.862   2.863   6.866
 2042SOL    HW2 6459   0.832   2.956   6.998
 2043SOL     OW 6460   0.916   2.772   5.877
 2043SOL    HW1 6461   0.979   2.810   5.809
 2043SOL    HW2 6462   0.956   2.689   5.916
 2044SOL     OW 6463   1.504   3.469   5.630
 2044SOL    HW1 6464   1.412   3.506   5.637
 2044SOL    HW2 6465   1.542   3.489   5.540
 2045SOL     OW 6466   0.372   3.150   7.076
 2045SOL    HW1 6467   0.359   3.243   7.042
 2045SOL    HW2 6468   0.288   3.098   7.063
 2046SOL     OW 6469   1.614   3.154   6.875
 2046SOL    HW1 6470   1.674   3.157   6.955
 2046SOL    HW2 6471   1.539   3.218   6.888
 2047SOL     OW 6472   1.039   2.960   6.282
 2047SOL    HW1 6473   0.969   2.913   6.336
 2047SOL    HW2 6474   1.098   2.892   6.239
 2048SOL     OW 6475   1.014   2.098   6.557
 2048SOL    HW1 6476   1.006   2.062   6.464
 2048SOL    HW2 6477   1.012   2.022   6.622
 2049SOL     OW 6478   0.590   3.349   6.077
 2049SOL    HW1 6479   0.632   3.291   6.007
 2049SOL    HW2 6480   0.546   3.428   6.033
 2050SOL     OW 6481   1.709   2.247   6.967
 2050SOL    HW1 6482   1.782   2.316   6.971
 2050SOL    HW2 6483   1.737   2.172   6.908
 2051SOL     OW 6484   0.255   3.210   5.876
 2051SOL    HW1 6485   0.159   3.211   5.849
 2051SOL    HW2 6486   0.267   3.263   5.960
 2052SOL     OW 6487   0.105   2.875   7.312
 2052SOL    HW1 6488   0.028   2.842   7.366
 2052SOL    HW2 6489   0.190   2.845   7.354
 2053SOL     OW 6490   0.672   2.065   7.075
 2053SOL    HW1 6491   0.762   2.049   7.035
 2053SOL    HW2 6492   0.680   2.070   7.174
 2054SOL     OW 6493   0.075   2.207   5.619
 2054SOL    HW1 6494  -0.017   2.179   5.590
 2054SOL    HW2 6495   0.106   2.284   5.563
 2055SOL     OW 6496   1.440   2.718   6.984
 2055SOL    HW1 6497   1.383   2.770   6.921
 2055SOL    HW2 6498   1.536   2.730   6.960
 2056SOL     OW 6499   0.072   2.028   5.904
 2056SOL    HW1 6500   0.055   2.111   5.850
 2056SOL    HW2 6501   0.162   1.991   5.882
 2057SOL     OW 6502   1.183   3.197   5.705
 2057SOL    HW1 6503   1.084   3.186   5.707
 2057SOL    HW2 6504   1.217   3.212   5.798
 2058SOL     OW 6505   0.613   2.704   7.017
 2058SOL    HW1 6506   0.669   2.785   7.000
 2058SOL    HW2 6507   0.672   2.624   7.020
 2059SOL     OW 6508   1.493   3.629   6.545
 2059SOL    HW1 6509   1.526   3.693   6.476
 2059SOL    HW2 6510   1.559   3.623   6.620
 2060SOL     OW 6511   0.716   2.427   7.294
 2060SOL    HW1 6512   0.735   2.492   7.368
 2060SOL    HW2 6513   0.776   2.347   7.303
 2061SOL     OW 6514   1.450   3.082   7.219
 2061SOL    HW1 6515   1.441   3.072   7.318
 2061SOL    HW2 6516   1.546   3.075   7.193
 2062SOL     OW 6517   0.390   3.603   7.146
 2062SOL    HW1 6518   0.299   3.644   7.144
 2062SOL    HW2 6519   0.383   3.509   7.178
 2063SOL     OW 6520   1.674   2.745   6.840
 2063SOL    HW1 6521   1.647   2.656   6.803
 2063SOL    HW2 6522   1.675   2.813   6.767
 2064SOL     OW 6523   1.225   2.187   6.035
 2064SOL    HW1 6524   1.290   2.113   6.024
 2064SOL    HW2 6525   1.245   2.237   6.119
 2065SOL     OW 6526   0.594   2.607   6.238
 2065SOL    HW1 6527   0.644   2.692   6.219
 2065SOL    HW2 6528   0.506   2.609   6.190
 2066SOL     OW 6529   1.777   2.204   7.228
 2066SOL    HW1 6530   1.760   2.235   7.134
 2066SOL    HW2 6531   1.693   2.167   7.266
 2067SOL     OW 6532   1.730   2.796   7.103
 2067SOL    HW1 6533   1.768   2.887   7.118
 2067SOL    HW2 6534   1.722   2.779   7.004
 2068SOL     OW 6535   0.859   3.236   5.602
 2068SOL    HW1 6536   0.813   3.251   5.690
 2068SOL    HW2 6537   0.903   3.321   5.572
 2069SOL     OW 6538   0.661   3.652   6.539
 2069SOL    HW1 6539   0.615   3.740   6.526
 2069SOL    HW2 6540   0.760   3.664   6.532
 2070SOL     OW 6541   0.859   2.818   6.447
 2070SOL    HW1 6542   0.913   2.749   6.495
 2070SOL    HW2 6543   0.827   2.887   6.513
 2071SOL     OW 6544   1.083   2.846   5.673
 2071SOL    HW1 6545   1.060   2.899   5.591
 2071SOL    HW2 6546   1.164   2.790   5.654
 2072SOL     OW 6547   1.861   3.431   6.437
 2072SOL    HW1 6548   1.790   3.419   6.367
 2072SOL    HW2 6549   1.862   3.352   6.497
 2073SOL     OW 6550   0.221   3.176   7.430
 2073SOL    HW1 6551   0.156   3.103   7.409
 2073SOL    HW2 6552   0.225   3.190   7.528
 2074SOL     OW 6553   0.079   3.102   6.239
 2074SOL    HW1 6554   0.078   3.055   6.327
 2074SOL    HW2 6555   0.161   3.074   6.188
 2075SOL     OW 6556   0.672   3.253   7.210
 2075SOL    HW1 6557   0.594   3.203   7.248
 2075SOL    HW2 6558   0.669   3.348   7.241
 2076SOL     OW 6559   1.824   2.054   6.813
 2076SOL    HW1 6560   1.820   1.964   6.857
 2076SOL    HW2 6561   1.827   2.043   6.714
 2077SOL     OW 6562   0.428   2.286   6.106
 2077SOL    HW1 6563   0.458   2.214   6.044
 2077SOL    HW2 6564   0.389   2.246   6.189
 2078SOL     OW 6565   1.705   3.349   6.690
 2078SOL    HW1 6566   1.612   3.324   6.663
 2078SOL    HW2 6567   1.731   3.299   6.772
 2079SOL     OW 6568   0.317   2.409   6.866
 2079SOL    HW1 6569   0.355   2.350   6.938
 2079SOL    HW2 6570   0.357   2.383   6.778
 2080SOL     OW 6571   0.812   3.448   6.273
 2080SOL    HW1 6572   0.844   3.458   6.179
 2080SOL    HW2 6573   0.733   3.386   6.275
 2081SOL     OW 6574   1.424   2.076   6.698
 2081SOL    HW1 6575   1.476   2.011   6.753
 2081SOL    HW2 6576   1.375   2.139   6.759
 2082SOL     OW 6577   1.001   1.896   6.740
 2082SOL    HW1 6578   0.938   1.824   6.709
 2082SOL    HW2 6579   1.094   1.860   6.740
 2083SOL     OW 6580   0.770   3.192   5.887
 2083SOL    HW1 6581   0.724   3.105   5.904
 2083SOL    HW2 6582   0.861   3.189   5.928
 2084SOL     OW 6583   0.618   3.429   6.870
 2084SOL    HW1 6584   0.613   3.511   6.927
 2084SOL    HW2 6585   0.707   3.426   6.825
 2085SOL     OW 6586   1.352   1.914   5.754
 2085SOL    HW1 6587   1.387   1.873   5.670
 2085SOL    HW2 6588   1.262   1.876   5.774
 2086SOL     OW 6589   1.300   2.315   6.277
 2086SOL    HW1 6590   1.241   2.395   6.281
 2086SOL    HW2 6591   1.315   2.280   6.370
 2087SOL     OW 6592   1.593   2.083   6.468
 2087SOL    HW1 6593   1.509   2.082   6.522
 2087SOL    HW2 6594   1.595   2.166   6.412
 2088SOL     OW 6595   0.039   2.939   5.886
 2088SOL    HW1 6596   0.138   2.928   5.877
 2088SOL    HW2 6597  -0.001   2.853   5.918
 2089SOL     OW 6598   0.875   3.508   5.923
 2089SOL    HW1 6599   0.798   3.473   5.869
 2089SOL    HW2 6600   0.843   3.579   5.985
 2090SOL     OW 6601   0.230   2.490   7.561
 2090SOL    HW1 6602   0.137   2.488   7.598
 2090SOL    HW2 6603   0.231   2.451   7.469
 2091SOL     OW 6604   0.225   2.137   8.444
 2091SOL    HW1 6605   0.260   2.120   8.536
 2091SOL    HW2 6606   0.137   2.092   8.432
 2092SOL     OW 6607   0.019   2.230   8.095
 2092SOL    HW1 6608  -0.063   2.273   8.134
 2092SOL    HW2 6609  -0.009   2.157   8.032
 2093SOL     OW 6610   0.569   3.137   8.613
 2093SOL    HW1 6611   0.476   3.130   8.576
 2093SOL    HW2 6612   0.580   3.226   8.657
 2094SOL     OW 6613   1.555   3.373   8.151
 2094SOL    HW1 6614   1.498   3.357   8.232
 2094SOL    HW2 6615   1.496   3.383   8.071
 2095SOL     OW 6616   1.135   2.565   8.165
 2095SOL    HW1 6617   1.192   2.643   8.140
 2095SOL    HW2 6618   1.075   2.591   8.241
 2096SOL     OW 6619   1.755   2.469   7.679
 2096SOL    HW1 6620   1.743   2.456   7.580
 2096SOL    HW2 6621   1.725   2.388   7.728
 2097SOL     OW 6622   0.768   3.006   8.471
 2097SOL    HW1 6623   0.690   3.023   8.531
 2097SOL    HW2 6624   0.802   3.093   8.435
 2098SOL     OW 6625   0.850   2.660   9.271
 2098SOL    HW1 6626   0.846   2.736   9.336
 2098SOL    HW2 6627   0.872   2.696   9.180
 2099SOL     OW 6628   0.685   2.874   8.113
 2099SOL    HW1 6629   0.754   2.858   8.183
 2099SOL    HW2 6630   0.612   2.931   8.151
 2100SOL     OW 6631   0.686   3.023   9.251
 2100SOL    HW1 6632   0.746   3.102   9.265
 2100SOL    HW2 6633   0.600   3.054   9.210
 2101SOL     OW 6634   0.335   3.297   8.509
 2101SOL    HW1 6635   0.257   3.266   8.456
 2101SOL    HW2 6636   0.393   3.355   8.452
 2102SOL     OW 6637   1.460   3.367   8.787
 2102SOL    HW1 6638   1.484   3.461   8.813
 2102SOL    HW2 6639   1.444   3.313   8.869
 2103SOL     OW 6640   0.438   2.254   8.947
 2103SOL    HW1 6641   0.520   2.198   8.956
 2103SOL    HW2 6642   0.357   2.196   8.951
 2104SOL     OW 6643   1.603   2.309   8.185
 2104SOL    HW1 6644   1.529   2.355   8.135
 2104SOL    HW2 6645   1.654   2.377   8.238
 2105SOL     OW 6646   0.231   3.575   7.931
 2105SOL    HW1 6647   0.265   3.652   7.985
 2105SOL    HW2 6648   0.275   3.575   7.841
 2106SOL     OW 6649   1.127   3.203   9.138
 2106SOL    HW1 6650   1.174   3.203   9.226
 2106SOL    HW2 6651   1.079   3.116   9.127
 2107SOL     OW 6652   0.230   3.296   7.986
 2107SOL    HW1 6653   0.204   3.392   7.986
 2107SOL    HW2 6654   0.159   3.242   8.031
 2108SOL     OW 6655   0.240   2.953   8.334
 2108SOL    HW1 6656   0.254   2.869   8.386
 2108SOL    HW2 6657   0.185   3.017   8.389
 2109SOL     OW 6658   0.620   3.648   8.887
 2109SOL    HW1 6659   0.528   3.631   8.922
 2109SOL    HW2 6660   0.648   3.740   8.913
 2110SOL     OW 6661   0.606   2.826   7.571
 2110SOL    HW1 6662   0.613   2.910   7.517
 2110SOL    HW2 6663   0.652   2.839   7.659
 2111SOL     OW 6664   1.594   1.976   8.928
 2111SOL    HW1 6665   1.576   2.043   8.856
 2111SOL    HW2 6666   1.591   2.022   9.017
 2112SOL     OW 6667   0.122   2.505   8.011
 2112SOL    HW1 6668   0.077   2.417   8.028
 2112SOL    HW2 6669   0.121   2.559   8.095
 2113SOL     OW 6670   1.842   3.629   7.807
 2113SOL    HW1 6671   1.896   3.600   7.887
 2113SOL    HW2 6672   1.872   3.719   7.778
 2114SOL     OW 6673   0.027   3.458   7.565
 2114SOL    HW1 6674   0.008   3.362   7.586
 2114SOL    HW2 6675  -0.006   3.516   7.640
 2115SOL     OW 6676   1.689   2.784   8.060
 2115SOL    HW1 6677   1.784   2.755   8.068
 2115SOL    HW2 6678   1.681   2.849   7.985
 2116SOL     OW 6679   1.641   2.970   7.880
 2116SOL    HW1 6680   1.727   2.972   7.828
 2116SOL    HW2 6681   1.655   3.017   7.968
 2117SOL     OW 6682   0.113   2.599   9.045
 2117SOL    HW1 6683   0.201   2.586   9.090
 2117SOL    HW2 6684   0.100   2.696   9.023
 2118SOL     OW 6685   0.613   3.227   8.174
 2118SOL    HW1 6686   0.564   3.140   8.183
 2118SOL    HW2 6687   0.590   3.270   8.087
 2119SOL     OW 6688   1.293   3.090   8.871
 2119SOL    HW1 6689   1.330   3.017   8.813
 2119SOL    HW2 6690   1.345   3.095   8.956
 2120SOL     OW 6691   0.809   1.866   7.950
 2120SOL    HW1 6692   0.849   1.957   7.941
 2120SOL    HW2 6693   0.709   1.874   7.956
 2121SOL     OW 6694   0.197   2.838   8.712
 2121SOL    HW1 6695   0.286   2.793   8.698
 2121SOL    HW2 6696   0.124   2.773   8.693
 2122SOL     OW 6697   1.525   2.861   7.638
 2122SOL    HW1 6698   1.462   2.785   7.651
 2122SOL    HW2 6699   1.573   2.879   7.724
 2123SOL     OW 6700   1.187   3.654   9.064
 2123SOL    HW1 6701   1.211   3.714   8.988
 2123SOL    HW2 6702   1.194   3.559   9.034
 2124SOL     OW 6703   0.317   2.113   9.249
 2124SOL    HW1 6704   0.388   2.184   9.255
 2124SOL    HW2 6705   0.229   2.152   9.277
 2125SOL     OW 6706   1.466   3.279   8.401
 2125SOL    HW1 6707   1.407   3.285   8.481
 2125SOL    HW2 6708   1.451   3.191   8.355
 2126SOL     OW 6709   1.667   3.576   8.020
 2126SOL    HW1 6710   1.626   3.553   7.932
 2126SOL    HW2 6711   1.649   3.502   8.085
 2127SOL     OW 6712   0.598   2.591   7.718
 2127SOL    HW1 6713   0.622   2.660   7.650
 2127SOL    HW2 6714   0.520   2.624   7.772
 2128SOL     OW 6715   1.281   2.207   8.392
 2128SOL    HW1 6716   1.195   2.157   8.379
 2128SOL    HW2 6717   1.343   2.153   8.448
 2129SOL     OW 6718   1.576   3.524   7.755
 2129SOL    HW1 6719   1.665   3.570   7.758
 2129SOL    HW2 6720   1.555   3.500   7.660
 2130SOL     OW 6721   0.807   2.467   8.913
 2130SOL    HW1 6722   0.760   2.464   9.002
 2130SOL    HW2 6723   0.756   2.412   8.847
 2131SOL     OW 6724   1.394   2.331   9.122
 2131SOL    HW1 6725   1.374   2.374   9.210
 2131SOL    HW2 6726   1.472   2.269   9.131
 2132SOL     OW 6727   0.973   2.752   9.020
 2132SOL    HW1 6728   1.019   2.668   8.991
 2132SOL    HW2 6729   0.917   2.786   8.945
 2133SOL     OW 6730   0.991   2.272   8.690
 2133SOL    HW1 6731   0.914   2.306   8.744
 2133SOL    HW2 6732   0.957   2.221   8.611
 2134SOL     OW 6733   1.041   2.563   7.877
 2134SOL    HW1 6734   1.067   2.559   7.973
 2134SOL    HW2 6735   0.956   2.512   7.863
 2135SOL     OW 6736   0.076   2.673   8.237
 2135SOL    HW1 6737   0.175   2.661   8.246
 2135SOL    HW2 6738   0.052   2.768   8.258
 2136SOL     OW 6739   0.130   3.683   9.019
 2136SOL    HW1 6740   0.120   3.668   9.118
 2136SOL    HW2 6741   0.044   3.719   8.983
 2137SOL     OW 6742   0.865   2.210   7.643
 2137SOL    HW1 6743   0.924   2.273   7.594
 2137SOL    HW2 6744   0.884   2.116   7.614
 2138SOL     OW 6745   1.719   2.447   9.279
 2138SOL    HW1 6746   1.693   2.536   9.243
 2138SOL    HW2 6747   1.717   2.379   9.206
 2139SOL     OW 6748   1.362   3.006   7.993
 2139SOL    HW1 6749   1.445   2.977   7.945
 2139SOL    HW2 6750   1.313   3.073   7.937
 2140SOL     OW 6751   0.550   2.058   8.333
 2140SOL    HW1 6752   0.545   2.053   8.433
 2140SOL    HW2 6753   0.552   2.154   8.304
 2141SOL     OW 6754   1.008   3.318   7.925
 2141SOL    HW1 6755   0.962   3.390   7.873
 2141SOL    HW2 6756   1.004   3.338   8.023
 2142SOL     OW 6757   0.351   3.663   8.301
 2142SOL    HW1 6758   0.401   3.577   8.307
 2142SOL    HW2 6759   0.416   3.740   8.298
 2143SOL     OW 6760   1.795   2.928   8.321
 2143SOL    HW1 6761   1.733   2.913   8.245
 2143SOL    HW2 6762   1.743   2.939   8.406
 2144SOL     OW 6763   1.227   3.412   8.954
 2144SOL    HW1 6764   1.233   3.335   9.018
 2144SOL    HW2 6765   1.175   3.386   8.874
 2145SOL     OW 6766   0.321   2.805   7.690
 2145SOL    HW1 6767   0.403   2.844   7.648
 2145SOL    HW2 6768   0.294   2.723   7.641
 2146SOL     OW 6769   1.458   2.597   8.176
 2146SOL    HW1 6770   1.453   2.532   8.251
 2146SOL    HW2 6771   1.538   2.656   8.189
 2147SOL     OW 6772   0.461   3.128   9.175
 2147SOL    HW1 6773   0.411   3.129   9.089
 2147SOL    HW2 6774   0.398   3.110   9.251
 2148SOL     OW 6775   1.111   3.638   7.685
 2148SOL    HW1 6776   1.051   3.576   7.735
 2148SOL    HW2 6777   1.142   3.594   7.600
 2149SOL     OW 6778   0.202   2.147   8.946
 2149SOL    HW1 6779   0.122   2.207   8.933
 2149SOL    HW2 6780   0.192   2.098   9.032
 2150SOL     OW 6781   1.632   3.239   7.529
 2150SOL    HW1 6782   1.600   3.333   7.519
 2150SOL    HW2 6783   1.556   3.176   7.517
 2151SOL     OW 6784   0.464   3.605   7.771
 2151SOL    HW1 6785   0.497   3.644   7.857
 2151SOL    HW2 6786   0.540   3.598   7.706
 2152SOL     OW 6787   1.400   1.969   7.874
 2152SOL    HW1 6788   1.376   1.932   7.784
 2152SOL    HW2 6789   1.499   1.985   7.878
 2153SOL     OW 6790   0.249   3.647   8.689
 2153SOL    HW1 6791   0.306   3.582   8.739
 2153SOL    HW2 6792   0.233   3.614   8.596
 2154SOL     OW 6793   0.940   3.560   8.352
 2154SOL    HW1 6794   1.020   3.503   8.373
 2154SOL    HW2 6795   0.891   3.520   8.275
 2155SOL     OW 6796   0.382   2.562   7.928
 2155SOL    HW1 6797   0.427   2.472   7.925
 2155SOL    HW2 6798   0.288   2.551   7.961
 2156SOL     OW 6799   1.547   2.084   9.177
 2156SOL    HW1 6800   1.542   2.121   9.269
 2156SOL    HW2 6801   1.475   2.015   9.165
 2157SOL     OW 6802   0.614   1.984   7.565
 2157SOL    HW1 6803   0.712   1.962   7.572
 2157SOL    HW2 6804   0.583   1.967   7.472
 2158SOL     OW 6805   0.781   2.126   9.197
 2158SOL    HW1 6806   0.848   2.065   9.240
 2158SOL    HW2 6807   0.708   2.145   9.262
 2159SOL     OW 6808   0.888   3.376   8.643
 2159SOL    HW1 6809   0.865   3.351   8.549
 2159SOL    HW2 6810   0.949   3.307   8.682
 2160SOL     OW 6811   1.351   2.452   8.881
 2160SOL    HW1 6812   1.379   2.409   8.966
 2160SOL    HW2 6813   1.376   2.548   8.882
 2161SOL     OW 6814   0.803   3.264   8.372
 2161SOL    HW1 6815   0.893   3.278   8.330
 2161SOL    HW2 6816   0.732   3.266   8.301
 2162SOL     OW 6817   0.922   2.365   8.347
 2162SOL    HW1 6818   0.897   2.356   8.251
 2162SOL    HW2 6819   0.970   2.283   8.378
 2163SOL     OW 6820   0.539   1.926   7.960
 2163SOL    HW1 6821   0.458   1.927   8.018
 2163SOL    HW2 6822   0.542   2.009   7.905
 2164SOL     OW 6823   1.434   3.050   7.489
 2164SOL    HW1 6824   1.466   2.974   7.546
 2164SOL    HW2 6825   1.342   3.077   7.519
 2165SOL     OW 6826   0.297   1.897   7.619
 2165SOL    HW1 6827   0.346   1.981   7.598
 2165SOL    HW2 6828   0.359   1.832   7.664
 2166SOL     OW 6829   0.935   2.098   7.928
 2166SOL    HW1 6830   0.887   2.139   7.850
 2166SOL    HW2 6831   1.034   2.096   7.909
 2167SOL     OW 6832   1.076   2.545   8.912
 2167SOL    HW1 6833   0.996   2.484   8.915
 2167SOL    HW2 6834   1.157   2.492   8.888
 2168SOL     OW 6835   1.227   3.432   8.241
 2168SOL    HW1 6836   1.248   3.506   8.176
 2168SOL    HW2 6837   1.295   3.432   8.314
 2169SOL     OW 6838   0.459   3.014   8.189
 2169SOL    HW1 6839   0.388   2.987   8.254
 2169SOL    HW2 6840   0.433   2.986   8.096
 2170SOL     OW 6841   1.271   3.659   8.039
 2170SOL    HW1 6842   1.315   3.723   7.975
 2170SOL    HW2 6843   1.221   3.711   8.109
 2171SOL     OW 6844   1.032   2.411   7.464
 2171SOL    HW1 6845   0.991   2.493   7.425
 2171SOL    HW2 6846   1.096   2.437   7.537
 2172SOL     OW 6847   0.078   2.418   8.834
 2172SOL    HW1 6848   0.170   2.417   8.793
 2172SOL    HW2 6849   0.072   2.492   8.901
 2173SOL     OW 6850   0.561   2.084   8.595
 2173SOL    HW1 6851   0.599   2.000   8.632
 2173SOL    HW2 6852   0.473   2.103   8.639
 2174SOL     OW 6853   0.866   2.316   8.090
 2174SOL    HW1 6854   0.834   2.388   8.028
 2174SOL    HW2 6855   0.890   2.235   8.037
 2175SOL     OW 6856   1.017   1.901   8.201
 2175SOL    HW1 6857   0.945   1.906   8.132
 2175SOL    HW2 6858   0.993   1.832   8.270
 2176SOL     OW 6859   1.429   3.035   8.315
 2176SOL    HW1 6860   1.374   2.951   8.308
 2176SOL    HW2 6861   1.455   3.064   8.223
 2177SOL     OW 6862   1.466   2.452   8.440
 2177SOL    HW1 6863   1.436   2.357   8.447
 2177SOL    HW2 6864   1.539   2.468   8.506
 2178SOL     OW 6865   1.857   2.695   7.825
 2178SOL    HW1 6866   1.899   2.631   7.889
 2178SOL    HW2 6867   1.819   2.644   7.747
 2179SOL     OW 6868   0.488   3.247   7.622
 2179SOL    HW1 6869   0.401   3.232   7.669
 2179SOL    HW2 6870   0.471   3.273   7.527
 2180SOL     OW 6871   1.664   3.142   8.105
 2180SOL    HW1 6872   1.763   3.150   8.119
 2180SOL    HW2 6873   1.619   3.226   8.136
 2181SOL     OW 6874   1.390   2.437   7.526
 2181SOL    HW1 6875   1.336   2.416   7.607
 2181SOL    HW2 6876   1.481   2.396   7.535
 2182SOL     OW 6877   0.527   2.118   7.776
 2182SOL    HW1 6878   0.554   2.059   7.701
 2182SOL    HW2 6879   0.527   2.213   7.745
 2183SOL     OW 6880   1.754   3.085   9.036
 2183SOL    HW1 6881   1.845   3.046   9.023
 2183SOL    HW2 6882   1.762   3.181   9.060
 2184SOL     OW 6883   1.064   3.209   8.788
 2184SOL    HW1 6884   0.984   3.186   8.843
 2184SOL    HW2 6885   1.147   3.183   8.837
 2185SOL     OW 6886   1.592   3.491   9.073
 2185SOL    HW1 6887   1.619   3.525   8.983
 2185SOL    HW2 6888   1.671   3.453   9.119
 2186SOL     OW 6889   1.111   3.057   8.548
 2186SOL    HW1 6890   1.071   3.101   8.629
 2186SOL    HW2 6891   1.070   3.094   8.465
 2187SOL     OW 6892   1.638   2.961   8.527
 2187SOL    HW1 6893   1.643   3.042   8.586
 2187SOL    HW2 6894   1.552   2.963   8.476
 2188SOL     OW 6895   0.915   1.951   8.850
 2188SOL    HW1 6896   0.940   1.931   8.755
 2188SOL    HW2 6897   0.987   2.007   8.892
 2189SOL     OW 6898   0.980   2.978   9.167
 2189SOL    HW1 6899   0.881   2.984   9.177
 2189SOL    HW2 6900   1.003   2.898   9.111
 2190SOL     OW 6901   0.705   2.912   7.816
 2190SOL    HW1 6902   0.691   2.919   7.915
 2190SOL    HW2 6903   0.789   2.861   7.798
 2191SOL     OW 6904   0.410   2.675   8.699
 2191SOL    HW1 6905   0.496   2.687   8.749
 2191SOL    HW2 6906   0.368   2.588   8.726
 2192SOL     OW 6907   1.274   2.248   8.710
 2192SOL    HW1 6908   1.295   2.322   8.774
 2192SOL    HW2 6909   1.185   2.265   8.667
 2193SOL     OW 6910   0.064   3.426   8.779
 2193SOL    HW1 6911   0.018   3.508   8.745
 2193SOL    HW2 6912   0.162   3.445   8.788
 2194SOL     OW 6913   0.367   2.962   7.949
 2194SOL    HW1 6914   0.360   3.045   7.893
 2194SOL    HW2 6915   0.371   2.882   7.889
 2195SOL     OW 6916   0.566   2.399   8.313
 2195SOL    HW1 6917   0.578   2.465   8.239
 2195SOL    HW2 6918   0.612   2.433   8.396
 2196SOL     OW 6919   1.252   3.210   7.836
 2196SOL    HW1 6920   1.302   3.287   7.876
 2196SOL    HW2 6921   1.157   3.212   7.868
 2197SOL     OW 6922   1.272   3.307   8.590
 2197SOL    HW1 6923   1.319   3.320   8.677
 2197SOL    HW2 6924   1.206   3.233   8.599
 2198SOL     OW 6925   1.582   2.501   7.920
 2198SOL    HW1 6926   1.551   2.562   7.993
 2198SOL    HW2 6927   1.632   2.553   7.851
 2199SOL     OW 6928   0.354   3.372   8.777
 2199SOL    HW1 6929   0.333   3.328   8.690
 2199SOL    HW2 6930   0.451   3.398   8.780
 2200SOL     OW 6931   0.402   2.613   9.046
 2200SOL    HW1 6932   0.470   2.668   8.999
 2200SOL    HW2 6933   0.442   2.525   9.073
 2201SOL     OW 6934   1.587   2.641   9.118
 2201SOL    HW1 6935   1.495   2.679   9.113
 2201SOL    HW2 6936   1.647   2.688   9.053
 2202SOL     OW 6937   1.013   1.967   9.218
 2202SOL    HW1 6938   1.019   2.052   9.166
 2202SOL    HW2 6939   1.045   1.891   9.161
 2203SOL     OW 6940   0.504   1.912   9.188
 2203SOL    HW1 6941   0.462   1.855   9.118
 2203SOL    HW2 6942   0.438   1.981   9.220
 2204SOL     OW 6943   0.573   2.732   8.477
 2204SOL    HW1 6944   0.617   2.821   8.468
 2204SOL    HW2 6945   0.510   2.732   8.554
 2205SOL     OW 6946   1.360   2.724   8.493
 2205SOL    HW1 6947   1.285   2.724   8.427
 2205SOL    HW2 6948   1.397   2.632   8.502
 2206SOL     OW 6949   1.209   2.387   7.723
 2206SOL    HW1 6950   1.222   2.303   7.777
 2206SOL    HW2 6951   1.180   2.461   7.783
 2207SOL     OW 6952   0.307   2.075   8.679
 2207SOL    HW1 6953   0.284   2.112   8.769
 2207SOL    HW2 6954   0.277   1.980   8.673
 2208SOL     OW 6955   0.037   3.172   8.730
 2208SOL    HW1 6956   0.090   3.123   8.798
 2208SOL    HW2 6957   0.059   3.270   8.735
 2209SOL     OW 6958   0.732   2.496   8.512
 2209SOL    HW1 6959   0.791   2.470   8.436
 2209SOL    HW2 6960   0.704   2.592   8.501
 2210SOL     OW 6961   1.728   2.797   9.302
 2210SOL    HW1 6962   1.682   2.790   9.213
 2210SOL    HW2 6963   1.666   2.841   9.368
 2211SOL     OW 6964   0.307   1.925   8.066
 2211SOL    HW1 6965   0.296   2.019   8.099
 2211SOL    HW2 6966   0.302   1.862   8.143
 2212SOL     OW 6967   1.622   2.229   7.822
 2212SOL    HW1 6968   1.624   2.153   7.886
 2212SOL    HW2 6969   1.574   2.306   7.862
 2213SOL     OW 6970   1.023   2.628   8.414
 2213SOL    HW1 6971   1.038   2.649   8.510
 2213SOL    HW2 6972   0.993   2.533   8.405
 2214SOL     OW 6973   0.980   3.435   9.148
 2214SOL    HW1 6974   0.960   3.479   9.060
 2214SOL    HW2 6975   1.019   3.344   9.132
 2215SOL     OW 6976   1.859   3.380   9.053
 2215SOL    HW1 6977   1.873   3.407   8.958
 2215SOL    HW2 6978   1.942   3.402   9.106
 2216SOL     OW 6979   0.350   2.760   9.252
 2216SOL    HW1 6980   0.426   2.804   9.300
 2216SOL    HW2 6981   0.385   2.713   9.170
 2217SOL     OW 6982   1.540   2.136   7.573
 2217SOL    HW1 6983   1.479   2.061   7.596
 2217SOL    HW2 6984   1.562   2.188   7.656
 2218SOL     OW 6985   1.303   2.700   7.490
 2218SOL    HW1 6986   1.337   2.607   7.505
 2218SOL    HW2 6987   1.321   2.727   7.395
 2219SOL     OW 6988   1.068   3.195   8.297
 2219SOL    HW1 6989   1.075   3.111   8.242
 2219SOL    HW2 6990   1.130   3.264   8.261
 2220SOL     OW 6991   0.319   2.672   8.397
 2220SOL    HW1 6992   0.412   2.708   8.402
 2220SOL    HW2 6993   0.313   2.587   8.449
 2221SOL     OW 6994   0.339   2.371   8.454
 2221SOL    HW1 6995   0.287   2.288   8.437
 2221SOL    HW2 6996   0.416   2.376   8.390
 2222SOL     OW 6997   1.138   2.242   9.126
 2222SOL    HW1 6998   1.093   2.305   9.190
 2222SOL    HW2 6999   1.231   2.273   9.109
 2223SOL     OW 7000   1.160   2.069   8.925
 2223SOL    HW1 7001   1.160   2.133   9.002
 2223SOL    HW2 7002   1.188   2.117   8.842
 2224SOL     OW 7003   0.008   3.188   7.648
 2224SOL    HW1 7004  -0.085   3.209   7.617
 2224SOL    HW2 7005   0.018   3.089   7.661
 2225SOL     OW 7006   0.088   3.663   8.375
 2225SOL    HW1 7007   0.046   3.577   8.348
 2225SOL    HW2 7008   0.182   3.666   8.341
 2226SOL     OW 7009   0.504   3.430   8.358
 2226SOL    HW1 7010   0.570   3.504   8.367
 2226SOL    HW2 7011   0.548   3.351   8.316
 2227SOL     OW 7012   1.002   2.658   8.686
 2227SOL    HW1 7013   1.043   2.626   8.772
 2227SOL    HW2 7014   0.906   2.631   8.683
 2228SOL     OW 7015   0.040   2.406   8.562
 2228SOL    HW1 7016   0.125   2.373   8.521
 2228SOL    HW2 7017   0.053   2.421   8.660
 2229SOL     OW 7018   0.189   2.382   9.170
 2229SOL    HW1 7019   0.248   2.342   9.100
 2229SOL    HW2 7020   0.131   2.453   9.129
 2230SOL     OW 7021   1.369   2.812   9.108
 2230SOL    HW1 7022   1.408   2.901   9.128
 2230SOL    HW2 7023   1.379   2.792   9.011
 2231SOL     OW 7024   0.815   2.434   7.773
 2231SOL    HW1 7025   0.822   2.345   7.727
 2231SOL    HW2 7026   0.721   2.468   7.765
 2232SOL     OW 7027   1.657   2.466   8.654
 2232SOL    HW1 7028   1.619   2.397   8.716
 2232SOL    HW2 7029   1.739   2.430   8.610
 2233SOL     OW 7030   0.252   3.426   9.192
 2233SOL    HW1 7031   0.222   3.483   9.268
 2233SOL    HW2 7032   0.245   3.329   9.218
 2234SOL     OW 7033   0.671   2.326   8.717
 2234SOL    HW1 7034   0.637   2.237   8.687
 2234SOL    HW2 7035   0.697   2.380   8.637
 2235SOL     OW 7036   0.930   3.540   8.913
 2235SOL    HW1 7037   0.906   3.522   8.818
 2235SOL    HW2 7038   0.960   3.634   8.923
 2236SOL     OW 7039   0.473   2.362   7.639
 2236SOL    HW1 7040   0.534   2.442   7.643
 2236SOL    HW2 7041   0.378   2.393   7.646
 2237SOL     OW 7042   0.159   2.999   8.914
 2237SOL    HW1 7043   0.181   2.938   8.990
 2237SOL    HW2 7044   0.169   2.950   8.828
 2238SOL     OW 7045   1.347   2.921   8.682
 2238SOL    HW1 7046   1.371   2.858   8.608
 2238SOL    HW2 7047   1.257   2.961   8.664
 2239SOL     OW 7048   1.302   2.717   7.757
 2239SOL    HW1 7049   1.216   2.686   7.799
 2239SOL    HW2 7050   1.298   2.703   7.658
 2240SOL     OW 7051   1.759   3.609   8.602
 2240SOL    HW1 7052   1.820   3.639   8.529
 2240SOL    HW2 7053   1.721   3.520   8.580
 2241SOL     OW 7054   1.252   3.593   8.576
 2241SOL    HW1 7055   1.336   3.598   8.522
 2241SOL    HW2 7056   1.229   3.497   8.594
 2242SOL     OW 7057   0.083   3.120   8.470
 2242SOL    HW1 7058   0.078   3.119   8.570
 2242SOL    HW2 7059   0.000   3.079   8.432
 2243SOL     OW 7060   0.688   3.524   9.164
 2243SOL    HW1 7061   0.632   3.605   9.173
 2243SOL    HW2 7062   0.740   3.528   9.078
 2244SOL     OW 7063   1.726   1.997   7.971
 2244SOL    HW1 7064   1.799   1.980   7.904
 2244SOL    HW2 7065   1.695   1.910   8.009
 2245SOL     OW 7066   1.388   3.435   7.925
 2245SOL    HW1 7067   1.455   3.447   7.851
 2245SOL    HW2 7068   1.348   3.524   7.948
 2246SOL     OW 7069   0.130   3.656   9.299
 2246SOL    HW1 7070   0.089   3.582   9.352
 2246SOL    HW2 7071   0.194   3.707   9.357
 2247SOL     OW 7072   1.280   2.789   8.120
 2247SOL    HW1 7073   1.340   2.708   8.122
 2247SOL    HW2 7074   1.320   2.858   8.060
 2248SOL     OW 7075   0.830   3.135   8.870
 2248SOL    HW1 7076   0.825   3.168   8.965
 2248SOL    HW2 7077   0.744   3.154   8.824
 2249SOL     OW 7078   0.672   3.478   7.602
 2249SOL    HW1 7079   0.681   3.488   7.503
 2249SOL    HW2 7080   0.632   3.389   7.623
 2250SOL     OW 7081   1.650   3.582   8.842
 2250SOL    HW1 7082   1.703   3.592   8.758
 2250SOL    HW2 7083   1.623   3.672   8.876
 2251SOL     OW 7084   1.841   2.037   8.411
 2251SOL    HW1 7085   1.880   1.952   8.375
 2251SOL    HW2 7086   1.743   2.039   8.392
 2252SOL     OW 7087   0.263   2.188   8.168
 2252SOL    HW1 7088   0.184   2.239   8.134
 2252SOL    HW2 7089   0.254   2.173   8.266
 2253SOL     OW 7090   1.194   3.474   7.479
 2253SOL    HW1 7091   1.200   3.381   7.516
 2253SOL    HW2 7092   1.135   3.474   7.399
 2254SOL     OW 7093   0.822   2.864   8.820
 2254SOL    HW1 7094   0.862   2.863   8.728
 2254SOL    HW2 7095   0.832   2.956   8.860
 2255SOL     OW 7096   0.916   2.772   7.739
 2255SOL    HW1 7097   0.979   2.810   7.671
 2255SOL    HW2 7098   0.956   2.689   7.778
 2256SOL     OW 7099   1.504   3.469   7.492
 2256SOL    HW1 7100   1.412   3.506   7.499
 2256SOL    HW2 7101   1.542   3.489   7.402
 2257SOL     OW 7102   0.372   3.150   8.938
 2257SOL    HW1 7103   0.359   3.243   8.904
 2257SOL    HW2 7104   0.288   3.098   8.925
 2258SOL     OW 7105   1.614   3.154   8.737
 2258SOL    HW1 7106   1.674   3.157   8.817
 2258SOL    HW2 7107   1.539   3.218   8.750
 2259SOL     OW 7108   1.039   2.960   8.144
 2259SOL    HW1 7109   0.969   2.913   8.198
 2259SOL    HW2 7110   1.098   2.892   8.101
 2260SOL     OW 7111   1.014   2.098   8.419
 2260SOL    HW1 7112   1.006   2.062   8.326
 2260SOL    HW2 7113   1.012   2.022   8.484
 2261SOL     OW 7114   0.590   3.349   7.939
 2261SOL    HW1 7115   0.632   3.291   7.869
 2261SOL    HW2 7116   0.546   3.428   7.895
 2262SOL     OW 7117   1.709   2.247   8.829
 2262SOL    HW1 7118   1.782   2.316   8.833
 2262SOL    HW2 7119   1.737   2.172   8.770
 2263SOL     OW 7120   0.255   3.210   7.738
 2263SOL    HW1 7121   0.159   3.211   7.711
 2263SOL    HW2 7122   0.267   3.263   7.822
 2264SOL     OW 7123   0.105   2.875   9.174
 2264SOL    HW1 7124   0.028   2.842   9.228
 2264SOL    HW2 7125   0.190   2.845   9.216
 2265SOL     OW 7126   0.672   2.065   8.937
 2265SOL    HW1 7127   0.762   2.049   8.897
 2265SOL    HW2 7128   0.680   2.070   9.036
 2266SOL     OW 7129   0.075   2.207   7.481
 2266SOL    HW1 7130  -0.017   2.179   7.452
 2266SOL    HW2 7131   0.106   2.284   7.425
 2267SOL     OW 7132   1.440   2.718   8.846
 2267SOL    HW1 7133   1.383   2.770   8.783
 2267SOL    HW2 7134   1.536   2.730   8.822
 2268SOL     OW 7135   0.072   2.028   7.766
 2268SOL    HW1 7136   0.055   2.111   7.712
 2268SOL    HW2 7137   0.162   1.991   7.744
 2269SOL     OW 7138   1.183   3.197   7.567
 2269SOL    HW1 7139   1.084   3.186   7.569
 2269SOL    HW2 7140   1.217   3.212   7.660
 2270SOL     OW 7141   0.613   2.704   8.879
 2270SOL    HW1 7142   0.669   2.785   8.862
 2270SOL    HW2 7143   0.672   2.624   8.882
 2271SOL     OW 7144   1.493   3.629   8.407
 2271SOL    HW1 7145   1.526   3.693   8.338
 2271SOL    HW2 7146   1.559   3.623   8.482
 2272SOL     OW 7147   0.716   2.427   9.156
 2272SOL    HW1 7148   0.735   2.492   9.230
 2272SOL    HW2 7149   0.776   2.347   9.165
 2273SOL     OW 7150   1.450   3.082   9.081
 2273SOL    HW1 7151   1.441   3.072   9.180
 2273SOL    HW2 7152   1.546   3.075   9.055
 2274SOL     OW 7153   0.390   3.603   9.008
 2274SOL    HW1 7154   0.299   3.644   9.006
 2274SOL    HW2 7155   0.383   3.509   9.040
 2275SOL     OW 7156   1.674   2.745   8.702
 2275SOL    HW1 7157   1.647   2.656   8.665
 2275SOL    HW2 7158   1.675   2.813   8.629
 2276SOL     OW 7159   1.225   2.187   7.897
 2276SOL    HW1 7160   1.290   2.113   7.886
 2276SOL    HW2 7161   1.245   2.237   7.981
 2277SOL     OW 7162   0.594   2.607   8.100
 2277SOL    HW1 7163   0.644   2.692   8.081
 2277SOL    HW2 7164   0.506   2.609   8.052
 2278SOL     OW 7165   1.777   2.204   9.090
 2278SOL    HW1 7166   1.760   2.235   8.996
 2278SOL    HW2 7167   1.693   2.167   9.128
 2279SOL     OW 7168   1.730   2.796   8.965
 2279SOL    HW1 7169   1.768   2.887   8.980
 2279SOL    HW2 7170   1.722   2.779   8.866
 2280SOL     OW 7171   0.859   3.236   7.464
 2280SOL    HW1 7172   0.813   3.251   7.552
 2280SOL    HW2 7173   0.903   3.321   7.434
 2281SOL     OW 7174   0.661   3.652   8.401
 2281SOL    HW1 7175   0.615   3.740   8.388
 2281SOL    HW2 7176   0.760   3.664   8.394
 2282SOL     OW 7177   0.859   2.818   8.309
 2282SOL    HW1 7178   0.913   2.749   8.357
 2282SOL    HW2 7179   0.827   2.887   8.375
 2283SOL     OW 7180   1.083   2.846   7.535
 2283SOL    HW1 7181   1.060   2.899   7.453
 2283SOL    HW2 7182   1.164   2.790   7.516
 2284SOL     OW 7183   1.861   3.431   8.299
 2284SOL    HW1 7184   1.790   3.419   8.229
 2284SOL    HW2 7185   1.862   3.352   8.359
 2285SOL     OW 7186   0.221   3.176   9.292
 2285SOL    HW1 7187   0.156   3.103   9.271
 2285SOL    HW2 7188   0.225   3.190   9.390
 2286SOL     OW 7189   0.079   3.102   8.101
 2286SOL    HW1 7190   0.078   3.055   8.189
 2286SOL    HW2 7191   0.161   3.074   8.050
 2287SOL     OW 7192   0.672   3.253   9.072
 2287SOL    HW1 7193   0.594   3.203   9.110
 2287SOL    HW2 7194   0.669   3.348   9.103
 2288SOL     OW 7195   1.824   2.054   8.675
 2288SOL    HW1 7196   1.820   1.964   8.719
 2288SOL    HW2 7197   1.827   2.043   8.576
 2289SOL     OW 7198   0.428   2.286   7.968
 2289SOL    HW1 7199   0.458   2.214   7.906
 2289SOL    HW2 7200   0.389   2.246   8.051
 2290SOL     OW 7201   1.705   3.349   8.552
 2290SOL    HW1 7202   1.612   3.324   8.525
 2290SOL    HW2 7203   1.731   3.299   8.634
 2291SOL     OW 7204   0.317   2.409   8.728
 2291SOL    HW1 7205   0.355   2.350   8.800
 2291SOL    HW2 7206   0.357   2.383   8.640
 2292SOL     OW 7207   0.812   3.448   8.135
 2292SOL    HW1 7208   0.844   3.458   8.041
 2292SOL    HW2 7209   0.733   3.386   8.137
 2293SOL     OW 7210   1.424   2.076   8.560
 2293SOL    HW1 7211   1.476   2.011   8.615
 2293SOL    HW2 7212   1.375   2.139   8.621
 2294SOL     OW 7213   1.001   1.896   8.602
 2294SOL    HW1 7214   0.938   1.824   8.571
 2294SOL    HW2 7215   1.094   1.860   8.602
 2295SOL     OW 7216   0.770   3.192   7.749
 2295SOL    HW1 7217   0.724   3.105   7.766
 2295SOL    HW2 7218   0.861   3.189   7.790
 2296SOL     OW 7219   0.618   3.429   8.732
 2296SOL    HW1 7220   0.613   3.511   8.789
 2296SOL    HW2 7221   0.707   3.426   8.687
 2297SOL     OW 7222   1.352   1.914   7.616
 2297SOL    HW1 7223   1.387   1.873   7.532
 2297SOL    HW2 7224   1.262   1.876   7.636
 2298SOL     OW 7225   1.300   2.315   8.139
 2298SOL    HW1 7226   1.241   2.395   8.143
 2298SOL    HW2 7227   1.315   2.280   8.232
 2299SOL     OW 7228   1.593   2.083   8.330
 2299SOL    HW1 7229   1.509   2.082   8.384
 2299SOL    HW2 7230   1.595   2.166   8.274
 2300SOL     OW 7231   0.039   2.939   7.748
 2300SOL    HW1 7232   0.138   2.928   7.739
 2300SOL    HW2 7233  -0.001   2.853   7.780
 2301SOL     OW 7234   0.875   3.508   7.785
 2301SOL    HW1 7235   0.798   3.473   7.731
 2301SOL    HW2 7236   0.843   3.579   7.847
 2302SOL     OW 7237   0.230   2.490   9.423
 2302SOL    HW1 7238   0.137   2.488   9.460
 2302SOL    HW2 7239   0.231   2.451   9.331
 2303SOL     OW 7240   0.225   2.137  10.306
 2303SOL    HW1 7241   0.260   2.120  10.398
 2303SOL    HW2 7242   0.137   2.092  10.294
 2304SOL     OW 7243   0.019   2.230   9.957
 2304SOL    HW1 7244  -0.063   2.273   9.996
 2304SOL    HW2 7245  -0.009   2.157   9.894
 2305SOL     OW 7246   0.569   3.137  10.475
 2305SOL    HW1 7247   0.476   3.130  10.438
 2305SOL    HW2 7248   0.580   3.226  10.519
 2306SOL     OW 7249   1.555   3.373  10.013
 2306SOL    HW1 7250   1.498   3.357  10.094
 2306SOL    HW2 7251   1.496   3.383   9.933
 2307SOL     OW 7252   1.135   2.565  10.027
 2307SOL    HW1 7253   1.192   2.643  10.002
 2307SOL    HW2 7254   1.075   2.591  10.103
 2308SOL     OW 7255   1.755   2.469   9.541
 2308SOL    HW1 7256   1.743   2.456   9.442
 2308SOL    HW2 7257   1.725   2.388   9.590
 2309SOL     OW 7258   0.768   3.006  10.333
 2309SOL    HW1 7259   0.690   3.023  10.393
 2309SOL    HW2 7260   0.802   3.093  10.297
 2310SOL     OW 7261   0.685   2.874   9.975
 2310SOL    HW1 7262   0.754   2.858  10.045
 2310SOL    HW2 7263   0.612   2.931  10.013
 2311SOL     OW 7264   0.335   3.297  10.371
 2311SOL    HW1 7265   0.257   3.266  10.318
 2311SOL    HW2 7266   0.393   3.355  10.314
 2312SOL     OW 7267   1.460   3.367  10.649
 2312SOL    HW1 7268   1.484   3.461  10.675
 2312SOL    HW2 7269   1.444   3.313  10.731
 2313SOL     OW 7270   0.438   2.254  10.809
 2313SOL    HW1 7271   0.520   2.198  10.818
 2313SOL    HW2 7272   0.357   2.196  10.813
 2314SOL     OW 7273   1.603   2.309  10.047
 2314SOL    HW1 7274   1.529   2.355   9.997
 2314SOL    HW2 7275   1.654   2.377  10.100
 2315SOL     OW 7276   0.231   3.575   9.793
 2315SOL    HW1 7277   0.265   3.652   9.847
 2315SOL    HW2 7278   0.275   3.575   9.703
 2316SOL     OW 7279   0.230   3.296   9.848
 2316SOL    HW1 7280   0.204   3.392   9.848
 2316SOL    HW2 7281   0.159   3.242   9.893
 2317SOL     OW 7282   0.240   2.953  10.196
 2317SOL    HW1 7283   0.254   2.869  10.248
 2317SOL    HW2 7284   0.185   3.017  10.251
 2318SOL     OW 7285   0.620   3.648  10.749
 2318SOL    HW1 7286   0.528   3.631  10.784
 2318SOL    HW2 7287   0.648   3.740  10.775
 2319SOL     OW 7288   0.606   2.826   9.433
 2319SOL    HW1 7289   0.613   2.910   9.379
 2319SOL    HW2 7290   0.652   2.839   9.521
 2320SOL     OW 7291   1.594   1.976  10.790
 2320SOL    HW1 7292   1.576   2.043  10.718
 2320SOL    HW2 7293   1.591   2.022  10.879
 2321SOL     OW 7294   0.122   2.505   9.873
 2321SOL    HW1 7295   0.077   2.417   9.890
 2321SOL    HW2 7296   0.121   2.559   9.957
 2322SOL     OW 7297   1.842   3.629   9.669
 2322SOL    HW1 7298   1.896   3.600   9.749
 2322SOL    HW2 7299   1.872   3.719   9.640
 2323SOL     OW 7300   0.027   3.458   9.427
 2323SOL    HW1 7301   0.008   3.362   9.448
 2323SOL    HW2 7302  -0.006   3.516   9.502
 2324SOL     OW 7303   1.689   2.784   9.922
 2324SOL    HW1 7304   1.784   2.755   9.930
 2324SOL    HW2 7305   1.681   2.849   9.847
 2325SOL     OW 7306   1.641   2.970   9.742
 2325SOL    HW1 7307   1.727   2.972   9.690
 2325SOL    HW2 7308   1.655   3.017   9.830
 2326SOL     OW 7309   0.613   3.227  10.036
 2326SOL    HW1 7310   0.564   3.140  10.045
 2326SOL    HW2 7311   0.590   3.270   9.949
 2327SOL     OW 7312   1.293   3.090  10.733
 2327SOL    HW1 7313   1.330   3.017  10.675
 2327SOL    HW2 7314   1.345   3.095  10.818
 2328SOL     OW 7315   0.809   1.866   9.812
 2328SOL    HW1 7316   0.849   1.957   9.803
 2328SOL    HW2 7317   0.709   1.874   9.818
 2329SOL     OW 7318   0.197   2.838  10.574
 2329SOL    HW1 7319   0.286   2.793  10.560
 2329SOL    HW2 7320   0.124   2.773  10.555
 2330SOL     OW 7321   1.525   2.861   9.500
 2330SOL    HW1 7322   1.462   2.785   9.513
 2330SOL    HW2 7323   1.573   2.879   9.586
 2331SOL     OW 7324   1.466   3.279  10.263
 2331SOL    HW1 7325   1.407   3.285  10.343
 2331SOL    HW2 7326   1.451   3.191  10.217
 2332SOL     OW 7327   1.667   3.576   9.882
 2332SOL    HW1 7328   1.626   3.553   9.794
 2332SOL    HW2 7329   1.649   3.502   9.947
 2333SOL     OW 7330   0.598   2.591   9.580
 2333SOL    HW1 7331   0.622   2.660   9.512
 2333SOL    HW2 7332   0.520   2.624   9.634
 2334SOL     OW 7333   1.281   2.207  10.254
 2334SOL    HW1 7334   1.195   2.157  10.241
 2334SOL    HW2 7335   1.343   2.153  10.310
 2335SOL     OW 7336   1.576   3.524   9.617
 2335SOL    HW1 7337   1.665   3.570   9.620
 2335SOL    HW2 7338   1.555   3.500   9.522
 2336SOL     OW 7339   0.807   2.467  10.775
 2336SOL    HW1 7340   0.760   2.464  10.864
 2336SOL    HW2 7341   0.756   2.412  10.709
 2337SOL     OW 7342   0.973   2.752  10.882
 2337SOL    HW1 7343   1.019   2.668  10.853
 2337SOL    HW2 7344   0.917   2.786  10.807
 2338SOL     OW 7345   0.991   2.272  10.552
 2338SOL    HW1 7346   0.914   2.306  10.606
 2338SOL    HW2 7347   0.957   2.221  10.473
 2339SOL     OW 7348   1.041   2.563   9.739
 2339SOL    HW1 7349   1.067   2.559   9.835
 2339SOL    HW2 7350   0.956   2.512   9.725
 2340SOL     OW 7351   0.076   2.673  10.099
 2340SOL    HW1 7352   0.175   2.661  10.108
 2340SOL    HW2 7353   0.052   2.768  10.120
 2341SOL     OW 7354   0.130   3.683  10.881
 2341SOL    HW1 7355   0.120   3.668  10.980
 2341SOL    HW2 7356   0.044   3.719  10.845
 2342SOL     OW 7357   0.865   2.210   9.505
 2342SOL    HW1 7358   0.924   2.273   9.456
 2342SOL    HW2 7359   0.884   2.116   9.476
 2343SOL     OW 7360   1.362   3.006   9.855
 2343SOL    HW1 7361   1.445   2.977   9.807
 2343SOL    HW2 7362   1.313   3.073   9.799
 2344SOL     OW 7363   0.550   2.058  10.195
 2344SOL    HW1 7364   0.545   2.053  10.295
 2344SOL    HW2 7365   0.552   2.154  10.166
 2345SOL     OW 7366   1.008   3.318   9.787
 2345SOL    HW1 7367   0.962   3.390   9.735
 2345SOL    HW2 7368   1.004   3.338   9.885
 2346SOL     OW 7369   0.351   3.663  10.163
 2346SOL    HW1 7370   0.401   3.577  10.169
 2346SOL    HW2 7371   0.416   3.740  10.160
 2347SOL     OW 7372   1.795   2.928  10.183
 2347SOL    HW1 7373   1.733   2.913  10.107
 2347SOL    HW2 7374   1.743   2.939  10.268
 2348SOL     OW 7375   0.321   2.805   9.552
 2348SOL    HW1 7376   0.403   2.844   9.510
 2348SOL    HW2 7377   0.294   2.723   9.503
 2349SOL     OW 7378   1.458   2.597  10.038
 2349SOL    HW1 7379   1.453   2.532  10.113
 2349SOL    HW2 7380   1.538   2.656  10.051
 2350SOL     OW 7381   1.111   3.638   9.547
 2350SOL    HW1 7382   1.051   3.576   9.597
 2350SOL    HW2 7383   1.142   3.594   9.462
 2351SOL     OW 7384   1.632   3.239   9.391
 2351SOL    HW1 7385   1.600   3.333   9.381
 2351SOL    HW2 7386   1.556   3.176   9.379
 2352SOL     OW 7387   0.464   3.605   9.633
 2352SOL    HW1 7388   0.497   3.644   9.719
 2352SOL    HW2 7389   0.540   3.598   9.568
 2353SOL     OW 7390   1.400   1.969   9.736
 2353SOL    HW1 7391   1.376   1.932   9.646
 2353SOL    HW2 7392   1.499   1.985   9.740
 2354SOL     OW 7393   0.249   3.647  10.551
 2354SOL    HW1 7394   0.306   3.582  10.601
 2354SOL    HW2 7395   0.233   3.614  10.458
 2355SOL     OW 7396   0.940   3.560  10.214
 2355SOL    HW1 7397   1.020   3.503  10.235
 2355SOL    HW2 7398   0.891   3.520  10.137
 2356SOL     OW 7399   0.382   2.562   9.790
 2356SOL    HW1 7400   0.427   2.472   9.787
 2356SOL    HW2 7401   0.288   2.551   9.823
 2357SOL     OW 7402   0.614   1.984   9.427
 2357SOL    HW1 7403   0.712   1.962   9.434
 2357SOL    HW2 7404   0.583   1.967   9.334
 2358SOL     OW 7405   0.888   3.376  10.505
 2358SOL    HW1 7406   0.865   3.351  10.411
 2358SOL    HW2 7407   0.949   3.307  10.544
 2359SOL     OW 7408   1.351   2.452  10.743
 2359SOL    HW1 7409   1.379   2.409  10.828
 2359SOL    HW2 7410   1.376   2.548  10.744
 2360SOL     OW 7411   0.803   3.264  10.234
 2360SOL    HW1 7412   0.893   3.278  10.192
 2360SOL    HW2 7413   0.732   3.266  10.163
 2361SOL     OW 7414   0.922   2.365  10.209
 2361SOL    HW1 7415   0.897   2.356  10.113
 2361SOL    HW2 7416   0.970   2.283  10.240
 2362SOL     OW 7417   0.539   1.926   9.822
 2362SOL    HW1 7418   0.458   1.927   9.880
 2362SOL    HW2 7419   0.542   2.009   9.767
 2363SOL     OW 7420   1.434   3.050   9.351
 2363SOL    HW1 7421   1.466   2.974   9.408
 2363SOL    HW2 7422   1.342   3.077   9.381
 2364SOL     OW 7423   0.297   1.897   9.481
 2364SOL    HW1 7424   0.346   1.981   9.460
 2364SOL    HW2 7425   0.359   1.832   9.526
 2365SOL     OW 7426   0.935   2.098   9.790
 2365SOL    HW1 7427   0.887   2.139   9.712
 2365SOL    HW2 7428   1.034   2.096   9.771
 2366SOL     OW 7429   1.227   3.432  10.103
 2366SOL    HW1 7430   1.248   3.506  10.038
 2366SOL    HW2 7431   1.295   3.432  10.176
 2367SOL     OW 7432   0.459   3.014  10.051
 2367SOL    HW1 7433   0.388   2.987  10.116
 2367SOL    HW2 7434   0.433   2.986   9.958
 2368SOL     OW 7435   1.271   3.659   9.901
 2368SOL    HW1 7436   1.315   3.723   9.837
 2368SOL    HW2 7437   1.221   3.711   9.971
 2369SOL     OW 7438   1.032   2.411   9.326
 2369SOL    HW1 7439   0.991   2.493   9.287
 2369SOL    HW2 7440   1.096   2.437   9.399
 2370SOL     OW 7441   0.078   2.418  10.696
 2370SOL    HW1 7442   0.170   2.417  10.655
 2370SOL    HW2 7443   0.072   2.492  10.763
 2371SOL     OW 7444   0.561   2.084  10.457
 2371SOL    HW1 7445   0.599   2.000  10.494
 2371SOL    HW2 7446   0.473   2.103  10.501
 2372SOL     OW 7447   0.866   2.316   9.952
 2372SOL    HW1 7448   0.834   2.388   9.890
 2372SOL    HW2 7449   0.890   2.235   9.899
 2373SOL     OW 7450   1.017   1.901  10.063
 2373SOL    HW1 7451   0.945   1.906   9.994
 2373SOL    HW2 7452   0.993   1.832  10.132
 2374SOL     OW 7453   1.429   3.035  10.177
 2374SOL    HW1 7454   1.374   2.951  10.170
 2374SOL    HW2 7455   1.455   3.064  10.085
 2375SOL     OW 7456   1.466   2.452  10.302
 2375SOL    HW1 7457   1.436   2.357  10.309
 2375SOL    HW2 7458   1.539   2.468  10.368
 2376SOL     OW 7459   1.857   2.695   9.687
 2376SOL    HW1 7460   1.899   2.631   9.751
 2376SOL    HW2 7461   1.819   2.644   9.609
 2377SOL     OW 7462   0.488   3.247   9.484
 2377SOL    HW1 7463   0.401   3.232   9.531
 2377SOL    HW2 7464   0.471   3.273   9.389
 2378SOL     OW 7465   1.664   3.142   9.967
 2378SOL    HW1 7466   1.763   3.150   9.981
 2378SOL    HW2 7467   1.619   3.226   9.998
 2379SOL     OW 7468   1.390   2.437   9.388
 2379SOL    HW1 7469   1.336   2.416   9.469
 2379SOL    HW2 7470   1.481   2.396   9.397
 2380SOL     OW 7471   0.527   2.118   9.638
 2380SOL    HW1 7472   0.554   2.059   9.563
 2380SOL    HW2 7473   0.527   2.213   9.607
 2381SOL     OW 7474   1.754   3.085  10.898
 2381SOL    HW1 7475   1.845   3.046  10.885
 2381SOL    HW2 7476   1.762   3.181  10.922
 2382SOL     OW 7477   1.064   3.209  10.650
 2382SOL    HW1 7478   0.984   3.186  10.705
 2382SOL    HW2 7479   1.147   3.183  10.699
 2383SOL     OW 7480   1.111   3.057  10.410
 2383SOL    HW1 7481   1.071   3.101  10.491
 2383SOL    HW2 7482   1.070   3.094  10.327
 2384SOL     OW 7483   1.638   2.961  10.389
 2384SOL    HW1 7484   1.643   3.042  10.448
 2384SOL    HW2 7485   1.552   2.963  10.338
 2385SOL     OW 7486   0.915   1.951  10.712
 2385SOL    HW1 7487   0.940   1.931  10.617
 2385SOL    HW2 7488   0.987   2.007  10.754
 2386SOL     OW 7489   0.705   2.912   9.678
 2386SOL    HW1 7490   0.691   2.919   9.777
 2386SOL    HW2 7491   0.789   2.861   9.660
 2387SOL     OW 7492   0.410   2.675  10.561
 2387SOL    HW1 7493   0.496   2.687  10.611
 2387SOL    HW2 7494   0.368   2.588  10.588
 2388SOL     OW 7495   1.274   2.248  10.572
 2388SOL    HW1 7496   1.295   2.322  10.636
 2388SOL    HW2 7497   1.185   2.265  10.529
 2389SOL     OW 7498   0.064   3.426  10.641
 2389SOL    HW1 7499   0.018   3.508  10.607
 2389SOL    HW2 7500   0.162   3.445  10.650
 2390SOL     OW 7501   0.367   2.962   9.811
 2390SOL    HW1 7502   0.360   3.045   9.755
 2390SOL    HW2 7503   0.371   2.882   9.751
 2391SOL     OW 7504   0.566   2.399  10.175
 2391SOL    HW1 7505   0.578   2.465  10.101
 2391SOL    HW2 7506   0.612   2.433  10.258
 2392SOL     OW 7507   1.252   3.210   9.698
 2392SOL    HW1 7508   1.302   3.287   9.738
 2392SOL    HW2 7509   1.157   3.212   9.730
 2393SOL     OW 7510   1.272   3.307  10.452
 2393SOL    HW1 7511   1.319   3.320  10.539
 2393SOL    HW2 7512   1.206   3.233  10.461
 2394SOL     OW 7513   1.582   2.501   9.782
 2394SOL    HW1 7514   1.551   2.562   9.855
 2394SOL    HW2 7515   1.632   2.553   9.713
 2395SOL     OW 7516   0.354   3.372  10.639
 2395SOL    HW1 7517   0.333   3.328  10.552
 2395SOL    HW2 7518   0.451   3.398  10.642
 2396SOL     OW 7519   0.402   2.613  10.908
 2396SOL    HW1 7520   0.470   2.668  10.861
 2396SOL    HW2 7521   0.442   2.525  10.935
 2397SOL     OW 7522   1.587   2.641  10.980
 2397SOL    HW1 7523   1.495   2.679  10.975
 2397SOL    HW2 7524   1.647   2.688  10.915
 2398SOL     OW 7525   0.573   2.732  10.339
 2398SOL    HW1 7526   0.617   2.821  10.330
 2398SOL    HW2 7527   0.510   2.732  10.416
 2399SOL     OW 7528   1.360   2.724  10.355
 2399SOL    HW1 7529   1.285   2.724  10.289
 2399SOL    HW2 7530   1.397   2.632  10.364
 2400SOL     OW 7531   1.209   2.387   9.585
 2400SOL    HW1 7532   1.222   2.303   9.639
 2400SOL    HW2 7533   1.180   2.461   9.645
 2401SOL     OW 7534   0.307   2.075  10.541
 2401SOL    HW1 7535   0.284   2.112  10.631
 2401SOL    HW2 7536   0.277   1.980  10.535
 2402SOL     OW 7537   0.037   3.172  10.592
 2402SOL    HW1 7538   0.090   3.123  10.660
 2402SOL    HW2 7539   0.059   3.270  10.597
 2403SOL     OW 7540   0.732   2.496  10.374
 2403SOL    HW1 7541   0.791   2.470  10.298
 2403SOL    HW2 7542   0.704   2.592  10.363
 2404SOL     OW 7543   0.307   1.925   9.928
 2404SOL    HW1 7544   0.296   2.019   9.961
 2404SOL    HW2 7545   0.302   1.862  10.005
 2405SOL     OW 7546   1.622   2.229   9.684
 2405SOL    HW1 7547   1.624   2.153   9.748
 2405SOL    HW2 7548   1.574   2.306   9.724
 2406SOL     OW 7549   1.023   2.628  10.276
 2406SOL    HW1 7550   1.038   2.649  10.372
 2406SOL    HW2 7551   0.993   2.533  10.267
 2407SOL     OW 7552   0.980   3.435  11.010
 2407SOL    HW1 7553   0.960   3.479  10.922
 2407SOL    HW2 7554   1.019   3.344  10.994
 2408SOL     OW 7555   1.540   2.136   9.435
 2408SOL    HW1 7556   1.479   2.061   9.458
 2408SOL    HW2 7557   1.562   2.188   9.518
 2409SOL     OW 7558   1.303   2.700   9.352
 2409SOL    HW1 7559   1.337   2.607   9.367
 2409SOL    HW2 7560   1.321   2.727   9.257
 2410SOL     OW 7561   1.068   3.195  10.159
 2410SOL    HW1 7562   1.075   3.111  10.104
 2410SOL    HW2 7563   1.130   3.264  10.123
 2411SOL     OW 7564   0.319   2.672  10.259
 2411SOL    HW1 7565   0.412   2.708  10.264
 2411SOL    HW2 7566   0.313   2.587  10.311
 2412SOL     OW 7567   0.339   2.371  10.316
 2412SOL    HW1 7568   0.287   2.288  10.299
 2412SOL    HW2 7569   0.416   2.376  10.252
 2413SOL     OW 7570   1.138   2.242  10.988
 2413SOL    HW1 7571   1.093   2.305  11.052
 2413SOL    HW2 7572   1.231   2.273  10.971
 2414SOL     OW 7573   1.160   2.069  10.787
 2414SOL    HW1 7574   1.160   2.133  10.864
 2414SOL    HW2 7575   1.188   2.117  10.704
 2415SOL     OW 7576   0.008   3.188   9.510
 2415SOL    HW1 7577  -0.085   3.209   9.479
 2415SOL    HW2 7578   0.018   3.089   9.523
 2416SOL     OW 7579   0.088   3.663  10.237
 2416SOL    HW1 7580   0.046   3.577  10.210
 2416SOL    HW2 7581   0.182   3.666  10.203
 2417SOL     OW 7582   0.504   3.430  10.220
 2417SOL    HW1 7583   0.570   3.504  10.229
 2417SOL    HW2 7584   0.548   3.351  10.178
 2418SOL     OW 7585   1.002   2.658  10.548
 2418SOL    HW1 7586   1.043   2.626  10.634
 2418SOL    HW2 7587   0.906   2.631  10.545
 2419SOL     OW 7588   0.040   2.406  10.424
 2419SOL    HW1 7589   0.125   2.373  10.383
 2419SOL    HW2 7590   0.053   2.421  10.522
 2420SOL     OW 7591   0.815   2.434   9.635
 2420SOL    HW1 7592   0.822   2.345   9.589
 2420SOL    HW2 7593   0.721   2.468   9.627
 2421SOL     OW 7594   1.657   2.466  10.516
 2421SOL    HW1 7595   1.619   2.397  10.578
 2421SOL    HW2 7596   1.739   2.430  10.472
 2422SOL     OW 7597   0.252   3.426  11.054
 2422SOL    HW1 7598   0.222   3.483  11.130
 2422SOL    HW2 7599   0.245   3.329  11.080
 2423SOL     OW 7600   0.671   2.326  10.579
 2423SOL    HW1 7601   0.637   2.237  10.549
 2423SOL    HW2 7602   0.697   2.380  10.499
 2424SOL     OW 7603   0.930   3.540  10.775
 2424SOL    HW1 7604   0.906   3.522  10.680
 2424SOL    HW2 7605   0.960   3.634  10.785
 2425SOL     OW 7606   0.473   2.362   9.501
 2425SOL    HW1 7607   0.534   2.442   9.505
 2425SOL    HW2 7608   0.378   2.393   9.508
 2426SOL     OW 7609   0.159   2.999  10.776
 2426SOL    HW1 7610   0.181   2.938  10.852
 2426SOL    HW2 7611   0.169   2.950  10.690
 2427SOL     OW 7612   1.347   2.921  10.544
 2427SOL    HW1 7613   1.371   2.858  10.470
 2427SOL    HW2 7614   1.257   2.961  10.526
 2428SOL     OW 7615   1.302   2.717   9.619
 2428SOL    HW1 7616   1.216   2.686   9.661
 2428SOL    HW2 7617   1.298   2.703   9.520
 2429SOL     OW 7618   1.759   3.609  10.464
 2429SOL    HW1 7619   1.820   3.639  10.391
 2429SOL    HW2 7620   1.721   3.520  10.442
 2430SOL     OW 7621   1.252   3.593  10.438
 2430SOL    HW1 7622   1.336   3.598  10.384
 2430SOL    HW2 7623   1.229   3.497  10.456
 2431SOL     OW 7624   0.083   3.120  10.332
 2431SOL    HW1 7625   0.078   3.119  10.432
 2431SOL    HW2 7626   0.000   3.079  10.294
 2432SOL     OW 7627   1.726   1.997   9.833
 2432SOL    HW1 7628   1.799   1.980   9.766
 2432SOL    HW2 7629   1.695   1.910   9.871
 2433SOL     OW 7630   1.388   3.435   9.787
 2433SOL    HW1 7631   1.455   3.447   9.713
 2433SOL    HW2 7632   1.348   3.524   9.810
 2434SOL     OW 7633   0.130   3.656  11.161
 2434SOL    HW1 7634   0.089   3.582  11.214
 2434SOL    HW2 7635   0.194   3.707  11.219
 2435SOL     OW 7636   1.280   2.789   9.982
 2435SOL    HW1 7637   1.340   2.708   9.984
 2435SOL    HW2 7638   1.320   2.858   9.922
 2436SOL     OW 7639   0.672   3.478   9.464
 2436SOL    HW1 7640   0.681   3.488   9.365
 2436SOL    HW2 7641   0.632   3.389   9.485
 2437SOL     OW 7642   1.650   3.582  10.704
 2437SOL    HW1 7643   1.703   3.592  10.620
 2437SOL    HW2 7644   1.623   3.672  10.738
 2438SOL     OW 7645   1.841   2.037  10.273
 2438SOL    HW1 7646   1.880   1.952  10.237
 2438SOL    HW2 7647   1.743   2.039  10.254
 2439SOL     OW 7648   0.263   2.188  10.030
 2439SOL    HW1 7649   0.184   2.239   9.996
 2439SOL    HW2 7650   0.254   2.173  10.128
 2440SOL     OW 7651   1.194   3.474   9.341
 2440SOL    HW1 7652   1.200   3.381   9.378
 2440SOL    HW2 7653   1.135   3.474   9.261
 2441SOL     OW 7654   0.822   2.864  10.682
 2441SOL    HW1 7655   0.862   2.863  10.590
 2441SOL    HW2 7656   0.832   2.956  10.722
 2442SOL     OW 7657   0.916   2.772   9.601
 2442SOL    HW1 7658   0.979   2.810   9.533
 2442SOL    HW2 7659   0.956   2.689   9.640
 2443SOL     OW 7660   1.504   3.469   9.354
 2443SOL    HW1 7661   1.412   3.506   9.361
 2443SOL    HW2 7662   1.542   3.489   9.264
 2444SOL     OW 7663   0.372   3.150  10.800
 2444SOL    HW1 7664   0.359   3.243  10.766
 2444SOL    HW2 7665   0.288   3.098  10.787
 2445SOL     OW 7666   1.614   3.154  10.599
 2445SOL    HW1 7667   1.674   3.157  10.679
 2445SOL    HW2 7668   1.539   3.218  10.612
 2446SOL     OW 7669   1.039   2.960  10.006
 2446SOL    HW1 7670   0.969   2.913  10.060
 2446SOL    HW2 7671   1.098   2.892   9.963
 2447SOL     OW 7672   1.014   2.098  10.281
 2447SOL    HW1 7673   1.006   2.062  10.188
 2447SOL    HW2 7674   1.012   2.022  10.346
 2448SOL     OW 7675   0.590   3.349   9.801
 2448SOL    HW1 7676   0.632   3.291   9.731
 2448SOL    HW2 7677   0.546   3.428   9.757
 2449SOL     OW 7678   1.709   2.247  10.691
 2449SOL    HW1 7679   1.782   2.316  10.695
 2449SOL    HW2 7680   1.737   2.172  10.632
 2450SOL     OW 7681   0.255   3.210   9.600
 2450SOL    HW1 7682   0.159   3.211   9.573
 2450SOL    HW2 7683   0.267   3.263   9.684
 2451SOL     OW 7684   0.105   2.875  11.036
 2451SOL    HW1 7685   0.028   2.842  11.090
 2451SOL    HW2 7686   0.190   2.845  11.078
 2452SOL     OW 7687   0.672   2.065  10.799
 2452SOL    HW1 7688   0.762   2.049  10.759
 2452SOL    HW2 7689   0.680   2.070  10.898
 2453SOL     OW 7690   0.075   2.207   9.343
 2453SOL    HW1 7691  -0.017   2.179   9.314
 2453SOL    HW2 7692   0.106   2.284   9.287
 2454SOL     OW 7693   1.440   2.718  10.708
 2454SOL    HW1 7694   1.383   2.770  10.645
 2454SOL    HW2 7695   1.536   2.730  10.684
 2455SOL     OW 7696   0.072   2.028   9.628
 2455SOL    HW1 7697   0.055   2.111   9.574
 2455SOL    HW2 7698   0.162   1.991   9.606
 2456SOL     OW 7699   1.183   3.197   9.429
 2456SOL    HW1 7700   1.084   3.186   9.431
 2456SOL    HW2 7701   1.217   3.212   9.522
 2457SOL     OW 7702   0.613   2.704  10.741
 2457SOL    HW1 7703   0.669   2.785  10.724
 2457SOL    HW2 7704   0.672   2.624  10.744
 2458SOL     OW 7705   1.493   3.629  10.269
 2458SOL    HW1 7706   1.526   3.693  10.200
 2458SOL    HW2 7707   1.559   3.623  10.344
 2459SOL     OW 7708   0.716   2.427  11.018
 2459SOL    HW1 7709   0.735   2.492  11.092
 2459SOL    HW2 7710   0.776   2.347  11.027
 2460SOL     OW 7711   0.390   3.603  10.870
 2460SOL    HW1 7712   0.299   3.644  10.868
 2460SOL    HW2 7713   0.383   3.509  10.902
 2461SOL     OW 7714   1.674   2.745  10.564
 2461SOL    HW1 7715   1.647   2.656  10.527
 2461SOL    HW2 7716   1.675   2.813  10.491
 2462SOL     OW 7717   1.225   2.187   9.759
 2462SOL    HW1 7718   1.290   2.113   9.748
 2462SOL    HW2 7719   1.245   2.237   9.843
 2463SOL     OW 7720   0.594   2.607   9.962
 2463SOL    HW1 7721   0.644   2.692   9.943
 2463SOL    HW2 7722   0.506   2.609   9.914
 2464SOL     OW 7723   1.777   2.204  10.952
 2464SOL    HW1 7724   1.760   2.235  10.858
 2464SOL    HW2 7725   1.693   2.167  10.990
 2465SOL     OW 7726   1.730   2.796  10.827
 2465SOL    HW1 7727   1.768   2.887  10.842
 2465SOL    HW2 7728   1.722   2.779  10.728
 2466SOL     OW 7729   0.859   3.236   9.326
 2466SOL    HW1 7730   0.813   3.251   9.414
 2466SOL    HW2 7731   0.903   3.321   9.296
 2467SOL     OW 7732   0.661   3.652  10.263
 2467SOL    HW1 7733   0.615   3.740  10.250
 2467SOL    HW2 7734   0.760   3.664  10.256
 2468SOL     OW 7735   0.859   2.818  10.171
 2468SOL    HW1 7736   0.913   2.749  10.219
 2468SOL    HW2 7737   0.827   2.887  10.237
 2469SOL     OW 7738   1.083   2.846   9.397
 2469SOL    HW1 7739   1.060   2.899   9.315
 2469SOL    HW2 7740   1.164   2.790   9.378
 2470SOL     OW 7741   1.861   3.431  10.161
 2470SOL    HW1 7742   1.790   3.419  10.091
 2470SOL    HW2 7743   1.862   3.352  10.221
 2471SOL     OW 7744   0.079   3.102   9.963
 2471SOL    HW1 7745   0.078   3.055  10.051
 2471SOL    HW2 7746   0.161   3.074   9.912
 2472SOL     OW 7747   1.824   2.054  10.537
 2472SOL    HW1 7748   1.820   1.964  10.581
 2472SOL    HW2 7749   1.827   2.043  10.438
 2473SOL     OW 7750   0.428   2.286   9.830
 2473SOL    HW1 7751   0.458   2.214   9.768
 2473SOL    HW2 7752   0.389   2.246   9.913
 2474SOL     OW 7753   1.705   3.349  10.414
 2474SOL    HW1 7754   1.612   3.324  10.387
 2474SOL    HW2 7755   1.731   3.299  10.496
 2475SOL     OW 7756   0.317   2.409  10.590
 2475SOL    HW1 7757   0.355   2.350  10.662
 2475SOL    HW2 7758   0.357   2.383  10.502
 2476SOL     OW 7759   0.812   3.448   9.997
 2476SOL    HW1 7760   0.844   3.458   9.903
 2476SOL    HW2 7761   0.733   3.386   9.999
 2477SOL     OW 7762   1.424   2.076  10.422
 2477SOL    HW1 7763   1.476   2.011  10.477
 2477SOL    HW2 7764   1.375   2.139  10.483
 2478SOL     OW 7765   1.001   1.896  10.464
 2478SOL    HW1 7766   0.938   1.824  10.433
 2478SOL    HW2 7767   1.094   1.860  10.464
 2479SOL     OW 7768   0.770   3.192   9.611
 2479SOL    HW1 7769   0.724   3.105   9.628
 2479SOL    HW2 7770   0.861   3.189   9.652
 2480SOL     OW 7771   0.618   3.429  10.594
 2480SOL    HW1 7772   0.613   3.511  10.651
 2480SOL    HW2 7773   0.707   3.426  10.549
 2481SOL     OW 7774   1.352   1.914   9.478
 2481SOL    HW1 7775   1.387   1.873   9.394
 2481SOL    HW2 7776   1.262   1.876   9.498
 2482SOL     OW 7777   1.300   2.315  10.001
 2482SOL    HW1 7778   1.241   2.395  10.005
 2482SOL    HW2 7779   1.315   2.280  10.094
 2483SOL     OW 7780   1.593   2.083  10.192
 2483SOL    HW1 7781   1.509   2.082  10.246
 2483SOL    HW2 7782   1.595   2.166  10.136
 2484SOL     OW 7783   0.039   2.939   9.610
 2484SOL    HW1 7784   0.138   2.928   9.601
 2484SOL    HW2 7785  -0.001   2.853   9.642
 2485SOL     OW 7786   0.875   3.508   9.647
 2485SOL    HW1 7787   0.798   3.473   9.593
 2485SOL    HW2 7788   0.843   3.579   9.709
 2486SOL     OW 7789   0.230   4.352   0.113
 2486SOL    HW1 7790   0.137   4.350   0.150
 2486SOL    HW2 7791   0.231   4.313   0.021
 2487SOL     OW 7792   0.225   3.999   0.996
 2487SOL    HW1 7793   0.260   3.982   1.088
 2487SOL    HW2 7794   0.137   3.954   0.984
 2488SOL     OW 7795   0.019   4.092   0.647
 2488SOL    HW1 7796  -0.063   4.135   0.686
 2488SOL    HW2 7797  -0.009   4.019   0.584
 2489SOL     OW 7798   1.755   4.331   0.231
 2489SOL    HW1 7799   1.743   4.318   0.132
 2489SOL    HW2 7800   1.725   4.250   0.280
 2490SOL     OW 7801   0.685   4.736   0.665
 2490SOL    HW1 7802   0.754   4.720   0.735
 2490SOL    HW2 7803   0.612   4.793   0.703
 2491SOL     OW 7804   0.438   4.116   1.499
 2491SOL    HW1 7805   0.520   4.060   1.508
 2491SOL    HW2 7806   0.357   4.058   1.503
 2492SOL     OW 7807   1.603   4.171   0.737
 2492SOL    HW1 7808   1.529   4.217   0.687
 2492SOL    HW2 7809   1.654   4.239   0.790
 2493SOL     OW 7810   1.594   3.838   1.480
 2493SOL    HW1 7811   1.576   3.905   1.408
 2493SOL    HW2 7812   1.591   3.884   1.569
 2494SOL     OW 7813   0.122   4.367   0.563
 2494SOL    HW1 7814   0.077   4.279   0.580
 2494SOL    HW2 7815   0.121   4.421   0.647
 2495SOL     OW 7816   0.113   4.461   1.597
 2495SOL    HW1 7817   0.201   4.448   1.642
 2495SOL    HW2 7818   0.100   4.558   1.575
 2496SOL     OW 7819   0.809   3.728   0.502
 2496SOL    HW1 7820   0.849   3.819   0.493
 2496SOL    HW2 7821   0.709   3.736   0.508
 2497SOL     OW 7822   0.317   3.975   1.801
 2497SOL    HW1 7823   0.388   4.046   1.807
 2497SOL    HW2 7824   0.229   4.014   1.829
 2498SOL     OW 7825   1.281   4.069   0.944
 2498SOL    HW1 7826   1.195   4.019   0.931
 2498SOL    HW2 7827   1.343   4.015   1.000
 2499SOL     OW 7828   0.807   4.329   1.465
 2499SOL    HW1 7829   0.760   4.326   1.554
 2499SOL    HW2 7830   0.756   4.274   1.399
 2500SOL     OW 7831   1.394   4.193   1.674
 2500SOL    HW1 7832   1.374   4.236   1.762
 2500SOL    HW2 7833   1.472   4.131   1.683
 2501SOL     OW 7834   0.991   4.134   1.242
 2501SOL    HW1 7835   0.914   4.168   1.296
 2501SOL    HW2 7836   0.957   4.083   1.163
 2502SOL     OW 7837   1.041   4.425   0.429
 2502SOL    HW1 7838   1.067   4.421   0.525
 2502SOL    HW2 7839   0.956   4.374   0.415
 2503SOL     OW 7840   0.076   4.535   0.789
 2503SOL    HW1 7841   0.175   4.523   0.798
 2503SOL    HW2 7842   0.052   4.630   0.810
 2504SOL     OW 7843   0.865   4.072   0.195
 2504SOL    HW1 7844   0.924   4.135   0.146
 2504SOL    HW2 7845   0.884   3.978   0.166
 2505SOL     OW 7846   1.719   4.309   1.831
 2505SOL    HW1 7847   1.693   4.398   1.795
 2505SOL    HW2 7848   1.717   4.241   1.758
 2506SOL     OW 7849   0.550   3.920   0.885
 2506SOL    HW1 7850   0.545   3.915   0.985
 2506SOL    HW2 7851   0.552   4.016   0.856
 2507SOL     OW 7852   1.458   4.459   0.728
 2507SOL    HW1 7853   1.453   4.394   0.803
 2507SOL    HW2 7854   1.538   4.518   0.741
 2508SOL     OW 7855   0.202   4.009   1.498
 2508SOL    HW1 7856   0.122   4.069   1.485
 2508SOL    HW2 7857   0.192   3.960   1.584
 2509SOL     OW 7858   1.400   3.831   0.426
 2509SOL    HW1 7859   1.376   3.794   0.336
 2509SOL    HW2 7860   1.499   3.847   0.430
 2510SOL     OW 7861   0.382   4.424   0.480
 2510SOL    HW1 7862   0.427   4.334   0.477
 2510SOL    HW2 7863   0.288   4.413   0.513
 2511SOL     OW 7864   1.547   3.946   1.729
 2511SOL    HW1 7865   1.542   3.983   1.821
 2511SOL    HW2 7866   1.475   3.877   1.717
 2512SOL     OW 7867   0.614   3.846   0.117
 2512SOL    HW1 7868   0.712   3.824   0.124
 2512SOL    HW2 7869   0.583   3.829   0.024
 2513SOL     OW 7870   0.781   3.988   1.749
 2513SOL    HW1 7871   0.848   3.927   1.792
 2513SOL    HW2 7872   0.708   4.007   1.814
 2514SOL     OW 7873   1.351   4.314   1.433
 2514SOL    HW1 7874   1.379   4.271   1.518
 2514SOL    HW2 7875   1.376   4.410   1.434
 2515SOL     OW 7876   0.922   4.227   0.899
 2515SOL    HW1 7877   0.897   4.218   0.803
 2515SOL    HW2 7878   0.970   4.145   0.930
 2516SOL     OW 7879   0.539   3.788   0.512
 2516SOL    HW1 7880   0.458   3.789   0.570
 2516SOL    HW2 7881   0.542   3.871   0.457
 2517SOL     OW 7882   0.297   3.759   0.171
 2517SOL    HW1 7883   0.346   3.843   0.150
 2517SOL    HW2 7884   0.359   3.694   0.216
 2518SOL     OW 7885   0.935   3.960   0.480
 2518SOL    HW1 7886   0.887   4.001   0.402
 2518SOL    HW2 7887   1.034   3.958   0.461
 2519SOL     OW 7888   1.076   4.407   1.464
 2519SOL    HW1 7889   0.996   4.346   1.467
 2519SOL    HW2 7890   1.157   4.354   1.440
 2520SOL     OW 7891   1.032   4.273   0.016
 2520SOL    HW1 7892   0.991   4.355  -0.023
 2520SOL    HW2 7893   1.096   4.299   0.089
 2521SOL     OW 7894   0.078   4.280   1.386
 2521SOL    HW1 7895   0.170   4.279   1.345
 2521SOL    HW2 7896   0.072   4.354   1.453
 2522SOL     OW 7897   0.561   3.946   1.147
 2522SOL    HW1 7898   0.599   3.862   1.184
 2522SOL    HW2 7899   0.473   3.965   1.191
 2523SOL     OW 7900   0.866   4.178   0.642
 2523SOL    HW1 7901   0.834   4.250   0.580
 2523SOL    HW2 7902   0.890   4.097   0.589
 2524SOL     OW 7903   1.017   3.763   0.753
 2524SOL    HW1 7904   0.945   3.768   0.684
 2524SOL    HW2 7905   0.993   3.694   0.822
 2525SOL     OW 7906   1.466   4.314   0.992
 2525SOL    HW1 7907   1.436   4.219   0.999
 2525SOL    HW2 7908   1.539   4.330   1.058
 2526SOL     OW 7909   1.390   4.299   0.078
 2526SOL    HW1 7910   1.336   4.278   0.159
 2526SOL    HW2 7911   1.481   4.258   0.087
 2527SOL     OW 7912   0.527   3.980   0.328
 2527SOL    HW1 7913   0.554   3.921   0.253
 2527SOL    HW2 7914   0.527   4.075   0.297
 2528SOL     OW 7915   0.915   3.813   1.402
 2528SOL    HW1 7916   0.940   3.793   1.307
 2528SOL    HW2 7917   0.987   3.869   1.444
 2529SOL     OW 7918   0.410   4.537   1.251
 2529SOL    HW1 7919   0.496   4.549   1.301
 2529SOL    HW2 7920   0.368   4.450   1.278
 2530SOL     OW 7921   1.274   4.110   1.262
 2530SOL    HW1 7922   1.295   4.184   1.326
 2530SOL    HW2 7923   1.185   4.127   1.219
 2531SOL     OW 7924   0.566   4.261   0.865
 2531SOL    HW1 7925   0.578   4.327   0.791
 2531SOL    HW2 7926   0.612   4.295   0.948
 2532SOL     OW 7927   1.582   4.363   0.472
 2532SOL    HW1 7928   1.551   4.424   0.545
 2532SOL    HW2 7929   1.632   4.415   0.403
 2533SOL     OW 7930   1.013   3.829   1.770
 2533SOL    HW1 7931   1.019   3.914   1.718
 2533SOL    HW2 7932   1.045   3.753   1.713
 2534SOL     OW 7933   0.504   3.774   1.740
 2534SOL    HW1 7934   0.462   3.717   1.670
 2534SOL    HW2 7935   0.438   3.843   1.772
 2535SOL     OW 7936   1.209   4.249   0.275
 2535SOL    HW1 7937   1.222   4.165   0.329
 2535SOL    HW2 7938   1.180   4.323   0.335
 2536SOL     OW 7939   0.307   3.937   1.231
 2536SOL    HW1 7940   0.284   3.974   1.321
 2536SOL    HW2 7941   0.277   3.842   1.225
 2537SOL     OW 7942   0.732   4.358   1.064
 2537SOL    HW1 7943   0.791   4.332   0.988
 2537SOL    HW2 7944   0.704   4.454   1.053
 2538SOL     OW 7945   1.728   4.659   1.854
 2538SOL    HW1 7946   1.682   4.652   1.765
 2538SOL    HW2 7947   1.666   4.703   1.920
 2539SOL     OW 7948   0.307   3.787   0.618
 2539SOL    HW1 7949   0.296   3.881   0.651
 2539SOL    HW2 7950   0.302   3.724   0.695
 2540SOL     OW 7951   1.622   4.091   0.374
 2540SOL    HW1 7952   1.624   4.015   0.438
 2540SOL    HW2 7953   1.574   4.168   0.414
 2541SOL     OW 7954   1.540   3.998   0.125
 2541SOL    HW1 7955   1.479   3.923   0.148
 2541SOL    HW2 7956   1.562   4.050   0.208
 2542SOL     OW 7957   0.319   4.534   0.949
 2542SOL    HW1 7958   0.412   4.570   0.954
 2542SOL    HW2 7959   0.313   4.449   1.001
 2543SOL     OW 7960   0.339   4.233   1.006
 2543SOL    HW1 7961   0.287   4.150   0.989
 2543SOL    HW2 7962   0.416   4.238   0.942
 2544SOL     OW 7963   1.138   4.104   1.678
 2544SOL    HW1 7964   1.093   4.167   1.742
 2544SOL    HW2 7965   1.231   4.135   1.661
 2545SOL     OW 7966   1.160   3.931   1.477
 2545SOL    HW1 7967   1.160   3.995   1.554
 2545SOL    HW2 7968   1.188   3.979   1.394
 2546SOL     OW 7969   0.040   4.268   1.114
 2546SOL    HW1 7970   0.125   4.235   1.073
 2546SOL    HW2 7971   0.053   4.283   1.212
 2547SOL     OW 7972   0.189   4.244   1.722
 2547SOL    HW1 7973   0.248   4.204   1.652
 2547SOL    HW2 7974   0.131   4.315   1.681
 2548SOL     OW 7975   0.815   4.296   0.325
 2548SOL    HW1 7976   0.822   4.207   0.279
 2548SOL    HW2 7977   0.721   4.330   0.317
 2549SOL     OW 7978   1.657   4.328   1.206
 2549SOL    HW1 7979   1.619   4.259   1.268
 2549SOL    HW2 7980   1.739   4.292   1.162
 2550SOL     OW 7981   0.671   4.188   1.269
 2550SOL    HW1 7982   0.637   4.099   1.239
 2550SOL    HW2 7983   0.697   4.242   1.189
 2551SOL     OW 7984   0.473   4.224   0.191
 2551SOL    HW1 7985   0.534   4.304   0.195
 2551SOL    HW2 7986   0.378   4.255   0.198
 2552SOL     OW 7987   0.903   3.810   0.133
 2552SOL    HW1 7988   0.954   3.811   0.047
 2552SOL    HW2 7989   0.959   3.768   0.204
 2553SOL     OW 7990   1.726   3.859   0.523
 2553SOL    HW1 7991   1.799   3.842   0.456
 2553SOL    HW2 7992   1.695   3.772   0.561
 2554SOL     OW 7993   1.280   4.651   0.672
 2554SOL    HW1 7994   1.340   4.570   0.674
 2554SOL    HW2 7995   1.320   4.720   0.612
 2555SOL     OW 7996   1.841   3.899   0.963
 2555SOL    HW1 7997   1.880   3.814   0.927
 2555SOL    HW2 7998   1.743   3.901   0.944
 2556SOL     OW 7999   0.263   4.050   0.720
 2556SOL    HW1 8000   0.184   4.101   0.686
 2556SOL    HW2 8001   0.254   4.035   0.818
 2557SOL     OW 8002   1.039   4.822   0.696
 2557SOL    HW1 8003   0.969   4.775   0.750
 2557SOL    HW2 8004   1.098   4.754   0.653
 2558SOL     OW 8005   1.014   3.960   0.971
 2558SOL    HW1 8006   1.006   3.924   0.878
 2558SOL    HW2 8007   1.012   3.884   1.036
 2559SOL     OW 8008   1.709   4.109   1.381
 2559SOL    HW1 8009   1.782   4.178   1.385
 2559SOL    HW2 8010   1.737   4.034   1.322
 2560SOL     OW 8011   0.672   3.927   1.489
 2560SOL    HW1 8012   0.762   3.911   1.449
 2560SOL    HW2 8013   0.680   3.932   1.588
 2561SOL     OW 8014   0.075   4.069   0.033
 2561SOL    HW1 8015  -0.017   4.041   0.004
 2561SOL    HW2 8016   0.106   4.146  -0.023
 2562SOL     OW 8017   0.072   3.890   0.318
 2562SOL    HW1 8018   0.055   3.973   0.264
 2562SOL    HW2 8019   0.162   3.853   0.296
 2563SOL     OW 8020   0.716   4.289   1.708
 2563SOL    HW1 8021   0.735   4.354   1.782
 2563SOL    HW2 8022   0.776   4.209   1.717
 2564SOL     OW 8023   1.225   4.049   0.449
 2564SOL    HW1 8024   1.290   3.975   0.438
 2564SOL    HW2 8025   1.245   4.099   0.533
 2565SOL     OW 8026   1.777   4.066   1.642
 2565SOL    HW1 8027   1.760   4.097   1.548
 2565SOL    HW2 8028   1.693   4.029   1.680
 2566SOL     OW 8029   1.824   3.916   1.227
 2566SOL    HW1 8030   1.820   3.826   1.271
 2566SOL    HW2 8031   1.827   3.905   1.128
 2567SOL     OW 8032   0.428   4.148   0.520
 2567SOL    HW1 8033   0.458   4.076   0.458
 2567SOL    HW2 8034   0.389   4.108   0.603
 2568SOL     OW 8035   0.317   4.271   1.280
 2568SOL    HW1 8036   0.355   4.212   1.352
 2568SOL    HW2 8037   0.357   4.245   1.192
 2569SOL     OW 8038   1.424   3.938   1.112
 2569SOL    HW1 8039   1.476   3.873   1.167
 2569SOL    HW2 8040   1.375   4.001   1.173
 2570SOL     OW 8041   1.001   3.758   1.154
 2570SOL    HW1 8042   0.938   3.686   1.123
 2570SOL    HW2 8043   1.094   3.722   1.154
 2571SOL     OW 8044   1.352   3.776   0.168
 2571SOL    HW1 8045   1.387   3.735   0.084
 2571SOL    HW2 8046   1.262   3.738   0.188
 2572SOL     OW 8047   1.300   4.177   0.691
 2572SOL    HW1 8048   1.241   4.257   0.695
 2572SOL    HW2 8049   1.315   4.142   0.784
 2573SOL     OW 8050   1.593   3.945   0.882
 2573SOL    HW1 8051   1.509   3.944   0.936
 2573SOL    HW2 8052   1.595   4.028   0.826
 2574SOL     OW 8053   0.230   4.352   1.975
 2574SOL    HW1 8054   0.137   4.350   2.012
 2574SOL    HW2 8055   0.231   4.313   1.883
 2575SOL     OW 8056   0.225   3.999   2.858
 2575SOL    HW1 8057   0.260   3.982   2.950
 2575SOL    HW2 8058   0.137   3.954   2.846
 2576SOL     OW 8059   0.019   4.092   2.509
 2576SOL    HW1 8060  -0.063   4.135   2.548
 2576SOL    HW2 8061  -0.009   4.019   2.446
 2577SOL     OW 8062   1.755   4.331   2.093
 2577SOL    HW1 8063   1.743   4.318   1.994
 2577SOL    HW2 8064   1.725   4.250   2.142
 2578SOL     OW 8065   0.685   4.736   2.527
 2578SOL    HW1 8066   0.754   4.720   2.597
 2578SOL    HW2 8067   0.612   4.793   2.565
 2579SOL     OW 8068   0.438   4.116   3.361
 2579SOL    HW1 8069   0.520   4.060   3.370
 2579SOL    HW2 8070   0.357   4.058   3.365
 2580SOL     OW 8071   1.603   4.171   2.599
 2580SOL    HW1 8072   1.529   4.217   2.549
 2580SOL    HW2 8073   1.654   4.239   2.652
 2581SOL     OW 8074   1.594   3.838   3.342
 2581SOL    HW1 8075   1.576   3.905   3.270
 2581SOL    HW2 8076   1.591   3.884   3.431
 2582SOL     OW 8077   0.122   4.367   2.425
 2582SOL    HW1 8078   0.077   4.279   2.442
 2582SOL    HW2 8079   0.121   4.421   2.509
 2583SOL     OW 8080   0.113   4.461   3.459
 2583SOL    HW1 8081   0.201   4.448   3.504
 2583SOL    HW2 8082   0.100   4.558   3.437
 2584SOL     OW 8083   0.809   3.728   2.364
 2584SOL    HW1 8084   0.849   3.819   2.355
 2584SOL    HW2 8085   0.709   3.736   2.370
 2585SOL     OW 8086   0.317   3.975   3.663
 2585SOL    HW1 8087   0.388   4.046   3.669
 2585SOL    HW2 8088   0.229   4.014   3.691
 2586SOL     OW 8089   1.281   4.069   2.806
 2586SOL    HW1 8090   1.195   4.019   2.793
 2586SOL    HW2 8091   1.343   4.015   2.862
 2587SOL     OW 8092   0.807   4.329   3.327
 2587SOL    HW1 8093   0.760   4.326   3.416
 2587SOL    HW2 8094   0.756   4.274   3.261
 2588SOL     OW 8095   1.394   4.193   3.536
 2588SOL    HW1 8096   1.374   4.236   3.624
 2588SOL    HW2 8097   1.472   4.131   3.545
 2589SOL     OW 8098   0.991   4.134   3.104
 2589SOL    HW1 8099   0.914   4.168   3.158
 2589SOL    HW2 8100   0.957   4.083   3.025
 2590SOL     OW 8101   1.041   4.425   2.291
 2590SOL    HW1 8102   1.067   4.421   2.387
 2590SOL    HW2 8103   0.956   4.374   2.277
 2591SOL     OW 8104   0.076   4.535   2.651
 2591SOL    HW1 8105   0.175   4.523   2.660
 2591SOL    HW2 8106   0.052   4.630   2.672
 2592SOL     OW 8107   0.865   4.072   2.057
 2592SOL    HW1 8108   0.924   4.135   2.008
 2592SOL    HW2 8109   0.884   3.978   2.028
 2593SOL     OW 8110   1.719   4.309   3.693
 2593SOL    HW1 8111   1.693   4.398   3.657
 2593SOL    HW2 8112   1.717   4.241   3.620
 2594SOL     OW 8113   0.550   3.920   2.747
 2594SOL    HW1 8114   0.545   3.915   2.847
 2594SOL    HW2 8115   0.552   4.016   2.718
 2595SOL     OW 8116   1.458   4.459   2.590
 2595SOL    HW1 8117   1.453   4.394   2.665
 2595SOL    HW2 8118   1.538   4.518   2.603
 2596SOL     OW 8119   0.202   4.009   3.360
 2596SOL    HW1 8120   0.122   4.069   3.347
 2596SOL    HW2 8121   0.192   3.960   3.446
 2597SOL     OW 8122   1.400   3.831   2.288
 2597SOL    HW1 8123   1.376   3.794   2.198
 2597SOL    HW2 8124   1.499   3.847   2.292
 2598SOL     OW 8125   0.382   4.424   2.342
 2598SOL    HW1 8126   0.427   4.334   2.339
 2598SOL    HW2 8127   0.288   4.413   2.375
 2599SOL     OW 8128   1.547   3.946   3.591
 2599SOL    HW1 8129   1.542   3.983   3.683
 2599SOL    HW2 8130   1.475   3.877   3.579
 2600SOL     OW 8131   0.614   3.846   1.979
 2600SOL    HW1 8132   0.712   3.824   1.986
 2600SOL    HW2 8133   0.583   3.829   1.886
 2601SOL     OW 8134   0.781   3.988   3.611
 2601SOL    HW1 8135   0.848   3.927   3.654
 2601SOL    HW2 8136   0.708   4.007   3.676
 2602SOL     OW 8137   1.351   4.314   3.295
 2602SOL    HW1 8138   1.379   4.271   3.380
 2602SOL    HW2 8139   1.376   4.410   3.296
 2603SOL     OW 8140   0.922   4.227   2.761
 2603SOL    HW1 8141   0.897   4.218   2.665
 2603SOL    HW2 8142   0.970   4.145   2.792
 2604SOL     OW 8143   0.539   3.788   2.374
 2604SOL    HW1 8144   0.458   3.789   2.432
 2604SOL    HW2 8145   0.542   3.871   2.319
 2605SOL     OW 8146   0.297   3.759   2.033
 2605SOL    HW1 8147   0.346   3.843   2.012
 2605SOL    HW2 8148   0.359   3.694   2.078
 2606SOL     OW 8149   0.935   3.960   2.342
 2606SOL    HW1 8150   0.887   4.001   2.264
 2606SOL    HW2 8151   1.034   3.958   2.323
 2607SOL     OW 8152   1.076   4.407   3.326
 2607SOL    HW1 8153   0.996   4.346   3.329
 2607SOL    HW2 8154   1.157   4.354   3.302
 2608SOL     OW 8155   1.032   4.273   1.878
 2608SOL    HW1 8156   0.991   4.355   1.839
 2608SOL    HW2 8157   1.096   4.299   1.951
 2609SOL     OW 8158   0.078   4.280   3.248
 2609SOL    HW1 8159   0.170   4.279   3.207
 2609SOL    HW2 8160   0.072   4.354   3.315
 2610SOL     OW 8161   0.561   3.946   3.009
 2610SOL    HW1 8162   0.599   3.862   3.046
 2610SOL    HW2 8163   0.473   3.965   3.053
 2611SOL     OW 8164   0.866   4.178   2.504
 2611SOL    HW1 8165   0.834   4.250   2.442
 2611SOL    HW2 8166   0.890   4.097   2.451
 2612SOL     OW 8167   1.017   3.763   2.615
 2612SOL    HW1 8168   0.945   3.768   2.546
 2612SOL    HW2 8169   0.993   3.694   2.684
 2613SOL     OW 8170   1.466   4.314   2.854
 2613SOL    HW1 8171   1.436   4.219   2.861
 2613SOL    HW2 8172   1.539   4.330   2.920
 2614SOL     OW 8173   1.390   4.299   1.940
 2614SOL    HW1 8174   1.336   4.278   2.021
 2614SOL    HW2 8175   1.481   4.258   1.949
 2615SOL     OW 8176   0.527   3.980   2.190
 2615SOL    HW1 8177   0.554   3.921   2.115
 2615SOL    HW2 8178   0.527   4.075   2.159
 2616SOL     OW 8179   0.915   3.813   3.264
 2616SOL    HW1 8180   0.940   3.793   3.169
 2616SOL    HW2 8181   0.987   3.869   3.306
 2617SOL     OW 8182   0.410   4.537   3.113
 2617SOL    HW1 8183   0.496   4.549   3.163
 2617SOL    HW2 8184   0.368   4.450   3.140
 2618SOL     OW 8185   1.274   4.110   3.124
 2618SOL    HW1 8186   1.295   4.184   3.188
 2618SOL    HW2 8187   1.185   4.127   3.081
 2619SOL     OW 8188   0.566   4.261   2.727
 2619SOL    HW1 8189   0.578   4.327   2.653
 2619SOL    HW2 8190   0.612   4.295   2.810
 2620SOL     OW 8191   1.582   4.363   2.334
 2620SOL    HW1 8192   1.551   4.424   2.407
 2620SOL    HW2 8193   1.632   4.415   2.265
 2621SOL     OW 8194   1.013   3.829   3.632
 2621SOL    HW1 8195   1.019   3.914   3.580
 2621SOL    HW2 8196   1.045   3.753   3.575
 2622SOL     OW 8197   0.504   3.774   3.602
 2622SOL    HW1 8198   0.462   3.717   3.532
 2622SOL    HW2 8199   0.438   3.843   3.634
 2623SOL     OW 8200   1.209   4.249   2.137
 2623SOL    HW1 8201   1.222   4.165   2.191
 2623SOL    HW2 8202   1.180   4.323   2.197
 2624SOL     OW 8203   0.307   3.937   3.093
 2624SOL    HW1 8204   0.284   3.974   3.183
 2624SOL    HW2 8205   0.277   3.842   3.087
 2625SOL     OW 8206   0.732   4.358   2.926
 2625SOL    HW1 8207   0.791   4.332   2.850
 2625SOL    HW2 8208   0.704   4.454   2.915
 2626SOL     OW 8209   1.728   4.659   3.716
 2626SOL    HW1 8210   1.682   4.652   3.627
 2626SOL    HW2 8211   1.666   4.703   3.782
 2627SOL     OW 8212   0.307   3.787   2.480
 2627SOL    HW1 8213   0.296   3.881   2.513
 2627SOL    HW2 8214   0.302   3.724   2.557
 2628SOL     OW 8215   1.622   4.091   2.236
 2628SOL    HW1 8216   1.624   4.015   2.300
 2628SOL    HW2 8217   1.574   4.168   2.276
 2629SOL     OW 8218   1.540   3.998   1.987
 2629SOL    HW1 8219   1.479   3.923   2.010
 2629SOL    HW2 8220   1.562   4.050   2.070
 2630SOL     OW 8221   0.319   4.534   2.811
 2630SOL    HW1 8222   0.412   4.570   2.816
 2630SOL    HW2 8223   0.313   4.449   2.863
 2631SOL     OW 8224   0.339   4.233   2.868
 2631SOL    HW1 8225   0.287   4.150   2.851
 2631SOL    HW2 8226   0.416   4.238   2.804
 2632SOL     OW 8227   1.138   4.104   3.540
 2632SOL    HW1 8228   1.093   4.167   3.604
 2632SOL    HW2 8229   1.231   4.135   3.523
 2633SOL     OW 8230   1.160   3.931   3.339
 2633SOL    HW1 8231   1.160   3.995   3.416
 2633SOL    HW2 8232   1.188   3.979   3.256
 2634SOL     OW 8233   0.040   4.268   2.976
 2634SOL    HW1 8234   0.125   4.235   2.935
 2634SOL    HW2 8235   0.053   4.283   3.074
 2635SOL     OW 8236   0.189   4.244   3.584
 2635SOL    HW1 8237   0.248   4.204   3.514
 2635SOL    HW2 8238   0.131   4.315   3.543
 2636SOL     OW 8239   0.815   4.296   2.187
 2636SOL    HW1 8240   0.822   4.207   2.141
 2636SOL    HW2 8241   0.721   4.330   2.179
 2637SOL     OW 8242   1.657   4.328   3.068
 2637SOL    HW1 8243   1.619   4.259   3.130
 2637SOL    HW2 8244   1.739   4.292   3.024
 2638SOL     OW 8245   0.671   4.188   3.131
 2638SOL    HW1 8246   0.637   4.099   3.101
 2638SOL    HW2 8247   0.697   4.242   3.051
 2639SOL     OW 8248   0.473   4.224   2.053
 2639SOL    HW1 8249   0.534   4.304   2.057
 2639SOL    HW2 8250   0.378   4.255   2.060
 2640SOL     OW 8251   1.726   3.859   2.385
 2640SOL    HW1 8252   1.799   3.842   2.318
 2640SOL    HW2 8253   1.695   3.772   2.423
 2641SOL     OW 8254   1.280   4.651   2.534
 2641SOL    HW1 8255   1.340   4.570   2.536
 2641SOL    HW2 8256   1.320   4.720   2.474
 2642SOL     OW 8257   1.841   3.899   2.825
 2642SOL    HW1 8258   1.880   3.814   2.789
 2642SOL    HW2 8259   1.743   3.901   2.806
 2643SOL     OW 8260   0.263   4.050   2.582
 2643SOL    HW1 8261   0.184   4.101   2.548
 2643SOL    HW2 8262   0.254   4.035   2.680
 2644SOL     OW 8263   0.916   4.634   2.153
 2644SOL    HW1 8264   0.979   4.672   2.085
 2644SOL    HW2 8265   0.956   4.551   2.192
 2645SOL     OW 8266   1.039   4.822   2.558
 2645SOL    HW1 8267   0.969   4.775   2.612
 2645SOL    HW2 8268   1.098   4.754   2.515
 2646SOL     OW 8269   1.014   3.960   2.833
 2646SOL    HW1 8270   1.006   3.924   2.740
 2646SOL    HW2 8271   1.012   3.884   2.898
 2647SOL     OW 8272   1.709   4.109   3.243
 2647SOL    HW1 8273   1.782   4.178   3.247
 2647SOL    HW2 8274   1.737   4.034   3.184
 2648SOL     OW 8275   0.672   3.927   3.351
 2648SOL    HW1 8276   0.762   3.911   3.311
 2648SOL    HW2 8277   0.680   3.932   3.450
 2649SOL     OW 8278   0.075   4.069   1.895
 2649SOL    HW1 8279  -0.017   4.041   1.866
 2649SOL    HW2 8280   0.106   4.146   1.839
 2650SOL     OW 8281   0.072   3.890   2.180
 2650SOL    HW1 8282   0.055   3.973   2.126
 2650SOL    HW2 8283   0.162   3.853   2.158
 2651SOL     OW 8284   0.716   4.289   3.570
 2651SOL    HW1 8285   0.735   4.354   3.644
 2651SOL    HW2 8286   0.776   4.209   3.579
 2652SOL     OW 8287   1.225   4.049   2.311
 2652SOL    HW1 8288   1.290   3.975   2.300
 2652SOL    HW2 8289   1.245   4.099   2.395
 2653SOL     OW 8290   1.777   4.066   3.504
 2653SOL    HW1 8291   1.760   4.097   3.410
 2653SOL    HW2 8292   1.693   4.029   3.542
 2654SOL     OW 8293   1.083   4.708   1.949
 2654SOL    HW1 8294   1.060   4.761   1.867
 2654SOL    HW2 8295   1.164   4.652   1.930
 2655SOL     OW 8296   1.824   3.916   3.089
 2655SOL    HW1 8297   1.820   3.826   3.133
 2655SOL    HW2 8298   1.827   3.905   2.990
 2656SOL     OW 8299   0.428   4.148   2.382
 2656SOL    HW1 8300   0.458   4.076   2.320
 2656SOL    HW2 8301   0.389   4.108   2.465
 2657SOL     OW 8302   0.317   4.271   3.142
 2657SOL    HW1 8303   0.355   4.212   3.214
 2657SOL    HW2 8304   0.357   4.245   3.054
 2658SOL     OW 8305   1.424   3.938   2.974
 2658SOL    HW1 8306   1.476   3.873   3.029
 2658SOL    HW2 8307   1.375   4.001   3.035
 2659SOL     OW 8308   1.001   3.758   3.016
 2659SOL    HW1 8309   0.938   3.686   2.985
 2659SOL    HW2 8310   1.094   3.722   3.016
 2660SOL     OW 8311   1.352   3.776   2.030
 2660SOL    HW1 8312   1.387   3.735   1.946
 2660SOL    HW2 8313   1.262   3.738   2.050
 2661SOL     OW 8314   1.300   4.177   2.553
 2661SOL    HW1 8315   1.241   4.257   2.557
 2661SOL    HW2 8316   1.315   4.142   2.646
 2662SOL     OW 8317   1.593   3.945   2.744
 2662SOL    HW1 8318   1.509   3.944   2.798
 2662SOL    HW2 8319   1.595   4.028   2.688
 2663SOL     OW 8320   0.230   4.352   3.837
 2663SOL    HW1 8321   0.137   4.350   3.874
 2663SOL    HW2 8322   0.231   4.313   3.745
 2664SOL     OW 8323   0.225   3.999   4.720
 2664SOL    HW1 8324   0.260   3.982   4.812
 2664SOL    HW2 8325   0.137   3.954   4.708
 2665SOL     OW 8326   0.019   4.092   4.371
 2665SOL    HW1 8327  -0.063   4.135   4.410
 2665SOL    HW2 8328  -0.009   4.019   4.308
 2666SOL     OW 8329   1.755   4.331   3.955
 2666SOL    HW1 8330   1.743   4.318   3.856
 2666SOL    HW2 8331   1.725   4.250   4.004
 2667SOL     OW 8332   0.685   4.736   4.389
 2667SOL    HW1 8333   0.754   4.720   4.459
 2667SOL    HW2 8334   0.612   4.793   4.427
 2668SOL     OW 8335   0.438   4.116   5.223
 2668SOL    HW1 8336   0.520   4.060   5.232
 2668SOL    HW2 8337   0.357   4.058   5.227
 2669SOL     OW 8338   1.603   4.171   4.461
 2669SOL    HW1 8339   1.529   4.217   4.411
 2669SOL    HW2 8340   1.654   4.239   4.514
 2670SOL     OW 8341   1.594   3.838   5.204
 2670SOL    HW1 8342   1.576   3.905   5.132
 2670SOL    HW2 8343   1.591   3.884   5.293
 2671SOL     OW 8344   0.122   4.367   4.287
 2671SOL    HW1 8345   0.077   4.279   4.304
 2671SOL    HW2 8346   0.121   4.421   4.371
 2672SOL     OW 8347   0.113   4.461   5.321
 2672SOL    HW1 8348   0.201   4.448   5.366
 2672SOL    HW2 8349   0.100   4.558   5.299
 2673SOL     OW 8350   0.809   3.728   4.226
 2673SOL    HW1 8351   0.849   3.819   4.217
 2673SOL    HW2 8352   0.709   3.736   4.232
 2674SOL     OW 8353   0.317   3.975   5.525
 2674SOL    HW1 8354   0.388   4.046   5.531
 2674SOL    HW2 8355   0.229   4.014   5.553
 2675SOL     OW 8356   1.281   4.069   4.668
 2675SOL    HW1 8357   1.195   4.019   4.655
 2675SOL    HW2 8358   1.343   4.015   4.724
 2676SOL     OW 8359   0.807   4.329   5.189
 2676SOL    HW1 8360   0.760   4.326   5.278
 2676SOL    HW2 8361   0.756   4.274   5.123
 2677SOL     OW 8362   1.394   4.193   5.398
 2677SOL    HW1 8363   1.374   4.236   5.486
 2677SOL    HW2 8364   1.472   4.131   5.407
 2678SOL     OW 8365   0.991   4.134   4.966
 2678SOL    HW1 8366   0.914   4.168   5.020
 2678SOL    HW2 8367   0.957   4.083   4.887
 2679SOL     OW 8368   1.041   4.425   4.153
 2679SOL    HW1 8369   1.067   4.421   4.249
 2679SOL    HW2 8370   0.956   4.374   4.139
 2680SOL     OW 8371   0.076   4.535   4.513
 2680SOL    HW1 8372   0.175   4.523   4.522
 2680SOL    HW2 8373   0.052   4.630   4.534
 2681SOL     OW 8374   0.865   4.072   3.919
 2681SOL    HW1 8375   0.924   4.135   3.870
 2681SOL    HW2 8376   0.884   3.978   3.890
 2682SOL     OW 8377   1.719   4.309   5.555
 2682SOL    HW1 8378   1.693   4.398   5.519
 2682SOL    HW2 8379   1.717   4.241   5.482
 2683SOL     OW 8380   0.550   3.920   4.609
 2683SOL    HW1 8381   0.545   3.915   4.709
 2683SOL    HW2 8382   0.552   4.016   4.580
 2684SOL     OW 8383   1.458   4.459   4.452
 2684SOL    HW1 8384   1.453   4.394   4.527
 2684SOL    HW2 8385   1.538   4.518   4.465
 2685SOL     OW 8386   0.202   4.009   5.222
 2685SOL    HW1 8387   0.122   4.069   5.209
 2685SOL    HW2 8388   0.192   3.960   5.308
 2686SOL     OW 8389   1.400   3.831   4.150
 2686SOL    HW1 8390   1.376   3.794   4.060
 2686SOL    HW2 8391   1.499   3.847   4.154
 2687SOL     OW 8392   0.382   4.424   4.204
 2687SOL    HW1 8393   0.427   4.334   4.201
 2687SOL    HW2 8394   0.288   4.413   4.237
 2688SOL     OW 8395   1.547   3.946   5.453
 2688SOL    HW1 8396   1.542   3.983   5.545
 2688SOL    HW2 8397   1.475   3.877   5.441
 2689SOL     OW 8398   0.614   3.846   3.841
 2689SOL    HW1 8399   0.712   3.824   3.848
 2689SOL    HW2 8400   0.583   3.829   3.748
 2690SOL     OW 8401   0.781   3.988   5.473
 2690SOL    HW1 8402   0.848   3.927   5.516
 2690SOL    HW2 8403   0.708   4.007   5.538
 2691SOL     OW 8404   1.351   4.314   5.157
 2691SOL    HW1 8405   1.379   4.271   5.242
 2691SOL    HW2 8406   1.376   4.410   5.158
 2692SOL     OW 8407   0.922   4.227   4.623
 2692SOL    HW1 8408   0.897   4.218   4.527
 2692SOL    HW2 8409   0.970   4.145   4.654
 2693SOL     OW 8410   0.539   3.788   4.236
 2693SOL    HW1 8411   0.458   3.789   4.294
 2693SOL    HW2 8412   0.542   3.871   4.181
 2694SOL     OW 8413   0.297   3.759   3.895
 2694SOL    HW1 8414   0.346   3.843   3.874
 2694SOL    HW2 8415   0.359   3.694   3.940
 2695SOL     OW 8416   0.935   3.960   4.204
 2695SOL    HW1 8417   0.887   4.001   4.126
 2695SOL    HW2 8418   1.034   3.958   4.185
 2696SOL     OW 8419   1.076   4.407   5.188
 2696SOL    HW1 8420   0.996   4.346   5.191
 2696SOL    HW2 8421   1.157   4.354   5.164
 2697SOL     OW 8422   1.032   4.273   3.740
 2697SOL    HW1 8423   0.991   4.355   3.701
 2697SOL    HW2 8424   1.096   4.299   3.813
 2698SOL     OW 8425   0.078   4.280   5.110
 2698SOL    HW1 8426   0.170   4.279   5.069
 2698SOL    HW2 8427   0.072   4.354   5.177
 2699SOL     OW 8428   0.561   3.946   4.871
 2699SOL    HW1 8429   0.599   3.862   4.908
 2699SOL    HW2 8430   0.473   3.965   4.915
 2700SOL     OW 8431   0.866   4.178   4.366
 2700SOL    HW1 8432   0.834   4.250   4.304
 2700SOL    HW2 8433   0.890   4.097   4.313
 2701SOL     OW 8434   1.017   3.763   4.477
 2701SOL    HW1 8435   0.945   3.768   4.408
 2701SOL    HW2 8436   0.993   3.694   4.546
 2702SOL     OW 8437   1.466   4.314   4.716
 2702SOL    HW1 8438   1.436   4.219   4.723
 2702SOL    HW2 8439   1.539   4.330   4.782
 2703SOL     OW 8440   1.390   4.299   3.802
 2703SOL    HW1 8441   1.336   4.278   3.883
 2703SOL    HW2 8442   1.481   4.258   3.811
 2704SOL     OW 8443   0.527   3.980   4.052
 2704SOL    HW1 8444   0.554   3.921   3.977
 2704SOL    HW2 8445   0.527   4.075   4.021
 2705SOL     OW 8446   0.915   3.813   5.126
 2705SOL    HW1 8447   0.940   3.793   5.031
 2705SOL    HW2 8448   0.987   3.869   5.168
 2706SOL     OW 8449   0.410   4.537   4.975
 2706SOL    HW1 8450   0.496   4.549   5.025
 2706SOL    HW2 8451   0.368   4.450   5.002
 2707SOL     OW 8452   1.274   4.110   4.986
 2707SOL    HW1 8453   1.295   4.184   5.050
 2707SOL    HW2 8454   1.185   4.127   4.943
 2708SOL     OW 8455   0.566   4.261   4.589
 2708SOL    HW1 8456   0.578   4.327   4.515
 2708SOL    HW2 8457   0.612   4.295   4.672
 2709SOL     OW 8458   1.582   4.363   4.196
 2709SOL    HW1 8459   1.551   4.424   4.269
 2709SOL    HW2 8460   1.632   4.415   4.127
 2710SOL     OW 8461   1.013   3.829   5.494
 2710SOL    HW1 8462   1.019   3.914   5.442
 2710SOL    HW2 8463   1.045   3.753   5.437
 2711SOL     OW 8464   0.504   3.774   5.464
 2711SOL    HW1 8465   0.462   3.717   5.394
 2711SOL    HW2 8466   0.438   3.843   5.496
 2712SOL     OW 8467   1.209   4.249   3.999
 2712SOL    HW1 8468   1.222   4.165   4.053
 2712SOL    HW2 8469   1.180   4.323   4.059
 2713SOL     OW 8470   0.307   3.937   4.955
 2713SOL    HW1 8471   0.284   3.974   5.045
 2713SOL    HW2 8472   0.277   3.842   4.949
 2714SOL     OW 8473   0.732   4.358   4.788
 2714SOL    HW1 8474   0.791   4.332   4.712
 2714SOL    HW2 8475   0.704   4.454   4.777
 2715SOL     OW 8476   1.728   4.659   5.578
 2715SOL    HW1 8477   1.682   4.652   5.489
 2715SOL    HW2 8478   1.666   4.703   5.644
 2716SOL     OW 8479   0.307   3.787   4.342
 2716SOL    HW1 8480   0.296   3.881   4.375
 2716SOL    HW2 8481   0.302   3.724   4.419
 2717SOL     OW 8482   1.622   4.091   4.098
 2717SOL    HW1 8483   1.624   4.015   4.162
 2717SOL    HW2 8484   1.574   4.168   4.138
 2718SOL     OW 8485   1.540   3.998   3.849
 2718SOL    HW1 8486   1.479   3.923   3.872
 2718SOL    HW2 8487   1.562   4.050   3.932
 2719SOL     OW 8488   0.319   4.534   4.673
 2719SOL    HW1 8489   0.412   4.570   4.678
 2719SOL    HW2 8490   0.313   4.449   4.725
 2720SOL     OW 8491   0.339   4.233   4.730
 2720SOL    HW1 8492   0.287   4.150   4.713
 2720SOL    HW2 8493   0.416   4.238   4.666
 2721SOL     OW 8494   1.138   4.104   5.402
 2721SOL    HW1 8495   1.093   4.167   5.466
 2721SOL    HW2 8496   1.231   4.135   5.385
 2722SOL     OW 8497   1.160   3.931   5.201
 2722SOL    HW1 8498   1.160   3.995   5.278
 2722SOL    HW2 8499   1.188   3.979   5.118
 2723SOL     OW 8500   0.040   4.268   4.838
 2723SOL    HW1 8501   0.125   4.235   4.797
 2723SOL    HW2 8502   0.053   4.283   4.936
 2724SOL     OW 8503   0.189   4.244   5.446
 2724SOL    HW1 8504   0.248   4.204   5.376
 2724SOL    HW2 8505   0.131   4.315   5.405
 2725SOL     OW 8506   0.815   4.296   4.049
 2725SOL    HW1 8507   0.822   4.207   4.003
 2725SOL    HW2 8508   0.721   4.330   4.041
 2726SOL     OW 8509   1.657   4.328   4.930
 2726SOL    HW1 8510   1.619   4.259   4.992
 2726SOL    HW2 8511   1.739   4.292   4.886
 2727SOL     OW 8512   0.671   4.188   4.993
 2727SOL    HW1 8513   0.637   4.099   4.963
 2727SOL    HW2 8514   0.697   4.242   4.913
 2728SOL     OW 8515   0.473   4.224   3.915
 2728SOL    HW1 8516   0.534   4.304   3.919
 2728SOL    HW2 8517   0.378   4.255   3.922
 2729SOL     OW 8518   1.726   3.859   4.247
 2729SOL    HW1 8519   1.799   3.842   4.180
 2729SOL    HW2 8520   1.695   3.772   4.285
 2730SOL     OW 8521   1.280   4.651   4.396
 2730SOL    HW1 8522   1.340   4.570   4.398
 2730SOL    HW2 8523   1.320   4.720   4.336
 2731SOL     OW 8524   1.841   3.899   4.687
 2731SOL    HW1 8525   1.880   3.814   4.651
 2731SOL    HW2 8526   1.743   3.901   4.668
 2732SOL     OW 8527   0.263   4.050   4.444
 2732SOL    HW1 8528   0.184   4.101   4.410
 2732SOL    HW2 8529   0.254   4.035   4.542
 2733SOL     OW 8530   0.916   4.634   4.015
 2733SOL    HW1 8531   0.979   4.672   3.947
 2733SOL    HW2 8532   0.956   4.551   4.054
 2734SOL     OW 8533   1.039   4.822   4.420
 2734SOL    HW1 8534   0.969   4.775   4.474
 2734SOL    HW2 8535   1.098   4.754   4.377
 2735SOL     OW 8536   1.014   3.960   4.695
 2735SOL    HW1 8537   1.006   3.924   4.602
 2735SOL    HW2 8538   1.012   3.884   4.760
 2736SOL     OW 8539   1.709   4.109   5.105
 2736SOL    HW1 8540   1.782   4.178   5.109
 2736SOL    HW2 8541   1.737   4.034   5.046
 2737SOL     OW 8542   0.672   3.927   5.213
 2737SOL    HW1 8543   0.762   3.911   5.173
 2737SOL    HW2 8544   0.680   3.932   5.312
 2738SOL     OW 8545   0.075   4.069   3.757
 2738SOL    HW1 8546  -0.017   4.041   3.728
 2738SOL    HW2 8547   0.106   4.146   3.701
 2739SOL     OW 8548   0.072   3.890   4.042
 2739SOL    HW1 8549   0.055   3.973   3.988
 2739SOL    HW2 8550   0.162   3.853   4.020
 2740SOL     OW 8551   0.716   4.289   5.432
 2740SOL    HW1 8552   0.735   4.354   5.506
 2740SOL    HW2 8553   0.776   4.209   5.441
 2741SOL     OW 8554   1.225   4.049   4.173
 2741SOL    HW1 8555   1.290   3.975   4.162
 2741SOL    HW2 8556   1.245   4.099   4.257
 2742SOL     OW 8557   1.777   4.066   5.366
 2742SOL    HW1 8558   1.760   4.097   5.272
 2742SOL    HW2 8559   1.693   4.029   5.404
 2743SOL     OW 8560   1.083   4.708   3.811
 2743SOL    HW1 8561   1.060   4.761   3.729
 2743SOL    HW2 8562   1.164   4.652   3.792
 2744SOL     OW 8563   1.824   3.916   4.951
 2744SOL    HW1 8564   1.820   3.826   4.995
 2744SOL    HW2 8565   1.827   3.905   4.852
 2745SOL     OW 8566   0.428   4.148   4.244
 2745SOL    HW1 8567   0.458   4.076   4.182
 2745SOL    HW2 8568   0.389   4.108   4.327
 2746SOL     OW 8569   0.317   4.271   5.004
 2746SOL    HW1 8570   0.355   4.212   5.076
 2746SOL    HW2 8571   0.357   4.245   4.916
 2747SOL     OW 8572   1.424   3.938   4.836
 2747SOL    HW1 8573   1.476   3.873   4.891
 2747SOL    HW2 8574   1.375   4.001   4.897
 2748SOL     OW 8575   1.001   3.758   4.878
 2748SOL    HW1 8576   0.938   3.686   4.847
 2748SOL    HW2 8577   1.094   3.722   4.878
 2749SOL     OW 8578   1.352   3.776   3.892
 2749SOL    HW1 8579   1.387   3.735   3.808
 2749SOL    HW2 8580   1.262   3.738   3.912
 2750SOL     OW 8581   1.300   4.177   4.415
 2750SOL    HW1 8582   1.241   4.257   4.419
 2750SOL    HW2 8583   1.315   4.142   4.508
 2751SOL     OW 8584   1.593   3.945   4.606
 2751SOL    HW1 8585   1.509   3.944   4.660
 2751SOL    HW2 8586   1.595   4.028   4.550
 2752SOL     OW 8587   0.230   4.352   5.699
 2752SOL    HW1 8588   0.137   4.350   5.736
 2752SOL    HW2 8589   0.231   4.313   5.607
 2753SOL     OW 8590   0.225   3.999   6.582
 2753SOL    HW1 8591   0.260   3.982   6.674
 2753SOL    HW2 8592   0.137   3.954   6.570
 2754SOL     OW 8593   0.019   4.092   6.233
 2754SOL    HW1 8594  -0.063   4.135   6.272
 2754SOL    HW2 8595  -0.009   4.019   6.170
 2755SOL     OW 8596   1.755   4.331   5.817
 2755SOL    HW1 8597   1.743   4.318   5.718
 2755SOL    HW2 8598   1.725   4.250   5.866
 2756SOL     OW 8599   0.685   4.736   6.251
 2756SOL    HW1 8600   0.754   4.720   6.321
 2756SOL    HW2 8601   0.612   4.793   6.289
 2757SOL     OW 8602   0.438   4.116   7.085
 2757SOL    HW1 8603   0.520   4.060   7.094
 2757SOL    HW2 8604   0.357   4.058   7.089
 2758SOL     OW 8605   1.603   4.171   6.323
 2758SOL    HW1 8606   1.529   4.217   6.273
 2758SOL    HW2 8607   1.654   4.239   6.376
 2759SOL     OW 8608   1.594   3.838   7.066
 2759SOL    HW1 8609   1.576   3.905   6.994
 2759SOL    HW2 8610   1.591   3.884   7.155
 2760SOL     OW 8611   0.122   4.367   6.149
 2760SOL    HW1 8612   0.077   4.279   6.166
 2760SOL    HW2 8613   0.121   4.421   6.233
 2761SOL     OW 8614   0.113   4.461   7.183
 2761SOL    HW1 8615   0.201   4.448   7.228
 2761SOL    HW2 8616   0.100   4.558   7.161
 2762SOL     OW 8617   0.809   3.728   6.088
 2762SOL    HW1 8618   0.849   3.819   6.079
 2762SOL    HW2 8619   0.709   3.736   6.094
 2763SOL     OW 8620   0.317   3.975   7.387
 2763SOL    HW1 8621   0.388   4.046   7.393
 2763SOL    HW2 8622   0.229   4.014   7.415
 2764SOL     OW 8623   1.281   4.069   6.530
 2764SOL    HW1 8624   1.195   4.019   6.517
 2764SOL    HW2 8625   1.343   4.015   6.586
 2765SOL     OW 8626   0.807   4.329   7.051
 2765SOL    HW1 8627   0.760   4.326   7.140
 2765SOL    HW2 8628   0.756   4.274   6.985
 2766SOL     OW 8629   1.394   4.193   7.260
 2766SOL    HW1 8630   1.374   4.236   7.348
 2766SOL    HW2 8631   1.472   4.131   7.269
 2767SOL     OW 8632   0.991   4.134   6.828
 2767SOL    HW1 8633   0.914   4.168   6.882
 2767SOL    HW2 8634   0.957   4.083   6.749
 2768SOL     OW 8635   1.041   4.425   6.015
 2768SOL    HW1 8636   1.067   4.421   6.111
 2768SOL    HW2 8637   0.956   4.374   6.001
 2769SOL     OW 8638   0.076   4.535   6.375
 2769SOL    HW1 8639   0.175   4.523   6.384
 2769SOL    HW2 8640   0.052   4.630   6.396
 2770SOL     OW 8641   0.865   4.072   5.781
 2770SOL    HW1 8642   0.924   4.135   5.732
 2770SOL    HW2 8643   0.884   3.978   5.752
 2771SOL     OW 8644   1.719   4.309   7.417
 2771SOL    HW1 8645   1.693   4.398   7.381
 2771SOL    HW2 8646   1.717   4.241   7.344
 2772SOL     OW 8647   0.550   3.920   6.471
 2772SOL    HW1 8648   0.545   3.915   6.571
 2772SOL    HW2 8649   0.552   4.016   6.442
 2773SOL     OW 8650   1.458   4.459   6.314
 2773SOL    HW1 8651   1.453   4.394   6.389
 2773SOL    HW2 8652   1.538   4.518   6.327
 2774SOL     OW 8653   0.202   4.009   7.084
 2774SOL    HW1 8654   0.122   4.069   7.071
 2774SOL    HW2 8655   0.192   3.960   7.170
 2775SOL     OW 8656   1.400   3.831   6.012
 2775SOL    HW1 8657   1.376   3.794   5.922
 2775SOL    HW2 8658   1.499   3.847   6.016
 2776SOL     OW 8659   0.382   4.424   6.066
 2776SOL    HW1 8660   0.427   4.334   6.063
 2776SOL    HW2 8661   0.288   4.413   6.099
 2777SOL     OW 8662   1.547   3.946   7.315
 2777SOL    HW1 8663   1.542   3.983   7.407
 2777SOL    HW2 8664   1.475   3.877   7.303
 2778SOL     OW 8665   0.614   3.846   5.703
 2778SOL    HW1 8666   0.712   3.824   5.710
 2778SOL    HW2 8667   0.583   3.829   5.610
 2779SOL     OW 8668   0.781   3.988   7.335
 2779SOL    HW1 8669   0.848   3.927   7.378
 2779SOL    HW2 8670   0.708   4.007   7.400
 2780SOL     OW 8671   1.351   4.314   7.019
 2780SOL    HW1 8672   1.379   4.271   7.104
 2780SOL    HW2 8673   1.376   4.410   7.020
 2781SOL     OW 8674   0.922   4.227   6.485
 2781SOL    HW1 8675   0.897   4.218   6.389
 2781SOL    HW2 8676   0.970   4.145   6.516
 2782SOL     OW 8677   0.539   3.788   6.098
 2782SOL    HW1 8678   0.458   3.789   6.156
 2782SOL    HW2 8679   0.542   3.871   6.043
 2783SOL     OW 8680   0.297   3.759   5.757
 2783SOL    HW1 8681   0.346   3.843   5.736
 2783SOL    HW2 8682   0.359   3.694   5.802
 2784SOL     OW 8683   0.935   3.960   6.066
 2784SOL    HW1 8684   0.887   4.001   5.988
 2784SOL    HW2 8685   1.034   3.958   6.047
 2785SOL     OW 8686   1.076   4.407   7.050
 2785SOL    HW1 8687   0.996   4.346   7.053
 2785SOL    HW2 8688   1.157   4.354   7.026
 2786SOL     OW 8689   1.032   4.273   5.602
 2786SOL    HW1 8690   0.991   4.355   5.563
 2786SOL    HW2 8691   1.096   4.299   5.675
 2787SOL     OW 8692   0.078   4.280   6.972
 2787SOL    HW1 8693   0.170   4.279   6.931
 2787SOL    HW2 8694   0.072   4.354   7.039
 2788SOL     OW 8695   0.561   3.946   6.733
 2788SOL    HW1 8696   0.599   3.862   6.770
 2788SOL    HW2 8697   0.473   3.965   6.777
 2789SOL     OW 8698   0.866   4.178   6.228
 2789SOL    HW1 8699   0.834   4.250   6.166
 2789SOL    HW2 8700   0.890   4.097   6.175
 2790SOL     OW 8701   1.017   3.763   6.339
 2790SOL    HW1 8702   0.945   3.768   6.270
 2790SOL    HW2 8703   0.993   3.694   6.408
 2791SOL     OW 8704   1.466   4.314   6.578
 2791SOL    HW1 8705   1.436   4.219   6.585
 2791SOL    HW2 8706   1.539   4.330   6.644
 2792SOL     OW 8707   1.390   4.299   5.664
 2792SOL    HW1 8708   1.336   4.278   5.745
 2792SOL    HW2 8709   1.481   4.258   5.673
 2793SOL     OW 8710   0.527   3.980   5.914
 2793SOL    HW1 8711   0.554   3.921   5.839
 2793SOL    HW2 8712   0.527   4.075   5.883
 2794SOL     OW 8713   0.915   3.813   6.988
 2794SOL    HW1 8714   0.940   3.793   6.893
 2794SOL    HW2 8715   0.987   3.869   7.030
 2795SOL     OW 8716   0.410   4.537   6.837
 2795SOL    HW1 8717   0.496   4.549   6.887
 2795SOL    HW2 8718   0.368   4.450   6.864
 2796SOL     OW 8719   1.274   4.110   6.848
 2796SOL    HW1 8720   1.295   4.184   6.912
 2796SOL    HW2 8721   1.185   4.127   6.805
 2797SOL     OW 8722   0.566   4.261   6.451
 2797SOL    HW1 8723   0.578   4.327   6.377
 2797SOL    HW2 8724   0.612   4.295   6.534
 2798SOL     OW 8725   1.582   4.363   6.058
 2798SOL    HW1 8726   1.551   4.424   6.131
 2798SOL    HW2 8727   1.632   4.415   5.989
 2799SOL     OW 8728   1.013   3.829   7.356
 2799SOL    HW1 8729   1.019   3.914   7.304
 2799SOL    HW2 8730   1.045   3.753   7.299
 2800SOL     OW 8731   0.504   3.774   7.326
 2800SOL    HW1 8732   0.462   3.717   7.256
 2800SOL    HW2 8733   0.438   3.843   7.358
 2801SOL     OW 8734   1.209   4.249   5.861
 2801SOL    HW1 8735   1.222   4.165   5.915
 2801SOL    HW2 8736   1.180   4.323   5.921
 2802SOL     OW 8737   0.307   3.937   6.817
 2802SOL    HW1 8738   0.284   3.974   6.907
 2802SOL    HW2 8739   0.277   3.842   6.811
 2803SOL     OW 8740   0.732   4.358   6.650
 2803SOL    HW1 8741   0.791   4.332   6.574
 2803SOL    HW2 8742   0.704   4.454   6.639
 2804SOL     OW 8743   1.728   4.659   7.440
 2804SOL    HW1 8744   1.682   4.652   7.351
 2804SOL    HW2 8745   1.666   4.703   7.506
 2805SOL     OW 8746   0.307   3.787   6.204
 2805SOL    HW1 8747   0.296   3.881   6.237
 2805SOL    HW2 8748   0.302   3.724   6.281
 2806SOL     OW 8749   1.622   4.091   5.960
 2806SOL    HW1 8750   1.624   4.015   6.024
 2806SOL    HW2 8751   1.574   4.168   6.000
 2807SOL     OW 8752   1.540   3.998   5.711
 2807SOL    HW1 8753   1.479   3.923   5.734
 2807SOL    HW2 8754   1.562   4.050   5.794
 2808SOL     OW 8755   0.319   4.534   6.535
 2808SOL    HW1 8756   0.412   4.570   6.540
 2808SOL    HW2 8757   0.313   4.449   6.587
 2809SOL     OW 8758   0.339   4.233   6.592
 2809SOL    HW1 8759   0.287   4.150   6.575
 2809SOL    HW2 8760   0.416   4.238   6.528
 2810SOL     OW 8761   1.138   4.104   7.264
 2810SOL    HW1 8762   1.093   4.167   7.328
 2810SOL    HW2 8763   1.231   4.135   7.247
 2811SOL     OW 8764   1.160   3.931   7.063
 2811SOL    HW1 8765   1.160   3.995   7.140
 2811SOL    HW2 8766   1.188   3.979   6.980
 2812SOL     OW 8767   0.040   4.268   6.700
 2812SOL    HW1 8768   0.125   4.235   6.659
 2812SOL    HW2 8769   0.053   4.283   6.798
 2813SOL     OW 8770   0.189   4.244   7.308
 2813SOL    HW1 8771   0.248   4.204   7.238
 2813SOL    HW2 8772   0.131   4.315   7.267
 2814SOL     OW 8773   0.815   4.296   5.911
 2814SOL    HW1 8774   0.822   4.207   5.865
 2814SOL    HW2 8775   0.721   4.330   5.903
 2815SOL     OW 8776   1.657   4.328   6.792
 2815SOL    HW1 8777   1.619   4.259   6.854
 2815SOL    HW2 8778   1.739   4.292   6.748
 2816SOL     OW 8779   0.671   4.188   6.855
 2816SOL    HW1 8780   0.637   4.099   6.825
 2816SOL    HW2 8781   0.697   4.242   6.775
 2817SOL     OW 8782   0.473   4.224   5.777
 2817SOL    HW1 8783   0.534   4.304   5.781
 2817SOL    HW2 8784   0.378   4.255   5.784
 2818SOL     OW 8785   1.726   3.859   6.109
 2818SOL    HW1 8786   1.799   3.842   6.042
 2818SOL    HW2 8787   1.695   3.772   6.147
 2819SOL     OW 8788   1.280   4.651   6.258
 2819SOL    HW1 8789   1.340   4.570   6.260
 2819SOL    HW2 8790   1.320   4.720   6.198
 2820SOL     OW 8791   1.841   3.899   6.549
 2820SOL    HW1 8792   1.880   3.814   6.513
 2820SOL    HW2 8793   1.743   3.901   6.530
 2821SOL     OW 8794   0.263   4.050   6.306
 2821SOL    HW1 8795   0.184   4.101   6.272
 2821SOL    HW2 8796   0.254   4.035   6.404
 2822SOL     OW 8797   0.916   4.634   5.877
 2822SOL    HW1 8798   0.979   4.672   5.809
 2822SOL    HW2 8799   0.956   4.551   5.916
 2823SOL     OW 8800   1.039   4.822   6.282
 2823SOL    HW1 8801   0.969   4.775   6.336
 2823SOL    HW2 8802   1.098   4.754   6.239
 2824SOL     OW 8803   1.014   3.960   6.557
 2824SOL    HW1 8804   1.006   3.924   6.464
 2824SOL    HW2 8805   1.012   3.884   6.622
 2825SOL     OW 8806   1.709   4.109   6.967
 2825SOL    HW1 8807   1.782   4.178   6.971
 2825SOL    HW2 8808   1.737   4.034   6.908
 2826SOL     OW 8809   0.672   3.927   7.075
 2826SOL    HW1 8810   0.762   3.911   7.035
 2826SOL    HW2 8811   0.680   3.932   7.174
 2827SOL     OW 8812   0.075   4.069   5.619
 2827SOL    HW1 8813  -0.017   4.041   5.590
 2827SOL    HW2 8814   0.106   4.146   5.563
 2828SOL     OW 8815   0.072   3.890   5.904
 2828SOL    HW1 8816   0.055   3.973   5.850
 2828SOL    HW2 8817   0.162   3.853   5.882
 2829SOL     OW 8818   0.716   4.289   7.294
 2829SOL    HW1 8819   0.735   4.354   7.368
 2829SOL    HW2 8820   0.776   4.209   7.303
 2830SOL     OW 8821   1.225   4.049   6.035
 2830SOL    HW1 8822   1.290   3.975   6.024
 2830SOL    HW2 8823   1.245   4.099   6.119
 2831SOL     OW 8824   1.777   4.066   7.228
 2831SOL    HW1 8825   1.760   4.097   7.134
 2831SOL    HW2 8826   1.693   4.029   7.266
 2832SOL     OW 8827   1.083   4.708   5.673
 2832SOL    HW1 8828   1.060   4.761   5.591
 2832SOL    HW2 8829   1.164   4.652   5.654
 2833SOL     OW 8830   1.824   3.916   6.813
 2833SOL    HW1 8831   1.820   3.826   6.857
 2833SOL    HW2 8832   1.827   3.905   6.714
 2834SOL     OW 8833   0.428   4.148   6.106
 2834SOL    HW1 8834   0.458   4.076   6.044
 2834SOL    HW2 8835   0.389   4.108   6.189
 2835SOL     OW 8836   0.317   4.271   6.866
 2835SOL    HW1 8837   0.355   4.212   6.938
 2835SOL    HW2 8838   0.357   4.245   6.778
 2836SOL     OW 8839   1.424   3.938   6.698
 2836SOL    HW1 8840   1.476   3.873   6.753
 2836SOL    HW2 8841   1.375   4.001   6.759
 2837SOL     OW 8842   1.001   3.758   6.740
 2837SOL    HW1 8843   0.938   3.686   6.709
 2837SOL    HW2 8844   1.094   3.722   6.740
 2838SOL     OW 8845   1.352   3.776   5.754
 2838SOL    HW1 8846   1.387   3.735   5.670
 2838SOL    HW2 8847   1.262   3.738   5.774
 2839SOL     OW 8848   1.300   4.177   6.277
 2839SOL    HW1 8849   1.241   4.257   6.281
 2839SOL    HW2 8850   1.315   4.142   6.370
 2840SOL     OW 8851   1.593   3.945   6.468
 2840SOL    HW1 8852   1.509   3.944   6.522
 2840SOL    HW2 8853   1.595   4.028   6.412
 2841SOL     OW 8854   0.230   4.352   7.561
 2841SOL    HW1 8855   0.137   4.350   7.598
 2841SOL    HW2 8856   0.231   4.313   7.469
 2842SOL     OW 8857   0.225   3.999   8.444
 2842SOL    HW1 8858   0.260   3.982   8.536
 2842SOL    HW2 8859   0.137   3.954   8.432
 2843SOL     OW 8860   0.019   4.092   8.095
 2843SOL    HW1 8861  -0.063   4.135   8.134
 2843SOL    HW2 8862  -0.009   4.019   8.032
 2844SOL     OW 8863   1.755   4.331   7.679
 2844SOL    HW1 8864   1.743   4.318   7.580
 2844SOL    HW2 8865   1.725   4.250   7.728
 2845SOL     OW 8866   0.685   4.736   8.113
 2845SOL    HW1 8867   0.754   4.720   8.183
 2845SOL    HW2 8868   0.612   4.793   8.151
 2846SOL     OW 8869   0.438   4.116   8.947
 2846SOL    HW1 8870   0.520   4.060   8.956
 2846SOL    HW2 8871   0.357   4.058   8.951
 2847SOL     OW 8872   1.603   4.171   8.185
 2847SOL    HW1 8873   1.529   4.217   8.135
 2847SOL    HW2 8874   1.654   4.239   8.238
 2848SOL     OW 8875   1.594   3.838   8.928
 2848SOL    HW1 8876   1.576   3.905   8.856
 2848SOL    HW2 8877   1.591   3.884   9.017
 2849SOL     OW 8878   0.122   4.367   8.011
 2849SOL    HW1 8879   0.077   4.279   8.028
 2849SOL    HW2 8880   0.121   4.421   8.095
 2850SOL     OW 8881   0.113   4.461   9.045
 2850SOL    HW1 8882   0.201   4.448   9.090
 2850SOL    HW2 8883   0.100   4.558   9.023
 2851SOL     OW 8884   0.809   3.728   7.950
 2851SOL    HW1 8885   0.849   3.819   7.941
 2851SOL    HW2 8886   0.709   3.736   7.956
 2852SOL     OW 8887   0.317   3.975   9.249
 2852SOL    HW1 8888   0.388   4.046   9.255
 2852SOL    HW2 8889   0.229   4.014   9.277
 2853SOL     OW 8890   1.281   4.069   8.392
 2853SOL    HW1 8891   1.195   4.019   8.379
 2853SOL    HW2 8892   1.343   4.015   8.448
 2854SOL     OW 8893   0.807   4.329   8.913
 2854SOL    HW1 8894   0.760   4.326   9.002
 2854SOL    HW2 8895   0.756   4.274   8.847
 2855SOL     OW 8896   1.394   4.193   9.122
 2855SOL    HW1 8897   1.374   4.236   9.210
 2855SOL    HW2 8898   1.472   4.131   9.131
 2856SOL     OW 8899   0.991   4.134   8.690
 2856SOL    HW1 8900   0.914   4.168   8.744
 2856SOL    HW2 8901   0.957   4.083   8.611
 2857SOL     OW 8902   1.041   4.425   7.877
 2857SOL    HW1 8903   1.067   4.421   7.973
 2857SOL    HW2 8904   0.956   4.374   7.863
 2858SOL     OW 8905   0.076   4.535   8.237
 2858SOL    HW1 8906   0.175   4.523   8.246
 2858SOL    HW2 8907   0.052   4.630   8.258
 2859SOL     OW 8908   0.865   4.072   7.643
 2859SOL    HW1 8909   0.924   4.135   7.594
 2859SOL    HW2 8910   0.884   3.978   7.614
 2860SOL     OW 8911   1.719   4.309   9.279
 2860SOL    HW1 8912   1.693   4.398   9.243
 2860SOL    HW2 8913   1.717   4.241   9.206
 2861SOL     OW 8914   0.550   3.920   8.333
 2861SOL    HW1 8915   0.545   3.915   8.433
 2861SOL    HW2 8916   0.552   4.016   8.304
 2862SOL     OW 8917   1.458   4.459   8.176
 2862SOL    HW1 8918   1.453   4.394   8.251
 2862SOL    HW2 8919   1.538   4.518   8.189
 2863SOL     OW 8920   0.202   4.009   8.946
 2863SOL    HW1 8921   0.122   4.069   8.933
 2863SOL    HW2 8922   0.192   3.960   9.032
 2864SOL     OW 8923   1.400   3.831   7.874
 2864SOL    HW1 8924   1.376   3.794   7.784
 2864SOL    HW2 8925   1.499   3.847   7.878
 2865SOL     OW 8926   0.382   4.424   7.928
 2865SOL    HW1 8927   0.427   4.334   7.925
 2865SOL    HW2 8928   0.288   4.413   7.961
 2866SOL     OW 8929   1.547   3.946   9.177
 2866SOL    HW1 8930   1.542   3.983   9.269
 2866SOL    HW2 8931   1.475   3.877   9.165
 2867SOL     OW 8932   0.614   3.846   7.565
 2867SOL    HW1 8933   0.712   3.824   7.572
 2867SOL    HW2 8934   0.583   3.829   7.472
 2868SOL     OW 8935   0.781   3.988   9.197
 2868SOL    HW1 8936   0.848   3.927   9.240
 2868SOL    HW2 8937   0.708   4.007   9.262
 2869SOL     OW 8938   1.351   4.314   8.881
 2869SOL    HW1 8939   1.379   4.271   8.966
 2869SOL    HW2 8940   1.376   4.410   8.882
 2870SOL     OW 8941   0.922   4.227   8.347
 2870SOL    HW1 8942   0.897   4.218   8.251
 2870SOL    HW2 8943   0.970   4.145   8.378
 2871SOL     OW 8944   0.539   3.788   7.960
 2871SOL    HW1 8945   0.458   3.789   8.018
 2871SOL    HW2 8946   0.542   3.871   7.905
 2872SOL     OW 8947   0.297   3.759   7.619
 2872SOL    HW1 8948   0.346   3.843   7.598
 2872SOL    HW2 8949   0.359   3.694   7.664
 2873SOL     OW 8950   0.935   3.960   7.928
 2873SOL    HW1 8951   0.887   4.001   7.850
 2873SOL    HW2 8952   1.034   3.958   7.909
 2874SOL     OW 8953   1.076   4.407   8.912
 2874SOL    HW1 8954   0.996   4.346   8.915
 2874SOL    HW2 8955   1.157   4.354   8.888
 2875SOL     OW 8956   1.032   4.273   7.464
 2875SOL    HW1 8957   0.991   4.355   7.425
 2875SOL    HW2 8958   1.096   4.299   7.537
 2876SOL     OW 8959   0.078   4.280   8.834
 2876SOL    HW1 8960   0.170   4.279   8.793
 2876SOL    HW2 8961   0.072   4.354   8.901
 2877SOL     OW 8962   0.561   3.946   8.595
 2877SOL    HW1 8963   0.599   3.862   8.632
 2877SOL    HW2 8964   0.473   3.965   8.639
 2878SOL     OW 8965   0.866   4.178   8.090
 2878SOL    HW1 8966   0.834   4.250   8.028
 2878SOL    HW2 8967   0.890   4.097   8.037
 2879SOL     OW 8968   1.017   3.763   8.201
 2879SOL    HW1 8969   0.945   3.768   8.132
 2879SOL    HW2 8970   0.993   3.694   8.270
 2880SOL     OW 8971   1.466   4.314   8.440
 2880SOL    HW1 8972   1.436   4.219   8.447
 2880SOL    HW2 8973   1.539   4.330   8.506
 2881SOL     OW 8974   1.390   4.299   7.526
 2881SOL    HW1 8975   1.336   4.278   7.607
 2881SOL    HW2 8976   1.481   4.258   7.535
 2882SOL     OW 8977   0.527   3.980   7.776
 2882SOL    HW1 8978   0.554   3.921   7.701
 2882SOL    HW2 8979   0.527   4.075   7.745
 2883SOL     OW 8980   0.915   3.813   8.850
 2883SOL    HW1 8981   0.940   3.793   8.755
 2883SOL    HW2 8982   0.987   3.869   8.892
 2884SOL     OW 8983   0.410   4.537   8.699
 2884SOL    HW1 8984   0.496   4.549   8.749
 2884SOL    HW2 8985   0.368   4.450   8.726
 2885SOL     OW 8986   1.274   4.110   8.710
 2885SOL    HW1 8987   1.295   4.184   8.774
 2885SOL    HW2 8988   1.185   4.127   8.667
 2886SOL     OW 8989   0.566   4.261   8.313
 2886SOL    HW1 8990   0.578   4.327   8.239
 2886SOL    HW2 8991   0.612   4.295   8.396
 2887SOL     OW 8992   1.582   4.363   7.920
 2887SOL    HW1 8993   1.551   4.424   7.993
 2887SOL    HW2 8994   1.632   4.415   7.851
 2888SOL     OW 8995   1.013   3.829   9.218
 2888SOL    HW1 8996   1.019   3.914   9.166
 2888SOL    HW2 8997   1.045   3.753   9.161
 2889SOL     OW 8998   0.504   3.774   9.188
 2889SOL    HW1 8999   0.462   3.717   9.118
 2889SOL    HW2 9000   0.438   3.843   9.220
 2890SOL     OW 9001   1.209   4.249   7.723
 2890SOL    HW1 9002   1.222   4.165   7.777
 2890SOL    HW2 9003   1.180   4.323   7.783
 2891SOL     OW 9004   0.307   3.937   8.679
 2891SOL    HW1 9005   0.284   3.974   8.769
 2891SOL    HW2 9006   0.277   3.842   8.673
 2892SOL     OW 9007   0.732   4.358   8.512
 2892SOL    HW1 9008   0.791   4.332   8.436
 2892SOL    HW2 9009   0.704   4.454   8.501
 2893SOL     OW 9010   1.728   4.659   9.302
 2893SOL    HW1 9011   1.682   4.652   9.213
 2893SOL    HW2 9012   1.666   4.703   9.368
 2894SOL     OW 9013   0.307   3.787   8.066
 2894SOL    HW1 9014   0.296   3.881   8.099
 2894SOL    HW2 9015   0.302   3.724   8.143
 2895SOL     OW 9016   1.622   4.091   7.822
 2895SOL    HW1 9017   1.624   4.015   7.886
 2895SOL    HW2 9018   1.574   4.168   7.862
 2896SOL     OW 9019   1.540   3.998   7.573
 2896SOL    HW1 9020   1.479   3.923   7.596
 2896SOL    HW2 9021   1.562   4.050   7.656
 2897SOL     OW 9022   0.319   4.534   8.397
 2897SOL    HW1 9023   0.412   4.570   8.402
 2897SOL    HW2 9024   0.313   4.449   8.449
 2898SOL     OW 9025   0.339   4.233   8.454
 2898SOL    HW1 9026   0.287   4.150   8.437
 2898SOL    HW2 9027   0.416   4.238   8.390
 2899SOL     OW 9028   1.138   4.104   9.126
 2899SOL    HW1 9029   1.093   4.167   9.190
 2899SOL    HW2 9030   1.231   4.135   9.109
 2900SOL     OW 9031   1.160   3.931   8.925
 2900SOL    HW1 9032   1.160   3.995   9.002
 2900SOL    HW2 9033   1.188   3.979   8.842
 2901SOL     OW 9034   0.040   4.268   8.562
 2901SOL    HW1 9035   0.125   4.235   8.521
 2901SOL    HW2 9036   0.053   4.283   8.660
 2902SOL     OW 9037   0.189   4.244   9.170
 2902SOL    HW1 9038   0.248   4.204   9.100
 2902SOL    HW2 9039   0.131   4.315   9.129
 2903SOL     OW 9040   0.815   4.296   7.773
 2903SOL    HW1 9041   0.822   4.207   7.727
 2903SOL    HW2 9042   0.721   4.330   7.765
 2904SOL     OW 9043   1.657   4.328   8.654
 2904SOL    HW1 9044   1.619   4.259   8.716
 2904SOL    HW2 9045   1.739   4.292   8.610
 2905SOL     OW 9046   0.671   4.188   8.717
 2905SOL    HW1 9047   0.637   4.099   8.687
 2905SOL    HW2 9048   0.697   4.242   8.637
 2906SOL     OW 9049   0.473   4.224   7.639
 2906SOL    HW1 9050   0.534   4.304   7.643
 2906SOL    HW2 9051   0.378   4.255   7.646
 2907SOL     OW 9052   1.726   3.859   7.971
 2907SOL    HW1 9053   1.799   3.842   7.904
 2907SOL    HW2 9054   1.695   3.772   8.009
 2908SOL     OW 9055   1.280   4.651   8.120
 2908SOL    HW1 9056   1.340   4.570   8.122
 2908SOL    HW2 9057   1.320   4.720   8.060
 2909SOL     OW 9058   1.841   3.899   8.411
 2909SOL    HW1 9059   1.880   3.814   8.375
 2909SOL    HW2 9060   1.743   3.901   8.392
 2910SOL     OW 9061   0.263   4.050   8.168
 2910SOL    HW1 9062   0.184   4.101   8.134
 2910SOL    HW2 9063   0.254   4.035   8.266
 2911SOL     OW 9064   0.916   4.634   7.739
 2911SOL    HW1 9065   0.979   4.672   7.671
 2911SOL    HW2 9066   0.956   4.551   7.778
 2912SOL     OW 9067   1.039   4.822   8.144
 2912SOL    HW1 9068   0.969   4.775   8.198
 2912SOL    HW2 9069   1.098   4.754   8.101
 2913SOL     OW 9070   1.014   3.960   8.419
 2913SOL    HW1 9071   1.006   3.924   8.326
 2913SOL    HW2 9072   1.012   3.884   8.484
 2914SOL     OW 9073   1.709   4.109   8.829
 2914SOL    HW1 9074   1.782   4.178   8.833
 2914SOL    HW2 9075   1.737   4.034   8.770
 2915SOL     OW 9076   0.672   3.927   8.937
 2915SOL    HW1 9077   0.762   3.911   8.897
 2915SOL    HW2 9078   0.680   3.932   9.036
 2916SOL     OW 9079   0.075   4.069   7.481
 2916SOL    HW1 9080  -0.017   4.041   7.452
 2916SOL    HW2 9081   0.106   4.146   7.425
 2917SOL     OW 9082   0.072   3.890   7.766
 2917SOL    HW1 9083   0.055   3.973   7.712
 2917SOL    HW2 9084   0.162   3.853   7.744
 2918SOL     OW 9085   0.716   4.289   9.156
 2918SOL    HW1 9086   0.735   4.354   9.230
 2918SOL    HW2 9087   0.776   4.209   9.165
 2919SOL     OW 9088   1.225   4.049   7.897
 2919SOL    HW1 9089   1.290   3.975   7.886
 2919SOL    HW2 9090   1.245   4.099   7.981
 2920SOL     OW 9091   1.777   4.066   9.090
 2920SOL    HW1 9092   1.760   4.097   8.996
 2920SOL    HW2 9093   1.693   4.029   9.128
 2921SOL     OW 9094   1.083   4.708   7.535
 2921SOL    HW1 9095   1.060   4.761   7.453
 2921SOL    HW2 9096   1.164   4.652   7.516
 2922SOL     OW 9097   1.824   3.916   8.675
 2922SOL    HW1 9098   1.820   3.826   8.719
 2922SOL    HW2 9099   1.827   3.905   8.576
 2923SOL     OW 9100   0.428   4.148   7.968
 2923SOL    HW1 9101   0.458   4.076   7.906
 2923SOL    HW2 9102   0.389   4.108   8.051
 2924SOL     OW 9103   0.317   4.271   8.728
 2924SOL    HW1 9104   0.355   4.212   8.800
 2924SOL    HW2 9105   0.357   4.245   8.640
 2925SOL     OW 9106   1.424   3.938   8.560
 2925SOL    HW1 9107   1.476   3.873   8.615
 2925SOL    HW2 9108   1.375   4.001   8.621
 2926SOL     OW 9109   1.001   3.758   8.602
 2926SOL    HW1 9110   0.938   3.686   8.571
 2926SOL    HW2 9111   1.094   3.722   8.602
 2927SOL     OW 9112   1.352   3.776   7.616
 2927SOL    HW1 9113   1.387   3.735   7.532
 2927SOL    HW2 9114   1.262   3.738   7.636
 2928SOL     OW 9115   1.300   4.177   8.139
 2928SOL    HW1 9116   1.241   4.257   8.143
 2928SOL    HW2 9117   1.315   4.142   8.232
 2929SOL     OW 9118   1.593   3.945   8.330
 2929SOL    HW1 9119   1.509   3.944   8.384
 2929SOL    HW2 9120   1.595   4.028   8.274
 2930SOL     OW 9121   0.230   4.352   9.423
 2930SOL    HW1 9122   0.137   4.350   9.460
 2930SOL    HW2 9123   0.231   4.313   9.331
 2931SOL     OW 9124   0.225   3.999  10.306
 2931SOL    HW1 9125   0.260   3.982  10.398
 2931SOL    HW2 9126   0.137   3.954  10.294
 2932SOL     OW 9127   0.019   4.092   9.957
 2932SOL    HW1 9128  -0.063   4.135   9.996
 2932SOL    HW2 9129  -0.009   4.019   9.894
 2933SOL     OW 9130   1.755   4.331   9.541
 2933SOL    HW1 9131   1.743   4.318   9.442
 2933SOL    HW2 9132   1.725   4.250   9.590
 2934SOL     OW 9133   0.685   4.736   9.975
 2934SOL    HW1 9134   0.754   4.720  10.045
 2934SOL    HW2 9135   0.612   4.793  10.013
 2935SOL     OW 9136   0.438   4.116  10.809
 2935SOL    HW1 9137   0.520   4.060  10.818
 2935SOL    HW2 9138   0.357   4.058  10.813
 2936SOL     OW 9139   1.603   4.171  10.047
 2936SOL    HW1 9140   1.529   4.217   9.997
 2936SOL    HW2 9141   1.654   4.239  10.100
 2937SOL     OW 9142   1.594   3.838  10.790
 2937SOL    HW1 9143   1.576   3.905  10.718
 2937SOL    HW2 9144   1.591   3.884  10.879
 2938SOL     OW 9145   0.122   4.367   9.873
 2938SOL    HW1 9146   0.077   4.279   9.890
 2938SOL    HW2 9147   0.121   4.421   9.957
 2939SOL     OW 9148   0.809   3.728   9.812
 2939SOL    HW1 9149   0.849   3.819   9.803
 2939SOL    HW2 9150   0.709   3.736   9.818
 2940SOL     OW 9151   1.281   4.069  10.254
 2940SOL    HW1 9152   1.195   4.019  10.241
 2940SOL    HW2 9153   1.343   4.015  10.310
 2941SOL     OW 9154   0.807   4.329  10.775
 2941SOL    HW1 9155   0.760   4.326  10.864
 2941SOL    HW2 9156   0.756   4.274  10.709
 2942SOL     OW 9157   0.991   4.134  10.552
 2942SOL    HW1 9158   0.914   4.168  10.606
 2942SOL    HW2 9159   0.957   4.083  10.473
 2943SOL     OW 9160   1.041   4.425   9.739
 2943SOL    HW1 9161   1.067   4.421   9.835
 2943SOL    HW2 9162   0.956   4.374   9.725
 2944SOL     OW 9163   0.076   4.535  10.099
 2944SOL    HW1 9164   0.175   4.523  10.108
 2944SOL    HW2 9165   0.052   4.630  10.120
 2945SOL     OW 9166   0.865   4.072   9.505
 2945SOL    HW1 9167   0.924   4.135   9.456
 2945SOL    HW2 9168   0.884   3.978   9.476
 2946SOL     OW 9169   0.550   3.920  10.195
 2946SOL    HW1 9170   0.545   3.915  10.295
 2946SOL    HW2 9171   0.552   4.016  10.166
 2947SOL     OW 9172   1.458   4.459  10.038
 2947SOL    HW1 9173   1.453   4.394  10.113
 2947SOL    HW2 9174   1.538   4.518  10.051
 2948SOL     OW 9175   1.400   3.831   9.736
 2948SOL    HW1 9176   1.376   3.794   9.646
 2948SOL    HW2 9177   1.499   3.847   9.740
 2949SOL     OW 9178   0.382   4.424   9.790
 2949SOL    HW1 9179   0.427   4.334   9.787
 2949SOL    HW2 9180   0.288   4.413   9.823
 2950SOL     OW 9181   0.614   3.846   9.427
 2950SOL    HW1 9182   0.712   3.824   9.434
 2950SOL    HW2 9183   0.583   3.829   9.334
 2951SOL     OW 9184   1.351   4.314  10.743
 2951SOL    HW1 9185   1.379   4.271  10.828
 2951SOL    HW2 9186   1.376   4.410  10.744
 2952SOL     OW 9187   0.922   4.227  10.209
 2952SOL    HW1 9188   0.897   4.218  10.113
 2952SOL    HW2 9189   0.970   4.145  10.240
 2953SOL     OW 9190   0.539   3.788   9.822
 2953SOL    HW1 9191   0.458   3.789   9.880
 2953SOL    HW2 9192   0.542   3.871   9.767
 2954SOL     OW 9193   0.297   3.759   9.481
 2954SOL    HW1 9194   0.346   3.843   9.460
 2954SOL    HW2 9195   0.359   3.694   9.526
 2955SOL     OW 9196   0.935   3.960   9.790
 2955SOL    HW1 9197   0.887   4.001   9.712
 2955SOL    HW2 9198   1.034   3.958   9.771
 2956SOL     OW 9199   1.032   4.273   9.326
 2956SOL    HW1 9200   0.991   4.355   9.287
 2956SOL    HW2 9201   1.096   4.299   9.399
 2957SOL     OW 9202   0.078   4.280  10.696
 2957SOL    HW1 9203   0.170   4.279  10.655
 2957SOL    HW2 9204   0.072   4.354  10.763
 2958SOL     OW 9205   0.561   3.946  10.457
 2958SOL    HW1 9206   0.599   3.862  10.494
 2958SOL    HW2 9207   0.473   3.965  10.501
 2959SOL     OW 9208   0.866   4.178   9.952
 2959SOL    HW1 9209   0.834   4.250   9.890
 2959SOL    HW2 9210   0.890   4.097   9.899
 2960SOL     OW 9211   1.017   3.763  10.063
 2960SOL    HW1 9212   0.945   3.768   9.994
 2960SOL    HW2 9213   0.993   3.694  10.132
 2961SOL     OW 9214   1.466   4.314  10.302
 2961SOL    HW1 9215   1.436   4.219  10.309
 2961SOL    HW2 9216   1.539   4.330  10.368
 2962SOL     OW 9217   1.390   4.299   9.388
 2962SOL    HW1 9218   1.336   4.278   9.469
 2962SOL    HW2 9219   1.481   4.258   9.397
 2963SOL     OW 9220   0.527   3.980   9.638
 2963SOL    HW1 9221   0.554   3.921   9.563
 2963SOL    HW2 9222   0.527   4.075   9.607
 2964SOL     OW 9223   0.915   3.813  10.712
 2964SOL    HW1 9224   0.940   3.793  10.617
 2964SOL    HW2 9225   0.987   3.869  10.754
 2965SOL     OW 9226   0.410   4.537  10.561
 2965SOL    HW1 9227   0.496   4.549  10.611
 2965SOL    HW2 9228   0.368   4.450  10.588
 2966SOL     OW 9229   1.274   4.110  10.572
 2966SOL    HW1 9230   1.295   4.184  10.636
 2966SOL    HW2 9231   1.185   4.127  10.529
 2967SOL     OW 9232   0.566   4.261  10.175
 2967SOL    HW1 9233   0.578   4.327  10.101
 2967SOL    HW2 9234   0.612   4.295  10.258
 2968SOL     OW 9235   1.582   4.363   9.782
 2968SOL    HW1 9236   1.551   4.424   9.855
 2968SOL    HW2 9237   1.632   4.415   9.713
 2969SOL     OW 9238   0.402   4.475  10.908
 2969SOL    HW1 9239   0.470   4.530  10.861
 2969SOL    HW2 9240   0.442   4.387  10.935
 2970SOL     OW 9241   1.209   4.249   9.585
 2970SOL    HW1 9242   1.222   4.165   9.639
 2970SOL    HW2 9243   1.180   4.323   9.645
 2971SOL     OW 9244   0.307   3.937  10.541
 2971SOL    HW1 9245   0.284   3.974  10.631
 2971SOL    HW2 9246   0.277   3.842  10.535
 2972SOL     OW 9247   0.732   4.358  10.374
 2972SOL    HW1 9248   0.791   4.332  10.298
 2972SOL    HW2 9249   0.704   4.454  10.363
 2973SOL     OW 9250   1.728   4.659  11.164
 2973SOL    HW1 9251   1.682   4.652  11.075
 2973SOL    HW2 9252   1.666   4.703  11.230
 2974SOL     OW 9253   0.307   3.787   9.928
 2974SOL    HW1 9254   0.296   3.881   9.961
 2974SOL    HW2 9255   0.302   3.724  10.005
 2975SOL     OW 9256   1.622   4.091   9.684
 2975SOL    HW1 9257   1.624   4.015   9.748
 2975SOL    HW2 9258   1.574   4.168   9.724
 2976SOL     OW 9259   1.540   3.998   9.435
 2976SOL    HW1 9260   1.479   3.923   9.458
 2976SOL    HW2 9261   1.562   4.050   9.518
 2977SOL     OW 9262   0.319   4.534  10.259
 2977SOL    HW1 9263   0.412   4.570  10.264
 2977SOL    HW2 9264   0.313   4.449  10.311
 2978SOL     OW 9265   0.339   4.233  10.316
 2978SOL    HW1 9266   0.287   4.150  10.299
 2978SOL    HW2 9267   0.416   4.238  10.252
 2979SOL     OW 9268   1.138   4.104  10.988
 2979SOL    HW1 9269   1.093   4.167  11.052
 2979SOL    HW2 9270   1.231   4.135  10.971
 2980SOL     OW 9271   1.160   3.931  10.787
 2980SOL    HW1 9272   1.160   3.995  10.864
 2980SOL    HW2 9273   1.188   3.979  10.704
 2981SOL     OW 9274   0.040   4.268  10.424
 2981SOL    HW1 9275   0.125   4.235  10.383
 2981SOL    HW2 9276   0.053   4.283  10.522
 2982SOL     OW 9277   0.815   4.296   9.635
 2982SOL    HW1 9278   0.822   4.207   9.589
 2982SOL    HW2 9279   0.721   4.330   9.627
 2983SOL     OW 9280   1.657   4.328  10.516
 2983SOL    HW1 9281   1.619   4.259  10.578
 2983SOL    HW2 9282   1.739   4.292  10.472
 2984SOL     OW 9283   0.671   4.188  10.579
 2984SOL    HW1 9284   0.637   4.099  10.549
 2984SOL    HW2 9285   0.697   4.242  10.499
 2985SOL     OW 9286   0.473   4.224   9.501
 2985SOL    HW1 9287   0.534   4.304   9.505
 2985SOL    HW2 9288   0.378   4.255   9.508
 2986SOL     OW 9289   1.726   3.859   9.833
 2986SOL    HW1 9290   1.799   3.842   9.766
 2986SOL    HW2 9291   1.695   3.772   9.871
 2987SOL     OW 9292   1.280   4.651   9.982
 2987SOL    HW1 9293   1.340   4.570   9.984
 2987SOL    HW2 9294   1.320   4.720   9.922
 2988SOL     OW 9295   1.841   3.899  10.273
 2988SOL    HW1 9296   1.880   3.814  10.237
 2988SOL    HW2 9297   1.743   3.901  10.254
 2989SOL     OW 9298   0.263   4.050  10.030
 2989SOL    HW1 9299   0.184   4.101   9.996
 2989SOL    HW2 9300   0.254   4.035  10.128
 2990SOL     OW 9301   0.916   4.634   9.601
 2990SOL    HW1 9302   0.979   4.672   9.533
 2990SOL    HW2 9303   0.956   4.551   9.640
 2991SOL     OW 9304   1.039   4.822  10.006
 2991SOL    HW1 9305   0.969   4.775  10.060
 2991SOL    HW2 9306   1.098   4.754   9.963
 2992SOL     OW 9307   1.014   3.960  10.281
 2992SOL    HW1 9308   1.006   3.924  10.188
 2992SOL    HW2 9309   1.012   3.884  10.346
 2993SOL     OW 9310   1.709   4.109  10.691
 2993SOL    HW1 9311   1.782   4.178  10.695
 2993SOL    HW2 9312   1.737   4.034  10.632
 2994SOL     OW 9313   0.672   3.927  10.799
 2994SOL    HW1 9314   0.762   3.911  10.759
 2994SOL    HW2 9315   0.680   3.932  10.898
 2995SOL     OW 9316   0.075   4.069   9.343
 2995SOL    HW1 9317  -0.017   4.041   9.314
 2995SOL    HW2 9318   0.106   4.146   9.287
 2996SOL     OW 9319   0.072   3.890   9.628
 2996SOL    HW1 9320   0.055   3.973   9.574
 2996SOL    HW2 9321   0.162   3.853   9.606
 2997SOL     OW 9322   0.716   4.289  11.018
 2997SOL    HW1 9323   0.735   4.354  11.092
 2997SOL    HW2 9324   0.776   4.209  11.027
 2998SOL     OW 9325   1.225   4.049   9.759
 2998SOL    HW1 9326   1.290   3.975   9.748
 2998SOL    HW2 9327   1.245   4.099   9.843
 2999SOL     OW 9328   1.083   4.708   9.397
 2999SOL    HW1 9329   1.060   4.761   9.315
 2999SOL    HW2 9330   1.164   4.652   9.378
 3000SOL     OW 9331   1.824   3.916  10.537
 3000SOL    HW1 9332   1.820   3.826  10.581
 3000SOL    HW2 9333   1.827   3.905  10.438
 3001SOL     OW 9334   0.428   4.148   9.830
 3001SOL    HW1 9335   0.458   4.076   9.768
 3001SOL    HW2 9336   0.389   4.108   9.913
 3002SOL     OW 9337   0.317   4.271  10.590
 3002SOL    HW1 9338   0.355   4.212  10.662
 3002SOL    HW2 9339   0.357   4.245  10.502
 3003SOL     OW 9340   1.424   3.938  10.422
 3003SOL    HW1 9341   1.476   3.873  10.477
 3003SOL    HW2 9342   1.375   4.001  10.483
 3004SOL     OW 9343   1.001   3.758  10.464
 3004SOL    HW1 9344   0.938   3.686  10.433
 3004SOL    HW2 9345   1.094   3.722  10.464
 3005SOL     OW 9346   1.352   3.776   9.478
 3005SOL    HW1 9347   1.387   3.735   9.394
 3005SOL    HW2 9348   1.262   3.738   9.498
 3006SOL     OW 9349   1.300   4.177  10.001
 3006SOL    HW1 9350   1.241   4.257  10.005
 3006SOL    HW2 9351   1.315   4.142  10.094
 3007SOL     OW 9352   1.593   3.945  10.192
 3007SOL    HW1 9353   1.509   3.944  10.246
 3007SOL    HW2 9354   1.595   4.028  10.136
 3008SOL     OW 9355   2.092   0.628   0.113
 3008SOL    HW1 9356   1.999   0.626   0.150
 3008SOL    HW2 9357   2.093   0.589   0.021
 3009SOL     OW 9358   2.087   0.275   0.996
 3009SOL    HW1 9359   2.122   0.258   1.088
 3009SOL    HW2 9360   1.999   0.230   0.984
 3010SOL     OW 9361   1.881   0.368   0.647
 3010SOL    HW1 9362   1.799   0.411   0.686
 3010SOL    HW2 9363   1.853   0.295   0.584
 3011SOL     OW 9364   2.431   1.275   1.165
 3011SOL    HW1 9365   2.338   1.268   1.128
 3011SOL    HW2 9366   2.442   1.364   1.209
 3012SOL     OW 9367   3.417   1.511   0.703
 3012SOL    HW1 9368   3.360   1.495   0.784
 3012SOL    HW2 9369   3.358   1.521   0.623
 3013SOL     OW 9370   2.997   0.703   0.717
 3013SOL    HW1 9371   3.054   0.781   0.692
 3013SOL    HW2 9372   2.937   0.729   0.793
 3014SOL     OW 9373   3.617   0.607   0.231
 3014SOL    HW1 9374   3.605   0.594   0.132
 3014SOL    HW2 9375   3.587   0.526   0.280
 3015SOL     OW 9376   2.630   1.144   1.023
 3015SOL    HW1 9377   2.552   1.161   1.083
 3015SOL    HW2 9378   2.664   1.231   0.987
 3016SOL     OW 9379   2.712   0.798   1.823
 3016SOL    HW1 9380   2.708   0.874   1.888
 3016SOL    HW2 9381   2.734   0.834   1.732
 3017SOL     OW 9382   2.547   1.012   0.665
 3017SOL    HW1 9383   2.616   0.996   0.735
 3017SOL    HW2 9384   2.474   1.069   0.703
 3018SOL     OW 9385   2.548   1.161   1.803
 3018SOL    HW1 9386   2.608   1.240   1.817
 3018SOL    HW2 9387   2.462   1.192   1.762
 3019SOL     OW 9388   2.197   1.435   1.061
 3019SOL    HW1 9389   2.119   1.404   1.008
 3019SOL    HW2 9390   2.255   1.493   1.004
 3020SOL     OW 9391   3.322   1.505   1.339
 3020SOL    HW1 9392   3.346   1.599   1.365
 3020SOL    HW2 9393   3.306   1.451   1.421
 3021SOL     OW 9394   2.300   0.392   1.499
 3021SOL    HW1 9395   2.382   0.336   1.508
 3021SOL    HW2 9396   2.219   0.334   1.503
 3022SOL     OW 9397   3.465   0.447   0.737
 3022SOL    HW1 9398   3.391   0.493   0.687
 3022SOL    HW2 9399   3.516   0.515   0.790
 3023SOL     OW 9400   2.093   1.713   0.483
 3023SOL    HW1 9401   2.127   1.790   0.537
 3023SOL    HW2 9402   2.137   1.713   0.393
 3024SOL     OW 9403   2.989   1.341   1.690
 3024SOL    HW1 9404   3.036   1.341   1.778
 3024SOL    HW2 9405   2.941   1.254   1.679
 3025SOL     OW 9406   2.092   1.434   0.538
 3025SOL    HW1 9407   2.066   1.530   0.538
 3025SOL    HW2 9408   2.021   1.380   0.583
 3026SOL     OW 9409   2.102   1.091   0.886
 3026SOL    HW1 9410   2.116   1.007   0.938
 3026SOL    HW2 9411   2.047   1.155   0.941
 3027SOL     OW 9412   2.482   1.786   1.439
 3027SOL    HW1 9413   2.390   1.769   1.474
 3027SOL    HW2 9414   2.510   1.878   1.465
 3028SOL     OW 9415   2.468   0.964   0.123
 3028SOL    HW1 9416   2.475   1.048   0.069
 3028SOL    HW2 9417   2.514   0.977   0.211
 3029SOL     OW 9418   3.456   0.114   1.480
 3029SOL    HW1 9419   3.438   0.181   1.408
 3029SOL    HW2 9420   3.453   0.160   1.569
 3030SOL     OW 9421   1.984   0.643   0.563
 3030SOL    HW1 9422   1.939   0.555   0.580
 3030SOL    HW2 9423   1.983   0.697   0.647
 3031SOL     OW 9424   3.704   1.767   0.359
 3031SOL    HW1 9425   3.758   1.738   0.439
 3031SOL    HW2 9426   3.734   1.857   0.330
 3032SOL     OW 9427   1.889   1.596   0.117
 3032SOL    HW1 9428   1.870   1.500   0.138
 3032SOL    HW2 9429   1.856   1.654   0.192
 3033SOL     OW 9430   3.551   0.922   0.612
 3033SOL    HW1 9431   3.646   0.893   0.620
 3033SOL    HW2 9432   3.543   0.987   0.537
 3034SOL     OW 9433   3.503   1.108   0.432
 3034SOL    HW1 9434   3.589   1.110   0.380
 3034SOL    HW2 9435   3.517   1.155   0.520
 3035SOL     OW 9436   1.975   0.737   1.597
 3035SOL    HW1 9437   2.063   0.724   1.642
 3035SOL    HW2 9438   1.962   0.834   1.575
 3036SOL     OW 9439   2.475   1.365   0.726
 3036SOL    HW1 9440   2.426   1.278   0.735
 3036SOL    HW2 9441   2.452   1.408   0.639
 3037SOL     OW 9442   3.155   1.228   1.423
 3037SOL    HW1 9443   3.192   1.155   1.365
 3037SOL    HW2 9444   3.207   1.233   1.508
 3038SOL     OW 9445   2.671   0.004   0.502
 3038SOL    HW1 9446   2.711   0.095   0.493
 3038SOL    HW2 9447   2.571   0.012   0.508
 3039SOL     OW 9448   2.059   0.976   1.264
 3039SOL    HW1 9449   2.148   0.931   1.250
 3039SOL    HW2 9450   1.986   0.911   1.245
 3040SOL     OW 9451   3.387   0.999   0.190
 3040SOL    HW1 9452   3.324   0.923   0.203
 3040SOL    HW2 9453   3.435   1.017   0.276
 3041SOL     OW 9454   3.049   1.792   1.616
 3041SOL    HW1 9455   3.073   1.852   1.540
 3041SOL    HW2 9456   3.056   1.697   1.586
 3042SOL     OW 9457   2.179   0.251   1.801
 3042SOL    HW1 9458   2.250   0.322   1.807
 3042SOL    HW2 9459   2.091   0.290   1.829
 3043SOL     OW 9460   3.328   1.417   0.953
 3043SOL    HW1 9461   3.269   1.423   1.033
 3043SOL    HW2 9462   3.313   1.329   0.907
 3044SOL     OW 9463   3.529   1.714   0.572
 3044SOL    HW1 9464   3.488   1.691   0.484
 3044SOL    HW2 9465   3.511   1.640   0.637
 3045SOL     OW 9466   2.460   0.729   0.270
 3045SOL    HW1 9467   2.484   0.798   0.202
 3045SOL    HW2 9468   2.382   0.762   0.324
 3046SOL     OW 9469   3.143   0.345   0.944
 3046SOL    HW1 9470   3.057   0.295   0.931
 3046SOL    HW2 9471   3.205   0.291   1.000
 3047SOL     OW 9472   3.438   1.662   0.307
 3047SOL    HW1 9473   3.527   1.708   0.310
 3047SOL    HW2 9474   3.417   1.638   0.212
 3048SOL     OW 9475   2.669   0.605   1.465
 3048SOL    HW1 9476   2.622   0.602   1.554
 3048SOL    HW2 9477   2.618   0.550   1.399
 3049SOL     OW 9478   3.256   0.469   1.674
 3049SOL    HW1 9479   3.236   0.512   1.762
 3049SOL    HW2 9480   3.334   0.407   1.683
 3050SOL     OW 9481   2.835   0.890   1.572
 3050SOL    HW1 9482   2.881   0.806   1.543
 3050SOL    HW2 9483   2.779   0.924   1.497
 3051SOL     OW 9484   2.853   0.410   1.242
 3051SOL    HW1 9485   2.776   0.444   1.296
 3051SOL    HW2 9486   2.819   0.359   1.163
 3052SOL     OW 9487   2.903   0.701   0.429
 3052SOL    HW1 9488   2.929   0.697   0.525
 3052SOL    HW2 9489   2.818   0.650   0.415
 3053SOL     OW 9490   1.938   0.811   0.789
 3053SOL    HW1 9491   2.037   0.799   0.798
 3053SOL    HW2 9492   1.914   0.906   0.810
 3054SOL     OW 9493   1.992   1.821   1.571
 3054SOL    HW1 9494   1.982   1.806   1.670
 3054SOL    HW2 9495   1.906   1.857   1.535
 3055SOL     OW 9496   2.727   0.348   0.195
 3055SOL    HW1 9497   2.786   0.411   0.146
 3055SOL    HW2 9498   2.746   0.254   0.166
 3056SOL     OW 9499   3.581   0.585   1.831
 3056SOL    HW1 9500   3.555   0.674   1.795
 3056SOL    HW2 9501   3.579   0.517   1.758
 3057SOL     OW 9502   3.224   1.144   0.545
 3057SOL    HW1 9503   3.307   1.115   0.497
 3057SOL    HW2 9504   3.175   1.211   0.489
 3058SOL     OW 9505   2.412   0.196   0.885
 3058SOL    HW1 9506   2.407   0.191   0.985
 3058SOL    HW2 9507   2.414   0.292   0.856
 3059SOL     OW 9508   2.870   1.456   0.477
 3059SOL    HW1 9509   2.824   1.528   0.425
 3059SOL    HW2 9510   2.866   1.476   0.575
 3060SOL     OW 9511   2.213   1.801   0.853
 3060SOL    HW1 9512   2.263   1.715   0.859
 3060SOL    HW2 9513   2.278   1.878   0.850
 3061SOL     OW 9514   3.657   1.066   0.873
 3061SOL    HW1 9515   3.595   1.051   0.797
 3061SOL    HW2 9516   3.605   1.077   0.958
 3062SOL     OW 9517   3.089   1.550   1.506
 3062SOL    HW1 9518   3.095   1.473   1.570
 3062SOL    HW2 9519   3.037   1.524   1.426
 3063SOL     OW 9520   2.183   0.943   0.242
 3063SOL    HW1 9521   2.265   0.982   0.200
 3063SOL    HW2 9522   2.156   0.861   0.193
 3064SOL     OW 9523   3.320   0.735   0.728
 3064SOL    HW1 9524   3.315   0.670   0.803
 3064SOL    HW2 9525   3.400   0.794   0.741
 3065SOL     OW 9526   2.323   1.266   1.727
 3065SOL    HW1 9527   2.273   1.267   1.641
 3065SOL    HW2 9528   2.260   1.248   1.803
 3066SOL     OW 9529   2.973   1.776   0.237
 3066SOL    HW1 9530   2.913   1.714   0.287
 3066SOL    HW2 9531   3.004   1.732   0.152
 3067SOL     OW 9532   2.064   0.285   1.498
 3067SOL    HW1 9533   1.984   0.345   1.485
 3067SOL    HW2 9534   2.054   0.236   1.584
 3068SOL     OW 9535   3.494   1.377   0.081
 3068SOL    HW1 9536   3.462   1.471   0.071
 3068SOL    HW2 9537   3.418   1.314   0.069
 3069SOL     OW 9538   2.326   1.743   0.323
 3069SOL    HW1 9539   2.359   1.782   0.409
 3069SOL    HW2 9540   2.402   1.736   0.258
 3070SOL     OW 9541   3.262   0.107   0.426
 3070SOL    HW1 9542   3.238   0.070   0.336
 3070SOL    HW2 9543   3.361   0.123   0.430
 3071SOL     OW 9544   2.111   1.785   1.241
 3071SOL    HW1 9545   2.168   1.720   1.291
 3071SOL    HW2 9546   2.095   1.752   1.148
 3072SOL     OW 9547   2.802   1.698   0.904
 3072SOL    HW1 9548   2.882   1.641   0.925
 3072SOL    HW2 9549   2.753   1.658   0.827
 3073SOL     OW 9550   2.244   0.700   0.480
 3073SOL    HW1 9551   2.289   0.610   0.477
 3073SOL    HW2 9552   2.150   0.689   0.513
 3074SOL     OW 9553   3.409   0.222   1.729
 3074SOL    HW1 9554   3.404   0.259   1.821
 3074SOL    HW2 9555   3.337   0.153   1.717
 3075SOL     OW 9556   2.476   0.122   0.117
 3075SOL    HW1 9557   2.574   0.100   0.124
 3075SOL    HW2 9558   2.445   0.105   0.024
 3076SOL     OW 9559   2.643   0.264   1.749
 3076SOL    HW1 9560   2.710   0.203   1.792
 3076SOL    HW2 9561   2.570   0.283   1.814
 3077SOL     OW 9562   2.750   1.514   1.195
 3077SOL    HW1 9563   2.727   1.489   1.101
 3077SOL    HW2 9564   2.811   1.445   1.234
 3078SOL     OW 9565   3.213   0.590   1.433
 3078SOL    HW1 9566   3.241   0.547   1.518
 3078SOL    HW2 9567   3.238   0.686   1.434
 3079SOL     OW 9568   2.665   1.402   0.924
 3079SOL    HW1 9569   2.755   1.416   0.882
 3079SOL    HW2 9570   2.594   1.404   0.853
 3080SOL     OW 9571   2.784   0.503   0.899
 3080SOL    HW1 9572   2.759   0.494   0.803
 3080SOL    HW2 9573   2.832   0.421   0.930
 3081SOL     OW 9574   2.401   0.064   0.512
 3081SOL    HW1 9575   2.320   0.065   0.570
 3081SOL    HW2 9576   2.404   0.147   0.457
 3082SOL     OW 9577   3.296   1.188   0.041
 3082SOL    HW1 9578   3.328   1.112   0.098
 3082SOL    HW2 9579   3.204   1.215   0.071
 3083SOL     OW 9580   2.159   0.035   0.171
 3083SOL    HW1 9581   2.208   0.119   0.150
 3083SOL    HW2 9582   2.221  -0.030   0.216
 3084SOL     OW 9583   2.797   0.236   0.480
 3084SOL    HW1 9584   2.749   0.277   0.402
 3084SOL    HW2 9585   2.896   0.234   0.461
 3085SOL     OW 9586   2.938   0.683   1.464
 3085SOL    HW1 9587   2.858   0.622   1.467
 3085SOL    HW2 9588   3.019   0.630   1.440
 3086SOL     OW 9589   3.089   1.570   0.793
 3086SOL    HW1 9590   3.110   1.644   0.728
 3086SOL    HW2 9591   3.157   1.570   0.866
 3087SOL     OW 9592   2.321   1.152   0.741
 3087SOL    HW1 9593   2.250   1.125   0.806
 3087SOL    HW2 9594   2.295   1.124   0.648
 3088SOL     OW 9595   3.133   1.797   0.591
 3088SOL    HW1 9596   3.177   1.861   0.527
 3088SOL    HW2 9597   3.083   1.849   0.661
 3089SOL     OW 9598   2.894   0.549   0.016
 3089SOL    HW1 9599   2.853   0.631  -0.023
 3089SOL    HW2 9600   2.958   0.575   0.089
 3090SOL     OW 9601   1.940   0.556   1.386
 3090SOL    HW1 9602   2.032   0.555   1.345
 3090SOL    HW2 9603   1.934   0.630   1.453
 3091SOL     OW 9604   2.423   0.222   1.147
 3091SOL    HW1 9605   2.461   0.138   1.184
 3091SOL    HW2 9606   2.335   0.241   1.191
 3092SOL     OW 9607   2.728   0.454   0.642
 3092SOL    HW1 9608   2.696   0.526   0.580
 3092SOL    HW2 9609   2.752   0.373   0.589
 3093SOL     OW 9610   2.879   0.039   0.753
 3093SOL    HW1 9611   2.807   0.044   0.684
 3093SOL    HW2 9612   2.855  -0.030   0.822
 3094SOL     OW 9613   3.291   1.173   0.867
 3094SOL    HW1 9614   3.236   1.089   0.860
 3094SOL    HW2 9615   3.317   1.202   0.775
 3095SOL     OW 9616   3.328   0.590   0.992
 3095SOL    HW1 9617   3.298   0.495   0.999
 3095SOL    HW2 9618   3.401   0.606   1.058
 3096SOL     OW 9619   3.719   0.833   0.377
 3096SOL    HW1 9620   3.761   0.769   0.441
 3096SOL    HW2 9621   3.681   0.782   0.299
 3097SOL     OW 9622   2.350   1.385   0.174
 3097SOL    HW1 9623   2.263   1.370   0.221
 3097SOL    HW2 9624   2.333   1.411   0.079
 3098SOL     OW 9625   3.526   1.280   0.657
 3098SOL    HW1 9626   3.625   1.288   0.671
 3098SOL    HW2 9627   3.481   1.364   0.688
 3099SOL     OW 9628   3.252   0.575   0.078
 3099SOL    HW1 9629   3.198   0.554   0.159
 3099SOL    HW2 9630   3.343   0.534   0.087
 3100SOL     OW 9631   2.389   0.256   0.328
 3100SOL    HW1 9632   2.416   0.197   0.253
 3100SOL    HW2 9633   2.389   0.351   0.297
 3101SOL     OW 9634   3.616   1.223   1.588
 3101SOL    HW1 9635   3.707   1.184   1.575
 3101SOL    HW2 9636   3.624   1.319   1.612
 3102SOL     OW 9637   2.926   1.347   1.340
 3102SOL    HW1 9638   2.846   1.324   1.395
 3102SOL    HW2 9639   3.009   1.321   1.389
 3103SOL     OW 9640   3.454   1.629   1.625
 3103SOL    HW1 9641   3.481   1.663   1.535
 3103SOL    HW2 9642   3.533   1.591   1.671
 3104SOL     OW 9643   2.973   1.195   1.100
 3104SOL    HW1 9644   2.933   1.239   1.181
 3104SOL    HW2 9645   2.932   1.232   1.017
 3105SOL     OW 9646   3.500   1.099   1.079
 3105SOL    HW1 9647   3.505   1.180   1.138
 3105SOL    HW2 9648   3.414   1.101   1.028
 3106SOL     OW 9649   2.777   0.089   1.402
 3106SOL    HW1 9650   2.802   0.069   1.307
 3106SOL    HW2 9651   2.849   0.145   1.444
 3107SOL     OW 9652   2.842   1.116   1.719
 3107SOL    HW1 9653   2.743   1.122   1.729
 3107SOL    HW2 9654   2.865   1.036   1.663
 3108SOL     OW 9655   2.567   1.050   0.368
 3108SOL    HW1 9656   2.553   1.057   0.467
 3108SOL    HW2 9657   2.651   0.999   0.350
 3109SOL     OW 9658   2.272   0.813   1.251
 3109SOL    HW1 9659   2.358   0.825   1.301
 3109SOL    HW2 9660   2.230   0.726   1.278
 3110SOL     OW 9661   3.136   0.386   1.262
 3110SOL    HW1 9662   3.157   0.460   1.326
 3110SOL    HW2 9663   3.047   0.403   1.219
 3111SOL     OW 9664   1.926   1.564   1.331
 3111SOL    HW1 9665   1.880   1.646   1.297
 3111SOL    HW2 9666   2.024   1.583   1.340
 3112SOL     OW 9667   2.229   1.100   0.501
 3112SOL    HW1 9668   2.222   1.183   0.445
 3112SOL    HW2 9669   2.233   1.020   0.441
 3113SOL     OW 9670   2.428   0.537   0.865
 3113SOL    HW1 9671   2.440   0.603   0.791
 3113SOL    HW2 9672   2.474   0.571   0.948
 3114SOL     OW 9673   3.114   1.348   0.388
 3114SOL    HW1 9674   3.164   1.425   0.428
 3114SOL    HW2 9675   3.019   1.350   0.420
 3115SOL     OW 9676   3.134   1.445   1.142
 3115SOL    HW1 9677   3.181   1.458   1.229
 3115SOL    HW2 9678   3.068   1.371   1.151
 3116SOL     OW 9679   3.444   0.639   0.472
 3116SOL    HW1 9680   3.413   0.700   0.545
 3116SOL    HW2 9681   3.494   0.691   0.403
 3117SOL     OW 9682   2.216   1.510   1.329
 3117SOL    HW1 9683   2.195   1.466   1.242
 3117SOL    HW2 9684   2.313   1.536   1.332
 3118SOL     OW 9685   2.264   0.751   1.598
 3118SOL    HW1 9686   2.332   0.806   1.551
 3118SOL    HW2 9687   2.304   0.663   1.625
 3119SOL     OW 9688   3.449   0.779   1.670
 3119SOL    HW1 9689   3.357   0.817   1.665
 3119SOL    HW2 9690   3.509   0.826   1.605
 3120SOL     OW 9691   2.875   0.105   1.770
 3120SOL    HW1 9692   2.881   0.190   1.718
 3120SOL    HW2 9693   2.907   0.029   1.713
 3121SOL     OW 9694   2.366   0.050   1.740
 3121SOL    HW1 9695   2.324  -0.007   1.670
 3121SOL    HW2 9696   2.300   0.119   1.772
 3122SOL     OW 9697   2.435   0.870   1.029
 3122SOL    HW1 9698   2.479   0.959   1.020
 3122SOL    HW2 9699   2.372   0.870   1.106
 3123SOL     OW 9700   3.222   0.862   1.045
 3123SOL    HW1 9701   3.147   0.862   0.979
 3123SOL    HW2 9702   3.259   0.770   1.054
 3124SOL     OW 9703   3.071   0.525   0.275
 3124SOL    HW1 9704   3.084   0.441   0.329
 3124SOL    HW2 9705   3.042   0.599   0.335
 3125SOL     OW 9706   2.169   0.213   1.231
 3125SOL    HW1 9707   2.146   0.250   1.321
 3125SOL    HW2 9708   2.139   0.118   1.225
 3126SOL     OW 9709   1.899   1.310   1.282
 3126SOL    HW1 9710   1.952   1.261   1.350
 3126SOL    HW2 9711   1.921   1.408   1.287
 3127SOL     OW 9712   2.594   0.634   1.064
 3127SOL    HW1 9713   2.653   0.608   0.988
 3127SOL    HW2 9714   2.566   0.730   1.053
 3128SOL     OW 9715   3.590   0.935   1.854
 3128SOL    HW1 9716   3.544   0.928   1.765
 3128SOL    HW2 9717   3.528   0.979   1.920
 3129SOL     OW 9718   2.169   0.063   0.618
 3129SOL    HW1 9719   2.158   0.157   0.651
 3129SOL    HW2 9720   2.164   0.000   0.695
 3130SOL     OW 9721   3.484   0.367   0.374
 3130SOL    HW1 9722   3.486   0.291   0.438
 3130SOL    HW2 9723   3.436   0.444   0.414
 3131SOL     OW 9724   2.885   0.766   0.966
 3131SOL    HW1 9725   2.900   0.787   1.062
 3131SOL    HW2 9726   2.855   0.671   0.957
 3132SOL     OW 9727   2.842   1.573   1.700
 3132SOL    HW1 9728   2.822   1.617   1.612
 3132SOL    HW2 9729   2.881   1.482   1.684
 3133SOL     OW 9730   3.721   1.518   1.605
 3133SOL    HW1 9731   3.735   1.545   1.510
 3133SOL    HW2 9732   3.804   1.540   1.658
 3134SOL     OW 9733   2.212   0.898   1.804
 3134SOL    HW1 9734   2.288   0.942   1.852
 3134SOL    HW2 9735   2.247   0.851   1.722
 3135SOL     OW 9736   3.402   0.274   0.125
 3135SOL    HW1 9737   3.341   0.199   0.148
 3135SOL    HW2 9738   3.424   0.326   0.208
 3136SOL     OW 9739   3.165   0.838   0.042
 3136SOL    HW1 9740   3.199   0.745   0.057
 3136SOL    HW2 9741   3.183   0.865  -0.053
 3137SOL     OW 9742   2.930   1.333   0.849
 3137SOL    HW1 9743   2.937   1.249   0.794
 3137SOL    HW2 9744   2.992   1.402   0.813
 3138SOL     OW 9745   2.181   0.810   0.949
 3138SOL    HW1 9746   2.274   0.846   0.954
 3138SOL    HW2 9747   2.175   0.725   1.001
 3139SOL     OW 9748   2.201   0.509   1.006
 3139SOL    HW1 9749   2.149   0.426   0.989
 3139SOL    HW2 9750   2.278   0.514   0.942
 3140SOL     OW 9751   3.000   0.380   1.678
 3140SOL    HW1 9752   2.955   0.443   1.742
 3140SOL    HW2 9753   3.093   0.411   1.661
 3141SOL     OW 9754   3.022   0.207   1.477
 3141SOL    HW1 9755   3.022   0.271   1.554
 3141SOL    HW2 9756   3.050   0.255   1.394
 3142SOL     OW 9757   1.870   1.326   0.200
 3142SOL    HW1 9758   1.777   1.347   0.169
 3142SOL    HW2 9759   1.880   1.227   0.213
 3143SOL     OW 9760   1.950   1.801   0.927
 3143SOL    HW1 9761   1.908   1.715   0.900
 3143SOL    HW2 9762   2.044   1.804   0.893
 3144SOL     OW 9763   2.366   1.568   0.910
 3144SOL    HW1 9764   2.432   1.642   0.919
 3144SOL    HW2 9765   2.410   1.489   0.868
 3145SOL     OW 9766   2.864   0.796   1.238
 3145SOL    HW1 9767   2.905   0.764   1.324
 3145SOL    HW2 9768   2.768   0.769   1.235
 3146SOL     OW 9769   1.902   0.544   1.114
 3146SOL    HW1 9770   1.987   0.511   1.073
 3146SOL    HW2 9771   1.915   0.559   1.212
 3147SOL     OW 9772   2.051   0.520   1.722
 3147SOL    HW1 9773   2.110   0.480   1.652
 3147SOL    HW2 9774   1.993   0.591   1.681
 3148SOL     OW 9775   3.231   0.950   1.660
 3148SOL    HW1 9776   3.270   1.039   1.680
 3148SOL    HW2 9777   3.241   0.930   1.563
 3149SOL     OW 9778   2.677   0.572   0.325
 3149SOL    HW1 9779   2.684   0.483   0.279
 3149SOL    HW2 9780   2.583   0.606   0.317
 3150SOL     OW 9781   3.519   0.604   1.206
 3150SOL    HW1 9782   3.481   0.535   1.268
 3150SOL    HW2 9783   3.601   0.568   1.162
 3151SOL     OW 9784   2.114   1.564   1.744
 3151SOL    HW1 9785   2.084   1.621   1.820
 3151SOL    HW2 9786   2.107   1.467   1.770
 3152SOL     OW 9787   2.533   0.464   1.269
 3152SOL    HW1 9788   2.499   0.375   1.239
 3152SOL    HW2 9789   2.559   0.518   1.189
 3153SOL     OW 9790   2.792   1.678   1.465
 3153SOL    HW1 9791   2.768   1.660   1.370
 3153SOL    HW2 9792   2.822   1.772   1.475
 3154SOL     OW 9793   2.335   0.500   0.191
 3154SOL    HW1 9794   2.396   0.580   0.195
 3154SOL    HW2 9795   2.240   0.531   0.198
 3155SOL     OW 9796   2.021   1.137   1.466
 3155SOL    HW1 9797   2.043   1.076   1.542
 3155SOL    HW2 9798   2.031   1.088   1.380
 3156SOL     OW 9799   3.209   1.059   1.234
 3156SOL    HW1 9800   3.233   0.996   1.160
 3156SOL    HW2 9801   3.119   1.099   1.216
 3157SOL     OW 9802   3.164   0.855   0.309
 3157SOL    HW1 9803   3.078   0.824   0.351
 3157SOL    HW2 9804   3.160   0.841   0.210
 3158SOL     OW 9805   3.621   1.747   1.154
 3158SOL    HW1 9806   3.682   1.777   1.081
 3158SOL    HW2 9807   3.583   1.658   1.132
 3159SOL     OW 9808   3.114   1.731   1.128
 3159SOL    HW1 9809   3.198   1.736   1.074
 3159SOL    HW2 9810   3.091   1.635   1.146
 3160SOL     OW 9811   1.945   1.258   1.022
 3160SOL    HW1 9812   1.940   1.257   1.122
 3160SOL    HW2 9813   1.862   1.217   0.984
 3161SOL     OW 9814   2.550   1.662   1.716
 3161SOL    HW1 9815   2.494   1.743   1.725
 3161SOL    HW2 9816   2.602   1.666   1.630
 3162SOL     OW 9817   2.765   0.086   0.133
 3162SOL    HW1 9818   2.816   0.087   0.047
 3162SOL    HW2 9819   2.821   0.044   0.204
 3163SOL     OW 9820   3.588   0.135   0.523
 3163SOL    HW1 9821   3.661   0.118   0.456
 3163SOL    HW2 9822   3.557   0.048   0.561
 3164SOL     OW 9823   3.250   1.573   0.477
 3164SOL    HW1 9824   3.317   1.585   0.403
 3164SOL    HW2 9825   3.210   1.662   0.500
 3165SOL     OW 9826   1.992   1.794   1.851
 3165SOL    HW1 9827   1.951   1.720   1.904
 3165SOL    HW2 9828   2.056   1.845   1.909
 3166SOL     OW 9829   3.142   0.927   0.672
 3166SOL    HW1 9830   3.202   0.846   0.674
 3166SOL    HW2 9831   3.182   0.996   0.612
 3167SOL     OW 9832   2.692   1.273   1.422
 3167SOL    HW1 9833   2.687   1.306   1.517
 3167SOL    HW2 9834   2.606   1.292   1.376
 3168SOL     OW 9835   2.534   1.616   0.154
 3168SOL    HW1 9836   2.543   1.626   0.055
 3168SOL    HW2 9837   2.494   1.527   0.175
 3169SOL     OW 9838   3.512   1.720   1.394
 3169SOL    HW1 9839   3.565   1.730   1.310
 3169SOL    HW2 9840   3.485   1.810   1.428
 3170SOL     OW 9841   3.703   0.175   0.963
 3170SOL    HW1 9842   3.742   0.090   0.927
 3170SOL    HW2 9843   3.605   0.177   0.944
 3171SOL     OW 9844   2.125   0.326   0.720
 3171SOL    HW1 9845   2.046   0.377   0.686
 3171SOL    HW2 9846   2.116   0.311   0.818
 3172SOL     OW 9847   3.056   1.612   0.031
 3172SOL    HW1 9848   3.062   1.519   0.068
 3172SOL    HW2 9849   2.997   1.612  -0.049
 3173SOL     OW 9850   2.684   1.002   1.372
 3173SOL    HW1 9851   2.724   1.001   1.280
 3173SOL    HW2 9852   2.694   1.094   1.412
 3174SOL     OW 9853   2.778   0.910   0.291
 3174SOL    HW1 9854   2.841   0.948   0.223
 3174SOL    HW2 9855   2.818   0.827   0.330
 3175SOL     OW 9856   3.366   1.607   0.044
 3175SOL    HW1 9857   3.274   1.644   0.051
 3175SOL    HW2 9858   3.404   1.627  -0.046
 3176SOL     OW 9859   2.234   1.288   1.490
 3176SOL    HW1 9860   2.221   1.381   1.456
 3176SOL    HW2 9861   2.150   1.236   1.477
 3177SOL     OW 9862   3.476   1.292   1.289
 3177SOL    HW1 9863   3.536   1.295   1.369
 3177SOL    HW2 9864   3.401   1.356   1.302
 3178SOL     OW 9865   2.901   1.098   0.696
 3178SOL    HW1 9866   2.831   1.051   0.750
 3178SOL    HW2 9867   2.960   1.030   0.653
 3179SOL     OW 9868   2.876   0.236   0.971
 3179SOL    HW1 9869   2.868   0.200   0.878
 3179SOL    HW2 9870   2.874   0.160   1.036
 3180SOL     OW 9871   2.452   1.487   0.491
 3180SOL    HW1 9872   2.494   1.429   0.421
 3180SOL    HW2 9873   2.408   1.566   0.447
 3181SOL     OW 9874   3.571   0.385   1.381
 3181SOL    HW1 9875   3.644   0.454   1.385
 3181SOL    HW2 9876   3.599   0.310   1.322
 3182SOL     OW 9877   2.117   1.348   0.290
 3182SOL    HW1 9878   2.021   1.349   0.263
 3182SOL    HW2 9879   2.129   1.401   0.374
 3183SOL     OW 9880   1.967   1.013   1.726
 3183SOL    HW1 9881   1.890   0.980   1.780
 3183SOL    HW2 9882   2.052   0.983   1.768
 3184SOL     OW 9883   2.534   0.203   1.489
 3184SOL    HW1 9884   2.624   0.187   1.449
 3184SOL    HW2 9885   2.542   0.208   1.588
 3185SOL     OW 9886   3.302   0.856   1.398
 3185SOL    HW1 9887   3.245   0.908   1.335
 3185SOL    HW2 9888   3.398   0.868   1.374
 3186SOL     OW 9889   1.934   0.166   0.318
 3186SOL    HW1 9890   1.917   0.249   0.264
 3186SOL    HW2 9891   2.024   0.129   0.296
 3187SOL     OW 9892   3.045   1.335   0.119
 3187SOL    HW1 9893   2.946   1.324   0.121
 3187SOL    HW2 9894   3.079   1.350   0.212
 3188SOL     OW 9895   2.475   0.842   1.431
 3188SOL    HW1 9896   2.531   0.923   1.414
 3188SOL    HW2 9897   2.534   0.762   1.434
 3189SOL     OW 9898   3.355   1.767   0.959
 3189SOL    HW1 9899   3.388   1.831   0.890
 3189SOL    HW2 9900   3.421   1.761   1.034
 3190SOL     OW 9901   2.578   0.565   1.708
 3190SOL    HW1 9902   2.597   0.630   1.782
 3190SOL    HW2 9903   2.638   0.485   1.717
 3191SOL     OW 9904   3.312   1.220   1.633
 3191SOL    HW1 9905   3.303   1.210   1.732
 3191SOL    HW2 9906   3.408   1.213   1.607
 3192SOL     OW 9907   2.252   1.741   1.560
 3192SOL    HW1 9908   2.161   1.782   1.558
 3192SOL    HW2 9909   2.245   1.647   1.592
 3193SOL     OW 9910   3.536   0.883   1.254
 3193SOL    HW1 9911   3.509   0.794   1.217
 3193SOL    HW2 9912   3.537   0.951   1.181
 3194SOL     OW 9913   3.087   0.325   0.449
 3194SOL    HW1 9914   3.152   0.251   0.438
 3194SOL    HW2 9915   3.107   0.375   0.533
 3195SOL     OW 9916   2.456   0.745   0.652
 3195SOL    HW1 9917   2.506   0.830   0.633
 3195SOL    HW2 9918   2.368   0.747   0.604
 3196SOL     OW 9919   3.639   0.342   1.642
 3196SOL    HW1 9920   3.622   0.373   1.548
 3196SOL    HW2 9921   3.555   0.305   1.680
 3197SOL     OW 9922   3.592   0.934   1.517
 3197SOL    HW1 9923   3.630   1.025   1.532
 3197SOL    HW2 9924   3.584   0.917   1.418
 3198SOL     OW 9925   2.721   1.374   0.016
 3198SOL    HW1 9926   2.675   1.389   0.104
 3198SOL    HW2 9927   2.765   1.459  -0.014
 3199SOL     OW 9928   2.523   1.790   0.953
 3199SOL    HW1 9929   2.477   1.878   0.940
 3199SOL    HW2 9930   2.622   1.802   0.946
 3200SOL     OW 9931   2.721   0.956   0.861
 3200SOL    HW1 9932   2.775   0.887   0.909
 3200SOL    HW2 9933   2.689   1.025   0.927
 3201SOL     OW 9934   2.945   0.984   0.087
 3201SOL    HW1 9935   2.922   1.037   0.005
 3201SOL    HW2 9936   3.026   0.928   0.068
 3202SOL     OW 9937   3.723   1.569   0.851
 3202SOL    HW1 9938   3.652   1.557   0.781
 3202SOL    HW2 9939   3.724   1.490   0.911
 3203SOL     OW 9940   2.083   1.314   1.844
 3203SOL    HW1 9941   2.018   1.241   1.823
 3203SOL    HW2 9942   2.087   1.328   1.942
 3204SOL     OW 9943   1.941   1.240   0.653
 3204SOL    HW1 9944   1.940   1.193   0.741
 3204SOL    HW2 9945   2.023   1.212   0.602
 3205SOL     OW 9946   2.534   1.391   1.624
 3205SOL    HW1 9947   2.456   1.341   1.662
 3205SOL    HW2 9948   2.531   1.486   1.655
 3206SOL     OW 9949   3.686   0.192   1.227
 3206SOL    HW1 9950   3.682   0.102   1.271
 3206SOL    HW2 9951   3.689   0.181   1.128
 3207SOL     OW 9952   2.290   0.424   0.520
 3207SOL    HW1 9953   2.320   0.352   0.458
 3207SOL    HW2 9954   2.251   0.384   0.603
 3208SOL     OW 9955   3.567   1.487   1.104
 3208SOL    HW1 9956   3.474   1.462   1.077
 3208SOL    HW2 9957   3.593   1.437   1.186
 3209SOL     OW 9958   2.179   0.547   1.280
 3209SOL    HW1 9959   2.217   0.488   1.352
 3209SOL    HW2 9960   2.219   0.521   1.192
 3210SOL     OW 9961   2.674   1.586   0.687
 3210SOL    HW1 9962   2.706   1.596   0.593
 3210SOL    HW2 9963   2.595   1.524   0.689
 3211SOL     OW 9964   3.286   0.214   1.112
 3211SOL    HW1 9965   3.338   0.149   1.167
 3211SOL    HW2 9966   3.237   0.277   1.173
 3212SOL     OW 9967   2.863   0.034   1.154
 3212SOL    HW1 9968   2.800  -0.038   1.123
 3212SOL    HW2 9969   2.956  -0.002   1.154
 3213SOL     OW 9970   2.632   1.330   0.301
 3213SOL    HW1 9971   2.586   1.243   0.318
 3213SOL    HW2 9972   2.723   1.327   0.342
 3214SOL     OW 9973   2.480   1.567   1.284
 3214SOL    HW1 9974   2.475   1.649   1.341
 3214SOL    HW2 9975   2.569   1.564   1.239
 3215SOL     OW 9976   3.214   0.052   0.168
 3215SOL    HW1 9977   3.249   0.011   0.084
 3215SOL    HW2 9978   3.124   0.014   0.188
 3216SOL     OW 9979   3.162   0.453   0.691
 3216SOL    HW1 9980   3.103   0.533   0.695
 3216SOL    HW2 9981   3.177   0.418   0.784
 3217SOL     OW 9982   3.455   0.221   0.882
 3217SOL    HW1 9983   3.371   0.220   0.936
 3217SOL    HW2 9984   3.457   0.304   0.826
 3218SOL     OW 9985   1.901   1.077   0.300
 3218SOL    HW1 9986   2.000   1.066   0.291
 3218SOL    HW2 9987   1.861   0.991   0.332
 3219SOL     OW 9988   2.737   1.646   0.337
 3219SOL    HW1 9989   2.660   1.611   0.283
 3219SOL    HW2 9990   2.705   1.717   0.399
 3220SOL     OW 9991   2.092   0.628   1.975
 3220SOL    HW1 9992   1.999   0.626   2.012
 3220SOL    HW2 9993   2.093   0.589   1.883
 3221SOL     OW 9994   2.087   0.275   2.858
 3221SOL    HW1 9995   2.122   0.258   2.950
 3221SOL    HW2 9996   1.999   0.230   2.846
 3222SOL     OW 9997   1.881   0.368   2.509
 3222SOL    HW1 9998   1.799   0.411   2.548
 3222SOL    HW2 9999   1.853   0.295   2.446
 3223SOL     OW10000   2.431   1.275   3.027
 3223SOL    HW110001   2.338   1.268   2.990
 3223SOL    HW210002   2.442   1.364   3.071
 3224SOL     OW10003   3.417   1.511   2.565
 3224SOL    HW110004   3.360   1.495   2.646
 3224SOL    HW210005   3.358   1.521   2.485
 3225SOL     OW10006   2.997   0.703   2.579
 3225SOL    HW110007   3.054   0.781   2.554
 3225SOL    HW210008   2.937   0.729   2.655
 3226SOL     OW10009   3.617   0.607   2.093
 3226SOL    HW110010   3.605   0.594   1.994
 3226SOL    HW210011   3.587   0.526   2.142
 3227SOL     OW10012   2.630   1.144   2.885
 3227SOL    HW110013   2.552   1.161   2.945
 3227SOL    HW210014   2.664   1.231   2.849
 3228SOL     OW10015   2.712   0.798   3.685
 3228SOL    HW110016   2.708   0.874   3.750
 3228SOL    HW210017   2.734   0.834   3.594
 3229SOL     OW10018   2.547   1.012   2.527
 3229SOL    HW110019   2.616   0.996   2.597
 3229SOL    HW210020   2.474   1.069   2.565
 3230SOL     OW10021   2.548   1.161   3.665
 3230SOL    HW110022   2.608   1.240   3.679
 3230SOL    HW210023   2.462   1.192   3.624
 3231SOL     OW10024   2.197   1.435   2.923
 3231SOL    HW110025   2.119   1.404   2.870
 3231SOL    HW210026   2.255   1.493   2.866
 3232SOL     OW10027   3.322   1.505   3.201
 3232SOL    HW110028   3.346   1.599   3.227
 3232SOL    HW210029   3.306   1.451   3.283
 3233SOL     OW10030   2.300   0.392   3.361
 3233SOL    HW110031   2.382   0.336   3.370
 3233SOL    HW210032   2.219   0.334   3.365
 3234SOL     OW10033   3.465   0.447   2.599
 3234SOL    HW110034   3.391   0.493   2.549
 3234SOL    HW210035   3.516   0.515   2.652
 3235SOL     OW10036   2.093   1.713   2.345
 3235SOL    HW110037   2.127   1.790   2.399
 3235SOL    HW210038   2.137   1.713   2.255
 3236SOL     OW10039   2.989   1.341   3.552
 3236SOL    HW110040   3.036   1.341   3.640
 3236SOL    HW210041   2.941   1.254   3.541
 3237SOL     OW10042   2.092   1.434   2.400
 3237SOL    HW110043   2.066   1.530   2.400
 3237SOL    HW210044   2.021   1.380   2.445
 3238SOL     OW10045   2.102   1.091   2.748
 3238SOL    HW110046   2.116   1.007   2.800
 3238SOL    HW210047   2.047   1.155   2.803
 3239SOL     OW10048   2.482   1.786   3.301
 3239SOL    HW110049   2.390   1.769   3.336
 3239SOL    HW210050   2.510   1.878   3.327
 3240SOL     OW10051   2.468   0.964   1.985
 3240SOL    HW110052   2.475   1.048   1.931
 3240SOL    HW210053   2.514   0.977   2.073
 3241SOL     OW10054   3.456   0.114   3.342
 3241SOL    HW110055   3.438   0.181   3.270
 3241SOL    HW210056   3.453   0.160   3.431
 3242SOL     OW10057   1.984   0.643   2.425
 3242SOL    HW110058   1.939   0.555   2.442
 3242SOL    HW210059   1.983   0.697   2.509
 3243SOL     OW10060   3.704   1.767   2.221
 3243SOL    HW110061   3.758   1.738   2.301
 3243SOL    HW210062   3.734   1.857   2.192
 3244SOL     OW10063   1.889   1.596   1.979
 3244SOL    HW110064   1.870   1.500   2.000
 3244SOL    HW210065   1.856   1.654   2.054
 3245SOL     OW10066   3.551   0.922   2.474
 3245SOL    HW110067   3.646   0.893   2.482
 3245SOL    HW210068   3.543   0.987   2.399
 3246SOL     OW10069   3.503   1.108   2.294
 3246SOL    HW110070   3.589   1.110   2.242
 3246SOL    HW210071   3.517   1.155   2.382
 3247SOL     OW10072   1.975   0.737   3.459
 3247SOL    HW110073   2.063   0.724   3.504
 3247SOL    HW210074   1.962   0.834   3.437
 3248SOL     OW10075   2.475   1.365   2.588
 3248SOL    HW110076   2.426   1.278   2.597
 3248SOL    HW210077   2.452   1.408   2.501
 3249SOL     OW10078   3.155   1.228   3.285
 3249SOL    HW110079   3.192   1.155   3.227
 3249SOL    HW210080   3.207   1.233   3.370
 3250SOL     OW10081   2.671   0.004   2.364
 3250SOL    HW110082   2.711   0.095   2.355
 3250SOL    HW210083   2.571   0.012   2.370
 3251SOL     OW10084   2.059   0.976   3.126
 3251SOL    HW110085   2.148   0.931   3.112
 3251SOL    HW210086   1.986   0.911   3.107
 3252SOL     OW10087   3.387   0.999   2.052
 3252SOL    HW110088   3.324   0.923   2.065
 3252SOL    HW210089   3.435   1.017   2.138
 3253SOL     OW10090   3.049   1.792   3.478
 3253SOL    HW110091   3.073   1.852   3.402
 3253SOL    HW210092   3.056   1.697   3.448
 3254SOL     OW10093   2.179   0.251   3.663
 3254SOL    HW110094   2.250   0.322   3.669
 3254SOL    HW210095   2.091   0.290   3.691
 3255SOL     OW10096   3.328   1.417   2.815
 3255SOL    HW110097   3.269   1.423   2.895
 3255SOL    HW210098   3.313   1.329   2.769
 3256SOL     OW10099   3.529   1.714   2.434
 3256SOL    HW110100   3.488   1.691   2.346
 3256SOL    HW210101   3.511   1.640   2.499
 3257SOL     OW10102   2.460   0.729   2.132
 3257SOL    HW110103   2.484   0.798   2.064
 3257SOL    HW210104   2.382   0.762   2.186
 3258SOL     OW10105   3.143   0.345   2.806
 3258SOL    HW110106   3.057   0.295   2.793
 3258SOL    HW210107   3.205   0.291   2.862
 3259SOL     OW10108   3.438   1.662   2.169
 3259SOL    HW110109   3.527   1.708   2.172
 3259SOL    HW210110   3.417   1.638   2.074
 3260SOL     OW10111   2.669   0.605   3.327
 3260SOL    HW110112   2.622   0.602   3.416
 3260SOL    HW210113   2.618   0.550   3.261
 3261SOL     OW10114   3.256   0.469   3.536
 3261SOL    HW110115   3.236   0.512   3.624
 3261SOL    HW210116   3.334   0.407   3.545
 3262SOL     OW10117   2.835   0.890   3.434
 3262SOL    HW110118   2.881   0.806   3.405
 3262SOL    HW210119   2.779   0.924   3.359
 3263SOL     OW10120   2.853   0.410   3.104
 3263SOL    HW110121   2.776   0.444   3.158
 3263SOL    HW210122   2.819   0.359   3.025
 3264SOL     OW10123   2.903   0.701   2.291
 3264SOL    HW110124   2.929   0.697   2.387
 3264SOL    HW210125   2.818   0.650   2.277
 3265SOL     OW10126   1.938   0.811   2.651
 3265SOL    HW110127   2.037   0.799   2.660
 3265SOL    HW210128   1.914   0.906   2.672
 3266SOL     OW10129   1.992   1.821   3.433
 3266SOL    HW110130   1.982   1.806   3.532
 3266SOL    HW210131   1.906   1.857   3.397
 3267SOL     OW10132   2.727   0.348   2.057
 3267SOL    HW110133   2.786   0.411   2.008
 3267SOL    HW210134   2.746   0.254   2.028
 3268SOL     OW10135   3.581   0.585   3.693
 3268SOL    HW110136   3.555   0.674   3.657
 3268SOL    HW210137   3.579   0.517   3.620
 3269SOL     OW10138   3.224   1.144   2.407
 3269SOL    HW110139   3.307   1.115   2.359
 3269SOL    HW210140   3.175   1.211   2.351
 3270SOL     OW10141   2.412   0.196   2.747
 3270SOL    HW110142   2.407   0.191   2.847
 3270SOL    HW210143   2.414   0.292   2.718
 3271SOL     OW10144   2.870   1.456   2.339
 3271SOL    HW110145   2.824   1.528   2.287
 3271SOL    HW210146   2.866   1.476   2.437
 3272SOL     OW10147   2.213   1.801   2.715
 3272SOL    HW110148   2.263   1.715   2.721
 3272SOL    HW210149   2.278   1.878   2.712
 3273SOL     OW10150   3.657   1.066   2.735
 3273SOL    HW110151   3.595   1.051   2.659
 3273SOL    HW210152   3.605   1.077   2.820
 3274SOL     OW10153   3.089   1.550   3.368
 3274SOL    HW110154   3.095   1.473   3.432
 3274SOL    HW210155   3.037   1.524   3.288
 3275SOL     OW10156   2.183   0.943   2.104
 3275SOL    HW110157   2.265   0.982   2.062
 3275SOL    HW210158   2.156   0.861   2.055
 3276SOL     OW10159   3.320   0.735   2.590
 3276SOL    HW110160   3.315   0.670   2.665
 3276SOL    HW210161   3.400   0.794   2.603
 3277SOL     OW10162   2.323   1.266   3.589
 3277SOL    HW110163   2.273   1.267   3.503
 3277SOL    HW210164   2.260   1.248   3.665
 3278SOL     OW10165   2.973   1.776   2.099
 3278SOL    HW110166   2.913   1.714   2.149
 3278SOL    HW210167   3.004   1.732   2.014
 3279SOL     OW10168   2.064   0.285   3.360
 3279SOL    HW110169   1.984   0.345   3.347
 3279SOL    HW210170   2.054   0.236   3.446
 3280SOL     OW10171   3.494   1.377   1.943
 3280SOL    HW110172   3.462   1.471   1.933
 3280SOL    HW210173   3.418   1.314   1.931
 3281SOL     OW10174   2.326   1.743   2.185
 3281SOL    HW110175   2.359   1.782   2.271
 3281SOL    HW210176   2.402   1.736   2.120
 3282SOL     OW10177   3.262   0.107   2.288
 3282SOL    HW110178   3.238   0.070   2.198
 3282SOL    HW210179   3.361   0.123   2.292
 3283SOL     OW10180   2.111   1.785   3.103
 3283SOL    HW110181   2.168   1.720   3.153
 3283SOL    HW210182   2.095   1.752   3.010
 3284SOL     OW10183   2.802   1.698   2.766
 3284SOL    HW110184   2.882   1.641   2.787
 3284SOL    HW210185   2.753   1.658   2.689
 3285SOL     OW10186   2.244   0.700   2.342
 3285SOL    HW110187   2.289   0.610   2.339
 3285SOL    HW210188   2.150   0.689   2.375
 3286SOL     OW10189   3.409   0.222   3.591
 3286SOL    HW110190   3.404   0.259   3.683
 3286SOL    HW210191   3.337   0.153   3.579
 3287SOL     OW10192   2.476   0.122   1.979
 3287SOL    HW110193   2.574   0.100   1.986
 3287SOL    HW210194   2.445   0.105   1.886
 3288SOL     OW10195   2.643   0.264   3.611
 3288SOL    HW110196   2.710   0.203   3.654
 3288SOL    HW210197   2.570   0.283   3.676
 3289SOL     OW10198   2.750   1.514   3.057
 3289SOL    HW110199   2.727   1.489   2.963
 3289SOL    HW210200   2.811   1.445   3.096
 3290SOL     OW10201   3.213   0.590   3.295
 3290SOL    HW110202   3.241   0.547   3.380
 3290SOL    HW210203   3.238   0.686   3.296
 3291SOL     OW10204   2.665   1.402   2.786
 3291SOL    HW110205   2.755   1.416   2.744
 3291SOL    HW210206   2.594   1.404   2.715
 3292SOL     OW10207   2.784   0.503   2.761
 3292SOL    HW110208   2.759   0.494   2.665
 3292SOL    HW210209   2.832   0.421   2.792
 3293SOL     OW10210   2.401   0.064   2.374
 3293SOL    HW110211   2.320   0.065   2.432
 3293SOL    HW210212   2.404   0.147   2.319
 3294SOL     OW10213   3.296   1.188   1.903
 3294SOL    HW110214   3.328   1.112   1.960
 3294SOL    HW210215   3.204   1.215   1.933
 3295SOL     OW10216   2.159   0.035   2.033
 3295SOL    HW110217   2.208   0.119   2.012
 3295SOL    HW210218   2.221  -0.030   2.078
 3296SOL     OW10219   2.797   0.236   2.342
 3296SOL    HW110220   2.749   0.277   2.264
 3296SOL    HW210221   2.896   0.234   2.323
 3297SOL     OW10222   2.938   0.683   3.326
 3297SOL    HW110223   2.858   0.622   3.329
 3297SOL    HW210224   3.019   0.630   3.302
 3298SOL     OW10225   3.089   1.570   2.655
 3298SOL    HW110226   3.110   1.644   2.590
 3298SOL    HW210227   3.157   1.570   2.728
 3299SOL     OW10228   2.321   1.152   2.603
 3299SOL    HW110229   2.250   1.125   2.668
 3299SOL    HW210230   2.295   1.124   2.510
 3300SOL     OW10231   3.133   1.797   2.453
 3300SOL    HW110232   3.177   1.861   2.389
 3300SOL    HW210233   3.083   1.849   2.523
 3301SOL     OW10234   2.894   0.549   1.878
 3301SOL    HW110235   2.853   0.631   1.839
 3301SOL    HW210236   2.958   0.575   1.951
 3302SOL     OW10237   1.940   0.556   3.248
 3302SOL    HW110238   2.032   0.555   3.207
 3302SOL    HW210239   1.934   0.630   3.315
 3303SOL     OW10240   2.423   0.222   3.009
 3303SOL    HW110241   2.461   0.138   3.046
 3303SOL    HW210242   2.335   0.241   3.053
 3304SOL     OW10243   2.728   0.454   2.504
 3304SOL    HW110244   2.696   0.526   2.442
 3304SOL    HW210245   2.752   0.373   2.451
 3305SOL     OW10246   2.879   0.039   2.615
 3305SOL    HW110247   2.807   0.044   2.546
 3305SOL    HW210248   2.855  -0.030   2.684
 3306SOL     OW10249   3.291   1.173   2.729
 3306SOL    HW110250   3.236   1.089   2.722
 3306SOL    HW210251   3.317   1.202   2.637
 3307SOL     OW10252   3.328   0.590   2.854
 3307SOL    HW110253   3.298   0.495   2.861
 3307SOL    HW210254   3.401   0.606   2.920
 3308SOL     OW10255   3.719   0.833   2.239
 3308SOL    HW110256   3.761   0.769   2.303
 3308SOL    HW210257   3.681   0.782   2.161
 3309SOL     OW10258   2.350   1.385   2.036
 3309SOL    HW110259   2.263   1.370   2.083
 3309SOL    HW210260   2.333   1.411   1.941
 3310SOL     OW10261   3.526   1.280   2.519
 3310SOL    HW110262   3.625   1.288   2.533
 3310SOL    HW210263   3.481   1.364   2.550
 3311SOL     OW10264   3.252   0.575   1.940
 3311SOL    HW110265   3.198   0.554   2.021
 3311SOL    HW210266   3.343   0.534   1.949
 3312SOL     OW10267   2.389   0.256   2.190
 3312SOL    HW110268   2.416   0.197   2.115
 3312SOL    HW210269   2.389   0.351   2.159
 3313SOL     OW10270   3.616   1.223   3.450
 3313SOL    HW110271   3.707   1.184   3.437
 3313SOL    HW210272   3.624   1.319   3.474
 3314SOL     OW10273   2.926   1.347   3.202
 3314SOL    HW110274   2.846   1.324   3.257
 3314SOL    HW210275   3.009   1.321   3.251
 3315SOL     OW10276   3.454   1.629   3.487
 3315SOL    HW110277   3.481   1.663   3.397
 3315SOL    HW210278   3.533   1.591   3.533
 3316SOL     OW10279   2.973   1.195   2.962
 3316SOL    HW110280   2.933   1.239   3.043
 3316SOL    HW210281   2.932   1.232   2.879
 3317SOL     OW10282   3.500   1.099   2.941
 3317SOL    HW110283   3.505   1.180   3.000
 3317SOL    HW210284   3.414   1.101   2.890
 3318SOL     OW10285   2.777   0.089   3.264
 3318SOL    HW110286   2.802   0.069   3.169
 3318SOL    HW210287   2.849   0.145   3.306
 3319SOL     OW10288   2.842   1.116   3.581
 3319SOL    HW110289   2.743   1.122   3.591
 3319SOL    HW210290   2.865   1.036   3.525
 3320SOL     OW10291   2.567   1.050   2.230
 3320SOL    HW110292   2.553   1.057   2.329
 3320SOL    HW210293   2.651   0.999   2.212
 3321SOL     OW10294   2.272   0.813   3.113
 3321SOL    HW110295   2.358   0.825   3.163
 3321SOL    HW210296   2.230   0.726   3.140
 3322SOL     OW10297   3.136   0.386   3.124
 3322SOL    HW110298   3.157   0.460   3.188
 3322SOL    HW210299   3.047   0.403   3.081
 3323SOL     OW10300   1.926   1.564   3.193
 3323SOL    HW110301   1.880   1.646   3.159
 3323SOL    HW210302   2.024   1.583   3.202
 3324SOL     OW10303   2.229   1.100   2.363
 3324SOL    HW110304   2.222   1.183   2.307
 3324SOL    HW210305   2.233   1.020   2.303
 3325SOL     OW10306   2.428   0.537   2.727
 3325SOL    HW110307   2.440   0.603   2.653
 3325SOL    HW210308   2.474   0.571   2.810
 3326SOL     OW10309   3.114   1.348   2.250
 3326SOL    HW110310   3.164   1.425   2.290
 3326SOL    HW210311   3.019   1.350   2.282
 3327SOL     OW10312   3.134   1.445   3.004
 3327SOL    HW110313   3.181   1.458   3.091
 3327SOL    HW210314   3.068   1.371   3.013
 3328SOL     OW10315   3.444   0.639   2.334
 3328SOL    HW110316   3.413   0.700   2.407
 3328SOL    HW210317   3.494   0.691   2.265
 3329SOL     OW10318   2.216   1.510   3.191
 3329SOL    HW110319   2.195   1.466   3.104
 3329SOL    HW210320   2.313   1.536   3.194
 3330SOL     OW10321   2.264   0.751   3.460
 3330SOL    HW110322   2.332   0.806   3.413
 3330SOL    HW210323   2.304   0.663   3.487
 3331SOL     OW10324   3.449   0.779   3.532
 3331SOL    HW110325   3.357   0.817   3.527
 3331SOL    HW210326   3.509   0.826   3.467
 3332SOL     OW10327   2.875   0.105   3.632
 3332SOL    HW110328   2.881   0.190   3.580
 3332SOL    HW210329   2.907   0.029   3.575
 3333SOL     OW10330   2.366   0.050   3.602
 3333SOL    HW110331   2.324  -0.007   3.532
 3333SOL    HW210332   2.300   0.119   3.634
 3334SOL     OW10333   2.435   0.870   2.891
 3334SOL    HW110334   2.479   0.959   2.882
 3334SOL    HW210335   2.372   0.870   2.968
 3335SOL     OW10336   3.222   0.862   2.907
 3335SOL    HW110337   3.147   0.862   2.841
 3335SOL    HW210338   3.259   0.770   2.916
 3336SOL     OW10339   3.071   0.525   2.137
 3336SOL    HW110340   3.084   0.441   2.191
 3336SOL    HW210341   3.042   0.599   2.197
 3337SOL     OW10342   2.169   0.213   3.093
 3337SOL    HW110343   2.146   0.250   3.183
 3337SOL    HW210344   2.139   0.118   3.087
 3338SOL     OW10345   1.899   1.310   3.144
 3338SOL    HW110346   1.952   1.261   3.212
 3338SOL    HW210347   1.921   1.408   3.149
 3339SOL     OW10348   2.594   0.634   2.926
 3339SOL    HW110349   2.653   0.608   2.850
 3339SOL    HW210350   2.566   0.730   2.915
 3340SOL     OW10351   3.590   0.935   3.716
 3340SOL    HW110352   3.544   0.928   3.627
 3340SOL    HW210353   3.528   0.979   3.782
 3341SOL     OW10354   2.169   0.063   2.480
 3341SOL    HW110355   2.158   0.157   2.513
 3341SOL    HW210356   2.164   0.000   2.557
 3342SOL     OW10357   3.484   0.367   2.236
 3342SOL    HW110358   3.486   0.291   2.300
 3342SOL    HW210359   3.436   0.444   2.276
 3343SOL     OW10360   2.885   0.766   2.828
 3343SOL    HW110361   2.900   0.787   2.924
 3343SOL    HW210362   2.855   0.671   2.819
 3344SOL     OW10363   2.842   1.573   3.562
 3344SOL    HW110364   2.822   1.617   3.474
 3344SOL    HW210365   2.881   1.482   3.546
 3345SOL     OW10366   3.721   1.518   3.467
 3345SOL    HW110367   3.735   1.545   3.372
 3345SOL    HW210368   3.804   1.540   3.520
 3346SOL     OW10369   2.212   0.898   3.666
 3346SOL    HW110370   2.288   0.942   3.714
 3346SOL    HW210371   2.247   0.851   3.584
 3347SOL     OW10372   3.402   0.274   1.987
 3347SOL    HW110373   3.341   0.199   2.010
 3347SOL    HW210374   3.424   0.326   2.070
 3348SOL     OW10375   3.165   0.838   1.904
 3348SOL    HW110376   3.199   0.745   1.919
 3348SOL    HW210377   3.183   0.865   1.809
 3349SOL     OW10378   2.930   1.333   2.711
 3349SOL    HW110379   2.937   1.249   2.656
 3349SOL    HW210380   2.992   1.402   2.675
 3350SOL     OW10381   2.181   0.810   2.811
 3350SOL    HW110382   2.274   0.846   2.816
 3350SOL    HW210383   2.175   0.725   2.863
 3351SOL     OW10384   2.201   0.509   2.868
 3351SOL    HW110385   2.149   0.426   2.851
 3351SOL    HW210386   2.278   0.514   2.804
 3352SOL     OW10387   3.000   0.380   3.540
 3352SOL    HW110388   2.955   0.443   3.604
 3352SOL    HW210389   3.093   0.411   3.523
 3353SOL     OW10390   3.022   0.207   3.339
 3353SOL    HW110391   3.022   0.271   3.416
 3353SOL    HW210392   3.050   0.255   3.256
 3354SOL     OW10393   1.870   1.326   2.062
 3354SOL    HW110394   1.777   1.347   2.031
 3354SOL    HW210395   1.880   1.227   2.075
 3355SOL     OW10396   1.950   1.801   2.789
 3355SOL    HW110397   1.908   1.715   2.762
 3355SOL    HW210398   2.044   1.804   2.755
 3356SOL     OW10399   2.366   1.568   2.772
 3356SOL    HW110400   2.432   1.642   2.781
 3356SOL    HW210401   2.410   1.489   2.730
 3357SOL     OW10402   2.864   0.796   3.100
 3357SOL    HW110403   2.905   0.764   3.186
 3357SOL    HW210404   2.768   0.769   3.097
 3358SOL     OW10405   1.902   0.544   2.976
 3358SOL    HW110406   1.987   0.511   2.935
 3358SOL    HW210407   1.915   0.559   3.074
 3359SOL     OW10408   2.051   0.520   3.584
 3359SOL    HW110409   2.110   0.480   3.514
 3359SOL    HW210410   1.993   0.591   3.543
 3360SOL     OW10411   3.231   0.950   3.522
 3360SOL    HW110412   3.270   1.039   3.542
 3360SOL    HW210413   3.241   0.930   3.425
 3361SOL     OW10414   2.677   0.572   2.187
 3361SOL    HW110415   2.684   0.483   2.141
 3361SOL    HW210416   2.583   0.606   2.179
 3362SOL     OW10417   3.519   0.604   3.068
 3362SOL    HW110418   3.481   0.535   3.130
 3362SOL    HW210419   3.601   0.568   3.024
 3363SOL     OW10420   2.114   1.564   3.606
 3363SOL    HW110421   2.084   1.621   3.682
 3363SOL    HW210422   2.107   1.467   3.632
 3364SOL     OW10423   2.533   0.464   3.131
 3364SOL    HW110424   2.499   0.375   3.101
 3364SOL    HW210425   2.559   0.518   3.051
 3365SOL     OW10426   2.792   1.678   3.327
 3365SOL    HW110427   2.768   1.660   3.232
 3365SOL    HW210428   2.822   1.772   3.337
 3366SOL     OW10429   2.335   0.500   2.053
 3366SOL    HW110430   2.396   0.580   2.057
 3366SOL    HW210431   2.240   0.531   2.060
 3367SOL     OW10432   2.021   1.137   3.328
 3367SOL    HW110433   2.043   1.076   3.404
 3367SOL    HW210434   2.031   1.088   3.242
 3368SOL     OW10435   3.209   1.059   3.096
 3368SOL    HW110436   3.233   0.996   3.022
 3368SOL    HW210437   3.119   1.099   3.078
 3369SOL     OW10438   3.164   0.855   2.171
 3369SOL    HW110439   3.078   0.824   2.213
 3369SOL    HW210440   3.160   0.841   2.072
 3370SOL     OW10441   3.621   1.747   3.016
 3370SOL    HW110442   3.682   1.777   2.943
 3370SOL    HW210443   3.583   1.658   2.994
 3371SOL     OW10444   3.114   1.731   2.990
 3371SOL    HW110445   3.198   1.736   2.936
 3371SOL    HW210446   3.091   1.635   3.008
 3372SOL     OW10447   1.945   1.258   2.884
 3372SOL    HW110448   1.940   1.257   2.984
 3372SOL    HW210449   1.862   1.217   2.846
 3373SOL     OW10450   2.550   1.662   3.578
 3373SOL    HW110451   2.494   1.743   3.587
 3373SOL    HW210452   2.602   1.666   3.492
 3374SOL     OW10453   3.588   0.135   2.385
 3374SOL    HW110454   3.661   0.118   2.318
 3374SOL    HW210455   3.557   0.048   2.423
 3375SOL     OW10456   3.250   1.573   2.339
 3375SOL    HW110457   3.317   1.585   2.265
 3375SOL    HW210458   3.210   1.662   2.362
 3376SOL     OW10459   1.992   1.794   3.713
 3376SOL    HW110460   1.951   1.720   3.766
 3376SOL    HW210461   2.056   1.845   3.771
 3377SOL     OW10462   3.142   0.927   2.534
 3377SOL    HW110463   3.202   0.846   2.536
 3377SOL    HW210464   3.182   0.996   2.474
 3378SOL     OW10465   2.692   1.273   3.284
 3378SOL    HW110466   2.687   1.306   3.379
 3378SOL    HW210467   2.606   1.292   3.238
 3379SOL     OW10468   2.534   1.616   2.016
 3379SOL    HW110469   2.543   1.626   1.917
 3379SOL    HW210470   2.494   1.527   2.037
 3380SOL     OW10471   3.512   1.720   3.256
 3380SOL    HW110472   3.565   1.730   3.172
 3380SOL    HW210473   3.485   1.810   3.290
 3381SOL     OW10474   3.703   0.175   2.825
 3381SOL    HW110475   3.742   0.090   2.789
 3381SOL    HW210476   3.605   0.177   2.806
 3382SOL     OW10477   2.125   0.326   2.582
 3382SOL    HW110478   2.046   0.377   2.548
 3382SOL    HW210479   2.116   0.311   2.680
 3383SOL     OW10480   3.056   1.612   1.893
 3383SOL    HW110481   3.062   1.519   1.930
 3383SOL    HW210482   2.997   1.612   1.813
 3384SOL     OW10483   2.684   1.002   3.234
 3384SOL    HW110484   2.724   1.001   3.142
 3384SOL    HW210485   2.694   1.094   3.274
 3385SOL     OW10486   2.778   0.910   2.153
 3385SOL    HW110487   2.841   0.948   2.085
 3385SOL    HW210488   2.818   0.827   2.192
 3386SOL     OW10489   3.366   1.607   1.906
 3386SOL    HW110490   3.274   1.644   1.913
 3386SOL    HW210491   3.404   1.627   1.816
 3387SOL     OW10492   2.234   1.288   3.352
 3387SOL    HW110493   2.221   1.381   3.318
 3387SOL    HW210494   2.150   1.236   3.339
 3388SOL     OW10495   3.476   1.292   3.151
 3388SOL    HW110496   3.536   1.295   3.231
 3388SOL    HW210497   3.401   1.356   3.164
 3389SOL     OW10498   2.901   1.098   2.558
 3389SOL    HW110499   2.831   1.051   2.612
 3389SOL    HW210500   2.960   1.030   2.515
 3390SOL     OW10501   2.876   0.236   2.833
 3390SOL    HW110502   2.868   0.200   2.740
 3390SOL    HW210503   2.874   0.160   2.898
 3391SOL     OW10504   2.452   1.487   2.353
 3391SOL    HW110505   2.494   1.429   2.283
 3391SOL    HW210506   2.408   1.566   2.309
 3392SOL     OW10507   3.571   0.385   3.243
 3392SOL    HW110508   3.644   0.454   3.247
 3392SOL    HW210509   3.599   0.310   3.184
 3393SOL     OW10510   2.117   1.348   2.152
 3393SOL    HW110511   2.021   1.349   2.125
 3393SOL    HW210512   2.129   1.401   2.236
 3394SOL     OW10513   1.967   1.013   3.588
 3394SOL    HW110514   1.890   0.980   3.642
 3394SOL    HW210515   2.052   0.983   3.630
 3395SOL     OW10516   2.534   0.203   3.351
 3395SOL    HW110517   2.624   0.187   3.311
 3395SOL    HW210518   2.542   0.208   3.450
 3396SOL     OW10519   1.937   0.345   1.895
 3396SOL    HW110520   1.845   0.317   1.866
 3396SOL    HW210521   1.968   0.422   1.839
 3397SOL     OW10522   3.302   0.856   3.260
 3397SOL    HW110523   3.245   0.908   3.197
 3397SOL    HW210524   3.398   0.868   3.236
 3398SOL     OW10525   1.934   0.166   2.180
 3398SOL    HW110526   1.917   0.249   2.126
 3398SOL    HW210527   2.024   0.129   2.158
 3399SOL     OW10528   3.045   1.335   1.981
 3399SOL    HW110529   2.946   1.324   1.983
 3399SOL    HW210530   3.079   1.350   2.074
 3400SOL     OW10531   2.475   0.842   3.293
 3400SOL    HW110532   2.531   0.923   3.276
 3400SOL    HW210533   2.534   0.762   3.296
 3401SOL     OW10534   3.355   1.767   2.821
 3401SOL    HW110535   3.388   1.831   2.752
 3401SOL    HW210536   3.421   1.761   2.896
 3402SOL     OW10537   2.578   0.565   3.570
 3402SOL    HW110538   2.597   0.630   3.644
 3402SOL    HW210539   2.638   0.485   3.579
 3403SOL     OW10540   3.312   1.220   3.495
 3403SOL    HW110541   3.303   1.210   3.594
 3403SOL    HW210542   3.408   1.213   3.469
 3404SOL     OW10543   2.252   1.741   3.422
 3404SOL    HW110544   2.161   1.782   3.420
 3404SOL    HW210545   2.245   1.647   3.454
 3405SOL     OW10546   3.536   0.883   3.116
 3405SOL    HW110547   3.509   0.794   3.079
 3405SOL    HW210548   3.537   0.951   3.043
 3406SOL     OW10549   3.087   0.325   2.311
 3406SOL    HW110550   3.152   0.251   2.300
 3406SOL    HW210551   3.107   0.375   2.395
 3407SOL     OW10552   2.456   0.745   2.514
 3407SOL    HW110553   2.506   0.830   2.495
 3407SOL    HW210554   2.368   0.747   2.466
 3408SOL     OW10555   3.639   0.342   3.504
 3408SOL    HW110556   3.622   0.373   3.410
 3408SOL    HW210557   3.555   0.305   3.542
 3409SOL     OW10558   3.592   0.934   3.379
 3409SOL    HW110559   3.630   1.025   3.394
 3409SOL    HW210560   3.584   0.917   3.280
 3410SOL     OW10561   2.721   1.374   1.878
 3410SOL    HW110562   2.675   1.389   1.966
 3410SOL    HW210563   2.765   1.459   1.848
 3411SOL     OW10564   2.523   1.790   2.815
 3411SOL    HW110565   2.477   1.878   2.802
 3411SOL    HW210566   2.622   1.802   2.808
 3412SOL     OW10567   2.721   0.956   2.723
 3412SOL    HW110568   2.775   0.887   2.771
 3412SOL    HW210569   2.689   1.025   2.789
 3413SOL     OW10570   2.945   0.984   1.949
 3413SOL    HW110571   2.922   1.037   1.867
 3413SOL    HW210572   3.026   0.928   1.930
 3414SOL     OW10573   3.723   1.569   2.713
 3414SOL    HW110574   3.652   1.557   2.643
 3414SOL    HW210575   3.724   1.490   2.773
 3415SOL     OW10576   2.083   1.314   3.706
 3415SOL    HW110577   2.018   1.241   3.685
 3415SOL    HW210578   2.087   1.328   3.804
 3416SOL     OW10579   1.941   1.240   2.515
 3416SOL    HW110580   1.940   1.193   2.603
 3416SOL    HW210581   2.023   1.212   2.464
 3417SOL     OW10582   2.534   1.391   3.486
 3417SOL    HW110583   2.456   1.341   3.524
 3417SOL    HW210584   2.531   1.486   3.517
 3418SOL     OW10585   3.686   0.192   3.089
 3418SOL    HW110586   3.682   0.102   3.133
 3418SOL    HW210587   3.689   0.181   2.990
 3419SOL     OW10588   2.290   0.424   2.382
 3419SOL    HW110589   2.320   0.352   2.320
 3419SOL    HW210590   2.251   0.384   2.465
 3420SOL     OW10591   3.567   1.487   2.966
 3420SOL    HW110592   3.474   1.462   2.939
 3420SOL    HW210593   3.593   1.437   3.048
 3421SOL     OW10594   2.179   0.547   3.142
 3421SOL    HW110595   2.217   0.488   3.214
 3421SOL    HW210596   2.219   0.521   3.054
 3422SOL     OW10597   2.674   1.586   2.549
 3422SOL    HW110598   2.706   1.596   2.455
 3422SOL    HW210599   2.595   1.524   2.551
 3423SOL     OW10600   3.286   0.214   2.974
 3423SOL    HW110601   3.338   0.149   3.029
 3423SOL    HW210602   3.237   0.277   3.035
 3424SOL     OW10603   2.863   0.034   3.016
 3424SOL    HW110604   2.800  -0.038   2.985
 3424SOL    HW210605   2.956  -0.002   3.016
 3425SOL     OW10606   2.632   1.330   2.163
 3425SOL    HW110607   2.586   1.243   2.180
 3425SOL    HW210608   2.723   1.327   2.204
 3426SOL     OW10609   2.480   1.567   3.146
 3426SOL    HW110610   2.475   1.649   3.203
 3426SOL    HW210611   2.569   1.564   3.101
 3427SOL     OW10612   3.214   0.052   2.030
 3427SOL    HW110613   3.249   0.011   1.946
 3427SOL    HW210614   3.124   0.014   2.050
 3428SOL     OW10615   3.162   0.453   2.553
 3428SOL    HW110616   3.103   0.533   2.557
 3428SOL    HW210617   3.177   0.418   2.646
 3429SOL     OW10618   3.455   0.221   2.744
 3429SOL    HW110619   3.371   0.220   2.798
 3429SOL    HW210620   3.457   0.304   2.688
 3430SOL     OW10621   1.901   1.077   2.162
 3430SOL    HW110622   2.000   1.066   2.153
 3430SOL    HW210623   1.861   0.991   2.194
 3431SOL     OW10624   2.737   1.646   2.199
 3431SOL    HW110625   2.660   1.611   2.145
 3431SOL    HW210626   2.705   1.717   2.261
 3432SOL     OW10627   2.092   0.628   3.837
 3432SOL    HW110628   1.999   0.626   3.874
 3432SOL    HW210629   2.093   0.589   3.745
 3433SOL     OW10630   2.087   0.275   4.720
 3433SOL    HW110631   2.122   0.258   4.812
 3433SOL    HW210632   1.999   0.230   4.708
 3434SOL     OW10633   1.881   0.368   4.371
 3434SOL    HW110634   1.799   0.411   4.410
 3434SOL    HW210635   1.853   0.295   4.308
 3435SOL     OW10636   2.431   1.275   4.889
 3435SOL    HW110637   2.338   1.268   4.852
 3435SOL    HW210638   2.442   1.364   4.933
 3436SOL     OW10639   3.417   1.511   4.427
 3436SOL    HW110640   3.360   1.495   4.508
 3436SOL    HW210641   3.358   1.521   4.347
 3437SOL     OW10642   2.997   0.703   4.441
 3437SOL    HW110643   3.054   0.781   4.416
 3437SOL    HW210644   2.937   0.729   4.517
 3438SOL     OW10645   3.617   0.607   3.955
 3438SOL    HW110646   3.605   0.594   3.856
 3438SOL    HW210647   3.587   0.526   4.004
 3439SOL     OW10648   2.630   1.144   4.747
 3439SOL    HW110649   2.552   1.161   4.807
 3439SOL    HW210650   2.664   1.231   4.711
 3440SOL     OW10651   2.712   0.798   5.547
 3440SOL    HW110652   2.708   0.874   5.612
 3440SOL    HW210653   2.734   0.834   5.456
 3441SOL     OW10654   2.547   1.012   4.389
 3441SOL    HW110655   2.616   0.996   4.459
 3441SOL    HW210656   2.474   1.069   4.427
 3442SOL     OW10657   2.548   1.161   5.527
 3442SOL    HW110658   2.608   1.240   5.541
 3442SOL    HW210659   2.462   1.192   5.486
 3443SOL     OW10660   2.197   1.435   4.785
 3443SOL    HW110661   2.119   1.404   4.732
 3443SOL    HW210662   2.255   1.493   4.728
 3444SOL     OW10663   3.322   1.505   5.063
 3444SOL    HW110664   3.346   1.599   5.089
 3444SOL    HW210665   3.306   1.451   5.145
 3445SOL     OW10666   2.300   0.392   5.223
 3445SOL    HW110667   2.382   0.336   5.232
 3445SOL    HW210668   2.219   0.334   5.227
 3446SOL     OW10669   3.465   0.447   4.461
 3446SOL    HW110670   3.391   0.493   4.411
 3446SOL    HW210671   3.516   0.515   4.514
 3447SOL     OW10672   2.093   1.713   4.207
 3447SOL    HW110673   2.127   1.790   4.261
 3447SOL    HW210674   2.137   1.713   4.117
 3448SOL     OW10675   2.989   1.341   5.414
 3448SOL    HW110676   3.036   1.341   5.502
 3448SOL    HW210677   2.941   1.254   5.403
 3449SOL     OW10678   2.092   1.434   4.262
 3449SOL    HW110679   2.066   1.530   4.262
 3449SOL    HW210680   2.021   1.380   4.307
 3450SOL     OW10681   2.102   1.091   4.610
 3450SOL    HW110682   2.116   1.007   4.662
 3450SOL    HW210683   2.047   1.155   4.665
 3451SOL     OW10684   2.468   0.964   3.847
 3451SOL    HW110685   2.475   1.048   3.793
 3451SOL    HW210686   2.514   0.977   3.935
 3452SOL     OW10687   3.456   0.114   5.204
 3452SOL    HW110688   3.438   0.181   5.132
 3452SOL    HW210689   3.453   0.160   5.293
 3453SOL     OW10690   1.984   0.643   4.287
 3453SOL    HW110691   1.939   0.555   4.304
 3453SOL    HW210692   1.983   0.697   4.371
 3454SOL     OW10693   3.704   1.767   4.083
 3454SOL    HW110694   3.758   1.738   4.163
 3454SOL    HW210695   3.734   1.857   4.054
 3455SOL     OW10696   1.889   1.596   3.841
 3455SOL    HW110697   1.870   1.500   3.862
 3455SOL    HW210698   1.856   1.654   3.916
 3456SOL     OW10699   3.551   0.922   4.336
 3456SOL    HW110700   3.646   0.893   4.344
 3456SOL    HW210701   3.543   0.987   4.261
 3457SOL     OW10702   3.503   1.108   4.156
 3457SOL    HW110703   3.589   1.110   4.104
 3457SOL    HW210704   3.517   1.155   4.244
 3458SOL     OW10705   1.975   0.737   5.321
 3458SOL    HW110706   2.063   0.724   5.366
 3458SOL    HW210707   1.962   0.834   5.299
 3459SOL     OW10708   2.475   1.365   4.450
 3459SOL    HW110709   2.426   1.278   4.459
 3459SOL    HW210710   2.452   1.408   4.363
 3460SOL     OW10711   3.155   1.228   5.147
 3460SOL    HW110712   3.192   1.155   5.089
 3460SOL    HW210713   3.207   1.233   5.232
 3461SOL     OW10714   2.671   0.004   4.226
 3461SOL    HW110715   2.711   0.095   4.217
 3461SOL    HW210716   2.571   0.012   4.232
 3462SOL     OW10717   2.059   0.976   4.988
 3462SOL    HW110718   2.148   0.931   4.974
 3462SOL    HW210719   1.986   0.911   4.969
 3463SOL     OW10720   3.387   0.999   3.914
 3463SOL    HW110721   3.324   0.923   3.927
 3463SOL    HW210722   3.435   1.017   4.000
 3464SOL     OW10723   3.049   1.792   5.340
 3464SOL    HW110724   3.073   1.852   5.264
 3464SOL    HW210725   3.056   1.697   5.310
 3465SOL     OW10726   2.179   0.251   5.525
 3465SOL    HW110727   2.250   0.322   5.531
 3465SOL    HW210728   2.091   0.290   5.553
 3466SOL     OW10729   3.328   1.417   4.677
 3466SOL    HW110730   3.269   1.423   4.757
 3466SOL    HW210731   3.313   1.329   4.631
 3467SOL     OW10732   3.529   1.714   4.296
 3467SOL    HW110733   3.488   1.691   4.208
 3467SOL    HW210734   3.511   1.640   4.361
 3468SOL     OW10735   2.460   0.729   3.994
 3468SOL    HW110736   2.484   0.798   3.926
 3468SOL    HW210737   2.382   0.762   4.048
 3469SOL     OW10738   3.143   0.345   4.668
 3469SOL    HW110739   3.057   0.295   4.655
 3469SOL    HW210740   3.205   0.291   4.724
 3470SOL     OW10741   3.438   1.662   4.031
 3470SOL    HW110742   3.527   1.708   4.034
 3470SOL    HW210743   3.417   1.638   3.936
 3471SOL     OW10744   2.669   0.605   5.189
 3471SOL    HW110745   2.622   0.602   5.278
 3471SOL    HW210746   2.618   0.550   5.123
 3472SOL     OW10747   3.256   0.469   5.398
 3472SOL    HW110748   3.236   0.512   5.486
 3472SOL    HW210749   3.334   0.407   5.407
 3473SOL     OW10750   2.835   0.890   5.296
 3473SOL    HW110751   2.881   0.806   5.267
 3473SOL    HW210752   2.779   0.924   5.221
 3474SOL     OW10753   2.853   0.410   4.966
 3474SOL    HW110754   2.776   0.444   5.020
 3474SOL    HW210755   2.819   0.359   4.887
 3475SOL     OW10756   2.903   0.701   4.153
 3475SOL    HW110757   2.929   0.697   4.249
 3475SOL    HW210758   2.818   0.650   4.139
 3476SOL     OW10759   1.938   0.811   4.513
 3476SOL    HW110760   2.037   0.799   4.522
 3476SOL    HW210761   1.914   0.906   4.534
 3477SOL     OW10762   2.727   0.348   3.919
 3477SOL    HW110763   2.786   0.411   3.870
 3477SOL    HW210764   2.746   0.254   3.890
 3478SOL     OW10765   3.581   0.585   5.555
 3478SOL    HW110766   3.555   0.674   5.519
 3478SOL    HW210767   3.579   0.517   5.482
 3479SOL     OW10768   3.224   1.144   4.269
 3479SOL    HW110769   3.307   1.115   4.221
 3479SOL    HW210770   3.175   1.211   4.213
 3480SOL     OW10771   2.412   0.196   4.609
 3480SOL    HW110772   2.407   0.191   4.709
 3480SOL    HW210773   2.414   0.292   4.580
 3481SOL     OW10774   2.870   1.456   4.201
 3481SOL    HW110775   2.824   1.528   4.149
 3481SOL    HW210776   2.866   1.476   4.299
 3482SOL     OW10777   2.213   1.801   4.577
 3482SOL    HW110778   2.263   1.715   4.583
 3482SOL    HW210779   2.278   1.878   4.574
 3483SOL     OW10780   3.657   1.066   4.597
 3483SOL    HW110781   3.595   1.051   4.521
 3483SOL    HW210782   3.605   1.077   4.682
 3484SOL     OW10783   3.089   1.550   5.230
 3484SOL    HW110784   3.095   1.473   5.294
 3484SOL    HW210785   3.037   1.524   5.150
 3485SOL     OW10786   2.183   0.943   3.966
 3485SOL    HW110787   2.265   0.982   3.924
 3485SOL    HW210788   2.156   0.861   3.917
 3486SOL     OW10789   3.320   0.735   4.452
 3486SOL    HW110790   3.315   0.670   4.527
 3486SOL    HW210791   3.400   0.794   4.465
 3487SOL     OW10792   2.323   1.266   5.451
 3487SOL    HW110793   2.273   1.267   5.365
 3487SOL    HW210794   2.260   1.248   5.527
 3488SOL     OW10795   2.973   1.776   3.961
 3488SOL    HW110796   2.913   1.714   4.011
 3488SOL    HW210797   3.004   1.732   3.876
 3489SOL     OW10798   2.064   0.285   5.222
 3489SOL    HW110799   1.984   0.345   5.209
 3489SOL    HW210800   2.054   0.236   5.308
 3490SOL     OW10801   3.494   1.377   3.805
 3490SOL    HW110802   3.462   1.471   3.795
 3490SOL    HW210803   3.418   1.314   3.793
 3491SOL     OW10804   2.326   1.743   4.047
 3491SOL    HW110805   2.359   1.782   4.133
 3491SOL    HW210806   2.402   1.736   3.982
 3492SOL     OW10807   3.262   0.107   4.150
 3492SOL    HW110808   3.238   0.070   4.060
 3492SOL    HW210809   3.361   0.123   4.154
 3493SOL     OW10810   2.111   1.785   4.965
 3493SOL    HW110811   2.168   1.720   5.015
 3493SOL    HW210812   2.095   1.752   4.872
 3494SOL     OW10813   2.802   1.698   4.628
 3494SOL    HW110814   2.882   1.641   4.649
 3494SOL    HW210815   2.753   1.658   4.551
 3495SOL     OW10816   2.244   0.700   4.204
 3495SOL    HW110817   2.289   0.610   4.201
 3495SOL    HW210818   2.150   0.689   4.237
 3496SOL     OW10819   3.409   0.222   5.453
 3496SOL    HW110820   3.404   0.259   5.545
 3496SOL    HW210821   3.337   0.153   5.441
 3497SOL     OW10822   2.476   0.122   3.841
 3497SOL    HW110823   2.574   0.100   3.848
 3497SOL    HW210824   2.445   0.105   3.748
 3498SOL     OW10825   2.643   0.264   5.473
 3498SOL    HW110826   2.710   0.203   5.516
 3498SOL    HW210827   2.570   0.283   5.538
 3499SOL     OW10828   2.750   1.514   4.919
 3499SOL    HW110829   2.727   1.489   4.825
 3499SOL    HW210830   2.811   1.445   4.958
 3500SOL     OW10831   3.213   0.590   5.157
 3500SOL    HW110832   3.241   0.547   5.242
 3500SOL    HW210833   3.238   0.686   5.158
 3501SOL     OW10834   2.665   1.402   4.648
 3501SOL    HW110835   2.755   1.416   4.606
 3501SOL    HW210836   2.594   1.404   4.577
 3502SOL     OW10837   2.784   0.503   4.623
 3502SOL    HW110838   2.759   0.494   4.527
 3502SOL    HW210839   2.832   0.421   4.654
 3503SOL     OW10840   2.401   0.064   4.236
 3503SOL    HW110841   2.320   0.065   4.294
 3503SOL    HW210842   2.404   0.147   4.181
 3504SOL     OW10843   3.296   1.188   3.765
 3504SOL    HW110844   3.328   1.112   3.822
 3504SOL    HW210845   3.204   1.215   3.795
 3505SOL     OW10846   2.159   0.035   3.895
 3505SOL    HW110847   2.208   0.119   3.874
 3505SOL    HW210848   2.221  -0.030   3.940
 3506SOL     OW10849   2.797   0.236   4.204
 3506SOL    HW110850   2.749   0.277   4.126
 3506SOL    HW210851   2.896   0.234   4.185
 3507SOL     OW10852   2.938   0.683   5.188
 3507SOL    HW110853   2.858   0.622   5.191
 3507SOL    HW210854   3.019   0.630   5.164
 3508SOL     OW10855   3.089   1.570   4.517
 3508SOL    HW110856   3.110   1.644   4.452
 3508SOL    HW210857   3.157   1.570   4.590
 3509SOL     OW10858   2.321   1.152   4.465
 3509SOL    HW110859   2.250   1.125   4.530
 3509SOL    HW210860   2.295   1.124   4.372
 3510SOL     OW10861   3.133   1.797   4.315
 3510SOL    HW110862   3.177   1.861   4.251
 3510SOL    HW210863   3.083   1.849   4.385
 3511SOL     OW10864   2.894   0.549   3.740
 3511SOL    HW110865   2.853   0.631   3.701
 3511SOL    HW210866   2.958   0.575   3.813
 3512SOL     OW10867   1.940   0.556   5.110
 3512SOL    HW110868   2.032   0.555   5.069
 3512SOL    HW210869   1.934   0.630   5.177
 3513SOL     OW10870   2.423   0.222   4.871
 3513SOL    HW110871   2.461   0.138   4.908
 3513SOL    HW210872   2.335   0.241   4.915
 3514SOL     OW10873   2.728   0.454   4.366
 3514SOL    HW110874   2.696   0.526   4.304
 3514SOL    HW210875   2.752   0.373   4.313
 3515SOL     OW10876   2.879   0.039   4.477
 3515SOL    HW110877   2.807   0.044   4.408
 3515SOL    HW210878   2.855  -0.030   4.546
 3516SOL     OW10879   3.291   1.173   4.591
 3516SOL    HW110880   3.236   1.089   4.584
 3516SOL    HW210881   3.317   1.202   4.499
 3517SOL     OW10882   3.328   0.590   4.716
 3517SOL    HW110883   3.298   0.495   4.723
 3517SOL    HW210884   3.401   0.606   4.782
 3518SOL     OW10885   3.719   0.833   4.101
 3518SOL    HW110886   3.761   0.769   4.165
 3518SOL    HW210887   3.681   0.782   4.023
 3519SOL     OW10888   2.350   1.385   3.898
 3519SOL    HW110889   2.263   1.370   3.945
 3519SOL    HW210890   2.333   1.411   3.803
 3520SOL     OW10891   3.526   1.280   4.381
 3520SOL    HW110892   3.625   1.288   4.395
 3520SOL    HW210893   3.481   1.364   4.412
 3521SOL     OW10894   3.252   0.575   3.802
 3521SOL    HW110895   3.198   0.554   3.883
 3521SOL    HW210896   3.343   0.534   3.811
 3522SOL     OW10897   2.389   0.256   4.052
 3522SOL    HW110898   2.416   0.197   3.977
 3522SOL    HW210899   2.389   0.351   4.021
 3523SOL     OW10900   3.616   1.223   5.312
 3523SOL    HW110901   3.707   1.184   5.299
 3523SOL    HW210902   3.624   1.319   5.336
 3524SOL     OW10903   2.926   1.347   5.064
 3524SOL    HW110904   2.846   1.324   5.119
 3524SOL    HW210905   3.009   1.321   5.113
 3525SOL     OW10906   3.454   1.629   5.349
 3525SOL    HW110907   3.481   1.663   5.259
 3525SOL    HW210908   3.533   1.591   5.395
 3526SOL     OW10909   2.973   1.195   4.824
 3526SOL    HW110910   2.933   1.239   4.905
 3526SOL    HW210911   2.932   1.232   4.741
 3527SOL     OW10912   3.500   1.099   4.803
 3527SOL    HW110913   3.505   1.180   4.862
 3527SOL    HW210914   3.414   1.101   4.752
 3528SOL     OW10915   2.777   0.089   5.126
 3528SOL    HW110916   2.802   0.069   5.031
 3528SOL    HW210917   2.849   0.145   5.168
 3529SOL     OW10918   2.842   1.116   5.443
 3529SOL    HW110919   2.743   1.122   5.453
 3529SOL    HW210920   2.865   1.036   5.387
 3530SOL     OW10921   2.567   1.050   4.092
 3530SOL    HW110922   2.553   1.057   4.191
 3530SOL    HW210923   2.651   0.999   4.074
 3531SOL     OW10924   2.272   0.813   4.975
 3531SOL    HW110925   2.358   0.825   5.025
 3531SOL    HW210926   2.230   0.726   5.002
 3532SOL     OW10927   3.136   0.386   4.986
 3532SOL    HW110928   3.157   0.460   5.050
 3532SOL    HW210929   3.047   0.403   4.943
 3533SOL     OW10930   1.926   1.564   5.055
 3533SOL    HW110931   1.880   1.646   5.021
 3533SOL    HW210932   2.024   1.583   5.064
 3534SOL     OW10933   2.229   1.100   4.225
 3534SOL    HW110934   2.222   1.183   4.169
 3534SOL    HW210935   2.233   1.020   4.165
 3535SOL     OW10936   2.428   0.537   4.589
 3535SOL    HW110937   2.440   0.603   4.515
 3535SOL    HW210938   2.474   0.571   4.672
 3536SOL     OW10939   3.114   1.348   4.112
 3536SOL    HW110940   3.164   1.425   4.152
 3536SOL    HW210941   3.019   1.350   4.144
 3537SOL     OW10942   3.134   1.445   4.866
 3537SOL    HW110943   3.181   1.458   4.953
 3537SOL    HW210944   3.068   1.371   4.875
 3538SOL     OW10945   3.444   0.639   4.196
 3538SOL    HW110946   3.413   0.700   4.269
 3538SOL    HW210947   3.494   0.691   4.127
 3539SOL     OW10948   2.216   1.510   5.053
 3539SOL    HW110949   2.195   1.466   4.966
 3539SOL    HW210950   2.313   1.536   5.056
 3540SOL     OW10951   2.264   0.751   5.322
 3540SOL    HW110952   2.332   0.806   5.275
 3540SOL    HW210953   2.304   0.663   5.349
 3541SOL     OW10954   3.449   0.779   5.394
 3541SOL    HW110955   3.357   0.817   5.389
 3541SOL    HW210956   3.509   0.826   5.329
 3542SOL     OW10957   2.875   0.105   5.494
 3542SOL    HW110958   2.881   0.190   5.442
 3542SOL    HW210959   2.907   0.029   5.437
 3543SOL     OW10960   2.366   0.050   5.464
 3543SOL    HW110961   2.324  -0.007   5.394
 3543SOL    HW210962   2.300   0.119   5.496
 3544SOL     OW10963   2.435   0.870   4.753
 3544SOL    HW110964   2.479   0.959   4.744
 3544SOL    HW210965   2.372   0.870   4.830
 3545SOL     OW10966   3.222   0.862   4.769
 3545SOL    HW110967   3.147   0.862   4.703
 3545SOL    HW210968   3.259   0.770   4.778
 3546SOL     OW10969   3.071   0.525   3.999
 3546SOL    HW110970   3.084   0.441   4.053
 3546SOL    HW210971   3.042   0.599   4.059
 3547SOL     OW10972   2.169   0.213   4.955
 3547SOL    HW110973   2.146   0.250   5.045
 3547SOL    HW210974   2.139   0.118   4.949
 3548SOL     OW10975   1.899   1.310   5.006
 3548SOL    HW110976   1.952   1.261   5.074
 3548SOL    HW210977   1.921   1.408   5.011
 3549SOL     OW10978   2.594   0.634   4.788
 3549SOL    HW110979   2.653   0.608   4.712
 3549SOL    HW210980   2.566   0.730   4.777
 3550SOL     OW10981   3.590   0.935   5.578
 3550SOL    HW110982   3.544   0.928   5.489
 3550SOL    HW210983   3.528   0.979   5.644
 3551SOL     OW10984   2.169   0.063   4.342
 3551SOL    HW110985   2.158   0.157   4.375
 3551SOL    HW210986   2.164   0.000   4.419
 3552SOL     OW10987   3.484   0.367   4.098
 3552SOL    HW110988   3.486   0.291   4.162
 3552SOL    HW210989   3.436   0.444   4.138
 3553SOL     OW10990   2.885   0.766   4.690
 3553SOL    HW110991   2.900   0.787   4.786
 3553SOL    HW210992   2.855   0.671   4.681
 3554SOL     OW10993   2.842   1.573   5.424
 3554SOL    HW110994   2.822   1.617   5.336
 3554SOL    HW210995   2.881   1.482   5.408
 3555SOL     OW10996   3.721   1.518   5.329
 3555SOL    HW110997   3.735   1.545   5.234
 3555SOL    HW210998   3.804   1.540   5.382
 3556SOL     OW10999   2.212   0.898   5.528
 3556SOL    HW111000   2.288   0.942   5.576
 3556SOL    HW211001   2.247   0.851   5.446
 3557SOL     OW11002   3.402   0.274   3.849
 3557SOL    HW111003   3.341   0.199   3.872
 3557SOL    HW211004   3.424   0.326   3.932
 3558SOL     OW11005   3.165   0.838   3.766
 3558SOL    HW111006   3.199   0.745   3.781
 3558SOL    HW211007   3.183   0.865   3.671
 3559SOL     OW11008   2.930   1.333   4.573
 3559SOL    HW111009   2.937   1.249   4.518
 3559SOL    HW211010   2.992   1.402   4.537
 3560SOL     OW11011   2.181   0.810   4.673
 3560SOL    HW111012   2.274   0.846   4.678
 3560SOL    HW211013   2.175   0.725   4.725
 3561SOL     OW11014   2.201   0.509   4.730
 3561SOL    HW111015   2.149   0.426   4.713
 3561SOL    HW211016   2.278   0.514   4.666
 3562SOL     OW11017   3.000   0.380   5.402
 3562SOL    HW111018   2.955   0.443   5.466
 3562SOL    HW211019   3.093   0.411   5.385
 3563SOL     OW11020   3.022   0.207   5.201
 3563SOL    HW111021   3.022   0.271   5.278
 3563SOL    HW211022   3.050   0.255   5.118
 3564SOL     OW11023   1.870   1.326   3.924
 3564SOL    HW111024   1.777   1.347   3.893
 3564SOL    HW211025   1.880   1.227   3.937
 3565SOL     OW11026   1.950   1.801   4.651
 3565SOL    HW111027   1.908   1.715   4.624
 3565SOL    HW211028   2.044   1.804   4.617
 3566SOL     OW11029   2.366   1.568   4.634
 3566SOL    HW111030   2.432   1.642   4.643
 3566SOL    HW211031   2.410   1.489   4.592
 3567SOL     OW11032   2.864   0.796   4.962
 3567SOL    HW111033   2.905   0.764   5.048
 3567SOL    HW211034   2.768   0.769   4.959
 3568SOL     OW11035   1.902   0.544   4.838
 3568SOL    HW111036   1.987   0.511   4.797
 3568SOL    HW211037   1.915   0.559   4.936
 3569SOL     OW11038   2.051   0.520   5.446
 3569SOL    HW111039   2.110   0.480   5.376
 3569SOL    HW211040   1.993   0.591   5.405
 3570SOL     OW11041   3.231   0.950   5.384
 3570SOL    HW111042   3.270   1.039   5.404
 3570SOL    HW211043   3.241   0.930   5.287
 3571SOL     OW11044   2.677   0.572   4.049
 3571SOL    HW111045   2.684   0.483   4.003
 3571SOL    HW211046   2.583   0.606   4.041
 3572SOL     OW11047   3.519   0.604   4.930
 3572SOL    HW111048   3.481   0.535   4.992
 3572SOL    HW211049   3.601   0.568   4.886
 3573SOL     OW11050   2.533   0.464   4.993
 3573SOL    HW111051   2.499   0.375   4.963
 3573SOL    HW211052   2.559   0.518   4.913
 3574SOL     OW11053   2.792   1.678   5.189
 3574SOL    HW111054   2.768   1.660   5.094
 3574SOL    HW211055   2.822   1.772   5.199
 3575SOL     OW11056   2.335   0.500   3.915
 3575SOL    HW111057   2.396   0.580   3.919
 3575SOL    HW211058   2.240   0.531   3.922
 3576SOL     OW11059   2.021   1.137   5.190
 3576SOL    HW111060   2.043   1.076   5.266
 3576SOL    HW211061   2.031   1.088   5.104
 3577SOL     OW11062   3.209   1.059   4.958
 3577SOL    HW111063   3.233   0.996   4.884
 3577SOL    HW211064   3.119   1.099   4.940
 3578SOL     OW11065   3.164   0.855   4.033
 3578SOL    HW111066   3.078   0.824   4.075
 3578SOL    HW211067   3.160   0.841   3.934
 3579SOL     OW11068   3.621   1.747   4.878
 3579SOL    HW111069   3.682   1.777   4.805
 3579SOL    HW211070   3.583   1.658   4.856
 3580SOL     OW11071   3.114   1.731   4.852
 3580SOL    HW111072   3.198   1.736   4.798
 3580SOL    HW211073   3.091   1.635   4.870
 3581SOL     OW11074   1.945   1.258   4.746
 3581SOL    HW111075   1.940   1.257   4.846
 3581SOL    HW211076   1.862   1.217   4.708
 3582SOL     OW11077   3.588   0.135   4.247
 3582SOL    HW111078   3.661   0.118   4.180
 3582SOL    HW211079   3.557   0.048   4.285
 3583SOL     OW11080   3.250   1.573   4.201
 3583SOL    HW111081   3.317   1.585   4.127
 3583SOL    HW211082   3.210   1.662   4.224
 3584SOL     OW11083   3.142   0.927   4.396
 3584SOL    HW111084   3.202   0.846   4.398
 3584SOL    HW211085   3.182   0.996   4.336
 3585SOL     OW11086   2.692   1.273   5.146
 3585SOL    HW111087   2.687   1.306   5.241
 3585SOL    HW211088   2.606   1.292   5.100
 3586SOL     OW11089   2.534   1.616   3.878
 3586SOL    HW111090   2.543   1.626   3.779
 3586SOL    HW211091   2.494   1.527   3.899
 3587SOL     OW11092   3.512   1.720   5.118
 3587SOL    HW111093   3.565   1.730   5.034
 3587SOL    HW211094   3.485   1.810   5.152
 3588SOL     OW11095   3.703   0.175   4.687
 3588SOL    HW111096   3.742   0.090   4.651
 3588SOL    HW211097   3.605   0.177   4.668
 3589SOL     OW11098   2.125   0.326   4.444
 3589SOL    HW111099   2.046   0.377   4.410
 3589SOL    HW211100   2.116   0.311   4.542
 3590SOL     OW11101   3.056   1.612   3.755
 3590SOL    HW111102   3.062   1.519   3.792
 3590SOL    HW211103   2.997   1.612   3.675
 3591SOL     OW11104   2.684   1.002   5.096
 3591SOL    HW111105   2.724   1.001   5.004
 3591SOL    HW211106   2.694   1.094   5.136
 3592SOL     OW11107   2.778   0.910   4.015
 3592SOL    HW111108   2.841   0.948   3.947
 3592SOL    HW211109   2.818   0.827   4.054
 3593SOL     OW11110   3.366   1.607   3.768
 3593SOL    HW111111   3.274   1.644   3.775
 3593SOL    HW211112   3.404   1.627   3.678
 3594SOL     OW11113   2.234   1.288   5.214
 3594SOL    HW111114   2.221   1.381   5.180
 3594SOL    HW211115   2.150   1.236   5.201
 3595SOL     OW11116   3.476   1.292   5.013
 3595SOL    HW111117   3.536   1.295   5.093
 3595SOL    HW211118   3.401   1.356   5.026
 3596SOL     OW11119   2.901   1.098   4.420
 3596SOL    HW111120   2.831   1.051   4.474
 3596SOL    HW211121   2.960   1.030   4.377
 3597SOL     OW11122   2.876   0.236   4.695
 3597SOL    HW111123   2.868   0.200   4.602
 3597SOL    HW211124   2.874   0.160   4.760
 3598SOL     OW11125   2.452   1.487   4.215
 3598SOL    HW111126   2.494   1.429   4.145
 3598SOL    HW211127   2.408   1.566   4.171
 3599SOL     OW11128   3.571   0.385   5.105
 3599SOL    HW111129   3.644   0.454   5.109
 3599SOL    HW211130   3.599   0.310   5.046
 3600SOL     OW11131   2.117   1.348   4.014
 3600SOL    HW111132   2.021   1.349   3.987
 3600SOL    HW211133   2.129   1.401   4.098
 3601SOL     OW11134   1.967   1.013   5.450
 3601SOL    HW111135   1.890   0.980   5.504
 3601SOL    HW211136   2.052   0.983   5.492
 3602SOL     OW11137   2.534   0.203   5.213
 3602SOL    HW111138   2.624   0.187   5.173
 3602SOL    HW211139   2.542   0.208   5.312
 3603SOL     OW11140   1.937   0.345   3.757
 3603SOL    HW111141   1.845   0.317   3.728
 3603SOL    HW211142   1.968   0.422   3.701
 3604SOL     OW11143   3.302   0.856   5.122
 3604SOL    HW111144   3.245   0.908   5.059
 3604SOL    HW211145   3.398   0.868   5.098
 3605SOL     OW11146   1.934   0.166   4.042
 3605SOL    HW111147   1.917   0.249   3.988
 3605SOL    HW211148   2.024   0.129   4.020
 3606SOL     OW11149   3.045   1.335   3.843
 3606SOL    HW111150   2.946   1.324   3.845
 3606SOL    HW211151   3.079   1.350   3.936
 3607SOL     OW11152   2.475   0.842   5.155
 3607SOL    HW111153   2.531   0.923   5.138
 3607SOL    HW211154   2.534   0.762   5.158
 3608SOL     OW11155   3.355   1.767   4.683
 3608SOL    HW111156   3.388   1.831   4.614
 3608SOL    HW211157   3.421   1.761   4.758
 3609SOL     OW11158   2.578   0.565   5.432
 3609SOL    HW111159   2.597   0.630   5.506
 3609SOL    HW211160   2.638   0.485   5.441
 3610SOL     OW11161   3.312   1.220   5.357
 3610SOL    HW111162   3.303   1.210   5.456
 3610SOL    HW211163   3.408   1.213   5.331
 3611SOL     OW11164   3.536   0.883   4.978
 3611SOL    HW111165   3.509   0.794   4.941
 3611SOL    HW211166   3.537   0.951   4.905
 3612SOL     OW11167   3.087   0.325   4.173
 3612SOL    HW111168   3.152   0.251   4.162
 3612SOL    HW211169   3.107   0.375   4.257
 3613SOL     OW11170   2.456   0.745   4.376
 3613SOL    HW111171   2.506   0.830   4.357
 3613SOL    HW211172   2.368   0.747   4.328
 3614SOL     OW11173   3.639   0.342   5.366
 3614SOL    HW111174   3.622   0.373   5.272
 3614SOL    HW211175   3.555   0.305   5.404
 3615SOL     OW11176   3.592   0.934   5.241
 3615SOL    HW111177   3.630   1.025   5.256
 3615SOL    HW211178   3.584   0.917   5.142
 3616SOL     OW11179   2.721   1.374   3.740
 3616SOL    HW111180   2.675   1.389   3.828
 3616SOL    HW211181   2.765   1.459   3.710
 3617SOL     OW11182   2.523   1.790   4.677
 3617SOL    HW111183   2.477   1.878   4.664
 3617SOL    HW211184   2.622   1.802   4.670
 3618SOL     OW11185   2.721   0.956   4.585
 3618SOL    HW111186   2.775   0.887   4.633
 3618SOL    HW211187   2.689   1.025   4.651
 3619SOL     OW11188   2.945   0.984   3.811
 3619SOL    HW111189   2.922   1.037   3.729
 3619SOL    HW211190   3.026   0.928   3.792
 3620SOL     OW11191   3.723   1.569   4.575
 3620SOL    HW111192   3.652   1.557   4.505
 3620SOL    HW211193   3.724   1.490   4.635
 3621SOL     OW11194   2.083   1.314   5.568
 3621SOL    HW111195   2.018   1.241   5.547
 3621SOL    HW211196   2.087   1.328   5.666
 3622SOL     OW11197   1.941   1.240   4.377
 3622SOL    HW111198   1.940   1.193   4.465
 3622SOL    HW211199   2.023   1.212   4.326
 3623SOL     OW11200   2.534   1.391   5.348
 3623SOL    HW111201   2.456   1.341   5.386
 3623SOL    HW211202   2.531   1.486   5.379
 3624SOL     OW11203   3.686   0.192   4.951
 3624SOL    HW111204   3.682   0.102   4.995
 3624SOL    HW211205   3.689   0.181   4.852
 3625SOL     OW11206   2.290   0.424   4.244
 3625SOL    HW111207   2.320   0.352   4.182
 3625SOL    HW211208   2.251   0.384   4.327
 3626SOL     OW11209   3.567   1.487   4.828
 3626SOL    HW111210   3.474   1.462   4.801
 3626SOL    HW211211   3.593   1.437   4.910
 3627SOL     OW11212   2.179   0.547   5.004
 3627SOL    HW111213   2.217   0.488   5.076
 3627SOL    HW211214   2.219   0.521   4.916
 3628SOL     OW11215   2.674   1.586   4.411
 3628SOL    HW111216   2.706   1.596   4.317
 3628SOL    HW211217   2.595   1.524   4.413
 3629SOL     OW11218   3.286   0.214   4.836
 3629SOL    HW111219   3.338   0.149   4.891
 3629SOL    HW211220   3.237   0.277   4.897
 3630SOL     OW11221   2.863   0.034   4.878
 3630SOL    HW111222   2.800  -0.038   4.847
 3630SOL    HW211223   2.956  -0.002   4.878
 3631SOL     OW11224   2.632   1.330   4.025
 3631SOL    HW111225   2.586   1.243   4.042
 3631SOL    HW211226   2.723   1.327   4.066
 3632SOL     OW11227   2.480   1.567   5.008
 3632SOL    HW111228   2.475   1.649   5.065
 3632SOL    HW211229   2.569   1.564   4.963
 3633SOL     OW11230   3.214   0.052   3.892
 3633SOL    HW111231   3.249   0.011   3.808
 3633SOL    HW211232   3.124   0.014   3.912
 3634SOL     OW11233   3.162   0.453   4.415
 3634SOL    HW111234   3.103   0.533   4.419
 3634SOL    HW211235   3.177   0.418   4.508
 3635SOL     OW11236   3.455   0.221   4.606
 3635SOL    HW111237   3.371   0.220   4.660
 3635SOL    HW211238   3.457   0.304   4.550
 3636SOL     OW11239   1.901   1.077   4.024
 3636SOL    HW111240   2.000   1.066   4.015
 3636SOL    HW211241   1.861   0.991   4.056
 3637SOL     OW11242   2.737   1.646   4.061
 3637SOL    HW111243   2.660   1.611   4.007
 3637SOL    HW211244   2.705   1.717   4.123
 3638SOL     OW11245   2.092   0.628   5.699
 3638SOL    HW111246   1.999   0.626   5.736
 3638SOL    HW211247   2.093   0.589   5.607
 3639SOL     OW11248   2.087   0.275   6.582
 3639SOL    HW111249   2.122   0.258   6.674
 3639SOL    HW211250   1.999   0.230   6.570
 3640SOL     OW11251   1.881   0.368   6.233
 3640SOL    HW111252   1.799   0.411   6.272
 3640SOL    HW211253   1.853   0.295   6.170
 3641SOL     OW11254   2.431   1.275   6.751
 3641SOL    HW111255   2.338   1.268   6.714
 3641SOL    HW211256   2.442   1.364   6.795
 3642SOL     OW11257   3.417   1.511   6.289
 3642SOL    HW111258   3.360   1.495   6.370
 3642SOL    HW211259   3.358   1.521   6.209
 3643SOL     OW11260   2.997   0.703   6.303
 3643SOL    HW111261   3.054   0.781   6.278
 3643SOL    HW211262   2.937   0.729   6.379
 3644SOL     OW11263   3.617   0.607   5.817
 3644SOL    HW111264   3.605   0.594   5.718
 3644SOL    HW211265   3.587   0.526   5.866
 3645SOL     OW11266   2.630   1.144   6.609
 3645SOL    HW111267   2.552   1.161   6.669
 3645SOL    HW211268   2.664   1.231   6.573
 3646SOL     OW11269   2.712   0.798   7.409
 3646SOL    HW111270   2.708   0.874   7.474
 3646SOL    HW211271   2.734   0.834   7.318
 3647SOL     OW11272   2.547   1.012   6.251
 3647SOL    HW111273   2.616   0.996   6.321
 3647SOL    HW211274   2.474   1.069   6.289
 3648SOL     OW11275   2.548   1.161   7.389
 3648SOL    HW111276   2.608   1.240   7.403
 3648SOL    HW211277   2.462   1.192   7.348
 3649SOL     OW11278   2.197   1.435   6.647
 3649SOL    HW111279   2.119   1.404   6.594
 3649SOL    HW211280   2.255   1.493   6.590
 3650SOL     OW11281   3.322   1.505   6.925
 3650SOL    HW111282   3.346   1.599   6.951
 3650SOL    HW211283   3.306   1.451   7.007
 3651SOL     OW11284   2.300   0.392   7.085
 3651SOL    HW111285   2.382   0.336   7.094
 3651SOL    HW211286   2.219   0.334   7.089
 3652SOL     OW11287   3.465   0.447   6.323
 3652SOL    HW111288   3.391   0.493   6.273
 3652SOL    HW211289   3.516   0.515   6.376
 3653SOL     OW11290   2.093   1.713   6.069
 3653SOL    HW111291   2.127   1.790   6.123
 3653SOL    HW211292   2.137   1.713   5.979
 3654SOL     OW11293   2.989   1.341   7.276
 3654SOL    HW111294   3.036   1.341   7.364
 3654SOL    HW211295   2.941   1.254   7.265
 3655SOL     OW11296   2.092   1.434   6.124
 3655SOL    HW111297   2.066   1.530   6.124
 3655SOL    HW211298   2.021   1.380   6.169
 3656SOL     OW11299   2.102   1.091   6.472
 3656SOL    HW111300   2.116   1.007   6.524
 3656SOL    HW211301   2.047   1.155   6.527
 3657SOL     OW11302   2.482   1.786   7.025
 3657SOL    HW111303   2.390   1.769   7.060
 3657SOL    HW211304   2.510   1.878   7.051
 3658SOL     OW11305   2.468   0.964   5.709
 3658SOL    HW111306   2.475   1.048   5.655
 3658SOL    HW211307   2.514   0.977   5.797
 3659SOL     OW11308   3.456   0.114   7.066
 3659SOL    HW111309   3.438   0.181   6.994
 3659SOL    HW211310   3.453   0.160   7.155
 3660SOL     OW11311   1.984   0.643   6.149
 3660SOL    HW111312   1.939   0.555   6.166
 3660SOL    HW211313   1.983   0.697   6.233
 3661SOL     OW11314   3.704   1.767   5.945
 3661SOL    HW111315   3.758   1.738   6.025
 3661SOL    HW211316   3.734   1.857   5.916
 3662SOL     OW11317   1.889   1.596   5.703
 3662SOL    HW111318   1.870   1.500   5.724
 3662SOL    HW211319   1.856   1.654   5.778
 3663SOL     OW11320   3.551   0.922   6.198
 3663SOL    HW111321   3.646   0.893   6.206
 3663SOL    HW211322   3.543   0.987   6.123
 3664SOL     OW11323   3.503   1.108   6.018
 3664SOL    HW111324   3.589   1.110   5.966
 3664SOL    HW211325   3.517   1.155   6.106
 3665SOL     OW11326   1.975   0.737   7.183
 3665SOL    HW111327   2.063   0.724   7.228
 3665SOL    HW211328   1.962   0.834   7.161
 3666SOL     OW11329   2.475   1.365   6.312
 3666SOL    HW111330   2.426   1.278   6.321
 3666SOL    HW211331   2.452   1.408   6.225
 3667SOL     OW11332   3.155   1.228   7.009
 3667SOL    HW111333   3.192   1.155   6.951
 3667SOL    HW211334   3.207   1.233   7.094
 3668SOL     OW11335   2.671   0.004   6.088
 3668SOL    HW111336   2.711   0.095   6.079
 3668SOL    HW211337   2.571   0.012   6.094
 3669SOL     OW11338   2.059   0.976   6.850
 3669SOL    HW111339   2.148   0.931   6.836
 3669SOL    HW211340   1.986   0.911   6.831
 3670SOL     OW11341   3.387   0.999   5.776
 3670SOL    HW111342   3.324   0.923   5.789
 3670SOL    HW211343   3.435   1.017   5.862
 3671SOL     OW11344   3.049   1.792   7.202
 3671SOL    HW111345   3.073   1.852   7.126
 3671SOL    HW211346   3.056   1.697   7.172
 3672SOL     OW11347   2.179   0.251   7.387
 3672SOL    HW111348   2.250   0.322   7.393
 3672SOL    HW211349   2.091   0.290   7.415
 3673SOL     OW11350   3.328   1.417   6.539
 3673SOL    HW111351   3.269   1.423   6.619
 3673SOL    HW211352   3.313   1.329   6.493
 3674SOL     OW11353   3.529   1.714   6.158
 3674SOL    HW111354   3.488   1.691   6.070
 3674SOL    HW211355   3.511   1.640   6.223
 3675SOL     OW11356   2.460   0.729   5.856
 3675SOL    HW111357   2.484   0.798   5.788
 3675SOL    HW211358   2.382   0.762   5.910
 3676SOL     OW11359   3.143   0.345   6.530
 3676SOL    HW111360   3.057   0.295   6.517
 3676SOL    HW211361   3.205   0.291   6.586
 3677SOL     OW11362   3.438   1.662   5.893
 3677SOL    HW111363   3.527   1.708   5.896
 3677SOL    HW211364   3.417   1.638   5.798
 3678SOL     OW11365   2.669   0.605   7.051
 3678SOL    HW111366   2.622   0.602   7.140
 3678SOL    HW211367   2.618   0.550   6.985
 3679SOL     OW11368   3.256   0.469   7.260
 3679SOL    HW111369   3.236   0.512   7.348
 3679SOL    HW211370   3.334   0.407   7.269
 3680SOL     OW11371   2.835   0.890   7.158
 3680SOL    HW111372   2.881   0.806   7.129
 3680SOL    HW211373   2.779   0.924   7.083
 3681SOL     OW11374   2.853   0.410   6.828
 3681SOL    HW111375   2.776   0.444   6.882
 3681SOL    HW211376   2.819   0.359   6.749
 3682SOL     OW11377   2.903   0.701   6.015
 3682SOL    HW111378   2.929   0.697   6.111
 3682SOL    HW211379   2.818   0.650   6.001
 3683SOL     OW11380   1.938   0.811   6.375
 3683SOL    HW111381   2.037   0.799   6.384
 3683SOL    HW211382   1.914   0.906   6.396
 3684SOL     OW11383   1.992   1.821   7.157
 3684SOL    HW111384   1.982   1.806   7.256
 3684SOL    HW211385   1.906   1.857   7.121
 3685SOL     OW11386   2.727   0.348   5.781
 3685SOL    HW111387   2.786   0.411   5.732
 3685SOL    HW211388   2.746   0.254   5.752
 3686SOL     OW11389   3.581   0.585   7.417
 3686SOL    HW111390   3.555   0.674   7.381
 3686SOL    HW211391   3.579   0.517   7.344
 3687SOL     OW11392   3.224   1.144   6.131
 3687SOL    HW111393   3.307   1.115   6.083
 3687SOL    HW211394   3.175   1.211   6.075
 3688SOL     OW11395   2.412   0.196   6.471
 3688SOL    HW111396   2.407   0.191   6.571
 3688SOL    HW211397   2.414   0.292   6.442
 3689SOL     OW11398   2.870   1.456   6.063
 3689SOL    HW111399   2.824   1.528   6.011
 3689SOL    HW211400   2.866   1.476   6.161
 3690SOL     OW11401   2.213   1.801   6.439
 3690SOL    HW111402   2.263   1.715   6.445
 3690SOL    HW211403   2.278   1.878   6.436
 3691SOL     OW11404   3.657   1.066   6.459
 3691SOL    HW111405   3.595   1.051   6.383
 3691SOL    HW211406   3.605   1.077   6.544
 3692SOL     OW11407   3.089   1.550   7.092
 3692SOL    HW111408   3.095   1.473   7.156
 3692SOL    HW211409   3.037   1.524   7.012
 3693SOL     OW11410   2.183   0.943   5.828
 3693SOL    HW111411   2.265   0.982   5.786
 3693SOL    HW211412   2.156   0.861   5.779
 3694SOL     OW11413   3.320   0.735   6.314
 3694SOL    HW111414   3.315   0.670   6.389
 3694SOL    HW211415   3.400   0.794   6.327
 3695SOL     OW11416   2.323   1.266   7.313
 3695SOL    HW111417   2.273   1.267   7.227
 3695SOL    HW211418   2.260   1.248   7.389
 3696SOL     OW11419   2.973   1.776   5.823
 3696SOL    HW111420   2.913   1.714   5.873
 3696SOL    HW211421   3.004   1.732   5.738
 3697SOL     OW11422   2.064   0.285   7.084
 3697SOL    HW111423   1.984   0.345   7.071
 3697SOL    HW211424   2.054   0.236   7.170
 3698SOL     OW11425   3.494   1.377   5.667
 3698SOL    HW111426   3.462   1.471   5.657
 3698SOL    HW211427   3.418   1.314   5.655
 3699SOL     OW11428   2.326   1.743   5.909
 3699SOL    HW111429   2.359   1.782   5.995
 3699SOL    HW211430   2.402   1.736   5.844
 3700SOL     OW11431   3.262   0.107   6.012
 3700SOL    HW111432   3.238   0.070   5.922
 3700SOL    HW211433   3.361   0.123   6.016
 3701SOL     OW11434   2.111   1.785   6.827
 3701SOL    HW111435   2.168   1.720   6.877
 3701SOL    HW211436   2.095   1.752   6.734
 3702SOL     OW11437   2.802   1.698   6.490
 3702SOL    HW111438   2.882   1.641   6.511
 3702SOL    HW211439   2.753   1.658   6.413
 3703SOL     OW11440   2.244   0.700   6.066
 3703SOL    HW111441   2.289   0.610   6.063
 3703SOL    HW211442   2.150   0.689   6.099
 3704SOL     OW11443   3.409   0.222   7.315
 3704SOL    HW111444   3.404   0.259   7.407
 3704SOL    HW211445   3.337   0.153   7.303
 3705SOL     OW11446   2.476   0.122   5.703
 3705SOL    HW111447   2.574   0.100   5.710
 3705SOL    HW211448   2.445   0.105   5.610
 3706SOL     OW11449   2.643   0.264   7.335
 3706SOL    HW111450   2.710   0.203   7.378
 3706SOL    HW211451   2.570   0.283   7.400
 3707SOL     OW11452   2.750   1.514   6.781
 3707SOL    HW111453   2.727   1.489   6.687
 3707SOL    HW211454   2.811   1.445   6.820
 3708SOL     OW11455   3.213   0.590   7.019
 3708SOL    HW111456   3.241   0.547   7.104
 3708SOL    HW211457   3.238   0.686   7.020
 3709SOL     OW11458   2.665   1.402   6.510
 3709SOL    HW111459   2.755   1.416   6.468
 3709SOL    HW211460   2.594   1.404   6.439
 3710SOL     OW11461   2.784   0.503   6.485
 3710SOL    HW111462   2.759   0.494   6.389
 3710SOL    HW211463   2.832   0.421   6.516
 3711SOL     OW11464   2.401   0.064   6.098
 3711SOL    HW111465   2.320   0.065   6.156
 3711SOL    HW211466   2.404   0.147   6.043
 3712SOL     OW11467   3.296   1.188   5.627
 3712SOL    HW111468   3.328   1.112   5.684
 3712SOL    HW211469   3.204   1.215   5.657
 3713SOL     OW11470   2.159   0.035   5.757
 3713SOL    HW111471   2.208   0.119   5.736
 3713SOL    HW211472   2.221  -0.030   5.802
 3714SOL     OW11473   2.797   0.236   6.066
 3714SOL    HW111474   2.749   0.277   5.988
 3714SOL    HW211475   2.896   0.234   6.047
 3715SOL     OW11476   2.938   0.683   7.050
 3715SOL    HW111477   2.858   0.622   7.053
 3715SOL    HW211478   3.019   0.630   7.026
 3716SOL     OW11479   3.089   1.570   6.379
 3716SOL    HW111480   3.110   1.644   6.314
 3716SOL    HW211481   3.157   1.570   6.452
 3717SOL     OW11482   2.321   1.152   6.327
 3717SOL    HW111483   2.250   1.125   6.392
 3717SOL    HW211484   2.295   1.124   6.234
 3718SOL     OW11485   3.133   1.797   6.177
 3718SOL    HW111486   3.177   1.861   6.113
 3718SOL    HW211487   3.083   1.849   6.247
 3719SOL     OW11488   2.894   0.549   5.602
 3719SOL    HW111489   2.853   0.631   5.563
 3719SOL    HW211490   2.958   0.575   5.675
 3720SOL     OW11491   1.940   0.556   6.972
 3720SOL    HW111492   2.032   0.555   6.931
 3720SOL    HW211493   1.934   0.630   7.039
 3721SOL     OW11494   2.423   0.222   6.733
 3721SOL    HW111495   2.461   0.138   6.770
 3721SOL    HW211496   2.335   0.241   6.777
 3722SOL     OW11497   2.728   0.454   6.228
 3722SOL    HW111498   2.696   0.526   6.166
 3722SOL    HW211499   2.752   0.373   6.175
 3723SOL     OW11500   2.879   0.039   6.339
 3723SOL    HW111501   2.807   0.044   6.270
 3723SOL    HW211502   2.855  -0.030   6.408
 3724SOL     OW11503   3.291   1.173   6.453
 3724SOL    HW111504   3.236   1.089   6.446
 3724SOL    HW211505   3.317   1.202   6.361
 3725SOL     OW11506   3.328   0.590   6.578
 3725SOL    HW111507   3.298   0.495   6.585
 3725SOL    HW211508   3.401   0.606   6.644
 3726SOL     OW11509   3.719   0.833   5.963
 3726SOL    HW111510   3.761   0.769   6.027
 3726SOL    HW211511   3.681   0.782   5.885
 3727SOL     OW11512   2.350   1.385   5.760
 3727SOL    HW111513   2.263   1.370   5.807
 3727SOL    HW211514   2.333   1.411   5.665
 3728SOL     OW11515   3.526   1.280   6.243
 3728SOL    HW111516   3.625   1.288   6.257
 3728SOL    HW211517   3.481   1.364   6.274
 3729SOL     OW11518   3.252   0.575   5.664
 3729SOL    HW111519   3.198   0.554   5.745
 3729SOL    HW211520   3.343   0.534   5.673
 3730SOL     OW11521   2.389   0.256   5.914
 3730SOL    HW111522   2.416   0.197   5.839
 3730SOL    HW211523   2.389   0.351   5.883
 3731SOL     OW11524   3.616   1.223   7.174
 3731SOL    HW111525   3.707   1.184   7.161
 3731SOL    HW211526   3.624   1.319   7.198
 3732SOL     OW11527   2.926   1.347   6.926
 3732SOL    HW111528   2.846   1.324   6.981
 3732SOL    HW211529   3.009   1.321   6.975
 3733SOL     OW11530   3.454   1.629   7.211
 3733SOL    HW111531   3.481   1.663   7.121
 3733SOL    HW211532   3.533   1.591   7.257
 3734SOL     OW11533   2.973   1.195   6.686
 3734SOL    HW111534   2.933   1.239   6.767
 3734SOL    HW211535   2.932   1.232   6.603
 3735SOL     OW11536   3.500   1.099   6.665
 3735SOL    HW111537   3.505   1.180   6.724
 3735SOL    HW211538   3.414   1.101   6.614
 3736SOL     OW11539   2.777   0.089   6.988
 3736SOL    HW111540   2.802   0.069   6.893
 3736SOL    HW211541   2.849   0.145   7.030
 3737SOL     OW11542   2.842   1.116   7.305
 3737SOL    HW111543   2.743   1.122   7.315
 3737SOL    HW211544   2.865   1.036   7.249
 3738SOL     OW11545   2.567   1.050   5.954
 3738SOL    HW111546   2.553   1.057   6.053
 3738SOL    HW211547   2.651   0.999   5.936
 3739SOL     OW11548   2.272   0.813   6.837
 3739SOL    HW111549   2.358   0.825   6.887
 3739SOL    HW211550   2.230   0.726   6.864
 3740SOL     OW11551   3.136   0.386   6.848
 3740SOL    HW111552   3.157   0.460   6.912
 3740SOL    HW211553   3.047   0.403   6.805
 3741SOL     OW11554   1.926   1.564   6.917
 3741SOL    HW111555   1.880   1.646   6.883
 3741SOL    HW211556   2.024   1.583   6.926
 3742SOL     OW11557   2.229   1.100   6.087
 3742SOL    HW111558   2.222   1.183   6.031
 3742SOL    HW211559   2.233   1.020   6.027
 3743SOL     OW11560   2.428   0.537   6.451
 3743SOL    HW111561   2.440   0.603   6.377
 3743SOL    HW211562   2.474   0.571   6.534
 3744SOL     OW11563   3.114   1.348   5.974
 3744SOL    HW111564   3.164   1.425   6.014
 3744SOL    HW211565   3.019   1.350   6.006
 3745SOL     OW11566   3.134   1.445   6.728
 3745SOL    HW111567   3.181   1.458   6.815
 3745SOL    HW211568   3.068   1.371   6.737
 3746SOL     OW11569   3.444   0.639   6.058
 3746SOL    HW111570   3.413   0.700   6.131
 3746SOL    HW211571   3.494   0.691   5.989
 3747SOL     OW11572   2.216   1.510   6.915
 3747SOL    HW111573   2.195   1.466   6.828
 3747SOL    HW211574   2.313   1.536   6.918
 3748SOL     OW11575   2.264   0.751   7.184
 3748SOL    HW111576   2.332   0.806   7.137
 3748SOL    HW211577   2.304   0.663   7.211
 3749SOL     OW11578   3.449   0.779   7.256
 3749SOL    HW111579   3.357   0.817   7.251
 3749SOL    HW211580   3.509   0.826   7.191
 3750SOL     OW11581   2.875   0.105   7.356
 3750SOL    HW111582   2.881   0.190   7.304
 3750SOL    HW211583   2.907   0.029   7.299
 3751SOL     OW11584   2.366   0.050   7.326
 3751SOL    HW111585   2.324  -0.007   7.256
 3751SOL    HW211586   2.300   0.119   7.358
 3752SOL     OW11587   2.435   0.870   6.615
 3752SOL    HW111588   2.479   0.959   6.606
 3752SOL    HW211589   2.372   0.870   6.692
 3753SOL     OW11590   3.222   0.862   6.631
 3753SOL    HW111591   3.147   0.862   6.565
 3753SOL    HW211592   3.259   0.770   6.640
 3754SOL     OW11593   3.071   0.525   5.861
 3754SOL    HW111594   3.084   0.441   5.915
 3754SOL    HW211595   3.042   0.599   5.921
 3755SOL     OW11596   2.169   0.213   6.817
 3755SOL    HW111597   2.146   0.250   6.907
 3755SOL    HW211598   2.139   0.118   6.811
 3756SOL     OW11599   1.899   1.310   6.868
 3756SOL    HW111600   1.952   1.261   6.936
 3756SOL    HW211601   1.921   1.408   6.873
 3757SOL     OW11602   2.594   0.634   6.650
 3757SOL    HW111603   2.653   0.608   6.574
 3757SOL    HW211604   2.566   0.730   6.639
 3758SOL     OW11605   3.590   0.935   7.440
 3758SOL    HW111606   3.544   0.928   7.351
 3758SOL    HW211607   3.528   0.979   7.506
 3759SOL     OW11608   2.169   0.063   6.204
 3759SOL    HW111609   2.158   0.157   6.237
 3759SOL    HW211610   2.164   0.000   6.281
 3760SOL     OW11611   3.484   0.367   5.960
 3760SOL    HW111612   3.486   0.291   6.024
 3760SOL    HW211613   3.436   0.444   6.000
 3761SOL     OW11614   2.885   0.766   6.552
 3761SOL    HW111615   2.900   0.787   6.648
 3761SOL    HW211616   2.855   0.671   6.543
 3762SOL     OW11617   2.842   1.573   7.286
 3762SOL    HW111618   2.822   1.617   7.198
 3762SOL    HW211619   2.881   1.482   7.270
 3763SOL     OW11620   3.721   1.518   7.191
 3763SOL    HW111621   3.735   1.545   7.096
 3763SOL    HW211622   3.804   1.540   7.244
 3764SOL     OW11623   2.212   0.898   7.390
 3764SOL    HW111624   2.288   0.942   7.438
 3764SOL    HW211625   2.247   0.851   7.308
 3765SOL     OW11626   3.402   0.274   5.711
 3765SOL    HW111627   3.341   0.199   5.734
 3765SOL    HW211628   3.424   0.326   5.794
 3766SOL     OW11629   3.165   0.838   5.628
 3766SOL    HW111630   3.199   0.745   5.643
 3766SOL    HW211631   3.183   0.865   5.533
 3767SOL     OW11632   2.930   1.333   6.435
 3767SOL    HW111633   2.937   1.249   6.380
 3767SOL    HW211634   2.992   1.402   6.399
 3768SOL     OW11635   2.181   0.810   6.535
 3768SOL    HW111636   2.274   0.846   6.540
 3768SOL    HW211637   2.175   0.725   6.587
 3769SOL     OW11638   2.201   0.509   6.592
 3769SOL    HW111639   2.149   0.426   6.575
 3769SOL    HW211640   2.278   0.514   6.528
 3770SOL     OW11641   3.000   0.380   7.264
 3770SOL    HW111642   2.955   0.443   7.328
 3770SOL    HW211643   3.093   0.411   7.247
 3771SOL     OW11644   3.022   0.207   7.063
 3771SOL    HW111645   3.022   0.271   7.140
 3771SOL    HW211646   3.050   0.255   6.980
 3772SOL     OW11647   1.870   1.326   5.786
 3772SOL    HW111648   1.777   1.347   5.755
 3772SOL    HW211649   1.880   1.227   5.799
 3773SOL     OW11650   1.950   1.801   6.513
 3773SOL    HW111651   1.908   1.715   6.486
 3773SOL    HW211652   2.044   1.804   6.479
 3774SOL     OW11653   2.366   1.568   6.496
 3774SOL    HW111654   2.432   1.642   6.505
 3774SOL    HW211655   2.410   1.489   6.454
 3775SOL     OW11656   2.864   0.796   6.824
 3775SOL    HW111657   2.905   0.764   6.910
 3775SOL    HW211658   2.768   0.769   6.821
 3776SOL     OW11659   1.902   0.544   6.700
 3776SOL    HW111660   1.987   0.511   6.659
 3776SOL    HW211661   1.915   0.559   6.798
 3777SOL     OW11662   2.051   0.520   7.308
 3777SOL    HW111663   2.110   0.480   7.238
 3777SOL    HW211664   1.993   0.591   7.267
 3778SOL     OW11665   3.231   0.950   7.246
 3778SOL    HW111666   3.270   1.039   7.266
 3778SOL    HW211667   3.241   0.930   7.149
 3779SOL     OW11668   2.677   0.572   5.911
 3779SOL    HW111669   2.684   0.483   5.865
 3779SOL    HW211670   2.583   0.606   5.903
 3780SOL     OW11671   3.519   0.604   6.792
 3780SOL    HW111672   3.481   0.535   6.854
 3780SOL    HW211673   3.601   0.568   6.748
 3781SOL     OW11674   2.114   1.564   7.330
 3781SOL    HW111675   2.084   1.621   7.406
 3781SOL    HW211676   2.107   1.467   7.356
 3782SOL     OW11677   2.533   0.464   6.855
 3782SOL    HW111678   2.499   0.375   6.825
 3782SOL    HW211679   2.559   0.518   6.775
 3783SOL     OW11680   2.792   1.678   7.051
 3783SOL    HW111681   2.768   1.660   6.956
 3783SOL    HW211682   2.822   1.772   7.061
 3784SOL     OW11683   2.335   0.500   5.777
 3784SOL    HW111684   2.396   0.580   5.781
 3784SOL    HW211685   2.240   0.531   5.784
 3785SOL     OW11686   2.021   1.137   7.052
 3785SOL    HW111687   2.043   1.076   7.128
 3785SOL    HW211688   2.031   1.088   6.966
 3786SOL     OW11689   3.209   1.059   6.820
 3786SOL    HW111690   3.233   0.996   6.746
 3786SOL    HW211691   3.119   1.099   6.802
 3787SOL     OW11692   3.164   0.855   5.895
 3787SOL    HW111693   3.078   0.824   5.937
 3787SOL    HW211694   3.160   0.841   5.796
 3788SOL     OW11695   3.621   1.747   6.740
 3788SOL    HW111696   3.682   1.777   6.667
 3788SOL    HW211697   3.583   1.658   6.718
 3789SOL     OW11698   3.114   1.731   6.714
 3789SOL    HW111699   3.198   1.736   6.660
 3789SOL    HW211700   3.091   1.635   6.732
 3790SOL     OW11701   1.945   1.258   6.608
 3790SOL    HW111702   1.940   1.257   6.708
 3790SOL    HW211703   1.862   1.217   6.570
 3791SOL     OW11704   2.550   1.662   7.302
 3791SOL    HW111705   2.494   1.743   7.311
 3791SOL    HW211706   2.602   1.666   7.216
 3792SOL     OW11707   3.588   0.135   6.109
 3792SOL    HW111708   3.661   0.118   6.042
 3792SOL    HW211709   3.557   0.048   6.147
 3793SOL     OW11710   3.250   1.573   6.063
 3793SOL    HW111711   3.317   1.585   5.989
 3793SOL    HW211712   3.210   1.662   6.086
 3794SOL     OW11713   1.992   1.794   7.437
 3794SOL    HW111714   1.951   1.720   7.490
 3794SOL    HW211715   2.056   1.845   7.495
 3795SOL     OW11716   3.142   0.927   6.258
 3795SOL    HW111717   3.202   0.846   6.260
 3795SOL    HW211718   3.182   0.996   6.198
 3796SOL     OW11719   2.692   1.273   7.008
 3796SOL    HW111720   2.687   1.306   7.103
 3796SOL    HW211721   2.606   1.292   6.962
 3797SOL     OW11722   2.534   1.616   5.740
 3797SOL    HW111723   2.543   1.626   5.641
 3797SOL    HW211724   2.494   1.527   5.761
 3798SOL     OW11725   3.512   1.720   6.980
 3798SOL    HW111726   3.565   1.730   6.896
 3798SOL    HW211727   3.485   1.810   7.014
 3799SOL     OW11728   3.703   0.175   6.549
 3799SOL    HW111729   3.742   0.090   6.513
 3799SOL    HW211730   3.605   0.177   6.530
 3800SOL     OW11731   2.125   0.326   6.306
 3800SOL    HW111732   2.046   0.377   6.272
 3800SOL    HW211733   2.116   0.311   6.404
 3801SOL     OW11734   3.056   1.612   5.617
 3801SOL    HW111735   3.062   1.519   5.654
 3801SOL    HW211736   2.997   1.612   5.537
 3802SOL     OW11737   2.684   1.002   6.958
 3802SOL    HW111738   2.724   1.001   6.866
 3802SOL    HW211739   2.694   1.094   6.998
 3803SOL     OW11740   2.778   0.910   5.877
 3803SOL    HW111741   2.841   0.948   5.809
 3803SOL    HW211742   2.818   0.827   5.916
 3804SOL     OW11743   3.366   1.607   5.630
 3804SOL    HW111744   3.274   1.644   5.637
 3804SOL    HW211745   3.404   1.627   5.540
 3805SOL     OW11746   2.234   1.288   7.076
 3805SOL    HW111747   2.221   1.381   7.042
 3805SOL    HW211748   2.150   1.236   7.063
 3806SOL     OW11749   3.476   1.292   6.875
 3806SOL    HW111750   3.536   1.295   6.955
 3806SOL    HW211751   3.401   1.356   6.888
 3807SOL     OW11752   2.901   1.098   6.282
 3807SOL    HW111753   2.831   1.051   6.336
 3807SOL    HW211754   2.960   1.030   6.239
 3808SOL     OW11755   2.876   0.236   6.557
 3808SOL    HW111756   2.868   0.200   6.464
 3808SOL    HW211757   2.874   0.160   6.622
 3809SOL     OW11758   2.452   1.487   6.077
 3809SOL    HW111759   2.494   1.429   6.007
 3809SOL    HW211760   2.408   1.566   6.033
 3810SOL     OW11761   3.571   0.385   6.967
 3810SOL    HW111762   3.644   0.454   6.971
 3810SOL    HW211763   3.599   0.310   6.908
 3811SOL     OW11764   2.117   1.348   5.876
 3811SOL    HW111765   2.021   1.349   5.849
 3811SOL    HW211766   2.129   1.401   5.960
 3812SOL     OW11767   1.967   1.013   7.312
 3812SOL    HW111768   1.890   0.980   7.366
 3812SOL    HW211769   2.052   0.983   7.354
 3813SOL     OW11770   2.534   0.203   7.075
 3813SOL    HW111771   2.624   0.187   7.035
 3813SOL    HW211772   2.542   0.208   7.174
 3814SOL     OW11773   1.937   0.345   5.619
 3814SOL    HW111774   1.845   0.317   5.590
 3814SOL    HW211775   1.968   0.422   5.563
 3815SOL     OW11776   3.302   0.856   6.984
 3815SOL    HW111777   3.245   0.908   6.921
 3815SOL    HW211778   3.398   0.868   6.960
 3816SOL     OW11779   1.934   0.166   5.904
 3816SOL    HW111780   1.917   0.249   5.850
 3816SOL    HW211781   2.024   0.129   5.882
 3817SOL     OW11782   3.045   1.335   5.705
 3817SOL    HW111783   2.946   1.324   5.707
 3817SOL    HW211784   3.079   1.350   5.798
 3818SOL     OW11785   2.475   0.842   7.017
 3818SOL    HW111786   2.531   0.923   7.000
 3818SOL    HW211787   2.534   0.762   7.020
 3819SOL     OW11788   3.355   1.767   6.545
 3819SOL    HW111789   3.388   1.831   6.476
 3819SOL    HW211790   3.421   1.761   6.620
 3820SOL     OW11791   2.578   0.565   7.294
 3820SOL    HW111792   2.597   0.630   7.368
 3820SOL    HW211793   2.638   0.485   7.303
 3821SOL     OW11794   3.312   1.220   7.219
 3821SOL    HW111795   3.303   1.210   7.318
 3821SOL    HW211796   3.408   1.213   7.193
 3822SOL     OW11797   2.252   1.741   7.146
 3822SOL    HW111798   2.161   1.782   7.144
 3822SOL    HW211799   2.245   1.647   7.178
 3823SOL     OW11800   3.536   0.883   6.840
 3823SOL    HW111801   3.509   0.794   6.803
 3823SOL    HW211802   3.537   0.951   6.767
 3824SOL     OW11803   3.087   0.325   6.035
 3824SOL    HW111804   3.152   0.251   6.024
 3824SOL    HW211805   3.107   0.375   6.119
 3825SOL     OW11806   2.456   0.745   6.238
 3825SOL    HW111807   2.506   0.830   6.219
 3825SOL    HW211808   2.368   0.747   6.190
 3826SOL     OW11809   3.639   0.342   7.228
 3826SOL    HW111810   3.622   0.373   7.134
 3826SOL    HW211811   3.555   0.305   7.266
 3827SOL     OW11812   3.592   0.934   7.103
 3827SOL    HW111813   3.630   1.025   7.118
 3827SOL    HW211814   3.584   0.917   7.004
 3828SOL     OW11815   2.721   1.374   5.602
 3828SOL    HW111816   2.675   1.389   5.690
 3828SOL    HW211817   2.765   1.459   5.572
 3829SOL     OW11818   2.523   1.790   6.539
 3829SOL    HW111819   2.477   1.878   6.526
 3829SOL    HW211820   2.622   1.802   6.532
 3830SOL     OW11821   2.721   0.956   6.447
 3830SOL    HW111822   2.775   0.887   6.495
 3830SOL    HW211823   2.689   1.025   6.513
 3831SOL     OW11824   2.945   0.984   5.673
 3831SOL    HW111825   2.922   1.037   5.591
 3831SOL    HW211826   3.026   0.928   5.654
 3832SOL     OW11827   3.723   1.569   6.437
 3832SOL    HW111828   3.652   1.557   6.367
 3832SOL    HW211829   3.724   1.490   6.497
 3833SOL     OW11830   2.083   1.314   7.430
 3833SOL    HW111831   2.018   1.241   7.409
 3833SOL    HW211832   2.087   1.328   7.528
 3834SOL     OW11833   1.941   1.240   6.239
 3834SOL    HW111834   1.940   1.193   6.327
 3834SOL    HW211835   2.023   1.212   6.188
 3835SOL     OW11836   2.534   1.391   7.210
 3835SOL    HW111837   2.456   1.341   7.248
 3835SOL    HW211838   2.531   1.486   7.241
 3836SOL     OW11839   3.686   0.192   6.813
 3836SOL    HW111840   3.682   0.102   6.857
 3836SOL    HW211841   3.689   0.181   6.714
 3837SOL     OW11842   2.290   0.424   6.106
 3837SOL    HW111843   2.320   0.352   6.044
 3837SOL    HW211844   2.251   0.384   6.189
 3838SOL     OW11845   3.567   1.487   6.690
 3838SOL    HW111846   3.474   1.462   6.663
 3838SOL    HW211847   3.593   1.437   6.772
 3839SOL     OW11848   2.179   0.547   6.866
 3839SOL    HW111849   2.217   0.488   6.938
 3839SOL    HW211850   2.219   0.521   6.778
 3840SOL     OW11851   2.674   1.586   6.273
 3840SOL    HW111852   2.706   1.596   6.179
 3840SOL    HW211853   2.595   1.524   6.275
 3841SOL     OW11854   3.286   0.214   6.698
 3841SOL    HW111855   3.338   0.149   6.753
 3841SOL    HW211856   3.237   0.277   6.759
 3842SOL     OW11857   2.863   0.034   6.740
 3842SOL    HW111858   2.800  -0.038   6.709
 3842SOL    HW211859   2.956  -0.002   6.740
 3843SOL     OW11860   2.632   1.330   5.887
 3843SOL    HW111861   2.586   1.243   5.904
 3843SOL    HW211862   2.723   1.327   5.928
 3844SOL     OW11863   2.480   1.567   6.870
 3844SOL    HW111864   2.475   1.649   6.927
 3844SOL    HW211865   2.569   1.564   6.825
 3845SOL     OW11866   3.214   0.052   5.754
 3845SOL    HW111867   3.249   0.011   5.670
 3845SOL    HW211868   3.124   0.014   5.774
 3846SOL     OW11869   3.162   0.453   6.277
 3846SOL    HW111870   3.103   0.533   6.281
 3846SOL    HW211871   3.177   0.418   6.370
 3847SOL     OW11872   3.455   0.221   6.468
 3847SOL    HW111873   3.371   0.220   6.522
 3847SOL    HW211874   3.457   0.304   6.412
 3848SOL     OW11875   1.901   1.077   5.886
 3848SOL    HW111876   2.000   1.066   5.877
 3848SOL    HW211877   1.861   0.991   5.918
 3849SOL     OW11878   2.737   1.646   5.923
 3849SOL    HW111879   2.660   1.611   5.869
 3849SOL    HW211880   2.705   1.717   5.985
 3850SOL     OW11881   2.092   0.628   7.561
 3850SOL    HW111882   1.999   0.626   7.598
 3850SOL    HW211883   2.093   0.589   7.469
 3851SOL     OW11884   2.087   0.275   8.444
 3851SOL    HW111885   2.122   0.258   8.536
 3851SOL    HW211886   1.999   0.230   8.432
 3852SOL     OW11887   1.881   0.368   8.095
 3852SOL    HW111888   1.799   0.411   8.134
 3852SOL    HW211889   1.853   0.295   8.032
 3853SOL     OW11890   2.431   1.275   8.613
 3853SOL    HW111891   2.338   1.268   8.576
 3853SOL    HW211892   2.442   1.364   8.657
 3854SOL     OW11893   3.417   1.511   8.151
 3854SOL    HW111894   3.360   1.495   8.232
 3854SOL    HW211895   3.358   1.521   8.071
 3855SOL     OW11896   2.997   0.703   8.165
 3855SOL    HW111897   3.054   0.781   8.140
 3855SOL    HW211898   2.937   0.729   8.241
 3856SOL     OW11899   3.617   0.607   7.679
 3856SOL    HW111900   3.605   0.594   7.580
 3856SOL    HW211901   3.587   0.526   7.728
 3857SOL     OW11902   2.630   1.144   8.471
 3857SOL    HW111903   2.552   1.161   8.531
 3857SOL    HW211904   2.664   1.231   8.435
 3858SOL     OW11905   2.712   0.798   9.271
 3858SOL    HW111906   2.708   0.874   9.336
 3858SOL    HW211907   2.734   0.834   9.180
 3859SOL     OW11908   2.547   1.012   8.113
 3859SOL    HW111909   2.616   0.996   8.183
 3859SOL    HW211910   2.474   1.069   8.151
 3860SOL     OW11911   2.548   1.161   9.251
 3860SOL    HW111912   2.608   1.240   9.265
 3860SOL    HW211913   2.462   1.192   9.210
 3861SOL     OW11914   2.197   1.435   8.509
 3861SOL    HW111915   2.119   1.404   8.456
 3861SOL    HW211916   2.255   1.493   8.452
 3862SOL     OW11917   3.322   1.505   8.787
 3862SOL    HW111918   3.346   1.599   8.813
 3862SOL    HW211919   3.306   1.451   8.869
 3863SOL     OW11920   2.300   0.392   8.947
 3863SOL    HW111921   2.382   0.336   8.956
 3863SOL    HW211922   2.219   0.334   8.951
 3864SOL     OW11923   3.465   0.447   8.185
 3864SOL    HW111924   3.391   0.493   8.135
 3864SOL    HW211925   3.516   0.515   8.238
 3865SOL     OW11926   2.093   1.713   7.931
 3865SOL    HW111927   2.127   1.790   7.985
 3865SOL    HW211928   2.137   1.713   7.841
 3866SOL     OW11929   2.989   1.341   9.138
 3866SOL    HW111930   3.036   1.341   9.226
 3866SOL    HW211931   2.941   1.254   9.127
 3867SOL     OW11932   2.092   1.434   7.986
 3867SOL    HW111933   2.066   1.530   7.986
 3867SOL    HW211934   2.021   1.380   8.031
 3868SOL     OW11935   2.102   1.091   8.334
 3868SOL    HW111936   2.116   1.007   8.386
 3868SOL    HW211937   2.047   1.155   8.389
 3869SOL     OW11938   2.482   1.786   8.887
 3869SOL    HW111939   2.390   1.769   8.922
 3869SOL    HW211940   2.510   1.878   8.913
 3870SOL     OW11941   2.468   0.964   7.571
 3870SOL    HW111942   2.475   1.048   7.517
 3870SOL    HW211943   2.514   0.977   7.659
 3871SOL     OW11944   3.456   0.114   8.928
 3871SOL    HW111945   3.438   0.181   8.856
 3871SOL    HW211946   3.453   0.160   9.017
 3872SOL     OW11947   1.984   0.643   8.011
 3872SOL    HW111948   1.939   0.555   8.028
 3872SOL    HW211949   1.983   0.697   8.095
 3873SOL     OW11950   3.704   1.767   7.807
 3873SOL    HW111951   3.758   1.738   7.887
 3873SOL    HW211952   3.734   1.857   7.778
 3874SOL     OW11953   1.889   1.596   7.565
 3874SOL    HW111954   1.870   1.500   7.586
 3874SOL    HW211955   1.856   1.654   7.640
 3875SOL     OW11956   3.551   0.922   8.060
 3875SOL    HW111957   3.646   0.893   8.068
 3875SOL    HW211958   3.543   0.987   7.985
 3876SOL     OW11959   3.503   1.108   7.880
 3876SOL    HW111960   3.589   1.110   7.828
 3876SOL    HW211961   3.517   1.155   7.968
 3877SOL     OW11962   1.975   0.737   9.045
 3877SOL    HW111963   2.063   0.724   9.090
 3877SOL    HW211964   1.962   0.834   9.023
 3878SOL     OW11965   2.475   1.365   8.174
 3878SOL    HW111966   2.426   1.278   8.183
 3878SOL    HW211967   2.452   1.408   8.087
 3879SOL     OW11968   3.155   1.228   8.871
 3879SOL    HW111969   3.192   1.155   8.813
 3879SOL    HW211970   3.207   1.233   8.956
 3880SOL     OW11971   2.671   0.004   7.950
 3880SOL    HW111972   2.711   0.095   7.941
 3880SOL    HW211973   2.571   0.012   7.956
 3881SOL     OW11974   2.059   0.976   8.712
 3881SOL    HW111975   2.148   0.931   8.698
 3881SOL    HW211976   1.986   0.911   8.693
 3882SOL     OW11977   3.387   0.999   7.638
 3882SOL    HW111978   3.324   0.923   7.651
 3882SOL    HW211979   3.435   1.017   7.724
 3883SOL     OW11980   3.049   1.792   9.064
 3883SOL    HW111981   3.073   1.852   8.988
 3883SOL    HW211982   3.056   1.697   9.034
 3884SOL     OW11983   2.179   0.251   9.249
 3884SOL    HW111984   2.250   0.322   9.255
 3884SOL    HW211985   2.091   0.290   9.277
 3885SOL     OW11986   3.328   1.417   8.401
 3885SOL    HW111987   3.269   1.423   8.481
 3885SOL    HW211988   3.313   1.329   8.355
 3886SOL     OW11989   3.529   1.714   8.020
 3886SOL    HW111990   3.488   1.691   7.932
 3886SOL    HW211991   3.511   1.640   8.085
 3887SOL     OW11992   2.460   0.729   7.718
 3887SOL    HW111993   2.484   0.798   7.650
 3887SOL    HW211994   2.382   0.762   7.772
 3888SOL     OW11995   3.143   0.345   8.392
 3888SOL    HW111996   3.057   0.295   8.379
 3888SOL    HW211997   3.205   0.291   8.448
 3889SOL     OW11998   3.438   1.662   7.755
 3889SOL    HW111999   3.527   1.708   7.758
 3889SOL    HW212000   3.417   1.638   7.660
 3890SOL     OW12001   2.669   0.605   8.913
 3890SOL    HW112002   2.622   0.602   9.002
 3890SOL    HW212003   2.618   0.550   8.847
 3891SOL     OW12004   3.256   0.469   9.122
 3891SOL    HW112005   3.236   0.512   9.210
 3891SOL    HW212006   3.334   0.407   9.131
 3892SOL     OW12007   2.835   0.890   9.020
 3892SOL    HW112008   2.881   0.806   8.991
 3892SOL    HW212009   2.779   0.924   8.945
 3893SOL     OW12010   2.853   0.410   8.690
 3893SOL    HW112011   2.776   0.444   8.744
 3893SOL    HW212012   2.819   0.359   8.611
 3894SOL     OW12013   2.903   0.701   7.877
 3894SOL    HW112014   2.929   0.697   7.973
 3894SOL    HW212015   2.818   0.650   7.863
 3895SOL     OW12016   1.938   0.811   8.237
 3895SOL    HW112017   2.037   0.799   8.246
 3895SOL    HW212018   1.914   0.906   8.258
 3896SOL     OW12019   1.992   1.821   9.019
 3896SOL    HW112020   1.982   1.806   9.118
 3896SOL    HW212021   1.906   1.857   8.983
 3897SOL     OW12022   2.727   0.348   7.643
 3897SOL    HW112023   2.786   0.411   7.594
 3897SOL    HW212024   2.746   0.254   7.614
 3898SOL     OW12025   3.581   0.585   9.279
 3898SOL    HW112026   3.555   0.674   9.243
 3898SOL    HW212027   3.579   0.517   9.206
 3899SOL     OW12028   3.224   1.144   7.993
 3899SOL    HW112029   3.307   1.115   7.945
 3899SOL    HW212030   3.175   1.211   7.937
 3900SOL     OW12031   2.412   0.196   8.333
 3900SOL    HW112032   2.407   0.191   8.433
 3900SOL    HW212033   2.414   0.292   8.304
 3901SOL     OW12034   2.870   1.456   7.925
 3901SOL    HW112035   2.824   1.528   7.873
 3901SOL    HW212036   2.866   1.476   8.023
 3902SOL     OW12037   2.213   1.801   8.301
 3902SOL    HW112038   2.263   1.715   8.307
 3902SOL    HW212039   2.278   1.878   8.298
 3903SOL     OW12040   3.657   1.066   8.321
 3903SOL    HW112041   3.595   1.051   8.245
 3903SOL    HW212042   3.605   1.077   8.406
 3904SOL     OW12043   3.089   1.550   8.954
 3904SOL    HW112044   3.095   1.473   9.018
 3904SOL    HW212045   3.037   1.524   8.874
 3905SOL     OW12046   2.183   0.943   7.690
 3905SOL    HW112047   2.265   0.982   7.648
 3905SOL    HW212048   2.156   0.861   7.641
 3906SOL     OW12049   3.320   0.735   8.176
 3906SOL    HW112050   3.315   0.670   8.251
 3906SOL    HW212051   3.400   0.794   8.189
 3907SOL     OW12052   2.323   1.266   9.175
 3907SOL    HW112053   2.273   1.267   9.089
 3907SOL    HW212054   2.260   1.248   9.251
 3908SOL     OW12055   2.973   1.776   7.685
 3908SOL    HW112056   2.913   1.714   7.735
 3908SOL    HW212057   3.004   1.732   7.600
 3909SOL     OW12058   2.064   0.285   8.946
 3909SOL    HW112059   1.984   0.345   8.933
 3909SOL    HW212060   2.054   0.236   9.032
 3910SOL     OW12061   3.494   1.377   7.529
 3910SOL    HW112062   3.462   1.471   7.519
 3910SOL    HW212063   3.418   1.314   7.517
 3911SOL     OW12064   2.326   1.743   7.771
 3911SOL    HW112065   2.359   1.782   7.857
 3911SOL    HW212066   2.402   1.736   7.706
 3912SOL     OW12067   3.262   0.107   7.874
 3912SOL    HW112068   3.238   0.070   7.784
 3912SOL    HW212069   3.361   0.123   7.878
 3913SOL     OW12070   2.111   1.785   8.689
 3913SOL    HW112071   2.168   1.720   8.739
 3913SOL    HW212072   2.095   1.752   8.596
 3914SOL     OW12073   2.802   1.698   8.352
 3914SOL    HW112074   2.882   1.641   8.373
 3914SOL    HW212075   2.753   1.658   8.275
 3915SOL     OW12076   2.244   0.700   7.928
 3915SOL    HW112077   2.289   0.610   7.925
 3915SOL    HW212078   2.150   0.689   7.961
 3916SOL     OW12079   3.409   0.222   9.177
 3916SOL    HW112080   3.404   0.259   9.269
 3916SOL    HW212081   3.337   0.153   9.165
 3917SOL     OW12082   2.476   0.122   7.565
 3917SOL    HW112083   2.574   0.100   7.572
 3917SOL    HW212084   2.445   0.105   7.472
 3918SOL     OW12085   2.643   0.264   9.197
 3918SOL    HW112086   2.710   0.203   9.240
 3918SOL    HW212087   2.570   0.283   9.262
 3919SOL     OW12088   2.750   1.514   8.643
 3919SOL    HW112089   2.727   1.489   8.549
 3919SOL    HW212090   2.811   1.445   8.682
 3920SOL     OW12091   3.213   0.590   8.881
 3920SOL    HW112092   3.241   0.547   8.966
 3920SOL    HW212093   3.238   0.686   8.882
 3921SOL     OW12094   2.665   1.402   8.372
 3921SOL    HW112095   2.755   1.416   8.330
 3921SOL    HW212096   2.594   1.404   8.301
 3922SOL     OW12097   2.784   0.503   8.347
 3922SOL    HW112098   2.759   0.494   8.251
 3922SOL    HW212099   2.832   0.421   8.378
 3923SOL     OW12100   2.401   0.064   7.960
 3923SOL    HW112101   2.320   0.065   8.018
 3923SOL    HW212102   2.404   0.147   7.905
 3924SOL     OW12103   3.296   1.188   7.489
 3924SOL    HW112104   3.328   1.112   7.546
 3924SOL    HW212105   3.204   1.215   7.519
 3925SOL     OW12106   2.159   0.035   7.619
 3925SOL    HW112107   2.208   0.119   7.598
 3925SOL    HW212108   2.221  -0.030   7.664
 3926SOL     OW12109   2.797   0.236   7.928
 3926SOL    HW112110   2.749   0.277   7.850
 3926SOL    HW212111   2.896   0.234   7.909
 3927SOL     OW12112   2.938   0.683   8.912
 3927SOL    HW112113   2.858   0.622   8.915
 3927SOL    HW212114   3.019   0.630   8.888
 3928SOL     OW12115   3.089   1.570   8.241
 3928SOL    HW112116   3.110   1.644   8.176
 3928SOL    HW212117   3.157   1.570   8.314
 3929SOL     OW12118   2.321   1.152   8.189
 3929SOL    HW112119   2.250   1.125   8.254
 3929SOL    HW212120   2.295   1.124   8.096
 3930SOL     OW12121   3.133   1.797   8.039
 3930SOL    HW112122   3.177   1.861   7.975
 3930SOL    HW212123   3.083   1.849   8.109
 3931SOL     OW12124   2.894   0.549   7.464
 3931SOL    HW112125   2.853   0.631   7.425
 3931SOL    HW212126   2.958   0.575   7.537
 3932SOL     OW12127   1.940   0.556   8.834
 3932SOL    HW112128   2.032   0.555   8.793
 3932SOL    HW212129   1.934   0.630   8.901
 3933SOL     OW12130   2.423   0.222   8.595
 3933SOL    HW112131   2.461   0.138   8.632
 3933SOL    HW212132   2.335   0.241   8.639
 3934SOL     OW12133   2.728   0.454   8.090
 3934SOL    HW112134   2.696   0.526   8.028
 3934SOL    HW212135   2.752   0.373   8.037
 3935SOL     OW12136   2.879   0.039   8.201
 3935SOL    HW112137   2.807   0.044   8.132
 3935SOL    HW212138   2.855  -0.030   8.270
 3936SOL     OW12139   3.291   1.173   8.315
 3936SOL    HW112140   3.236   1.089   8.308
 3936SOL    HW212141   3.317   1.202   8.223
 3937SOL     OW12142   3.328   0.590   8.440
 3937SOL    HW112143   3.298   0.495   8.447
 3937SOL    HW212144   3.401   0.606   8.506
 3938SOL     OW12145   3.719   0.833   7.825
 3938SOL    HW112146   3.761   0.769   7.889
 3938SOL    HW212147   3.681   0.782   7.747
 3939SOL     OW12148   2.350   1.385   7.622
 3939SOL    HW112149   2.263   1.370   7.669
 3939SOL    HW212150   2.333   1.411   7.527
 3940SOL     OW12151   3.526   1.280   8.105
 3940SOL    HW112152   3.625   1.288   8.119
 3940SOL    HW212153   3.481   1.364   8.136
 3941SOL     OW12154   3.252   0.575   7.526
 3941SOL    HW112155   3.198   0.554   7.607
 3941SOL    HW212156   3.343   0.534   7.535
 3942SOL     OW12157   2.389   0.256   7.776
 3942SOL    HW112158   2.416   0.197   7.701
 3942SOL    HW212159   2.389   0.351   7.745
 3943SOL     OW12160   3.616   1.223   9.036
 3943SOL    HW112161   3.707   1.184   9.023
 3943SOL    HW212162   3.624   1.319   9.060
 3944SOL     OW12163   2.926   1.347   8.788
 3944SOL    HW112164   2.846   1.324   8.843
 3944SOL    HW212165   3.009   1.321   8.837
 3945SOL     OW12166   3.454   1.629   9.073
 3945SOL    HW112167   3.481   1.663   8.983
 3945SOL    HW212168   3.533   1.591   9.119
 3946SOL     OW12169   2.973   1.195   8.548
 3946SOL    HW112170   2.933   1.239   8.629
 3946SOL    HW212171   2.932   1.232   8.465
 3947SOL     OW12172   3.500   1.099   8.527
 3947SOL    HW112173   3.505   1.180   8.586
 3947SOL    HW212174   3.414   1.101   8.476
 3948SOL     OW12175   2.777   0.089   8.850
 3948SOL    HW112176   2.802   0.069   8.755
 3948SOL    HW212177   2.849   0.145   8.892
 3949SOL     OW12178   2.842   1.116   9.167
 3949SOL    HW112179   2.743   1.122   9.177
 3949SOL    HW212180   2.865   1.036   9.111
 3950SOL     OW12181   2.567   1.050   7.816
 3950SOL    HW112182   2.553   1.057   7.915
 3950SOL    HW212183   2.651   0.999   7.798
 3951SOL     OW12184   2.272   0.813   8.699
 3951SOL    HW112185   2.358   0.825   8.749
 3951SOL    HW212186   2.230   0.726   8.726
 3952SOL     OW12187   3.136   0.386   8.710
 3952SOL    HW112188   3.157   0.460   8.774
 3952SOL    HW212189   3.047   0.403   8.667
 3953SOL     OW12190   1.926   1.564   8.779
 3953SOL    HW112191   1.880   1.646   8.745
 3953SOL    HW212192   2.024   1.583   8.788
 3954SOL     OW12193   2.229   1.100   7.949
 3954SOL    HW112194   2.222   1.183   7.893
 3954SOL    HW212195   2.233   1.020   7.889
 3955SOL     OW12196   2.428   0.537   8.313
 3955SOL    HW112197   2.440   0.603   8.239
 3955SOL    HW212198   2.474   0.571   8.396
 3956SOL     OW12199   3.114   1.348   7.836
 3956SOL    HW112200   3.164   1.425   7.876
 3956SOL    HW212201   3.019   1.350   7.868
 3957SOL     OW12202   3.134   1.445   8.590
 3957SOL    HW112203   3.181   1.458   8.677
 3957SOL    HW212204   3.068   1.371   8.599
 3958SOL     OW12205   3.444   0.639   7.920
 3958SOL    HW112206   3.413   0.700   7.993
 3958SOL    HW212207   3.494   0.691   7.851
 3959SOL     OW12208   2.216   1.510   8.777
 3959SOL    HW112209   2.195   1.466   8.690
 3959SOL    HW212210   2.313   1.536   8.780
 3960SOL     OW12211   2.264   0.751   9.046
 3960SOL    HW112212   2.332   0.806   8.999
 3960SOL    HW212213   2.304   0.663   9.073
 3961SOL     OW12214   3.449   0.779   9.118
 3961SOL    HW112215   3.357   0.817   9.113
 3961SOL    HW212216   3.509   0.826   9.053
 3962SOL     OW12217   2.875   0.105   9.218
 3962SOL    HW112218   2.881   0.190   9.166
 3962SOL    HW212219   2.907   0.029   9.161
 3963SOL     OW12220   2.366   0.050   9.188
 3963SOL    HW112221   2.324  -0.007   9.118
 3963SOL    HW212222   2.300   0.119   9.220
 3964SOL     OW12223   2.435   0.870   8.477
 3964SOL    HW112224   2.479   0.959   8.468
 3964SOL    HW212225   2.372   0.870   8.554
 3965SOL     OW12226   3.222   0.862   8.493
 3965SOL    HW112227   3.147   0.862   8.427
 3965SOL    HW212228   3.259   0.770   8.502
 3966SOL     OW12229   3.071   0.525   7.723
 3966SOL    HW112230   3.084   0.441   7.777
 3966SOL    HW212231   3.042   0.599   7.783
 3967SOL     OW12232   2.169   0.213   8.679
 3967SOL    HW112233   2.146   0.250   8.769
 3967SOL    HW212234   2.139   0.118   8.673
 3968SOL     OW12235   1.899   1.310   8.730
 3968SOL    HW112236   1.952   1.261   8.798
 3968SOL    HW212237   1.921   1.408   8.735
 3969SOL     OW12238   2.594   0.634   8.512
 3969SOL    HW112239   2.653   0.608   8.436
 3969SOL    HW212240   2.566   0.730   8.501
 3970SOL     OW12241   3.590   0.935   9.302
 3970SOL    HW112242   3.544   0.928   9.213
 3970SOL    HW212243   3.528   0.979   9.368
 3971SOL     OW12244   2.169   0.063   8.066
 3971SOL    HW112245   2.158   0.157   8.099
 3971SOL    HW212246   2.164   0.000   8.143
 3972SOL     OW12247   3.484   0.367   7.822
 3972SOL    HW112248   3.486   0.291   7.886
 3972SOL    HW212249   3.436   0.444   7.862
 3973SOL     OW12250   2.885   0.766   8.414
 3973SOL    HW112251   2.900   0.787   8.510
 3973SOL    HW212252   2.855   0.671   8.405
 3974SOL     OW12253   2.842   1.573   9.148
 3974SOL    HW112254   2.822   1.617   9.060
 3974SOL    HW212255   2.881   1.482   9.132
 3975SOL     OW12256   3.721   1.518   9.053
 3975SOL    HW112257   3.735   1.545   8.958
 3975SOL    HW212258   3.804   1.540   9.106
 3976SOL     OW12259   2.212   0.898   9.252
 3976SOL    HW112260   2.288   0.942   9.300
 3976SOL    HW212261   2.247   0.851   9.170
 3977SOL     OW12262   3.402   0.274   7.573
 3977SOL    HW112263   3.341   0.199   7.596
 3977SOL    HW212264   3.424   0.326   7.656
 3978SOL     OW12265   3.165   0.838   7.490
 3978SOL    HW112266   3.199   0.745   7.505
 3978SOL    HW212267   3.183   0.865   7.395
 3979SOL     OW12268   2.930   1.333   8.297
 3979SOL    HW112269   2.937   1.249   8.242
 3979SOL    HW212270   2.992   1.402   8.261
 3980SOL     OW12271   2.181   0.810   8.397
 3980SOL    HW112272   2.274   0.846   8.402
 3980SOL    HW212273   2.175   0.725   8.449
 3981SOL     OW12274   2.201   0.509   8.454
 3981SOL    HW112275   2.149   0.426   8.437
 3981SOL    HW212276   2.278   0.514   8.390
 3982SOL     OW12277   3.000   0.380   9.126
 3982SOL    HW112278   2.955   0.443   9.190
 3982SOL    HW212279   3.093   0.411   9.109
 3983SOL     OW12280   3.022   0.207   8.925
 3983SOL    HW112281   3.022   0.271   9.002
 3983SOL    HW212282   3.050   0.255   8.842
 3984SOL     OW12283   1.870   1.326   7.648
 3984SOL    HW112284   1.777   1.347   7.617
 3984SOL    HW212285   1.880   1.227   7.661
 3985SOL     OW12286   1.950   1.801   8.375
 3985SOL    HW112287   1.908   1.715   8.348
 3985SOL    HW212288   2.044   1.804   8.341
 3986SOL     OW12289   2.366   1.568   8.358
 3986SOL    HW112290   2.432   1.642   8.367
 3986SOL    HW212291   2.410   1.489   8.316
 3987SOL     OW12292   2.864   0.796   8.686
 3987SOL    HW112293   2.905   0.764   8.772
 3987SOL    HW212294   2.768   0.769   8.683
 3988SOL     OW12295   1.902   0.544   8.562
 3988SOL    HW112296   1.987   0.511   8.521
 3988SOL    HW212297   1.915   0.559   8.660
 3989SOL     OW12298   2.051   0.520   9.170
 3989SOL    HW112299   2.110   0.480   9.100
 3989SOL    HW212300   1.993   0.591   9.129
 3990SOL     OW12301   3.231   0.950   9.108
 3990SOL    HW112302   3.270   1.039   9.128
 3990SOL    HW212303   3.241   0.930   9.011
 3991SOL     OW12304   2.677   0.572   7.773
 3991SOL    HW112305   2.684   0.483   7.727
 3991SOL    HW212306   2.583   0.606   7.765
 3992SOL     OW12307   3.519   0.604   8.654
 3992SOL    HW112308   3.481   0.535   8.716
 3992SOL    HW212309   3.601   0.568   8.610
 3993SOL     OW12310   2.114   1.564   9.192
 3993SOL    HW112311   2.084   1.621   9.268
 3993SOL    HW212312   2.107   1.467   9.218
 3994SOL     OW12313   2.533   0.464   8.717
 3994SOL    HW112314   2.499   0.375   8.687
 3994SOL    HW212315   2.559   0.518   8.637
 3995SOL     OW12316   2.792   1.678   8.913
 3995SOL    HW112317   2.768   1.660   8.818
 3995SOL    HW212318   2.822   1.772   8.923
 3996SOL     OW12319   2.335   0.500   7.639
 3996SOL    HW112320   2.396   0.580   7.643
 3996SOL    HW212321   2.240   0.531   7.646
 3997SOL     OW12322   2.021   1.137   8.914
 3997SOL    HW112323   2.043   1.076   8.990
 3997SOL    HW212324   2.031   1.088   8.828
 3998SOL     OW12325   3.209   1.059   8.682
 3998SOL    HW112326   3.233   0.996   8.608
 3998SOL    HW212327   3.119   1.099   8.664
 3999SOL     OW12328   3.164   0.855   7.757
 3999SOL    HW112329   3.078   0.824   7.799
 3999SOL    HW212330   3.160   0.841   7.658
 4000SOL     OW12331   3.621   1.747   8.602
 4000SOL    HW112332   3.682   1.777   8.529
 4000SOL    HW212333   3.583   1.658   8.580
 4001SOL     OW12334   3.114   1.731   8.576
 4001SOL    HW112335   3.198   1.736   8.522
 4001SOL    HW212336   3.091   1.635   8.594
 4002SOL     OW12337   1.945   1.258   8.470
 4002SOL    HW112338   1.940   1.257   8.570
 4002SOL    HW212339   1.862   1.217   8.432
 4003SOL     OW12340   2.550   1.662   9.164
 4003SOL    HW112341   2.494   1.743   9.173
 4003SOL    HW212342   2.602   1.666   9.078
 4004SOL     OW12343   3.588   0.135   7.971
 4004SOL    HW112344   3.661   0.118   7.904
 4004SOL    HW212345   3.557   0.048   8.009
 4005SOL     OW12346   3.250   1.573   7.925
 4005SOL    HW112347   3.317   1.585   7.851
 4005SOL    HW212348   3.210   1.662   7.948
 4006SOL     OW12349   1.992   1.794   9.299
 4006SOL    HW112350   1.951   1.720   9.352
 4006SOL    HW212351   2.056   1.845   9.357
 4007SOL     OW12352   3.142   0.927   8.120
 4007SOL    HW112353   3.202   0.846   8.122
 4007SOL    HW212354   3.182   0.996   8.060
 4008SOL     OW12355   2.692   1.273   8.870
 4008SOL    HW112356   2.687   1.306   8.965
 4008SOL    HW212357   2.606   1.292   8.824
 4009SOL     OW12358   2.534   1.616   7.602
 4009SOL    HW112359   2.543   1.626   7.503
 4009SOL    HW212360   2.494   1.527   7.623
 4010SOL     OW12361   3.512   1.720   8.842
 4010SOL    HW112362   3.565   1.730   8.758
 4010SOL    HW212363   3.485   1.810   8.876
 4011SOL     OW12364   3.703   0.175   8.411
 4011SOL    HW112365   3.742   0.090   8.375
 4011SOL    HW212366   3.605   0.177   8.392
 4012SOL     OW12367   2.125   0.326   8.168
 4012SOL    HW112368   2.046   0.377   8.134
 4012SOL    HW212369   2.116   0.311   8.266
 4013SOL     OW12370   3.056   1.612   7.479
 4013SOL    HW112371   3.062   1.519   7.516
 4013SOL    HW212372   2.997   1.612   7.399
 4014SOL     OW12373   2.684   1.002   8.820
 4014SOL    HW112374   2.724   1.001   8.728
 4014SOL    HW212375   2.694   1.094   8.860
 4015SOL     OW12376   2.778   0.910   7.739
 4015SOL    HW112377   2.841   0.948   7.671
 4015SOL    HW212378   2.818   0.827   7.778
 4016SOL     OW12379   3.366   1.607   7.492
 4016SOL    HW112380   3.274   1.644   7.499
 4016SOL    HW212381   3.404   1.627   7.402
 4017SOL     OW12382   2.234   1.288   8.938
 4017SOL    HW112383   2.221   1.381   8.904
 4017SOL    HW212384   2.150   1.236   8.925
 4018SOL     OW12385   3.476   1.292   8.737
 4018SOL    HW112386   3.536   1.295   8.817
 4018SOL    HW212387   3.401   1.356   8.750
 4019SOL     OW12388   2.901   1.098   8.144
 4019SOL    HW112389   2.831   1.051   8.198
 4019SOL    HW212390   2.960   1.030   8.101
 4020SOL     OW12391   2.876   0.236   8.419
 4020SOL    HW112392   2.868   0.200   8.326
 4020SOL    HW212393   2.874   0.160   8.484
 4021SOL     OW12394   2.452   1.487   7.939
 4021SOL    HW112395   2.494   1.429   7.869
 4021SOL    HW212396   2.408   1.566   7.895
 4022SOL     OW12397   3.571   0.385   8.829
 4022SOL    HW112398   3.644   0.454   8.833
 4022SOL    HW212399   3.599   0.310   8.770
 4023SOL     OW12400   2.117   1.348   7.738
 4023SOL    HW112401   2.021   1.349   7.711
 4023SOL    HW212402   2.129   1.401   7.822
 4024SOL     OW12403   1.967   1.013   9.174
 4024SOL    HW112404   1.890   0.980   9.228
 4024SOL    HW212405   2.052   0.983   9.216
 4025SOL     OW12406   2.534   0.203   8.937
 4025SOL    HW112407   2.624   0.187   8.897
 4025SOL    HW212408   2.542   0.208   9.036
 4026SOL     OW12409   1.937   0.345   7.481
 4026SOL    HW112410   1.845   0.317   7.452
 4026SOL    HW212411   1.968   0.422   7.425
 4027SOL     OW12412   3.302   0.856   8.846
 4027SOL    HW112413   3.245   0.908   8.783
 4027SOL    HW212414   3.398   0.868   8.822
 4028SOL     OW12415   1.934   0.166   7.766
 4028SOL    HW112416   1.917   0.249   7.712
 4028SOL    HW212417   2.024   0.129   7.744
 4029SOL     OW12418   3.045   1.335   7.567
 4029SOL    HW112419   2.946   1.324   7.569
 4029SOL    HW212420   3.079   1.350   7.660
 4030SOL     OW12421   2.475   0.842   8.879
 4030SOL    HW112422   2.531   0.923   8.862
 4030SOL    HW212423   2.534   0.762   8.882
 4031SOL     OW12424   3.355   1.767   8.407
 4031SOL    HW112425   3.388   1.831   8.338
 4031SOL    HW212426   3.421   1.761   8.482
 4032SOL     OW12427   2.578   0.565   9.156
 4032SOL    HW112428   2.597   0.630   9.230
 4032SOL    HW212429   2.638   0.485   9.165
 4033SOL     OW12430   3.312   1.220   9.081
 4033SOL    HW112431   3.303   1.210   9.180
 4033SOL    HW212432   3.408   1.213   9.055
 4034SOL     OW12433   2.252   1.741   9.008
 4034SOL    HW112434   2.161   1.782   9.006
 4034SOL    HW212435   2.245   1.647   9.040
 4035SOL     OW12436   3.536   0.883   8.702
 4035SOL    HW112437   3.509   0.794   8.665
 4035SOL    HW212438   3.537   0.951   8.629
 4036SOL     OW12439   3.087   0.325   7.897
 4036SOL    HW112440   3.152   0.251   7.886
 4036SOL    HW212441   3.107   0.375   7.981
 4037SOL     OW12442   2.456   0.745   8.100
 4037SOL    HW112443   2.506   0.830   8.081
 4037SOL    HW212444   2.368   0.747   8.052
 4038SOL     OW12445   3.639   0.342   9.090
 4038SOL    HW112446   3.622   0.373   8.996
 4038SOL    HW212447   3.555   0.305   9.128
 4039SOL     OW12448   3.592   0.934   8.965
 4039SOL    HW112449   3.630   1.025   8.980
 4039SOL    HW212450   3.584   0.917   8.866
 4040SOL     OW12451   2.721   1.374   7.464
 4040SOL    HW112452   2.675   1.389   7.552
 4040SOL    HW212453   2.765   1.459   7.434
 4041SOL     OW12454   2.523   1.790   8.401
 4041SOL    HW112455   2.477   1.878   8.388
 4041SOL    HW212456   2.622   1.802   8.394
 4042SOL     OW12457   2.721   0.956   8.309
 4042SOL    HW112458   2.775   0.887   8.357
 4042SOL    HW212459   2.689   1.025   8.375
 4043SOL     OW12460   2.945   0.984   7.535
 4043SOL    HW112461   2.922   1.037   7.453
 4043SOL    HW212462   3.026   0.928   7.516
 4044SOL     OW12463   3.723   1.569   8.299
 4044SOL    HW112464   3.652   1.557   8.229
 4044SOL    HW212465   3.724   1.490   8.359
 4045SOL     OW12466   2.083   1.314   9.292
 4045SOL    HW112467   2.018   1.241   9.271
 4045SOL    HW212468   2.087   1.328   9.390
 4046SOL     OW12469   1.941   1.240   8.101
 4046SOL    HW112470   1.940   1.193   8.189
 4046SOL    HW212471   2.023   1.212   8.050
 4047SOL     OW12472   2.534   1.391   9.072
 4047SOL    HW112473   2.456   1.341   9.110
 4047SOL    HW212474   2.531   1.486   9.103
 4048SOL     OW12475   3.686   0.192   8.675
 4048SOL    HW112476   3.682   0.102   8.719
 4048SOL    HW212477   3.689   0.181   8.576
 4049SOL     OW12478   2.290   0.424   7.968
 4049SOL    HW112479   2.320   0.352   7.906
 4049SOL    HW212480   2.251   0.384   8.051
 4050SOL     OW12481   3.567   1.487   8.552
 4050SOL    HW112482   3.474   1.462   8.525
 4050SOL    HW212483   3.593   1.437   8.634
 4051SOL     OW12484   2.179   0.547   8.728
 4051SOL    HW112485   2.217   0.488   8.800
 4051SOL    HW212486   2.219   0.521   8.640
 4052SOL     OW12487   2.674   1.586   8.135
 4052SOL    HW112488   2.706   1.596   8.041
 4052SOL    HW212489   2.595   1.524   8.137
 4053SOL     OW12490   3.286   0.214   8.560
 4053SOL    HW112491   3.338   0.149   8.615
 4053SOL    HW212492   3.237   0.277   8.621
 4054SOL     OW12493   2.863   0.034   8.602
 4054SOL    HW112494   2.800  -0.038   8.571
 4054SOL    HW212495   2.956  -0.002   8.602
 4055SOL     OW12496   2.632   1.330   7.749
 4055SOL    HW112497   2.586   1.243   7.766
 4055SOL    HW212498   2.723   1.327   7.790
 4056SOL     OW12499   2.480   1.567   8.732
 4056SOL    HW112500   2.475   1.649   8.789
 4056SOL    HW212501   2.569   1.564   8.687
 4057SOL     OW12502   3.214   0.052   7.616
 4057SOL    HW112503   3.249   0.011   7.532
 4057SOL    HW212504   3.124   0.014   7.636
 4058SOL     OW12505   3.162   0.453   8.139
 4058SOL    HW112506   3.103   0.533   8.143
 4058SOL    HW212507   3.177   0.418   8.232
 4059SOL     OW12508   3.455   0.221   8.330
 4059SOL    HW112509   3.371   0.220   8.384
 4059SOL    HW212510   3.457   0.304   8.274
 4060SOL     OW12511   1.901   1.077   7.748
 4060SOL    HW112512   2.000   1.066   7.739
 4060SOL    HW212513   1.861   0.991   7.780
 4061SOL     OW12514   2.737   1.646   7.785
 4061SOL    HW112515   2.660   1.611   7.731
 4061SOL    HW212516   2.705   1.717   7.847
 4062SOL     OW12517   2.092   0.628   9.423
 4062SOL    HW112518   1.999   0.626   9.460
 4062SOL    HW212519   2.093   0.589   9.331
 4063SOL     OW12520   2.087   0.275  10.306
 4063SOL    HW112521   2.122   0.258  10.398
 4063SOL    HW212522   1.999   0.230  10.294
 4064SOL     OW12523   1.881   0.368   9.957
 4064SOL    HW112524   1.799   0.411   9.996
 4064SOL    HW212525   1.853   0.295   9.894
 4065SOL     OW12526   2.431   1.275  10.475
 4065SOL    HW112527   2.338   1.268  10.438
 4065SOL    HW212528   2.442   1.364  10.519
 4066SOL     OW12529   3.417   1.511  10.013
 4066SOL    HW112530   3.360   1.495  10.094
 4066SOL    HW212531   3.358   1.521   9.933
 4067SOL     OW12532   2.997   0.703  10.027
 4067SOL    HW112533   3.054   0.781  10.002
 4067SOL    HW212534   2.937   0.729  10.103
 4068SOL     OW12535   3.617   0.607   9.541
 4068SOL    HW112536   3.605   0.594   9.442
 4068SOL    HW212537   3.587   0.526   9.590
 4069SOL     OW12538   2.630   1.144  10.333
 4069SOL    HW112539   2.552   1.161  10.393
 4069SOL    HW212540   2.664   1.231  10.297
 4070SOL     OW12541   2.547   1.012   9.975
 4070SOL    HW112542   2.616   0.996  10.045
 4070SOL    HW212543   2.474   1.069  10.013
 4071SOL     OW12544   2.197   1.435  10.371
 4071SOL    HW112545   2.119   1.404  10.318
 4071SOL    HW212546   2.255   1.493  10.314
 4072SOL     OW12547   3.322   1.505  10.649
 4072SOL    HW112548   3.346   1.599  10.675
 4072SOL    HW212549   3.306   1.451  10.731
 4073SOL     OW12550   2.300   0.392  10.809
 4073SOL    HW112551   2.382   0.336  10.818
 4073SOL    HW212552   2.219   0.334  10.813
 4074SOL     OW12553   3.465   0.447  10.047
 4074SOL    HW112554   3.391   0.493   9.997
 4074SOL    HW212555   3.516   0.515  10.100
 4075SOL     OW12556   2.093   1.713   9.793
 4075SOL    HW112557   2.127   1.790   9.847
 4075SOL    HW212558   2.137   1.713   9.703
 4076SOL     OW12559   2.092   1.434   9.848
 4076SOL    HW112560   2.066   1.530   9.848
 4076SOL    HW212561   2.021   1.380   9.893
 4077SOL     OW12562   2.102   1.091  10.196
 4077SOL    HW112563   2.116   1.007  10.248
 4077SOL    HW212564   2.047   1.155  10.251
 4078SOL     OW12565   2.482   1.786  10.749
 4078SOL    HW112566   2.390   1.769  10.784
 4078SOL    HW212567   2.510   1.878  10.775
 4079SOL     OW12568   2.468   0.964   9.433
 4079SOL    HW112569   2.475   1.048   9.379
 4079SOL    HW212570   2.514   0.977   9.521
 4080SOL     OW12571   3.456   0.114  10.790
 4080SOL    HW112572   3.438   0.181  10.718
 4080SOL    HW212573   3.453   0.160  10.879
 4081SOL     OW12574   1.984   0.643   9.873
 4081SOL    HW112575   1.939   0.555   9.890
 4081SOL    HW212576   1.983   0.697   9.957
 4082SOL     OW12577   3.704   1.767   9.669
 4082SOL    HW112578   3.758   1.738   9.749
 4082SOL    HW212579   3.734   1.857   9.640
 4083SOL     OW12580   1.889   1.596   9.427
 4083SOL    HW112581   1.870   1.500   9.448
 4083SOL    HW212582   1.856   1.654   9.502
 4084SOL     OW12583   3.551   0.922   9.922
 4084SOL    HW112584   3.646   0.893   9.930
 4084SOL    HW212585   3.543   0.987   9.847
 4085SOL     OW12586   3.503   1.108   9.742
 4085SOL    HW112587   3.589   1.110   9.690
 4085SOL    HW212588   3.517   1.155   9.830
 4086SOL     OW12589   2.475   1.365  10.036
 4086SOL    HW112590   2.426   1.278  10.045
 4086SOL    HW212591   2.452   1.408   9.949
 4087SOL     OW12592   3.155   1.228  10.733
 4087SOL    HW112593   3.192   1.155  10.675
 4087SOL    HW212594   3.207   1.233  10.818
 4088SOL     OW12595   2.671   0.004   9.812
 4088SOL    HW112596   2.711   0.095   9.803
 4088SOL    HW212597   2.571   0.012   9.818
 4089SOL     OW12598   2.059   0.976  10.574
 4089SOL    HW112599   2.148   0.931  10.560
 4089SOL    HW212600   1.986   0.911  10.555
 4090SOL     OW12601   3.387   0.999   9.500
 4090SOL    HW112602   3.324   0.923   9.513
 4090SOL    HW212603   3.435   1.017   9.586
 4091SOL     OW12604   3.328   1.417  10.263
 4091SOL    HW112605   3.269   1.423  10.343
 4091SOL    HW212606   3.313   1.329  10.217
 4092SOL     OW12607   3.529   1.714   9.882
 4092SOL    HW112608   3.488   1.691   9.794
 4092SOL    HW212609   3.511   1.640   9.947
 4093SOL     OW12610   2.460   0.729   9.580
 4093SOL    HW112611   2.484   0.798   9.512
 4093SOL    HW212612   2.382   0.762   9.634
 4094SOL     OW12613   3.143   0.345  10.254
 4094SOL    HW112614   3.057   0.295  10.241
 4094SOL    HW212615   3.205   0.291  10.310
 4095SOL     OW12616   3.438   1.662   9.617
 4095SOL    HW112617   3.527   1.708   9.620
 4095SOL    HW212618   3.417   1.638   9.522
 4096SOL     OW12619   2.669   0.605  10.775
 4096SOL    HW112620   2.622   0.602  10.864
 4096SOL    HW212621   2.618   0.550  10.709
 4097SOL     OW12622   2.835   0.890  10.882
 4097SOL    HW112623   2.881   0.806  10.853
 4097SOL    HW212624   2.779   0.924  10.807
 4098SOL     OW12625   2.853   0.410  10.552
 4098SOL    HW112626   2.776   0.444  10.606
 4098SOL    HW212627   2.819   0.359  10.473
 4099SOL     OW12628   2.903   0.701   9.739
 4099SOL    HW112629   2.929   0.697   9.835
 4099SOL    HW212630   2.818   0.650   9.725
 4100SOL     OW12631   1.938   0.811  10.099
 4100SOL    HW112632   2.037   0.799  10.108
 4100SOL    HW212633   1.914   0.906  10.120
 4101SOL     OW12634   1.992   1.821  10.881
 4101SOL    HW112635   1.982   1.806  10.980
 4101SOL    HW212636   1.906   1.857  10.845
 4102SOL     OW12637   2.727   0.348   9.505
 4102SOL    HW112638   2.786   0.411   9.456
 4102SOL    HW212639   2.746   0.254   9.476
 4103SOL     OW12640   3.224   1.144   9.855
 4103SOL    HW112641   3.307   1.115   9.807
 4103SOL    HW212642   3.175   1.211   9.799
 4104SOL     OW12643   2.412   0.196  10.195
 4104SOL    HW112644   2.407   0.191  10.295
 4104SOL    HW212645   2.414   0.292  10.166
 4105SOL     OW12646   2.870   1.456   9.787
 4105SOL    HW112647   2.824   1.528   9.735
 4105SOL    HW212648   2.866   1.476   9.885
 4106SOL     OW12649   2.213   1.801  10.163
 4106SOL    HW112650   2.263   1.715  10.169
 4106SOL    HW212651   2.278   1.878  10.160
 4107SOL     OW12652   3.657   1.066  10.183
 4107SOL    HW112653   3.595   1.051  10.107
 4107SOL    HW212654   3.605   1.077  10.268
 4108SOL     OW12655   2.183   0.943   9.552
 4108SOL    HW112656   2.265   0.982   9.510
 4108SOL    HW212657   2.156   0.861   9.503
 4109SOL     OW12658   3.320   0.735  10.038
 4109SOL    HW112659   3.315   0.670  10.113
 4109SOL    HW212660   3.400   0.794  10.051
 4110SOL     OW12661   2.973   1.776   9.547
 4110SOL    HW112662   2.913   1.714   9.597
 4110SOL    HW212663   3.004   1.732   9.462
 4111SOL     OW12664   2.064   0.285  10.808
 4111SOL    HW112665   1.984   0.345  10.795
 4111SOL    HW212666   2.054   0.236  10.894
 4112SOL     OW12667   3.494   1.377   9.391
 4112SOL    HW112668   3.462   1.471   9.381
 4112SOL    HW212669   3.418   1.314   9.379
 4113SOL     OW12670   2.326   1.743   9.633
 4113SOL    HW112671   2.359   1.782   9.719
 4113SOL    HW212672   2.402   1.736   9.568
 4114SOL     OW12673   3.262   0.107   9.736
 4114SOL    HW112674   3.238   0.070   9.646
 4114SOL    HW212675   3.361   0.123   9.740
 4115SOL     OW12676   2.111   1.785  10.551
 4115SOL    HW112677   2.168   1.720  10.601
 4115SOL    HW212678   2.095   1.752  10.458
 4116SOL     OW12679   2.802   1.698  10.214
 4116SOL    HW112680   2.882   1.641  10.235
 4116SOL    HW212681   2.753   1.658  10.137
 4117SOL     OW12682   2.244   0.700   9.790
 4117SOL    HW112683   2.289   0.610   9.787
 4117SOL    HW212684   2.150   0.689   9.823
 4118SOL     OW12685   2.476   0.122   9.427
 4118SOL    HW112686   2.574   0.100   9.434
 4118SOL    HW212687   2.445   0.105   9.334
 4119SOL     OW12688   2.750   1.514  10.505
 4119SOL    HW112689   2.727   1.489  10.411
 4119SOL    HW212690   2.811   1.445  10.544
 4120SOL     OW12691   3.213   0.590  10.743
 4120SOL    HW112692   3.241   0.547  10.828
 4120SOL    HW212693   3.238   0.686  10.744
 4121SOL     OW12694   2.665   1.402  10.234
 4121SOL    HW112695   2.755   1.416  10.192
 4121SOL    HW212696   2.594   1.404  10.163
 4122SOL     OW12697   2.784   0.503  10.209
 4122SOL    HW112698   2.759   0.494  10.113
 4122SOL    HW212699   2.832   0.421  10.240
 4123SOL     OW12700   2.401   0.064   9.822
 4123SOL    HW112701   2.320   0.065   9.880
 4123SOL    HW212702   2.404   0.147   9.767
 4124SOL     OW12703   3.296   1.188   9.351
 4124SOL    HW112704   3.328   1.112   9.408
 4124SOL    HW212705   3.204   1.215   9.381
 4125SOL     OW12706   2.159   0.035   9.481
 4125SOL    HW112707   2.208   0.119   9.460
 4125SOL    HW212708   2.221  -0.030   9.526
 4126SOL     OW12709   2.797   0.236   9.790
 4126SOL    HW112710   2.749   0.277   9.712
 4126SOL    HW212711   2.896   0.234   9.771
 4127SOL     OW12712   3.089   1.570  10.103
 4127SOL    HW112713   3.110   1.644  10.038
 4127SOL    HW212714   3.157   1.570  10.176
 4128SOL     OW12715   2.321   1.152  10.051
 4128SOL    HW112716   2.250   1.125  10.116
 4128SOL    HW212717   2.295   1.124   9.958
 4129SOL     OW12718   3.133   1.797   9.901
 4129SOL    HW112719   3.177   1.861   9.837
 4129SOL    HW212720   3.083   1.849   9.971
 4130SOL     OW12721   2.894   0.549   9.326
 4130SOL    HW112722   2.853   0.631   9.287
 4130SOL    HW212723   2.958   0.575   9.399
 4131SOL     OW12724   1.940   0.556  10.696
 4131SOL    HW112725   2.032   0.555  10.655
 4131SOL    HW212726   1.934   0.630  10.763
 4132SOL     OW12727   2.423   0.222  10.457
 4132SOL    HW112728   2.461   0.138  10.494
 4132SOL    HW212729   2.335   0.241  10.501
 4133SOL     OW12730   2.728   0.454   9.952
 4133SOL    HW112731   2.696   0.526   9.890
 4133SOL    HW212732   2.752   0.373   9.899
 4134SOL     OW12733   2.879   0.039  10.063
 4134SOL    HW112734   2.807   0.044   9.994
 4134SOL    HW212735   2.855  -0.030  10.132
 4135SOL     OW12736   3.291   1.173  10.177
 4135SOL    HW112737   3.236   1.089  10.170
 4135SOL    HW212738   3.317   1.202  10.085
 4136SOL     OW12739   3.328   0.590  10.302
 4136SOL    HW112740   3.298   0.495  10.309
 4136SOL    HW212741   3.401   0.606  10.368
 4137SOL     OW12742   3.719   0.833   9.687
 4137SOL    HW112743   3.761   0.769   9.751
 4137SOL    HW212744   3.681   0.782   9.609
 4138SOL     OW12745   2.350   1.385   9.484
 4138SOL    HW112746   2.263   1.370   9.531
 4138SOL    HW212747   2.333   1.411   9.389
 4139SOL     OW12748   3.526   1.280   9.967
 4139SOL    HW112749   3.625   1.288   9.981
 4139SOL    HW212750   3.481   1.364   9.998
 4140SOL     OW12751   3.252   0.575   9.388
 4140SOL    HW112752   3.198   0.554   9.469
 4140SOL    HW212753   3.343   0.534   9.397
 4141SOL     OW12754   2.389   0.256   9.638
 4141SOL    HW112755   2.416   0.197   9.563
 4141SOL    HW212756   2.389   0.351   9.607
 4142SOL     OW12757   3.616   1.223  10.898
 4142SOL    HW112758   3.707   1.184  10.885
 4142SOL    HW212759   3.624   1.319  10.922
 4143SOL     OW12760   2.926   1.347  10.650
 4143SOL    HW112761   2.846   1.324  10.705
 4143SOL    HW212762   3.009   1.321  10.699
 4144SOL     OW12763   2.973   1.195  10.410
 4144SOL    HW112764   2.933   1.239  10.491
 4144SOL    HW212765   2.932   1.232  10.327
 4145SOL     OW12766   3.500   1.099  10.389
 4145SOL    HW112767   3.505   1.180  10.448
 4145SOL    HW212768   3.414   1.101  10.338
 4146SOL     OW12769   2.777   0.089  10.712
 4146SOL    HW112770   2.802   0.069  10.617
 4146SOL    HW212771   2.849   0.145  10.754
 4147SOL     OW12772   2.567   1.050   9.678
 4147SOL    HW112773   2.553   1.057   9.777
 4147SOL    HW212774   2.651   0.999   9.660
 4148SOL     OW12775   2.272   0.813  10.561
 4148SOL    HW112776   2.358   0.825  10.611
 4148SOL    HW212777   2.230   0.726  10.588
 4149SOL     OW12778   3.136   0.386  10.572
 4149SOL    HW112779   3.157   0.460  10.636
 4149SOL    HW212780   3.047   0.403  10.529
 4150SOL     OW12781   1.926   1.564  10.641
 4150SOL    HW112782   1.880   1.646  10.607
 4150SOL    HW212783   2.024   1.583  10.650
 4151SOL     OW12784   2.229   1.100   9.811
 4151SOL    HW112785   2.222   1.183   9.755
 4151SOL    HW212786   2.233   1.020   9.751
 4152SOL     OW12787   2.428   0.537  10.175
 4152SOL    HW112788   2.440   0.603  10.101
 4152SOL    HW212789   2.474   0.571  10.258
 4153SOL     OW12790   3.114   1.348   9.698
 4153SOL    HW112791   3.164   1.425   9.738
 4153SOL    HW212792   3.019   1.350   9.730
 4154SOL     OW12793   3.134   1.445  10.452
 4154SOL    HW112794   3.181   1.458  10.539
 4154SOL    HW212795   3.068   1.371  10.461
 4155SOL     OW12796   3.444   0.639   9.782
 4155SOL    HW112797   3.413   0.700   9.855
 4155SOL    HW212798   3.494   0.691   9.713
 4156SOL     OW12799   2.216   1.510  10.639
 4156SOL    HW112800   2.195   1.466  10.552
 4156SOL    HW212801   2.313   1.536  10.642
 4157SOL     OW12802   2.264   0.751  10.908
 4157SOL    HW112803   2.332   0.806  10.861
 4157SOL    HW212804   2.304   0.663  10.935
 4158SOL     OW12805   3.449   0.779  10.980
 4158SOL    HW112806   3.357   0.817  10.975
 4158SOL    HW212807   3.509   0.826  10.915
 4159SOL     OW12808   2.435   0.870  10.339
 4159SOL    HW112809   2.479   0.959  10.330
 4159SOL    HW212810   2.372   0.870  10.416
 4160SOL     OW12811   3.222   0.862  10.355
 4160SOL    HW112812   3.147   0.862  10.289
 4160SOL    HW212813   3.259   0.770  10.364
 4161SOL     OW12814   3.071   0.525   9.585
 4161SOL    HW112815   3.084   0.441   9.639
 4161SOL    HW212816   3.042   0.599   9.645
 4162SOL     OW12817   2.169   0.213  10.541
 4162SOL    HW112818   2.146   0.250  10.631
 4162SOL    HW212819   2.139   0.118  10.535
 4163SOL     OW12820   1.899   1.310  10.592
 4163SOL    HW112821   1.952   1.261  10.660
 4163SOL    HW212822   1.921   1.408  10.597
 4164SOL     OW12823   2.594   0.634  10.374
 4164SOL    HW112824   2.653   0.608  10.298
 4164SOL    HW212825   2.566   0.730  10.363
 4165SOL     OW12826   2.169   0.063   9.928
 4165SOL    HW112827   2.158   0.157   9.961
 4165SOL    HW212828   2.164   0.000  10.005
 4166SOL     OW12829   3.484   0.367   9.684
 4166SOL    HW112830   3.486   0.291   9.748
 4166SOL    HW212831   3.436   0.444   9.724
 4167SOL     OW12832   2.885   0.766  10.276
 4167SOL    HW112833   2.900   0.787  10.372
 4167SOL    HW212834   2.855   0.671  10.267
 4168SOL     OW12835   2.842   1.573  11.010
 4168SOL    HW112836   2.822   1.617  10.922
 4168SOL    HW212837   2.881   1.482  10.994
 4169SOL     OW12838   3.402   0.274   9.435
 4169SOL    HW112839   3.341   0.199   9.458
 4169SOL    HW212840   3.424   0.326   9.518
 4170SOL     OW12841   3.165   0.838   9.352
 4170SOL    HW112842   3.199   0.745   9.367
 4170SOL    HW212843   3.183   0.865   9.257
 4171SOL     OW12844   2.930   1.333  10.159
 4171SOL    HW112845   2.937   1.249  10.104
 4171SOL    HW212846   2.992   1.402  10.123
 4172SOL     OW12847   2.181   0.810  10.259
 4172SOL    HW112848   2.274   0.846  10.264
 4172SOL    HW212849   2.175   0.725  10.311
 4173SOL     OW12850   2.201   0.509  10.316
 4173SOL    HW112851   2.149   0.426  10.299
 4173SOL    HW212852   2.278   0.514  10.252
 4174SOL     OW12853   3.000   0.380  10.988
 4174SOL    HW112854   2.955   0.443  11.052
 4174SOL    HW212855   3.093   0.411  10.971
 4175SOL     OW12856   3.022   0.207  10.787
 4175SOL    HW112857   3.022   0.271  10.864
 4175SOL    HW212858   3.050   0.255  10.704
 4176SOL     OW12859   1.870   1.326   9.510
 4176SOL    HW112860   1.777   1.347   9.479
 4176SOL    HW212861   1.880   1.227   9.523
 4177SOL     OW12862   1.950   1.801  10.237
 4177SOL    HW112863   1.908   1.715  10.210
 4177SOL    HW212864   2.044   1.804  10.203
 4178SOL     OW12865   2.366   1.568  10.220
 4178SOL    HW112866   2.432   1.642  10.229
 4178SOL    HW212867   2.410   1.489  10.178
 4179SOL     OW12868   2.864   0.796  10.548
 4179SOL    HW112869   2.905   0.764  10.634
 4179SOL    HW212870   2.768   0.769  10.545
 4180SOL     OW12871   1.902   0.544  10.424
 4180SOL    HW112872   1.987   0.511  10.383
 4180SOL    HW212873   1.915   0.559  10.522
 4181SOL     OW12874   2.677   0.572   9.635
 4181SOL    HW112875   2.684   0.483   9.589
 4181SOL    HW212876   2.583   0.606   9.627
 4182SOL     OW12877   3.519   0.604  10.516
 4182SOL    HW112878   3.481   0.535  10.578
 4182SOL    HW212879   3.601   0.568  10.472
 4183SOL     OW12880   2.114   1.564  11.054
 4183SOL    HW112881   2.084   1.621  11.130
 4183SOL    HW212882   2.107   1.467  11.080
 4184SOL     OW12883   2.533   0.464  10.579
 4184SOL    HW112884   2.499   0.375  10.549
 4184SOL    HW212885   2.559   0.518  10.499
 4185SOL     OW12886   2.792   1.678  10.775
 4185SOL    HW112887   2.768   1.660  10.680
 4185SOL    HW212888   2.822   1.772  10.785
 4186SOL     OW12889   2.335   0.500   9.501
 4186SOL    HW112890   2.396   0.580   9.505
 4186SOL    HW212891   2.240   0.531   9.508
 4187SOL     OW12892   2.021   1.137  10.776
 4187SOL    HW112893   2.043   1.076  10.852
 4187SOL    HW212894   2.031   1.088  10.690
 4188SOL     OW12895   3.209   1.059  10.544
 4188SOL    HW112896   3.233   0.996  10.470
 4188SOL    HW212897   3.119   1.099  10.526
 4189SOL     OW12898   3.164   0.855   9.619
 4189SOL    HW112899   3.078   0.824   9.661
 4189SOL    HW212900   3.160   0.841   9.520
 4190SOL     OW12901   3.621   1.747  10.464
 4190SOL    HW112902   3.682   1.777  10.391
 4190SOL    HW212903   3.583   1.658  10.442
 4191SOL     OW12904   3.114   1.731  10.438
 4191SOL    HW112905   3.198   1.736  10.384
 4191SOL    HW212906   3.091   1.635  10.456
 4192SOL     OW12907   1.945   1.258  10.332
 4192SOL    HW112908   1.940   1.257  10.432
 4192SOL    HW212909   1.862   1.217  10.294
 4193SOL     OW12910   3.588   0.135   9.833
 4193SOL    HW112911   3.661   0.118   9.766
 4193SOL    HW212912   3.557   0.048   9.871
 4194SOL     OW12913   3.250   1.573   9.787
 4194SOL    HW112914   3.317   1.585   9.713
 4194SOL    HW212915   3.210   1.662   9.810
 4195SOL     OW12916   3.142   0.927   9.982
 4195SOL    HW112917   3.202   0.846   9.984
 4195SOL    HW212918   3.182   0.996   9.922
 4196SOL     OW12919   2.534   1.616   9.464
 4196SOL    HW112920   2.543   1.626   9.365
 4196SOL    HW212921   2.494   1.527   9.485
 4197SOL     OW12922   3.512   1.720  10.704
 4197SOL    HW112923   3.565   1.730  10.620
 4197SOL    HW212924   3.485   1.810  10.738
 4198SOL     OW12925   3.703   0.175  10.273
 4198SOL    HW112926   3.742   0.090  10.237
 4198SOL    HW212927   3.605   0.177  10.254
 4199SOL     OW12928   2.125   0.326  10.030
 4199SOL    HW112929   2.046   0.377   9.996
 4199SOL    HW212930   2.116   0.311  10.128
 4200SOL     OW12931   3.056   1.612   9.341
 4200SOL    HW112932   3.062   1.519   9.378
 4200SOL    HW212933   2.997   1.612   9.261
 4201SOL     OW12934   2.684   1.002  10.682
 4201SOL    HW112935   2.724   1.001  10.590
 4201SOL    HW212936   2.694   1.094  10.722
 4202SOL     OW12937   2.778   0.910   9.601
 4202SOL    HW112938   2.841   0.948   9.533
 4202SOL    HW212939   2.818   0.827   9.640
 4203SOL     OW12940   3.366   1.607   9.354
 4203SOL    HW112941   3.274   1.644   9.361
 4203SOL    HW212942   3.404   1.627   9.264
 4204SOL     OW12943   2.234   1.288  10.800
 4204SOL    HW112944   2.221   1.381  10.766
 4204SOL    HW212945   2.150   1.236  10.787
 4205SOL     OW12946   3.476   1.292  10.599
 4205SOL    HW112947   3.536   1.295  10.679
 4205SOL    HW212948   3.401   1.356  10.612
 4206SOL     OW12949   2.901   1.098  10.006
 4206SOL    HW112950   2.831   1.051  10.060
 4206SOL    HW212951   2.960   1.030   9.963
 4207SOL     OW12952   2.876   0.236  10.281
 4207SOL    HW112953   2.868   0.200  10.188
 4207SOL    HW212954   2.874   0.160  10.346
 4208SOL     OW12955   2.452   1.487   9.801
 4208SOL    HW112956   2.494   1.429   9.731
 4208SOL    HW212957   2.408   1.566   9.757
 4209SOL     OW12958   3.571   0.385  10.691
 4209SOL    HW112959   3.644   0.454  10.695
 4209SOL    HW212960   3.599   0.310  10.632
 4210SOL     OW12961   2.117   1.348   9.600
 4210SOL    HW112962   2.021   1.349   9.573
 4210SOL    HW212963   2.129   1.401   9.684
 4211SOL     OW12964   1.967   1.013  11.036
 4211SOL    HW112965   1.890   0.980  11.090
 4211SOL    HW212966   2.052   0.983  11.078
 4212SOL     OW12967   2.534   0.203  10.799
 4212SOL    HW112968   2.624   0.187  10.759
 4212SOL    HW212969   2.542   0.208  10.898
 4213SOL     OW12970   1.937   0.345   9.343
 4213SOL    HW112971   1.845   0.317   9.314
 4213SOL    HW212972   1.968   0.422   9.287
 4214SOL     OW12973   3.302   0.856  10.708
 4214SOL    HW112974   3.245   0.908  10.645
 4214SOL    HW212975   3.398   0.868  10.684
 4215SOL     OW12976   1.934   0.166   9.628
 4215SOL    HW112977   1.917   0.249   9.574
 4215SOL    HW212978   2.024   0.129   9.606
 4216SOL     OW12979   3.045   1.335   9.429
 4216SOL    HW112980   2.946   1.324   9.431
 4216SOL    HW212981   3.079   1.350   9.522
 4217SOL     OW12982   2.475   0.842  10.741
 4217SOL    HW112983   2.531   0.923  10.724
 4217SOL    HW212984   2.534   0.762  10.744
 4218SOL     OW12985   3.355   1.767  10.269
 4218SOL    HW112986   3.388   1.831  10.200
 4218SOL    HW212987   3.421   1.761  10.344
 4219SOL     OW12988   2.578   0.565  11.018
 4219SOL    HW112989   2.597   0.630  11.092
 4219SOL    HW212990   2.638   0.485  11.027
 4220SOL     OW12991   2.252   1.741  10.870
 4220SOL    HW112992   2.161   1.782  10.868
 4220SOL    HW212993   2.245   1.647  10.902
 4221SOL     OW12994   3.536   0.883  10.564
 4221SOL    HW112995   3.509   0.794  10.527
 4221SOL    HW212996   3.537   0.951  10.491
 4222SOL     OW12997   3.087   0.325   9.759
 4222SOL    HW112998   3.152   0.251   9.748
 4222SOL    HW212999   3.107   0.375   9.843
 4223SOL     OW13000   2.456   0.745   9.962
 4223SOL    HW113001   2.506   0.830   9.943
 4223SOL    HW213002   2.368   0.747   9.914
 4224SOL     OW13003   3.639   0.342  10.952
 4224SOL    HW113004   3.622   0.373  10.858
 4224SOL    HW213005   3.555   0.305  10.990
 4225SOL     OW13006   3.592   0.934  10.827
 4225SOL    HW113007   3.630   1.025  10.842
 4225SOL    HW213008   3.584   0.917  10.728
 4226SOL     OW13009   2.721   1.374   9.326
 4226SOL    HW113010   2.675   1.389   9.414
 4226SOL    HW213011   2.765   1.459   9.296
 4227SOL     OW13012   2.523   1.790  10.263
 4227SOL    HW113013   2.477   1.878  10.250
 4227SOL    HW213014   2.622   1.802  10.256
 4228SOL     OW13015   2.721   0.956  10.171
 4228SOL    HW113016   2.775   0.887  10.219
 4228SOL    HW213017   2.689   1.025  10.237
 4229SOL     OW13018   2.945   0.984   9.397
 4229SOL    HW113019   2.922   1.037   9.315
 4229SOL    HW213020   3.026   0.928   9.378
 4230SOL     OW13021   3.723   1.569  10.161
 4230SOL    HW113022   3.652   1.557  10.091
 4230SOL    HW213023   3.724   1.490  10.221
 4231SOL     OW13024   1.941   1.240   9.963
 4231SOL    HW113025   1.940   1.193  10.051
 4231SOL    HW213026   2.023   1.212   9.912
 4232SOL     OW13027   3.686   0.192  10.537
 4232SOL    HW113028   3.682   0.102  10.581
 4232SOL    HW213029   3.689   0.181  10.438
 4233SOL     OW13030   2.290   0.424   9.830
 4233SOL    HW113031   2.320   0.352   9.768
 4233SOL    HW213032   2.251   0.384   9.913
 4234SOL     OW13033   3.567   1.487  10.414
 4234SOL    HW113034   3.474   1.462  10.387
 4234SOL    HW213035   3.593   1.437  10.496
 4235SOL     OW13036   2.179   0.547  10.590
 4235SOL    HW113037   2.217   0.488  10.662
 4235SOL    HW213038   2.219   0.521  10.502
 4236SOL     OW13039   2.674   1.586   9.997
 4236SOL    HW113040   2.706   1.596   9.903
 4236SOL    HW213041   2.595   1.524   9.999
 4237SOL     OW13042   3.286   0.214  10.422
 4237SOL    HW113043   3.338   0.149  10.477
 4237SOL    HW213044   3.237   0.277  10.483
 4238SOL     OW13045   2.863   0.034  10.464
 4238SOL    HW113046   2.800  -0.038  10.433
 4238SOL    HW213047   2.956  -0.002  10.464
 4239SOL     OW13048   2.632   1.330   9.611
 4239SOL    HW113049   2.586   1.243   9.628
 4239SOL    HW213050   2.723   1.327   9.652
 4240SOL     OW13051   2.480   1.567  10.594
 4240SOL    HW113052   2.475   1.649  10.651
 4240SOL    HW213053   2.569   1.564  10.549
 4241SOL     OW13054   3.214   0.052   9.478
 4241SOL    HW113055   3.249   0.011   9.394
 4241SOL    HW213056   3.124   0.014   9.498
 4242SOL     OW13057   3.162   0.453  10.001
 4242SOL    HW113058   3.103   0.533  10.005
 4242SOL    HW213059   3.177   0.418  10.094
 4243SOL     OW13060   3.455   0.221  10.192
 4243SOL    HW113061   3.371   0.220  10.246
 4243SOL    HW213062   3.457   0.304  10.136
 4244SOL     OW13063   1.901   1.077   9.610
 4244SOL    HW113064   2.000   1.066   9.601
 4244SOL    HW213065   1.861   0.991   9.642
 4245SOL     OW13066   2.737   1.646   9.647
 4245SOL    HW113067   2.660   1.611   9.593
 4245SOL    HW213068   2.705   1.717   9.709
 4246SOL     OW13069   2.092   2.490   0.113
 4246SOL    HW113070   1.999   2.488   0.150
 4246SOL    HW213071   2.093   2.451   0.021
 4247SOL     OW13072   1.881   2.230   0.647
 4247SOL    HW113073   1.799   2.273   0.686
 4247SOL    HW213074   1.853   2.157   0.584
 4248SOL     OW13075   2.431   3.137   1.165
 4248SOL    HW113076   2.338   3.130   1.128
 4248SOL    HW213077   2.442   3.226   1.209
 4249SOL     OW13078   3.417   3.373   0.703
 4249SOL    HW113079   3.360   3.357   0.784
 4249SOL    HW213080   3.358   3.383   0.623
 4250SOL     OW13081   2.997   2.565   0.717
 4250SOL    HW113082   3.054   2.643   0.692
 4250SOL    HW213083   2.937   2.591   0.793
 4251SOL     OW13084   3.617   2.469   0.231
 4251SOL    HW113085   3.605   2.456   0.132
 4251SOL    HW213086   3.587   2.388   0.280
 4252SOL     OW13087   2.630   3.006   1.023
 4252SOL    HW113088   2.552   3.023   1.083
 4252SOL    HW213089   2.664   3.093   0.987
 4253SOL     OW13090   2.712   2.660   1.823
 4253SOL    HW113091   2.708   2.736   1.888
 4253SOL    HW213092   2.734   2.696   1.732
 4254SOL     OW13093   2.547   2.874   0.665
 4254SOL    HW113094   2.616   2.858   0.735
 4254SOL    HW213095   2.474   2.931   0.703
 4255SOL     OW13096   2.548   3.023   1.803
 4255SOL    HW113097   2.608   3.102   1.817
 4255SOL    HW213098   2.462   3.054   1.762
 4256SOL     OW13099   2.197   3.297   1.061
 4256SOL    HW113100   2.119   3.266   1.008
 4256SOL    HW213101   2.255   3.355   1.004
 4257SOL     OW13102   3.322   3.367   1.339
 4257SOL    HW113103   3.346   3.461   1.365
 4257SOL    HW213104   3.306   3.313   1.421
 4258SOL     OW13105   3.465   2.309   0.737
 4258SOL    HW113106   3.391   2.355   0.687
 4258SOL    HW213107   3.516   2.377   0.790
 4259SOL     OW13108   2.093   3.575   0.483
 4259SOL    HW113109   2.127   3.652   0.537
 4259SOL    HW213110   2.137   3.575   0.393
 4260SOL     OW13111   2.989   3.203   1.690
 4260SOL    HW113112   3.036   3.203   1.778
 4260SOL    HW213113   2.941   3.116   1.679
 4261SOL     OW13114   2.092   3.296   0.538
 4261SOL    HW113115   2.066   3.392   0.538
 4261SOL    HW213116   2.021   3.242   0.583
 4262SOL     OW13117   2.102   2.953   0.886
 4262SOL    HW113118   2.116   2.869   0.938
 4262SOL    HW213119   2.047   3.017   0.941
 4263SOL     OW13120   2.482   3.648   1.439
 4263SOL    HW113121   2.390   3.631   1.474
 4263SOL    HW213122   2.510   3.740   1.465
 4264SOL     OW13123   2.468   2.826   0.123
 4264SOL    HW113124   2.475   2.910   0.069
 4264SOL    HW213125   2.514   2.839   0.211
 4265SOL     OW13126   3.456   1.976   1.480
 4265SOL    HW113127   3.438   2.043   1.408
 4265SOL    HW213128   3.453   2.022   1.569
 4266SOL     OW13129   1.984   2.505   0.563
 4266SOL    HW113130   1.939   2.417   0.580
 4266SOL    HW213131   1.983   2.559   0.647
 4267SOL     OW13132   3.704   3.629   0.359
 4267SOL    HW113133   3.758   3.600   0.439
 4267SOL    HW213134   3.734   3.719   0.330
 4268SOL     OW13135   1.889   3.458   0.117
 4268SOL    HW113136   1.870   3.362   0.138
 4268SOL    HW213137   1.856   3.516   0.192
 4269SOL     OW13138   3.551   2.784   0.612
 4269SOL    HW113139   3.646   2.755   0.620
 4269SOL    HW213140   3.543   2.849   0.537
 4270SOL     OW13141   3.503   2.970   0.432
 4270SOL    HW113142   3.589   2.972   0.380
 4270SOL    HW213143   3.517   3.017   0.520
 4271SOL     OW13144   1.975   2.599   1.597
 4271SOL    HW113145   2.063   2.586   1.642
 4271SOL    HW213146   1.962   2.696   1.575
 4272SOL     OW13147   2.475   3.227   0.726
 4272SOL    HW113148   2.426   3.140   0.735
 4272SOL    HW213149   2.452   3.270   0.639
 4273SOL     OW13150   3.155   3.090   1.423
 4273SOL    HW113151   3.192   3.017   1.365
 4273SOL    HW213152   3.207   3.095   1.508
 4274SOL     OW13153   2.671   1.866   0.502
 4274SOL    HW113154   2.711   1.957   0.493
 4274SOL    HW213155   2.571   1.874   0.508
 4275SOL     OW13156   2.059   2.838   1.264
 4275SOL    HW113157   2.148   2.793   1.250
 4275SOL    HW213158   1.986   2.773   1.245
 4276SOL     OW13159   3.387   2.861   0.190
 4276SOL    HW113160   3.324   2.785   0.203
 4276SOL    HW213161   3.435   2.879   0.276
 4277SOL     OW13162   3.049   3.654   1.616
 4277SOL    HW113163   3.073   3.714   1.540
 4277SOL    HW213164   3.056   3.559   1.586
 4278SOL     OW13165   3.328   3.279   0.953
 4278SOL    HW113166   3.269   3.285   1.033
 4278SOL    HW213167   3.313   3.191   0.907
 4279SOL     OW13168   3.529   3.576   0.572
 4279SOL    HW113169   3.488   3.553   0.484
 4279SOL    HW213170   3.511   3.502   0.637
 4280SOL     OW13171   2.460   2.591   0.270
 4280SOL    HW113172   2.484   2.660   0.202
 4280SOL    HW213173   2.382   2.624   0.324
 4281SOL     OW13174   3.143   2.207   0.944
 4281SOL    HW113175   3.057   2.157   0.931
 4281SOL    HW213176   3.205   2.153   1.000
 4282SOL     OW13177   3.438   3.524   0.307
 4282SOL    HW113178   3.527   3.570   0.310
 4282SOL    HW213179   3.417   3.500   0.212
 4283SOL     OW13180   2.669   2.467   1.465
 4283SOL    HW113181   2.622   2.464   1.554
 4283SOL    HW213182   2.618   2.412   1.399
 4284SOL     OW13183   3.256   2.331   1.674
 4284SOL    HW113184   3.236   2.374   1.762
 4284SOL    HW213185   3.334   2.269   1.683
 4285SOL     OW13186   2.835   2.752   1.572
 4285SOL    HW113187   2.881   2.668   1.543
 4285SOL    HW213188   2.779   2.786   1.497
 4286SOL     OW13189   2.853   2.272   1.242
 4286SOL    HW113190   2.776   2.306   1.296
 4286SOL    HW213191   2.819   2.221   1.163
 4287SOL     OW13192   2.903   2.563   0.429
 4287SOL    HW113193   2.929   2.559   0.525
 4287SOL    HW213194   2.818   2.512   0.415
 4288SOL     OW13195   1.938   2.673   0.789
 4288SOL    HW113196   2.037   2.661   0.798
 4288SOL    HW213197   1.914   2.768   0.810
 4289SOL     OW13198   1.992   3.683   1.571
 4289SOL    HW113199   1.982   3.668   1.670
 4289SOL    HW213200   1.906   3.719   1.535
 4290SOL     OW13201   2.727   2.210   0.195
 4290SOL    HW113202   2.786   2.273   0.146
 4290SOL    HW213203   2.746   2.116   0.166
 4291SOL     OW13204   3.581   2.447   1.831
 4291SOL    HW113205   3.555   2.536   1.795
 4291SOL    HW213206   3.579   2.379   1.758
 4292SOL     OW13207   3.224   3.006   0.545
 4292SOL    HW113208   3.307   2.977   0.497
 4292SOL    HW213209   3.175   3.073   0.489
 4293SOL     OW13210   2.870   3.318   0.477
 4293SOL    HW113211   2.824   3.390   0.425
 4293SOL    HW213212   2.866   3.338   0.575
 4294SOL     OW13213   2.213   3.663   0.853
 4294SOL    HW113214   2.263   3.577   0.859
 4294SOL    HW213215   2.278   3.740   0.850
 4295SOL     OW13216   3.657   2.928   0.873
 4295SOL    HW113217   3.595   2.913   0.797
 4295SOL    HW213218   3.605   2.939   0.958
 4296SOL     OW13219   3.089   3.412   1.506
 4296SOL    HW113220   3.095   3.335   1.570
 4296SOL    HW213221   3.037   3.386   1.426
 4297SOL     OW13222   2.183   2.805   0.242
 4297SOL    HW113223   2.265   2.844   0.200
 4297SOL    HW213224   2.156   2.723   0.193
 4298SOL     OW13225   3.320   2.597   0.728
 4298SOL    HW113226   3.315   2.532   0.803
 4298SOL    HW213227   3.400   2.656   0.741
 4299SOL     OW13228   2.323   3.128   1.727
 4299SOL    HW113229   2.273   3.129   1.641
 4299SOL    HW213230   2.260   3.110   1.803
 4300SOL     OW13231   2.973   3.638   0.237
 4300SOL    HW113232   2.913   3.576   0.287
 4300SOL    HW213233   3.004   3.594   0.152
 4301SOL     OW13234   2.064   2.147   1.498
 4301SOL    HW113235   1.984   2.207   1.485
 4301SOL    HW213236   2.054   2.098   1.584
 4302SOL     OW13237   3.494   3.239   0.081
 4302SOL    HW113238   3.462   3.333   0.071
 4302SOL    HW213239   3.418   3.176   0.069
 4303SOL     OW13240   2.326   3.605   0.323
 4303SOL    HW113241   2.359   3.644   0.409
 4303SOL    HW213242   2.402   3.598   0.258
 4304SOL     OW13243   3.262   1.969   0.426
 4304SOL    HW113244   3.238   1.932   0.336
 4304SOL    HW213245   3.361   1.985   0.430
 4305SOL     OW13246   2.111   3.647   1.241
 4305SOL    HW113247   2.168   3.582   1.291
 4305SOL    HW213248   2.095   3.614   1.148
 4306SOL     OW13249   2.802   3.560   0.904
 4306SOL    HW113250   2.882   3.503   0.925
 4306SOL    HW213251   2.753   3.520   0.827
 4307SOL     OW13252   2.244   2.562   0.480
 4307SOL    HW113253   2.289   2.472   0.477
 4307SOL    HW213254   2.150   2.551   0.513
 4308SOL     OW13255   3.409   2.084   1.729
 4308SOL    HW113256   3.404   2.121   1.821
 4308SOL    HW213257   3.337   2.015   1.717
 4309SOL     OW13258   2.476   1.984   0.117
 4309SOL    HW113259   2.574   1.962   0.124
 4309SOL    HW213260   2.445   1.967   0.024
 4310SOL     OW13261   2.643   2.126   1.749
 4310SOL    HW113262   2.710   2.065   1.792
 4310SOL    HW213263   2.570   2.145   1.814
 4311SOL     OW13264   2.750   3.376   1.195
 4311SOL    HW113265   2.727   3.351   1.101
 4311SOL    HW213266   2.811   3.307   1.234
 4312SOL     OW13267   3.213   2.452   1.433
 4312SOL    HW113268   3.241   2.409   1.518
 4312SOL    HW213269   3.238   2.548   1.434
 4313SOL     OW13270   2.665   3.264   0.924
 4313SOL    HW113271   2.755   3.278   0.882
 4313SOL    HW213272   2.594   3.266   0.853
 4314SOL     OW13273   2.784   2.365   0.899
 4314SOL    HW113274   2.759   2.356   0.803
 4314SOL    HW213275   2.832   2.283   0.930
 4315SOL     OW13276   2.401   1.926   0.512
 4315SOL    HW113277   2.320   1.927   0.570
 4315SOL    HW213278   2.404   2.009   0.457
 4316SOL     OW13279   3.296   3.050   0.041
 4316SOL    HW113280   3.328   2.974   0.098
 4316SOL    HW213281   3.204   3.077   0.071
 4317SOL     OW13282   2.159   1.897   0.171
 4317SOL    HW113283   2.208   1.981   0.150
 4317SOL    HW213284   2.221   1.832   0.216
 4318SOL     OW13285   2.797   2.098   0.480
 4318SOL    HW113286   2.749   2.139   0.402
 4318SOL    HW213287   2.896   2.096   0.461
 4319SOL     OW13288   2.938   2.545   1.464
 4319SOL    HW113289   2.858   2.484   1.467
 4319SOL    HW213290   3.019   2.492   1.440
 4320SOL     OW13291   3.089   3.432   0.793
 4320SOL    HW113292   3.110   3.506   0.728
 4320SOL    HW213293   3.157   3.432   0.866
 4321SOL     OW13294   2.321   3.014   0.741
 4321SOL    HW113295   2.250   2.987   0.806
 4321SOL    HW213296   2.295   2.986   0.648
 4322SOL     OW13297   3.133   3.659   0.591
 4322SOL    HW113298   3.177   3.723   0.527
 4322SOL    HW213299   3.083   3.711   0.661
 4323SOL     OW13300   2.894   2.411   0.016
 4323SOL    HW113301   2.853   2.493  -0.023
 4323SOL    HW213302   2.958   2.437   0.089
 4324SOL     OW13303   1.940   2.418   1.386
 4324SOL    HW113304   2.032   2.417   1.345
 4324SOL    HW213305   1.934   2.492   1.453
 4325SOL     OW13306   2.728   2.316   0.642
 4325SOL    HW113307   2.696   2.388   0.580
 4325SOL    HW213308   2.752   2.235   0.589
 4326SOL     OW13309   2.879   1.901   0.753
 4326SOL    HW113310   2.807   1.906   0.684
 4326SOL    HW213311   2.855   1.832   0.822
 4327SOL     OW13312   3.291   3.035   0.867
 4327SOL    HW113313   3.236   2.951   0.860
 4327SOL    HW213314   3.317   3.064   0.775
 4328SOL     OW13315   3.328   2.452   0.992
 4328SOL    HW113316   3.298   2.357   0.999
 4328SOL    HW213317   3.401   2.468   1.058
 4329SOL     OW13318   3.719   2.695   0.377
 4329SOL    HW113319   3.761   2.631   0.441
 4329SOL    HW213320   3.681   2.644   0.299
 4330SOL     OW13321   2.350   3.247   0.174
 4330SOL    HW113322   2.263   3.232   0.221
 4330SOL    HW213323   2.333   3.273   0.079
 4331SOL     OW13324   3.526   3.142   0.657
 4331SOL    HW113325   3.625   3.150   0.671
 4331SOL    HW213326   3.481   3.226   0.688
 4332SOL     OW13327   3.252   2.437   0.078
 4332SOL    HW113328   3.198   2.416   0.159
 4332SOL    HW213329   3.343   2.396   0.087
 4333SOL     OW13330   3.616   3.085   1.588
 4333SOL    HW113331   3.707   3.046   1.575
 4333SOL    HW213332   3.624   3.181   1.612
 4334SOL     OW13333   2.926   3.209   1.340
 4334SOL    HW113334   2.846   3.186   1.395
 4334SOL    HW213335   3.009   3.183   1.389
 4335SOL     OW13336   3.454   3.491   1.625
 4335SOL    HW113337   3.481   3.525   1.535
 4335SOL    HW213338   3.533   3.453   1.671
 4336SOL     OW13339   2.973   3.057   1.100
 4336SOL    HW113340   2.933   3.101   1.181
 4336SOL    HW213341   2.932   3.094   1.017
 4337SOL     OW13342   3.500   2.961   1.079
 4337SOL    HW113343   3.505   3.042   1.138
 4337SOL    HW213344   3.414   2.963   1.028
 4338SOL     OW13345   2.777   1.951   1.402
 4338SOL    HW113346   2.802   1.931   1.307
 4338SOL    HW213347   2.849   2.007   1.444
 4339SOL     OW13348   2.842   2.978   1.719
 4339SOL    HW113349   2.743   2.984   1.729
 4339SOL    HW213350   2.865   2.898   1.663
 4340SOL     OW13351   2.567   2.912   0.368
 4340SOL    HW113352   2.553   2.919   0.467
 4340SOL    HW213353   2.651   2.861   0.350
 4341SOL     OW13354   2.272   2.675   1.251
 4341SOL    HW113355   2.358   2.687   1.301
 4341SOL    HW213356   2.230   2.588   1.278
 4342SOL     OW13357   3.136   2.248   1.262
 4342SOL    HW113358   3.157   2.322   1.326
 4342SOL    HW213359   3.047   2.265   1.219
 4343SOL     OW13360   1.926   3.426   1.331
 4343SOL    HW113361   1.880   3.508   1.297
 4343SOL    HW213362   2.024   3.445   1.340
 4344SOL     OW13363   2.229   2.962   0.501
 4344SOL    HW113364   2.222   3.045   0.445
 4344SOL    HW213365   2.233   2.882   0.441
 4345SOL     OW13366   3.114   3.210   0.388
 4345SOL    HW113367   3.164   3.287   0.428
 4345SOL    HW213368   3.019   3.212   0.420
 4346SOL     OW13369   3.134   3.307   1.142
 4346SOL    HW113370   3.181   3.320   1.229
 4346SOL    HW213371   3.068   3.233   1.151
 4347SOL     OW13372   3.444   2.501   0.472
 4347SOL    HW113373   3.413   2.562   0.545
 4347SOL    HW213374   3.494   2.553   0.403
 4348SOL     OW13375   2.216   3.372   1.329
 4348SOL    HW113376   2.195   3.328   1.242
 4348SOL    HW213377   2.313   3.398   1.332
 4349SOL     OW13378   2.264   2.613   1.598
 4349SOL    HW113379   2.332   2.668   1.551
 4349SOL    HW213380   2.304   2.525   1.625
 4350SOL     OW13381   3.449   2.641   1.670
 4350SOL    HW113382   3.357   2.679   1.665
 4350SOL    HW213383   3.509   2.688   1.605
 4351SOL     OW13384   2.875   1.967   1.770
 4351SOL    HW113385   2.881   2.052   1.718
 4351SOL    HW213386   2.907   1.891   1.713
 4352SOL     OW13387   2.366   1.912   1.740
 4352SOL    HW113388   2.324   1.855   1.670
 4352SOL    HW213389   2.300   1.981   1.772
 4353SOL     OW13390   2.435   2.732   1.029
 4353SOL    HW113391   2.479   2.821   1.020
 4353SOL    HW213392   2.372   2.732   1.106
 4354SOL     OW13393   3.222   2.724   1.045
 4354SOL    HW113394   3.147   2.724   0.979
 4354SOL    HW213395   3.259   2.632   1.054
 4355SOL     OW13396   3.071   2.387   0.275
 4355SOL    HW113397   3.084   2.303   0.329
 4355SOL    HW213398   3.042   2.461   0.335
 4356SOL     OW13399   1.899   3.172   1.282
 4356SOL    HW113400   1.952   3.123   1.350
 4356SOL    HW213401   1.921   3.270   1.287
 4357SOL     OW13402   2.594   2.496   1.064
 4357SOL    HW113403   2.653   2.470   0.988
 4357SOL    HW213404   2.566   2.592   1.053
 4358SOL     OW13405   3.590   2.797   1.854
 4358SOL    HW113406   3.544   2.790   1.765
 4358SOL    HW213407   3.528   2.841   1.920
 4359SOL     OW13408   2.169   1.925   0.618
 4359SOL    HW113409   2.158   2.019   0.651
 4359SOL    HW213410   2.164   1.862   0.695
 4360SOL     OW13411   3.484   2.229   0.374
 4360SOL    HW113412   3.486   2.153   0.438
 4360SOL    HW213413   3.436   2.306   0.414
 4361SOL     OW13414   2.885   2.628   0.966
 4361SOL    HW113415   2.900   2.649   1.062
 4361SOL    HW213416   2.855   2.533   0.957
 4362SOL     OW13417   2.842   3.435   1.700
 4362SOL    HW113418   2.822   3.479   1.612
 4362SOL    HW213419   2.881   3.344   1.684
 4363SOL     OW13420   3.721   3.380   1.605
 4363SOL    HW113421   3.735   3.407   1.510
 4363SOL    HW213422   3.804   3.402   1.658
 4364SOL     OW13423   2.212   2.760   1.804
 4364SOL    HW113424   2.288   2.804   1.852
 4364SOL    HW213425   2.247   2.713   1.722
 4365SOL     OW13426   3.402   2.136   0.125
 4365SOL    HW113427   3.341   2.061   0.148
 4365SOL    HW213428   3.424   2.188   0.208
 4366SOL     OW13429   3.165   2.700   0.042
 4366SOL    HW113430   3.199   2.607   0.057
 4366SOL    HW213431   3.183   2.727  -0.053
 4367SOL     OW13432   2.930   3.195   0.849
 4367SOL    HW113433   2.937   3.111   0.794
 4367SOL    HW213434   2.992   3.264   0.813
 4368SOL     OW13435   2.181   2.672   0.949
 4368SOL    HW113436   2.274   2.708   0.954
 4368SOL    HW213437   2.175   2.587   1.001
 4369SOL     OW13438   3.000   2.242   1.678
 4369SOL    HW113439   2.955   2.305   1.742
 4369SOL    HW213440   3.093   2.273   1.661
 4370SOL     OW13441   3.022   2.069   1.477
 4370SOL    HW113442   3.022   2.133   1.554
 4370SOL    HW213443   3.050   2.117   1.394
 4371SOL     OW13444   1.870   3.188   0.200
 4371SOL    HW113445   1.777   3.209   0.169
 4371SOL    HW213446   1.880   3.089   0.213
 4372SOL     OW13447   1.950   3.663   0.927
 4372SOL    HW113448   1.908   3.577   0.900
 4372SOL    HW213449   2.044   3.666   0.893
 4373SOL     OW13450   2.366   3.430   0.910
 4373SOL    HW113451   2.432   3.504   0.919
 4373SOL    HW213452   2.410   3.351   0.868
 4374SOL     OW13453   2.864   2.658   1.238
 4374SOL    HW113454   2.905   2.626   1.324
 4374SOL    HW213455   2.768   2.631   1.235
 4375SOL     OW13456   1.902   2.406   1.114
 4375SOL    HW113457   1.987   2.373   1.073
 4375SOL    HW213458   1.915   2.421   1.212
 4376SOL     OW13459   3.231   2.812   1.660
 4376SOL    HW113460   3.270   2.901   1.680
 4376SOL    HW213461   3.241   2.792   1.563
 4377SOL     OW13462   2.677   2.434   0.325
 4377SOL    HW113463   2.684   2.345   0.279
 4377SOL    HW213464   2.583   2.468   0.317
 4378SOL     OW13465   3.519   2.466   1.206
 4378SOL    HW113466   3.481   2.397   1.268
 4378SOL    HW213467   3.601   2.430   1.162
 4379SOL     OW13468   2.114   3.426   1.744
 4379SOL    HW113469   2.084   3.483   1.820
 4379SOL    HW213470   2.107   3.329   1.770
 4380SOL     OW13471   2.533   2.326   1.269
 4380SOL    HW113472   2.499   2.237   1.239
 4380SOL    HW213473   2.559   2.380   1.189
 4381SOL     OW13474   2.792   3.540   1.465
 4381SOL    HW113475   2.768   3.522   1.370
 4381SOL    HW213476   2.822   3.634   1.475
 4382SOL     OW13477   2.021   2.999   1.466
 4382SOL    HW113478   2.043   2.938   1.542
 4382SOL    HW213479   2.031   2.950   1.380
 4383SOL     OW13480   3.209   2.921   1.234
 4383SOL    HW113481   3.233   2.858   1.160
 4383SOL    HW213482   3.119   2.961   1.216
 4384SOL     OW13483   3.164   2.717   0.309
 4384SOL    HW113484   3.078   2.686   0.351
 4384SOL    HW213485   3.160   2.703   0.210
 4385SOL     OW13486   3.621   3.609   1.154
 4385SOL    HW113487   3.682   3.639   1.081
 4385SOL    HW213488   3.583   3.520   1.132
 4386SOL     OW13489   3.114   3.593   1.128
 4386SOL    HW113490   3.198   3.598   1.074
 4386SOL    HW213491   3.091   3.497   1.146
 4387SOL     OW13492   1.945   3.120   1.022
 4387SOL    HW113493   1.940   3.119   1.122
 4387SOL    HW213494   1.862   3.079   0.984
 4388SOL     OW13495   2.550   3.524   1.716
 4388SOL    HW113496   2.494   3.605   1.725
 4388SOL    HW213497   2.602   3.528   1.630
 4389SOL     OW13498   2.765   1.948   0.133
 4389SOL    HW113499   2.816   1.949   0.047
 4389SOL    HW213500   2.821   1.906   0.204
 4390SOL     OW13501   3.588   1.997   0.523
 4390SOL    HW113502   3.661   1.980   0.456
 4390SOL    HW213503   3.557   1.910   0.561
 4391SOL     OW13504   3.250   3.435   0.477
 4391SOL    HW113505   3.317   3.447   0.403
 4391SOL    HW213506   3.210   3.524   0.500
 4392SOL     OW13507   1.992   3.656   1.851
 4392SOL    HW113508   1.951   3.582   1.904
 4392SOL    HW213509   2.056   3.707   1.909
 4393SOL     OW13510   3.142   2.789   0.672
 4393SOL    HW113511   3.202   2.708   0.674
 4393SOL    HW213512   3.182   2.858   0.612
 4394SOL     OW13513   2.692   3.135   1.422
 4394SOL    HW113514   2.687   3.168   1.517
 4394SOL    HW213515   2.606   3.154   1.376
 4395SOL     OW13516   2.534   3.478   0.154
 4395SOL    HW113517   2.543   3.488   0.055
 4395SOL    HW213518   2.494   3.389   0.175
 4396SOL     OW13519   3.512   3.582   1.394
 4396SOL    HW113520   3.565   3.592   1.310
 4396SOL    HW213521   3.485   3.672   1.428
 4397SOL     OW13522   3.703   2.037   0.963
 4397SOL    HW113523   3.742   1.952   0.927
 4397SOL    HW213524   3.605   2.039   0.944
 4398SOL     OW13525   3.056   3.474   0.031
 4398SOL    HW113526   3.062   3.381   0.068
 4398SOL    HW213527   2.997   3.474  -0.049
 4399SOL     OW13528   2.684   2.864   1.372
 4399SOL    HW113529   2.724   2.863   1.280
 4399SOL    HW213530   2.694   2.956   1.412
 4400SOL     OW13531   2.778   2.772   0.291
 4400SOL    HW113532   2.841   2.810   0.223
 4400SOL    HW213533   2.818   2.689   0.330
 4401SOL     OW13534   3.366   3.469   0.044
 4401SOL    HW113535   3.274   3.506   0.051
 4401SOL    HW213536   3.404   3.489  -0.046
 4402SOL     OW13537   2.234   3.150   1.490
 4402SOL    HW113538   2.221   3.243   1.456
 4402SOL    HW213539   2.150   3.098   1.477
 4403SOL     OW13540   3.476   3.154   1.289
 4403SOL    HW113541   3.536   3.157   1.369
 4403SOL    HW213542   3.401   3.218   1.302
 4404SOL     OW13543   2.901   2.960   0.696
 4404SOL    HW113544   2.831   2.913   0.750
 4404SOL    HW213545   2.960   2.892   0.653
 4405SOL     OW13546   2.876   2.098   0.971
 4405SOL    HW113547   2.868   2.062   0.878
 4405SOL    HW213548   2.874   2.022   1.036
 4406SOL     OW13549   2.452   3.349   0.491
 4406SOL    HW113550   2.494   3.291   0.421
 4406SOL    HW213551   2.408   3.428   0.447
 4407SOL     OW13552   3.571   2.247   1.381
 4407SOL    HW113553   3.644   2.316   1.385
 4407SOL    HW213554   3.599   2.172   1.322
 4408SOL     OW13555   2.117   3.210   0.290
 4408SOL    HW113556   2.021   3.211   0.263
 4408SOL    HW213557   2.129   3.263   0.374
 4409SOL     OW13558   1.967   2.875   1.726
 4409SOL    HW113559   1.890   2.842   1.780
 4409SOL    HW213560   2.052   2.845   1.768
 4410SOL     OW13561   2.534   2.065   1.489
 4410SOL    HW113562   2.624   2.049   1.449
 4410SOL    HW213563   2.542   2.070   1.588
 4411SOL     OW13564   3.302   2.718   1.398
 4411SOL    HW113565   3.245   2.770   1.335
 4411SOL    HW213566   3.398   2.730   1.374
 4412SOL     OW13567   1.934   2.028   0.318
 4412SOL    HW113568   1.917   2.111   0.264
 4412SOL    HW213569   2.024   1.991   0.296
 4413SOL     OW13570   3.045   3.197   0.119
 4413SOL    HW113571   2.946   3.186   0.121
 4413SOL    HW213572   3.079   3.212   0.212
 4414SOL     OW13573   2.475   2.704   1.431
 4414SOL    HW113574   2.531   2.785   1.414
 4414SOL    HW213575   2.534   2.624   1.434
 4415SOL     OW13576   3.355   3.629   0.959
 4415SOL    HW113577   3.388   3.693   0.890
 4415SOL    HW213578   3.421   3.623   1.034
 4416SOL     OW13579   2.578   2.427   1.708
 4416SOL    HW113580   2.597   2.492   1.782
 4416SOL    HW213581   2.638   2.347   1.717
 4417SOL     OW13582   3.312   3.082   1.633
 4417SOL    HW113583   3.303   3.072   1.732
 4417SOL    HW213584   3.408   3.075   1.607
 4418SOL     OW13585   2.252   3.603   1.560
 4418SOL    HW113586   2.161   3.644   1.558
 4418SOL    HW213587   2.245   3.509   1.592
 4419SOL     OW13588   3.536   2.745   1.254
 4419SOL    HW113589   3.509   2.656   1.217
 4419SOL    HW213590   3.537   2.813   1.181
 4420SOL     OW13591   3.087   2.187   0.449
 4420SOL    HW113592   3.152   2.113   0.438
 4420SOL    HW213593   3.107   2.237   0.533
 4421SOL     OW13594   2.456   2.607   0.652
 4421SOL    HW113595   2.506   2.692   0.633
 4421SOL    HW213596   2.368   2.609   0.604
 4422SOL     OW13597   3.639   2.204   1.642
 4422SOL    HW113598   3.622   2.235   1.548
 4422SOL    HW213599   3.555   2.167   1.680
 4423SOL     OW13600   3.592   2.796   1.517
 4423SOL    HW113601   3.630   2.887   1.532
 4423SOL    HW213602   3.584   2.779   1.418
 4424SOL     OW13603   2.721   3.236   0.016
 4424SOL    HW113604   2.675   3.251   0.104
 4424SOL    HW213605   2.765   3.321  -0.014
 4425SOL     OW13606   2.523   3.652   0.953
 4425SOL    HW113607   2.477   3.740   0.940
 4425SOL    HW213608   2.622   3.664   0.946
 4426SOL     OW13609   2.721   2.818   0.861
 4426SOL    HW113610   2.775   2.749   0.909
 4426SOL    HW213611   2.689   2.887   0.927
 4427SOL     OW13612   2.945   2.846   0.087
 4427SOL    HW113613   2.922   2.899   0.005
 4427SOL    HW213614   3.026   2.790   0.068
 4428SOL     OW13615   3.723   3.431   0.851
 4428SOL    HW113616   3.652   3.419   0.781
 4428SOL    HW213617   3.724   3.352   0.911
 4429SOL     OW13618   2.083   3.176   1.844
 4429SOL    HW113619   2.018   3.103   1.823
 4429SOL    HW213620   2.087   3.190   1.942
 4430SOL     OW13621   1.941   3.102   0.653
 4430SOL    HW113622   1.940   3.055   0.741
 4430SOL    HW213623   2.023   3.074   0.602
 4431SOL     OW13624   2.534   3.253   1.624
 4431SOL    HW113625   2.456   3.203   1.662
 4431SOL    HW213626   2.531   3.348   1.655
 4432SOL     OW13627   3.686   2.054   1.227
 4432SOL    HW113628   3.682   1.964   1.271
 4432SOL    HW213629   3.689   2.043   1.128
 4433SOL     OW13630   3.567   3.349   1.104
 4433SOL    HW113631   3.474   3.324   1.077
 4433SOL    HW213632   3.593   3.299   1.186
 4434SOL     OW13633   2.674   3.448   0.687
 4434SOL    HW113634   2.706   3.458   0.593
 4434SOL    HW213635   2.595   3.386   0.689
 4435SOL     OW13636   3.286   2.076   1.112
 4435SOL    HW113637   3.338   2.011   1.167
 4435SOL    HW213638   3.237   2.139   1.173
 4436SOL     OW13639   2.863   1.896   1.154
 4436SOL    HW113640   2.800   1.824   1.123
 4436SOL    HW213641   2.956   1.860   1.154
 4437SOL     OW13642   2.632   3.192   0.301
 4437SOL    HW113643   2.586   3.105   0.318
 4437SOL    HW213644   2.723   3.189   0.342
 4438SOL     OW13645   2.480   3.429   1.284
 4438SOL    HW113646   2.475   3.511   1.341
 4438SOL    HW213647   2.569   3.426   1.239
 4439SOL     OW13648   3.214   1.914   0.168
 4439SOL    HW113649   3.249   1.873   0.084
 4439SOL    HW213650   3.124   1.876   0.188
 4440SOL     OW13651   3.162   2.315   0.691
 4440SOL    HW113652   3.103   2.395   0.695
 4440SOL    HW213653   3.177   2.280   0.784
 4441SOL     OW13654   3.455   2.083   0.882
 4441SOL    HW113655   3.371   2.082   0.936
 4441SOL    HW213656   3.457   2.166   0.826
 4442SOL     OW13657   1.901   2.939   0.300
 4442SOL    HW113658   2.000   2.928   0.291
 4442SOL    HW213659   1.861   2.853   0.332
 4443SOL     OW13660   2.737   3.508   0.337
 4443SOL    HW113661   2.660   3.473   0.283
 4443SOL    HW213662   2.705   3.579   0.399
 4444SOL     OW13663   2.092   2.490   1.975
 4444SOL    HW113664   1.999   2.488   2.012
 4444SOL    HW213665   2.093   2.451   1.883
 4445SOL     OW13666   1.881   2.230   2.509
 4445SOL    HW113667   1.799   2.273   2.548
 4445SOL    HW213668   1.853   2.157   2.446
 4446SOL     OW13669   2.431   3.137   3.027
 4446SOL    HW113670   2.338   3.130   2.990
 4446SOL    HW213671   2.442   3.226   3.071
 4447SOL     OW13672   3.417   3.373   2.565
 4447SOL    HW113673   3.360   3.357   2.646
 4447SOL    HW213674   3.358   3.383   2.485
 4448SOL     OW13675   2.997   2.565   2.579
 4448SOL    HW113676   3.054   2.643   2.554
 4448SOL    HW213677   2.937   2.591   2.655
 4449SOL     OW13678   3.617   2.469   2.093
 4449SOL    HW113679   3.605   2.456   1.994
 4449SOL    HW213680   3.587   2.388   2.142
 4450SOL     OW13681   2.630   3.006   2.885
 4450SOL    HW113682   2.552   3.023   2.945
 4450SOL    HW213683   2.664   3.093   2.849
 4451SOL     OW13684   2.712   2.660   3.685
 4451SOL    HW113685   2.708   2.736   3.750
 4451SOL    HW213686   2.734   2.696   3.594
 4452SOL     OW13687   2.547   2.874   2.527
 4452SOL    HW113688   2.616   2.858   2.597
 4452SOL    HW213689   2.474   2.931   2.565
 4453SOL     OW13690   2.548   3.023   3.665
 4453SOL    HW113691   2.608   3.102   3.679
 4453SOL    HW213692   2.462   3.054   3.624
 4454SOL     OW13693   2.197   3.297   2.923
 4454SOL    HW113694   2.119   3.266   2.870
 4454SOL    HW213695   2.255   3.355   2.866
 4455SOL     OW13696   3.322   3.367   3.201
 4455SOL    HW113697   3.346   3.461   3.227
 4455SOL    HW213698   3.306   3.313   3.283
 4456SOL     OW13699   3.465   2.309   2.599
 4456SOL    HW113700   3.391   2.355   2.549
 4456SOL    HW213701   3.516   2.377   2.652
 4457SOL     OW13702   2.093   3.575   2.345
 4457SOL    HW113703   2.127   3.652   2.399
 4457SOL    HW213704   2.137   3.575   2.255
 4458SOL     OW13705   2.989   3.203   3.552
 4458SOL    HW113706   3.036   3.203   3.640
 4458SOL    HW213707   2.941   3.116   3.541
 4459SOL     OW13708   2.092   3.296   2.400
 4459SOL    HW113709   2.066   3.392   2.400
 4459SOL    HW213710   2.021   3.242   2.445
 4460SOL     OW13711   2.102   2.953   2.748
 4460SOL    HW113712   2.116   2.869   2.800
 4460SOL    HW213713   2.047   3.017   2.803
 4461SOL     OW13714   2.482   3.648   3.301
 4461SOL    HW113715   2.390   3.631   3.336
 4461SOL    HW213716   2.510   3.740   3.327
 4462SOL     OW13717   2.468   2.826   1.985
 4462SOL    HW113718   2.475   2.910   1.931
 4462SOL    HW213719   2.514   2.839   2.073
 4463SOL     OW13720   3.456   1.976   3.342
 4463SOL    HW113721   3.438   2.043   3.270
 4463SOL    HW213722   3.453   2.022   3.431
 4464SOL     OW13723   1.984   2.505   2.425
 4464SOL    HW113724   1.939   2.417   2.442
 4464SOL    HW213725   1.983   2.559   2.509
 4465SOL     OW13726   3.704   3.629   2.221
 4465SOL    HW113727   3.758   3.600   2.301
 4465SOL    HW213728   3.734   3.719   2.192
 4466SOL     OW13729   1.889   3.458   1.979
 4466SOL    HW113730   1.870   3.362   2.000
 4466SOL    HW213731   1.856   3.516   2.054
 4467SOL     OW13732   3.551   2.784   2.474
 4467SOL    HW113733   3.646   2.755   2.482
 4467SOL    HW213734   3.543   2.849   2.399
 4468SOL     OW13735   3.503   2.970   2.294
 4468SOL    HW113736   3.589   2.972   2.242
 4468SOL    HW213737   3.517   3.017   2.382
 4469SOL     OW13738   1.975   2.599   3.459
 4469SOL    HW113739   2.063   2.586   3.504
 4469SOL    HW213740   1.962   2.696   3.437
 4470SOL     OW13741   2.475   3.227   2.588
 4470SOL    HW113742   2.426   3.140   2.597
 4470SOL    HW213743   2.452   3.270   2.501
 4471SOL     OW13744   3.155   3.090   3.285
 4471SOL    HW113745   3.192   3.017   3.227
 4471SOL    HW213746   3.207   3.095   3.370
 4472SOL     OW13747   2.671   1.866   2.364
 4472SOL    HW113748   2.711   1.957   2.355
 4472SOL    HW213749   2.571   1.874   2.370
 4473SOL     OW13750   2.059   2.838   3.126
 4473SOL    HW113751   2.148   2.793   3.112
 4473SOL    HW213752   1.986   2.773   3.107
 4474SOL     OW13753   3.387   2.861   2.052
 4474SOL    HW113754   3.324   2.785   2.065
 4474SOL    HW213755   3.435   2.879   2.138
 4475SOL     OW13756   3.049   3.654   3.478
 4475SOL    HW113757   3.073   3.714   3.402
 4475SOL    HW213758   3.056   3.559   3.448
 4476SOL     OW13759   3.328   3.279   2.815
 4476SOL    HW113760   3.269   3.285   2.895
 4476SOL    HW213761   3.313   3.191   2.769
 4477SOL     OW13762   3.529   3.576   2.434
 4477SOL    HW113763   3.488   3.553   2.346
 4477SOL    HW213764   3.511   3.502   2.499
 4478SOL     OW13765   2.460   2.591   2.132
 4478SOL    HW113766   2.484   2.660   2.064
 4478SOL    HW213767   2.382   2.624   2.186
 4479SOL     OW13768   3.143   2.207   2.806
 4479SOL    HW113769   3.057   2.157   2.793
 4479SOL    HW213770   3.205   2.153   2.862
 4480SOL     OW13771   3.438   3.524   2.169
 4480SOL    HW113772   3.527   3.570   2.172
 4480SOL    HW213773   3.417   3.500   2.074
 4481SOL     OW13774   2.669   2.467   3.327
 4481SOL    HW113775   2.622   2.464   3.416
 4481SOL    HW213776   2.618   2.412   3.261
 4482SOL     OW13777   3.256   2.331   3.536
 4482SOL    HW113778   3.236   2.374   3.624
 4482SOL    HW213779   3.334   2.269   3.545
 4483SOL     OW13780   2.835   2.752   3.434
 4483SOL    HW113781   2.881   2.668   3.405
 4483SOL    HW213782   2.779   2.786   3.359
 4484SOL     OW13783   2.853   2.272   3.104
 4484SOL    HW113784   2.776   2.306   3.158
 4484SOL    HW213785   2.819   2.221   3.025
 4485SOL     OW13786   2.903   2.563   2.291
 4485SOL    HW113787   2.929   2.559   2.387
 4485SOL    HW213788   2.818   2.512   2.277
 4486SOL     OW13789   1.938   2.673   2.651
 4486SOL    HW113790   2.037   2.661   2.660
 4486SOL    HW213791   1.914   2.768   2.672
 4487SOL     OW13792   1.992   3.683   3.433
 4487SOL    HW113793   1.982   3.668   3.532
 4487SOL    HW213794   1.906   3.719   3.397
 4488SOL     OW13795   2.727   2.210   2.057
 4488SOL    HW113796   2.786   2.273   2.008
 4488SOL    HW213797   2.746   2.116   2.028
 4489SOL     OW13798   3.581   2.447   3.693
 4489SOL    HW113799   3.555   2.536   3.657
 4489SOL    HW213800   3.579   2.379   3.620
 4490SOL     OW13801   3.224   3.006   2.407
 4490SOL    HW113802   3.307   2.977   2.359
 4490SOL    HW213803   3.175   3.073   2.351
 4491SOL     OW13804   2.870   3.318   2.339
 4491SOL    HW113805   2.824   3.390   2.287
 4491SOL    HW213806   2.866   3.338   2.437
 4492SOL     OW13807   2.213   3.663   2.715
 4492SOL    HW113808   2.263   3.577   2.721
 4492SOL    HW213809   2.278   3.740   2.712
 4493SOL     OW13810   3.657   2.928   2.735
 4493SOL    HW113811   3.595   2.913   2.659
 4493SOL    HW213812   3.605   2.939   2.820
 4494SOL     OW13813   3.089   3.412   3.368
 4494SOL    HW113814   3.095   3.335   3.432
 4494SOL    HW213815   3.037   3.386   3.288
 4495SOL     OW13816   2.183   2.805   2.104
 4495SOL    HW113817   2.265   2.844   2.062
 4495SOL    HW213818   2.156   2.723   2.055
 4496SOL     OW13819   3.320   2.597   2.590
 4496SOL    HW113820   3.315   2.532   2.665
 4496SOL    HW213821   3.400   2.656   2.603
 4497SOL     OW13822   2.323   3.128   3.589
 4497SOL    HW113823   2.273   3.129   3.503
 4497SOL    HW213824   2.260   3.110   3.665
 4498SOL     OW13825   2.973   3.638   2.099
 4498SOL    HW113826   2.913   3.576   2.149
 4498SOL    HW213827   3.004   3.594   2.014
 4499SOL     OW13828   3.494   3.239   1.943
 4499SOL    HW113829   3.462   3.333   1.933
 4499SOL    HW213830   3.418   3.176   1.931
 4500SOL     OW13831   2.326   3.605   2.185
 4500SOL    HW113832   2.359   3.644   2.271
 4500SOL    HW213833   2.402   3.598   2.120
 4501SOL     OW13834   3.262   1.969   2.288
 4501SOL    HW113835   3.238   1.932   2.198
 4501SOL    HW213836   3.361   1.985   2.292
 4502SOL     OW13837   2.111   3.647   3.103
 4502SOL    HW113838   2.168   3.582   3.153
 4502SOL    HW213839   2.095   3.614   3.010
 4503SOL     OW13840   2.802   3.560   2.766
 4503SOL    HW113841   2.882   3.503   2.787
 4503SOL    HW213842   2.753   3.520   2.689
 4504SOL     OW13843   3.409   2.084   3.591
 4504SOL    HW113844   3.404   2.121   3.683
 4504SOL    HW213845   3.337   2.015   3.579
 4505SOL     OW13846   2.476   1.984   1.979
 4505SOL    HW113847   2.574   1.962   1.986
 4505SOL    HW213848   2.445   1.967   1.886
 4506SOL     OW13849   2.643   2.126   3.611
 4506SOL    HW113850   2.710   2.065   3.654
 4506SOL    HW213851   2.570   2.145   3.676
 4507SOL     OW13852   2.750   3.376   3.057
 4507SOL    HW113853   2.727   3.351   2.963
 4507SOL    HW213854   2.811   3.307   3.096
 4508SOL     OW13855   3.213   2.452   3.295
 4508SOL    HW113856   3.241   2.409   3.380
 4508SOL    HW213857   3.238   2.548   3.296
 4509SOL     OW13858   2.665   3.264   2.786
 4509SOL    HW113859   2.755   3.278   2.744
 4509SOL    HW213860   2.594   3.266   2.715
 4510SOL     OW13861   2.784   2.365   2.761
 4510SOL    HW113862   2.759   2.356   2.665
 4510SOL    HW213863   2.832   2.283   2.792
 4511SOL     OW13864   2.401   1.926   2.374
 4511SOL    HW113865   2.320   1.927   2.432
 4511SOL    HW213866   2.404   2.009   2.319
 4512SOL     OW13867   3.296   3.050   1.903
 4512SOL    HW113868   3.328   2.974   1.960
 4512SOL    HW213869   3.204   3.077   1.933
 4513SOL     OW13870   2.159   1.897   2.033
 4513SOL    HW113871   2.208   1.981   2.012
 4513SOL    HW213872   2.221   1.832   2.078
 4514SOL     OW13873   2.797   2.098   2.342
 4514SOL    HW113874   2.749   2.139   2.264
 4514SOL    HW213875   2.896   2.096   2.323
 4515SOL     OW13876   2.938   2.545   3.326
 4515SOL    HW113877   2.858   2.484   3.329
 4515SOL    HW213878   3.019   2.492   3.302
 4516SOL     OW13879   3.089   3.432   2.655
 4516SOL    HW113880   3.110   3.506   2.590
 4516SOL    HW213881   3.157   3.432   2.728
 4517SOL     OW13882   2.321   3.014   2.603
 4517SOL    HW113883   2.250   2.987   2.668
 4517SOL    HW213884   2.295   2.986   2.510
 4518SOL     OW13885   3.133   3.659   2.453
 4518SOL    HW113886   3.177   3.723   2.389
 4518SOL    HW213887   3.083   3.711   2.523
 4519SOL     OW13888   2.894   2.411   1.878
 4519SOL    HW113889   2.853   2.493   1.839
 4519SOL    HW213890   2.958   2.437   1.951
 4520SOL     OW13891   1.940   2.418   3.248
 4520SOL    HW113892   2.032   2.417   3.207
 4520SOL    HW213893   1.934   2.492   3.315
 4521SOL     OW13894   2.423   2.084   3.009
 4521SOL    HW113895   2.461   2.000   3.046
 4521SOL    HW213896   2.335   2.103   3.053
 4522SOL     OW13897   2.728   2.316   2.504
 4522SOL    HW113898   2.696   2.388   2.442
 4522SOL    HW213899   2.752   2.235   2.451
 4523SOL     OW13900   2.879   1.901   2.615
 4523SOL    HW113901   2.807   1.906   2.546
 4523SOL    HW213902   2.855   1.832   2.684
 4524SOL     OW13903   3.291   3.035   2.729
 4524SOL    HW113904   3.236   2.951   2.722
 4524SOL    HW213905   3.317   3.064   2.637
 4525SOL     OW13906   3.328   2.452   2.854
 4525SOL    HW113907   3.298   2.357   2.861
 4525SOL    HW213908   3.401   2.468   2.920
 4526SOL     OW13909   3.719   2.695   2.239
 4526SOL    HW113910   3.761   2.631   2.303
 4526SOL    HW213911   3.681   2.644   2.161
 4527SOL     OW13912   2.350   3.247   2.036
 4527SOL    HW113913   2.263   3.232   2.083
 4527SOL    HW213914   2.333   3.273   1.941
 4528SOL     OW13915   3.526   3.142   2.519
 4528SOL    HW113916   3.625   3.150   2.533
 4528SOL    HW213917   3.481   3.226   2.550
 4529SOL     OW13918   3.252   2.437   1.940
 4529SOL    HW113919   3.198   2.416   2.021
 4529SOL    HW213920   3.343   2.396   1.949
 4530SOL     OW13921   3.616   3.085   3.450
 4530SOL    HW113922   3.707   3.046   3.437
 4530SOL    HW213923   3.624   3.181   3.474
 4531SOL     OW13924   2.926   3.209   3.202
 4531SOL    HW113925   2.846   3.186   3.257
 4531SOL    HW213926   3.009   3.183   3.251
 4532SOL     OW13927   3.454   3.491   3.487
 4532SOL    HW113928   3.481   3.525   3.397
 4532SOL    HW213929   3.533   3.453   3.533
 4533SOL     OW13930   2.973   3.057   2.962
 4533SOL    HW113931   2.933   3.101   3.043
 4533SOL    HW213932   2.932   3.094   2.879
 4534SOL     OW13933   3.500   2.961   2.941
 4534SOL    HW113934   3.505   3.042   3.000
 4534SOL    HW213935   3.414   2.963   2.890
 4535SOL     OW13936   2.777   1.951   3.264
 4535SOL    HW113937   2.802   1.931   3.169
 4535SOL    HW213938   2.849   2.007   3.306
 4536SOL     OW13939   2.842   2.978   3.581
 4536SOL    HW113940   2.743   2.984   3.591
 4536SOL    HW213941   2.865   2.898   3.525
 4537SOL     OW13942   2.567   2.912   2.230
 4537SOL    HW113943   2.553   2.919   2.329
 4537SOL    HW213944   2.651   2.861   2.212
 4538SOL     OW13945   2.272   2.675   3.113
 4538SOL    HW113946   2.358   2.687   3.163
 4538SOL    HW213947   2.230   2.588   3.140
 4539SOL     OW13948   3.136   2.248   3.124
 4539SOL    HW113949   3.157   2.322   3.188
 4539SOL    HW213950   3.047   2.265   3.081
 4540SOL     OW13951   1.926   3.426   3.193
 4540SOL    HW113952   1.880   3.508   3.159
 4540SOL    HW213953   2.024   3.445   3.202
 4541SOL     OW13954   2.229   2.962   2.363
 4541SOL    HW113955   2.222   3.045   2.307
 4541SOL    HW213956   2.233   2.882   2.303
 4542SOL     OW13957   2.428   2.399   2.727
 4542SOL    HW113958   2.440   2.465   2.653
 4542SOL    HW213959   2.474   2.433   2.810
 4543SOL     OW13960   3.114   3.210   2.250
 4543SOL    HW113961   3.164   3.287   2.290
 4543SOL    HW213962   3.019   3.212   2.282
 4544SOL     OW13963   3.134   3.307   3.004
 4544SOL    HW113964   3.181   3.320   3.091
 4544SOL    HW213965   3.068   3.233   3.013
 4545SOL     OW13966   3.444   2.501   2.334
 4545SOL    HW113967   3.413   2.562   2.407
 4545SOL    HW213968   3.494   2.553   2.265
 4546SOL     OW13969   2.216   3.372   3.191
 4546SOL    HW113970   2.195   3.328   3.104
 4546SOL    HW213971   2.313   3.398   3.194
 4547SOL     OW13972   2.264   2.613   3.460
 4547SOL    HW113973   2.332   2.668   3.413
 4547SOL    HW213974   2.304   2.525   3.487
 4548SOL     OW13975   3.449   2.641   3.532
 4548SOL    HW113976   3.357   2.679   3.527
 4548SOL    HW213977   3.509   2.688   3.467
 4549SOL     OW13978   2.875   1.967   3.632
 4549SOL    HW113979   2.881   2.052   3.580
 4549SOL    HW213980   2.907   1.891   3.575
 4550SOL     OW13981   2.366   1.912   3.602
 4550SOL    HW113982   2.324   1.855   3.532
 4550SOL    HW213983   2.300   1.981   3.634
 4551SOL     OW13984   2.435   2.732   2.891
 4551SOL    HW113985   2.479   2.821   2.882
 4551SOL    HW213986   2.372   2.732   2.968
 4552SOL     OW13987   3.222   2.724   2.907
 4552SOL    HW113988   3.147   2.724   2.841
 4552SOL    HW213989   3.259   2.632   2.916
 4553SOL     OW13990   3.071   2.387   2.137
 4553SOL    HW113991   3.084   2.303   2.191
 4553SOL    HW213992   3.042   2.461   2.197
 4554SOL     OW13993   1.899   3.172   3.144
 4554SOL    HW113994   1.952   3.123   3.212
 4554SOL    HW213995   1.921   3.270   3.149
 4555SOL     OW13996   2.594   2.496   2.926
 4555SOL    HW113997   2.653   2.470   2.850
 4555SOL    HW213998   2.566   2.592   2.915
 4556SOL     OW13999   3.590   2.797   3.716
 4556SOL    HW114000   3.544   2.790   3.627
 4556SOL    HW214001   3.528   2.841   3.782
 4557SOL     OW14002   3.484   2.229   2.236
 4557SOL    HW114003   3.486   2.153   2.300
 4557SOL    HW214004   3.436   2.306   2.276
 4558SOL     OW14005   2.885   2.628   2.828
 4558SOL    HW114006   2.900   2.649   2.924
 4558SOL    HW214007   2.855   2.533   2.819
 4559SOL     OW14008   2.842   3.435   3.562
 4559SOL    HW114009   2.822   3.479   3.474
 4559SOL    HW214010   2.881   3.344   3.546
 4560SOL     OW14011   3.721   3.380   3.467
 4560SOL    HW114012   3.735   3.407   3.372
 4560SOL    HW214013   3.804   3.402   3.520
 4561SOL     OW14014   2.212   2.760   3.666
 4561SOL    HW114015   2.288   2.804   3.714
 4561SOL    HW214016   2.247   2.713   3.584
 4562SOL     OW14017   3.402   2.136   1.987
 4562SOL    HW114018   3.341   2.061   2.010
 4562SOL    HW214019   3.424   2.188   2.070
 4563SOL     OW14020   3.165   2.700   1.904
 4563SOL    HW114021   3.199   2.607   1.919
 4563SOL    HW214022   3.183   2.727   1.809
 4564SOL     OW14023   2.930   3.195   2.711
 4564SOL    HW114024   2.937   3.111   2.656
 4564SOL    HW214025   2.992   3.264   2.675
 4565SOL     OW14026   2.181   2.672   2.811
 4565SOL    HW114027   2.274   2.708   2.816
 4565SOL    HW214028   2.175   2.587   2.863
 4566SOL     OW14029   3.000   2.242   3.540
 4566SOL    HW114030   2.955   2.305   3.604
 4566SOL    HW214031   3.093   2.273   3.523
 4567SOL     OW14032   3.022   2.069   3.339
 4567SOL    HW114033   3.022   2.133   3.416
 4567SOL    HW214034   3.050   2.117   3.256
 4568SOL     OW14035   1.870   3.188   2.062
 4568SOL    HW114036   1.777   3.209   2.031
 4568SOL    HW214037   1.880   3.089   2.075
 4569SOL     OW14038   1.950   3.663   2.789
 4569SOL    HW114039   1.908   3.577   2.762
 4569SOL    HW214040   2.044   3.666   2.755
 4570SOL     OW14041   2.366   3.430   2.772
 4570SOL    HW114042   2.432   3.504   2.781
 4570SOL    HW214043   2.410   3.351   2.730
 4571SOL     OW14044   2.864   2.658   3.100
 4571SOL    HW114045   2.905   2.626   3.186
 4571SOL    HW214046   2.768   2.631   3.097
 4572SOL     OW14047   1.902   2.406   2.976
 4572SOL    HW114048   1.987   2.373   2.935
 4572SOL    HW214049   1.915   2.421   3.074
 4573SOL     OW14050   3.231   2.812   3.522
 4573SOL    HW114051   3.270   2.901   3.542
 4573SOL    HW214052   3.241   2.792   3.425
 4574SOL     OW14053   2.677   2.434   2.187
 4574SOL    HW114054   2.684   2.345   2.141
 4574SOL    HW214055   2.583   2.468   2.179
 4575SOL     OW14056   3.519   2.466   3.068
 4575SOL    HW114057   3.481   2.397   3.130
 4575SOL    HW214058   3.601   2.430   3.024
 4576SOL     OW14059   2.114   3.426   3.606
 4576SOL    HW114060   2.084   3.483   3.682
 4576SOL    HW214061   2.107   3.329   3.632
 4577SOL     OW14062   2.792   3.540   3.327
 4577SOL    HW114063   2.768   3.522   3.232
 4577SOL    HW214064   2.822   3.634   3.337
 4578SOL     OW14065   2.021   2.999   3.328
 4578SOL    HW114066   2.043   2.938   3.404
 4578SOL    HW214067   2.031   2.950   3.242
 4579SOL     OW14068   3.209   2.921   3.096
 4579SOL    HW114069   3.233   2.858   3.022
 4579SOL    HW214070   3.119   2.961   3.078
 4580SOL     OW14071   3.164   2.717   2.171
 4580SOL    HW114072   3.078   2.686   2.213
 4580SOL    HW214073   3.160   2.703   2.072
 4581SOL     OW14074   3.621   3.609   3.016
 4581SOL    HW114075   3.682   3.639   2.943
 4581SOL    HW214076   3.583   3.520   2.994
 4582SOL     OW14077   3.114   3.593   2.990
 4582SOL    HW114078   3.198   3.598   2.936
 4582SOL    HW214079   3.091   3.497   3.008
 4583SOL     OW14080   1.945   3.120   2.884
 4583SOL    HW114081   1.940   3.119   2.984
 4583SOL    HW214082   1.862   3.079   2.846
 4584SOL     OW14083   2.550   3.524   3.578
 4584SOL    HW114084   2.494   3.605   3.587
 4584SOL    HW214085   2.602   3.528   3.492
 4585SOL     OW14086   3.588   1.997   2.385
 4585SOL    HW114087   3.661   1.980   2.318
 4585SOL    HW214088   3.557   1.910   2.423
 4586SOL     OW14089   3.250   3.435   2.339
 4586SOL    HW114090   3.317   3.447   2.265
 4586SOL    HW214091   3.210   3.524   2.362
 4587SOL     OW14092   1.992   3.656   3.713
 4587SOL    HW114093   1.951   3.582   3.766
 4587SOL    HW214094   2.056   3.707   3.771
 4588SOL     OW14095   3.142   2.789   2.534
 4588SOL    HW114096   3.202   2.708   2.536
 4588SOL    HW214097   3.182   2.858   2.474
 4589SOL     OW14098   2.692   3.135   3.284
 4589SOL    HW114099   2.687   3.168   3.379
 4589SOL    HW214100   2.606   3.154   3.238
 4590SOL     OW14101   2.534   3.478   2.016
 4590SOL    HW114102   2.543   3.488   1.917
 4590SOL    HW214103   2.494   3.389   2.037
 4591SOL     OW14104   3.512   3.582   3.256
 4591SOL    HW114105   3.565   3.592   3.172
 4591SOL    HW214106   3.485   3.672   3.290
 4592SOL     OW14107   3.703   2.037   2.825
 4592SOL    HW114108   3.742   1.952   2.789
 4592SOL    HW214109   3.605   2.039   2.806
 4593SOL     OW14110   3.056   3.474   1.893
 4593SOL    HW114111   3.062   3.381   1.930
 4593SOL    HW214112   2.997   3.474   1.813
 4594SOL     OW14113   2.684   2.864   3.234
 4594SOL    HW114114   2.724   2.863   3.142
 4594SOL    HW214115   2.694   2.956   3.274
 4595SOL     OW14116   2.778   2.772   2.153
 4595SOL    HW114117   2.841   2.810   2.085
 4595SOL    HW214118   2.818   2.689   2.192
 4596SOL     OW14119   3.366   3.469   1.906
 4596SOL    HW114120   3.274   3.506   1.913
 4596SOL    HW214121   3.404   3.489   1.816
 4597SOL     OW14122   2.234   3.150   3.352
 4597SOL    HW114123   2.221   3.243   3.318
 4597SOL    HW214124   2.150   3.098   3.339
 4598SOL     OW14125   3.476   3.154   3.151
 4598SOL    HW114126   3.536   3.157   3.231
 4598SOL    HW214127   3.401   3.218   3.164
 4599SOL     OW14128   2.901   2.960   2.558
 4599SOL    HW114129   2.831   2.913   2.612
 4599SOL    HW214130   2.960   2.892   2.515
 4600SOL     OW14131   2.876   2.098   2.833
 4600SOL    HW114132   2.868   2.062   2.740
 4600SOL    HW214133   2.874   2.022   2.898
 4601SOL     OW14134   2.452   3.349   2.353
 4601SOL    HW114135   2.494   3.291   2.283
 4601SOL    HW214136   2.408   3.428   2.309
 4602SOL     OW14137   3.571   2.247   3.243
 4602SOL    HW114138   3.644   2.316   3.247
 4602SOL    HW214139   3.599   2.172   3.184
 4603SOL     OW14140   2.117   3.210   2.152
 4603SOL    HW114141   2.021   3.211   2.125
 4603SOL    HW214142   2.129   3.263   2.236
 4604SOL     OW14143   1.967   2.875   3.588
 4604SOL    HW114144   1.890   2.842   3.642
 4604SOL    HW214145   2.052   2.845   3.630
 4605SOL     OW14146   2.534   2.065   3.351
 4605SOL    HW114147   2.624   2.049   3.311
 4605SOL    HW214148   2.542   2.070   3.450
 4606SOL     OW14149   1.937   2.207   1.895
 4606SOL    HW114150   1.845   2.179   1.866
 4606SOL    HW214151   1.968   2.284   1.839
 4607SOL     OW14152   3.302   2.718   3.260
 4607SOL    HW114153   3.245   2.770   3.197
 4607SOL    HW214154   3.398   2.730   3.236
 4608SOL     OW14155   1.934   2.028   2.180
 4608SOL    HW114156   1.917   2.111   2.126
 4608SOL    HW214157   2.024   1.991   2.158
 4609SOL     OW14158   3.045   3.197   1.981
 4609SOL    HW114159   2.946   3.186   1.983
 4609SOL    HW214160   3.079   3.212   2.074
 4610SOL     OW14161   2.475   2.704   3.293
 4610SOL    HW114162   2.531   2.785   3.276
 4610SOL    HW214163   2.534   2.624   3.296
 4611SOL     OW14164   3.355   3.629   2.821
 4611SOL    HW114165   3.388   3.693   2.752
 4611SOL    HW214166   3.421   3.623   2.896
 4612SOL     OW14167   2.578   2.427   3.570
 4612SOL    HW114168   2.597   2.492   3.644
 4612SOL    HW214169   2.638   2.347   3.579
 4613SOL     OW14170   3.312   3.082   3.495
 4613SOL    HW114171   3.303   3.072   3.594
 4613SOL    HW214172   3.408   3.075   3.469
 4614SOL     OW14173   2.252   3.603   3.422
 4614SOL    HW114174   2.161   3.644   3.420
 4614SOL    HW214175   2.245   3.509   3.454
 4615SOL     OW14176   3.536   2.745   3.116
 4615SOL    HW114177   3.509   2.656   3.079
 4615SOL    HW214178   3.537   2.813   3.043
 4616SOL     OW14179   3.087   2.187   2.311
 4616SOL    HW114180   3.152   2.113   2.300
 4616SOL    HW214181   3.107   2.237   2.395
 4617SOL     OW14182   2.456   2.607   2.514
 4617SOL    HW114183   2.506   2.692   2.495
 4617SOL    HW214184   2.368   2.609   2.466
 4618SOL     OW14185   3.639   2.204   3.504
 4618SOL    HW114186   3.622   2.235   3.410
 4618SOL    HW214187   3.555   2.167   3.542
 4619SOL     OW14188   3.592   2.796   3.379
 4619SOL    HW114189   3.630   2.887   3.394
 4619SOL    HW214190   3.584   2.779   3.280
 4620SOL     OW14191   2.721   3.236   1.878
 4620SOL    HW114192   2.675   3.251   1.966
 4620SOL    HW214193   2.765   3.321   1.848
 4621SOL     OW14194   2.523   3.652   2.815
 4621SOL    HW114195   2.477   3.740   2.802
 4621SOL    HW214196   2.622   3.664   2.808
 4622SOL     OW14197   2.721   2.818   2.723
 4622SOL    HW114198   2.775   2.749   2.771
 4622SOL    HW214199   2.689   2.887   2.789
 4623SOL     OW14200   2.945   2.846   1.949
 4623SOL    HW114201   2.922   2.899   1.867
 4623SOL    HW214202   3.026   2.790   1.930
 4624SOL     OW14203   3.723   3.431   2.713
 4624SOL    HW114204   3.652   3.419   2.643
 4624SOL    HW214205   3.724   3.352   2.773
 4625SOL     OW14206   2.083   3.176   3.706
 4625SOL    HW114207   2.018   3.103   3.685
 4625SOL    HW214208   2.087   3.190   3.804
 4626SOL     OW14209   1.941   3.102   2.515
 4626SOL    HW114210   1.940   3.055   2.603
 4626SOL    HW214211   2.023   3.074   2.464
 4627SOL     OW14212   2.534   3.253   3.486
 4627SOL    HW114213   2.456   3.203   3.524
 4627SOL    HW214214   2.531   3.348   3.517
 4628SOL     OW14215   3.686   2.054   3.089
 4628SOL    HW114216   3.682   1.964   3.133
 4628SOL    HW214217   3.689   2.043   2.990
 4629SOL     OW14218   3.567   3.349   2.966
 4629SOL    HW114219   3.474   3.324   2.939
 4629SOL    HW214220   3.593   3.299   3.048
 4630SOL     OW14221   2.674   3.448   2.549
 4630SOL    HW114222   2.706   3.458   2.455
 4630SOL    HW214223   2.595   3.386   2.551
 4631SOL     OW14224   3.286   2.076   2.974
 4631SOL    HW114225   3.338   2.011   3.029
 4631SOL    HW214226   3.237   2.139   3.035
 4632SOL     OW14227   2.863   1.896   3.016
 4632SOL    HW114228   2.800   1.824   2.985
 4632SOL    HW214229   2.956   1.860   3.016
 4633SOL     OW14230   2.632   3.192   2.163
 4633SOL    HW114231   2.586   3.105   2.180
 4633SOL    HW214232   2.723   3.189   2.204
 4634SOL     OW14233   2.480   3.429   3.146
 4634SOL    HW114234   2.475   3.511   3.203
 4634SOL    HW214235   2.569   3.426   3.101
 4635SOL     OW14236   3.214   1.914   2.030
 4635SOL    HW114237   3.249   1.873   1.946
 4635SOL    HW214238   3.124   1.876   2.050
 4636SOL     OW14239   3.162   2.315   2.553
 4636SOL    HW114240   3.103   2.395   2.557
 4636SOL    HW214241   3.177   2.280   2.646
 4637SOL     OW14242   3.455   2.083   2.744
 4637SOL    HW114243   3.371   2.082   2.798
 4637SOL    HW214244   3.457   2.166   2.688
 4638SOL     OW14245   1.901   2.939   2.162
 4638SOL    HW114246   2.000   2.928   2.153
 4638SOL    HW214247   1.861   2.853   2.194
 4639SOL     OW14248   2.737   3.508   2.199
 4639SOL    HW114249   2.660   3.473   2.145
 4639SOL    HW214250   2.705   3.579   2.261
 4640SOL     OW14251   2.092   2.490   3.837
 4640SOL    HW114252   1.999   2.488   3.874
 4640SOL    HW214253   2.093   2.451   3.745
 4641SOL     OW14254   1.881   2.230   4.371
 4641SOL    HW114255   1.799   2.273   4.410
 4641SOL    HW214256   1.853   2.157   4.308
 4642SOL     OW14257   2.431   3.137   4.889
 4642SOL    HW114258   2.338   3.130   4.852
 4642SOL    HW214259   2.442   3.226   4.933
 4643SOL     OW14260   3.417   3.373   4.427
 4643SOL    HW114261   3.360   3.357   4.508
 4643SOL    HW214262   3.358   3.383   4.347
 4644SOL     OW14263   2.997   2.565   4.441
 4644SOL    HW114264   3.054   2.643   4.416
 4644SOL    HW214265   2.937   2.591   4.517
 4645SOL     OW14266   3.617   2.469   3.955
 4645SOL    HW114267   3.605   2.456   3.856
 4645SOL    HW214268   3.587   2.388   4.004
 4646SOL     OW14269   2.630   3.006   4.747
 4646SOL    HW114270   2.552   3.023   4.807
 4646SOL    HW214271   2.664   3.093   4.711
 4647SOL     OW14272   2.547   2.874   4.389
 4647SOL    HW114273   2.616   2.858   4.459
 4647SOL    HW214274   2.474   2.931   4.427
 4648SOL     OW14275   2.548   3.023   5.527
 4648SOL    HW114276   2.608   3.102   5.541
 4648SOL    HW214277   2.462   3.054   5.486
 4649SOL     OW14278   2.197   3.297   4.785
 4649SOL    HW114279   2.119   3.266   4.732
 4649SOL    HW214280   2.255   3.355   4.728
 4650SOL     OW14281   3.322   3.367   5.063
 4650SOL    HW114282   3.346   3.461   5.089
 4650SOL    HW214283   3.306   3.313   5.145
 4651SOL     OW14284   3.465   2.309   4.461
 4651SOL    HW114285   3.391   2.355   4.411
 4651SOL    HW214286   3.516   2.377   4.514
 4652SOL     OW14287   2.093   3.575   4.207
 4652SOL    HW114288   2.127   3.652   4.261
 4652SOL    HW214289   2.137   3.575   4.117
 4653SOL     OW14290   2.989   3.203   5.414
 4653SOL    HW114291   3.036   3.203   5.502
 4653SOL    HW214292   2.941   3.116   5.403
 4654SOL     OW14293   2.092   3.296   4.262
 4654SOL    HW114294   2.066   3.392   4.262
 4654SOL    HW214295   2.021   3.242   4.307
 4655SOL     OW14296   2.102   2.953   4.610
 4655SOL    HW114297   2.116   2.869   4.662
 4655SOL    HW214298   2.047   3.017   4.665
 4656SOL     OW14299   2.482   3.648   5.163
 4656SOL    HW114300   2.390   3.631   5.198
 4656SOL    HW214301   2.510   3.740   5.189
 4657SOL     OW14302   2.468   2.826   3.847
 4657SOL    HW114303   2.475   2.910   3.793
 4657SOL    HW214304   2.514   2.839   3.935
 4658SOL     OW14305   3.456   1.976   5.204
 4658SOL    HW114306   3.438   2.043   5.132
 4658SOL    HW214307   3.453   2.022   5.293
 4659SOL     OW14308   1.984   2.505   4.287
 4659SOL    HW114309   1.939   2.417   4.304
 4659SOL    HW214310   1.983   2.559   4.371
 4660SOL     OW14311   3.704   3.629   4.083
 4660SOL    HW114312   3.758   3.600   4.163
 4660SOL    HW214313   3.734   3.719   4.054
 4661SOL     OW14314   1.889   3.458   3.841
 4661SOL    HW114315   1.870   3.362   3.862
 4661SOL    HW214316   1.856   3.516   3.916
 4662SOL     OW14317   3.551   2.784   4.336
 4662SOL    HW114318   3.646   2.755   4.344
 4662SOL    HW214319   3.543   2.849   4.261
 4663SOL     OW14320   3.503   2.970   4.156
 4663SOL    HW114321   3.589   2.972   4.104
 4663SOL    HW214322   3.517   3.017   4.244
 4664SOL     OW14323   2.475   3.227   4.450
 4664SOL    HW114324   2.426   3.140   4.459
 4664SOL    HW214325   2.452   3.270   4.363
 4665SOL     OW14326   3.155   3.090   5.147
 4665SOL    HW114327   3.192   3.017   5.089
 4665SOL    HW214328   3.207   3.095   5.232
 4666SOL     OW14329   2.671   1.866   4.226
 4666SOL    HW114330   2.711   1.957   4.217
 4666SOL    HW214331   2.571   1.874   4.232
 4667SOL     OW14332   2.059   2.838   4.988
 4667SOL    HW114333   2.148   2.793   4.974
 4667SOL    HW214334   1.986   2.773   4.969
 4668SOL     OW14335   3.387   2.861   3.914
 4668SOL    HW114336   3.324   2.785   3.927
 4668SOL    HW214337   3.435   2.879   4.000
 4669SOL     OW14338   3.049   3.654   5.340
 4669SOL    HW114339   3.073   3.714   5.264
 4669SOL    HW214340   3.056   3.559   5.310
 4670SOL     OW14341   3.328   3.279   4.677
 4670SOL    HW114342   3.269   3.285   4.757
 4670SOL    HW214343   3.313   3.191   4.631
 4671SOL     OW14344   3.529   3.576   4.296
 4671SOL    HW114345   3.488   3.553   4.208
 4671SOL    HW214346   3.511   3.502   4.361
 4672SOL     OW14347   2.460   2.591   3.994
 4672SOL    HW114348   2.484   2.660   3.926
 4672SOL    HW214349   2.382   2.624   4.048
 4673SOL     OW14350   3.143   2.207   4.668
 4673SOL    HW114351   3.057   2.157   4.655
 4673SOL    HW214352   3.205   2.153   4.724
 4674SOL     OW14353   3.438   3.524   4.031
 4674SOL    HW114354   3.527   3.570   4.034
 4674SOL    HW214355   3.417   3.500   3.936
 4675SOL     OW14356   3.256   2.331   5.398
 4675SOL    HW114357   3.236   2.374   5.486
 4675SOL    HW214358   3.334   2.269   5.407
 4676SOL     OW14359   2.853   2.272   4.966
 4676SOL    HW114360   2.776   2.306   5.020
 4676SOL    HW214361   2.819   2.221   4.887
 4677SOL     OW14362   2.903   2.563   4.153
 4677SOL    HW114363   2.929   2.559   4.249
 4677SOL    HW214364   2.818   2.512   4.139
 4678SOL     OW14365   1.938   2.673   4.513
 4678SOL    HW114366   2.037   2.661   4.522
 4678SOL    HW214367   1.914   2.768   4.534
 4679SOL     OW14368   1.992   3.683   5.295
 4679SOL    HW114369   1.982   3.668   5.394
 4679SOL    HW214370   1.906   3.719   5.259
 4680SOL     OW14371   2.727   2.210   3.919
 4680SOL    HW114372   2.786   2.273   3.870
 4680SOL    HW214373   2.746   2.116   3.890
 4681SOL     OW14374   3.581   2.447   5.555
 4681SOL    HW114375   3.555   2.536   5.519
 4681SOL    HW214376   3.579   2.379   5.482
 4682SOL     OW14377   3.224   3.006   4.269
 4682SOL    HW114378   3.307   2.977   4.221
 4682SOL    HW214379   3.175   3.073   4.213
 4683SOL     OW14380   2.870   3.318   4.201
 4683SOL    HW114381   2.824   3.390   4.149
 4683SOL    HW214382   2.866   3.338   4.299
 4684SOL     OW14383   2.213   3.663   4.577
 4684SOL    HW114384   2.263   3.577   4.583
 4684SOL    HW214385   2.278   3.740   4.574
 4685SOL     OW14386   3.657   2.928   4.597
 4685SOL    HW114387   3.595   2.913   4.521
 4685SOL    HW214388   3.605   2.939   4.682
 4686SOL     OW14389   3.089   3.412   5.230
 4686SOL    HW114390   3.095   3.335   5.294
 4686SOL    HW214391   3.037   3.386   5.150
 4687SOL     OW14392   2.183   2.805   3.966
 4687SOL    HW114393   2.265   2.844   3.924
 4687SOL    HW214394   2.156   2.723   3.917
 4688SOL     OW14395   3.320   2.597   4.452
 4688SOL    HW114396   3.315   2.532   4.527
 4688SOL    HW214397   3.400   2.656   4.465
 4689SOL     OW14398   2.323   3.128   5.451
 4689SOL    HW114399   2.273   3.129   5.365
 4689SOL    HW214400   2.260   3.110   5.527
 4690SOL     OW14401   2.973   3.638   3.961
 4690SOL    HW114402   2.913   3.576   4.011
 4690SOL    HW214403   3.004   3.594   3.876
 4691SOL     OW14404   3.494   3.239   3.805
 4691SOL    HW114405   3.462   3.333   3.795
 4691SOL    HW214406   3.418   3.176   3.793
 4692SOL     OW14407   2.326   3.605   4.047
 4692SOL    HW114408   2.359   3.644   4.133
 4692SOL    HW214409   2.402   3.598   3.982
 4693SOL     OW14410   3.262   1.969   4.150
 4693SOL    HW114411   3.238   1.932   4.060
 4693SOL    HW214412   3.361   1.985   4.154
 4694SOL     OW14413   2.111   3.647   4.965
 4694SOL    HW114414   2.168   3.582   5.015
 4694SOL    HW214415   2.095   3.614   4.872
 4695SOL     OW14416   2.802   3.560   4.628
 4695SOL    HW114417   2.882   3.503   4.649
 4695SOL    HW214418   2.753   3.520   4.551
 4696SOL     OW14419   3.409   2.084   5.453
 4696SOL    HW114420   3.404   2.121   5.545
 4696SOL    HW214421   3.337   2.015   5.441
 4697SOL     OW14422   2.476   1.984   3.841
 4697SOL    HW114423   2.574   1.962   3.848
 4697SOL    HW214424   2.445   1.967   3.748
 4698SOL     OW14425   2.750   3.376   4.919
 4698SOL    HW114426   2.727   3.351   4.825
 4698SOL    HW214427   2.811   3.307   4.958
 4699SOL     OW14428   3.213   2.452   5.157
 4699SOL    HW114429   3.241   2.409   5.242
 4699SOL    HW214430   3.238   2.548   5.158
 4700SOL     OW14431   2.665   3.264   4.648
 4700SOL    HW114432   2.755   3.278   4.606
 4700SOL    HW214433   2.594   3.266   4.577
 4701SOL     OW14434   2.784   2.365   4.623
 4701SOL    HW114435   2.759   2.356   4.527
 4701SOL    HW214436   2.832   2.283   4.654
 4702SOL     OW14437   2.401   1.926   4.236
 4702SOL    HW114438   2.320   1.927   4.294
 4702SOL    HW214439   2.404   2.009   4.181
 4703SOL     OW14440   3.296   3.050   3.765
 4703SOL    HW114441   3.328   2.974   3.822
 4703SOL    HW214442   3.204   3.077   3.795
 4704SOL     OW14443   2.159   1.897   3.895
 4704SOL    HW114444   2.208   1.981   3.874
 4704SOL    HW214445   2.221   1.832   3.940
 4705SOL     OW14446   2.797   2.098   4.204
 4705SOL    HW114447   2.749   2.139   4.126
 4705SOL    HW214448   2.896   2.096   4.185
 4706SOL     OW14449   3.089   3.432   4.517
 4706SOL    HW114450   3.110   3.506   4.452
 4706SOL    HW214451   3.157   3.432   4.590
 4707SOL     OW14452   2.321   3.014   4.465
 4707SOL    HW114453   2.250   2.987   4.530
 4707SOL    HW214454   2.295   2.986   4.372
 4708SOL     OW14455   3.133   3.659   4.315
 4708SOL    HW114456   3.177   3.723   4.251
 4708SOL    HW214457   3.083   3.711   4.385
 4709SOL     OW14458   2.894   2.411   3.740
 4709SOL    HW114459   2.853   2.493   3.701
 4709SOL    HW214460   2.958   2.437   3.813
 4710SOL     OW14461   2.728   2.316   4.366
 4710SOL    HW114462   2.696   2.388   4.304
 4710SOL    HW214463   2.752   2.235   4.313
 4711SOL     OW14464   2.879   1.901   4.477
 4711SOL    HW114465   2.807   1.906   4.408
 4711SOL    HW214466   2.855   1.832   4.546
 4712SOL     OW14467   3.291   3.035   4.591
 4712SOL    HW114468   3.236   2.951   4.584
 4712SOL    HW214469   3.317   3.064   4.499
 4713SOL     OW14470   3.328   2.452   4.716
 4713SOL    HW114471   3.298   2.357   4.723
 4713SOL    HW214472   3.401   2.468   4.782
 4714SOL     OW14473   3.719   2.695   4.101
 4714SOL    HW114474   3.761   2.631   4.165
 4714SOL    HW214475   3.681   2.644   4.023
 4715SOL     OW14476   2.350   3.247   3.898
 4715SOL    HW114477   2.263   3.232   3.945
 4715SOL    HW214478   2.333   3.273   3.803
 4716SOL     OW14479   3.526   3.142   4.381
 4716SOL    HW114480   3.625   3.150   4.395
 4716SOL    HW214481   3.481   3.226   4.412
 4717SOL     OW14482   3.252   2.437   3.802
 4717SOL    HW114483   3.198   2.416   3.883
 4717SOL    HW214484   3.343   2.396   3.811
 4718SOL     OW14485   3.616   3.085   5.312
 4718SOL    HW114486   3.707   3.046   5.299
 4718SOL    HW214487   3.624   3.181   5.336
 4719SOL     OW14488   2.926   3.209   5.064
 4719SOL    HW114489   2.846   3.186   5.119
 4719SOL    HW214490   3.009   3.183   5.113
 4720SOL     OW14491   3.454   3.491   5.349
 4720SOL    HW114492   3.481   3.525   5.259
 4720SOL    HW214493   3.533   3.453   5.395
 4721SOL     OW14494   2.973   3.057   4.824
 4721SOL    HW114495   2.933   3.101   4.905
 4721SOL    HW214496   2.932   3.094   4.741
 4722SOL     OW14497   3.500   2.961   4.803
 4722SOL    HW114498   3.505   3.042   4.862
 4722SOL    HW214499   3.414   2.963   4.752
 4723SOL     OW14500   2.842   2.978   5.443
 4723SOL    HW114501   2.743   2.984   5.453
 4723SOL    HW214502   2.865   2.898   5.387
 4724SOL     OW14503   2.567   2.912   4.092
 4724SOL    HW114504   2.553   2.919   4.191
 4724SOL    HW214505   2.651   2.861   4.074
 4725SOL     OW14506   2.272   2.675   4.975
 4725SOL    HW114507   2.358   2.687   5.025
 4725SOL    HW214508   2.230   2.588   5.002
 4726SOL     OW14509   3.136   2.248   4.986
 4726SOL    HW114510   3.157   2.322   5.050
 4726SOL    HW214511   3.047   2.265   4.943
 4727SOL     OW14512   1.926   3.426   5.055
 4727SOL    HW114513   1.880   3.508   5.021
 4727SOL    HW214514   2.024   3.445   5.064
 4728SOL     OW14515   2.229   2.962   4.225
 4728SOL    HW114516   2.222   3.045   4.169
 4728SOL    HW214517   2.233   2.882   4.165
 4729SOL     OW14518   2.428   2.399   4.589
 4729SOL    HW114519   2.440   2.465   4.515
 4729SOL    HW214520   2.474   2.433   4.672
 4730SOL     OW14521   3.114   3.210   4.112
 4730SOL    HW114522   3.164   3.287   4.152
 4730SOL    HW214523   3.019   3.212   4.144
 4731SOL     OW14524   3.134   3.307   4.866
 4731SOL    HW114525   3.181   3.320   4.953
 4731SOL    HW214526   3.068   3.233   4.875
 4732SOL     OW14527   3.444   2.501   4.196
 4732SOL    HW114528   3.413   2.562   4.269
 4732SOL    HW214529   3.494   2.553   4.127
 4733SOL     OW14530   2.216   3.372   5.053
 4733SOL    HW114531   2.195   3.328   4.966
 4733SOL    HW214532   2.313   3.398   5.056
 4734SOL     OW14533   3.449   2.641   5.394
 4734SOL    HW114534   3.357   2.679   5.389
 4734SOL    HW214535   3.509   2.688   5.329
 4735SOL     OW14536   2.435   2.732   4.753
 4735SOL    HW114537   2.479   2.821   4.744
 4735SOL    HW214538   2.372   2.732   4.830
 4736SOL     OW14539   3.222   2.724   4.769
 4736SOL    HW114540   3.147   2.724   4.703
 4736SOL    HW214541   3.259   2.632   4.778
 4737SOL     OW14542   3.071   2.387   3.999
 4737SOL    HW114543   3.084   2.303   4.053
 4737SOL    HW214544   3.042   2.461   4.059
 4738SOL     OW14545   1.899   3.172   5.006
 4738SOL    HW114546   1.952   3.123   5.074
 4738SOL    HW214547   1.921   3.270   5.011
 4739SOL     OW14548   2.594   2.496   4.788
 4739SOL    HW114549   2.653   2.470   4.712
 4739SOL    HW214550   2.566   2.592   4.777
 4740SOL     OW14551   3.590   2.797   5.578
 4740SOL    HW114552   3.544   2.790   5.489
 4740SOL    HW214553   3.528   2.841   5.644
 4741SOL     OW14554   2.169   1.925   4.342
 4741SOL    HW114555   2.158   2.019   4.375
 4741SOL    HW214556   2.164   1.862   4.419
 4742SOL     OW14557   3.484   2.229   4.098
 4742SOL    HW114558   3.486   2.153   4.162
 4742SOL    HW214559   3.436   2.306   4.138
 4743SOL     OW14560   2.885   2.628   4.690
 4743SOL    HW114561   2.900   2.649   4.786
 4743SOL    HW214562   2.855   2.533   4.681
 4744SOL     OW14563   2.842   3.435   5.424
 4744SOL    HW114564   2.822   3.479   5.336
 4744SOL    HW214565   2.881   3.344   5.408
 4745SOL     OW14566   3.721   3.380   5.329
 4745SOL    HW114567   3.735   3.407   5.234
 4745SOL    HW214568   3.804   3.402   5.382
 4746SOL     OW14569   3.402   2.136   3.849
 4746SOL    HW114570   3.341   2.061   3.872
 4746SOL    HW214571   3.424   2.188   3.932
 4747SOL     OW14572   3.165   2.700   3.766
 4747SOL    HW114573   3.199   2.607   3.781
 4747SOL    HW214574   3.183   2.727   3.671
 4748SOL     OW14575   2.930   3.195   4.573
 4748SOL    HW114576   2.937   3.111   4.518
 4748SOL    HW214577   2.992   3.264   4.537
 4749SOL     OW14578   2.181   2.672   4.673
 4749SOL    HW114579   2.274   2.708   4.678
 4749SOL    HW214580   2.175   2.587   4.725
 4750SOL     OW14581   1.870   3.188   3.924
 4750SOL    HW114582   1.777   3.209   3.893
 4750SOL    HW214583   1.880   3.089   3.937
 4751SOL     OW14584   1.950   3.663   4.651
 4751SOL    HW114585   1.908   3.577   4.624
 4751SOL    HW214586   2.044   3.666   4.617
 4752SOL     OW14587   2.366   3.430   4.634
 4752SOL    HW114588   2.432   3.504   4.643
 4752SOL    HW214589   2.410   3.351   4.592
 4753SOL     OW14590   2.864   2.658   4.962
 4753SOL    HW114591   2.905   2.626   5.048
 4753SOL    HW214592   2.768   2.631   4.959
 4754SOL     OW14593   1.902   2.406   4.838
 4754SOL    HW114594   1.987   2.373   4.797
 4754SOL    HW214595   1.915   2.421   4.936
 4755SOL     OW14596   3.231   2.812   5.384
 4755SOL    HW114597   3.270   2.901   5.404
 4755SOL    HW214598   3.241   2.792   5.287
 4756SOL     OW14599   2.677   2.434   4.049
 4756SOL    HW114600   2.684   2.345   4.003
 4756SOL    HW214601   2.583   2.468   4.041
 4757SOL     OW14602   3.519   2.466   4.930
 4757SOL    HW114603   3.481   2.397   4.992
 4757SOL    HW214604   3.601   2.430   4.886
 4758SOL     OW14605   2.114   3.426   5.468
 4758SOL    HW114606   2.084   3.483   5.544
 4758SOL    HW214607   2.107   3.329   5.494
 4759SOL     OW14608   2.792   3.540   5.189
 4759SOL    HW114609   2.768   3.522   5.094
 4759SOL    HW214610   2.822   3.634   5.199
 4760SOL     OW14611   3.209   2.921   4.958
 4760SOL    HW114612   3.233   2.858   4.884
 4760SOL    HW214613   3.119   2.961   4.940
 4761SOL     OW14614   3.164   2.717   4.033
 4761SOL    HW114615   3.078   2.686   4.075
 4761SOL    HW214616   3.160   2.703   3.934
 4762SOL     OW14617   3.621   3.609   4.878
 4762SOL    HW114618   3.682   3.639   4.805
 4762SOL    HW214619   3.583   3.520   4.856
 4763SOL     OW14620   3.114   3.593   4.852
 4763SOL    HW114621   3.198   3.598   4.798
 4763SOL    HW214622   3.091   3.497   4.870
 4764SOL     OW14623   1.945   3.120   4.746
 4764SOL    HW114624   1.940   3.119   4.846
 4764SOL    HW214625   1.862   3.079   4.708
 4765SOL     OW14626   2.550   3.524   5.440
 4765SOL    HW114627   2.494   3.605   5.449
 4765SOL    HW214628   2.602   3.528   5.354
 4766SOL     OW14629   3.588   1.997   4.247
 4766SOL    HW114630   3.661   1.980   4.180
 4766SOL    HW214631   3.557   1.910   4.285
 4767SOL     OW14632   3.250   3.435   4.201
 4767SOL    HW114633   3.317   3.447   4.127
 4767SOL    HW214634   3.210   3.524   4.224
 4768SOL     OW14635   1.992   3.656   5.575
 4768SOL    HW114636   1.951   3.582   5.628
 4768SOL    HW214637   2.056   3.707   5.633
 4769SOL     OW14638   3.142   2.789   4.396
 4769SOL    HW114639   3.202   2.708   4.398
 4769SOL    HW214640   3.182   2.858   4.336
 4770SOL     OW14641   2.692   3.135   5.146
 4770SOL    HW114642   2.687   3.168   5.241
 4770SOL    HW214643   2.606   3.154   5.100
 4771SOL     OW14644   2.534   3.478   3.878
 4771SOL    HW114645   2.543   3.488   3.779
 4771SOL    HW214646   2.494   3.389   3.899
 4772SOL     OW14647   3.512   3.582   5.118
 4772SOL    HW114648   3.565   3.592   5.034
 4772SOL    HW214649   3.485   3.672   5.152
 4773SOL     OW14650   3.703   2.037   4.687
 4773SOL    HW114651   3.742   1.952   4.651
 4773SOL    HW214652   3.605   2.039   4.668
 4774SOL     OW14653   3.056   3.474   3.755
 4774SOL    HW114654   3.062   3.381   3.792
 4774SOL    HW214655   2.997   3.474   3.675
 4775SOL     OW14656   2.684   2.864   5.096
 4775SOL    HW114657   2.724   2.863   5.004
 4775SOL    HW214658   2.694   2.956   5.136
 4776SOL     OW14659   2.778   2.772   4.015
 4776SOL    HW114660   2.841   2.810   3.947
 4776SOL    HW214661   2.818   2.689   4.054
 4777SOL     OW14662   3.366   3.469   3.768
 4777SOL    HW114663   3.274   3.506   3.775
 4777SOL    HW214664   3.404   3.489   3.678
 4778SOL     OW14665   2.234   3.150   5.214
 4778SOL    HW114666   2.221   3.243   5.180
 4778SOL    HW214667   2.150   3.098   5.201
 4779SOL     OW14668   3.476   3.154   5.013
 4779SOL    HW114669   3.536   3.157   5.093
 4779SOL    HW214670   3.401   3.218   5.026
 4780SOL     OW14671   2.901   2.960   4.420
 4780SOL    HW114672   2.831   2.913   4.474
 4780SOL    HW214673   2.960   2.892   4.377
 4781SOL     OW14674   2.876   2.098   4.695
 4781SOL    HW114675   2.868   2.062   4.602
 4781SOL    HW214676   2.874   2.022   4.760
 4782SOL     OW14677   2.452   3.349   4.215
 4782SOL    HW114678   2.494   3.291   4.145
 4782SOL    HW214679   2.408   3.428   4.171
 4783SOL     OW14680   3.571   2.247   5.105
 4783SOL    HW114681   3.644   2.316   5.109
 4783SOL    HW214682   3.599   2.172   5.046
 4784SOL     OW14683   2.117   3.210   4.014
 4784SOL    HW114684   2.021   3.211   3.987
 4784SOL    HW214685   2.129   3.263   4.098
 4785SOL     OW14686   1.937   2.207   3.757
 4785SOL    HW114687   1.845   2.179   3.728
 4785SOL    HW214688   1.968   2.284   3.701
 4786SOL     OW14689   3.302   2.718   5.122
 4786SOL    HW114690   3.245   2.770   5.059
 4786SOL    HW214691   3.398   2.730   5.098
 4787SOL     OW14692   1.934   2.028   4.042
 4787SOL    HW114693   1.917   2.111   3.988
 4787SOL    HW214694   2.024   1.991   4.020
 4788SOL     OW14695   3.045   3.197   3.843
 4788SOL    HW114696   2.946   3.186   3.845
 4788SOL    HW214697   3.079   3.212   3.936
 4789SOL     OW14698   3.355   3.629   4.683
 4789SOL    HW114699   3.388   3.693   4.614
 4789SOL    HW214700   3.421   3.623   4.758
 4790SOL     OW14701   3.312   3.082   5.357
 4790SOL    HW114702   3.303   3.072   5.456
 4790SOL    HW214703   3.408   3.075   5.331
 4791SOL     OW14704   2.252   3.603   5.284
 4791SOL    HW114705   2.161   3.644   5.282
 4791SOL    HW214706   2.245   3.509   5.316
 4792SOL     OW14707   3.536   2.745   4.978
 4792SOL    HW114708   3.509   2.656   4.941
 4792SOL    HW214709   3.537   2.813   4.905
 4793SOL     OW14710   3.087   2.187   4.173
 4793SOL    HW114711   3.152   2.113   4.162
 4793SOL    HW214712   3.107   2.237   4.257
 4794SOL     OW14713   2.456   2.607   4.376
 4794SOL    HW114714   2.506   2.692   4.357
 4794SOL    HW214715   2.368   2.609   4.328
 4795SOL     OW14716   3.639   2.204   5.366
 4795SOL    HW114717   3.622   2.235   5.272
 4795SOL    HW214718   3.555   2.167   5.404
 4796SOL     OW14719   3.592   2.796   5.241
 4796SOL    HW114720   3.630   2.887   5.256
 4796SOL    HW214721   3.584   2.779   5.142
 4797SOL     OW14722   2.721   3.236   3.740
 4797SOL    HW114723   2.675   3.251   3.828
 4797SOL    HW214724   2.765   3.321   3.710
 4798SOL     OW14725   2.523   3.652   4.677
 4798SOL    HW114726   2.477   3.740   4.664
 4798SOL    HW214727   2.622   3.664   4.670
 4799SOL     OW14728   2.721   2.818   4.585
 4799SOL    HW114729   2.775   2.749   4.633
 4799SOL    HW214730   2.689   2.887   4.651
 4800SOL     OW14731   2.945   2.846   3.811
 4800SOL    HW114732   2.922   2.899   3.729
 4800SOL    HW214733   3.026   2.790   3.792
 4801SOL     OW14734   3.723   3.431   4.575
 4801SOL    HW114735   3.652   3.419   4.505
 4801SOL    HW214736   3.724   3.352   4.635
 4802SOL     OW14737   2.083   3.176   5.568
 4802SOL    HW114738   2.018   3.103   5.547
 4802SOL    HW214739   2.087   3.190   5.666
 4803SOL     OW14740   1.941   3.102   4.377
 4803SOL    HW114741   1.940   3.055   4.465
 4803SOL    HW214742   2.023   3.074   4.326
 4804SOL     OW14743   2.534   3.253   5.348
 4804SOL    HW114744   2.456   3.203   5.386
 4804SOL    HW214745   2.531   3.348   5.379
 4805SOL     OW14746   3.686   2.054   4.951
 4805SOL    HW114747   3.682   1.964   4.995
 4805SOL    HW214748   3.689   2.043   4.852
 4806SOL     OW14749   3.567   3.349   4.828
 4806SOL    HW114750   3.474   3.324   4.801
 4806SOL    HW214751   3.593   3.299   4.910
 4807SOL     OW14752   2.674   3.448   4.411
 4807SOL    HW114753   2.706   3.458   4.317
 4807SOL    HW214754   2.595   3.386   4.413
 4808SOL     OW14755   3.286   2.076   4.836
 4808SOL    HW114756   3.338   2.011   4.891
 4808SOL    HW214757   3.237   2.139   4.897
 4809SOL     OW14758   2.863   1.896   4.878
 4809SOL    HW114759   2.800   1.824   4.847
 4809SOL    HW214760   2.956   1.860   4.878
 4810SOL     OW14761   2.632   3.192   4.025
 4810SOL    HW114762   2.586   3.105   4.042
 4810SOL    HW214763   2.723   3.189   4.066
 4811SOL     OW14764   2.480   3.429   5.008
 4811SOL    HW114765   2.475   3.511   5.065
 4811SOL    HW214766   2.569   3.426   4.963
 4812SOL     OW14767   3.214   1.914   3.892
 4812SOL    HW114768   3.249   1.873   3.808
 4812SOL    HW214769   3.124   1.876   3.912
 4813SOL     OW14770   3.162   2.315   4.415
 4813SOL    HW114771   3.103   2.395   4.419
 4813SOL    HW214772   3.177   2.280   4.508
 4814SOL     OW14773   3.455   2.083   4.606
 4814SOL    HW114774   3.371   2.082   4.660
 4814SOL    HW214775   3.457   2.166   4.550
 4815SOL     OW14776   1.901   2.939   4.024
 4815SOL    HW114777   2.000   2.928   4.015
 4815SOL    HW214778   1.861   2.853   4.056
 4816SOL     OW14779   2.737   3.508   4.061
 4816SOL    HW114780   2.660   3.473   4.007
 4816SOL    HW214781   2.705   3.579   4.123
 4817SOL     OW14782   1.881   2.230   6.233
 4817SOL    HW114783   1.799   2.273   6.272
 4817SOL    HW214784   1.853   2.157   6.170
 4818SOL     OW14785   2.431   3.137   6.751
 4818SOL    HW114786   2.338   3.130   6.714
 4818SOL    HW214787   2.442   3.226   6.795
 4819SOL     OW14788   3.417   3.373   6.289
 4819SOL    HW114789   3.360   3.357   6.370
 4819SOL    HW214790   3.358   3.383   6.209
 4820SOL     OW14791   2.997   2.565   6.303
 4820SOL    HW114792   3.054   2.643   6.278
 4820SOL    HW214793   2.937   2.591   6.379
 4821SOL     OW14794   3.617   2.469   5.817
 4821SOL    HW114795   3.605   2.456   5.718
 4821SOL    HW214796   3.587   2.388   5.866
 4822SOL     OW14797   2.630   3.006   6.609
 4822SOL    HW114798   2.552   3.023   6.669
 4822SOL    HW214799   2.664   3.093   6.573
 4823SOL     OW14800   2.712   2.660   7.409
 4823SOL    HW114801   2.708   2.736   7.474
 4823SOL    HW214802   2.734   2.696   7.318
 4824SOL     OW14803   2.547   2.874   6.251
 4824SOL    HW114804   2.616   2.858   6.321
 4824SOL    HW214805   2.474   2.931   6.289
 4825SOL     OW14806   2.548   3.023   7.389
 4825SOL    HW114807   2.608   3.102   7.403
 4825SOL    HW214808   2.462   3.054   7.348
 4826SOL     OW14809   2.197   3.297   6.647
 4826SOL    HW114810   2.119   3.266   6.594
 4826SOL    HW214811   2.255   3.355   6.590
 4827SOL     OW14812   3.322   3.367   6.925
 4827SOL    HW114813   3.346   3.461   6.951
 4827SOL    HW214814   3.306   3.313   7.007
 4828SOL     OW14815   3.465   2.309   6.323
 4828SOL    HW114816   3.391   2.355   6.273
 4828SOL    HW214817   3.516   2.377   6.376
 4829SOL     OW14818   2.093   3.575   6.069
 4829SOL    HW114819   2.127   3.652   6.123
 4829SOL    HW214820   2.137   3.575   5.979
 4830SOL     OW14821   2.989   3.203   7.276
 4830SOL    HW114822   3.036   3.203   7.364
 4830SOL    HW214823   2.941   3.116   7.265
 4831SOL     OW14824   2.092   3.296   6.124
 4831SOL    HW114825   2.066   3.392   6.124
 4831SOL    HW214826   2.021   3.242   6.169
 4832SOL     OW14827   2.102   2.953   6.472
 4832SOL    HW114828   2.116   2.869   6.524
 4832SOL    HW214829   2.047   3.017   6.527
 4833SOL     OW14830   2.482   3.648   7.025
 4833SOL    HW114831   2.390   3.631   7.060
 4833SOL    HW214832   2.510   3.740   7.051
 4834SOL     OW14833   3.456   1.976   7.066
 4834SOL    HW114834   3.438   2.043   6.994
 4834SOL    HW214835   3.453   2.022   7.155
 4835SOL     OW14836   1.984   2.505   6.149
 4835SOL    HW114837   1.939   2.417   6.166
 4835SOL    HW214838   1.983   2.559   6.233
 4836SOL     OW14839   3.704   3.629   5.945
 4836SOL    HW114840   3.758   3.600   6.025
 4836SOL    HW214841   3.734   3.719   5.916
 4837SOL     OW14842   1.889   3.458   5.703
 4837SOL    HW114843   1.870   3.362   5.724
 4837SOL    HW214844   1.856   3.516   5.778
 4838SOL     OW14845   3.551   2.784   6.198
 4838SOL    HW114846   3.646   2.755   6.206
 4838SOL    HW214847   3.543   2.849   6.123
 4839SOL     OW14848   3.503   2.970   6.018
 4839SOL    HW114849   3.589   2.972   5.966
 4839SOL    HW214850   3.517   3.017   6.106
 4840SOL     OW14851   1.975   2.599   7.183
 4840SOL    HW114852   2.063   2.586   7.228
 4840SOL    HW214853   1.962   2.696   7.161
 4841SOL     OW14854   2.475   3.227   6.312
 4841SOL    HW114855   2.426   3.140   6.321
 4841SOL    HW214856   2.452   3.270   6.225
 4842SOL     OW14857   3.155   3.090   7.009
 4842SOL    HW114858   3.192   3.017   6.951
 4842SOL    HW214859   3.207   3.095   7.094
 4843SOL     OW14860   2.671   1.866   6.088
 4843SOL    HW114861   2.711   1.957   6.079
 4843SOL    HW214862   2.571   1.874   6.094
 4844SOL     OW14863   2.059   2.838   6.850
 4844SOL    HW114864   2.148   2.793   6.836
 4844SOL    HW214865   1.986   2.773   6.831
 4845SOL     OW14866   3.387   2.861   5.776
 4845SOL    HW114867   3.324   2.785   5.789
 4845SOL    HW214868   3.435   2.879   5.862
 4846SOL     OW14869   3.049   3.654   7.202
 4846SOL    HW114870   3.073   3.714   7.126
 4846SOL    HW214871   3.056   3.559   7.172
 4847SOL     OW14872   3.328   3.279   6.539
 4847SOL    HW114873   3.269   3.285   6.619
 4847SOL    HW214874   3.313   3.191   6.493
 4848SOL     OW14875   3.529   3.576   6.158
 4848SOL    HW114876   3.488   3.553   6.070
 4848SOL    HW214877   3.511   3.502   6.223
 4849SOL     OW14878   3.143   2.207   6.530
 4849SOL    HW114879   3.057   2.157   6.517
 4849SOL    HW214880   3.205   2.153   6.586
 4850SOL     OW14881   3.438   3.524   5.893
 4850SOL    HW114882   3.527   3.570   5.896
 4850SOL    HW214883   3.417   3.500   5.798
 4851SOL     OW14884   2.669   2.467   7.051
 4851SOL    HW114885   2.622   2.464   7.140
 4851SOL    HW214886   2.618   2.412   6.985
 4852SOL     OW14887   3.256   2.331   7.260
 4852SOL    HW114888   3.236   2.374   7.348
 4852SOL    HW214889   3.334   2.269   7.269
 4853SOL     OW14890   2.835   2.752   7.158
 4853SOL    HW114891   2.881   2.668   7.129
 4853SOL    HW214892   2.779   2.786   7.083
 4854SOL     OW14893   2.853   2.272   6.828
 4854SOL    HW114894   2.776   2.306   6.882
 4854SOL    HW214895   2.819   2.221   6.749
 4855SOL     OW14896   2.903   2.563   6.015
 4855SOL    HW114897   2.929   2.559   6.111
 4855SOL    HW214898   2.818   2.512   6.001
 4856SOL     OW14899   1.938   2.673   6.375
 4856SOL    HW114900   2.037   2.661   6.384
 4856SOL    HW214901   1.914   2.768   6.396
 4857SOL     OW14902   1.992   3.683   7.157
 4857SOL    HW114903   1.982   3.668   7.256
 4857SOL    HW214904   1.906   3.719   7.121
 4858SOL     OW14905   3.581   2.447   7.417
 4858SOL    HW114906   3.555   2.536   7.381
 4858SOL    HW214907   3.579   2.379   7.344
 4859SOL     OW14908   3.224   3.006   6.131
 4859SOL    HW114909   3.307   2.977   6.083
 4859SOL    HW214910   3.175   3.073   6.075
 4860SOL     OW14911   2.870   3.318   6.063
 4860SOL    HW114912   2.824   3.390   6.011
 4860SOL    HW214913   2.866   3.338   6.161
 4861SOL     OW14914   2.213   3.663   6.439
 4861SOL    HW114915   2.263   3.577   6.445
 4861SOL    HW214916   2.278   3.740   6.436
 4862SOL     OW14917   3.657   2.928   6.459
 4862SOL    HW114918   3.595   2.913   6.383
 4862SOL    HW214919   3.605   2.939   6.544
 4863SOL     OW14920   3.089   3.412   7.092
 4863SOL    HW114921   3.095   3.335   7.156
 4863SOL    HW214922   3.037   3.386   7.012
 4864SOL     OW14923   3.320   2.597   6.314
 4864SOL    HW114924   3.315   2.532   6.389
 4864SOL    HW214925   3.400   2.656   6.327
 4865SOL     OW14926   2.323   3.128   7.313
 4865SOL    HW114927   2.273   3.129   7.227
 4865SOL    HW214928   2.260   3.110   7.389
 4866SOL     OW14929   2.973   3.638   5.823
 4866SOL    HW114930   2.913   3.576   5.873
 4866SOL    HW214931   3.004   3.594   5.738
 4867SOL     OW14932   3.494   3.239   5.667
 4867SOL    HW114933   3.462   3.333   5.657
 4867SOL    HW214934   3.418   3.176   5.655
 4868SOL     OW14935   2.326   3.605   5.909
 4868SOL    HW114936   2.359   3.644   5.995
 4868SOL    HW214937   2.402   3.598   5.844
 4869SOL     OW14938   3.262   1.969   6.012
 4869SOL    HW114939   3.238   1.932   5.922
 4869SOL    HW214940   3.361   1.985   6.016
 4870SOL     OW14941   2.111   3.647   6.827
 4870SOL    HW114942   2.168   3.582   6.877
 4870SOL    HW214943   2.095   3.614   6.734
 4871SOL     OW14944   2.802   3.560   6.490
 4871SOL    HW114945   2.882   3.503   6.511
 4871SOL    HW214946   2.753   3.520   6.413
 4872SOL     OW14947   3.409   2.084   7.315
 4872SOL    HW114948   3.404   2.121   7.407
 4872SOL    HW214949   3.337   2.015   7.303
 4873SOL     OW14950   2.643   2.126   7.335
 4873SOL    HW114951   2.710   2.065   7.378
 4873SOL    HW214952   2.570   2.145   7.400
 4874SOL     OW14953   2.750   3.376   6.781
 4874SOL    HW114954   2.727   3.351   6.687
 4874SOL    HW214955   2.811   3.307   6.820
 4875SOL     OW14956   3.213   2.452   7.019
 4875SOL    HW114957   3.241   2.409   7.104
 4875SOL    HW214958   3.238   2.548   7.020
 4876SOL     OW14959   2.665   3.264   6.510
 4876SOL    HW114960   2.755   3.278   6.468
 4876SOL    HW214961   2.594   3.266   6.439
 4877SOL     OW14962   2.784   2.365   6.485
 4877SOL    HW114963   2.759   2.356   6.389
 4877SOL    HW214964   2.832   2.283   6.516
 4878SOL     OW14965   2.401   1.926   6.098
 4878SOL    HW114966   2.320   1.927   6.156
 4878SOL    HW214967   2.404   2.009   6.043
 4879SOL     OW14968   3.296   3.050   5.627
 4879SOL    HW114969   3.328   2.974   5.684
 4879SOL    HW214970   3.204   3.077   5.657
 4880SOL     OW14971   2.797   2.098   6.066
 4880SOL    HW114972   2.749   2.139   5.988
 4880SOL    HW214973   2.896   2.096   6.047
 4881SOL     OW14974   2.938   2.545   7.050
 4881SOL    HW114975   2.858   2.484   7.053
 4881SOL    HW214976   3.019   2.492   7.026
 4882SOL     OW14977   3.089   3.432   6.379
 4882SOL    HW114978   3.110   3.506   6.314
 4882SOL    HW214979   3.157   3.432   6.452
 4883SOL     OW14980   2.321   3.014   6.327
 4883SOL    HW114981   2.250   2.987   6.392
 4883SOL    HW214982   2.295   2.986   6.234
 4884SOL     OW14983   3.133   3.659   6.177
 4884SOL    HW114984   3.177   3.723   6.113
 4884SOL    HW214985   3.083   3.711   6.247
 4885SOL     OW14986   1.940   2.418   6.972
 4885SOL    HW114987   2.032   2.417   6.931
 4885SOL    HW214988   1.934   2.492   7.039
 4886SOL     OW14989   2.728   2.316   6.228
 4886SOL    HW114990   2.696   2.388   6.166
 4886SOL    HW214991   2.752   2.235   6.175
 4887SOL     OW14992   2.879   1.901   6.339
 4887SOL    HW114993   2.807   1.906   6.270
 4887SOL    HW214994   2.855   1.832   6.408
 4888SOL     OW14995   3.291   3.035   6.453
 4888SOL    HW114996   3.236   2.951   6.446
 4888SOL    HW214997   3.317   3.064   6.361
 4889SOL     OW14998   3.328   2.452   6.578
 4889SOL    HW114999   3.298   2.357   6.585
 4889SOL    HW215000   3.401   2.468   6.644
 4890SOL     OW15001   3.719   2.695   5.963
 4890SOL    HW115002   3.761   2.631   6.027
 4890SOL    HW215003   3.681   2.644   5.885
 4891SOL     OW15004   2.350   3.247   5.760
 4891SOL    HW115005   2.263   3.232   5.807
 4891SOL    HW215006   2.333   3.273   5.665
 4892SOL     OW15007   3.526   3.142   6.243
 4892SOL    HW115008   3.625   3.150   6.257
 4892SOL    HW215009   3.481   3.226   6.274
 4893SOL     OW15010   3.252   2.437   5.664
 4893SOL    HW115011   3.198   2.416   5.745
 4893SOL    HW215012   3.343   2.396   5.673
 4894SOL     OW15013   3.616   3.085   7.174
 4894SOL    HW115014   3.707   3.046   7.161
 4894SOL    HW215015   3.624   3.181   7.198
 4895SOL     OW15016   2.926   3.209   6.926
 4895SOL    HW115017   2.846   3.186   6.981
 4895SOL    HW215018   3.009   3.183   6.975
 4896SOL     OW15019   3.454   3.491   7.211
 4896SOL    HW115020   3.481   3.525   7.121
 4896SOL    HW215021   3.533   3.453   7.257
 4897SOL     OW15022   2.973   3.057   6.686
 4897SOL    HW115023   2.933   3.101   6.767
 4897SOL    HW215024   2.932   3.094   6.603
 4898SOL     OW15025   3.500   2.961   6.665
 4898SOL    HW115026   3.505   3.042   6.724
 4898SOL    HW215027   3.414   2.963   6.614
 4899SOL     OW15028   2.777   1.951   6.988
 4899SOL    HW115029   2.802   1.931   6.893
 4899SOL    HW215030   2.849   2.007   7.030
 4900SOL     OW15031   2.842   2.978   7.305
 4900SOL    HW115032   2.743   2.984   7.315
 4900SOL    HW215033   2.865   2.898   7.249
 4901SOL     OW15034   2.567   2.912   5.954
 4901SOL    HW115035   2.553   2.919   6.053
 4901SOL    HW215036   2.651   2.861   5.936
 4902SOL     OW15037   2.272   2.675   6.837
 4902SOL    HW115038   2.358   2.687   6.887
 4902SOL    HW215039   2.230   2.588   6.864
 4903SOL     OW15040   3.136   2.248   6.848
 4903SOL    HW115041   3.157   2.322   6.912
 4903SOL    HW215042   3.047   2.265   6.805
 4904SOL     OW15043   1.926   3.426   6.917
 4904SOL    HW115044   1.880   3.508   6.883
 4904SOL    HW215045   2.024   3.445   6.926
 4905SOL     OW15046   2.229   2.962   6.087
 4905SOL    HW115047   2.222   3.045   6.031
 4905SOL    HW215048   2.233   2.882   6.027
 4906SOL     OW15049   3.114   3.210   5.974
 4906SOL    HW115050   3.164   3.287   6.014
 4906SOL    HW215051   3.019   3.212   6.006
 4907SOL     OW15052   3.134   3.307   6.728
 4907SOL    HW115053   3.181   3.320   6.815
 4907SOL    HW215054   3.068   3.233   6.737
 4908SOL     OW15055   3.444   2.501   6.058
 4908SOL    HW115056   3.413   2.562   6.131
 4908SOL    HW215057   3.494   2.553   5.989
 4909SOL     OW15058   2.216   3.372   6.915
 4909SOL    HW115059   2.195   3.328   6.828
 4909SOL    HW215060   2.313   3.398   6.918
 4910SOL     OW15061   2.264   2.613   7.184
 4910SOL    HW115062   2.332   2.668   7.137
 4910SOL    HW215063   2.304   2.525   7.211
 4911SOL     OW15064   3.449   2.641   7.256
 4911SOL    HW115065   3.357   2.679   7.251
 4911SOL    HW215066   3.509   2.688   7.191
 4912SOL     OW15067   2.875   1.967   7.356
 4912SOL    HW115068   2.881   2.052   7.304
 4912SOL    HW215069   2.907   1.891   7.299
 4913SOL     OW15070   2.366   1.912   7.326
 4913SOL    HW115071   2.324   1.855   7.256
 4913SOL    HW215072   2.300   1.981   7.358
 4914SOL     OW15073   2.435   2.732   6.615
 4914SOL    HW115074   2.479   2.821   6.606
 4914SOL    HW215075   2.372   2.732   6.692
 4915SOL     OW15076   3.222   2.724   6.631
 4915SOL    HW115077   3.147   2.724   6.565
 4915SOL    HW215078   3.259   2.632   6.640
 4916SOL     OW15079   3.071   2.387   5.861
 4916SOL    HW115080   3.084   2.303   5.915
 4916SOL    HW215081   3.042   2.461   5.921
 4917SOL     OW15082   1.899   3.172   6.868
 4917SOL    HW115083   1.952   3.123   6.936
 4917SOL    HW215084   1.921   3.270   6.873
 4918SOL     OW15085   2.594   2.496   6.650
 4918SOL    HW115086   2.653   2.470   6.574
 4918SOL    HW215087   2.566   2.592   6.639
 4919SOL     OW15088   3.590   2.797   7.440
 4919SOL    HW115089   3.544   2.790   7.351
 4919SOL    HW215090   3.528   2.841   7.506
 4920SOL     OW15091   2.169   1.925   6.204
 4920SOL    HW115092   2.158   2.019   6.237
 4920SOL    HW215093   2.164   1.862   6.281
 4921SOL     OW15094   3.484   2.229   5.960
 4921SOL    HW115095   3.486   2.153   6.024
 4921SOL    HW215096   3.436   2.306   6.000
 4922SOL     OW15097   2.885   2.628   6.552
 4922SOL    HW115098   2.900   2.649   6.648
 4922SOL    HW215099   2.855   2.533   6.543
 4923SOL     OW15100   2.842   3.435   7.286
 4923SOL    HW115101   2.822   3.479   7.198
 4923SOL    HW215102   2.881   3.344   7.270
 4924SOL     OW15103   3.721   3.380   7.191
 4924SOL    HW115104   3.735   3.407   7.096
 4924SOL    HW215105   3.804   3.402   7.244
 4925SOL     OW15106   2.212   2.760   7.390
 4925SOL    HW115107   2.288   2.804   7.438
 4925SOL    HW215108   2.247   2.713   7.308
 4926SOL     OW15109   3.402   2.136   5.711
 4926SOL    HW115110   3.341   2.061   5.734
 4926SOL    HW215111   3.424   2.188   5.794
 4927SOL     OW15112   3.165   2.700   5.628
 4927SOL    HW115113   3.199   2.607   5.643
 4927SOL    HW215114   3.183   2.727   5.533
 4928SOL     OW15115   2.930   3.195   6.435
 4928SOL    HW115116   2.937   3.111   6.380
 4928SOL    HW215117   2.992   3.264   6.399
 4929SOL     OW15118   2.181   2.672   6.535
 4929SOL    HW115119   2.274   2.708   6.540
 4929SOL    HW215120   2.175   2.587   6.587
 4930SOL     OW15121   3.000   2.242   7.264
 4930SOL    HW115122   2.955   2.305   7.328
 4930SOL    HW215123   3.093   2.273   7.247
 4931SOL     OW15124   3.022   2.069   7.063
 4931SOL    HW115125   3.022   2.133   7.140
 4931SOL    HW215126   3.050   2.117   6.980
 4932SOL     OW15127   1.870   3.188   5.786
 4932SOL    HW115128   1.777   3.209   5.755
 4932SOL    HW215129   1.880   3.089   5.799
 4933SOL     OW15130   1.950   3.663   6.513
 4933SOL    HW115131   1.908   3.577   6.486
 4933SOL    HW215132   2.044   3.666   6.479
 4934SOL     OW15133   2.366   3.430   6.496
 4934SOL    HW115134   2.432   3.504   6.505
 4934SOL    HW215135   2.410   3.351   6.454
 4935SOL     OW15136   2.864   2.658   6.824
 4935SOL    HW115137   2.905   2.626   6.910
 4935SOL    HW215138   2.768   2.631   6.821
 4936SOL     OW15139   1.902   2.406   6.700
 4936SOL    HW115140   1.987   2.373   6.659
 4936SOL    HW215141   1.915   2.421   6.798
 4937SOL     OW15142   2.051   2.382   7.308
 4937SOL    HW115143   2.110   2.342   7.238
 4937SOL    HW215144   1.993   2.453   7.267
 4938SOL     OW15145   3.231   2.812   7.246
 4938SOL    HW115146   3.270   2.901   7.266
 4938SOL    HW215147   3.241   2.792   7.149
 4939SOL     OW15148   3.519   2.466   6.792
 4939SOL    HW115149   3.481   2.397   6.854
 4939SOL    HW215150   3.601   2.430   6.748
 4940SOL     OW15151   2.114   3.426   7.330
 4940SOL    HW115152   2.084   3.483   7.406
 4940SOL    HW215153   2.107   3.329   7.356
 4941SOL     OW15154   2.533   2.326   6.855
 4941SOL    HW115155   2.499   2.237   6.825
 4941SOL    HW215156   2.559   2.380   6.775
 4942SOL     OW15157   2.792   3.540   7.051
 4942SOL    HW115158   2.768   3.522   6.956
 4942SOL    HW215159   2.822   3.634   7.061
 4943SOL     OW15160   2.021   2.999   7.052
 4943SOL    HW115161   2.043   2.938   7.128
 4943SOL    HW215162   2.031   2.950   6.966
 4944SOL     OW15163   3.209   2.921   6.820
 4944SOL    HW115164   3.233   2.858   6.746
 4944SOL    HW215165   3.119   2.961   6.802
 4945SOL     OW15166   3.164   2.717   5.895
 4945SOL    HW115167   3.078   2.686   5.937
 4945SOL    HW215168   3.160   2.703   5.796
 4946SOL     OW15169   3.621   3.609   6.740
 4946SOL    HW115170   3.682   3.639   6.667
 4946SOL    HW215171   3.583   3.520   6.718
 4947SOL     OW15172   3.114   3.593   6.714
 4947SOL    HW115173   3.198   3.598   6.660
 4947SOL    HW215174   3.091   3.497   6.732
 4948SOL     OW15175   1.945   3.120   6.608
 4948SOL    HW115176   1.940   3.119   6.708
 4948SOL    HW215177   1.862   3.079   6.570
 4949SOL     OW15178   2.550   3.524   7.302
 4949SOL    HW115179   2.494   3.605   7.311
 4949SOL    HW215180   2.602   3.528   7.216
 4950SOL     OW15181   3.588   1.997   6.109
 4950SOL    HW115182   3.661   1.980   6.042
 4950SOL    HW215183   3.557   1.910   6.147
 4951SOL     OW15184   3.250   3.435   6.063
 4951SOL    HW115185   3.317   3.447   5.989
 4951SOL    HW215186   3.210   3.524   6.086
 4952SOL     OW15187   1.992   3.656   7.437
 4952SOL    HW115188   1.951   3.582   7.490
 4952SOL    HW215189   2.056   3.707   7.495
 4953SOL     OW15190   3.142   2.789   6.258
 4953SOL    HW115191   3.202   2.708   6.260
 4953SOL    HW215192   3.182   2.858   6.198
 4954SOL     OW15193   2.692   3.135   7.008
 4954SOL    HW115194   2.687   3.168   7.103
 4954SOL    HW215195   2.606   3.154   6.962
 4955SOL     OW15196   2.534   3.478   5.740
 4955SOL    HW115197   2.543   3.488   5.641
 4955SOL    HW215198   2.494   3.389   5.761
 4956SOL     OW15199   3.512   3.582   6.980
 4956SOL    HW115200   3.565   3.592   6.896
 4956SOL    HW215201   3.485   3.672   7.014
 4957SOL     OW15202   3.703   2.037   6.549
 4957SOL    HW115203   3.742   1.952   6.513
 4957SOL    HW215204   3.605   2.039   6.530
 4958SOL     OW15205   3.056   3.474   5.617
 4958SOL    HW115206   3.062   3.381   5.654
 4958SOL    HW215207   2.997   3.474   5.537
 4959SOL     OW15208   2.684   2.864   6.958
 4959SOL    HW115209   2.724   2.863   6.866
 4959SOL    HW215210   2.694   2.956   6.998
 4960SOL     OW15211   2.778   2.772   5.877
 4960SOL    HW115212   2.841   2.810   5.809
 4960SOL    HW215213   2.818   2.689   5.916
 4961SOL     OW15214   3.366   3.469   5.630
 4961SOL    HW115215   3.274   3.506   5.637
 4961SOL    HW215216   3.404   3.489   5.540
 4962SOL     OW15217   2.234   3.150   7.076
 4962SOL    HW115218   2.221   3.243   7.042
 4962SOL    HW215219   2.150   3.098   7.063
 4963SOL     OW15220   3.476   3.154   6.875
 4963SOL    HW115221   3.536   3.157   6.955
 4963SOL    HW215222   3.401   3.218   6.888
 4964SOL     OW15223   2.901   2.960   6.282
 4964SOL    HW115224   2.831   2.913   6.336
 4964SOL    HW215225   2.960   2.892   6.239
 4965SOL     OW15226   2.876   2.098   6.557
 4965SOL    HW115227   2.868   2.062   6.464
 4965SOL    HW215228   2.874   2.022   6.622
 4966SOL     OW15229   2.452   3.349   6.077
 4966SOL    HW115230   2.494   3.291   6.007
 4966SOL    HW215231   2.408   3.428   6.033
 4967SOL     OW15232   3.571   2.247   6.967
 4967SOL    HW115233   3.644   2.316   6.971
 4967SOL    HW215234   3.599   2.172   6.908
 4968SOL     OW15235   2.117   3.210   5.876
 4968SOL    HW115236   2.021   3.211   5.849
 4968SOL    HW215237   2.129   3.263   5.960
 4969SOL     OW15238   1.967   2.875   7.312
 4969SOL    HW115239   1.890   2.842   7.366
 4969SOL    HW215240   2.052   2.845   7.354
 4970SOL     OW15241   2.534   2.065   7.075
 4970SOL    HW115242   2.624   2.049   7.035
 4970SOL    HW215243   2.542   2.070   7.174
 4971SOL     OW15244   3.302   2.718   6.984
 4971SOL    HW115245   3.245   2.770   6.921
 4971SOL    HW215246   3.398   2.730   6.960
 4972SOL     OW15247   3.045   3.197   5.705
 4972SOL    HW115248   2.946   3.186   5.707
 4972SOL    HW215249   3.079   3.212   5.798
 4973SOL     OW15250   2.475   2.704   7.017
 4973SOL    HW115251   2.531   2.785   7.000
 4973SOL    HW215252   2.534   2.624   7.020
 4974SOL     OW15253   3.355   3.629   6.545
 4974SOL    HW115254   3.388   3.693   6.476
 4974SOL    HW215255   3.421   3.623   6.620
 4975SOL     OW15256   2.578   2.427   7.294
 4975SOL    HW115257   2.597   2.492   7.368
 4975SOL    HW215258   2.638   2.347   7.303
 4976SOL     OW15259   3.312   3.082   7.219
 4976SOL    HW115260   3.303   3.072   7.318
 4976SOL    HW215261   3.408   3.075   7.193
 4977SOL     OW15262   2.252   3.603   7.146
 4977SOL    HW115263   2.161   3.644   7.144
 4977SOL    HW215264   2.245   3.509   7.178
 4978SOL     OW15265   3.536   2.745   6.840
 4978SOL    HW115266   3.509   2.656   6.803
 4978SOL    HW215267   3.537   2.813   6.767
 4979SOL     OW15268   3.087   2.187   6.035
 4979SOL    HW115269   3.152   2.113   6.024
 4979SOL    HW215270   3.107   2.237   6.119
 4980SOL     OW15271   2.456   2.607   6.238
 4980SOL    HW115272   2.506   2.692   6.219
 4980SOL    HW215273   2.368   2.609   6.190
 4981SOL     OW15274   3.639   2.204   7.228
 4981SOL    HW115275   3.622   2.235   7.134
 4981SOL    HW215276   3.555   2.167   7.266
 4982SOL     OW15277   3.592   2.796   7.103
 4982SOL    HW115278   3.630   2.887   7.118
 4982SOL    HW215279   3.584   2.779   7.004
 4983SOL     OW15280   2.721   3.236   5.602
 4983SOL    HW115281   2.675   3.251   5.690
 4983SOL    HW215282   2.765   3.321   5.572
 4984SOL     OW15283   2.523   3.652   6.539
 4984SOL    HW115284   2.477   3.740   6.526
 4984SOL    HW215285   2.622   3.664   6.532
 4985SOL     OW15286   2.721   2.818   6.447
 4985SOL    HW115287   2.775   2.749   6.495
 4985SOL    HW215288   2.689   2.887   6.513
 4986SOL     OW15289   2.945   2.846   5.673
 4986SOL    HW115290   2.922   2.899   5.591
 4986SOL    HW215291   3.026   2.790   5.654
 4987SOL     OW15292   3.723   3.431   6.437
 4987SOL    HW115293   3.652   3.419   6.367
 4987SOL    HW215294   3.724   3.352   6.497
 4988SOL     OW15295   2.083   3.176   7.430
 4988SOL    HW115296   2.018   3.103   7.409
 4988SOL    HW215297   2.087   3.190   7.528
 4989SOL     OW15298   1.941   3.102   6.239
 4989SOL    HW115299   1.940   3.055   6.327
 4989SOL    HW215300   2.023   3.074   6.188
 4990SOL     OW15301   2.534   3.253   7.210
 4990SOL    HW115302   2.456   3.203   7.248
 4990SOL    HW215303   2.531   3.348   7.241
 4991SOL     OW15304   3.686   2.054   6.813
 4991SOL    HW115305   3.682   1.964   6.857
 4991SOL    HW215306   3.689   2.043   6.714
 4992SOL     OW15307   3.567   3.349   6.690
 4992SOL    HW115308   3.474   3.324   6.663
 4992SOL    HW215309   3.593   3.299   6.772
 4993SOL     OW15310   2.674   3.448   6.273
 4993SOL    HW115311   2.706   3.458   6.179
 4993SOL    HW215312   2.595   3.386   6.275
 4994SOL     OW15313   3.286   2.076   6.698
 4994SOL    HW115314   3.338   2.011   6.753
 4994SOL    HW215315   3.237   2.139   6.759
 4995SOL     OW15316   2.863   1.896   6.740
 4995SOL    HW115317   2.800   1.824   6.709
 4995SOL    HW215318   2.956   1.860   6.740
 4996SOL     OW15319   2.632   3.192   5.887
 4996SOL    HW115320   2.586   3.105   5.904
 4996SOL    HW215321   2.723   3.189   5.928
 4997SOL     OW15322   2.480   3.429   6.870
 4997SOL    HW115323   2.475   3.511   6.927
 4997SOL    HW215324   2.569   3.426   6.825
 4998SOL     OW15325   3.214   1.914   5.754
 4998SOL    HW115326   3.249   1.873   5.670
 4998SOL    HW215327   3.124   1.876   5.774
 4999SOL     OW15328   3.162   2.315   6.277
 4999SOL    HW115329   3.103   2.395   6.281
 4999SOL    HW215330   3.177   2.280   6.370
 5000SOL     OW15331   3.455   2.083   6.468
 5000SOL    HW115332   3.371   2.082   6.522
 5000SOL    HW215333   3.457   2.166   6.412
 5001SOL     OW15334   1.901   2.939   5.886
 5001SOL    HW115335   2.000   2.928   5.877
 5001SOL    HW215336   1.861   2.853   5.918
 5002SOL     OW15337   2.737   3.508   5.923
 5002SOL    HW115338   2.660   3.473   5.869
 5002SOL    HW215339   2.705   3.579   5.985
 5003SOL     OW15340   2.092   2.490   7.561
 5003SOL    HW115341   1.999   2.488   7.598
 5003SOL    HW215342   2.093   2.451   7.469
 5004SOL     OW15343   1.881   2.230   8.095
 5004SOL    HW115344   1.799   2.273   8.134
 5004SOL    HW215345   1.853   2.157   8.032
 5005SOL     OW15346   2.431   3.137   8.613
 5005SOL    HW115347   2.338   3.130   8.576
 5005SOL    HW215348   2.442   3.226   8.657
 5006SOL     OW15349   3.417   3.373   8.151
 5006SOL    HW115350   3.360   3.357   8.232
 5006SOL    HW215351   3.358   3.383   8.071
 5007SOL     OW15352   2.997   2.565   8.165
 5007SOL    HW115353   3.054   2.643   8.140
 5007SOL    HW215354   2.937   2.591   8.241
 5008SOL     OW15355   3.617   2.469   7.679
 5008SOL    HW115356   3.605   2.456   7.580
 5008SOL    HW215357   3.587   2.388   7.728
 5009SOL     OW15358   2.630   3.006   8.471
 5009SOL    HW115359   2.552   3.023   8.531
 5009SOL    HW215360   2.664   3.093   8.435
 5010SOL     OW15361   2.712   2.660   9.271
 5010SOL    HW115362   2.708   2.736   9.336
 5010SOL    HW215363   2.734   2.696   9.180
 5011SOL     OW15364   2.547   2.874   8.113
 5011SOL    HW115365   2.616   2.858   8.183
 5011SOL    HW215366   2.474   2.931   8.151
 5012SOL     OW15367   2.548   3.023   9.251
 5012SOL    HW115368   2.608   3.102   9.265
 5012SOL    HW215369   2.462   3.054   9.210
 5013SOL     OW15370   2.197   3.297   8.509
 5013SOL    HW115371   2.119   3.266   8.456
 5013SOL    HW215372   2.255   3.355   8.452
 5014SOL     OW15373   3.322   3.367   8.787
 5014SOL    HW115374   3.346   3.461   8.813
 5014SOL    HW215375   3.306   3.313   8.869
 5015SOL     OW15376   3.465   2.309   8.185
 5015SOL    HW115377   3.391   2.355   8.135
 5015SOL    HW215378   3.516   2.377   8.238
 5016SOL     OW15379   2.093   3.575   7.931
 5016SOL    HW115380   2.127   3.652   7.985
 5016SOL    HW215381   2.137   3.575   7.841
 5017SOL     OW15382   2.989   3.203   9.138
 5017SOL    HW115383   3.036   3.203   9.226
 5017SOL    HW215384   2.941   3.116   9.127
 5018SOL     OW15385   2.092   3.296   7.986
 5018SOL    HW115386   2.066   3.392   7.986
 5018SOL    HW215387   2.021   3.242   8.031
 5019SOL     OW15388   2.102   2.953   8.334
 5019SOL    HW115389   2.116   2.869   8.386
 5019SOL    HW215390   2.047   3.017   8.389
 5020SOL     OW15391   2.482   3.648   8.887
 5020SOL    HW115392   2.390   3.631   8.922
 5020SOL    HW215393   2.510   3.740   8.913
 5021SOL     OW15394   2.468   2.826   7.571
 5021SOL    HW115395   2.475   2.910   7.517
 5021SOL    HW215396   2.514   2.839   7.659
 5022SOL     OW15397   3.456   1.976   8.928
 5022SOL    HW115398   3.438   2.043   8.856
 5022SOL    HW215399   3.453   2.022   9.017
 5023SOL     OW15400   1.984   2.505   8.011
 5023SOL    HW115401   1.939   2.417   8.028
 5023SOL    HW215402   1.983   2.559   8.095
 5024SOL     OW15403   3.704   3.629   7.807
 5024SOL    HW115404   3.758   3.600   7.887
 5024SOL    HW215405   3.734   3.719   7.778
 5025SOL     OW15406   1.889   3.458   7.565
 5025SOL    HW115407   1.870   3.362   7.586
 5025SOL    HW215408   1.856   3.516   7.640
 5026SOL     OW15409   3.551   2.784   8.060
 5026SOL    HW115410   3.646   2.755   8.068
 5026SOL    HW215411   3.543   2.849   7.985
 5027SOL     OW15412   3.503   2.970   7.880
 5027SOL    HW115413   3.589   2.972   7.828
 5027SOL    HW215414   3.517   3.017   7.968
 5028SOL     OW15415   1.975   2.599   9.045
 5028SOL    HW115416   2.063   2.586   9.090
 5028SOL    HW215417   1.962   2.696   9.023
 5029SOL     OW15418   2.475   3.227   8.174
 5029SOL    HW115419   2.426   3.140   8.183
 5029SOL    HW215420   2.452   3.270   8.087
 5030SOL     OW15421   3.155   3.090   8.871
 5030SOL    HW115422   3.192   3.017   8.813
 5030SOL    HW215423   3.207   3.095   8.956
 5031SOL     OW15424   2.671   1.866   7.950
 5031SOL    HW115425   2.711   1.957   7.941
 5031SOL    HW215426   2.571   1.874   7.956
 5032SOL     OW15427   2.059   2.838   8.712
 5032SOL    HW115428   2.148   2.793   8.698
 5032SOL    HW215429   1.986   2.773   8.693
 5033SOL     OW15430   3.387   2.861   7.638
 5033SOL    HW115431   3.324   2.785   7.651
 5033SOL    HW215432   3.435   2.879   7.724
 5034SOL     OW15433   3.049   3.654   9.064
 5034SOL    HW115434   3.073   3.714   8.988
 5034SOL    HW215435   3.056   3.559   9.034
 5035SOL     OW15436   3.328   3.279   8.401
 5035SOL    HW115437   3.269   3.285   8.481
 5035SOL    HW215438   3.313   3.191   8.355
 5036SOL     OW15439   3.529   3.576   8.020
 5036SOL    HW115440   3.488   3.553   7.932
 5036SOL    HW215441   3.511   3.502   8.085
 5037SOL     OW15442   2.460   2.591   7.718
 5037SOL    HW115443   2.484   2.660   7.650
 5037SOL    HW215444   2.382   2.624   7.772
 5038SOL     OW15445   3.143   2.207   8.392
 5038SOL    HW115446   3.057   2.157   8.379
 5038SOL    HW215447   3.205   2.153   8.448
 5039SOL     OW15448   3.438   3.524   7.755
 5039SOL    HW115449   3.527   3.570   7.758
 5039SOL    HW215450   3.417   3.500   7.660
 5040SOL     OW15451   2.669   2.467   8.913
 5040SOL    HW115452   2.622   2.464   9.002
 5040SOL    HW215453   2.618   2.412   8.847
 5041SOL     OW15454   3.256   2.331   9.122
 5041SOL    HW115455   3.236   2.374   9.210
 5041SOL    HW215456   3.334   2.269   9.131
 5042SOL     OW15457   2.835   2.752   9.020
 5042SOL    HW115458   2.881   2.668   8.991
 5042SOL    HW215459   2.779   2.786   8.945
 5043SOL     OW15460   2.853   2.272   8.690
 5043SOL    HW115461   2.776   2.306   8.744
 5043SOL    HW215462   2.819   2.221   8.611
 5044SOL     OW15463   2.903   2.563   7.877
 5044SOL    HW115464   2.929   2.559   7.973
 5044SOL    HW215465   2.818   2.512   7.863
 5045SOL     OW15466   1.938   2.673   8.237
 5045SOL    HW115467   2.037   2.661   8.246
 5045SOL    HW215468   1.914   2.768   8.258
 5046SOL     OW15469   1.992   3.683   9.019
 5046SOL    HW115470   1.982   3.668   9.118
 5046SOL    HW215471   1.906   3.719   8.983
 5047SOL     OW15472   2.727   2.210   7.643
 5047SOL    HW115473   2.786   2.273   7.594
 5047SOL    HW215474   2.746   2.116   7.614
 5048SOL     OW15475   3.581   2.447   9.279
 5048SOL    HW115476   3.555   2.536   9.243
 5048SOL    HW215477   3.579   2.379   9.206
 5049SOL     OW15478   3.224   3.006   7.993
 5049SOL    HW115479   3.307   2.977   7.945
 5049SOL    HW215480   3.175   3.073   7.937
 5050SOL     OW15481   2.412   2.058   8.333
 5050SOL    HW115482   2.407   2.053   8.433
 5050SOL    HW215483   2.414   2.154   8.304
 5051SOL     OW15484   2.870   3.318   7.925
 5051SOL    HW115485   2.824   3.390   7.873
 5051SOL    HW215486   2.866   3.338   8.023
 5052SOL     OW15487   2.213   3.663   8.301
 5052SOL    HW115488   2.263   3.577   8.307
 5052SOL    HW215489   2.278   3.740   8.298
 5053SOL     OW15490   3.657   2.928   8.321
 5053SOL    HW115491   3.595   2.913   8.245
 5053SOL    HW215492   3.605   2.939   8.406
 5054SOL     OW15493   3.089   3.412   8.954
 5054SOL    HW115494   3.095   3.335   9.018
 5054SOL    HW215495   3.037   3.386   8.874
 5055SOL     OW15496   2.183   2.805   7.690
 5055SOL    HW115497   2.265   2.844   7.648
 5055SOL    HW215498   2.156   2.723   7.641
 5056SOL     OW15499   3.320   2.597   8.176
 5056SOL    HW115500   3.315   2.532   8.251
 5056SOL    HW215501   3.400   2.656   8.189
 5057SOL     OW15502   2.323   3.128   9.175
 5057SOL    HW115503   2.273   3.129   9.089
 5057SOL    HW215504   2.260   3.110   9.251
 5058SOL     OW15505   2.973   3.638   7.685
 5058SOL    HW115506   2.913   3.576   7.735
 5058SOL    HW215507   3.004   3.594   7.600
 5059SOL     OW15508   3.494   3.239   7.529
 5059SOL    HW115509   3.462   3.333   7.519
 5059SOL    HW215510   3.418   3.176   7.517
 5060SOL     OW15511   2.326   3.605   7.771
 5060SOL    HW115512   2.359   3.644   7.857
 5060SOL    HW215513   2.402   3.598   7.706
 5061SOL     OW15514   3.262   1.969   7.874
 5061SOL    HW115515   3.238   1.932   7.784
 5061SOL    HW215516   3.361   1.985   7.878
 5062SOL     OW15517   2.111   3.647   8.689
 5062SOL    HW115518   2.168   3.582   8.739
 5062SOL    HW215519   2.095   3.614   8.596
 5063SOL     OW15520   2.802   3.560   8.352
 5063SOL    HW115521   2.882   3.503   8.373
 5063SOL    HW215522   2.753   3.520   8.275
 5064SOL     OW15523   3.409   2.084   9.177
 5064SOL    HW115524   3.404   2.121   9.269
 5064SOL    HW215525   3.337   2.015   9.165
 5065SOL     OW15526   2.476   1.984   7.565
 5065SOL    HW115527   2.574   1.962   7.572
 5065SOL    HW215528   2.445   1.967   7.472
 5066SOL     OW15529   2.643   2.126   9.197
 5066SOL    HW115530   2.710   2.065   9.240
 5066SOL    HW215531   2.570   2.145   9.262
 5067SOL     OW15532   2.750   3.376   8.643
 5067SOL    HW115533   2.727   3.351   8.549
 5067SOL    HW215534   2.811   3.307   8.682
 5068SOL     OW15535   3.213   2.452   8.881
 5068SOL    HW115536   3.241   2.409   8.966
 5068SOL    HW215537   3.238   2.548   8.882
 5069SOL     OW15538   2.665   3.264   8.372
 5069SOL    HW115539   2.755   3.278   8.330
 5069SOL    HW215540   2.594   3.266   8.301
 5070SOL     OW15541   2.784   2.365   8.347
 5070SOL    HW115542   2.759   2.356   8.251
 5070SOL    HW215543   2.832   2.283   8.378
 5071SOL     OW15544   2.401   1.926   7.960
 5071SOL    HW115545   2.320   1.927   8.018
 5071SOL    HW215546   2.404   2.009   7.905
 5072SOL     OW15547   3.296   3.050   7.489
 5072SOL    HW115548   3.328   2.974   7.546
 5072SOL    HW215549   3.204   3.077   7.519
 5073SOL     OW15550   2.159   1.897   7.619
 5073SOL    HW115551   2.208   1.981   7.598
 5073SOL    HW215552   2.221   1.832   7.664
 5074SOL     OW15553   2.797   2.098   7.928
 5074SOL    HW115554   2.749   2.139   7.850
 5074SOL    HW215555   2.896   2.096   7.909
 5075SOL     OW15556   2.938   2.545   8.912
 5075SOL    HW115557   2.858   2.484   8.915
 5075SOL    HW215558   3.019   2.492   8.888
 5076SOL     OW15559   3.089   3.432   8.241
 5076SOL    HW115560   3.110   3.506   8.176
 5076SOL    HW215561   3.157   3.432   8.314
 5077SOL     OW15562   2.321   3.014   8.189
 5077SOL    HW115563   2.250   2.987   8.254
 5077SOL    HW215564   2.295   2.986   8.096
 5078SOL     OW15565   3.133   3.659   8.039
 5078SOL    HW115566   3.177   3.723   7.975
 5078SOL    HW215567   3.083   3.711   8.109
 5079SOL     OW15568   2.894   2.411   7.464
 5079SOL    HW115569   2.853   2.493   7.425
 5079SOL    HW215570   2.958   2.437   7.537
 5080SOL     OW15571   1.940   2.418   8.834
 5080SOL    HW115572   2.032   2.417   8.793
 5080SOL    HW215573   1.934   2.492   8.901
 5081SOL     OW15574   2.423   2.084   8.595
 5081SOL    HW115575   2.461   2.000   8.632
 5081SOL    HW215576   2.335   2.103   8.639
 5082SOL     OW15577   2.728   2.316   8.090
 5082SOL    HW115578   2.696   2.388   8.028
 5082SOL    HW215579   2.752   2.235   8.037
 5083SOL     OW15580   2.879   1.901   8.201
 5083SOL    HW115581   2.807   1.906   8.132
 5083SOL    HW215582   2.855   1.832   8.270
 5084SOL     OW15583   3.291   3.035   8.315
 5084SOL    HW115584   3.236   2.951   8.308
 5084SOL    HW215585   3.317   3.064   8.223
 5085SOL     OW15586   3.328   2.452   8.440
 5085SOL    HW115587   3.298   2.357   8.447
 5085SOL    HW215588   3.401   2.468   8.506
 5086SOL     OW15589   3.719   2.695   7.825
 5086SOL    HW115590   3.761   2.631   7.889
 5086SOL    HW215591   3.681   2.644   7.747
 5087SOL     OW15592   2.350   3.247   7.622
 5087SOL    HW115593   2.263   3.232   7.669
 5087SOL    HW215594   2.333   3.273   7.527
 5088SOL     OW15595   3.526   3.142   8.105
 5088SOL    HW115596   3.625   3.150   8.119
 5088SOL    HW215597   3.481   3.226   8.136
 5089SOL     OW15598   3.252   2.437   7.526
 5089SOL    HW115599   3.198   2.416   7.607
 5089SOL    HW215600   3.343   2.396   7.535
 5090SOL     OW15601   3.616   3.085   9.036
 5090SOL    HW115602   3.707   3.046   9.023
 5090SOL    HW215603   3.624   3.181   9.060
 5091SOL     OW15604   2.926   3.209   8.788
 5091SOL    HW115605   2.846   3.186   8.843
 5091SOL    HW215606   3.009   3.183   8.837
 5092SOL     OW15607   3.454   3.491   9.073
 5092SOL    HW115608   3.481   3.525   8.983
 5092SOL    HW215609   3.533   3.453   9.119
 5093SOL     OW15610   2.973   3.057   8.548
 5093SOL    HW115611   2.933   3.101   8.629
 5093SOL    HW215612   2.932   3.094   8.465
 5094SOL     OW15613   3.500   2.961   8.527
 5094SOL    HW115614   3.505   3.042   8.586
 5094SOL    HW215615   3.414   2.963   8.476
 5095SOL     OW15616   2.777   1.951   8.850
 5095SOL    HW115617   2.802   1.931   8.755
 5095SOL    HW215618   2.849   2.007   8.892
 5096SOL     OW15619   2.842   2.978   9.167
 5096SOL    HW115620   2.743   2.984   9.177
 5096SOL    HW215621   2.865   2.898   9.111
 5097SOL     OW15622   2.567   2.912   7.816
 5097SOL    HW115623   2.553   2.919   7.915
 5097SOL    HW215624   2.651   2.861   7.798
 5098SOL     OW15625   2.272   2.675   8.699
 5098SOL    HW115626   2.358   2.687   8.749
 5098SOL    HW215627   2.230   2.588   8.726
 5099SOL     OW15628   3.136   2.248   8.710
 5099SOL    HW115629   3.157   2.322   8.774
 5099SOL    HW215630   3.047   2.265   8.667
 5100SOL     OW15631   1.926   3.426   8.779
 5100SOL    HW115632   1.880   3.508   8.745
 5100SOL    HW215633   2.024   3.445   8.788
 5101SOL     OW15634   2.229   2.962   7.949
 5101SOL    HW115635   2.222   3.045   7.893
 5101SOL    HW215636   2.233   2.882   7.889
 5102SOL     OW15637   2.428   2.399   8.313
 5102SOL    HW115638   2.440   2.465   8.239
 5102SOL    HW215639   2.474   2.433   8.396
 5103SOL     OW15640   3.114   3.210   7.836
 5103SOL    HW115641   3.164   3.287   7.876
 5103SOL    HW215642   3.019   3.212   7.868
 5104SOL     OW15643   3.134   3.307   8.590
 5104SOL    HW115644   3.181   3.320   8.677
 5104SOL    HW215645   3.068   3.233   8.599
 5105SOL     OW15646   3.444   2.501   7.920
 5105SOL    HW115647   3.413   2.562   7.993
 5105SOL    HW215648   3.494   2.553   7.851
 5106SOL     OW15649   2.216   3.372   8.777
 5106SOL    HW115650   2.195   3.328   8.690
 5106SOL    HW215651   2.313   3.398   8.780
 5107SOL     OW15652   2.264   2.613   9.046
 5107SOL    HW115653   2.332   2.668   8.999
 5107SOL    HW215654   2.304   2.525   9.073
 5108SOL     OW15655   3.449   2.641   9.118
 5108SOL    HW115656   3.357   2.679   9.113
 5108SOL    HW215657   3.509   2.688   9.053
 5109SOL     OW15658   2.875   1.967   9.218
 5109SOL    HW115659   2.881   2.052   9.166
 5109SOL    HW215660   2.907   1.891   9.161
 5110SOL     OW15661   2.366   1.912   9.188
 5110SOL    HW115662   2.324   1.855   9.118
 5110SOL    HW215663   2.300   1.981   9.220
 5111SOL     OW15664   2.435   2.732   8.477
 5111SOL    HW115665   2.479   2.821   8.468
 5111SOL    HW215666   2.372   2.732   8.554
 5112SOL     OW15667   3.222   2.724   8.493
 5112SOL    HW115668   3.147   2.724   8.427
 5112SOL    HW215669   3.259   2.632   8.502
 5113SOL     OW15670   3.071   2.387   7.723
 5113SOL    HW115671   3.084   2.303   7.777
 5113SOL    HW215672   3.042   2.461   7.783
 5114SOL     OW15673   1.899   3.172   8.730
 5114SOL    HW115674   1.952   3.123   8.798
 5114SOL    HW215675   1.921   3.270   8.735
 5115SOL     OW15676   2.594   2.496   8.512
 5115SOL    HW115677   2.653   2.470   8.436
 5115SOL    HW215678   2.566   2.592   8.501
 5116SOL     OW15679   3.590   2.797   9.302
 5116SOL    HW115680   3.544   2.790   9.213
 5116SOL    HW215681   3.528   2.841   9.368
 5117SOL     OW15682   2.169   1.925   8.066
 5117SOL    HW115683   2.158   2.019   8.099
 5117SOL    HW215684   2.164   1.862   8.143
 5118SOL     OW15685   3.484   2.229   7.822
 5118SOL    HW115686   3.486   2.153   7.886
 5118SOL    HW215687   3.436   2.306   7.862
 5119SOL     OW15688   2.885   2.628   8.414
 5119SOL    HW115689   2.900   2.649   8.510
 5119SOL    HW215690   2.855   2.533   8.405
 5120SOL     OW15691   2.842   3.435   9.148
 5120SOL    HW115692   2.822   3.479   9.060
 5120SOL    HW215693   2.881   3.344   9.132
 5121SOL     OW15694   3.721   3.380   9.053
 5121SOL    HW115695   3.735   3.407   8.958
 5121SOL    HW215696   3.804   3.402   9.106
 5122SOL     OW15697   2.212   2.760   9.252
 5122SOL    HW115698   2.288   2.804   9.300
 5122SOL    HW215699   2.247   2.713   9.170
 5123SOL     OW15700   3.402   2.136   7.573
 5123SOL    HW115701   3.341   2.061   7.596
 5123SOL    HW215702   3.424   2.188   7.656
 5124SOL     OW15703   3.165   2.700   7.490
 5124SOL    HW115704   3.199   2.607   7.505
 5124SOL    HW215705   3.183   2.727   7.395
 5125SOL     OW15706   2.930   3.195   8.297
 5125SOL    HW115707   2.937   3.111   8.242
 5125SOL    HW215708   2.992   3.264   8.261
 5126SOL     OW15709   2.181   2.672   8.397
 5126SOL    HW115710   2.274   2.708   8.402
 5126SOL    HW215711   2.175   2.587   8.449
 5127SOL     OW15712   3.000   2.242   9.126
 5127SOL    HW115713   2.955   2.305   9.190
 5127SOL    HW215714   3.093   2.273   9.109
 5128SOL     OW15715   3.022   2.069   8.925
 5128SOL    HW115716   3.022   2.133   9.002
 5128SOL    HW215717   3.050   2.117   8.842
 5129SOL     OW15718   1.870   3.188   7.648
 5129SOL    HW115719   1.777   3.209   7.617
 5129SOL    HW215720   1.880   3.089   7.661
 5130SOL     OW15721   1.950   3.663   8.375
 5130SOL    HW115722   1.908   3.577   8.348
 5130SOL    HW215723   2.044   3.666   8.341
 5131SOL     OW15724   2.366   3.430   8.358
 5131SOL    HW115725   2.432   3.504   8.367
 5131SOL    HW215726   2.410   3.351   8.316
 5132SOL     OW15727   2.864   2.658   8.686
 5132SOL    HW115728   2.905   2.626   8.772
 5132SOL    HW215729   2.768   2.631   8.683
 5133SOL     OW15730   1.902   2.406   8.562
 5133SOL    HW115731   1.987   2.373   8.521
 5133SOL    HW215732   1.915   2.421   8.660
 5134SOL     OW15733   3.231   2.812   9.108
 5134SOL    HW115734   3.270   2.901   9.128
 5134SOL    HW215735   3.241   2.792   9.011
 5135SOL     OW15736   2.677   2.434   7.773
 5135SOL    HW115737   2.684   2.345   7.727
 5135SOL    HW215738   2.583   2.468   7.765
 5136SOL     OW15739   3.519   2.466   8.654
 5136SOL    HW115740   3.481   2.397   8.716
 5136SOL    HW215741   3.601   2.430   8.610
 5137SOL     OW15742   2.114   3.426   9.192
 5137SOL    HW115743   2.084   3.483   9.268
 5137SOL    HW215744   2.107   3.329   9.218
 5138SOL     OW15745   2.792   3.540   8.913
 5138SOL    HW115746   2.768   3.522   8.818
 5138SOL    HW215747   2.822   3.634   8.923
 5139SOL     OW15748   2.021   2.999   8.914
 5139SOL    HW115749   2.043   2.938   8.990
 5139SOL    HW215750   2.031   2.950   8.828
 5140SOL     OW15751   3.209   2.921   8.682
 5140SOL    HW115752   3.233   2.858   8.608
 5140SOL    HW215753   3.119   2.961   8.664
 5141SOL     OW15754   3.164   2.717   7.757
 5141SOL    HW115755   3.078   2.686   7.799
 5141SOL    HW215756   3.160   2.703   7.658
 5142SOL     OW15757   3.621   3.609   8.602
 5142SOL    HW115758   3.682   3.639   8.529
 5142SOL    HW215759   3.583   3.520   8.580
 5143SOL     OW15760   3.114   3.593   8.576
 5143SOL    HW115761   3.198   3.598   8.522
 5143SOL    HW215762   3.091   3.497   8.594
 5144SOL     OW15763   1.945   3.120   8.470
 5144SOL    HW115764   1.940   3.119   8.570
 5144SOL    HW215765   1.862   3.079   8.432
 5145SOL     OW15766   2.550   3.524   9.164
 5145SOL    HW115767   2.494   3.605   9.173
 5145SOL    HW215768   2.602   3.528   9.078
 5146SOL     OW15769   3.588   1.997   7.971
 5146SOL    HW115770   3.661   1.980   7.904
 5146SOL    HW215771   3.557   1.910   8.009
 5147SOL     OW15772   3.250   3.435   7.925
 5147SOL    HW115773   3.317   3.447   7.851
 5147SOL    HW215774   3.210   3.524   7.948
 5148SOL     OW15775   1.992   3.656   9.299
 5148SOL    HW115776   1.951   3.582   9.352
 5148SOL    HW215777   2.056   3.707   9.357
 5149SOL     OW15778   3.142   2.789   8.120
 5149SOL    HW115779   3.202   2.708   8.122
 5149SOL    HW215780   3.182   2.858   8.060
 5150SOL     OW15781   2.692   3.135   8.870
 5150SOL    HW115782   2.687   3.168   8.965
 5150SOL    HW215783   2.606   3.154   8.824
 5151SOL     OW15784   2.534   3.478   7.602
 5151SOL    HW115785   2.543   3.488   7.503
 5151SOL    HW215786   2.494   3.389   7.623
 5152SOL     OW15787   3.512   3.582   8.842
 5152SOL    HW115788   3.565   3.592   8.758
 5152SOL    HW215789   3.485   3.672   8.876
 5153SOL     OW15790   3.703   2.037   8.411
 5153SOL    HW115791   3.742   1.952   8.375
 5153SOL    HW215792   3.605   2.039   8.392
 5154SOL     OW15793   3.056   3.474   7.479
 5154SOL    HW115794   3.062   3.381   7.516
 5154SOL    HW215795   2.997   3.474   7.399
 5155SOL     OW15796   2.684   2.864   8.820
 5155SOL    HW115797   2.724   2.863   8.728
 5155SOL    HW215798   2.694   2.956   8.860
 5156SOL     OW15799   2.778   2.772   7.739
 5156SOL    HW115800   2.841   2.810   7.671
 5156SOL    HW215801   2.818   2.689   7.778
 5157SOL     OW15802   3.366   3.469   7.492
 5157SOL    HW115803   3.274   3.506   7.499
 5157SOL    HW215804   3.404   3.489   7.402
 5158SOL     OW15805   2.234   3.150   8.938
 5158SOL    HW115806   2.221   3.243   8.904
 5158SOL    HW215807   2.150   3.098   8.925
 5159SOL     OW15808   3.476   3.154   8.737
 5159SOL    HW115809   3.536   3.157   8.817
 5159SOL    HW215810   3.401   3.218   8.750
 5160SOL     OW15811   2.901   2.960   8.144
 5160SOL    HW115812   2.831   2.913   8.198
 5160SOL    HW215813   2.960   2.892   8.101
 5161SOL     OW15814   2.876   2.098   8.419
 5161SOL    HW115815   2.868   2.062   8.326
 5161SOL    HW215816   2.874   2.022   8.484
 5162SOL     OW15817   2.452   3.349   7.939
 5162SOL    HW115818   2.494   3.291   7.869
 5162SOL    HW215819   2.408   3.428   7.895
 5163SOL     OW15820   3.571   2.247   8.829
 5163SOL    HW115821   3.644   2.316   8.833
 5163SOL    HW215822   3.599   2.172   8.770
 5164SOL     OW15823   2.117   3.210   7.738
 5164SOL    HW115824   2.021   3.211   7.711
 5164SOL    HW215825   2.129   3.263   7.822
 5165SOL     OW15826   1.967   2.875   9.174
 5165SOL    HW115827   1.890   2.842   9.228
 5165SOL    HW215828   2.052   2.845   9.216
 5166SOL     OW15829   2.534   2.065   8.937
 5166SOL    HW115830   2.624   2.049   8.897
 5166SOL    HW215831   2.542   2.070   9.036
 5167SOL     OW15832   1.937   2.207   7.481
 5167SOL    HW115833   1.845   2.179   7.452
 5167SOL    HW215834   1.968   2.284   7.425
 5168SOL     OW15835   3.302   2.718   8.846
 5168SOL    HW115836   3.245   2.770   8.783
 5168SOL    HW215837   3.398   2.730   8.822
 5169SOL     OW15838   1.934   2.028   7.766
 5169SOL    HW115839   1.917   2.111   7.712
 5169SOL    HW215840   2.024   1.991   7.744
 5170SOL     OW15841   3.045   3.197   7.567
 5170SOL    HW115842   2.946   3.186   7.569
 5170SOL    HW215843   3.079   3.212   7.660
 5171SOL     OW15844   2.475   2.704   8.879
 5171SOL    HW115845   2.531   2.785   8.862
 5171SOL    HW215846   2.534   2.624   8.882
 5172SOL     OW15847   3.355   3.629   8.407
 5172SOL    HW115848   3.388   3.693   8.338
 5172SOL    HW215849   3.421   3.623   8.482
 5173SOL     OW15850   2.578   2.427   9.156
 5173SOL    HW115851   2.597   2.492   9.230
 5173SOL    HW215852   2.638   2.347   9.165
 5174SOL     OW15853   3.312   3.082   9.081
 5174SOL    HW115854   3.303   3.072   9.180
 5174SOL    HW215855   3.408   3.075   9.055
 5175SOL     OW15856   2.252   3.603   9.008
 5175SOL    HW115857   2.161   3.644   9.006
 5175SOL    HW215858   2.245   3.509   9.040
 5176SOL     OW15859   3.536   2.745   8.702
 5176SOL    HW115860   3.509   2.656   8.665
 5176SOL    HW215861   3.537   2.813   8.629
 5177SOL     OW15862   3.087   2.187   7.897
 5177SOL    HW115863   3.152   2.113   7.886
 5177SOL    HW215864   3.107   2.237   7.981
 5178SOL     OW15865   2.456   2.607   8.100
 5178SOL    HW115866   2.506   2.692   8.081
 5178SOL    HW215867   2.368   2.609   8.052
 5179SOL     OW15868   3.639   2.204   9.090
 5179SOL    HW115869   3.622   2.235   8.996
 5179SOL    HW215870   3.555   2.167   9.128
 5180SOL     OW15871   3.592   2.796   8.965
 5180SOL    HW115872   3.630   2.887   8.980
 5180SOL    HW215873   3.584   2.779   8.866
 5181SOL     OW15874   2.721   3.236   7.464
 5181SOL    HW115875   2.675   3.251   7.552
 5181SOL    HW215876   2.765   3.321   7.434
 5182SOL     OW15877   2.523   3.652   8.401
 5182SOL    HW115878   2.477   3.740   8.388
 5182SOL    HW215879   2.622   3.664   8.394
 5183SOL     OW15880   2.721   2.818   8.309
 5183SOL    HW115881   2.775   2.749   8.357
 5183SOL    HW215882   2.689   2.887   8.375
 5184SOL     OW15883   2.945   2.846   7.535
 5184SOL    HW115884   2.922   2.899   7.453
 5184SOL    HW215885   3.026   2.790   7.516
 5185SOL     OW15886   3.723   3.431   8.299
 5185SOL    HW115887   3.652   3.419   8.229
 5185SOL    HW215888   3.724   3.352   8.359
 5186SOL     OW15889   2.083   3.176   9.292
 5186SOL    HW115890   2.018   3.103   9.271
 5186SOL    HW215891   2.087   3.190   9.390
 5187SOL     OW15892   1.941   3.102   8.101
 5187SOL    HW115893   1.940   3.055   8.189
 5187SOL    HW215894   2.023   3.074   8.050
 5188SOL     OW15895   2.534   3.253   9.072
 5188SOL    HW115896   2.456   3.203   9.110
 5188SOL    HW215897   2.531   3.348   9.103
 5189SOL     OW15898   3.686   2.054   8.675
 5189SOL    HW115899   3.682   1.964   8.719
 5189SOL    HW215900   3.689   2.043   8.576
 5190SOL     OW15901   3.567   3.349   8.552
 5190SOL    HW115902   3.474   3.324   8.525
 5190SOL    HW215903   3.593   3.299   8.634
 5191SOL     OW15904   2.674   3.448   8.135
 5191SOL    HW115905   2.706   3.458   8.041
 5191SOL    HW215906   2.595   3.386   8.137
 5192SOL     OW15907   3.286   2.076   8.560
 5192SOL    HW115908   3.338   2.011   8.615
 5192SOL    HW215909   3.237   2.139   8.621
 5193SOL     OW15910   2.863   1.896   8.602
 5193SOL    HW115911   2.800   1.824   8.571
 5193SOL    HW215912   2.956   1.860   8.602
 5194SOL     OW15913   2.632   3.192   7.749
 5194SOL    HW115914   2.586   3.105   7.766
 5194SOL    HW215915   2.723   3.189   7.790
 5195SOL     OW15916   2.480   3.429   8.732
 5195SOL    HW115917   2.475   3.511   8.789
 5195SOL    HW215918   2.569   3.426   8.687
 5196SOL     OW15919   3.214   1.914   7.616
 5196SOL    HW115920   3.249   1.873   7.532
 5196SOL    HW215921   3.124   1.876   7.636
 5197SOL     OW15922   3.162   2.315   8.139
 5197SOL    HW115923   3.103   2.395   8.143
 5197SOL    HW215924   3.177   2.280   8.232
 5198SOL     OW15925   3.455   2.083   8.330
 5198SOL    HW115926   3.371   2.082   8.384
 5198SOL    HW215927   3.457   2.166   8.274
 5199SOL     OW15928   1.901   2.939   7.748
 5199SOL    HW115929   2.000   2.928   7.739
 5199SOL    HW215930   1.861   2.853   7.780
 5200SOL     OW15931   2.737   3.508   7.785
 5200SOL    HW115932   2.660   3.473   7.731
 5200SOL    HW215933   2.705   3.579   7.847
 5201SOL     OW15934   2.092   2.490   9.423
 5201SOL    HW115935   1.999   2.488   9.460
 5201SOL    HW215936   2.093   2.451   9.331
 5202SOL     OW15937   1.881   2.230   9.957
 5202SOL    HW115938   1.799   2.273   9.996
 5202SOL    HW215939   1.853   2.157   9.894
 5203SOL     OW15940   2.431   3.137  10.475
 5203SOL    HW115941   2.338   3.130  10.438
 5203SOL    HW215942   2.442   3.226  10.519
 5204SOL     OW15943   3.417   3.373  10.013
 5204SOL    HW115944   3.360   3.357  10.094
 5204SOL    HW215945   3.358   3.383   9.933
 5205SOL     OW15946   2.997   2.565  10.027
 5205SOL    HW115947   3.054   2.643  10.002
 5205SOL    HW215948   2.937   2.591  10.103
 5206SOL     OW15949   3.617   2.469   9.541
 5206SOL    HW115950   3.605   2.456   9.442
 5206SOL    HW215951   3.587   2.388   9.590
 5207SOL     OW15952   2.630   3.006  10.333
 5207SOL    HW115953   2.552   3.023  10.393
 5207SOL    HW215954   2.664   3.093  10.297
 5208SOL     OW15955   2.547   2.874   9.975
 5208SOL    HW115956   2.616   2.858  10.045
 5208SOL    HW215957   2.474   2.931  10.013
 5209SOL     OW15958   2.197   3.297  10.371
 5209SOL    HW115959   2.119   3.266  10.318
 5209SOL    HW215960   2.255   3.355  10.314
 5210SOL     OW15961   3.322   3.367  10.649
 5210SOL    HW115962   3.346   3.461  10.675
 5210SOL    HW215963   3.306   3.313  10.731
 5211SOL     OW15964   3.465   2.309  10.047
 5211SOL    HW115965   3.391   2.355   9.997
 5211SOL    HW215966   3.516   2.377  10.100
 5212SOL     OW15967   2.093   3.575   9.793
 5212SOL    HW115968   2.127   3.652   9.847
 5212SOL    HW215969   2.137   3.575   9.703
 5213SOL     OW15970   2.092   3.296   9.848
 5213SOL    HW115971   2.066   3.392   9.848
 5213SOL    HW215972   2.021   3.242   9.893
 5214SOL     OW15973   2.102   2.953  10.196
 5214SOL    HW115974   2.116   2.869  10.248
 5214SOL    HW215975   2.047   3.017  10.251
 5215SOL     OW15976   2.482   3.648  10.749
 5215SOL    HW115977   2.390   3.631  10.784
 5215SOL    HW215978   2.510   3.740  10.775
 5216SOL     OW15979   2.468   2.826   9.433
 5216SOL    HW115980   2.475   2.910   9.379
 5216SOL    HW215981   2.514   2.839   9.521
 5217SOL     OW15982   3.456   1.976  10.790
 5217SOL    HW115983   3.438   2.043  10.718
 5217SOL    HW215984   3.453   2.022  10.879
 5218SOL     OW15985   1.984   2.505   9.873
 5218SOL    HW115986   1.939   2.417   9.890
 5218SOL    HW215987   1.983   2.559   9.957
 5219SOL     OW15988   3.704   3.629   9.669
 5219SOL    HW115989   3.758   3.600   9.749
 5219SOL    HW215990   3.734   3.719   9.640
 5220SOL     OW15991   1.889   3.458   9.427
 5220SOL    HW115992   1.870   3.362   9.448
 5220SOL    HW215993   1.856   3.516   9.502
 5221SOL     OW15994   3.551   2.784   9.922
 5221SOL    HW115995   3.646   2.755   9.930
 5221SOL    HW215996   3.543   2.849   9.847
 5222SOL     OW15997   3.503   2.970   9.742
 5222SOL    HW115998   3.589   2.972   9.690
 5222SOL    HW215999   3.517   3.017   9.830
 5223SOL     OW16000   2.475   3.227  10.036
 5223SOL    HW116001   2.426   3.140  10.045
 5223SOL    HW216002   2.452   3.270   9.949
 5224SOL     OW16003   3.155   3.090  10.733
 5224SOL    HW116004   3.192   3.017  10.675
 5224SOL    HW216005   3.207   3.095  10.818
 5225SOL     OW16006   2.671   1.866   9.812
 5225SOL    HW116007   2.711   1.957   9.803
 5225SOL    HW216008   2.571   1.874   9.818
 5226SOL     OW16009   2.059   2.838  10.574
 5226SOL    HW116010   2.148   2.793  10.560
 5226SOL    HW216011   1.986   2.773  10.555
 5227SOL     OW16012   3.387   2.861   9.500
 5227SOL    HW116013   3.324   2.785   9.513
 5227SOL    HW216014   3.435   2.879   9.586
 5228SOL     OW16015   3.328   3.279  10.263
 5228SOL    HW116016   3.269   3.285  10.343
 5228SOL    HW216017   3.313   3.191  10.217
 5229SOL     OW16018   3.529   3.576   9.882
 5229SOL    HW116019   3.488   3.553   9.794
 5229SOL    HW216020   3.511   3.502   9.947
 5230SOL     OW16021   2.460   2.591   9.580
 5230SOL    HW116022   2.484   2.660   9.512
 5230SOL    HW216023   2.382   2.624   9.634
 5231SOL     OW16024   3.143   2.207  10.254
 5231SOL    HW116025   3.057   2.157  10.241
 5231SOL    HW216026   3.205   2.153  10.310
 5232SOL     OW16027   3.438   3.524   9.617
 5232SOL    HW116028   3.527   3.570   9.620
 5232SOL    HW216029   3.417   3.500   9.522
 5233SOL     OW16030   2.669   2.467  10.775
 5233SOL    HW116031   2.622   2.464  10.864
 5233SOL    HW216032   2.618   2.412  10.709
 5234SOL     OW16033   2.835   2.752  10.882
 5234SOL    HW116034   2.881   2.668  10.853
 5234SOL    HW216035   2.779   2.786  10.807
 5235SOL     OW16036   2.853   2.272  10.552
 5235SOL    HW116037   2.776   2.306  10.606
 5235SOL    HW216038   2.819   2.221  10.473
 5236SOL     OW16039   2.903   2.563   9.739
 5236SOL    HW116040   2.929   2.559   9.835
 5236SOL    HW216041   2.818   2.512   9.725
 5237SOL     OW16042   1.938   2.673  10.099
 5237SOL    HW116043   2.037   2.661  10.108
 5237SOL    HW216044   1.914   2.768  10.120
 5238SOL     OW16045   1.992   3.683  10.881
 5238SOL    HW116046   1.982   3.668  10.980
 5238SOL    HW216047   1.906   3.719  10.845
 5239SOL     OW16048   2.727   2.210   9.505
 5239SOL    HW116049   2.786   2.273   9.456
 5239SOL    HW216050   2.746   2.116   9.476
 5240SOL     OW16051   3.224   3.006   9.855
 5240SOL    HW116052   3.307   2.977   9.807
 5240SOL    HW216053   3.175   3.073   9.799
 5241SOL     OW16054   2.870   3.318   9.787
 5241SOL    HW116055   2.824   3.390   9.735
 5241SOL    HW216056   2.866   3.338   9.885
 5242SOL     OW16057   2.213   3.663  10.163
 5242SOL    HW116058   2.263   3.577  10.169
 5242SOL    HW216059   2.278   3.740  10.160
 5243SOL     OW16060   3.657   2.928  10.183
 5243SOL    HW116061   3.595   2.913  10.107
 5243SOL    HW216062   3.605   2.939  10.268
 5244SOL     OW16063   2.183   2.805   9.552
 5244SOL    HW116064   2.265   2.844   9.510
 5244SOL    HW216065   2.156   2.723   9.503
 5245SOL     OW16066   3.320   2.597  10.038
 5245SOL    HW116067   3.315   2.532  10.113
 5245SOL    HW216068   3.400   2.656  10.051
 5246SOL     OW16069   2.973   3.638   9.547
 5246SOL    HW116070   2.913   3.576   9.597
 5246SOL    HW216071   3.004   3.594   9.462
 5247SOL     OW16072   3.494   3.239   9.391
 5247SOL    HW116073   3.462   3.333   9.381
 5247SOL    HW216074   3.418   3.176   9.379
 5248SOL     OW16075   2.326   3.605   9.633
 5248SOL    HW116076   2.359   3.644   9.719
 5248SOL    HW216077   2.402   3.598   9.568
 5249SOL     OW16078   3.262   1.969   9.736
 5249SOL    HW116079   3.238   1.932   9.646
 5249SOL    HW216080   3.361   1.985   9.740
 5250SOL     OW16081   2.111   3.647  10.551
 5250SOL    HW116082   2.168   3.582  10.601
 5250SOL    HW216083   2.095   3.614  10.458
 5251SOL     OW16084   2.802   3.560  10.214
 5251SOL    HW116085   2.882   3.503  10.235
 5251SOL    HW216086   2.753   3.520  10.137
 5252SOL     OW16087   2.244   2.562   9.790
 5252SOL    HW116088   2.289   2.472   9.787
 5252SOL    HW216089   2.150   2.551   9.823
 5253SOL     OW16090   2.476   1.984   9.427
 5253SOL    HW116091   2.574   1.962   9.434
 5253SOL    HW216092   2.445   1.967   9.334
 5254SOL     OW16093   2.750   3.376  10.505
 5254SOL    HW116094   2.727   3.351  10.411
 5254SOL    HW216095   2.811   3.307  10.544
 5255SOL     OW16096   3.213   2.452  10.743
 5255SOL    HW116097   3.241   2.409  10.828
 5255SOL    HW216098   3.238   2.548  10.744
 5256SOL     OW16099   2.665   3.264  10.234
 5256SOL    HW116100   2.755   3.278  10.192
 5256SOL    HW216101   2.594   3.266  10.163
 5257SOL     OW16102   2.784   2.365  10.209
 5257SOL    HW116103   2.759   2.356  10.113
 5257SOL    HW216104   2.832   2.283  10.240
 5258SOL     OW16105   2.401   1.926   9.822
 5258SOL    HW116106   2.320   1.927   9.880
 5258SOL    HW216107   2.404   2.009   9.767
 5259SOL     OW16108   3.296   3.050   9.351
 5259SOL    HW116109   3.328   2.974   9.408
 5259SOL    HW216110   3.204   3.077   9.381
 5260SOL     OW16111   2.159   1.897   9.481
 5260SOL    HW116112   2.208   1.981   9.460
 5260SOL    HW216113   2.221   1.832   9.526
 5261SOL     OW16114   2.797   2.098   9.790
 5261SOL    HW116115   2.749   2.139   9.712
 5261SOL    HW216116   2.896   2.096   9.771
 5262SOL     OW16117   3.089   3.432  10.103
 5262SOL    HW116118   3.110   3.506  10.038
 5262SOL    HW216119   3.157   3.432  10.176
 5263SOL     OW16120   2.321   3.014  10.051
 5263SOL    HW116121   2.250   2.987  10.116
 5263SOL    HW216122   2.295   2.986   9.958
 5264SOL     OW16123   3.133   3.659   9.901
 5264SOL    HW116124   3.177   3.723   9.837
 5264SOL    HW216125   3.083   3.711   9.971
 5265SOL     OW16126   2.894   2.411   9.326
 5265SOL    HW116127   2.853   2.493   9.287
 5265SOL    HW216128   2.958   2.437   9.399
 5266SOL     OW16129   1.940   2.418  10.696
 5266SOL    HW116130   2.032   2.417  10.655
 5266SOL    HW216131   1.934   2.492  10.763
 5267SOL     OW16132   2.728   2.316   9.952
 5267SOL    HW116133   2.696   2.388   9.890
 5267SOL    HW216134   2.752   2.235   9.899
 5268SOL     OW16135   2.879   1.901  10.063
 5268SOL    HW116136   2.807   1.906   9.994
 5268SOL    HW216137   2.855   1.832  10.132
 5269SOL     OW16138   3.291   3.035  10.177
 5269SOL    HW116139   3.236   2.951  10.170
 5269SOL    HW216140   3.317   3.064  10.085
 5270SOL     OW16141   3.328   2.452  10.302
 5270SOL    HW116142   3.298   2.357  10.309
 5270SOL    HW216143   3.401   2.468  10.368
 5271SOL     OW16144   3.719   2.695   9.687
 5271SOL    HW116145   3.761   2.631   9.751
 5271SOL    HW216146   3.681   2.644   9.609
 5272SOL     OW16147   2.350   3.247   9.484
 5272SOL    HW116148   2.263   3.232   9.531
 5272SOL    HW216149   2.333   3.273   9.389
 5273SOL     OW16150   3.526   3.142   9.967
 5273SOL    HW116151   3.625   3.150   9.981
 5273SOL    HW216152   3.481   3.226   9.998
 5274SOL     OW16153   3.252   2.437   9.388
 5274SOL    HW116154   3.198   2.416   9.469
 5274SOL    HW216155   3.343   2.396   9.397
 5275SOL     OW16156   3.616   3.085  10.898
 5275SOL    HW116157   3.707   3.046  10.885
 5275SOL    HW216158   3.624   3.181  10.922
 5276SOL     OW16159   2.926   3.209  10.650
 5276SOL    HW116160   2.846   3.186  10.705
 5276SOL    HW216161   3.009   3.183  10.699
 5277SOL     OW16162   2.973   3.057  10.410
 5277SOL    HW116163   2.933   3.101  10.491
 5277SOL    HW216164   2.932   3.094  10.327
 5278SOL     OW16165   3.500   2.961  10.389
 5278SOL    HW116166   3.505   3.042  10.448
 5278SOL    HW216167   3.414   2.963  10.338
 5279SOL     OW16168   2.777   1.951  10.712
 5279SOL    HW116169   2.802   1.931  10.617
 5279SOL    HW216170   2.849   2.007  10.754
 5280SOL     OW16171   2.567   2.912   9.678
 5280SOL    HW116172   2.553   2.919   9.777
 5280SOL    HW216173   2.651   2.861   9.660
 5281SOL     OW16174   2.272   2.675  10.561
 5281SOL    HW116175   2.358   2.687  10.611
 5281SOL    HW216176   2.230   2.588  10.588
 5282SOL     OW16177   3.136   2.248  10.572
 5282SOL    HW116178   3.157   2.322  10.636
 5282SOL    HW216179   3.047   2.265  10.529
 5283SOL     OW16180   1.926   3.426  10.641
 5283SOL    HW116181   1.880   3.508  10.607
 5283SOL    HW216182   2.024   3.445  10.650
 5284SOL     OW16183   2.229   2.962   9.811
 5284SOL    HW116184   2.222   3.045   9.755
 5284SOL    HW216185   2.233   2.882   9.751
 5285SOL     OW16186   2.428   2.399  10.175
 5285SOL    HW116187   2.440   2.465  10.101
 5285SOL    HW216188   2.474   2.433  10.258
 5286SOL     OW16189   3.114   3.210   9.698
 5286SOL    HW116190   3.164   3.287   9.738
 5286SOL    HW216191   3.019   3.212   9.730
 5287SOL     OW16192   3.134   3.307  10.452
 5287SOL    HW116193   3.181   3.320  10.539
 5287SOL    HW216194   3.068   3.233  10.461
 5288SOL     OW16195   3.444   2.501   9.782
 5288SOL    HW116196   3.413   2.562   9.855
 5288SOL    HW216197   3.494   2.553   9.713
 5289SOL     OW16198   2.216   3.372  10.639
 5289SOL    HW116199   2.195   3.328  10.552
 5289SOL    HW216200   2.313   3.398  10.642
 5290SOL     OW16201   2.264   2.613  10.908
 5290SOL    HW116202   2.332   2.668  10.861
 5290SOL    HW216203   2.304   2.525  10.935
 5291SOL     OW16204   3.449   2.641  10.980
 5291SOL    HW116205   3.357   2.679  10.975
 5291SOL    HW216206   3.509   2.688  10.915
 5292SOL     OW16207   2.435   2.732  10.339
 5292SOL    HW116208   2.479   2.821  10.330
 5292SOL    HW216209   2.372   2.732  10.416
 5293SOL     OW16210   3.222   2.724  10.355
 5293SOL    HW116211   3.147   2.724  10.289
 5293SOL    HW216212   3.259   2.632  10.364
 5294SOL     OW16213   3.071   2.387   9.585
 5294SOL    HW116214   3.084   2.303   9.639
 5294SOL    HW216215   3.042   2.461   9.645
 5295SOL     OW16216   1.899   3.172  10.592
 5295SOL    HW116217   1.952   3.123  10.660
 5295SOL    HW216218   1.921   3.270  10.597
 5296SOL     OW16219   2.594   2.496  10.374
 5296SOL    HW116220   2.653   2.470  10.298
 5296SOL    HW216221   2.566   2.592  10.363
 5297SOL     OW16222   3.484   2.229   9.684
 5297SOL    HW116223   3.486   2.153   9.748
 5297SOL    HW216224   3.436   2.306   9.724
 5298SOL     OW16225   2.885   2.628  10.276
 5298SOL    HW116226   2.900   2.649  10.372
 5298SOL    HW216227   2.855   2.533  10.267
 5299SOL     OW16228   2.842   3.435  11.010
 5299SOL    HW116229   2.822   3.479  10.922
 5299SOL    HW216230   2.881   3.344  10.994
 5300SOL     OW16231   3.402   2.136   9.435
 5300SOL    HW116232   3.341   2.061   9.458
 5300SOL    HW216233   3.424   2.188   9.518
 5301SOL     OW16234   3.165   2.700   9.352
 5301SOL    HW116235   3.199   2.607   9.367
 5301SOL    HW216236   3.183   2.727   9.257
 5302SOL     OW16237   2.930   3.195  10.159
 5302SOL    HW116238   2.937   3.111  10.104
 5302SOL    HW216239   2.992   3.264  10.123
 5303SOL     OW16240   2.181   2.672  10.259
 5303SOL    HW116241   2.274   2.708  10.264
 5303SOL    HW216242   2.175   2.587  10.311
 5304SOL     OW16243   3.000   2.242  10.988
 5304SOL    HW116244   2.955   2.305  11.052
 5304SOL    HW216245   3.093   2.273  10.971
 5305SOL     OW16246   3.022   2.069  10.787
 5305SOL    HW116247   3.022   2.133  10.864
 5305SOL    HW216248   3.050   2.117  10.704
 5306SOL     OW16249   1.870   3.188   9.510
 5306SOL    HW116250   1.777   3.209   9.479
 5306SOL    HW216251   1.880   3.089   9.523
 5307SOL     OW16252   1.950   3.663  10.237
 5307SOL    HW116253   1.908   3.577  10.210
 5307SOL    HW216254   2.044   3.666  10.203
 5308SOL     OW16255   2.366   3.430  10.220
 5308SOL    HW116256   2.432   3.504  10.229
 5308SOL    HW216257   2.410   3.351  10.178
 5309SOL     OW16258   2.864   2.658  10.548
 5309SOL    HW116259   2.905   2.626  10.634
 5309SOL    HW216260   2.768   2.631  10.545
 5310SOL     OW16261   1.902   2.406  10.424
 5310SOL    HW116262   1.987   2.373  10.383
 5310SOL    HW216263   1.915   2.421  10.522
 5311SOL     OW16264   2.677   2.434   9.635
 5311SOL    HW116265   2.684   2.345   9.589
 5311SOL    HW216266   2.583   2.468   9.627
 5312SOL     OW16267   3.519   2.466  10.516
 5312SOL    HW116268   3.481   2.397  10.578
 5312SOL    HW216269   3.601   2.430  10.472
 5313SOL     OW16270   2.114   3.426  11.054
 5313SOL    HW116271   2.084   3.483  11.130
 5313SOL    HW216272   2.107   3.329  11.080
 5314SOL     OW16273   2.533   2.326  10.579
 5314SOL    HW116274   2.499   2.237  10.549
 5314SOL    HW216275   2.559   2.380  10.499
 5315SOL     OW16276   2.792   3.540  10.775
 5315SOL    HW116277   2.768   3.522  10.680
 5315SOL    HW216278   2.822   3.634  10.785
 5316SOL     OW16279   2.021   2.999  10.776
 5316SOL    HW116280   2.043   2.938  10.852
 5316SOL    HW216281   2.031   2.950  10.690
 5317SOL     OW16282   3.209   2.921  10.544
 5317SOL    HW116283   3.233   2.858  10.470
 5317SOL    HW216284   3.119   2.961  10.526
 5318SOL     OW16285   3.164   2.717   9.619
 5318SOL    HW116286   3.078   2.686   9.661
 5318SOL    HW216287   3.160   2.703   9.520
 5319SOL     OW16288   3.621   3.609  10.464
 5319SOL    HW116289   3.682   3.639  10.391
 5319SOL    HW216290   3.583   3.520  10.442
 5320SOL     OW16291   3.114   3.593  10.438
 5320SOL    HW116292   3.198   3.598  10.384
 5320SOL    HW216293   3.091   3.497  10.456
 5321SOL     OW16294   1.945   3.120  10.332
 5321SOL    HW116295   1.940   3.119  10.432
 5321SOL    HW216296   1.862   3.079  10.294
 5322SOL     OW16297   3.588   1.997   9.833
 5322SOL    HW116298   3.661   1.980   9.766
 5322SOL    HW216299   3.557   1.910   9.871
 5323SOL     OW16300   3.250   3.435   9.787
 5323SOL    HW116301   3.317   3.447   9.713
 5323SOL    HW216302   3.210   3.524   9.810
 5324SOL     OW16303   3.142   2.789   9.982
 5324SOL    HW116304   3.202   2.708   9.984
 5324SOL    HW216305   3.182   2.858   9.922
 5325SOL     OW16306   2.534   3.478   9.464
 5325SOL    HW116307   2.543   3.488   9.365
 5325SOL    HW216308   2.494   3.389   9.485
 5326SOL     OW16309   3.512   3.582  10.704
 5326SOL    HW116310   3.565   3.592  10.620
 5326SOL    HW216311   3.485   3.672  10.738
 5327SOL     OW16312   3.703   2.037  10.273
 5327SOL    HW116313   3.742   1.952  10.237
 5327SOL    HW216314   3.605   2.039  10.254
 5328SOL     OW16315   3.056   3.474   9.341
 5328SOL    HW116316   3.062   3.381   9.378
 5328SOL    HW216317   2.997   3.474   9.261
 5329SOL     OW16318   2.684   2.864  10.682
 5329SOL    HW116319   2.724   2.863  10.590
 5329SOL    HW216320   2.694   2.956  10.722
 5330SOL     OW16321   2.778   2.772   9.601
 5330SOL    HW116322   2.841   2.810   9.533
 5330SOL    HW216323   2.818   2.689   9.640
 5331SOL     OW16324   3.366   3.469   9.354
 5331SOL    HW116325   3.274   3.506   9.361
 5331SOL    HW216326   3.404   3.489   9.264
 5332SOL     OW16327   2.234   3.150  10.800
 5332SOL    HW116328   2.221   3.243  10.766
 5332SOL    HW216329   2.150   3.098  10.787
 5333SOL     OW16330   3.476   3.154  10.599
 5333SOL    HW116331   3.536   3.157  10.679
 5333SOL    HW216332   3.401   3.218  10.612
 5334SOL     OW16333   2.901   2.960  10.006
 5334SOL    HW116334   2.831   2.913  10.060
 5334SOL    HW216335   2.960   2.892   9.963
 5335SOL     OW16336   2.876   2.098  10.281
 5335SOL    HW116337   2.868   2.062  10.188
 5335SOL    HW216338   2.874   2.022  10.346
 5336SOL     OW16339   2.452   3.349   9.801
 5336SOL    HW116340   2.494   3.291   9.731
 5336SOL    HW216341   2.408   3.428   9.757
 5337SOL     OW16342   3.571   2.247  10.691
 5337SOL    HW116343   3.644   2.316  10.695
 5337SOL    HW216344   3.599   2.172  10.632
 5338SOL     OW16345   2.117   3.210   9.600
 5338SOL    HW116346   2.021   3.211   9.573
 5338SOL    HW216347   2.129   3.263   9.684
 5339SOL     OW16348   1.967   2.875  11.036
 5339SOL    HW116349   1.890   2.842  11.090
 5339SOL    HW216350   2.052   2.845  11.078
 5340SOL     OW16351   2.534   2.065  10.799
 5340SOL    HW116352   2.624   2.049  10.759
 5340SOL    HW216353   2.542   2.070  10.898
 5341SOL     OW16354   1.937   2.207   9.343
 5341SOL    HW116355   1.845   2.179   9.314
 5341SOL    HW216356   1.968   2.284   9.287
 5342SOL     OW16357   3.302   2.718  10.708
 5342SOL    HW116358   3.245   2.770  10.645
 5342SOL    HW216359   3.398   2.730  10.684
 5343SOL     OW16360   1.934   2.028   9.628
 5343SOL    HW116361   1.917   2.111   9.574
 5343SOL    HW216362   2.024   1.991   9.606
 5344SOL     OW16363   3.045   3.197   9.429
 5344SOL    HW116364   2.946   3.186   9.431
 5344SOL    HW216365   3.079   3.212   9.522
 5345SOL     OW16366   2.475   2.704  10.741
 5345SOL    HW116367   2.531   2.785  10.724
 5345SOL    HW216368   2.534   2.624  10.744
 5346SOL     OW16369   3.355   3.629  10.269
 5346SOL    HW116370   3.388   3.693  10.200
 5346SOL    HW216371   3.421   3.623  10.344
 5347SOL     OW16372   2.578   2.427  11.018
 5347SOL    HW116373   2.597   2.492  11.092
 5347SOL    HW216374   2.638   2.347  11.027
 5348SOL     OW16375   2.252   3.603  10.870
 5348SOL    HW116376   2.161   3.644  10.868
 5348SOL    HW216377   2.245   3.509  10.902
 5349SOL     OW16378   3.536   2.745  10.564
 5349SOL    HW116379   3.509   2.656  10.527
 5349SOL    HW216380   3.537   2.813  10.491
 5350SOL     OW16381   3.087   2.187   9.759
 5350SOL    HW116382   3.152   2.113   9.748
 5350SOL    HW216383   3.107   2.237   9.843
 5351SOL     OW16384   2.456   2.607   9.962
 5351SOL    HW116385   2.506   2.692   9.943
 5351SOL    HW216386   2.368   2.609   9.914
 5352SOL     OW16387   3.639   2.204  10.952
 5352SOL    HW116388   3.622   2.235  10.858
 5352SOL    HW216389   3.555   2.167  10.990
 5353SOL     OW16390   3.592   2.796  10.827
 5353SOL    HW116391   3.630   2.887  10.842
 5353SOL    HW216392   3.584   2.779  10.728
 5354SOL     OW16393   2.721   3.236   9.326
 5354SOL    HW116394   2.675   3.251   9.414
 5354SOL    HW216395   2.765   3.321   9.296
 5355SOL     OW16396   2.523   3.652  10.263
 5355SOL    HW116397   2.477   3.740  10.250
 5355SOL    HW216398   2.622   3.664  10.256
 5356SOL     OW16399   2.721   2.818  10.171
 5356SOL    HW116400   2.775   2.749  10.219
 5356SOL    HW216401   2.689   2.887  10.237
 5357SOL     OW16402   2.945   2.846   9.397
 5357SOL    HW116403   2.922   2.899   9.315
 5357SOL    HW216404   3.026   2.790   9.378
 5358SOL     OW16405   3.723   3.431  10.161
 5358SOL    HW116406   3.652   3.419  10.091
 5358SOL    HW216407   3.724   3.352  10.221
 5359SOL     OW16408   1.941   3.102   9.963
 5359SOL    HW116409   1.940   3.055  10.051
 5359SOL    HW216410   2.023   3.074   9.912
 5360SOL     OW16411   3.686   2.054  10.537
 5360SOL    HW116412   3.682   1.964  10.581
 5360SOL    HW216413   3.689   2.043  10.438
 5361SOL     OW16414   3.567   3.349  10.414
 5361SOL    HW116415   3.474   3.324  10.387
 5361SOL    HW216416   3.593   3.299  10.496
 5362SOL     OW16417   2.674   3.448   9.997
 5362SOL    HW116418   2.706   3.458   9.903
 5362SOL    HW216419   2.595   3.386   9.999
 5363SOL     OW16420   3.286   2.076  10.422
 5363SOL    HW116421   3.338   2.011  10.477
 5363SOL    HW216422   3.237   2.139  10.483
 5364SOL     OW16423   2.863   1.896  10.464
 5364SOL    HW116424   2.800   1.824  10.433
 5364SOL    HW216425   2.956   1.860  10.464
 5365SOL     OW16426   2.632   3.192   9.611
 5365SOL    HW116427   2.586   3.105   9.628
 5365SOL    HW216428   2.723   3.189   9.652
 5366SOL     OW16429   2.480   3.429  10.594
 5366SOL    HW116430   2.475   3.511  10.651
 5366SOL    HW216431   2.569   3.426  10.549
 5367SOL     OW16432   3.214   1.914   9.478
 5367SOL    HW116433   3.249   1.873   9.394
 5367SOL    HW216434   3.124   1.876   9.498
 5368SOL     OW16435   3.162   2.315  10.001
 5368SOL    HW116436   3.103   2.395  10.005
 5368SOL    HW216437   3.177   2.280  10.094
 5369SOL     OW16438   3.455   2.083  10.192
 5369SOL    HW116439   3.371   2.082  10.246
 5369SOL    HW216440   3.457   2.166  10.136
 5370SOL     OW16441   1.901   2.939   9.610
 5370SOL    HW116442   2.000   2.928   9.601
 5370SOL    HW216443   1.861   2.853   9.642
 5371SOL     OW16444   2.737   3.508   9.647
 5371SOL    HW116445   2.660   3.473   9.593
 5371SOL    HW216446   2.705   3.579   9.709
 5372SOL     OW16447   2.092   4.352   0.113
 5372SOL    HW116448   1.999   4.350   0.150
 5372SOL    HW216449   2.093   4.313   0.021
 5373SOL     OW16450   2.087   3.999   0.996
 5373SOL    HW116451   2.122   3.982   1.088
 5373SOL    HW216452   1.999   3.954   0.984
 5374SOL     OW16453   1.881   4.092   0.647
 5374SOL    HW116454   1.799   4.135   0.686
 5374SOL    HW216455   1.853   4.019   0.584
 5375SOL     OW16456   3.617   4.331   0.231
 5375SOL    HW116457   3.605   4.318   0.132
 5375SOL    HW216458   3.587   4.250   0.280
 5376SOL     OW16459   2.547   4.736   0.665
 5376SOL    HW116460   2.616   4.720   0.735
 5376SOL    HW216461   2.474   4.793   0.703
 5377SOL     OW16462   2.300   4.116   1.499
 5377SOL    HW116463   2.382   4.060   1.508
 5377SOL    HW216464   2.219   4.058   1.503
 5378SOL     OW16465   3.465   4.171   0.737
 5378SOL    HW116466   3.391   4.217   0.687
 5378SOL    HW216467   3.516   4.239   0.790
 5379SOL     OW16468   3.456   3.838   1.480
 5379SOL    HW116469   3.438   3.905   1.408
 5379SOL    HW216470   3.453   3.884   1.569
 5380SOL     OW16471   1.984   4.367   0.563
 5380SOL    HW116472   1.939   4.279   0.580
 5380SOL    HW216473   1.983   4.421   0.647
 5381SOL     OW16474   1.975   4.461   1.597
 5381SOL    HW116475   2.063   4.448   1.642
 5381SOL    HW216476   1.962   4.558   1.575
 5382SOL     OW16477   2.671   3.728   0.502
 5382SOL    HW116478   2.711   3.819   0.493
 5382SOL    HW216479   2.571   3.736   0.508
 5383SOL     OW16480   2.179   3.975   1.801
 5383SOL    HW116481   2.250   4.046   1.807
 5383SOL    HW216482   2.091   4.014   1.829
 5384SOL     OW16483   3.143   4.069   0.944
 5384SOL    HW116484   3.057   4.019   0.931
 5384SOL    HW216485   3.205   4.015   1.000
 5385SOL     OW16486   2.669   4.329   1.465
 5385SOL    HW116487   2.622   4.326   1.554
 5385SOL    HW216488   2.618   4.274   1.399
 5386SOL     OW16489   3.256   4.193   1.674
 5386SOL    HW116490   3.236   4.236   1.762
 5386SOL    HW216491   3.334   4.131   1.683
 5387SOL     OW16492   2.853   4.134   1.242
 5387SOL    HW116493   2.776   4.168   1.296
 5387SOL    HW216494   2.819   4.083   1.163
 5388SOL     OW16495   2.903   4.425   0.429
 5388SOL    HW116496   2.929   4.421   0.525
 5388SOL    HW216497   2.818   4.374   0.415
 5389SOL     OW16498   2.727   4.072   0.195
 5389SOL    HW116499   2.786   4.135   0.146
 5389SOL    HW216500   2.746   3.978   0.166
 5390SOL     OW16501   3.581   4.309   1.831
 5390SOL    HW116502   3.555   4.398   1.795
 5390SOL    HW216503   3.579   4.241   1.758
 5391SOL     OW16504   2.412   3.920   0.885
 5391SOL    HW116505   2.407   3.915   0.985
 5391SOL    HW216506   2.414   4.016   0.856
 5392SOL     OW16507   3.320   4.459   0.728
 5392SOL    HW116508   3.315   4.394   0.803
 5392SOL    HW216509   3.400   4.518   0.741
 5393SOL     OW16510   2.064   4.009   1.498
 5393SOL    HW116511   1.984   4.069   1.485
 5393SOL    HW216512   2.054   3.960   1.584
 5394SOL     OW16513   3.262   3.831   0.426
 5394SOL    HW116514   3.238   3.794   0.336
 5394SOL    HW216515   3.361   3.847   0.430
 5395SOL     OW16516   2.244   4.424   0.480
 5395SOL    HW116517   2.289   4.334   0.477
 5395SOL    HW216518   2.150   4.413   0.513
 5396SOL     OW16519   3.409   3.946   1.729
 5396SOL    HW116520   3.404   3.983   1.821
 5396SOL    HW216521   3.337   3.877   1.717
 5397SOL     OW16522   2.476   3.846   0.117
 5397SOL    HW116523   2.574   3.824   0.124
 5397SOL    HW216524   2.445   3.829   0.024
 5398SOL     OW16525   2.643   3.988   1.749
 5398SOL    HW116526   2.710   3.927   1.792
 5398SOL    HW216527   2.570   4.007   1.814
 5399SOL     OW16528   3.213   4.314   1.433
 5399SOL    HW116529   3.241   4.271   1.518
 5399SOL    HW216530   3.238   4.410   1.434
 5400SOL     OW16531   2.784   4.227   0.899
 5400SOL    HW116532   2.759   4.218   0.803
 5400SOL    HW216533   2.832   4.145   0.930
 5401SOL     OW16534   2.401   3.788   0.512
 5401SOL    HW116535   2.320   3.789   0.570
 5401SOL    HW216536   2.404   3.871   0.457
 5402SOL     OW16537   2.159   3.759   0.171
 5402SOL    HW116538   2.208   3.843   0.150
 5402SOL    HW216539   2.221   3.694   0.216
 5403SOL     OW16540   2.797   3.960   0.480
 5403SOL    HW116541   2.749   4.001   0.402
 5403SOL    HW216542   2.896   3.958   0.461
 5404SOL     OW16543   2.938   4.407   1.464
 5404SOL    HW116544   2.858   4.346   1.467
 5404SOL    HW216545   3.019   4.354   1.440
 5405SOL     OW16546   2.894   4.273   0.016
 5405SOL    HW116547   2.853   4.355  -0.023
 5405SOL    HW216548   2.958   4.299   0.089
 5406SOL     OW16549   1.940   4.280   1.386
 5406SOL    HW116550   2.032   4.279   1.345
 5406SOL    HW216551   1.934   4.354   1.453
 5407SOL     OW16552   2.423   3.946   1.147
 5407SOL    HW116553   2.461   3.862   1.184
 5407SOL    HW216554   2.335   3.965   1.191
 5408SOL     OW16555   2.728   4.178   0.642
 5408SOL    HW116556   2.696   4.250   0.580
 5408SOL    HW216557   2.752   4.097   0.589
 5409SOL     OW16558   2.879   3.763   0.753
 5409SOL    HW116559   2.807   3.768   0.684
 5409SOL    HW216560   2.855   3.694   0.822
 5410SOL     OW16561   3.328   4.314   0.992
 5410SOL    HW116562   3.298   4.219   0.999
 5410SOL    HW216563   3.401   4.330   1.058
 5411SOL     OW16564   3.252   4.299   0.078
 5411SOL    HW116565   3.198   4.278   0.159
 5411SOL    HW216566   3.343   4.258   0.087
 5412SOL     OW16567   2.389   3.980   0.328
 5412SOL    HW116568   2.416   3.921   0.253
 5412SOL    HW216569   2.389   4.075   0.297
 5413SOL     OW16570   2.777   3.813   1.402
 5413SOL    HW116571   2.802   3.793   1.307
 5413SOL    HW216572   2.849   3.869   1.444
 5414SOL     OW16573   2.272   4.537   1.251
 5414SOL    HW116574   2.358   4.549   1.301
 5414SOL    HW216575   2.230   4.450   1.278
 5415SOL     OW16576   3.136   4.110   1.262
 5415SOL    HW116577   3.157   4.184   1.326
 5415SOL    HW216578   3.047   4.127   1.219
 5416SOL     OW16579   2.428   4.261   0.865
 5416SOL    HW116580   2.440   4.327   0.791
 5416SOL    HW216581   2.474   4.295   0.948
 5417SOL     OW16582   3.444   4.363   0.472
 5417SOL    HW116583   3.413   4.424   0.545
 5417SOL    HW216584   3.494   4.415   0.403
 5418SOL     OW16585   2.875   3.829   1.770
 5418SOL    HW116586   2.881   3.914   1.718
 5418SOL    HW216587   2.907   3.753   1.713
 5419SOL     OW16588   2.366   3.774   1.740
 5419SOL    HW116589   2.324   3.717   1.670
 5419SOL    HW216590   2.300   3.843   1.772
 5420SOL     OW16591   3.071   4.249   0.275
 5420SOL    HW116592   3.084   4.165   0.329
 5420SOL    HW216593   3.042   4.323   0.335
 5421SOL     OW16594   2.169   3.937   1.231
 5421SOL    HW116595   2.146   3.974   1.321
 5421SOL    HW216596   2.139   3.842   1.225
 5422SOL     OW16597   2.594   4.358   1.064
 5422SOL    HW116598   2.653   4.332   0.988
 5422SOL    HW216599   2.566   4.454   1.053
 5423SOL     OW16600   3.590   4.659   1.854
 5423SOL    HW116601   3.544   4.652   1.765
 5423SOL    HW216602   3.528   4.703   1.920
 5424SOL     OW16603   2.169   3.787   0.618
 5424SOL    HW116604   2.158   3.881   0.651
 5424SOL    HW216605   2.164   3.724   0.695
 5425SOL     OW16606   3.484   4.091   0.374
 5425SOL    HW116607   3.486   4.015   0.438
 5425SOL    HW216608   3.436   4.168   0.414
 5426SOL     OW16609   3.402   3.998   0.125
 5426SOL    HW116610   3.341   3.923   0.148
 5426SOL    HW216611   3.424   4.050   0.208
 5427SOL     OW16612   2.181   4.534   0.949
 5427SOL    HW116613   2.274   4.570   0.954
 5427SOL    HW216614   2.175   4.449   1.001
 5428SOL     OW16615   2.201   4.233   1.006
 5428SOL    HW116616   2.149   4.150   0.989
 5428SOL    HW216617   2.278   4.238   0.942
 5429SOL     OW16618   3.000   4.104   1.678
 5429SOL    HW116619   2.955   4.167   1.742
 5429SOL    HW216620   3.093   4.135   1.661
 5430SOL     OW16621   3.022   3.931   1.477
 5430SOL    HW116622   3.022   3.995   1.554
 5430SOL    HW216623   3.050   3.979   1.394
 5431SOL     OW16624   1.902   4.268   1.114
 5431SOL    HW116625   1.987   4.235   1.073
 5431SOL    HW216626   1.915   4.283   1.212
 5432SOL     OW16627   2.051   4.244   1.722
 5432SOL    HW116628   2.110   4.204   1.652
 5432SOL    HW216629   1.993   4.315   1.681
 5433SOL     OW16630   2.677   4.296   0.325
 5433SOL    HW116631   2.684   4.207   0.279
 5433SOL    HW216632   2.583   4.330   0.317
 5434SOL     OW16633   3.519   4.328   1.206
 5434SOL    HW116634   3.481   4.259   1.268
 5434SOL    HW216635   3.601   4.292   1.162
 5435SOL     OW16636   2.533   4.188   1.269
 5435SOL    HW116637   2.499   4.099   1.239
 5435SOL    HW216638   2.559   4.242   1.189
 5436SOL     OW16639   2.335   4.224   0.191
 5436SOL    HW116640   2.396   4.304   0.195
 5436SOL    HW216641   2.240   4.255   0.198
 5437SOL     OW16642   2.765   3.810   0.133
 5437SOL    HW116643   2.816   3.811   0.047
 5437SOL    HW216644   2.821   3.768   0.204
 5438SOL     OW16645   3.588   3.859   0.523
 5438SOL    HW116646   3.661   3.842   0.456
 5438SOL    HW216647   3.557   3.772   0.561
 5439SOL     OW16648   3.142   4.651   0.672
 5439SOL    HW116649   3.202   4.570   0.674
 5439SOL    HW216650   3.182   4.720   0.612
 5440SOL     OW16651   3.703   3.899   0.963
 5440SOL    HW116652   3.742   3.814   0.927
 5440SOL    HW216653   3.605   3.901   0.944
 5441SOL     OW16654   2.125   4.050   0.720
 5441SOL    HW116655   2.046   4.101   0.686
 5441SOL    HW216656   2.116   4.035   0.818
 5442SOL     OW16657   2.901   4.822   0.696
 5442SOL    HW116658   2.831   4.775   0.750
 5442SOL    HW216659   2.960   4.754   0.653
 5443SOL     OW16660   2.876   3.960   0.971
 5443SOL    HW116661   2.868   3.924   0.878
 5443SOL    HW216662   2.874   3.884   1.036
 5444SOL     OW16663   3.571   4.109   1.381
 5444SOL    HW116664   3.644   4.178   1.385
 5444SOL    HW216665   3.599   4.034   1.322
 5445SOL     OW16666   2.534   3.927   1.489
 5445SOL    HW116667   2.624   3.911   1.449
 5445SOL    HW216668   2.542   3.932   1.588
 5446SOL     OW16669   1.937   4.069   0.033
 5446SOL    HW116670   1.845   4.041   0.004
 5446SOL    HW216671   1.968   4.146  -0.023
 5447SOL     OW16672   1.934   3.890   0.318
 5447SOL    HW116673   1.917   3.973   0.264
 5447SOL    HW216674   2.024   3.853   0.296
 5448SOL     OW16675   2.578   4.289   1.708
 5448SOL    HW116676   2.597   4.354   1.782
 5448SOL    HW216677   2.638   4.209   1.717
 5449SOL     OW16678   3.087   4.049   0.449
 5449SOL    HW116679   3.152   3.975   0.438
 5449SOL    HW216680   3.107   4.099   0.533
 5450SOL     OW16681   3.639   4.066   1.642
 5450SOL    HW116682   3.622   4.097   1.548
 5450SOL    HW216683   3.555   4.029   1.680
 5451SOL     OW16684   3.686   3.916   1.227
 5451SOL    HW116685   3.682   3.826   1.271
 5451SOL    HW216686   3.689   3.905   1.128
 5452SOL     OW16687   2.290   4.148   0.520
 5452SOL    HW116688   2.320   4.076   0.458
 5452SOL    HW216689   2.251   4.108   0.603
 5453SOL     OW16690   2.179   4.271   1.280
 5453SOL    HW116691   2.217   4.212   1.352
 5453SOL    HW216692   2.219   4.245   1.192
 5454SOL     OW16693   3.286   3.938   1.112
 5454SOL    HW116694   3.338   3.873   1.167
 5454SOL    HW216695   3.237   4.001   1.173
 5455SOL     OW16696   2.863   3.758   1.154
 5455SOL    HW116697   2.800   3.686   1.123
 5455SOL    HW216698   2.956   3.722   1.154
 5456SOL     OW16699   3.214   3.776   0.168
 5456SOL    HW116700   3.249   3.735   0.084
 5456SOL    HW216701   3.124   3.738   0.188
 5457SOL     OW16702   3.162   4.177   0.691
 5457SOL    HW116703   3.103   4.257   0.695
 5457SOL    HW216704   3.177   4.142   0.784
 5458SOL     OW16705   3.455   3.945   0.882
 5458SOL    HW116706   3.371   3.944   0.936
 5458SOL    HW216707   3.457   4.028   0.826
 5459SOL     OW16708   2.092   4.352   1.975
 5459SOL    HW116709   1.999   4.350   2.012
 5459SOL    HW216710   2.093   4.313   1.883
 5460SOL     OW16711   2.087   3.999   2.858
 5460SOL    HW116712   2.122   3.982   2.950
 5460SOL    HW216713   1.999   3.954   2.846
 5461SOL     OW16714   1.881   4.092   2.509
 5461SOL    HW116715   1.799   4.135   2.548
 5461SOL    HW216716   1.853   4.019   2.446
 5462SOL     OW16717   3.617   4.331   2.093
 5462SOL    HW116718   3.605   4.318   1.994
 5462SOL    HW216719   3.587   4.250   2.142
 5463SOL     OW16720   2.547   4.736   2.527
 5463SOL    HW116721   2.616   4.720   2.597
 5463SOL    HW216722   2.474   4.793   2.565
 5464SOL     OW16723   2.300   4.116   3.361
 5464SOL    HW116724   2.382   4.060   3.370
 5464SOL    HW216725   2.219   4.058   3.365
 5465SOL     OW16726   3.465   4.171   2.599
 5465SOL    HW116727   3.391   4.217   2.549
 5465SOL    HW216728   3.516   4.239   2.652
 5466SOL     OW16729   3.456   3.838   3.342
 5466SOL    HW116730   3.438   3.905   3.270
 5466SOL    HW216731   3.453   3.884   3.431
 5467SOL     OW16732   1.984   4.367   2.425
 5467SOL    HW116733   1.939   4.279   2.442
 5467SOL    HW216734   1.983   4.421   2.509
 5468SOL     OW16735   1.975   4.461   3.459
 5468SOL    HW116736   2.063   4.448   3.504
 5468SOL    HW216737   1.962   4.558   3.437
 5469SOL     OW16738   2.671   3.728   2.364
 5469SOL    HW116739   2.711   3.819   2.355
 5469SOL    HW216740   2.571   3.736   2.370
 5470SOL     OW16741   2.179   3.975   3.663
 5470SOL    HW116742   2.250   4.046   3.669
 5470SOL    HW216743   2.091   4.014   3.691
 5471SOL     OW16744   3.143   4.069   2.806
 5471SOL    HW116745   3.057   4.019   2.793
 5471SOL    HW216746   3.205   4.015   2.862
 5472SOL     OW16747   2.669   4.329   3.327
 5472SOL    HW116748   2.622   4.326   3.416
 5472SOL    HW216749   2.618   4.274   3.261
 5473SOL     OW16750   3.256   4.193   3.536
 5473SOL    HW116751   3.236   4.236   3.624
 5473SOL    HW216752   3.334   4.131   3.545
 5474SOL     OW16753   2.853   4.134   3.104
 5474SOL    HW116754   2.776   4.168   3.158
 5474SOL    HW216755   2.819   4.083   3.025
 5475SOL     OW16756   2.903   4.425   2.291
 5475SOL    HW116757   2.929   4.421   2.387
 5475SOL    HW216758   2.818   4.374   2.277
 5476SOL     OW16759   2.727   4.072   2.057
 5476SOL    HW116760   2.786   4.135   2.008
 5476SOL    HW216761   2.746   3.978   2.028
 5477SOL     OW16762   3.581   4.309   3.693
 5477SOL    HW116763   3.555   4.398   3.657
 5477SOL    HW216764   3.579   4.241   3.620
 5478SOL     OW16765   2.412   3.920   2.747
 5478SOL    HW116766   2.407   3.915   2.847
 5478SOL    HW216767   2.414   4.016   2.718
 5479SOL     OW16768   3.320   4.459   2.590
 5479SOL    HW116769   3.315   4.394   2.665
 5479SOL    HW216770   3.400   4.518   2.603
 5480SOL     OW16771   2.064   4.009   3.360
 5480SOL    HW116772   1.984   4.069   3.347
 5480SOL    HW216773   2.054   3.960   3.446
 5481SOL     OW16774   3.262   3.831   2.288
 5481SOL    HW116775   3.238   3.794   2.198
 5481SOL    HW216776   3.361   3.847   2.292
 5482SOL     OW16777   2.244   4.424   2.342
 5482SOL    HW116778   2.289   4.334   2.339
 5482SOL    HW216779   2.150   4.413   2.375
 5483SOL     OW16780   3.409   3.946   3.591
 5483SOL    HW116781   3.404   3.983   3.683
 5483SOL    HW216782   3.337   3.877   3.579
 5484SOL     OW16783   2.476   3.846   1.979
 5484SOL    HW116784   2.574   3.824   1.986
 5484SOL    HW216785   2.445   3.829   1.886
 5485SOL     OW16786   2.643   3.988   3.611
 5485SOL    HW116787   2.710   3.927   3.654
 5485SOL    HW216788   2.570   4.007   3.676
 5486SOL     OW16789   3.213   4.314   3.295
 5486SOL    HW116790   3.241   4.271   3.380
 5486SOL    HW216791   3.238   4.410   3.296
 5487SOL     OW16792   2.784   4.227   2.761
 5487SOL    HW116793   2.759   4.218   2.665
 5487SOL    HW216794   2.832   4.145   2.792
 5488SOL     OW16795   2.401   3.788   2.374
 5488SOL    HW116796   2.320   3.789   2.432
 5488SOL    HW216797   2.404   3.871   2.319
 5489SOL     OW16798   2.159   3.759   2.033
 5489SOL    HW116799   2.208   3.843   2.012
 5489SOL    HW216800   2.221   3.694   2.078
 5490SOL     OW16801   2.797   3.960   2.342
 5490SOL    HW116802   2.749   4.001   2.264
 5490SOL    HW216803   2.896   3.958   2.323
 5491SOL     OW16804   2.938   4.407   3.326
 5491SOL    HW116805   2.858   4.346   3.329
 5491SOL    HW216806   3.019   4.354   3.302
 5492SOL     OW16807   2.894   4.273   1.878
 5492SOL    HW116808   2.853   4.355   1.839
 5492SOL    HW216809   2.958   4.299   1.951
 5493SOL     OW16810   1.940   4.280   3.248
 5493SOL    HW116811   2.032   4.279   3.207
 5493SOL    HW216812   1.934   4.354   3.315
 5494SOL     OW16813   2.423   3.946   3.009
 5494SOL    HW116814   2.461   3.862   3.046
 5494SOL    HW216815   2.335   3.965   3.053
 5495SOL     OW16816   2.728   4.178   2.504
 5495SOL    HW116817   2.696   4.250   2.442
 5495SOL    HW216818   2.752   4.097   2.451
 5496SOL     OW16819   2.879   3.763   2.615
 5496SOL    HW116820   2.807   3.768   2.546
 5496SOL    HW216821   2.855   3.694   2.684
 5497SOL     OW16822   3.328   4.314   2.854
 5497SOL    HW116823   3.298   4.219   2.861
 5497SOL    HW216824   3.401   4.330   2.920
 5498SOL     OW16825   3.252   4.299   1.940
 5498SOL    HW116826   3.198   4.278   2.021
 5498SOL    HW216827   3.343   4.258   1.949
 5499SOL     OW16828   2.389   3.980   2.190
 5499SOL    HW116829   2.416   3.921   2.115
 5499SOL    HW216830   2.389   4.075   2.159
 5500SOL     OW16831   2.777   3.813   3.264
 5500SOL    HW116832   2.802   3.793   3.169
 5500SOL    HW216833   2.849   3.869   3.306
 5501SOL     OW16834   2.272   4.537   3.113
 5501SOL    HW116835   2.358   4.549   3.163
 5501SOL    HW216836   2.230   4.450   3.140
 5502SOL     OW16837   3.136   4.110   3.124
 5502SOL    HW116838   3.157   4.184   3.188
 5502SOL    HW216839   3.047   4.127   3.081
 5503SOL     OW16840   2.428   4.261   2.727
 5503SOL    HW116841   2.440   4.327   2.653
 5503SOL    HW216842   2.474   4.295   2.810
 5504SOL     OW16843   3.444   4.363   2.334
 5504SOL    HW116844   3.413   4.424   2.407
 5504SOL    HW216845   3.494   4.415   2.265
 5505SOL     OW16846   2.875   3.829   3.632
 5505SOL    HW116847   2.881   3.914   3.580
 5505SOL    HW216848   2.907   3.753   3.575
 5506SOL     OW16849   2.366   3.774   3.602
 5506SOL    HW116850   2.324   3.717   3.532
 5506SOL    HW216851   2.300   3.843   3.634
 5507SOL     OW16852   3.071   4.249   2.137
 5507SOL    HW116853   3.084   4.165   2.191
 5507SOL    HW216854   3.042   4.323   2.197
 5508SOL     OW16855   2.169   3.937   3.093
 5508SOL    HW116856   2.146   3.974   3.183
 5508SOL    HW216857   2.139   3.842   3.087
 5509SOL     OW16858   2.594   4.358   2.926
 5509SOL    HW116859   2.653   4.332   2.850
 5509SOL    HW216860   2.566   4.454   2.915
 5510SOL     OW16861   3.590   4.659   3.716
 5510SOL    HW116862   3.544   4.652   3.627
 5510SOL    HW216863   3.528   4.703   3.782
 5511SOL     OW16864   2.169   3.787   2.480
 5511SOL    HW116865   2.158   3.881   2.513
 5511SOL    HW216866   2.164   3.724   2.557
 5512SOL     OW16867   3.484   4.091   2.236
 5512SOL    HW116868   3.486   4.015   2.300
 5512SOL    HW216869   3.436   4.168   2.276
 5513SOL     OW16870   3.402   3.998   1.987
 5513SOL    HW116871   3.341   3.923   2.010
 5513SOL    HW216872   3.424   4.050   2.070
 5514SOL     OW16873   2.181   4.534   2.811
 5514SOL    HW116874   2.274   4.570   2.816
 5514SOL    HW216875   2.175   4.449   2.863
 5515SOL     OW16876   2.201   4.233   2.868
 5515SOL    HW116877   2.149   4.150   2.851
 5515SOL    HW216878   2.278   4.238   2.804
 5516SOL     OW16879   3.000   4.104   3.540
 5516SOL    HW116880   2.955   4.167   3.604
 5516SOL    HW216881   3.093   4.135   3.523
 5517SOL     OW16882   3.022   3.931   3.339
 5517SOL    HW116883   3.022   3.995   3.416
 5517SOL    HW216884   3.050   3.979   3.256
 5518SOL     OW16885   1.902   4.268   2.976
 5518SOL    HW116886   1.987   4.235   2.935
 5518SOL    HW216887   1.915   4.283   3.074
 5519SOL     OW16888   2.051   4.244   3.584
 5519SOL    HW116889   2.110   4.204   3.514
 5519SOL    HW216890   1.993   4.315   3.543
 5520SOL     OW16891   2.677   4.296   2.187
 5520SOL    HW116892   2.684   4.207   2.141
 5520SOL    HW216893   2.583   4.330   2.179
 5521SOL     OW16894   3.519   4.328   3.068
 5521SOL    HW116895   3.481   4.259   3.130
 5521SOL    HW216896   3.601   4.292   3.024
 5522SOL     OW16897   2.533   4.188   3.131
 5522SOL    HW116898   2.499   4.099   3.101
 5522SOL    HW216899   2.559   4.242   3.051
 5523SOL     OW16900   2.335   4.224   2.053
 5523SOL    HW116901   2.396   4.304   2.057
 5523SOL    HW216902   2.240   4.255   2.060
 5524SOL     OW16903   3.588   3.859   2.385
 5524SOL    HW116904   3.661   3.842   2.318
 5524SOL    HW216905   3.557   3.772   2.423
 5525SOL     OW16906   3.142   4.651   2.534
 5525SOL    HW116907   3.202   4.570   2.536
 5525SOL    HW216908   3.182   4.720   2.474
 5526SOL     OW16909   3.703   3.899   2.825
 5526SOL    HW116910   3.742   3.814   2.789
 5526SOL    HW216911   3.605   3.901   2.806
 5527SOL     OW16912   2.125   4.050   2.582
 5527SOL    HW116913   2.046   4.101   2.548
 5527SOL    HW216914   2.116   4.035   2.680
 5528SOL     OW16915   2.778   4.634   2.153
 5528SOL    HW116916   2.841   4.672   2.085
 5528SOL    HW216917   2.818   4.551   2.192
 5529SOL     OW16918   2.901   4.822   2.558
 5529SOL    HW116919   2.831   4.775   2.612
 5529SOL    HW216920   2.960   4.754   2.515
 5530SOL     OW16921   2.876   3.960   2.833
 5530SOL    HW116922   2.868   3.924   2.740
 5530SOL    HW216923   2.874   3.884   2.898
 5531SOL     OW16924   3.571   4.109   3.243
 5531SOL    HW116925   3.644   4.178   3.247
 5531SOL    HW216926   3.599   4.034   3.184
 5532SOL     OW16927   2.534   3.927   3.351
 5532SOL    HW116928   2.624   3.911   3.311
 5532SOL    HW216929   2.542   3.932   3.450
 5533SOL     OW16930   1.937   4.069   1.895
 5533SOL    HW116931   1.845   4.041   1.866
 5533SOL    HW216932   1.968   4.146   1.839
 5534SOL     OW16933   1.934   3.890   2.180
 5534SOL    HW116934   1.917   3.973   2.126
 5534SOL    HW216935   2.024   3.853   2.158
 5535SOL     OW16936   2.578   4.289   3.570
 5535SOL    HW116937   2.597   4.354   3.644
 5535SOL    HW216938   2.638   4.209   3.579
 5536SOL     OW16939   3.087   4.049   2.311
 5536SOL    HW116940   3.152   3.975   2.300
 5536SOL    HW216941   3.107   4.099   2.395
 5537SOL     OW16942   3.639   4.066   3.504
 5537SOL    HW116943   3.622   4.097   3.410
 5537SOL    HW216944   3.555   4.029   3.542
 5538SOL     OW16945   2.945   4.708   1.949
 5538SOL    HW116946   2.922   4.761   1.867
 5538SOL    HW216947   3.026   4.652   1.930
 5539SOL     OW16948   3.686   3.916   3.089
 5539SOL    HW116949   3.682   3.826   3.133
 5539SOL    HW216950   3.689   3.905   2.990
 5540SOL     OW16951   2.290   4.148   2.382
 5540SOL    HW116952   2.320   4.076   2.320
 5540SOL    HW216953   2.251   4.108   2.465
 5541SOL     OW16954   2.179   4.271   3.142
 5541SOL    HW116955   2.217   4.212   3.214
 5541SOL    HW216956   2.219   4.245   3.054
 5542SOL     OW16957   3.286   3.938   2.974
 5542SOL    HW116958   3.338   3.873   3.029
 5542SOL    HW216959   3.237   4.001   3.035
 5543SOL     OW16960   2.863   3.758   3.016
 5543SOL    HW116961   2.800   3.686   2.985
 5543SOL    HW216962   2.956   3.722   3.016
 5544SOL     OW16963   3.214   3.776   2.030
 5544SOL    HW116964   3.249   3.735   1.946
 5544SOL    HW216965   3.124   3.738   2.050
 5545SOL     OW16966   3.162   4.177   2.553
 5545SOL    HW116967   3.103   4.257   2.557
 5545SOL    HW216968   3.177   4.142   2.646
 5546SOL     OW16969   3.455   3.945   2.744
 5546SOL    HW116970   3.371   3.944   2.798
 5546SOL    HW216971   3.457   4.028   2.688
 5547SOL     OW16972   2.092   4.352   3.837
 5547SOL    HW116973   1.999   4.350   3.874
 5547SOL    HW216974   2.093   4.313   3.745
 5548SOL     OW16975   2.087   3.999   4.720
 5548SOL    HW116976   2.122   3.982   4.812
 5548SOL    HW216977   1.999   3.954   4.708
 5549SOL     OW16978   1.881   4.092   4.371
 5549SOL    HW116979   1.799   4.135   4.410
 5549SOL    HW216980   1.853   4.019   4.308
 5550SOL     OW16981   3.617   4.331   3.955
 5550SOL    HW116982   3.605   4.318   3.856
 5550SOL    HW216983   3.587   4.250   4.004
 5551SOL     OW16984   2.547   4.736   4.389
 5551SOL    HW116985   2.616   4.720   4.459
 5551SOL    HW216986   2.474   4.793   4.427
 5552SOL     OW16987   2.300   4.116   5.223
 5552SOL    HW116988   2.382   4.060   5.232
 5552SOL    HW216989   2.219   4.058   5.227
 5553SOL     OW16990   3.465   4.171   4.461
 5553SOL    HW116991   3.391   4.217   4.411
 5553SOL    HW216992   3.516   4.239   4.514
 5554SOL     OW16993   3.456   3.838   5.204
 5554SOL    HW116994   3.438   3.905   5.132
 5554SOL    HW216995   3.453   3.884   5.293
 5555SOL     OW16996   1.984   4.367   4.287
 5555SOL    HW116997   1.939   4.279   4.304
 5555SOL    HW216998   1.983   4.421   4.371
 5556SOL     OW16999   1.975   4.461   5.321
 5556SOL    HW117000   2.063   4.448   5.366
 5556SOL    HW217001   1.962   4.558   5.299
 5557SOL     OW17002   2.671   3.728   4.226
 5557SOL    HW117003   2.711   3.819   4.217
 5557SOL    HW217004   2.571   3.736   4.232
 5558SOL     OW17005   2.179   3.975   5.525
 5558SOL    HW117006   2.250   4.046   5.531
 5558SOL    HW217007   2.091   4.014   5.553
 5559SOL     OW17008   3.143   4.069   4.668
 5559SOL    HW117009   3.057   4.019   4.655
 5559SOL    HW217010   3.205   4.015   4.724
 5560SOL     OW17011   2.669   4.329   5.189
 5560SOL    HW117012   2.622   4.326   5.278
 5560SOL    HW217013   2.618   4.274   5.123
 5561SOL     OW17014   3.256   4.193   5.398
 5561SOL    HW117015   3.236   4.236   5.486
 5561SOL    HW217016   3.334   4.131   5.407
 5562SOL     OW17017   2.853   4.134   4.966
 5562SOL    HW117018   2.776   4.168   5.020
 5562SOL    HW217019   2.819   4.083   4.887
 5563SOL     OW17020   2.903   4.425   4.153
 5563SOL    HW117021   2.929   4.421   4.249
 5563SOL    HW217022   2.818   4.374   4.139
 5564SOL     OW17023   2.727   4.072   3.919
 5564SOL    HW117024   2.786   4.135   3.870
 5564SOL    HW217025   2.746   3.978   3.890
 5565SOL     OW17026   3.581   4.309   5.555
 5565SOL    HW117027   3.555   4.398   5.519
 5565SOL    HW217028   3.579   4.241   5.482
 5566SOL     OW17029   2.412   3.920   4.609
 5566SOL    HW117030   2.407   3.915   4.709
 5566SOL    HW217031   2.414   4.016   4.580
 5567SOL     OW17032   3.320   4.459   4.452
 5567SOL    HW117033   3.315   4.394   4.527
 5567SOL    HW217034   3.400   4.518   4.465
 5568SOL     OW17035   2.064   4.009   5.222
 5568SOL    HW117036   1.984   4.069   5.209
 5568SOL    HW217037   2.054   3.960   5.308
 5569SOL     OW17038   3.262   3.831   4.150
 5569SOL    HW117039   3.238   3.794   4.060
 5569SOL    HW217040   3.361   3.847   4.154
 5570SOL     OW17041   2.244   4.424   4.204
 5570SOL    HW117042   2.289   4.334   4.201
 5570SOL    HW217043   2.150   4.413   4.237
 5571SOL     OW17044   3.409   3.946   5.453
 5571SOL    HW117045   3.404   3.983   5.545
 5571SOL    HW217046   3.337   3.877   5.441
 5572SOL     OW17047   2.476   3.846   3.841
 5572SOL    HW117048   2.574   3.824   3.848
 5572SOL    HW217049   2.445   3.829   3.748
 5573SOL     OW17050   2.643   3.988   5.473
 5573SOL    HW117051   2.710   3.927   5.516
 5573SOL    HW217052   2.570   4.007   5.538
 5574SOL     OW17053   3.213   4.314   5.157
 5574SOL    HW117054   3.241   4.271   5.242
 5574SOL    HW217055   3.238   4.410   5.158
 5575SOL     OW17056   2.784   4.227   4.623
 5575SOL    HW117057   2.759   4.218   4.527
 5575SOL    HW217058   2.832   4.145   4.654
 5576SOL     OW17059   2.401   3.788   4.236
 5576SOL    HW117060   2.320   3.789   4.294
 5576SOL    HW217061   2.404   3.871   4.181
 5577SOL     OW17062   2.159   3.759   3.895
 5577SOL    HW117063   2.208   3.843   3.874
 5577SOL    HW217064   2.221   3.694   3.940
 5578SOL     OW17065   2.797   3.960   4.204
 5578SOL    HW117066   2.749   4.001   4.126
 5578SOL    HW217067   2.896   3.958   4.185
 5579SOL     OW17068   2.938   4.407   5.188
 5579SOL    HW117069   2.858   4.346   5.191
 5579SOL    HW217070   3.019   4.354   5.164
 5580SOL     OW17071   2.894   4.273   3.740
 5580SOL    HW117072   2.853   4.355   3.701
 5580SOL    HW217073   2.958   4.299   3.813
 5581SOL     OW17074   1.940   4.280   5.110
 5581SOL    HW117075   2.032   4.279   5.069
 5581SOL    HW217076   1.934   4.354   5.177
 5582SOL     OW17077   2.423   3.946   4.871
 5582SOL    HW117078   2.461   3.862   4.908
 5582SOL    HW217079   2.335   3.965   4.915
 5583SOL     OW17080   2.728   4.178   4.366
 5583SOL    HW117081   2.696   4.250   4.304
 5583SOL    HW217082   2.752   4.097   4.313
 5584SOL     OW17083   2.879   3.763   4.477
 5584SOL    HW117084   2.807   3.768   4.408
 5584SOL    HW217085   2.855   3.694   4.546
 5585SOL     OW17086   3.328   4.314   4.716
 5585SOL    HW117087   3.298   4.219   4.723
 5585SOL    HW217088   3.401   4.330   4.782
 5586SOL     OW17089   3.252   4.299   3.802
 5586SOL    HW117090   3.198   4.278   3.883
 5586SOL    HW217091   3.343   4.258   3.811
 5587SOL     OW17092   2.389   3.980   4.052
 5587SOL    HW117093   2.416   3.921   3.977
 5587SOL    HW217094   2.389   4.075   4.021
 5588SOL     OW17095   2.777   3.813   5.126
 5588SOL    HW117096   2.802   3.793   5.031
 5588SOL    HW217097   2.849   3.869   5.168
 5589SOL     OW17098   2.272   4.537   4.975
 5589SOL    HW117099   2.358   4.549   5.025
 5589SOL    HW217100   2.230   4.450   5.002
 5590SOL     OW17101   3.136   4.110   4.986
 5590SOL    HW117102   3.157   4.184   5.050
 5590SOL    HW217103   3.047   4.127   4.943
 5591SOL     OW17104   2.428   4.261   4.589
 5591SOL    HW117105   2.440   4.327   4.515
 5591SOL    HW217106   2.474   4.295   4.672
 5592SOL     OW17107   3.444   4.363   4.196
 5592SOL    HW117108   3.413   4.424   4.269
 5592SOL    HW217109   3.494   4.415   4.127
 5593SOL     OW17110   2.875   3.829   5.494
 5593SOL    HW117111   2.881   3.914   5.442
 5593SOL    HW217112   2.907   3.753   5.437
 5594SOL     OW17113   2.366   3.774   5.464
 5594SOL    HW117114   2.324   3.717   5.394
 5594SOL    HW217115   2.300   3.843   5.496
 5595SOL     OW17116   3.071   4.249   3.999
 5595SOL    HW117117   3.084   4.165   4.053
 5595SOL    HW217118   3.042   4.323   4.059
 5596SOL     OW17119   2.169   3.937   4.955
 5596SOL    HW117120   2.146   3.974   5.045
 5596SOL    HW217121   2.139   3.842   4.949
 5597SOL     OW17122   2.594   4.358   4.788
 5597SOL    HW117123   2.653   4.332   4.712
 5597SOL    HW217124   2.566   4.454   4.777
 5598SOL     OW17125   3.590   4.659   5.578
 5598SOL    HW117126   3.544   4.652   5.489
 5598SOL    HW217127   3.528   4.703   5.644
 5599SOL     OW17128   2.169   3.787   4.342
 5599SOL    HW117129   2.158   3.881   4.375
 5599SOL    HW217130   2.164   3.724   4.419
 5600SOL     OW17131   3.484   4.091   4.098
 5600SOL    HW117132   3.486   4.015   4.162
 5600SOL    HW217133   3.436   4.168   4.138
 5601SOL     OW17134   3.402   3.998   3.849
 5601SOL    HW117135   3.341   3.923   3.872
 5601SOL    HW217136   3.424   4.050   3.932
 5602SOL     OW17137   2.181   4.534   4.673
 5602SOL    HW117138   2.274   4.570   4.678
 5602SOL    HW217139   2.175   4.449   4.725
 5603SOL     OW17140   2.201   4.233   4.730
 5603SOL    HW117141   2.149   4.150   4.713
 5603SOL    HW217142   2.278   4.238   4.666
 5604SOL     OW17143   3.000   4.104   5.402
 5604SOL    HW117144   2.955   4.167   5.466
 5604SOL    HW217145   3.093   4.135   5.385
 5605SOL     OW17146   3.022   3.931   5.201
 5605SOL    HW117147   3.022   3.995   5.278
 5605SOL    HW217148   3.050   3.979   5.118
 5606SOL     OW17149   1.902   4.268   4.838
 5606SOL    HW117150   1.987   4.235   4.797
 5606SOL    HW217151   1.915   4.283   4.936
 5607SOL     OW17152   2.051   4.244   5.446
 5607SOL    HW117153   2.110   4.204   5.376
 5607SOL    HW217154   1.993   4.315   5.405
 5608SOL     OW17155   2.677   4.296   4.049
 5608SOL    HW117156   2.684   4.207   4.003
 5608SOL    HW217157   2.583   4.330   4.041
 5609SOL     OW17158   3.519   4.328   4.930
 5609SOL    HW117159   3.481   4.259   4.992
 5609SOL    HW217160   3.601   4.292   4.886
 5610SOL     OW17161   2.533   4.188   4.993
 5610SOL    HW117162   2.499   4.099   4.963
 5610SOL    HW217163   2.559   4.242   4.913
 5611SOL     OW17164   2.335   4.224   3.915
 5611SOL    HW117165   2.396   4.304   3.919
 5611SOL    HW217166   2.240   4.255   3.922
 5612SOL     OW17167   3.588   3.859   4.247
 5612SOL    HW117168   3.661   3.842   4.180
 5612SOL    HW217169   3.557   3.772   4.285
 5613SOL     OW17170   3.142   4.651   4.396
 5613SOL    HW117171   3.202   4.570   4.398
 5613SOL    HW217172   3.182   4.720   4.336
 5614SOL     OW17173   3.703   3.899   4.687
 5614SOL    HW117174   3.742   3.814   4.651
 5614SOL    HW217175   3.605   3.901   4.668
 5615SOL     OW17176   2.125   4.050   4.444
 5615SOL    HW117177   2.046   4.101   4.410
 5615SOL    HW217178   2.116   4.035   4.542
 5616SOL     OW17179   2.778   4.634   4.015
 5616SOL    HW117180   2.841   4.672   3.947
 5616SOL    HW217181   2.818   4.551   4.054
 5617SOL     OW17182   2.901   4.822   4.420
 5617SOL    HW117183   2.831   4.775   4.474
 5617SOL    HW217184   2.960   4.754   4.377
 5618SOL     OW17185   2.876   3.960   4.695
 5618SOL    HW117186   2.868   3.924   4.602
 5618SOL    HW217187   2.874   3.884   4.760
 5619SOL     OW17188   3.571   4.109   5.105
 5619SOL    HW117189   3.644   4.178   5.109
 5619SOL    HW217190   3.599   4.034   5.046
 5620SOL     OW17191   2.534   3.927   5.213
 5620SOL    HW117192   2.624   3.911   5.173
 5620SOL    HW217193   2.542   3.932   5.312
 5621SOL     OW17194   1.937   4.069   3.757
 5621SOL    HW117195   1.845   4.041   3.728
 5621SOL    HW217196   1.968   4.146   3.701
 5622SOL     OW17197   1.934   3.890   4.042
 5622SOL    HW117198   1.917   3.973   3.988
 5622SOL    HW217199   2.024   3.853   4.020
 5623SOL     OW17200   2.578   4.289   5.432
 5623SOL    HW117201   2.597   4.354   5.506
 5623SOL    HW217202   2.638   4.209   5.441
 5624SOL     OW17203   3.087   4.049   4.173
 5624SOL    HW117204   3.152   3.975   4.162
 5624SOL    HW217205   3.107   4.099   4.257
 5625SOL     OW17206   3.639   4.066   5.366
 5625SOL    HW117207   3.622   4.097   5.272
 5625SOL    HW217208   3.555   4.029   5.404
 5626SOL     OW17209   2.945   4.708   3.811
 5626SOL    HW117210   2.922   4.761   3.729
 5626SOL    HW217211   3.026   4.652   3.792
 5627SOL     OW17212   3.686   3.916   4.951
 5627SOL    HW117213   3.682   3.826   4.995
 5627SOL    HW217214   3.689   3.905   4.852
 5628SOL     OW17215   2.290   4.148   4.244
 5628SOL    HW117216   2.320   4.076   4.182
 5628SOL    HW217217   2.251   4.108   4.327
 5629SOL     OW17218   2.179   4.271   5.004
 5629SOL    HW117219   2.217   4.212   5.076
 5629SOL    HW217220   2.219   4.245   4.916
 5630SOL     OW17221   3.286   3.938   4.836
 5630SOL    HW117222   3.338   3.873   4.891
 5630SOL    HW217223   3.237   4.001   4.897
 5631SOL     OW17224   2.863   3.758   4.878
 5631SOL    HW117225   2.800   3.686   4.847
 5631SOL    HW217226   2.956   3.722   4.878
 5632SOL     OW17227   3.214   3.776   3.892
 5632SOL    HW117228   3.249   3.735   3.808
 5632SOL    HW217229   3.124   3.738   3.912
 5633SOL     OW17230   3.162   4.177   4.415
 5633SOL    HW117231   3.103   4.257   4.419
 5633SOL    HW217232   3.177   4.142   4.508
 5634SOL     OW17233   3.455   3.945   4.606
 5634SOL    HW117234   3.371   3.944   4.660
 5634SOL    HW217235   3.457   4.028   4.550
 5635SOL     OW17236   2.092   4.352   5.699
 5635SOL    HW117237   1.999   4.350   5.736
 5635SOL    HW217238   2.093   4.313   5.607
 5636SOL     OW17239   2.087   3.999   6.582
 5636SOL    HW117240   2.122   3.982   6.674
 5636SOL    HW217241   1.999   3.954   6.570
 5637SOL     OW17242   1.881   4.092   6.233
 5637SOL    HW117243   1.799   4.135   6.272
 5637SOL    HW217244   1.853   4.019   6.170
 5638SOL     OW17245   3.617   4.331   5.817
 5638SOL    HW117246   3.605   4.318   5.718
 5638SOL    HW217247   3.587   4.250   5.866
 5639SOL     OW17248   2.547   4.736   6.251
 5639SOL    HW117249   2.616   4.720   6.321
 5639SOL    HW217250   2.474   4.793   6.289
 5640SOL     OW17251   2.300   4.116   7.085
 5640SOL    HW117252   2.382   4.060   7.094
 5640SOL    HW217253   2.219   4.058   7.089
 5641SOL     OW17254   3.465   4.171   6.323
 5641SOL    HW117255   3.391   4.217   6.273
 5641SOL    HW217256   3.516   4.239   6.376
 5642SOL     OW17257   3.456   3.838   7.066
 5642SOL    HW117258   3.438   3.905   6.994
 5642SOL    HW217259   3.453   3.884   7.155
 5643SOL     OW17260   1.984   4.367   6.149
 5643SOL    HW117261   1.939   4.279   6.166
 5643SOL    HW217262   1.983   4.421   6.233
 5644SOL     OW17263   1.975   4.461   7.183
 5644SOL    HW117264   2.063   4.448   7.228
 5644SOL    HW217265   1.962   4.558   7.161
 5645SOL     OW17266   2.671   3.728   6.088
 5645SOL    HW117267   2.711   3.819   6.079
 5645SOL    HW217268   2.571   3.736   6.094
 5646SOL     OW17269   2.179   3.975   7.387
 5646SOL    HW117270   2.250   4.046   7.393
 5646SOL    HW217271   2.091   4.014   7.415
 5647SOL     OW17272   3.143   4.069   6.530
 5647SOL    HW117273   3.057   4.019   6.517
 5647SOL    HW217274   3.205   4.015   6.586
 5648SOL     OW17275   2.669   4.329   7.051
 5648SOL    HW117276   2.622   4.326   7.140
 5648SOL    HW217277   2.618   4.274   6.985
 5649SOL     OW17278   3.256   4.193   7.260
 5649SOL    HW117279   3.236   4.236   7.348
 5649SOL    HW217280   3.334   4.131   7.269
 5650SOL     OW17281   2.853   4.134   6.828
 5650SOL    HW117282   2.776   4.168   6.882
 5650SOL    HW217283   2.819   4.083   6.749
 5651SOL     OW17284   2.903   4.425   6.015
 5651SOL    HW117285   2.929   4.421   6.111
 5651SOL    HW217286   2.818   4.374   6.001
 5652SOL     OW17287   2.727   4.072   5.781
 5652SOL    HW117288   2.786   4.135   5.732
 5652SOL    HW217289   2.746   3.978   5.752
 5653SOL     OW17290   3.581   4.309   7.417
 5653SOL    HW117291   3.555   4.398   7.381
 5653SOL    HW217292   3.579   4.241   7.344
 5654SOL     OW17293   2.412   3.920   6.471
 5654SOL    HW117294   2.407   3.915   6.571
 5654SOL    HW217295   2.414   4.016   6.442
 5655SOL     OW17296   3.320   4.459   6.314
 5655SOL    HW117297   3.315   4.394   6.389
 5655SOL    HW217298   3.400   4.518   6.327
 5656SOL     OW17299   2.064   4.009   7.084
 5656SOL    HW117300   1.984   4.069   7.071
 5656SOL    HW217301   2.054   3.960   7.170
 5657SOL     OW17302   3.262   3.831   6.012
 5657SOL    HW117303   3.238   3.794   5.922
 5657SOL    HW217304   3.361   3.847   6.016
 5658SOL     OW17305   2.244   4.424   6.066
 5658SOL    HW117306   2.289   4.334   6.063
 5658SOL    HW217307   2.150   4.413   6.099
 5659SOL     OW17308   3.409   3.946   7.315
 5659SOL    HW117309   3.404   3.983   7.407
 5659SOL    HW217310   3.337   3.877   7.303
 5660SOL     OW17311   2.476   3.846   5.703
 5660SOL    HW117312   2.574   3.824   5.710
 5660SOL    HW217313   2.445   3.829   5.610
 5661SOL     OW17314   2.643   3.988   7.335
 5661SOL    HW117315   2.710   3.927   7.378
 5661SOL    HW217316   2.570   4.007   7.400
 5662SOL     OW17317   3.213   4.314   7.019
 5662SOL    HW117318   3.241   4.271   7.104
 5662SOL    HW217319   3.238   4.410   7.020
 5663SOL     OW17320   2.784   4.227   6.485
 5663SOL    HW117321   2.759   4.218   6.389
 5663SOL    HW217322   2.832   4.145   6.516
 5664SOL     OW17323   2.401   3.788   6.098
 5664SOL    HW117324   2.320   3.789   6.156
 5664SOL    HW217325   2.404   3.871   6.043
 5665SOL     OW17326   2.159   3.759   5.757
 5665SOL    HW117327   2.208   3.843   5.736
 5665SOL    HW217328   2.221   3.694   5.802
 5666SOL     OW17329   2.797   3.960   6.066
 5666SOL    HW117330   2.749   4.001   5.988
 5666SOL    HW217331   2.896   3.958   6.047
 5667SOL     OW17332   2.938   4.407   7.050
 5667SOL    HW117333   2.858   4.346   7.053
 5667SOL    HW217334   3.019   4.354   7.026
 5668SOL     OW17335   2.894   4.273   5.602
 5668SOL    HW117336   2.853   4.355   5.563
 5668SOL    HW217337   2.958   4.299   5.675
 5669SOL     OW17338   1.940   4.280   6.972
 5669SOL    HW117339   2.032   4.279   6.931
 5669SOL    HW217340   1.934   4.354   7.039
 5670SOL     OW17341   2.423   3.946   6.733
 5670SOL    HW117342   2.461   3.862   6.770
 5670SOL    HW217343   2.335   3.965   6.777
 5671SOL     OW17344   2.728   4.178   6.228
 5671SOL    HW117345   2.696   4.250   6.166
 5671SOL    HW217346   2.752   4.097   6.175
 5672SOL     OW17347   2.879   3.763   6.339
 5672SOL    HW117348   2.807   3.768   6.270
 5672SOL    HW217349   2.855   3.694   6.408
 5673SOL     OW17350   3.328   4.314   6.578
 5673SOL    HW117351   3.298   4.219   6.585
 5673SOL    HW217352   3.401   4.330   6.644
 5674SOL     OW17353   3.252   4.299   5.664
 5674SOL    HW117354   3.198   4.278   5.745
 5674SOL    HW217355   3.343   4.258   5.673
 5675SOL     OW17356   2.389   3.980   5.914
 5675SOL    HW117357   2.416   3.921   5.839
 5675SOL    HW217358   2.389   4.075   5.883
 5676SOL     OW17359   2.777   3.813   6.988
 5676SOL    HW117360   2.802   3.793   6.893
 5676SOL    HW217361   2.849   3.869   7.030
 5677SOL     OW17362   2.272   4.537   6.837
 5677SOL    HW117363   2.358   4.549   6.887
 5677SOL    HW217364   2.230   4.450   6.864
 5678SOL     OW17365   3.136   4.110   6.848
 5678SOL    HW117366   3.157   4.184   6.912
 5678SOL    HW217367   3.047   4.127   6.805
 5679SOL     OW17368   2.428   4.261   6.451
 5679SOL    HW117369   2.440   4.327   6.377
 5679SOL    HW217370   2.474   4.295   6.534
 5680SOL     OW17371   3.444   4.363   6.058
 5680SOL    HW117372   3.413   4.424   6.131
 5680SOL    HW217373   3.494   4.415   5.989
 5681SOL     OW17374   2.875   3.829   7.356
 5681SOL    HW117375   2.881   3.914   7.304
 5681SOL    HW217376   2.907   3.753   7.299
 5682SOL     OW17377   2.366   3.774   7.326
 5682SOL    HW117378   2.324   3.717   7.256
 5682SOL    HW217379   2.300   3.843   7.358
 5683SOL     OW17380   3.071   4.249   5.861
 5683SOL    HW117381   3.084   4.165   5.915
 5683SOL    HW217382   3.042   4.323   5.921
 5684SOL     OW17383   2.169   3.937   6.817
 5684SOL    HW117384   2.146   3.974   6.907
 5684SOL    HW217385   2.139   3.842   6.811
 5685SOL     OW17386   2.594   4.358   6.650
 5685SOL    HW117387   2.653   4.332   6.574
 5685SOL    HW217388   2.566   4.454   6.639
 5686SOL     OW17389   3.590   4.659   7.440
 5686SOL    HW117390   3.544   4.652   7.351
 5686SOL    HW217391   3.528   4.703   7.506
 5687SOL     OW17392   2.169   3.787   6.204
 5687SOL    HW117393   2.158   3.881   6.237
 5687SOL    HW217394   2.164   3.724   6.281
 5688SOL     OW17395   3.484   4.091   5.960
 5688SOL    HW117396   3.486   4.015   6.024
 5688SOL    HW217397   3.436   4.168   6.000
 5689SOL     OW17398   3.402   3.998   5.711
 5689SOL    HW117399   3.341   3.923   5.734
 5689SOL    HW217400   3.424   4.050   5.794
 5690SOL     OW17401   2.181   4.534   6.535
 5690SOL    HW117402   2.274   4.570   6.540
 5690SOL    HW217403   2.175   4.449   6.587
 5691SOL     OW17404   2.201   4.233   6.592
 5691SOL    HW117405   2.149   4.150   6.575
 5691SOL    HW217406   2.278   4.238   6.528
 5692SOL     OW17407   3.000   4.104   7.264
 5692SOL    HW117408   2.955   4.167   7.328
 5692SOL    HW217409   3.093   4.135   7.247
 5693SOL     OW17410   3.022   3.931   7.063
 5693SOL    HW117411   3.022   3.995   7.140
 5693SOL    HW217412   3.050   3.979   6.980
 5694SOL     OW17413   1.902   4.268   6.700
 5694SOL    HW117414   1.987   4.235   6.659
 5694SOL    HW217415   1.915   4.283   6.798
 5695SOL     OW17416   2.051   4.244   7.308
 5695SOL    HW117417   2.110   4.204   7.238
 5695SOL    HW217418   1.993   4.315   7.267
 5696SOL     OW17419   2.677   4.296   5.911
 5696SOL    HW117420   2.684   4.207   5.865
 5696SOL    HW217421   2.583   4.330   5.903
 5697SOL     OW17422   3.519   4.328   6.792
 5697SOL    HW117423   3.481   4.259   6.854
 5697SOL    HW217424   3.601   4.292   6.748
 5698SOL     OW17425   2.533   4.188   6.855
 5698SOL    HW117426   2.499   4.099   6.825
 5698SOL    HW217427   2.559   4.242   6.775
 5699SOL     OW17428   2.335   4.224   5.777
 5699SOL    HW117429   2.396   4.304   5.781
 5699SOL    HW217430   2.240   4.255   5.784
 5700SOL     OW17431   3.588   3.859   6.109
 5700SOL    HW117432   3.661   3.842   6.042
 5700SOL    HW217433   3.557   3.772   6.147
 5701SOL     OW17434   3.142   4.651   6.258
 5701SOL    HW117435   3.202   4.570   6.260
 5701SOL    HW217436   3.182   4.720   6.198
 5702SOL     OW17437   3.703   3.899   6.549
 5702SOL    HW117438   3.742   3.814   6.513
 5702SOL    HW217439   3.605   3.901   6.530
 5703SOL     OW17440   2.125   4.050   6.306
 5703SOL    HW117441   2.046   4.101   6.272
 5703SOL    HW217442   2.116   4.035   6.404
 5704SOL     OW17443   2.778   4.634   5.877
 5704SOL    HW117444   2.841   4.672   5.809
 5704SOL    HW217445   2.818   4.551   5.916
 5705SOL     OW17446   2.901   4.822   6.282
 5705SOL    HW117447   2.831   4.775   6.336
 5705SOL    HW217448   2.960   4.754   6.239
 5706SOL     OW17449   2.876   3.960   6.557
 5706SOL    HW117450   2.868   3.924   6.464
 5706SOL    HW217451   2.874   3.884   6.622
 5707SOL     OW17452   3.571   4.109   6.967
 5707SOL    HW117453   3.644   4.178   6.971
 5707SOL    HW217454   3.599   4.034   6.908
 5708SOL     OW17455   2.534   3.927   7.075
 5708SOL    HW117456   2.624   3.911   7.035
 5708SOL    HW217457   2.542   3.932   7.174
 5709SOL     OW17458   1.937   4.069   5.619
 5709SOL    HW117459   1.845   4.041   5.590
 5709SOL    HW217460   1.968   4.146   5.563
 5710SOL     OW17461   1.934   3.890   5.904
 5710SOL    HW117462   1.917   3.973   5.850
 5710SOL    HW217463   2.024   3.853   5.882
 5711SOL     OW17464   2.578   4.289   7.294
 5711SOL    HW117465   2.597   4.354   7.368
 5711SOL    HW217466   2.638   4.209   7.303
 5712SOL     OW17467   3.087   4.049   6.035
 5712SOL    HW117468   3.152   3.975   6.024
 5712SOL    HW217469   3.107   4.099   6.119
 5713SOL     OW17470   3.639   4.066   7.228
 5713SOL    HW117471   3.622   4.097   7.134
 5713SOL    HW217472   3.555   4.029   7.266
 5714SOL     OW17473   2.945   4.708   5.673
 5714SOL    HW117474   2.922   4.761   5.591
 5714SOL    HW217475   3.026   4.652   5.654
 5715SOL     OW17476   3.686   3.916   6.813
 5715SOL    HW117477   3.682   3.826   6.857
 5715SOL    HW217478   3.689   3.905   6.714
 5716SOL     OW17479   2.290   4.148   6.106
 5716SOL    HW117480   2.320   4.076   6.044
 5716SOL    HW217481   2.251   4.108   6.189
 5717SOL     OW17482   2.179   4.271   6.866
 5717SOL    HW117483   2.217   4.212   6.938
 5717SOL    HW217484   2.219   4.245   6.778
 5718SOL     OW17485   3.286   3.938   6.698
 5718SOL    HW117486   3.338   3.873   6.753
 5718SOL    HW217487   3.237   4.001   6.759
 5719SOL     OW17488   2.863   3.758   6.740
 5719SOL    HW117489   2.800   3.686   6.709
 5719SOL    HW217490   2.956   3.722   6.740
 5720SOL     OW17491   3.214   3.776   5.754
 5720SOL    HW117492   3.249   3.735   5.670
 5720SOL    HW217493   3.124   3.738   5.774
 5721SOL     OW17494   3.162   4.177   6.277
 5721SOL    HW117495   3.103   4.257   6.281
 5721SOL    HW217496   3.177   4.142   6.370
 5722SOL     OW17497   3.455   3.945   6.468
 5722SOL    HW117498   3.371   3.944   6.522
 5722SOL    HW217499   3.457   4.028   6.412
 5723SOL     OW17500   2.092   4.352   7.561
 5723SOL    HW117501   1.999   4.350   7.598
 5723SOL    HW217502   2.093   4.313   7.469
 5724SOL     OW17503   2.087   3.999   8.444
 5724SOL    HW117504   2.122   3.982   8.536
 5724SOL    HW217505   1.999   3.954   8.432
 5725SOL     OW17506   1.881   4.092   8.095
 5725SOL    HW117507   1.799   4.135   8.134
 5725SOL    HW217508   1.853   4.019   8.032
 5726SOL     OW17509   3.617   4.331   7.679
 5726SOL    HW117510   3.605   4.318   7.580
 5726SOL    HW217511   3.587   4.250   7.728
 5727SOL     OW17512   2.547   4.736   8.113
 5727SOL    HW117513   2.616   4.720   8.183
 5727SOL    HW217514   2.474   4.793   8.151
 5728SOL     OW17515   2.300   4.116   8.947
 5728SOL    HW117516   2.382   4.060   8.956
 5728SOL    HW217517   2.219   4.058   8.951
 5729SOL     OW17518   3.465   4.171   8.185
 5729SOL    HW117519   3.391   4.217   8.135
 5729SOL    HW217520   3.516   4.239   8.238
 5730SOL     OW17521   3.456   3.838   8.928
 5730SOL    HW117522   3.438   3.905   8.856
 5730SOL    HW217523   3.453   3.884   9.017
 5731SOL     OW17524   1.984   4.367   8.011
 5731SOL    HW117525   1.939   4.279   8.028
 5731SOL    HW217526   1.983   4.421   8.095
 5732SOL     OW17527   1.975   4.461   9.045
 5732SOL    HW117528   2.063   4.448   9.090
 5732SOL    HW217529   1.962   4.558   9.023
 5733SOL     OW17530   2.671   3.728   7.950
 5733SOL    HW117531   2.711   3.819   7.941
 5733SOL    HW217532   2.571   3.736   7.956
 5734SOL     OW17533   2.179   3.975   9.249
 5734SOL    HW117534   2.250   4.046   9.255
 5734SOL    HW217535   2.091   4.014   9.277
 5735SOL     OW17536   3.143   4.069   8.392
 5735SOL    HW117537   3.057   4.019   8.379
 5735SOL    HW217538   3.205   4.015   8.448
 5736SOL     OW17539   2.669   4.329   8.913
 5736SOL    HW117540   2.622   4.326   9.002
 5736SOL    HW217541   2.618   4.274   8.847
 5737SOL     OW17542   3.256   4.193   9.122
 5737SOL    HW117543   3.236   4.236   9.210
 5737SOL    HW217544   3.334   4.131   9.131
 5738SOL     OW17545   2.853   4.134   8.690
 5738SOL    HW117546   2.776   4.168   8.744
 5738SOL    HW217547   2.819   4.083   8.611
 5739SOL     OW17548   2.903   4.425   7.877
 5739SOL    HW117549   2.929   4.421   7.973
 5739SOL    HW217550   2.818   4.374   7.863
 5740SOL     OW17551   2.727   4.072   7.643
 5740SOL    HW117552   2.786   4.135   7.594
 5740SOL    HW217553   2.746   3.978   7.614
 5741SOL     OW17554   3.581   4.309   9.279
 5741SOL    HW117555   3.555   4.398   9.243
 5741SOL    HW217556   3.579   4.241   9.206
 5742SOL     OW17557   2.412   3.920   8.333
 5742SOL    HW117558   2.407   3.915   8.433
 5742SOL    HW217559   2.414   4.016   8.304
 5743SOL     OW17560   3.320   4.459   8.176
 5743SOL    HW117561   3.315   4.394   8.251
 5743SOL    HW217562   3.400   4.518   8.189
 5744SOL     OW17563   2.064   4.009   8.946
 5744SOL    HW117564   1.984   4.069   8.933
 5744SOL    HW217565   2.054   3.960   9.032
 5745SOL     OW17566   3.262   3.831   7.874
 5745SOL    HW117567   3.238   3.794   7.784
 5745SOL    HW217568   3.361   3.847   7.878
 5746SOL     OW17569   2.244   4.424   7.928
 5746SOL    HW117570   2.289   4.334   7.925
 5746SOL    HW217571   2.150   4.413   7.961
 5747SOL     OW17572   3.409   3.946   9.177
 5747SOL    HW117573   3.404   3.983   9.269
 5747SOL    HW217574   3.337   3.877   9.165
 5748SOL     OW17575   2.476   3.846   7.565
 5748SOL    HW117576   2.574   3.824   7.572
 5748SOL    HW217577   2.445   3.829   7.472
 5749SOL     OW17578   2.643   3.988   9.197
 5749SOL    HW117579   2.710   3.927   9.240
 5749SOL    HW217580   2.570   4.007   9.262
 5750SOL     OW17581   3.213   4.314   8.881
 5750SOL    HW117582   3.241   4.271   8.966
 5750SOL    HW217583   3.238   4.410   8.882
 5751SOL     OW17584   2.784   4.227   8.347
 5751SOL    HW117585   2.759   4.218   8.251
 5751SOL    HW217586   2.832   4.145   8.378
 5752SOL     OW17587   2.401   3.788   7.960
 5752SOL    HW117588   2.320   3.789   8.018
 5752SOL    HW217589   2.404   3.871   7.905
 5753SOL     OW17590   2.159   3.759   7.619
 5753SOL    HW117591   2.208   3.843   7.598
 5753SOL    HW217592   2.221   3.694   7.664
 5754SOL     OW17593   2.797   3.960   7.928
 5754SOL    HW117594   2.749   4.001   7.850
 5754SOL    HW217595   2.896   3.958   7.909
 5755SOL     OW17596   2.938   4.407   8.912
 5755SOL    HW117597   2.858   4.346   8.915
 5755SOL    HW217598   3.019   4.354   8.888
 5756SOL     OW17599   2.894   4.273   7.464
 5756SOL    HW117600   2.853   4.355   7.425
 5756SOL    HW217601   2.958   4.299   7.537
 5757SOL     OW17602   1.940   4.280   8.834
 5757SOL    HW117603   2.032   4.279   8.793
 5757SOL    HW217604   1.934   4.354   8.901
 5758SOL     OW17605   2.423   3.946   8.595
 5758SOL    HW117606   2.461   3.862   8.632
 5758SOL    HW217607   2.335   3.965   8.639
 5759SOL     OW17608   2.728   4.178   8.090
 5759SOL    HW117609   2.696   4.250   8.028
 5759SOL    HW217610   2.752   4.097   8.037
 5760SOL     OW17611   2.879   3.763   8.201
 5760SOL    HW117612   2.807   3.768   8.132
 5760SOL    HW217613   2.855   3.694   8.270
 5761SOL     OW17614   3.328   4.314   8.440
 5761SOL    HW117615   3.298   4.219   8.447
 5761SOL    HW217616   3.401   4.330   8.506
 5762SOL     OW17617   3.252   4.299   7.526
 5762SOL    HW117618   3.198   4.278   7.607
 5762SOL    HW217619   3.343   4.258   7.535
 5763SOL     OW17620   2.389   3.980   7.776
 5763SOL    HW117621   2.416   3.921   7.701
 5763SOL    HW217622   2.389   4.075   7.745
 5764SOL     OW17623   2.777   3.813   8.850
 5764SOL    HW117624   2.802   3.793   8.755
 5764SOL    HW217625   2.849   3.869   8.892
 5765SOL     OW17626   2.272   4.537   8.699
 5765SOL    HW117627   2.358   4.549   8.749
 5765SOL    HW217628   2.230   4.450   8.726
 5766SOL     OW17629   3.136   4.110   8.710
 5766SOL    HW117630   3.157   4.184   8.774
 5766SOL    HW217631   3.047   4.127   8.667
 5767SOL     OW17632   2.428   4.261   8.313
 5767SOL    HW117633   2.440   4.327   8.239
 5767SOL    HW217634   2.474   4.295   8.396
 5768SOL     OW17635   3.444   4.363   7.920
 5768SOL    HW117636   3.413   4.424   7.993
 5768SOL    HW217637   3.494   4.415   7.851
 5769SOL     OW17638   2.875   3.829   9.218
 5769SOL    HW117639   2.881   3.914   9.166
 5769SOL    HW217640   2.907   3.753   9.161
 5770SOL     OW17641   2.366   3.774   9.188
 5770SOL    HW117642   2.324   3.717   9.118
 5770SOL    HW217643   2.300   3.843   9.220
 5771SOL     OW17644   3.071   4.249   7.723
 5771SOL    HW117645   3.084   4.165   7.777
 5771SOL    HW217646   3.042   4.323   7.783
 5772SOL     OW17647   2.169   3.937   8.679
 5772SOL    HW117648   2.146   3.974   8.769
 5772SOL    HW217649   2.139   3.842   8.673
 5773SOL     OW17650   2.594   4.358   8.512
 5773SOL    HW117651   2.653   4.332   8.436
 5773SOL    HW217652   2.566   4.454   8.501
 5774SOL     OW17653   3.590   4.659   9.302
 5774SOL    HW117654   3.544   4.652   9.213
 5774SOL    HW217655   3.528   4.703   9.368
 5775SOL     OW17656   2.169   3.787   8.066
 5775SOL    HW117657   2.158   3.881   8.099
 5775SOL    HW217658   2.164   3.724   8.143
 5776SOL     OW17659   3.484   4.091   7.822
 5776SOL    HW117660   3.486   4.015   7.886
 5776SOL    HW217661   3.436   4.168   7.862
 5777SOL     OW17662   3.402   3.998   7.573
 5777SOL    HW117663   3.341   3.923   7.596
 5777SOL    HW217664   3.424   4.050   7.656
 5778SOL     OW17665   2.181   4.534   8.397
 5778SOL    HW117666   2.274   4.570   8.402
 5778SOL    HW217667   2.175   4.449   8.449
 5779SOL     OW17668   2.201   4.233   8.454
 5779SOL    HW117669   2.149   4.150   8.437
 5779SOL    HW217670   2.278   4.238   8.390
 5780SOL     OW17671   3.000   4.104   9.126
 5780SOL    HW117672   2.955   4.167   9.190
 5780SOL    HW217673   3.093   4.135   9.109
 5781SOL     OW17674   3.022   3.931   8.925
 5781SOL    HW117675   3.022   3.995   9.002
 5781SOL    HW217676   3.050   3.979   8.842
 5782SOL     OW17677   1.902   4.268   8.562
 5782SOL    HW117678   1.987   4.235   8.521
 5782SOL    HW217679   1.915   4.283   8.660
 5783SOL     OW17680   2.051   4.244   9.170
 5783SOL    HW117681   2.110   4.204   9.100
 5783SOL    HW217682   1.993   4.315   9.129
 5784SOL     OW17683   2.677   4.296   7.773
 5784SOL    HW117684   2.684   4.207   7.727
 5784SOL    HW217685   2.583   4.330   7.765
 5785SOL     OW17686   3.519   4.328   8.654
 5785SOL    HW117687   3.481   4.259   8.716
 5785SOL    HW217688   3.601   4.292   8.610
 5786SOL     OW17689   2.533   4.188   8.717
 5786SOL    HW117690   2.499   4.099   8.687
 5786SOL    HW217691   2.559   4.242   8.637
 5787SOL     OW17692   2.335   4.224   7.639
 5787SOL    HW117693   2.396   4.304   7.643
 5787SOL    HW217694   2.240   4.255   7.646
 5788SOL     OW17695   3.588   3.859   7.971
 5788SOL    HW117696   3.661   3.842   7.904
 5788SOL    HW217697   3.557   3.772   8.009
 5789SOL     OW17698   3.142   4.651   8.120
 5789SOL    HW117699   3.202   4.570   8.122
 5789SOL    HW217700   3.182   4.720   8.060
 5790SOL     OW17701   3.703   3.899   8.411
 5790SOL    HW117702   3.742   3.814   8.375
 5790SOL    HW217703   3.605   3.901   8.392
 5791SOL     OW17704   2.125   4.050   8.168
 5791SOL    HW117705   2.046   4.101   8.134
 5791SOL    HW217706   2.116   4.035   8.266
 5792SOL     OW17707   2.778   4.634   7.739
 5792SOL    HW117708   2.841   4.672   7.671
 5792SOL    HW217709   2.818   4.551   7.778
 5793SOL     OW17710   2.901   4.822   8.144
 5793SOL    HW117711   2.831   4.775   8.198
 5793SOL    HW217712   2.960   4.754   8.101
 5794SOL     OW17713   2.876   3.960   8.419
 5794SOL    HW117714   2.868   3.924   8.326
 5794SOL    HW217715   2.874   3.884   8.484
 5795SOL     OW17716   3.571   4.109   8.829
 5795SOL    HW117717   3.644   4.178   8.833
 5795SOL    HW217718   3.599   4.034   8.770
 5796SOL     OW17719   2.534   3.927   8.937
 5796SOL    HW117720   2.624   3.911   8.897
 5796SOL    HW217721   2.542   3.932   9.036
 5797SOL     OW17722   1.937   4.069   7.481
 5797SOL    HW117723   1.845   4.041   7.452
 5797SOL    HW217724   1.968   4.146   7.425
 5798SOL     OW17725   1.934   3.890   7.766
 5798SOL    HW117726   1.917   3.973   7.712
 5798SOL    HW217727   2.024   3.853   7.744
 5799SOL     OW17728   2.578   4.289   9.156
 5799SOL    HW117729   2.597   4.354   9.230
 5799SOL    HW217730   2.638   4.209   9.165
 5800SOL     OW17731   3.087   4.049   7.897
 5800SOL    HW117732   3.152   3.975   7.886
 5800SOL    HW217733   3.107   4.099   7.981
 5801SOL     OW17734   3.639   4.066   9.090
 5801SOL    HW117735   3.622   4.097   8.996
 5801SOL    HW217736   3.555   4.029   9.128
 5802SOL     OW17737   2.945   4.708   7.535
 5802SOL    HW117738   2.922   4.761   7.453
 5802SOL    HW217739   3.026   4.652   7.516
 5803SOL     OW17740   3.686   3.916   8.675
 5803SOL    HW117741   3.682   3.826   8.719
 5803SOL    HW217742   3.689   3.905   8.576
 5804SOL     OW17743   2.290   4.148   7.968
 5804SOL    HW117744   2.320   4.076   7.906
 5804SOL    HW217745   2.251   4.108   8.051
 5805SOL     OW17746   2.179   4.271   8.728
 5805SOL    HW117747   2.217   4.212   8.800
 5805SOL    HW217748   2.219   4.245   8.640
 5806SOL     OW17749   3.286   3.938   8.560
 5806SOL    HW117750   3.338   3.873   8.615
 5806SOL    HW217751   3.237   4.001   8.621
 5807SOL     OW17752   2.863   3.758   8.602
 5807SOL    HW117753   2.800   3.686   8.571
 5807SOL    HW217754   2.956   3.722   8.602
 5808SOL     OW17755   3.214   3.776   7.616
 5808SOL    HW117756   3.249   3.735   7.532
 5808SOL    HW217757   3.124   3.738   7.636
 5809SOL     OW17758   3.162   4.177   8.139
 5809SOL    HW117759   3.103   4.257   8.143
 5809SOL    HW217760   3.177   4.142   8.232
 5810SOL     OW17761   3.455   3.945   8.330
 5810SOL    HW117762   3.371   3.944   8.384
 5810SOL    HW217763   3.457   4.028   8.274
 5811SOL     OW17764   2.092   4.352   9.423
 5811SOL    HW117765   1.999   4.350   9.460
 5811SOL    HW217766   2.093   4.313   9.331
 5812SOL     OW17767   2.087   3.999  10.306
 5812SOL    HW117768   2.122   3.982  10.398
 5812SOL    HW217769   1.999   3.954  10.294
 5813SOL     OW17770   1.881   4.092   9.957
 5813SOL    HW117771   1.799   4.135   9.996
 5813SOL    HW217772   1.853   4.019   9.894
 5814SOL     OW17773   3.617   4.331   9.541
 5814SOL    HW117774   3.605   4.318   9.442
 5814SOL    HW217775   3.587   4.250   9.590
 5815SOL     OW17776   2.547   4.736   9.975
 5815SOL    HW117777   2.616   4.720  10.045
 5815SOL    HW217778   2.474   4.793  10.013
 5816SOL     OW17779   2.300   4.116  10.809
 5816SOL    HW117780   2.382   4.060  10.818
 5816SOL    HW217781   2.219   4.058  10.813
 5817SOL     OW17782   3.465   4.171  10.047
 5817SOL    HW117783   3.391   4.217   9.997
 5817SOL    HW217784   3.516   4.239  10.100
 5818SOL     OW17785   3.456   3.838  10.790
 5818SOL    HW117786   3.438   3.905  10.718
 5818SOL    HW217787   3.453   3.884  10.879
 5819SOL     OW17788   1.984   4.367   9.873
 5819SOL    HW117789   1.939   4.279   9.890
 5819SOL    HW217790   1.983   4.421   9.957
 5820SOL     OW17791   2.671   3.728   9.812
 5820SOL    HW117792   2.711   3.819   9.803
 5820SOL    HW217793   2.571   3.736   9.818
 5821SOL     OW17794   3.143   4.069  10.254
 5821SOL    HW117795   3.057   4.019  10.241
 5821SOL    HW217796   3.205   4.015  10.310
 5822SOL     OW17797   2.669   4.329  10.775
 5822SOL    HW117798   2.622   4.326  10.864
 5822SOL    HW217799   2.618   4.274  10.709
 5823SOL     OW17800   2.853   4.134  10.552
 5823SOL    HW117801   2.776   4.168  10.606
 5823SOL    HW217802   2.819   4.083  10.473
 5824SOL     OW17803   2.903   4.425   9.739
 5824SOL    HW117804   2.929   4.421   9.835
 5824SOL    HW217805   2.818   4.374   9.725
 5825SOL     OW17806   2.727   4.072   9.505
 5825SOL    HW117807   2.786   4.135   9.456
 5825SOL    HW217808   2.746   3.978   9.476
 5826SOL     OW17809   2.412   3.920  10.195
 5826SOL    HW117810   2.407   3.915  10.295
 5826SOL    HW217811   2.414   4.016  10.166
 5827SOL     OW17812   3.320   4.459  10.038
 5827SOL    HW117813   3.315   4.394  10.113
 5827SOL    HW217814   3.400   4.518  10.051
 5828SOL     OW17815   3.262   3.831   9.736
 5828SOL    HW117816   3.238   3.794   9.646
 5828SOL    HW217817   3.361   3.847   9.740
 5829SOL     OW17818   2.244   4.424   9.790
 5829SOL    HW117819   2.289   4.334   9.787
 5829SOL    HW217820   2.150   4.413   9.823
 5830SOL     OW17821   2.476   3.846   9.427
 5830SOL    HW117822   2.574   3.824   9.434
 5830SOL    HW217823   2.445   3.829   9.334
 5831SOL     OW17824   3.213   4.314  10.743
 5831SOL    HW117825   3.241   4.271  10.828
 5831SOL    HW217826   3.238   4.410  10.744
 5832SOL     OW17827   2.784   4.227  10.209
 5832SOL    HW117828   2.759   4.218  10.113
 5832SOL    HW217829   2.832   4.145  10.240
 5833SOL     OW17830   2.401   3.788   9.822
 5833SOL    HW117831   2.320   3.789   9.880
 5833SOL    HW217832   2.404   3.871   9.767
 5834SOL     OW17833   2.159   3.759   9.481
 5834SOL    HW117834   2.208   3.843   9.460
 5834SOL    HW217835   2.221   3.694   9.526
 5835SOL     OW17836   2.797   3.960   9.790
 5835SOL    HW117837   2.749   4.001   9.712
 5835SOL    HW217838   2.896   3.958   9.771
 5836SOL     OW17839   2.894   4.273   9.326
 5836SOL    HW117840   2.853   4.355   9.287
 5836SOL    HW217841   2.958   4.299   9.399
 5837SOL     OW17842   1.940   4.280  10.696
 5837SOL    HW117843   2.032   4.279  10.655
 5837SOL    HW217844   1.934   4.354  10.763
 5838SOL     OW17845   2.423   3.946  10.457
 5838SOL    HW117846   2.461   3.862  10.494
 5838SOL    HW217847   2.335   3.965  10.501
 5839SOL     OW17848   2.728   4.178   9.952
 5839SOL    HW117849   2.696   4.250   9.890
 5839SOL    HW217850   2.752   4.097   9.899
 5840SOL     OW17851   2.879   3.763  10.063
 5840SOL    HW117852   2.807   3.768   9.994
 5840SOL    HW217853   2.855   3.694  10.132
 5841SOL     OW17854   3.328   4.314  10.302
 5841SOL    HW117855   3.298   4.219  10.309
 5841SOL    HW217856   3.401   4.330  10.368
 5842SOL     OW17857   3.252   4.299   9.388
 5842SOL    HW117858   3.198   4.278   9.469
 5842SOL    HW217859   3.343   4.258   9.397
 5843SOL     OW17860   2.389   3.980   9.638
 5843SOL    HW117861   2.416   3.921   9.563
 5843SOL    HW217862   2.389   4.075   9.607
 5844SOL     OW17863   2.777   3.813  10.712
 5844SOL    HW117864   2.802   3.793  10.617
 5844SOL    HW217865   2.849   3.869  10.754
 5845SOL     OW17866   2.272   4.537  10.561
 5845SOL    HW117867   2.358   4.549  10.611
 5845SOL    HW217868   2.230   4.450  10.588
 5846SOL     OW17869   3.136   4.110  10.572
 5846SOL    HW117870   3.157   4.184  10.636
 5846SOL    HW217871   3.047   4.127  10.529
 5847SOL     OW17872   2.428   4.261  10.175
 5847SOL    HW117873   2.440   4.327  10.101
 5847SOL    HW217874   2.474   4.295  10.258
 5848SOL     OW17875   3.444   4.363   9.782
 5848SOL    HW117876   3.413   4.424   9.855
 5848SOL    HW217877   3.494   4.415   9.713
 5849SOL     OW17878   2.264   4.475  10.908
 5849SOL    HW117879   2.332   4.530  10.861
 5849SOL    HW217880   2.304   4.387  10.935
 5850SOL     OW17881   3.071   4.249   9.585
 5850SOL    HW117882   3.084   4.165   9.639
 5850SOL    HW217883   3.042   4.323   9.645
 5851SOL     OW17884   2.169   3.937  10.541
 5851SOL    HW117885   2.146   3.974  10.631
 5851SOL    HW217886   2.139   3.842  10.535
 5852SOL     OW17887   2.594   4.358  10.374
 5852SOL    HW117888   2.653   4.332  10.298
 5852SOL    HW217889   2.566   4.454  10.363
 5853SOL     OW17890   3.590   4.659  11.164
 5853SOL    HW117891   3.544   4.652  11.075
 5853SOL    HW217892   3.528   4.703  11.230
 5854SOL     OW17893   2.169   3.787   9.928
 5854SOL    HW117894   2.158   3.881   9.961
 5854SOL    HW217895   2.164   3.724  10.005
 5855SOL     OW17896   3.484   4.091   9.684
 5855SOL    HW117897   3.486   4.015   9.748
 5855SOL    HW217898   3.436   4.168   9.724
 5856SOL     OW17899   3.402   3.998   9.435
 5856SOL    HW117900   3.341   3.923   9.458
 5856SOL    HW217901   3.424   4.050   9.518
 5857SOL     OW17902   2.181   4.534  10.259
 5857SOL    HW117903   2.274   4.570  10.264
 5857SOL    HW217904   2.175   4.449  10.311
 5858SOL     OW17905   2.201   4.233  10.316
 5858SOL    HW117906   2.149   4.150  10.299
 5858SOL    HW217907   2.278   4.238  10.252
 5859SOL     OW17908   3.000   4.104  10.988
 5859SOL    HW117909   2.955   4.167  11.052
 5859SOL    HW217910   3.093   4.135  10.971
 5860SOL     OW17911   3.022   3.931  10.787
 5860SOL    HW117912   3.022   3.995  10.864
 5860SOL    HW217913   3.050   3.979  10.704
 5861SOL     OW17914   1.902   4.268  10.424
 5861SOL    HW117915   1.987   4.235  10.383
 5861SOL    HW217916   1.915   4.283  10.522
 5862SOL     OW17917   2.677   4.296   9.635
 5862SOL    HW117918   2.684   4.207   9.589
 5862SOL    HW217919   2.583   4.330   9.627
 5863SOL     OW17920   3.519   4.328  10.516
 5863SOL    HW117921   3.481   4.259  10.578
 5863SOL    HW217922   3.601   4.292  10.472
 5864SOL     OW17923   2.533   4.188  10.579
 5864SOL    HW117924   2.499   4.099  10.549
 5864SOL    HW217925   2.559   4.242  10.499
 5865SOL     OW17926   2.335   4.224   9.501
 5865SOL    HW117927   2.396   4.304   9.505
 5865SOL    HW217928   2.240   4.255   9.508
 5866SOL     OW17929   3.588   3.859   9.833
 5866SOL    HW117930   3.661   3.842   9.766
 5866SOL    HW217931   3.557   3.772   9.871
 5867SOL     OW17932   3.142   4.651   9.982
 5867SOL    HW117933   3.202   4.570   9.984
 5867SOL    HW217934   3.182   4.720   9.922
 5868SOL     OW17935   3.703   3.899  10.273
 5868SOL    HW117936   3.742   3.814  10.237
 5868SOL    HW217937   3.605   3.901  10.254
 5869SOL     OW17938   2.125   4.050  10.030
 5869SOL    HW117939   2.046   4.101   9.996
 5869SOL    HW217940   2.116   4.035  10.128
 5870SOL     OW17941   2.778   4.634   9.601
 5870SOL    HW117942   2.841   4.672   9.533
 5870SOL    HW217943   2.818   4.551   9.640
 5871SOL     OW17944   2.901   4.822  10.006
 5871SOL    HW117945   2.831   4.775  10.060
 5871SOL    HW217946   2.960   4.754   9.963
 5872SOL     OW17947   2.876   3.960  10.281
 5872SOL    HW117948   2.868   3.924  10.188
 5872SOL    HW217949   2.874   3.884  10.346
 5873SOL     OW17950   3.571   4.109  10.691
 5873SOL    HW117951   3.644   4.178  10.695
 5873SOL    HW217952   3.599   4.034  10.632
 5874SOL     OW17953   2.534   3.927  10.799
 5874SOL    HW117954   2.624   3.911  10.759
 5874SOL    HW217955   2.542   3.932  10.898
 5875SOL     OW17956   1.937   4.069   9.343
 5875SOL    HW117957   1.845   4.041   9.314
 5875SOL    HW217958   1.968   4.146   9.287
 5876SOL     OW17959   1.934   3.890   9.628
 5876SOL    HW117960   1.917   3.973   9.574
 5876SOL    HW217961   2.024   3.853   9.606
 5877SOL     OW17962   2.578   4.289  11.018
 5877SOL    HW117963   2.597   4.354  11.092
 5877SOL    HW217964   2.638   4.209  11.027
 5878SOL     OW17965   3.087   4.049   9.759
 5878SOL    HW117966   3.152   3.975   9.748
 5878SOL    HW217967   3.107   4.099   9.843
 5879SOL     OW17968   2.945   4.708   9.397
 5879SOL    HW117969   2.922   4.761   9.315
 5879SOL    HW217970   3.026   4.652   9.378
 5880SOL     OW17971   3.686   3.916  10.537
 5880SOL    HW117972   3.682   3.826  10.581
 5880SOL    HW217973   3.689   3.905  10.438
 5881SOL     OW17974   2.290   4.148   9.830
 5881SOL    HW117975   2.320   4.076   9.768
 5881SOL    HW217976   2.251   4.108   9.913
 5882SOL     OW17977   2.179   4.271  10.590
 5882SOL    HW117978   2.217   4.212  10.662
 5882SOL    HW217979   2.219   4.245  10.502
 5883SOL     OW17980   3.286   3.938  10.422
 5883SOL    HW117981   3.338   3.873  10.477
 5883SOL    HW217982   3.237   4.001  10.483
 5884SOL     OW17983   2.863   3.758  10.464
 5884SOL    HW117984   2.800   3.686  10.433
 5884SOL    HW217985   2.956   3.722  10.464
 5885SOL     OW17986   3.214   3.776   9.478
 5885SOL    HW117987   3.249   3.735   9.394
 5885SOL    HW217988   3.124   3.738   9.498
 5886SOL     OW17989   3.162   4.177  10.001
 5886SOL    HW117990   3.103   4.257  10.005
 5886SOL    HW217991   3.177   4.142  10.094
 5887SOL     OW17992   3.455   3.945  10.192
 5887SOL    HW117993   3.371   3.944  10.246
 5887SOL    HW217994   3.457   4.028  10.136
 5888SOL     OW17995   3.954   0.628   0.113
 5888SOL    HW117996   3.861   0.626   0.150
 5888SOL    HW217997   3.955   0.589   0.021
 5889SOL     OW17998   3.949   0.275   0.996
 5889SOL    HW117999   3.984   0.258   1.088
 5889SOL    HW218000   3.861   0.230   0.984
 5890SOL     OW18001   3.743   0.368   0.647
 5890SOL    HW118002   3.661   0.411   0.686
 5890SOL    HW218003   3.715   0.295   0.584
 5891SOL     OW18004   4.293   1.275   1.165
 5891SOL    HW118005   4.200   1.268   1.128
 5891SOL    HW218006   4.304   1.364   1.209
 5892SOL     OW18007   4.574   0.798   1.823
 5892SOL    HW118008   4.570   0.874   1.888
 5892SOL    HW218009   4.596   0.834   1.732
 5893SOL     OW18010   4.409   1.012   0.665
 5893SOL    HW118011   4.478   0.996   0.735
 5893SOL    HW218012   4.336   1.069   0.703
 5894SOL     OW18013   4.410   1.161   1.803
 5894SOL    HW118014   4.470   1.240   1.817
 5894SOL    HW218015   4.324   1.192   1.762
 5895SOL     OW18016   4.059   1.435   1.061
 5895SOL    HW118017   3.981   1.404   1.008
 5895SOL    HW218018   4.117   1.493   1.004
 5896SOL     OW18019   4.162   0.392   1.499
 5896SOL    HW118020   4.244   0.336   1.508
 5896SOL    HW218021   4.081   0.334   1.503
 5897SOL     OW18022   3.955   1.713   0.483
 5897SOL    HW118023   3.989   1.790   0.537
 5897SOL    HW218024   3.999   1.713   0.393
 5898SOL     OW18025   3.954   1.434   0.538
 5898SOL    HW118026   3.928   1.530   0.538
 5898SOL    HW218027   3.883   1.380   0.583
 5899SOL     OW18028   3.964   1.091   0.886
 5899SOL    HW118029   3.978   1.007   0.938
 5899SOL    HW218030   3.909   1.155   0.941
 5900SOL     OW18031   4.344   1.786   1.439
 5900SOL    HW118032   4.252   1.769   1.474
 5900SOL    HW218033   4.372   1.878   1.465
 5901SOL     OW18034   4.330   0.964   0.123
 5901SOL    HW118035   4.337   1.048   0.069
 5901SOL    HW218036   4.376   0.977   0.211
 5902SOL     OW18037   3.846   0.643   0.563
 5902SOL    HW118038   3.801   0.555   0.580
 5902SOL    HW218039   3.845   0.697   0.647
 5903SOL     OW18040   3.751   1.596   0.117
 5903SOL    HW118041   3.732   1.500   0.138
 5903SOL    HW218042   3.718   1.654   0.192
 5904SOL     OW18043   3.837   0.737   1.597
 5904SOL    HW118044   3.925   0.724   1.642
 5904SOL    HW218045   3.824   0.834   1.575
 5905SOL     OW18046   4.337   1.365   0.726
 5905SOL    HW118047   4.288   1.278   0.735
 5905SOL    HW218048   4.314   1.408   0.639
 5906SOL     OW18049   4.533   0.004   0.502
 5906SOL    HW118050   4.573   0.095   0.493
 5906SOL    HW218051   4.433   0.012   0.508
 5907SOL     OW18052   3.921   0.976   1.264
 5907SOL    HW118053   4.010   0.931   1.250
 5907SOL    HW218054   3.848   0.911   1.245
 5908SOL     OW18055   4.041   0.251   1.801
 5908SOL    HW118056   4.112   0.322   1.807
 5908SOL    HW218057   3.953   0.290   1.829
 5909SOL     OW18058   4.322   0.729   0.270
 5909SOL    HW118059   4.346   0.798   0.202
 5909SOL    HW218060   4.244   0.762   0.324
 5910SOL     OW18061   3.800   0.811   0.789
 5910SOL    HW118062   3.899   0.799   0.798
 5910SOL    HW218063   3.776   0.906   0.810
 5911SOL     OW18064   3.854   1.821   1.571
 5911SOL    HW118065   3.844   1.806   1.670
 5911SOL    HW218066   3.768   1.857   1.535
 5912SOL     OW18067   4.274   0.196   0.885
 5912SOL    HW118068   4.269   0.191   0.985
 5912SOL    HW218069   4.276   0.292   0.856
 5913SOL     OW18070   4.075   1.801   0.853
 5913SOL    HW118071   4.125   1.715   0.859
 5913SOL    HW218072   4.140   1.878   0.850
 5914SOL     OW18073   4.045   0.943   0.242
 5914SOL    HW118074   4.127   0.982   0.200
 5914SOL    HW218075   4.018   0.861   0.193
 5915SOL     OW18076   4.185   1.266   1.727
 5915SOL    HW118077   4.135   1.267   1.641
 5915SOL    HW218078   4.122   1.248   1.803
 5916SOL     OW18079   3.926   0.285   1.498
 5916SOL    HW118080   3.846   0.345   1.485
 5916SOL    HW218081   3.916   0.236   1.584
 5917SOL     OW18082   4.188   1.743   0.323
 5917SOL    HW118083   4.221   1.782   0.409
 5917SOL    HW218084   4.264   1.736   0.258
 5918SOL     OW18085   3.973   1.785   1.241
 5918SOL    HW118086   4.030   1.720   1.291
 5918SOL    HW218087   3.957   1.752   1.148
 5919SOL     OW18088   4.106   0.700   0.480
 5919SOL    HW118089   4.151   0.610   0.477
 5919SOL    HW218090   4.012   0.689   0.513
 5920SOL     OW18091   4.338   0.122   0.117
 5920SOL    HW118092   4.436   0.100   0.124
 5920SOL    HW218093   4.307   0.105   0.024
 5921SOL     OW18094   4.527   1.402   0.924
 5921SOL    HW118095   4.617   1.416   0.882
 5921SOL    HW218096   4.456   1.404   0.853
 5922SOL     OW18097   4.263   0.064   0.512
 5922SOL    HW118098   4.182   0.065   0.570
 5922SOL    HW218099   4.266   0.147   0.457
 5923SOL     OW18100   4.021   0.035   0.171
 5923SOL    HW118101   4.070   0.119   0.150
 5923SOL    HW218102   4.083  -0.030   0.216
 5924SOL     OW18103   4.800   0.683   1.464
 5924SOL    HW118104   4.720   0.622   1.467
 5924SOL    HW218105   4.881   0.630   1.440
 5925SOL     OW18106   4.183   1.152   0.741
 5925SOL    HW118107   4.112   1.125   0.806
 5925SOL    HW218108   4.157   1.124   0.648
 5926SOL     OW18109   3.802   0.556   1.386
 5926SOL    HW118110   3.894   0.555   1.345
 5926SOL    HW218111   3.796   0.630   1.453
 5927SOL     OW18112   4.285   0.222   1.147
 5927SOL    HW118113   4.323   0.138   1.184
 5927SOL    HW218114   4.197   0.241   1.191
 5928SOL     OW18115   4.212   1.385   0.174
 5928SOL    HW118116   4.125   1.370   0.221
 5928SOL    HW218117   4.195   1.411   0.079
 5929SOL     OW18118   4.251   0.256   0.328
 5929SOL    HW118119   4.278   0.197   0.253
 5929SOL    HW218120   4.251   0.351   0.297
 5930SOL     OW18121   4.134   0.813   1.251
 5930SOL    HW118122   4.220   0.825   1.301
 5930SOL    HW218123   4.092   0.726   1.278
 5931SOL     OW18124   3.788   1.564   1.331
 5931SOL    HW118125   3.742   1.646   1.297
 5931SOL    HW218126   3.886   1.583   1.340
 5932SOL     OW18127   4.091   1.100   0.501
 5932SOL    HW118128   4.084   1.183   0.445
 5932SOL    HW218129   4.095   1.020   0.441
 5933SOL     OW18130   4.290   0.537   0.865
 5933SOL    HW118131   4.302   0.603   0.791
 5933SOL    HW218132   4.336   0.571   0.948
 5934SOL     OW18133   4.078   1.510   1.329
 5934SOL    HW118134   4.057   1.466   1.242
 5934SOL    HW218135   4.175   1.536   1.332
 5935SOL     OW18136   4.126   0.751   1.598
 5935SOL    HW118137   4.194   0.806   1.551
 5935SOL    HW218138   4.166   0.663   1.625
 5936SOL     OW18139   4.228   0.050   1.740
 5936SOL    HW118140   4.186  -0.007   1.670
 5936SOL    HW218141   4.162   0.119   1.772
 5937SOL     OW18142   4.297   0.870   1.029
 5937SOL    HW118143   4.341   0.959   1.020
 5937SOL    HW218144   4.234   0.870   1.106
 5938SOL     OW18145   4.031   0.213   1.231
 5938SOL    HW118146   4.008   0.250   1.321
 5938SOL    HW218147   4.001   0.118   1.225
 5939SOL     OW18148   3.761   1.310   1.282
 5939SOL    HW118149   3.814   1.261   1.350
 5939SOL    HW218150   3.783   1.408   1.287
 5940SOL     OW18151   4.031   0.063   0.618
 5940SOL    HW118152   4.020   0.157   0.651
 5940SOL    HW218153   4.026   0.000   0.695
 5941SOL     OW18154   4.074   0.898   1.804
 5941SOL    HW118155   4.150   0.942   1.852
 5941SOL    HW218156   4.109   0.851   1.722
 5942SOL     OW18157   4.043   0.810   0.949
 5942SOL    HW118158   4.136   0.846   0.954
 5942SOL    HW218159   4.037   0.725   1.001
 5943SOL     OW18160   4.063   0.509   1.006
 5943SOL    HW118161   4.011   0.426   0.989
 5943SOL    HW218162   4.140   0.514   0.942
 5944SOL     OW18163   3.732   1.326   0.200
 5944SOL    HW118164   3.639   1.347   0.169
 5944SOL    HW218165   3.742   1.227   0.213
 5945SOL     OW18166   3.812   1.801   0.927
 5945SOL    HW118167   3.770   1.715   0.900
 5945SOL    HW218168   3.906   1.804   0.893
 5946SOL     OW18169   4.228   1.568   0.910
 5946SOL    HW118170   4.294   1.642   0.919
 5946SOL    HW218171   4.272   1.489   0.868
 5947SOL     OW18172   3.764   0.544   1.114
 5947SOL    HW118173   3.849   0.511   1.073
 5947SOL    HW218174   3.777   0.559   1.212
 5948SOL     OW18175   3.913   0.520   1.722
 5948SOL    HW118176   3.972   0.480   1.652
 5948SOL    HW218177   3.855   0.591   1.681
 5949SOL     OW18178   4.539   0.572   0.325
 5949SOL    HW118179   4.546   0.483   0.279
 5949SOL    HW218180   4.445   0.606   0.317
 5950SOL     OW18181   3.976   1.564   1.744
 5950SOL    HW118182   3.946   1.621   1.820
 5950SOL    HW218183   3.969   1.467   1.770
 5951SOL     OW18184   4.197   0.500   0.191
 5951SOL    HW118185   4.258   0.580   0.195
 5951SOL    HW218186   4.102   0.531   0.198
 5952SOL     OW18187   3.883   1.137   1.466
 5952SOL    HW118188   3.905   1.076   1.542
 5952SOL    HW218189   3.893   1.088   1.380
 5953SOL     OW18190   3.807   1.258   1.022
 5953SOL    HW118191   3.802   1.257   1.122
 5953SOL    HW218192   3.724   1.217   0.984
 5954SOL     OW18193   4.412   1.662   1.716
 5954SOL    HW118194   4.356   1.743   1.725
 5954SOL    HW218195   4.464   1.666   1.630
 5955SOL     OW18196   3.854   1.794   1.851
 5955SOL    HW118197   3.813   1.720   1.904
 5955SOL    HW218198   3.918   1.845   1.909
 5956SOL     OW18199   3.987   0.326   0.720
 5956SOL    HW118200   3.908   0.377   0.686
 5956SOL    HW218201   3.978   0.311   0.818
 5957SOL     OW18202   4.096   1.288   1.490
 5957SOL    HW118203   4.083   1.381   1.456
 5957SOL    HW218204   4.012   1.236   1.477
 5958SOL     OW18205   4.314   1.487   0.491
 5958SOL    HW118206   4.356   1.429   0.421
 5958SOL    HW218207   4.270   1.566   0.447
 5959SOL     OW18208   3.979   1.348   0.290
 5959SOL    HW118209   3.883   1.349   0.263
 5959SOL    HW218210   3.991   1.401   0.374
 5960SOL     OW18211   3.829   1.013   1.726
 5960SOL    HW118212   3.752   0.980   1.780
 5960SOL    HW218213   3.914   0.983   1.768
 5961SOL     OW18214   4.396   0.203   1.489
 5961SOL    HW118215   4.486   0.187   1.449
 5961SOL    HW218216   4.404   0.208   1.588
 5962SOL     OW18217   3.796   0.166   0.318
 5962SOL    HW118218   3.779   0.249   0.264
 5962SOL    HW218219   3.886   0.129   0.296
 5963SOL     OW18220   4.337   0.842   1.431
 5963SOL    HW118221   4.393   0.923   1.414
 5963SOL    HW218222   4.396   0.762   1.434
 5964SOL     OW18223   4.440   0.565   1.708
 5964SOL    HW118224   4.459   0.630   1.782
 5964SOL    HW218225   4.500   0.485   1.717
 5965SOL     OW18226   4.114   1.741   1.560
 5965SOL    HW118227   4.023   1.782   1.558
 5965SOL    HW218228   4.107   1.647   1.592
 5966SOL     OW18229   4.318   0.745   0.652
 5966SOL    HW118230   4.368   0.830   0.633
 5966SOL    HW218231   4.230   0.747   0.604
 5967SOL     OW18232   3.945   1.314   1.844
 5967SOL    HW118233   3.880   1.241   1.823
 5967SOL    HW218234   3.949   1.328   1.942
 5968SOL     OW18235   3.803   1.240   0.653
 5968SOL    HW118236   3.802   1.193   0.741
 5968SOL    HW218237   3.885   1.212   0.602
 5969SOL     OW18238   4.396   1.391   1.624
 5969SOL    HW118239   4.318   1.341   1.662
 5969SOL    HW218240   4.393   1.486   1.655
 5970SOL     OW18241   4.152   0.424   0.520
 5970SOL    HW118242   4.182   0.352   0.458
 5970SOL    HW218243   4.113   0.384   0.603
 5971SOL     OW18244   4.041   0.547   1.280
 5971SOL    HW118245   4.079   0.488   1.352
 5971SOL    HW218246   4.081   0.521   1.192
 5972SOL     OW18247   4.536   1.586   0.687
 5972SOL    HW118248   4.568   1.596   0.593
 5972SOL    HW218249   4.457   1.524   0.689
 5973SOL     OW18250   3.763   1.077   0.300
 5973SOL    HW118251   3.862   1.066   0.291
 5973SOL    HW218252   3.723   0.991   0.332
 5974SOL     OW18253   3.954   0.628   1.975
 5974SOL    HW118254   3.861   0.626   2.012
 5974SOL    HW218255   3.955   0.589   1.883
 5975SOL     OW18256   3.949   0.275   2.858
 5975SOL    HW118257   3.984   0.258   2.950
 5975SOL    HW218258   3.861   0.230   2.846
 5976SOL     OW18259   3.743   0.368   2.509
 5976SOL    HW118260   3.661   0.411   2.548
 5976SOL    HW218261   3.715   0.295   2.446
 5977SOL     OW18262   4.293   1.275   3.027
 5977SOL    HW118263   4.200   1.268   2.990
 5977SOL    HW218264   4.304   1.364   3.071
 5978SOL     OW18265   4.574   0.798   3.685
 5978SOL    HW118266   4.570   0.874   3.750
 5978SOL    HW218267   4.596   0.834   3.594
 5979SOL     OW18268   4.409   1.012   2.527
 5979SOL    HW118269   4.478   0.996   2.597
 5979SOL    HW218270   4.336   1.069   2.565
 5980SOL     OW18271   4.410   1.161   3.665
 5980SOL    HW118272   4.470   1.240   3.679
 5980SOL    HW218273   4.324   1.192   3.624
 5981SOL     OW18274   4.059   1.435   2.923
 5981SOL    HW118275   3.981   1.404   2.870
 5981SOL    HW218276   4.117   1.493   2.866
 5982SOL     OW18277   4.162   0.392   3.361
 5982SOL    HW118278   4.244   0.336   3.370
 5982SOL    HW218279   4.081   0.334   3.365
 5983SOL     OW18280   3.955   1.713   2.345
 5983SOL    HW118281   3.989   1.790   2.399
 5983SOL    HW218282   3.999   1.713   2.255
 5984SOL     OW18283   3.954   1.434   2.400
 5984SOL    HW118284   3.928   1.530   2.400
 5984SOL    HW218285   3.883   1.380   2.445
 5985SOL     OW18286   3.964   1.091   2.748
 5985SOL    HW118287   3.978   1.007   2.800
 5985SOL    HW218288   3.909   1.155   2.803
 5986SOL     OW18289   4.344   1.786   3.301
 5986SOL    HW118290   4.252   1.769   3.336
 5986SOL    HW218291   4.372   1.878   3.327
 5987SOL     OW18292   4.330   0.964   1.985
 5987SOL    HW118293   4.337   1.048   1.931
 5987SOL    HW218294   4.376   0.977   2.073
 5988SOL     OW18295   3.846   0.643   2.425
 5988SOL    HW118296   3.801   0.555   2.442
 5988SOL    HW218297   3.845   0.697   2.509
 5989SOL     OW18298   3.751   1.596   1.979
 5989SOL    HW118299   3.732   1.500   2.000
 5989SOL    HW218300   3.718   1.654   2.054
 5990SOL     OW18301   3.837   0.737   3.459
 5990SOL    HW118302   3.925   0.724   3.504
 5990SOL    HW218303   3.824   0.834   3.437
 5991SOL     OW18304   4.337   1.365   2.588
 5991SOL    HW118305   4.288   1.278   2.597
 5991SOL    HW218306   4.314   1.408   2.501
 5992SOL     OW18307   4.533   0.004   2.364
 5992SOL    HW118308   4.573   0.095   2.355
 5992SOL    HW218309   4.433   0.012   2.370
 5993SOL     OW18310   3.921   0.976   3.126
 5993SOL    HW118311   4.010   0.931   3.112
 5993SOL    HW218312   3.848   0.911   3.107
 5994SOL     OW18313   4.041   0.251   3.663
 5994SOL    HW118314   4.112   0.322   3.669
 5994SOL    HW218315   3.953   0.290   3.691
 5995SOL     OW18316   4.322   0.729   2.132
 5995SOL    HW118317   4.346   0.798   2.064
 5995SOL    HW218318   4.244   0.762   2.186
 5996SOL     OW18319   3.800   0.811   2.651
 5996SOL    HW118320   3.899   0.799   2.660
 5996SOL    HW218321   3.776   0.906   2.672
 5997SOL     OW18322   3.854   1.821   3.433
 5997SOL    HW118323   3.844   1.806   3.532
 5997SOL    HW218324   3.768   1.857   3.397
 5998SOL     OW18325   4.274   0.196   2.747
 5998SOL    HW118326   4.269   0.191   2.847
 5998SOL    HW218327   4.276   0.292   2.718
 5999SOL     OW18328   4.075   1.801   2.715
 5999SOL    HW118329   4.125   1.715   2.721
 5999SOL    HW218330   4.140   1.878   2.712
 6000SOL     OW18331   4.045   0.943   2.104
 6000SOL    HW118332   4.127   0.982   2.062
 6000SOL    HW218333   4.018   0.861   2.055
 6001SOL     OW18334   4.185   1.266   3.589
 6001SOL    HW118335   4.135   1.267   3.503
 6001SOL    HW218336   4.122   1.248   3.665
 6002SOL     OW18337   3.926   0.285   3.360
 6002SOL    HW118338   3.846   0.345   3.347
 6002SOL    HW218339   3.916   0.236   3.446
 6003SOL     OW18340   4.188   1.743   2.185
 6003SOL    HW118341   4.221   1.782   2.271
 6003SOL    HW218342   4.264   1.736   2.120
 6004SOL     OW18343   3.973   1.785   3.103
 6004SOL    HW118344   4.030   1.720   3.153
 6004SOL    HW218345   3.957   1.752   3.010
 6005SOL     OW18346   4.106   0.700   2.342
 6005SOL    HW118347   4.151   0.610   2.339
 6005SOL    HW218348   4.012   0.689   2.375
 6006SOL     OW18349   4.338   0.122   1.979
 6006SOL    HW118350   4.436   0.100   1.986
 6006SOL    HW218351   4.307   0.105   1.886
 6007SOL     OW18352   4.527   1.402   2.786
 6007SOL    HW118353   4.617   1.416   2.744
 6007SOL    HW218354   4.456   1.404   2.715
 6008SOL     OW18355   4.263   0.064   2.374
 6008SOL    HW118356   4.182   0.065   2.432
 6008SOL    HW218357   4.266   0.147   2.319
 6009SOL     OW18358   4.021   0.035   2.033
 6009SOL    HW118359   4.070   0.119   2.012
 6009SOL    HW218360   4.083  -0.030   2.078
 6010SOL     OW18361   4.800   0.683   3.326
 6010SOL    HW118362   4.720   0.622   3.329
 6010SOL    HW218363   4.881   0.630   3.302
 6011SOL     OW18364   4.183   1.152   2.603
 6011SOL    HW118365   4.112   1.125   2.668
 6011SOL    HW218366   4.157   1.124   2.510
 6012SOL     OW18367   3.802   0.556   3.248
 6012SOL    HW118368   3.894   0.555   3.207
 6012SOL    HW218369   3.796   0.630   3.315
 6013SOL     OW18370   4.285   0.222   3.009
 6013SOL    HW118371   4.323   0.138   3.046
 6013SOL    HW218372   4.197   0.241   3.053
 6014SOL     OW18373   4.212   1.385   2.036
 6014SOL    HW118374   4.125   1.370   2.083
 6014SOL    HW218375   4.195   1.411   1.941
 6015SOL     OW18376   4.251   0.256   2.190
 6015SOL    HW118377   4.278   0.197   2.115
 6015SOL    HW218378   4.251   0.351   2.159
 6016SOL     OW18379   4.134   0.813   3.113
 6016SOL    HW118380   4.220   0.825   3.163
 6016SOL    HW218381   4.092   0.726   3.140
 6017SOL     OW18382   3.788   1.564   3.193
 6017SOL    HW118383   3.742   1.646   3.159
 6017SOL    HW218384   3.886   1.583   3.202
 6018SOL     OW18385   4.091   1.100   2.363
 6018SOL    HW118386   4.084   1.183   2.307
 6018SOL    HW218387   4.095   1.020   2.303
 6019SOL     OW18388   4.290   0.537   2.727
 6019SOL    HW118389   4.302   0.603   2.653
 6019SOL    HW218390   4.336   0.571   2.810
 6020SOL     OW18391   4.078   1.510   3.191
 6020SOL    HW118392   4.057   1.466   3.104
 6020SOL    HW218393   4.175   1.536   3.194
 6021SOL     OW18394   4.126   0.751   3.460
 6021SOL    HW118395   4.194   0.806   3.413
 6021SOL    HW218396   4.166   0.663   3.487
 6022SOL     OW18397   4.228   0.050   3.602
 6022SOL    HW118398   4.186  -0.007   3.532
 6022SOL    HW218399   4.162   0.119   3.634
 6023SOL     OW18400   4.297   0.870   2.891
 6023SOL    HW118401   4.341   0.959   2.882
 6023SOL    HW218402   4.234   0.870   2.968
 6024SOL     OW18403   4.031   0.213   3.093
 6024SOL    HW118404   4.008   0.250   3.183
 6024SOL    HW218405   4.001   0.118   3.087
 6025SOL     OW18406   3.761   1.310   3.144
 6025SOL    HW118407   3.814   1.261   3.212
 6025SOL    HW218408   3.783   1.408   3.149
 6026SOL     OW18409   4.031   0.063   2.480
 6026SOL    HW118410   4.020   0.157   2.513
 6026SOL    HW218411   4.026   0.000   2.557
 6027SOL     OW18412   4.074   0.898   3.666
 6027SOL    HW118413   4.150   0.942   3.714
 6027SOL    HW218414   4.109   0.851   3.584
 6028SOL     OW18415   4.043   0.810   2.811
 6028SOL    HW118416   4.136   0.846   2.816
 6028SOL    HW218417   4.037   0.725   2.863
 6029SOL     OW18418   4.063   0.509   2.868
 6029SOL    HW118419   4.011   0.426   2.851
 6029SOL    HW218420   4.140   0.514   2.804
 6030SOL     OW18421   3.732   1.326   2.062
 6030SOL    HW118422   3.639   1.347   2.031
 6030SOL    HW218423   3.742   1.227   2.075
 6031SOL     OW18424   3.812   1.801   2.789
 6031SOL    HW118425   3.770   1.715   2.762
 6031SOL    HW218426   3.906   1.804   2.755
 6032SOL     OW18427   4.228   1.568   2.772
 6032SOL    HW118428   4.294   1.642   2.781
 6032SOL    HW218429   4.272   1.489   2.730
 6033SOL     OW18430   3.764   0.544   2.976
 6033SOL    HW118431   3.849   0.511   2.935
 6033SOL    HW218432   3.777   0.559   3.074
 6034SOL     OW18433   3.913   0.520   3.584
 6034SOL    HW118434   3.972   0.480   3.514
 6034SOL    HW218435   3.855   0.591   3.543
 6035SOL     OW18436   4.539   0.572   2.187
 6035SOL    HW118437   4.546   0.483   2.141
 6035SOL    HW218438   4.445   0.606   2.179
 6036SOL     OW18439   3.976   1.564   3.606
 6036SOL    HW118440   3.946   1.621   3.682
 6036SOL    HW218441   3.969   1.467   3.632
 6037SOL     OW18442   4.197   0.500   2.053
 6037SOL    HW118443   4.258   0.580   2.057
 6037SOL    HW218444   4.102   0.531   2.060
 6038SOL     OW18445   3.883   1.137   3.328
 6038SOL    HW118446   3.905   1.076   3.404
 6038SOL    HW218447   3.893   1.088   3.242
 6039SOL     OW18448   3.807   1.258   2.884
 6039SOL    HW118449   3.802   1.257   2.984
 6039SOL    HW218450   3.724   1.217   2.846
 6040SOL     OW18451   4.412   1.662   3.578
 6040SOL    HW118452   4.356   1.743   3.587
 6040SOL    HW218453   4.464   1.666   3.492
 6041SOL     OW18454   3.854   1.794   3.713
 6041SOL    HW118455   3.813   1.720   3.766
 6041SOL    HW218456   3.918   1.845   3.771
 6042SOL     OW18457   3.987   0.326   2.582
 6042SOL    HW118458   3.908   0.377   2.548
 6042SOL    HW218459   3.978   0.311   2.680
 6043SOL     OW18460   4.096   1.288   3.352
 6043SOL    HW118461   4.083   1.381   3.318
 6043SOL    HW218462   4.012   1.236   3.339
 6044SOL     OW18463   4.314   1.487   2.353
 6044SOL    HW118464   4.356   1.429   2.283
 6044SOL    HW218465   4.270   1.566   2.309
 6045SOL     OW18466   3.979   1.348   2.152
 6045SOL    HW118467   3.883   1.349   2.125
 6045SOL    HW218468   3.991   1.401   2.236
 6046SOL     OW18469   3.829   1.013   3.588
 6046SOL    HW118470   3.752   0.980   3.642
 6046SOL    HW218471   3.914   0.983   3.630
 6047SOL     OW18472   4.396   0.203   3.351
 6047SOL    HW118473   4.486   0.187   3.311
 6047SOL    HW218474   4.404   0.208   3.450
 6048SOL     OW18475   3.799   0.345   1.895
 6048SOL    HW118476   3.707   0.317   1.866
 6048SOL    HW218477   3.830   0.422   1.839
 6049SOL     OW18478   3.796   0.166   2.180
 6049SOL    HW118479   3.779   0.249   2.126
 6049SOL    HW218480   3.886   0.129   2.158
 6050SOL     OW18481   4.337   0.842   3.293
 6050SOL    HW118482   4.393   0.923   3.276
 6050SOL    HW218483   4.396   0.762   3.296
 6051SOL     OW18484   4.440   0.565   3.570
 6051SOL    HW118485   4.459   0.630   3.644
 6051SOL    HW218486   4.500   0.485   3.579
 6052SOL     OW18487   4.114   1.741   3.422
 6052SOL    HW118488   4.023   1.782   3.420
 6052SOL    HW218489   4.107   1.647   3.454
 6053SOL     OW18490   4.318   0.745   2.514
 6053SOL    HW118491   4.368   0.830   2.495
 6053SOL    HW218492   4.230   0.747   2.466
 6054SOL     OW18493   3.945   1.314   3.706
 6054SOL    HW118494   3.880   1.241   3.685
 6054SOL    HW218495   3.949   1.328   3.804
 6055SOL     OW18496   3.803   1.240   2.515
 6055SOL    HW118497   3.802   1.193   2.603
 6055SOL    HW218498   3.885   1.212   2.464
 6056SOL     OW18499   4.396   1.391   3.486
 6056SOL    HW118500   4.318   1.341   3.524
 6056SOL    HW218501   4.393   1.486   3.517
 6057SOL     OW18502   4.152   0.424   2.382
 6057SOL    HW118503   4.182   0.352   2.320
 6057SOL    HW218504   4.113   0.384   2.465
 6058SOL     OW18505   4.041   0.547   3.142
 6058SOL    HW118506   4.079   0.488   3.214
 6058SOL    HW218507   4.081   0.521   3.054
 6059SOL     OW18508   4.536   1.586   2.549
 6059SOL    HW118509   4.568   1.596   2.455
 6059SOL    HW218510   4.457   1.524   2.551
 6060SOL     OW18511   3.763   1.077   2.162
 6060SOL    HW118512   3.862   1.066   2.153
 6060SOL    HW218513   3.723   0.991   2.194
 6061SOL     OW18514   3.954   0.628   3.837
 6061SOL    HW118515   3.861   0.626   3.874
 6061SOL    HW218516   3.955   0.589   3.745
 6062SOL     OW18517   3.949   0.275   4.720
 6062SOL    HW118518   3.984   0.258   4.812
 6062SOL    HW218519   3.861   0.230   4.708
 6063SOL     OW18520   3.743   0.368   4.371
 6063SOL    HW118521   3.661   0.411   4.410
 6063SOL    HW218522   3.715   0.295   4.308
 6064SOL     OW18523   4.293   1.275   4.889
 6064SOL    HW118524   4.200   1.268   4.852
 6064SOL    HW218525   4.304   1.364   4.933
 6065SOL     OW18526   4.574   0.798   5.547
 6065SOL    HW118527   4.570   0.874   5.612
 6065SOL    HW218528   4.596   0.834   5.456
 6066SOL     OW18529   4.409   1.012   4.389
 6066SOL    HW118530   4.478   0.996   4.459
 6066SOL    HW218531   4.336   1.069   4.427
 6067SOL     OW18532   4.410   1.161   5.527
 6067SOL    HW118533   4.470   1.240   5.541
 6067SOL    HW218534   4.324   1.192   5.486
 6068SOL     OW18535   4.059   1.435   4.785
 6068SOL    HW118536   3.981   1.404   4.732
 6068SOL    HW218537   4.117   1.493   4.728
 6069SOL     OW18538   4.162   0.392   5.223
 6069SOL    HW118539   4.244   0.336   5.232
 6069SOL    HW218540   4.081   0.334   5.227
 6070SOL     OW18541   3.955   1.713   4.207
 6070SOL    HW118542   3.989   1.790   4.261
 6070SOL    HW218543   3.999   1.713   4.117
 6071SOL     OW18544   3.954   1.434   4.262
 6071SOL    HW118545   3.928   1.530   4.262
 6071SOL    HW218546   3.883   1.380   4.307
 6072SOL     OW18547   3.964   1.091   4.610
 6072SOL    HW118548   3.978   1.007   4.662
 6072SOL    HW218549   3.909   1.155   4.665
 6073SOL     OW18550   4.344   1.786   5.163
 6073SOL    HW118551   4.252   1.769   5.198
 6073SOL    HW218552   4.372   1.878   5.189
 6074SOL     OW18553   4.330   0.964   3.847
 6074SOL    HW118554   4.337   1.048   3.793
 6074SOL    HW218555   4.376   0.977   3.935
 6075SOL     OW18556   3.846   0.643   4.287
 6075SOL    HW118557   3.801   0.555   4.304
 6075SOL    HW218558   3.845   0.697   4.371
 6076SOL     OW18559   3.751   1.596   3.841
 6076SOL    HW118560   3.732   1.500   3.862
 6076SOL    HW218561   3.718   1.654   3.916
 6077SOL     OW18562   3.837   0.737   5.321
 6077SOL    HW118563   3.925   0.724   5.366
 6077SOL    HW218564   3.824   0.834   5.299
 6078SOL     OW18565   4.337   1.365   4.450
 6078SOL    HW118566   4.288   1.278   4.459
 6078SOL    HW218567   4.314   1.408   4.363
 6079SOL     OW18568   4.533   0.004   4.226
 6079SOL    HW118569   4.573   0.095   4.217
 6079SOL    HW218570   4.433   0.012   4.232
 6080SOL     OW18571   3.921   0.976   4.988
 6080SOL    HW118572   4.010   0.931   4.974
 6080SOL    HW218573   3.848   0.911   4.969
 6081SOL     OW18574   4.041   0.251   5.525
 6081SOL    HW118575   4.112   0.322   5.531
 6081SOL    HW218576   3.953   0.290   5.553
 6082SOL     OW18577   4.322   0.729   3.994
 6082SOL    HW118578   4.346   0.798   3.926
 6082SOL    HW218579   4.244   0.762   4.048
 6083SOL     OW18580   3.800   0.811   4.513
 6083SOL    HW118581   3.899   0.799   4.522
 6083SOL    HW218582   3.776   0.906   4.534
 6084SOL     OW18583   3.854   1.821   5.295
 6084SOL    HW118584   3.844   1.806   5.394
 6084SOL    HW218585   3.768   1.857   5.259
 6085SOL     OW18586   4.274   0.196   4.609
 6085SOL    HW118587   4.269   0.191   4.709
 6085SOL    HW218588   4.276   0.292   4.580
 6086SOL     OW18589   4.075   1.801   4.577
 6086SOL    HW118590   4.125   1.715   4.583
 6086SOL    HW218591   4.140   1.878   4.574
 6087SOL     OW18592   4.045   0.943   3.966
 6087SOL    HW118593   4.127   0.982   3.924
 6087SOL    HW218594   4.018   0.861   3.917
 6088SOL     OW18595   4.185   1.266   5.451
 6088SOL    HW118596   4.135   1.267   5.365
 6088SOL    HW218597   4.122   1.248   5.527
 6089SOL     OW18598   3.926   0.285   5.222
 6089SOL    HW118599   3.846   0.345   5.209
 6089SOL    HW218600   3.916   0.236   5.308
 6090SOL     OW18601   4.188   1.743   4.047
 6090SOL    HW118602   4.221   1.782   4.133
 6090SOL    HW218603   4.264   1.736   3.982
 6091SOL     OW18604   3.973   1.785   4.965
 6091SOL    HW118605   4.030   1.720   5.015
 6091SOL    HW218606   3.957   1.752   4.872
 6092SOL     OW18607   4.106   0.700   4.204
 6092SOL    HW118608   4.151   0.610   4.201
 6092SOL    HW218609   4.012   0.689   4.237
 6093SOL     OW18610   4.338   0.122   3.841
 6093SOL    HW118611   4.436   0.100   3.848
 6093SOL    HW218612   4.307   0.105   3.748
 6094SOL     OW18613   4.527   1.402   4.648
 6094SOL    HW118614   4.617   1.416   4.606
 6094SOL    HW218615   4.456   1.404   4.577
 6095SOL     OW18616   4.263   0.064   4.236
 6095SOL    HW118617   4.182   0.065   4.294
 6095SOL    HW218618   4.266   0.147   4.181
 6096SOL     OW18619   4.021   0.035   3.895
 6096SOL    HW118620   4.070   0.119   3.874
 6096SOL    HW218621   4.083  -0.030   3.940
 6097SOL     OW18622   4.800   0.683   5.188
 6097SOL    HW118623   4.720   0.622   5.191
 6097SOL    HW218624   4.881   0.630   5.164
 6098SOL     OW18625   4.183   1.152   4.465
 6098SOL    HW118626   4.112   1.125   4.530
 6098SOL    HW218627   4.157   1.124   4.372
 6099SOL     OW18628   3.802   0.556   5.110
 6099SOL    HW118629   3.894   0.555   5.069
 6099SOL    HW218630   3.796   0.630   5.177
 6100SOL     OW18631   4.285   0.222   4.871
 6100SOL    HW118632   4.323   0.138   4.908
 6100SOL    HW218633   4.197   0.241   4.915
 6101SOL     OW18634   4.212   1.385   3.898
 6101SOL    HW118635   4.125   1.370   3.945
 6101SOL    HW218636   4.195   1.411   3.803
 6102SOL     OW18637   4.251   0.256   4.052
 6102SOL    HW118638   4.278   0.197   3.977
 6102SOL    HW218639   4.251   0.351   4.021
 6103SOL     OW18640   4.134   0.813   4.975
 6103SOL    HW118641   4.220   0.825   5.025
 6103SOL    HW218642   4.092   0.726   5.002
 6104SOL     OW18643   3.788   1.564   5.055
 6104SOL    HW118644   3.742   1.646   5.021
 6104SOL    HW218645   3.886   1.583   5.064
 6105SOL     OW18646   4.091   1.100   4.225
 6105SOL    HW118647   4.084   1.183   4.169
 6105SOL    HW218648   4.095   1.020   4.165
 6106SOL     OW18649   4.290   0.537   4.589
 6106SOL    HW118650   4.302   0.603   4.515
 6106SOL    HW218651   4.336   0.571   4.672
 6107SOL     OW18652   4.078   1.510   5.053
 6107SOL    HW118653   4.057   1.466   4.966
 6107SOL    HW218654   4.175   1.536   5.056
 6108SOL     OW18655   4.126   0.751   5.322
 6108SOL    HW118656   4.194   0.806   5.275
 6108SOL    HW218657   4.166   0.663   5.349
 6109SOL     OW18658   4.228   0.050   5.464
 6109SOL    HW118659   4.186  -0.007   5.394
 6109SOL    HW218660   4.162   0.119   5.496
 6110SOL     OW18661   4.297   0.870   4.753
 6110SOL    HW118662   4.341   0.959   4.744
 6110SOL    HW218663   4.234   0.870   4.830
 6111SOL     OW18664   4.031   0.213   4.955
 6111SOL    HW118665   4.008   0.250   5.045
 6111SOL    HW218666   4.001   0.118   4.949
 6112SOL     OW18667   3.761   1.310   5.006
 6112SOL    HW118668   3.814   1.261   5.074
 6112SOL    HW218669   3.783   1.408   5.011
 6113SOL     OW18670   4.031   0.063   4.342
 6113SOL    HW118671   4.020   0.157   4.375
 6113SOL    HW218672   4.026   0.000   4.419
 6114SOL     OW18673   4.074   0.898   5.528
 6114SOL    HW118674   4.150   0.942   5.576
 6114SOL    HW218675   4.109   0.851   5.446
 6115SOL     OW18676   4.043   0.810   4.673
 6115SOL    HW118677   4.136   0.846   4.678
 6115SOL    HW218678   4.037   0.725   4.725
 6116SOL     OW18679   4.063   0.509   4.730
 6116SOL    HW118680   4.011   0.426   4.713
 6116SOL    HW218681   4.140   0.514   4.666
 6117SOL     OW18682   3.732   1.326   3.924
 6117SOL    HW118683   3.639   1.347   3.893
 6117SOL    HW218684   3.742   1.227   3.937
 6118SOL     OW18685   3.812   1.801   4.651
 6118SOL    HW118686   3.770   1.715   4.624
 6118SOL    HW218687   3.906   1.804   4.617
 6119SOL     OW18688   4.228   1.568   4.634
 6119SOL    HW118689   4.294   1.642   4.643
 6119SOL    HW218690   4.272   1.489   4.592
 6120SOL     OW18691   3.764   0.544   4.838
 6120SOL    HW118692   3.849   0.511   4.797
 6120SOL    HW218693   3.777   0.559   4.936
 6121SOL     OW18694   3.913   0.520   5.446
 6121SOL    HW118695   3.972   0.480   5.376
 6121SOL    HW218696   3.855   0.591   5.405
 6122SOL     OW18697   4.539   0.572   4.049
 6122SOL    HW118698   4.546   0.483   4.003
 6122SOL    HW218699   4.445   0.606   4.041
 6123SOL     OW18700   3.976   1.564   5.468
 6123SOL    HW118701   3.946   1.621   5.544
 6123SOL    HW218702   3.969   1.467   5.494
 6124SOL     OW18703   4.197   0.500   3.915
 6124SOL    HW118704   4.258   0.580   3.919
 6124SOL    HW218705   4.102   0.531   3.922
 6125SOL     OW18706   3.883   1.137   5.190
 6125SOL    HW118707   3.905   1.076   5.266
 6125SOL    HW218708   3.893   1.088   5.104
 6126SOL     OW18709   3.807   1.258   4.746
 6126SOL    HW118710   3.802   1.257   4.846
 6126SOL    HW218711   3.724   1.217   4.708
 6127SOL     OW18712   4.412   1.662   5.440
 6127SOL    HW118713   4.356   1.743   5.449
 6127SOL    HW218714   4.464   1.666   5.354
 6128SOL     OW18715   3.854   1.794   5.575
 6128SOL    HW118716   3.813   1.720   5.628
 6128SOL    HW218717   3.918   1.845   5.633
 6129SOL     OW18718   3.987   0.326   4.444
 6129SOL    HW118719   3.908   0.377   4.410
 6129SOL    HW218720   3.978   0.311   4.542
 6130SOL     OW18721   4.096   1.288   5.214
 6130SOL    HW118722   4.083   1.381   5.180
 6130SOL    HW218723   4.012   1.236   5.201
 6131SOL     OW18724   4.314   1.487   4.215
 6131SOL    HW118725   4.356   1.429   4.145
 6131SOL    HW218726   4.270   1.566   4.171
 6132SOL     OW18727   3.979   1.348   4.014
 6132SOL    HW118728   3.883   1.349   3.987
 6132SOL    HW218729   3.991   1.401   4.098
 6133SOL     OW18730   3.829   1.013   5.450
 6133SOL    HW118731   3.752   0.980   5.504
 6133SOL    HW218732   3.914   0.983   5.492
 6134SOL     OW18733   4.396   0.203   5.213
 6134SOL    HW118734   4.486   0.187   5.173
 6134SOL    HW218735   4.404   0.208   5.312
 6135SOL     OW18736   3.799   0.345   3.757
 6135SOL    HW118737   3.707   0.317   3.728
 6135SOL    HW218738   3.830   0.422   3.701
 6136SOL     OW18739   3.796   0.166   4.042
 6136SOL    HW118740   3.779   0.249   3.988
 6136SOL    HW218741   3.886   0.129   4.020
 6137SOL     OW18742   4.337   0.842   5.155
 6137SOL    HW118743   4.393   0.923   5.138
 6137SOL    HW218744   4.396   0.762   5.158
 6138SOL     OW18745   4.440   0.565   5.432
 6138SOL    HW118746   4.459   0.630   5.506
 6138SOL    HW218747   4.500   0.485   5.441
 6139SOL     OW18748   4.114   1.741   5.284
 6139SOL    HW118749   4.023   1.782   5.282
 6139SOL    HW218750   4.107   1.647   5.316
 6140SOL     OW18751   4.318   0.745   4.376
 6140SOL    HW118752   4.368   0.830   4.357
 6140SOL    HW218753   4.230   0.747   4.328
 6141SOL     OW18754   3.945   1.314   5.568
 6141SOL    HW118755   3.880   1.241   5.547
 6141SOL    HW218756   3.949   1.328   5.666
 6142SOL     OW18757   3.803   1.240   4.377
 6142SOL    HW118758   3.802   1.193   4.465
 6142SOL    HW218759   3.885   1.212   4.326
 6143SOL     OW18760   4.396   1.391   5.348
 6143SOL    HW118761   4.318   1.341   5.386
 6143SOL    HW218762   4.393   1.486   5.379
 6144SOL     OW18763   4.152   0.424   4.244
 6144SOL    HW118764   4.182   0.352   4.182
 6144SOL    HW218765   4.113   0.384   4.327
 6145SOL     OW18766   4.041   0.547   5.004
 6145SOL    HW118767   4.079   0.488   5.076
 6145SOL    HW218768   4.081   0.521   4.916
 6146SOL     OW18769   4.536   1.586   4.411
 6146SOL    HW118770   4.568   1.596   4.317
 6146SOL    HW218771   4.457   1.524   4.413
 6147SOL     OW18772   3.763   1.077   4.024
 6147SOL    HW118773   3.862   1.066   4.015
 6147SOL    HW218774   3.723   0.991   4.056
 6148SOL     OW18775   3.954   0.628   5.699
 6148SOL    HW118776   3.861   0.626   5.736
 6148SOL    HW218777   3.955   0.589   5.607
 6149SOL     OW18778   3.949   0.275   6.582
 6149SOL    HW118779   3.984   0.258   6.674
 6149SOL    HW218780   3.861   0.230   6.570
 6150SOL     OW18781   3.743   0.368   6.233
 6150SOL    HW118782   3.661   0.411   6.272
 6150SOL    HW218783   3.715   0.295   6.170
 6151SOL     OW18784   4.293   1.275   6.751
 6151SOL    HW118785   4.200   1.268   6.714
 6151SOL    HW218786   4.304   1.364   6.795
 6152SOL     OW18787   4.574   0.798   7.409
 6152SOL    HW118788   4.570   0.874   7.474
 6152SOL    HW218789   4.596   0.834   7.318
 6153SOL     OW18790   4.409   1.012   6.251
 6153SOL    HW118791   4.478   0.996   6.321
 6153SOL    HW218792   4.336   1.069   6.289
 6154SOL     OW18793   4.410   1.161   7.389
 6154SOL    HW118794   4.470   1.240   7.403
 6154SOL    HW218795   4.324   1.192   7.348
 6155SOL     OW18796   4.059   1.435   6.647
 6155SOL    HW118797   3.981   1.404   6.594
 6155SOL    HW218798   4.117   1.493   6.590
 6156SOL     OW18799   4.162   0.392   7.085
 6156SOL    HW118800   4.244   0.336   7.094
 6156SOL    HW218801   4.081   0.334   7.089
 6157SOL     OW18802   3.955   1.713   6.069
 6157SOL    HW118803   3.989   1.790   6.123
 6157SOL    HW218804   3.999   1.713   5.979
 6158SOL     OW18805   3.954   1.434   6.124
 6158SOL    HW118806   3.928   1.530   6.124
 6158SOL    HW218807   3.883   1.380   6.169
 6159SOL     OW18808   3.964   1.091   6.472
 6159SOL    HW118809   3.978   1.007   6.524
 6159SOL    HW218810   3.909   1.155   6.527
 6160SOL     OW18811   4.344   1.786   7.025
 6160SOL    HW118812   4.252   1.769   7.060
 6160SOL    HW218813   4.372   1.878   7.051
 6161SOL     OW18814   4.330   0.964   5.709
 6161SOL    HW118815   4.337   1.048   5.655
 6161SOL    HW218816   4.376   0.977   5.797
 6162SOL     OW18817   3.846   0.643   6.149
 6162SOL    HW118818   3.801   0.555   6.166
 6162SOL    HW218819   3.845   0.697   6.233
 6163SOL     OW18820   3.751   1.596   5.703
 6163SOL    HW118821   3.732   1.500   5.724
 6163SOL    HW218822   3.718   1.654   5.778
 6164SOL     OW18823   3.837   0.737   7.183
 6164SOL    HW118824   3.925   0.724   7.228
 6164SOL    HW218825   3.824   0.834   7.161
 6165SOL     OW18826   4.337   1.365   6.312
 6165SOL    HW118827   4.288   1.278   6.321
 6165SOL    HW218828   4.314   1.408   6.225
 6166SOL     OW18829   4.533   0.004   6.088
 6166SOL    HW118830   4.573   0.095   6.079
 6166SOL    HW218831   4.433   0.012   6.094
 6167SOL     OW18832   3.921   0.976   6.850
 6167SOL    HW118833   4.010   0.931   6.836
 6167SOL    HW218834   3.848   0.911   6.831
 6168SOL     OW18835   4.041   0.251   7.387
 6168SOL    HW118836   4.112   0.322   7.393
 6168SOL    HW218837   3.953   0.290   7.415
 6169SOL     OW18838   4.322   0.729   5.856
 6169SOL    HW118839   4.346   0.798   5.788
 6169SOL    HW218840   4.244   0.762   5.910
 6170SOL     OW18841   3.800   0.811   6.375
 6170SOL    HW118842   3.899   0.799   6.384
 6170SOL    HW218843   3.776   0.906   6.396
 6171SOL     OW18844   3.854   1.821   7.157
 6171SOL    HW118845   3.844   1.806   7.256
 6171SOL    HW218846   3.768   1.857   7.121
 6172SOL     OW18847   4.274   0.196   6.471
 6172SOL    HW118848   4.269   0.191   6.571
 6172SOL    HW218849   4.276   0.292   6.442
 6173SOL     OW18850   4.075   1.801   6.439
 6173SOL    HW118851   4.125   1.715   6.445
 6173SOL    HW218852   4.140   1.878   6.436
 6174SOL     OW18853   4.045   0.943   5.828
 6174SOL    HW118854   4.127   0.982   5.786
 6174SOL    HW218855   4.018   0.861   5.779
 6175SOL     OW18856   4.185   1.266   7.313
 6175SOL    HW118857   4.135   1.267   7.227
 6175SOL    HW218858   4.122   1.248   7.389
 6176SOL     OW18859   3.926   0.285   7.084
 6176SOL    HW118860   3.846   0.345   7.071
 6176SOL    HW218861   3.916   0.236   7.170
 6177SOL     OW18862   4.188   1.743   5.909
 6177SOL    HW118863   4.221   1.782   5.995
 6177SOL    HW218864   4.264   1.736   5.844
 6178SOL     OW18865   3.973   1.785   6.827
 6178SOL    HW118866   4.030   1.720   6.877
 6178SOL    HW218867   3.957   1.752   6.734
 6179SOL     OW18868   4.106   0.700   6.066
 6179SOL    HW118869   4.151   0.610   6.063
 6179SOL    HW218870   4.012   0.689   6.099
 6180SOL     OW18871   4.338   0.122   5.703
 6180SOL    HW118872   4.436   0.100   5.710
 6180SOL    HW218873   4.307   0.105   5.610
 6181SOL     OW18874   4.527   1.402   6.510
 6181SOL    HW118875   4.617   1.416   6.468
 6181SOL    HW218876   4.456   1.404   6.439
 6182SOL     OW18877   4.263   0.064   6.098
 6182SOL    HW118878   4.182   0.065   6.156
 6182SOL    HW218879   4.266   0.147   6.043
 6183SOL     OW18880   4.021   0.035   5.757
 6183SOL    HW118881   4.070   0.119   5.736
 6183SOL    HW218882   4.083  -0.030   5.802
 6184SOL     OW18883   4.800   0.683   7.050
 6184SOL    HW118884   4.720   0.622   7.053
 6184SOL    HW218885   4.881   0.630   7.026
 6185SOL     OW18886   4.183   1.152   6.327
 6185SOL    HW118887   4.112   1.125   6.392
 6185SOL    HW218888   4.157   1.124   6.234
 6186SOL     OW18889   3.802   0.556   6.972
 6186SOL    HW118890   3.894   0.555   6.931
 6186SOL    HW218891   3.796   0.630   7.039
 6187SOL     OW18892   4.285   0.222   6.733
 6187SOL    HW118893   4.323   0.138   6.770
 6187SOL    HW218894   4.197   0.241   6.777
 6188SOL     OW18895   4.212   1.385   5.760
 6188SOL    HW118896   4.125   1.370   5.807
 6188SOL    HW218897   4.195   1.411   5.665
 6189SOL     OW18898   4.251   0.256   5.914
 6189SOL    HW118899   4.278   0.197   5.839
 6189SOL    HW218900   4.251   0.351   5.883
 6190SOL     OW18901   4.134   0.813   6.837
 6190SOL    HW118902   4.220   0.825   6.887
 6190SOL    HW218903   4.092   0.726   6.864
 6191SOL     OW18904   3.788   1.564   6.917
 6191SOL    HW118905   3.742   1.646   6.883
 6191SOL    HW218906   3.886   1.583   6.926
 6192SOL     OW18907   4.091   1.100   6.087
 6192SOL    HW118908   4.084   1.183   6.031
 6192SOL    HW218909   4.095   1.020   6.027
 6193SOL     OW18910   4.290   0.537   6.451
 6193SOL    HW118911   4.302   0.603   6.377
 6193SOL    HW218912   4.336   0.571   6.534
 6194SOL     OW18913   4.078   1.510   6.915
 6194SOL    HW118914   4.057   1.466   6.828
 6194SOL    HW218915   4.175   1.536   6.918
 6195SOL     OW18916   4.126   0.751   7.184
 6195SOL    HW118917   4.194   0.806   7.137
 6195SOL    HW218918   4.166   0.663   7.211
 6196SOL     OW18919   4.228   0.050   7.326
 6196SOL    HW118920   4.186  -0.007   7.256
 6196SOL    HW218921   4.162   0.119   7.358
 6197SOL     OW18922   4.297   0.870   6.615
 6197SOL    HW118923   4.341   0.959   6.606
 6197SOL    HW218924   4.234   0.870   6.692
 6198SOL     OW18925   4.031   0.213   6.817
 6198SOL    HW118926   4.008   0.250   6.907
 6198SOL    HW218927   4.001   0.118   6.811
 6199SOL     OW18928   3.761   1.310   6.868
 6199SOL    HW118929   3.814   1.261   6.936
 6199SOL    HW218930   3.783   1.408   6.873
 6200SOL     OW18931   4.031   0.063   6.204
 6200SOL    HW118932   4.020   0.157   6.237
 6200SOL    HW218933   4.026   0.000   6.281
 6201SOL     OW18934   4.074   0.898   7.390
 6201SOL    HW118935   4.150   0.942   7.438
 6201SOL    HW218936   4.109   0.851   7.308
 6202SOL     OW18937   4.043   0.810   6.535
 6202SOL    HW118938   4.136   0.846   6.540
 6202SOL    HW218939   4.037   0.725   6.587
 6203SOL     OW18940   4.063   0.509   6.592
 6203SOL    HW118941   4.011   0.426   6.575
 6203SOL    HW218942   4.140   0.514   6.528
 6204SOL     OW18943   3.732   1.326   5.786
 6204SOL    HW118944   3.639   1.347   5.755
 6204SOL    HW218945   3.742   1.227   5.799
 6205SOL     OW18946   3.812   1.801   6.513
 6205SOL    HW118947   3.770   1.715   6.486
 6205SOL    HW218948   3.906   1.804   6.479
 6206SOL     OW18949   4.228   1.568   6.496
 6206SOL    HW118950   4.294   1.642   6.505
 6206SOL    HW218951   4.272   1.489   6.454
 6207SOL     OW18952   3.764   0.544   6.700
 6207SOL    HW118953   3.849   0.511   6.659
 6207SOL    HW218954   3.777   0.559   6.798
 6208SOL     OW18955   3.913   0.520   7.308
 6208SOL    HW118956   3.972   0.480   7.238
 6208SOL    HW218957   3.855   0.591   7.267
 6209SOL     OW18958   4.539   0.572   5.911
 6209SOL    HW118959   4.546   0.483   5.865
 6209SOL    HW218960   4.445   0.606   5.903
 6210SOL     OW18961   3.976   1.564   7.330
 6210SOL    HW118962   3.946   1.621   7.406
 6210SOL    HW218963   3.969   1.467   7.356
 6211SOL     OW18964   4.197   0.500   5.777
 6211SOL    HW118965   4.258   0.580   5.781
 6211SOL    HW218966   4.102   0.531   5.784
 6212SOL     OW18967   3.883   1.137   7.052
 6212SOL    HW118968   3.905   1.076   7.128
 6212SOL    HW218969   3.893   1.088   6.966
 6213SOL     OW18970   3.807   1.258   6.608
 6213SOL    HW118971   3.802   1.257   6.708
 6213SOL    HW218972   3.724   1.217   6.570
 6214SOL     OW18973   4.412   1.662   7.302
 6214SOL    HW118974   4.356   1.743   7.311
 6214SOL    HW218975   4.464   1.666   7.216
 6215SOL     OW18976   3.854   1.794   7.437
 6215SOL    HW118977   3.813   1.720   7.490
 6215SOL    HW218978   3.918   1.845   7.495
 6216SOL     OW18979   3.987   0.326   6.306
 6216SOL    HW118980   3.908   0.377   6.272
 6216SOL    HW218981   3.978   0.311   6.404
 6217SOL     OW18982   4.096   1.288   7.076
 6217SOL    HW118983   4.083   1.381   7.042
 6217SOL    HW218984   4.012   1.236   7.063
 6218SOL     OW18985   4.314   1.487   6.077
 6218SOL    HW118986   4.356   1.429   6.007
 6218SOL    HW218987   4.270   1.566   6.033
 6219SOL     OW18988   3.979   1.348   5.876
 6219SOL    HW118989   3.883   1.349   5.849
 6219SOL    HW218990   3.991   1.401   5.960
 6220SOL     OW18991   3.829   1.013   7.312
 6220SOL    HW118992   3.752   0.980   7.366
 6220SOL    HW218993   3.914   0.983   7.354
 6221SOL     OW18994   4.396   0.203   7.075
 6221SOL    HW118995   4.486   0.187   7.035
 6221SOL    HW218996   4.404   0.208   7.174
 6222SOL     OW18997   3.799   0.345   5.619
 6222SOL    HW118998   3.707   0.317   5.590
 6222SOL    HW218999   3.830   0.422   5.563
 6223SOL     OW19000   3.796   0.166   5.904
 6223SOL    HW119001   3.779   0.249   5.850
 6223SOL    HW219002   3.886   0.129   5.882
 6224SOL     OW19003   4.337   0.842   7.017
 6224SOL    HW119004   4.393   0.923   7.000
 6224SOL    HW219005   4.396   0.762   7.020
 6225SOL     OW19006   4.440   0.565   7.294
 6225SOL    HW119007   4.459   0.630   7.368
 6225SOL    HW219008   4.500   0.485   7.303
 6226SOL     OW19009   4.114   1.741   7.146
 6226SOL    HW119010   4.023   1.782   7.144
 6226SOL    HW219011   4.107   1.647   7.178
 6227SOL     OW19012   4.318   0.745   6.238
 6227SOL    HW119013   4.368   0.830   6.219
 6227SOL    HW219014   4.230   0.747   6.190
 6228SOL     OW19015   3.945   1.314   7.430
 6228SOL    HW119016   3.880   1.241   7.409
 6228SOL    HW219017   3.949   1.328   7.528
 6229SOL     OW19018   3.803   1.240   6.239
 6229SOL    HW119019   3.802   1.193   6.327
 6229SOL    HW219020   3.885   1.212   6.188
 6230SOL     OW19021   4.396   1.391   7.210
 6230SOL    HW119022   4.318   1.341   7.248
 6230SOL    HW219023   4.393   1.486   7.241
 6231SOL     OW19024   4.152   0.424   6.106
 6231SOL    HW119025   4.182   0.352   6.044
 6231SOL    HW219026   4.113   0.384   6.189
 6232SOL     OW19027   4.041   0.547   6.866
 6232SOL    HW119028   4.079   0.488   6.938
 6232SOL    HW219029   4.081   0.521   6.778
 6233SOL     OW19030   4.536   1.586   6.273
 6233SOL    HW119031   4.568   1.596   6.179
 6233SOL    HW219032   4.457   1.524   6.275
 6234SOL     OW19033   3.763   1.077   5.886
 6234SOL    HW119034   3.862   1.066   5.877
 6234SOL    HW219035   3.723   0.991   5.918
 6235SOL     OW19036   3.954   0.628   7.561
 6235SOL    HW119037   3.861   0.626   7.598
 6235SOL    HW219038   3.955   0.589   7.469
 6236SOL     OW19039   3.949   0.275   8.444
 6236SOL    HW119040   3.984   0.258   8.536
 6236SOL    HW219041   3.861   0.230   8.432
 6237SOL     OW19042   3.743   0.368   8.095
 6237SOL    HW119043   3.661   0.411   8.134
 6237SOL    HW219044   3.715   0.295   8.032
 6238SOL     OW19045   4.293   1.275   8.613
 6238SOL    HW119046   4.200   1.268   8.576
 6238SOL    HW219047   4.304   1.364   8.657
 6239SOL     OW19048   4.574   0.798   9.271
 6239SOL    HW119049   4.570   0.874   9.336
 6239SOL    HW219050   4.596   0.834   9.180
 6240SOL     OW19051   4.409   1.012   8.113
 6240SOL    HW119052   4.478   0.996   8.183
 6240SOL    HW219053   4.336   1.069   8.151
 6241SOL     OW19054   4.410   1.161   9.251
 6241SOL    HW119055   4.470   1.240   9.265
 6241SOL    HW219056   4.324   1.192   9.210
 6242SOL     OW19057   4.059   1.435   8.509
 6242SOL    HW119058   3.981   1.404   8.456
 6242SOL    HW219059   4.117   1.493   8.452
 6243SOL     OW19060   4.162   0.392   8.947
 6243SOL    HW119061   4.244   0.336   8.956
 6243SOL    HW219062   4.081   0.334   8.951
 6244SOL     OW19063   3.955   1.713   7.931
 6244SOL    HW119064   3.989   1.790   7.985
 6244SOL    HW219065   3.999   1.713   7.841
 6245SOL     OW19066   3.954   1.434   7.986
 6245SOL    HW119067   3.928   1.530   7.986
 6245SOL    HW219068   3.883   1.380   8.031
 6246SOL     OW19069   3.964   1.091   8.334
 6246SOL    HW119070   3.978   1.007   8.386
 6246SOL    HW219071   3.909   1.155   8.389
 6247SOL     OW19072   4.344   1.786   8.887
 6247SOL    HW119073   4.252   1.769   8.922
 6247SOL    HW219074   4.372   1.878   8.913
 6248SOL     OW19075   4.330   0.964   7.571
 6248SOL    HW119076   4.337   1.048   7.517
 6248SOL    HW219077   4.376   0.977   7.659
 6249SOL     OW19078   3.846   0.643   8.011
 6249SOL    HW119079   3.801   0.555   8.028
 6249SOL    HW219080   3.845   0.697   8.095
 6250SOL     OW19081   3.751   1.596   7.565
 6250SOL    HW119082   3.732   1.500   7.586
 6250SOL    HW219083   3.718   1.654   7.640
 6251SOL     OW19084   3.837   0.737   9.045
 6251SOL    HW119085   3.925   0.724   9.090
 6251SOL    HW219086   3.824   0.834   9.023
 6252SOL     OW19087   4.337   1.365   8.174
 6252SOL    HW119088   4.288   1.278   8.183
 6252SOL    HW219089   4.314   1.408   8.087
 6253SOL     OW19090   4.533   0.004   7.950
 6253SOL    HW119091   4.573   0.095   7.941
 6253SOL    HW219092   4.433   0.012   7.956
 6254SOL     OW19093   3.921   0.976   8.712
 6254SOL    HW119094   4.010   0.931   8.698
 6254SOL    HW219095   3.848   0.911   8.693
 6255SOL     OW19096   4.041   0.251   9.249
 6255SOL    HW119097   4.112   0.322   9.255
 6255SOL    HW219098   3.953   0.290   9.277
 6256SOL     OW19099   4.322   0.729   7.718
 6256SOL    HW119100   4.346   0.798   7.650
 6256SOL    HW219101   4.244   0.762   7.772
 6257SOL     OW19102   3.800   0.811   8.237
 6257SOL    HW119103   3.899   0.799   8.246
 6257SOL    HW219104   3.776   0.906   8.258
 6258SOL     OW19105   3.854   1.821   9.019
 6258SOL    HW119106   3.844   1.806   9.118
 6258SOL    HW219107   3.768   1.857   8.983
 6259SOL     OW19108   4.274   0.196   8.333
 6259SOL    HW119109   4.269   0.191   8.433
 6259SOL    HW219110   4.276   0.292   8.304
 6260SOL     OW19111   4.075   1.801   8.301
 6260SOL    HW119112   4.125   1.715   8.307
 6260SOL    HW219113   4.140   1.878   8.298
 6261SOL     OW19114   4.045   0.943   7.690
 6261SOL    HW119115   4.127   0.982   7.648
 6261SOL    HW219116   4.018   0.861   7.641
 6262SOL     OW19117   4.185   1.266   9.175
 6262SOL    HW119118   4.135   1.267   9.089
 6262SOL    HW219119   4.122   1.248   9.251
 6263SOL     OW19120   3.926   0.285   8.946
 6263SOL    HW119121   3.846   0.345   8.933
 6263SOL    HW219122   3.916   0.236   9.032
 6264SOL     OW19123   4.188   1.743   7.771
 6264SOL    HW119124   4.221   1.782   7.857
 6264SOL    HW219125   4.264   1.736   7.706
 6265SOL     OW19126   3.973   1.785   8.689
 6265SOL    HW119127   4.030   1.720   8.739
 6265SOL    HW219128   3.957   1.752   8.596
 6266SOL     OW19129   4.106   0.700   7.928
 6266SOL    HW119130   4.151   0.610   7.925
 6266SOL    HW219131   4.012   0.689   7.961
 6267SOL     OW19132   4.338   0.122   7.565
 6267SOL    HW119133   4.436   0.100   7.572
 6267SOL    HW219134   4.307   0.105   7.472
 6268SOL     OW19135   4.527   1.402   8.372
 6268SOL    HW119136   4.617   1.416   8.330
 6268SOL    HW219137   4.456   1.404   8.301
 6269SOL     OW19138   4.263   0.064   7.960
 6269SOL    HW119139   4.182   0.065   8.018
 6269SOL    HW219140   4.266   0.147   7.905
 6270SOL     OW19141   4.021   0.035   7.619
 6270SOL    HW119142   4.070   0.119   7.598
 6270SOL    HW219143   4.083  -0.030   7.664
 6271SOL     OW19144   4.800   0.683   8.912
 6271SOL    HW119145   4.720   0.622   8.915
 6271SOL    HW219146   4.881   0.630   8.888
 6272SOL     OW19147   4.183   1.152   8.189
 6272SOL    HW119148   4.112   1.125   8.254
 6272SOL    HW219149   4.157   1.124   8.096
 6273SOL     OW19150   3.802   0.556   8.834
 6273SOL    HW119151   3.894   0.555   8.793
 6273SOL    HW219152   3.796   0.630   8.901
 6274SOL     OW19153   4.285   0.222   8.595
 6274SOL    HW119154   4.323   0.138   8.632
 6274SOL    HW219155   4.197   0.241   8.639
 6275SOL     OW19156   4.212   1.385   7.622
 6275SOL    HW119157   4.125   1.370   7.669
 6275SOL    HW219158   4.195   1.411   7.527
 6276SOL     OW19159   4.251   0.256   7.776
 6276SOL    HW119160   4.278   0.197   7.701
 6276SOL    HW219161   4.251   0.351   7.745
 6277SOL     OW19162   4.134   0.813   8.699
 6277SOL    HW119163   4.220   0.825   8.749
 6277SOL    HW219164   4.092   0.726   8.726
 6278SOL     OW19165   3.788   1.564   8.779
 6278SOL    HW119166   3.742   1.646   8.745
 6278SOL    HW219167   3.886   1.583   8.788
 6279SOL     OW19168   4.091   1.100   7.949
 6279SOL    HW119169   4.084   1.183   7.893
 6279SOL    HW219170   4.095   1.020   7.889
 6280SOL     OW19171   4.290   0.537   8.313
 6280SOL    HW119172   4.302   0.603   8.239
 6280SOL    HW219173   4.336   0.571   8.396
 6281SOL     OW19174   4.078   1.510   8.777
 6281SOL    HW119175   4.057   1.466   8.690
 6281SOL    HW219176   4.175   1.536   8.780
 6282SOL     OW19177   4.126   0.751   9.046
 6282SOL    HW119178   4.194   0.806   8.999
 6282SOL    HW219179   4.166   0.663   9.073
 6283SOL     OW19180   4.228   0.050   9.188
 6283SOL    HW119181   4.186  -0.007   9.118
 6283SOL    HW219182   4.162   0.119   9.220
 6284SOL     OW19183   4.297   0.870   8.477
 6284SOL    HW119184   4.341   0.959   8.468
 6284SOL    HW219185   4.234   0.870   8.554
 6285SOL     OW19186   4.031   0.213   8.679
 6285SOL    HW119187   4.008   0.250   8.769
 6285SOL    HW219188   4.001   0.118   8.673
 6286SOL     OW19189   3.761   1.310   8.730
 6286SOL    HW119190   3.814   1.261   8.798
 6286SOL    HW219191   3.783   1.408   8.735
 6287SOL     OW19192   4.031   0.063   8.066
 6287SOL    HW119193   4.020   0.157   8.099
 6287SOL    HW219194   4.026   0.000   8.143
 6288SOL     OW19195   4.074   0.898   9.252
 6288SOL    HW119196   4.150   0.942   9.300
 6288SOL    HW219197   4.109   0.851   9.170
 6289SOL     OW19198   4.043   0.810   8.397
 6289SOL    HW119199   4.136   0.846   8.402
 6289SOL    HW219200   4.037   0.725   8.449
 6290SOL     OW19201   4.063   0.509   8.454
 6290SOL    HW119202   4.011   0.426   8.437
 6290SOL    HW219203   4.140   0.514   8.390
 6291SOL     OW19204   3.732   1.326   7.648
 6291SOL    HW119205   3.639   1.347   7.617
 6291SOL    HW219206   3.742   1.227   7.661
 6292SOL     OW19207   3.812   1.801   8.375
 6292SOL    HW119208   3.770   1.715   8.348
 6292SOL    HW219209   3.906   1.804   8.341
 6293SOL     OW19210   4.228   1.568   8.358
 6293SOL    HW119211   4.294   1.642   8.367
 6293SOL    HW219212   4.272   1.489   8.316
 6294SOL     OW19213   3.764   0.544   8.562
 6294SOL    HW119214   3.849   0.511   8.521
 6294SOL    HW219215   3.777   0.559   8.660
 6295SOL     OW19216   3.913   0.520   9.170
 6295SOL    HW119217   3.972   0.480   9.100
 6295SOL    HW219218   3.855   0.591   9.129
 6296SOL     OW19219   4.539   0.572   7.773
 6296SOL    HW119220   4.546   0.483   7.727
 6296SOL    HW219221   4.445   0.606   7.765
 6297SOL     OW19222   3.976   1.564   9.192
 6297SOL    HW119223   3.946   1.621   9.268
 6297SOL    HW219224   3.969   1.467   9.218
 6298SOL     OW19225   4.197   0.500   7.639
 6298SOL    HW119226   4.258   0.580   7.643
 6298SOL    HW219227   4.102   0.531   7.646
 6299SOL     OW19228   3.883   1.137   8.914
 6299SOL    HW119229   3.905   1.076   8.990
 6299SOL    HW219230   3.893   1.088   8.828
 6300SOL     OW19231   3.807   1.258   8.470
 6300SOL    HW119232   3.802   1.257   8.570
 6300SOL    HW219233   3.724   1.217   8.432
 6301SOL     OW19234   4.412   1.662   9.164
 6301SOL    HW119235   4.356   1.743   9.173
 6301SOL    HW219236   4.464   1.666   9.078
 6302SOL     OW19237   3.854   1.794   9.299
 6302SOL    HW119238   3.813   1.720   9.352
 6302SOL    HW219239   3.918   1.845   9.357
 6303SOL     OW19240   3.987   0.326   8.168
 6303SOL    HW119241   3.908   0.377   8.134
 6303SOL    HW219242   3.978   0.311   8.266
 6304SOL     OW19243   4.096   1.288   8.938
 6304SOL    HW119244   4.083   1.381   8.904
 6304SOL    HW219245   4.012   1.236   8.925
 6305SOL     OW19246   4.314   1.487   7.939
 6305SOL    HW119247   4.356   1.429   7.869
 6305SOL    HW219248   4.270   1.566   7.895
 6306SOL     OW19249   3.979   1.348   7.738
 6306SOL    HW119250   3.883   1.349   7.711
 6306SOL    HW219251   3.991   1.401   7.822
 6307SOL     OW19252   3.829   1.013   9.174
 6307SOL    HW119253   3.752   0.980   9.228
 6307SOL    HW219254   3.914   0.983   9.216
 6308SOL     OW19255   4.396   0.203   8.937
 6308SOL    HW119256   4.486   0.187   8.897
 6308SOL    HW219257   4.404   0.208   9.036
 6309SOL     OW19258   3.799   0.345   7.481
 6309SOL    HW119259   3.707   0.317   7.452
 6309SOL    HW219260   3.830   0.422   7.425
 6310SOL     OW19261   3.796   0.166   7.766
 6310SOL    HW119262   3.779   0.249   7.712
 6310SOL    HW219263   3.886   0.129   7.744
 6311SOL     OW19264   4.337   0.842   8.879
 6311SOL    HW119265   4.393   0.923   8.862
 6311SOL    HW219266   4.396   0.762   8.882
 6312SOL     OW19267   4.440   0.565   9.156
 6312SOL    HW119268   4.459   0.630   9.230
 6312SOL    HW219269   4.500   0.485   9.165
 6313SOL     OW19270   4.114   1.741   9.008
 6313SOL    HW119271   4.023   1.782   9.006
 6313SOL    HW219272   4.107   1.647   9.040
 6314SOL     OW19273   4.318   0.745   8.100
 6314SOL    HW119274   4.368   0.830   8.081
 6314SOL    HW219275   4.230   0.747   8.052
 6315SOL     OW19276   3.945   1.314   9.292
 6315SOL    HW119277   3.880   1.241   9.271
 6315SOL    HW219278   3.949   1.328   9.390
 6316SOL     OW19279   3.803   1.240   8.101
 6316SOL    HW119280   3.802   1.193   8.189
 6316SOL    HW219281   3.885   1.212   8.050
 6317SOL     OW19282   4.396   1.391   9.072
 6317SOL    HW119283   4.318   1.341   9.110
 6317SOL    HW219284   4.393   1.486   9.103
 6318SOL     OW19285   4.152   0.424   7.968
 6318SOL    HW119286   4.182   0.352   7.906
 6318SOL    HW219287   4.113   0.384   8.051
 6319SOL     OW19288   4.041   0.547   8.728
 6319SOL    HW119289   4.079   0.488   8.800
 6319SOL    HW219290   4.081   0.521   8.640
 6320SOL     OW19291   4.536   1.586   8.135
 6320SOL    HW119292   4.568   1.596   8.041
 6320SOL    HW219293   4.457   1.524   8.137
 6321SOL     OW19294   3.763   1.077   7.748
 6321SOL    HW119295   3.862   1.066   7.739
 6321SOL    HW219296   3.723   0.991   7.780
 6322SOL     OW19297   3.954   0.628   9.423
 6322SOL    HW119298   3.861   0.626   9.460
 6322SOL    HW219299   3.955   0.589   9.331
 6323SOL     OW19300   3.949   0.275  10.306
 6323SOL    HW119301   3.984   0.258  10.398
 6323SOL    HW219302   3.861   0.230  10.294
 6324SOL     OW19303   3.743   0.368   9.957
 6324SOL    HW119304   3.661   0.411   9.996
 6324SOL    HW219305   3.715   0.295   9.894
 6325SOL     OW19306   4.293   1.275  10.475
 6325SOL    HW119307   4.200   1.268  10.438
 6325SOL    HW219308   4.304   1.364  10.519
 6326SOL     OW19309   4.574   0.798  11.133
 6326SOL    HW119310   4.570   0.874  11.198
 6326SOL    HW219311   4.596   0.834  11.042
 6327SOL     OW19312   4.409   1.012   9.975
 6327SOL    HW119313   4.478   0.996  10.045
 6327SOL    HW219314   4.336   1.069  10.013
 6328SOL     OW19315   4.059   1.435  10.371
 6328SOL    HW119316   3.981   1.404  10.318
 6328SOL    HW219317   4.117   1.493  10.314
 6329SOL     OW19318   4.162   0.392  10.809
 6329SOL    HW119319   4.244   0.336  10.818
 6329SOL    HW219320   4.081   0.334  10.813
 6330SOL     OW19321   3.955   1.713   9.793
 6330SOL    HW119322   3.989   1.790   9.847
 6330SOL    HW219323   3.999   1.713   9.703
 6331SOL     OW19324   3.954   1.434   9.848
 6331SOL    HW119325   3.928   1.530   9.848
 6331SOL    HW219326   3.883   1.380   9.893
 6332SOL     OW19327   3.964   1.091  10.196
 6332SOL    HW119328   3.978   1.007  10.248
 6332SOL    HW219329   3.909   1.155  10.251
 6333SOL     OW19330   4.344   1.786  10.749
 6333SOL    HW119331   4.252   1.769  10.784
 6333SOL    HW219332   4.372   1.878  10.775
 6334SOL     OW19333   4.330   0.964   9.433
 6334SOL    HW119334   4.337   1.048   9.379
 6334SOL    HW219335   4.376   0.977   9.521
 6335SOL     OW19336   3.846   0.643   9.873
 6335SOL    HW119337   3.801   0.555   9.890
 6335SOL    HW219338   3.845   0.697   9.957
 6336SOL     OW19339   3.751   1.596   9.427
 6336SOL    HW119340   3.732   1.500   9.448
 6336SOL    HW219341   3.718   1.654   9.502
 6337SOL     OW19342   4.337   1.365  10.036
 6337SOL    HW119343   4.288   1.278  10.045
 6337SOL    HW219344   4.314   1.408   9.949
 6338SOL     OW19345   4.533   0.004   9.812
 6338SOL    HW119346   4.573   0.095   9.803
 6338SOL    HW219347   4.433   0.012   9.818
 6339SOL     OW19348   3.921   0.976  10.574
 6339SOL    HW119349   4.010   0.931  10.560
 6339SOL    HW219350   3.848   0.911  10.555
 6340SOL     OW19351   4.322   0.729   9.580
 6340SOL    HW119352   4.346   0.798   9.512
 6340SOL    HW219353   4.244   0.762   9.634
 6341SOL     OW19354   4.697   0.890  10.882
 6341SOL    HW119355   4.743   0.806  10.853
 6341SOL    HW219356   4.641   0.924  10.807
 6342SOL     OW19357   3.800   0.811  10.099
 6342SOL    HW119358   3.899   0.799  10.108
 6342SOL    HW219359   3.776   0.906  10.120
 6343SOL     OW19360   3.854   1.821  10.881
 6343SOL    HW119361   3.844   1.806  10.980
 6343SOL    HW219362   3.768   1.857  10.845
 6344SOL     OW19363   4.274   0.196  10.195
 6344SOL    HW119364   4.269   0.191  10.295
 6344SOL    HW219365   4.276   0.292  10.166
 6345SOL     OW19366   4.075   1.801  10.163
 6345SOL    HW119367   4.125   1.715  10.169
 6345SOL    HW219368   4.140   1.878  10.160
 6346SOL     OW19369   4.045   0.943   9.552
 6346SOL    HW119370   4.127   0.982   9.510
 6346SOL    HW219371   4.018   0.861   9.503
 6347SOL     OW19372   3.926   0.285  10.808
 6347SOL    HW119373   3.846   0.345  10.795
 6347SOL    HW219374   3.916   0.236  10.894
 6348SOL     OW19375   4.188   1.743   9.633
 6348SOL    HW119376   4.221   1.782   9.719
 6348SOL    HW219377   4.264   1.736   9.568
 6349SOL     OW19378   3.973   1.785  10.551
 6349SOL    HW119379   4.030   1.720  10.601
 6349SOL    HW219380   3.957   1.752  10.458
 6350SOL     OW19381   4.106   0.700   9.790
 6350SOL    HW119382   4.151   0.610   9.787
 6350SOL    HW219383   4.012   0.689   9.823
 6351SOL     OW19384   4.338   0.122   9.427
 6351SOL    HW119385   4.436   0.100   9.434
 6351SOL    HW219386   4.307   0.105   9.334
 6352SOL     OW19387   4.527   1.402  10.234
 6352SOL    HW119388   4.617   1.416  10.192
 6352SOL    HW219389   4.456   1.404  10.163
 6353SOL     OW19390   4.263   0.064   9.822
 6353SOL    HW119391   4.182   0.065   9.880
 6353SOL    HW219392   4.266   0.147   9.767
 6354SOL     OW19393   4.021   0.035   9.481
 6354SOL    HW119394   4.070   0.119   9.460
 6354SOL    HW219395   4.083  -0.030   9.526
 6355SOL     OW19396   4.800   0.683  10.774
 6355SOL    HW119397   4.720   0.622  10.777
 6355SOL    HW219398   4.881   0.630  10.750
 6356SOL     OW19399   4.183   1.152  10.051
 6356SOL    HW119400   4.112   1.125  10.116
 6356SOL    HW219401   4.157   1.124   9.958
 6357SOL     OW19402   3.802   0.556  10.696
 6357SOL    HW119403   3.894   0.555  10.655
 6357SOL    HW219404   3.796   0.630  10.763
 6358SOL     OW19405   4.285   0.222  10.457
 6358SOL    HW119406   4.323   0.138  10.494
 6358SOL    HW219407   4.197   0.241  10.501
 6359SOL     OW19408   4.212   1.385   9.484
 6359SOL    HW119409   4.125   1.370   9.531
 6359SOL    HW219410   4.195   1.411   9.389
 6360SOL     OW19411   4.251   0.256   9.638
 6360SOL    HW119412   4.278   0.197   9.563
 6360SOL    HW219413   4.251   0.351   9.607
 6361SOL     OW19414   4.639   0.089  10.712
 6361SOL    HW119415   4.664   0.069  10.617
 6361SOL    HW219416   4.711   0.145  10.754
 6362SOL     OW19417   4.134   0.813  10.561
 6362SOL    HW119418   4.220   0.825  10.611
 6362SOL    HW219419   4.092   0.726  10.588
 6363SOL     OW19420   3.788   1.564  10.641
 6363SOL    HW119421   3.742   1.646  10.607
 6363SOL    HW219422   3.886   1.583  10.650
 6364SOL     OW19423   4.091   1.100   9.811
 6364SOL    HW119424   4.084   1.183   9.755
 6364SOL    HW219425   4.095   1.020   9.751
 6365SOL     OW19426   4.290   0.537  10.175
 6365SOL    HW119427   4.302   0.603  10.101
 6365SOL    HW219428   4.336   0.571  10.258
 6366SOL     OW19429   4.078   1.510  10.639
 6366SOL    HW119430   4.057   1.466  10.552
 6366SOL    HW219431   4.175   1.536  10.642
 6367SOL     OW19432   4.126   0.751  10.908
 6367SOL    HW119433   4.194   0.806  10.861
 6367SOL    HW219434   4.166   0.663  10.935
 6368SOL     OW19435   4.297   0.870  10.339
 6368SOL    HW119436   4.341   0.959  10.330
 6368SOL    HW219437   4.234   0.870  10.416
 6369SOL     OW19438   4.031   0.213  10.541
 6369SOL    HW119439   4.008   0.250  10.631
 6369SOL    HW219440   4.001   0.118  10.535
 6370SOL     OW19441   3.761   1.310  10.592
 6370SOL    HW119442   3.814   1.261  10.660
 6370SOL    HW219443   3.783   1.408  10.597
 6371SOL     OW19444   4.031   0.063   9.928
 6371SOL    HW119445   4.020   0.157   9.961
 6371SOL    HW219446   4.026   0.000  10.005
 6372SOL     OW19447   4.043   0.810  10.259
 6372SOL    HW119448   4.136   0.846  10.264
 6372SOL    HW219449   4.037   0.725  10.311
 6373SOL     OW19450   4.063   0.509  10.316
 6373SOL    HW119451   4.011   0.426  10.299
 6373SOL    HW219452   4.140   0.514  10.252
 6374SOL     OW19453   3.732   1.326   9.510
 6374SOL    HW119454   3.639   1.347   9.479
 6374SOL    HW219455   3.742   1.227   9.523
 6375SOL     OW19456   3.812   1.801  10.237
 6375SOL    HW119457   3.770   1.715  10.210
 6375SOL    HW219458   3.906   1.804  10.203
 6376SOL     OW19459   4.228   1.568  10.220
 6376SOL    HW119460   4.294   1.642  10.229
 6376SOL    HW219461   4.272   1.489  10.178
 6377SOL     OW19462   3.764   0.544  10.424
 6377SOL    HW119463   3.849   0.511  10.383
 6377SOL    HW219464   3.777   0.559  10.522
 6378SOL     OW19465   4.539   0.572   9.635
 6378SOL    HW119466   4.546   0.483   9.589
 6378SOL    HW219467   4.445   0.606   9.627
 6379SOL     OW19468   3.976   1.564  11.054
 6379SOL    HW119469   3.946   1.621  11.130
 6379SOL    HW219470   3.969   1.467  11.080
 6380SOL     OW19471   4.197   0.500   9.501
 6380SOL    HW119472   4.258   0.580   9.505
 6380SOL    HW219473   4.102   0.531   9.508
 6381SOL     OW19474   3.883   1.137  10.776
 6381SOL    HW119475   3.905   1.076  10.852
 6381SOL    HW219476   3.893   1.088  10.690
 6382SOL     OW19477   3.807   1.258  10.332
 6382SOL    HW119478   3.802   1.257  10.432
 6382SOL    HW219479   3.724   1.217  10.294
 6383SOL     OW19480   3.987   0.326  10.030
 6383SOL    HW119481   3.908   0.377   9.996
 6383SOL    HW219482   3.978   0.311  10.128
 6384SOL     OW19483   4.096   1.288  10.800
 6384SOL    HW119484   4.083   1.381  10.766
 6384SOL    HW219485   4.012   1.236  10.787
 6385SOL     OW19486   4.314   1.487   9.801
 6385SOL    HW119487   4.356   1.429   9.731
 6385SOL    HW219488   4.270   1.566   9.757
 6386SOL     OW19489   3.979   1.348   9.600
 6386SOL    HW119490   3.883   1.349   9.573
 6386SOL    HW219491   3.991   1.401   9.684
 6387SOL     OW19492   3.829   1.013  11.036
 6387SOL    HW119493   3.752   0.980  11.090
 6387SOL    HW219494   3.914   0.983  11.078
 6388SOL     OW19495   3.799   0.345   9.343
 6388SOL    HW119496   3.707   0.317   9.314
 6388SOL    HW219497   3.830   0.422   9.287
 6389SOL     OW19498   3.796   0.166   9.628
 6389SOL    HW119499   3.779   0.249   9.574
 6389SOL    HW219500   3.886   0.129   9.606
 6390SOL     OW19501   4.337   0.842  10.741
 6390SOL    HW119502   4.393   0.923  10.724
 6390SOL    HW219503   4.396   0.762  10.744
 6391SOL     OW19504   4.440   0.565  11.018
 6391SOL    HW119505   4.459   0.630  11.092
 6391SOL    HW219506   4.500   0.485  11.027
 6392SOL     OW19507   4.114   1.741  10.870
 6392SOL    HW119508   4.023   1.782  10.868
 6392SOL    HW219509   4.107   1.647  10.902
 6393SOL     OW19510   4.318   0.745   9.962
 6393SOL    HW119511   4.368   0.830   9.943
 6393SOL    HW219512   4.230   0.747   9.914
 6394SOL     OW19513   3.803   1.240   9.963
 6394SOL    HW119514   3.802   1.193  10.051
 6394SOL    HW219515   3.885   1.212   9.912
 6395SOL     OW19516   4.396   1.391  10.934
 6395SOL    HW119517   4.318   1.341  10.972
 6395SOL    HW219518   4.393   1.486  10.965
 6396SOL     OW19519   4.152   0.424   9.830
 6396SOL    HW119520   4.182   0.352   9.768
 6396SOL    HW219521   4.113   0.384   9.913
 6397SOL     OW19522   4.041   0.547  10.590
 6397SOL    HW119523   4.079   0.488  10.662
 6397SOL    HW219524   4.081   0.521  10.502
 6398SOL     OW19525   4.536   1.586   9.997
 6398SOL    HW119526   4.568   1.596   9.903
 6398SOL    HW219527   4.457   1.524   9.999
 6399SOL     OW19528   3.763   1.077   9.610
 6399SOL    HW119529   3.862   1.066   9.601
 6399SOL    HW219530   3.723   0.991   9.642
 6400SOL     OW19531   3.954   2.490   0.113
 6400SOL    HW119532   3.861   2.488   0.150
 6400SOL    HW219533   3.955   2.451   0.021
 6401SOL     OW19534   3.949   2.137   0.996
 6401SOL    HW119535   3.984   2.120   1.088
 6401SOL    HW219536   3.861   2.092   0.984
 6402SOL     OW19537   3.743   2.230   0.647
 6402SOL    HW119538   3.661   2.273   0.686
 6402SOL    HW219539   3.715   2.157   0.584
 6403SOL     OW19540   4.293   3.137   1.165
 6403SOL    HW119541   4.200   3.130   1.128
 6403SOL    HW219542   4.304   3.226   1.209
 6404SOL     OW19543   4.574   2.660   1.823
 6404SOL    HW119544   4.570   2.736   1.888
 6404SOL    HW219545   4.596   2.696   1.732
 6405SOL     OW19546   4.409   2.874   0.665
 6405SOL    HW119547   4.478   2.858   0.735
 6405SOL    HW219548   4.336   2.931   0.703
 6406SOL     OW19549   4.410   3.023   1.803
 6406SOL    HW119550   4.470   3.102   1.817
 6406SOL    HW219551   4.324   3.054   1.762
 6407SOL     OW19552   4.059   3.297   1.061
 6407SOL    HW119553   3.981   3.266   1.008
 6407SOL    HW219554   4.117   3.355   1.004
 6408SOL     OW19555   4.162   2.254   1.499
 6408SOL    HW119556   4.244   2.198   1.508
 6408SOL    HW219557   4.081   2.196   1.503
 6409SOL     OW19558   3.955   3.575   0.483
 6409SOL    HW119559   3.989   3.652   0.537
 6409SOL    HW219560   3.999   3.575   0.393
 6410SOL     OW19561   3.954   3.296   0.538
 6410SOL    HW119562   3.928   3.392   0.538
 6410SOL    HW219563   3.883   3.242   0.583
 6411SOL     OW19564   3.964   2.953   0.886
 6411SOL    HW119565   3.978   2.869   0.938
 6411SOL    HW219566   3.909   3.017   0.941
 6412SOL     OW19567   4.344   3.648   1.439
 6412SOL    HW119568   4.252   3.631   1.474
 6412SOL    HW219569   4.372   3.740   1.465
 6413SOL     OW19570   4.330   2.826   0.123
 6413SOL    HW119571   4.337   2.910   0.069
 6413SOL    HW219572   4.376   2.839   0.211
 6414SOL     OW19573   3.846   2.505   0.563
 6414SOL    HW119574   3.801   2.417   0.580
 6414SOL    HW219575   3.845   2.559   0.647
 6415SOL     OW19576   3.751   3.458   0.117
 6415SOL    HW119577   3.732   3.362   0.138
 6415SOL    HW219578   3.718   3.516   0.192
 6416SOL     OW19579   3.837   2.599   1.597
 6416SOL    HW119580   3.925   2.586   1.642
 6416SOL    HW219581   3.824   2.696   1.575
 6417SOL     OW19582   4.337   3.227   0.726
 6417SOL    HW119583   4.288   3.140   0.735
 6417SOL    HW219584   4.314   3.270   0.639
 6418SOL     OW19585   4.533   1.866   0.502
 6418SOL    HW119586   4.573   1.957   0.493
 6418SOL    HW219587   4.433   1.874   0.508
 6419SOL     OW19588   3.921   2.838   1.264
 6419SOL    HW119589   4.010   2.793   1.250
 6419SOL    HW219590   3.848   2.773   1.245
 6420SOL     OW19591   4.041   2.113   1.801
 6420SOL    HW119592   4.112   2.184   1.807
 6420SOL    HW219593   3.953   2.152   1.829
 6421SOL     OW19594   4.322   2.591   0.270
 6421SOL    HW119595   4.346   2.660   0.202
 6421SOL    HW219596   4.244   2.624   0.324
 6422SOL     OW19597   3.800   2.673   0.789
 6422SOL    HW119598   3.899   2.661   0.798
 6422SOL    HW219599   3.776   2.768   0.810
 6423SOL     OW19600   3.854   3.683   1.571
 6423SOL    HW119601   3.844   3.668   1.670
 6423SOL    HW219602   3.768   3.719   1.535
 6424SOL     OW19603   4.274   2.058   0.885
 6424SOL    HW119604   4.269   2.053   0.985
 6424SOL    HW219605   4.276   2.154   0.856
 6425SOL     OW19606   4.075   3.663   0.853
 6425SOL    HW119607   4.125   3.577   0.859
 6425SOL    HW219608   4.140   3.740   0.850
 6426SOL     OW19609   4.045   2.805   0.242
 6426SOL    HW119610   4.127   2.844   0.200
 6426SOL    HW219611   4.018   2.723   0.193
 6427SOL     OW19612   4.185   3.128   1.727
 6427SOL    HW119613   4.135   3.129   1.641
 6427SOL    HW219614   4.122   3.110   1.803
 6428SOL     OW19615   3.926   2.147   1.498
 6428SOL    HW119616   3.846   2.207   1.485
 6428SOL    HW219617   3.916   2.098   1.584
 6429SOL     OW19618   4.188   3.605   0.323
 6429SOL    HW119619   4.221   3.644   0.409
 6429SOL    HW219620   4.264   3.598   0.258
 6430SOL     OW19621   3.973   3.647   1.241
 6430SOL    HW119622   4.030   3.582   1.291
 6430SOL    HW219623   3.957   3.614   1.148
 6431SOL     OW19624   4.106   2.562   0.480
 6431SOL    HW119625   4.151   2.472   0.477
 6431SOL    HW219626   4.012   2.551   0.513
 6432SOL     OW19627   4.338   1.984   0.117
 6432SOL    HW119628   4.436   1.962   0.124
 6432SOL    HW219629   4.307   1.967   0.024
 6433SOL     OW19630   4.527   3.264   0.924
 6433SOL    HW119631   4.617   3.278   0.882
 6433SOL    HW219632   4.456   3.266   0.853
 6434SOL     OW19633   4.263   1.926   0.512
 6434SOL    HW119634   4.182   1.927   0.570
 6434SOL    HW219635   4.266   2.009   0.457
 6435SOL     OW19636   4.021   1.897   0.171
 6435SOL    HW119637   4.070   1.981   0.150
 6435SOL    HW219638   4.083   1.832   0.216
 6436SOL     OW19639   4.800   2.545   1.464
 6436SOL    HW119640   4.720   2.484   1.467
 6436SOL    HW219641   4.881   2.492   1.440
 6437SOL     OW19642   4.183   3.014   0.741
 6437SOL    HW119643   4.112   2.987   0.806
 6437SOL    HW219644   4.157   2.986   0.648
 6438SOL     OW19645   3.802   2.418   1.386
 6438SOL    HW119646   3.894   2.417   1.345
 6438SOL    HW219647   3.796   2.492   1.453
 6439SOL     OW19648   4.285   2.084   1.147
 6439SOL    HW119649   4.323   2.000   1.184
 6439SOL    HW219650   4.197   2.103   1.191
 6440SOL     OW19651   4.212   3.247   0.174
 6440SOL    HW119652   4.125   3.232   0.221
 6440SOL    HW219653   4.195   3.273   0.079
 6441SOL     OW19654   4.251   2.118   0.328
 6441SOL    HW119655   4.278   2.059   0.253
 6441SOL    HW219656   4.251   2.213   0.297
 6442SOL     OW19657   4.134   2.675   1.251
 6442SOL    HW119658   4.220   2.687   1.301
 6442SOL    HW219659   4.092   2.588   1.278
 6443SOL     OW19660   3.788   3.426   1.331
 6443SOL    HW119661   3.742   3.508   1.297
 6443SOL    HW219662   3.886   3.445   1.340
 6444SOL     OW19663   4.091   2.962   0.501
 6444SOL    HW119664   4.084   3.045   0.445
 6444SOL    HW219665   4.095   2.882   0.441
 6445SOL     OW19666   4.290   2.399   0.865
 6445SOL    HW119667   4.302   2.465   0.791
 6445SOL    HW219668   4.336   2.433   0.948
 6446SOL     OW19669   4.078   3.372   1.329
 6446SOL    HW119670   4.057   3.328   1.242
 6446SOL    HW219671   4.175   3.398   1.332
 6447SOL     OW19672   4.126   2.613   1.598
 6447SOL    HW119673   4.194   2.668   1.551
 6447SOL    HW219674   4.166   2.525   1.625
 6448SOL     OW19675   4.228   1.912   1.740
 6448SOL    HW119676   4.186   1.855   1.670
 6448SOL    HW219677   4.162   1.981   1.772
 6449SOL     OW19678   4.297   2.732   1.029
 6449SOL    HW119679   4.341   2.821   1.020
 6449SOL    HW219680   4.234   2.732   1.106
 6450SOL     OW19681   4.031   2.075   1.231
 6450SOL    HW119682   4.008   2.112   1.321
 6450SOL    HW219683   4.001   1.980   1.225
 6451SOL     OW19684   3.761   3.172   1.282
 6451SOL    HW119685   3.814   3.123   1.350
 6451SOL    HW219686   3.783   3.270   1.287
 6452SOL     OW19687   4.031   1.925   0.618
 6452SOL    HW119688   4.020   2.019   0.651
 6452SOL    HW219689   4.026   1.862   0.695
 6453SOL     OW19690   4.074   2.760   1.804
 6453SOL    HW119691   4.150   2.804   1.852
 6453SOL    HW219692   4.109   2.713   1.722
 6454SOL     OW19693   4.043   2.672   0.949
 6454SOL    HW119694   4.136   2.708   0.954
 6454SOL    HW219695   4.037   2.587   1.001
 6455SOL     OW19696   4.063   2.371   1.006
 6455SOL    HW119697   4.011   2.288   0.989
 6455SOL    HW219698   4.140   2.376   0.942
 6456SOL     OW19699   3.732   3.188   0.200
 6456SOL    HW119700   3.639   3.209   0.169
 6456SOL    HW219701   3.742   3.089   0.213
 6457SOL     OW19702   3.812   3.663   0.927
 6457SOL    HW119703   3.770   3.577   0.900
 6457SOL    HW219704   3.906   3.666   0.893
 6458SOL     OW19705   4.228   3.430   0.910
 6458SOL    HW119706   4.294   3.504   0.919
 6458SOL    HW219707   4.272   3.351   0.868
 6459SOL     OW19708   3.764   2.406   1.114
 6459SOL    HW119709   3.849   2.373   1.073
 6459SOL    HW219710   3.777   2.421   1.212
 6460SOL     OW19711   3.913   2.382   1.722
 6460SOL    HW119712   3.972   2.342   1.652
 6460SOL    HW219713   3.855   2.453   1.681
 6461SOL     OW19714   4.539   2.434   0.325
 6461SOL    HW119715   4.546   2.345   0.279
 6461SOL    HW219716   4.445   2.468   0.317
 6462SOL     OW19717   3.976   3.426   1.744
 6462SOL    HW119718   3.946   3.483   1.820
 6462SOL    HW219719   3.969   3.329   1.770
 6463SOL     OW19720   4.197   2.362   0.191
 6463SOL    HW119721   4.258   2.442   0.195
 6463SOL    HW219722   4.102   2.393   0.198
 6464SOL     OW19723   3.883   2.999   1.466
 6464SOL    HW119724   3.905   2.938   1.542
 6464SOL    HW219725   3.893   2.950   1.380
 6465SOL     OW19726   3.807   3.120   1.022
 6465SOL    HW119727   3.802   3.119   1.122
 6465SOL    HW219728   3.724   3.079   0.984
 6466SOL     OW19729   4.412   3.524   1.716
 6466SOL    HW119730   4.356   3.605   1.725
 6466SOL    HW219731   4.464   3.528   1.630
 6467SOL     OW19732   3.854   3.656   1.851
 6467SOL    HW119733   3.813   3.582   1.904
 6467SOL    HW219734   3.918   3.707   1.909
 6468SOL     OW19735   3.987   2.188   0.720
 6468SOL    HW119736   3.908   2.239   0.686
 6468SOL    HW219737   3.978   2.173   0.818
 6469SOL     OW19738   4.096   3.150   1.490
 6469SOL    HW119739   4.083   3.243   1.456
 6469SOL    HW219740   4.012   3.098   1.477
 6470SOL     OW19741   4.314   3.349   0.491
 6470SOL    HW119742   4.356   3.291   0.421
 6470SOL    HW219743   4.270   3.428   0.447
 6471SOL     OW19744   3.979   3.210   0.290
 6471SOL    HW119745   3.883   3.211   0.263
 6471SOL    HW219746   3.991   3.263   0.374
 6472SOL     OW19747   3.829   2.875   1.726
 6472SOL    HW119748   3.752   2.842   1.780
 6472SOL    HW219749   3.914   2.845   1.768
 6473SOL     OW19750   4.396   2.065   1.489
 6473SOL    HW119751   4.486   2.049   1.449
 6473SOL    HW219752   4.404   2.070   1.588
 6474SOL     OW19753   3.796   2.028   0.318
 6474SOL    HW119754   3.779   2.111   0.264
 6474SOL    HW219755   3.886   1.991   0.296
 6475SOL     OW19756   4.337   2.704   1.431
 6475SOL    HW119757   4.393   2.785   1.414
 6475SOL    HW219758   4.396   2.624   1.434
 6476SOL     OW19759   4.440   2.427   1.708
 6476SOL    HW119760   4.459   2.492   1.782
 6476SOL    HW219761   4.500   2.347   1.717
 6477SOL     OW19762   4.114   3.603   1.560
 6477SOL    HW119763   4.023   3.644   1.558
 6477SOL    HW219764   4.107   3.509   1.592
 6478SOL     OW19765   4.318   2.607   0.652
 6478SOL    HW119766   4.368   2.692   0.633
 6478SOL    HW219767   4.230   2.609   0.604
 6479SOL     OW19768   3.945   3.176   1.844
 6479SOL    HW119769   3.880   3.103   1.823
 6479SOL    HW219770   3.949   3.190   1.942
 6480SOL     OW19771   3.803   3.102   0.653
 6480SOL    HW119772   3.802   3.055   0.741
 6480SOL    HW219773   3.885   3.074   0.602
 6481SOL     OW19774   4.396   3.253   1.624
 6481SOL    HW119775   4.318   3.203   1.662
 6481SOL    HW219776   4.393   3.348   1.655
 6482SOL     OW19777   4.152   2.286   0.520
 6482SOL    HW119778   4.182   2.214   0.458
 6482SOL    HW219779   4.113   2.246   0.603
 6483SOL     OW19780   4.041   2.409   1.280
 6483SOL    HW119781   4.079   2.350   1.352
 6483SOL    HW219782   4.081   2.383   1.192
 6484SOL     OW19783   4.536   3.448   0.687
 6484SOL    HW119784   4.568   3.458   0.593
 6484SOL    HW219785   4.457   3.386   0.689
 6485SOL     OW19786   3.763   2.939   0.300
 6485SOL    HW119787   3.862   2.928   0.291
 6485SOL    HW219788   3.723   2.853   0.332
 6486SOL     OW19789   3.954   2.490   1.975
 6486SOL    HW119790   3.861   2.488   2.012
 6486SOL    HW219791   3.955   2.451   1.883
 6487SOL     OW19792   3.949   2.137   2.858
 6487SOL    HW119793   3.984   2.120   2.950
 6487SOL    HW219794   3.861   2.092   2.846
 6488SOL     OW19795   3.743   2.230   2.509
 6488SOL    HW119796   3.661   2.273   2.548
 6488SOL    HW219797   3.715   2.157   2.446
 6489SOL     OW19798   4.293   3.137   3.027
 6489SOL    HW119799   4.200   3.130   2.990
 6489SOL    HW219800   4.304   3.226   3.071
 6490SOL     OW19801   4.574   2.660   3.685
 6490SOL    HW119802   4.570   2.736   3.750
 6490SOL    HW219803   4.596   2.696   3.594
 6491SOL     OW19804   4.409   2.874   2.527
 6491SOL    HW119805   4.478   2.858   2.597
 6491SOL    HW219806   4.336   2.931   2.565
 6492SOL     OW19807   4.410   3.023   3.665
 6492SOL    HW119808   4.470   3.102   3.679
 6492SOL    HW219809   4.324   3.054   3.624
 6493SOL     OW19810   4.059   3.297   2.923
 6493SOL    HW119811   3.981   3.266   2.870
 6493SOL    HW219812   4.117   3.355   2.866
 6494SOL     OW19813   4.162   2.254   3.361
 6494SOL    HW119814   4.244   2.198   3.370
 6494SOL    HW219815   4.081   2.196   3.365
 6495SOL     OW19816   3.955   3.575   2.345
 6495SOL    HW119817   3.989   3.652   2.399
 6495SOL    HW219818   3.999   3.575   2.255
 6496SOL     OW19819   3.954   3.296   2.400
 6496SOL    HW119820   3.928   3.392   2.400
 6496SOL    HW219821   3.883   3.242   2.445
 6497SOL     OW19822   3.964   2.953   2.748
 6497SOL    HW119823   3.978   2.869   2.800
 6497SOL    HW219824   3.909   3.017   2.803
 6498SOL     OW19825   4.344   3.648   3.301
 6498SOL    HW119826   4.252   3.631   3.336
 6498SOL    HW219827   4.372   3.740   3.327
 6499SOL     OW19828   4.330   2.826   1.985
 6499SOL    HW119829   4.337   2.910   1.931
 6499SOL    HW219830   4.376   2.839   2.073
 6500SOL     OW19831   3.846   2.505   2.425
 6500SOL    HW119832   3.801   2.417   2.442
 6500SOL    HW219833   3.845   2.559   2.509
 6501SOL     OW19834   3.751   3.458   1.979
 6501SOL    HW119835   3.732   3.362   2.000
 6501SOL    HW219836   3.718   3.516   2.054
 6502SOL     OW19837   3.837   2.599   3.459
 6502SOL    HW119838   3.925   2.586   3.504
 6502SOL    HW219839   3.824   2.696   3.437
 6503SOL     OW19840   4.337   3.227   2.588
 6503SOL    HW119841   4.288   3.140   2.597
 6503SOL    HW219842   4.314   3.270   2.501
 6504SOL     OW19843   4.533   1.866   2.364
 6504SOL    HW119844   4.573   1.957   2.355
 6504SOL    HW219845   4.433   1.874   2.370
 6505SOL     OW19846   3.921   2.838   3.126
 6505SOL    HW119847   4.010   2.793   3.112
 6505SOL    HW219848   3.848   2.773   3.107
 6506SOL     OW19849   4.041   2.113   3.663
 6506SOL    HW119850   4.112   2.184   3.669
 6506SOL    HW219851   3.953   2.152   3.691
 6507SOL     OW19852   4.322   2.591   2.132
 6507SOL    HW119853   4.346   2.660   2.064
 6507SOL    HW219854   4.244   2.624   2.186
 6508SOL     OW19855   3.800   2.673   2.651
 6508SOL    HW119856   3.899   2.661   2.660
 6508SOL    HW219857   3.776   2.768   2.672
 6509SOL     OW19858   3.854   3.683   3.433
 6509SOL    HW119859   3.844   3.668   3.532
 6509SOL    HW219860   3.768   3.719   3.397
 6510SOL     OW19861   4.274   2.058   2.747
 6510SOL    HW119862   4.269   2.053   2.847
 6510SOL    HW219863   4.276   2.154   2.718
 6511SOL     OW19864   4.075   3.663   2.715
 6511SOL    HW119865   4.125   3.577   2.721
 6511SOL    HW219866   4.140   3.740   2.712
 6512SOL     OW19867   4.045   2.805   2.104
 6512SOL    HW119868   4.127   2.844   2.062
 6512SOL    HW219869   4.018   2.723   2.055
 6513SOL     OW19870   4.185   3.128   3.589
 6513SOL    HW119871   4.135   3.129   3.503
 6513SOL    HW219872   4.122   3.110   3.665
 6514SOL     OW19873   3.926   2.147   3.360
 6514SOL    HW119874   3.846   2.207   3.347
 6514SOL    HW219875   3.916   2.098   3.446
 6515SOL     OW19876   4.188   3.605   2.185
 6515SOL    HW119877   4.221   3.644   2.271
 6515SOL    HW219878   4.264   3.598   2.120
 6516SOL     OW19879   3.973   3.647   3.103
 6516SOL    HW119880   4.030   3.582   3.153
 6516SOL    HW219881   3.957   3.614   3.010
 6517SOL     OW19882   4.106   2.562   2.342
 6517SOL    HW119883   4.151   2.472   2.339
 6517SOL    HW219884   4.012   2.551   2.375
 6518SOL     OW19885   4.338   1.984   1.979
 6518SOL    HW119886   4.436   1.962   1.986
 6518SOL    HW219887   4.307   1.967   1.886
 6519SOL     OW19888   4.527   3.264   2.786
 6519SOL    HW119889   4.617   3.278   2.744
 6519SOL    HW219890   4.456   3.266   2.715
 6520SOL     OW19891   4.263   1.926   2.374
 6520SOL    HW119892   4.182   1.927   2.432
 6520SOL    HW219893   4.266   2.009   2.319
 6521SOL     OW19894   4.021   1.897   2.033
 6521SOL    HW119895   4.070   1.981   2.012
 6521SOL    HW219896   4.083   1.832   2.078
 6522SOL     OW19897   4.800   2.545   3.326
 6522SOL    HW119898   4.720   2.484   3.329
 6522SOL    HW219899   4.881   2.492   3.302
 6523SOL     OW19900   4.183   3.014   2.603
 6523SOL    HW119901   4.112   2.987   2.668
 6523SOL    HW219902   4.157   2.986   2.510
 6524SOL     OW19903   3.802   2.418   3.248
 6524SOL    HW119904   3.894   2.417   3.207
 6524SOL    HW219905   3.796   2.492   3.315
 6525SOL     OW19906   4.285   2.084   3.009
 6525SOL    HW119907   4.323   2.000   3.046
 6525SOL    HW219908   4.197   2.103   3.053
 6526SOL     OW19909   4.212   3.247   2.036
 6526SOL    HW119910   4.125   3.232   2.083
 6526SOL    HW219911   4.195   3.273   1.941
 6527SOL     OW19912   4.251   2.118   2.190
 6527SOL    HW119913   4.278   2.059   2.115
 6527SOL    HW219914   4.251   2.213   2.159
 6528SOL     OW19915   4.134   2.675   3.113
 6528SOL    HW119916   4.220   2.687   3.163
 6528SOL    HW219917   4.092   2.588   3.140
 6529SOL     OW19918   3.788   3.426   3.193
 6529SOL    HW119919   3.742   3.508   3.159
 6529SOL    HW219920   3.886   3.445   3.202
 6530SOL     OW19921   4.091   2.962   2.363
 6530SOL    HW119922   4.084   3.045   2.307
 6530SOL    HW219923   4.095   2.882   2.303
 6531SOL     OW19924   4.290   2.399   2.727
 6531SOL    HW119925   4.302   2.465   2.653
 6531SOL    HW219926   4.336   2.433   2.810
 6532SOL     OW19927   4.078   3.372   3.191
 6532SOL    HW119928   4.057   3.328   3.104
 6532SOL    HW219929   4.175   3.398   3.194
 6533SOL     OW19930   4.126   2.613   3.460
 6533SOL    HW119931   4.194   2.668   3.413
 6533SOL    HW219932   4.166   2.525   3.487
 6534SOL     OW19933   4.228   1.912   3.602
 6534SOL    HW119934   4.186   1.855   3.532
 6534SOL    HW219935   4.162   1.981   3.634
 6535SOL     OW19936   4.297   2.732   2.891
 6535SOL    HW119937   4.341   2.821   2.882
 6535SOL    HW219938   4.234   2.732   2.968
 6536SOL     OW19939   4.031   2.075   3.093
 6536SOL    HW119940   4.008   2.112   3.183
 6536SOL    HW219941   4.001   1.980   3.087
 6537SOL     OW19942   3.761   3.172   3.144
 6537SOL    HW119943   3.814   3.123   3.212
 6537SOL    HW219944   3.783   3.270   3.149
 6538SOL     OW19945   4.031   1.925   2.480
 6538SOL    HW119946   4.020   2.019   2.513
 6538SOL    HW219947   4.026   1.862   2.557
 6539SOL     OW19948   4.074   2.760   3.666
 6539SOL    HW119949   4.150   2.804   3.714
 6539SOL    HW219950   4.109   2.713   3.584
 6540SOL     OW19951   4.043   2.672   2.811
 6540SOL    HW119952   4.136   2.708   2.816
 6540SOL    HW219953   4.037   2.587   2.863
 6541SOL     OW19954   4.063   2.371   2.868
 6541SOL    HW119955   4.011   2.288   2.851
 6541SOL    HW219956   4.140   2.376   2.804
 6542SOL     OW19957   3.732   3.188   2.062
 6542SOL    HW119958   3.639   3.209   2.031
 6542SOL    HW219959   3.742   3.089   2.075
 6543SOL     OW19960   3.812   3.663   2.789
 6543SOL    HW119961   3.770   3.577   2.762
 6543SOL    HW219962   3.906   3.666   2.755
 6544SOL     OW19963   4.228   3.430   2.772
 6544SOL    HW119964   4.294   3.504   2.781
 6544SOL    HW219965   4.272   3.351   2.730
 6545SOL     OW19966   3.764   2.406   2.976
 6545SOL    HW119967   3.849   2.373   2.935
 6545SOL    HW219968   3.777   2.421   3.074
 6546SOL     OW19969   3.913   2.382   3.584
 6546SOL    HW119970   3.972   2.342   3.514
 6546SOL    HW219971   3.855   2.453   3.543
 6547SOL     OW19972   4.539   2.434   2.187
 6547SOL    HW119973   4.546   2.345   2.141
 6547SOL    HW219974   4.445   2.468   2.179
 6548SOL     OW19975   3.976   3.426   3.606
 6548SOL    HW119976   3.946   3.483   3.682
 6548SOL    HW219977   3.969   3.329   3.632
 6549SOL     OW19978   4.197   2.362   2.053
 6549SOL    HW119979   4.258   2.442   2.057
 6549SOL    HW219980   4.102   2.393   2.060
 6550SOL     OW19981   3.883   2.999   3.328
 6550SOL    HW119982   3.905   2.938   3.404
 6550SOL    HW219983   3.893   2.950   3.242
 6551SOL     OW19984   3.807   3.120   2.884
 6551SOL    HW119985   3.802   3.119   2.984
 6551SOL    HW219986   3.724   3.079   2.846
 6552SOL     OW19987   4.412   3.524   3.578
 6552SOL    HW119988   4.356   3.605   3.587
 6552SOL    HW219989   4.464   3.528   3.492
 6553SOL     OW19990   3.854   3.656   3.713
 6553SOL    HW119991   3.813   3.582   3.766
 6553SOL    HW219992   3.918   3.707   3.771
 6554SOL     OW19993   3.987   2.188   2.582
 6554SOL    HW119994   3.908   2.239   2.548
 6554SOL    HW219995   3.978   2.173   2.680
 6555SOL     OW19996   4.096   3.150   3.352
 6555SOL    HW119997   4.083   3.243   3.318
 6555SOL    HW219998   4.012   3.098   3.339
 6556SOL     OW19999   4.314   3.349   2.353
 6556SOL    HW120000   4.356   3.291   2.283
 6556SOL    HW220001   4.270   3.428   2.309
 6557SOL     OW20002   3.979   3.210   2.152
 6557SOL    HW120003   3.883   3.211   2.125
 6557SOL    HW220004   3.991   3.263   2.236
 6558SOL     OW20005   3.829   2.875   3.588
 6558SOL    HW120006   3.752   2.842   3.642
 6558SOL    HW220007   3.914   2.845   3.630
 6559SOL     OW20008   4.396   2.065   3.351
 6559SOL    HW120009   4.486   2.049   3.311
 6559SOL    HW220010   4.404   2.070   3.450
 6560SOL     OW20011   3.799   2.207   1.895
 6560SOL    HW120012   3.707   2.179   1.866
 6560SOL    HW220013   3.830   2.284   1.839
 6561SOL     OW20014   3.796   2.028   2.180
 6561SOL    HW120015   3.779   2.111   2.126
 6561SOL    HW220016   3.886   1.991   2.158
 6562SOL     OW20017   4.337   2.704   3.293
 6562SOL    HW120018   4.393   2.785   3.276
 6562SOL    HW220019   4.396   2.624   3.296
 6563SOL     OW20020   4.440   2.427   3.570
 6563SOL    HW120021   4.459   2.492   3.644
 6563SOL    HW220022   4.500   2.347   3.579
 6564SOL     OW20023   4.114   3.603   3.422
 6564SOL    HW120024   4.023   3.644   3.420
 6564SOL    HW220025   4.107   3.509   3.454
 6565SOL     OW20026   4.318   2.607   2.514
 6565SOL    HW120027   4.368   2.692   2.495
 6565SOL    HW220028   4.230   2.609   2.466
 6566SOL     OW20029   3.945   3.176   3.706
 6566SOL    HW120030   3.880   3.103   3.685
 6566SOL    HW220031   3.949   3.190   3.804
 6567SOL     OW20032   3.803   3.102   2.515
 6567SOL    HW120033   3.802   3.055   2.603
 6567SOL    HW220034   3.885   3.074   2.464
 6568SOL     OW20035   4.396   3.253   3.486
 6568SOL    HW120036   4.318   3.203   3.524
 6568SOL    HW220037   4.393   3.348   3.517
 6569SOL     OW20038   4.152   2.286   2.382
 6569SOL    HW120039   4.182   2.214   2.320
 6569SOL    HW220040   4.113   2.246   2.465
 6570SOL     OW20041   4.041   2.409   3.142
 6570SOL    HW120042   4.079   2.350   3.214
 6570SOL    HW220043   4.081   2.383   3.054
 6571SOL     OW20044   4.536   3.448   2.549
 6571SOL    HW120045   4.568   3.458   2.455
 6571SOL    HW220046   4.457   3.386   2.551
 6572SOL     OW20047   3.763   2.939   2.162
 6572SOL    HW120048   3.862   2.928   2.153
 6572SOL    HW220049   3.723   2.853   2.194
 6573SOL     OW20050   3.954   2.490   3.837
 6573SOL    HW120051   3.861   2.488   3.874
 6573SOL    HW220052   3.955   2.451   3.745
 6574SOL     OW20053   3.949   2.137   4.720
 6574SOL    HW120054   3.984   2.120   4.812
 6574SOL    HW220055   3.861   2.092   4.708
 6575SOL     OW20056   3.743   2.230   4.371
 6575SOL    HW120057   3.661   2.273   4.410
 6575SOL    HW220058   3.715   2.157   4.308
 6576SOL     OW20059   4.293   3.137   4.889
 6576SOL    HW120060   4.200   3.130   4.852
 6576SOL    HW220061   4.304   3.226   4.933
 6577SOL     OW20062   4.574   2.660   5.547
 6577SOL    HW120063   4.570   2.736   5.612
 6577SOL    HW220064   4.596   2.696   5.456
 6578SOL     OW20065   4.409   2.874   4.389
 6578SOL    HW120066   4.478   2.858   4.459
 6578SOL    HW220067   4.336   2.931   4.427
 6579SOL     OW20068   4.410   3.023   5.527
 6579SOL    HW120069   4.470   3.102   5.541
 6579SOL    HW220070   4.324   3.054   5.486
 6580SOL     OW20071   4.059   3.297   4.785
 6580SOL    HW120072   3.981   3.266   4.732
 6580SOL    HW220073   4.117   3.355   4.728
 6581SOL     OW20074   4.162   2.254   5.223
 6581SOL    HW120075   4.244   2.198   5.232
 6581SOL    HW220076   4.081   2.196   5.227
 6582SOL     OW20077   3.955   3.575   4.207
 6582SOL    HW120078   3.989   3.652   4.261
 6582SOL    HW220079   3.999   3.575   4.117
 6583SOL     OW20080   3.954   3.296   4.262
 6583SOL    HW120081   3.928   3.392   4.262
 6583SOL    HW220082   3.883   3.242   4.307
 6584SOL     OW20083   3.964   2.953   4.610
 6584SOL    HW120084   3.978   2.869   4.662
 6584SOL    HW220085   3.909   3.017   4.665
 6585SOL     OW20086   4.344   3.648   5.163
 6585SOL    HW120087   4.252   3.631   5.198
 6585SOL    HW220088   4.372   3.740   5.189
 6586SOL     OW20089   4.330   2.826   3.847
 6586SOL    HW120090   4.337   2.910   3.793
 6586SOL    HW220091   4.376   2.839   3.935
 6587SOL     OW20092   3.846   2.505   4.287
 6587SOL    HW120093   3.801   2.417   4.304
 6587SOL    HW220094   3.845   2.559   4.371
 6588SOL     OW20095   3.751   3.458   3.841
 6588SOL    HW120096   3.732   3.362   3.862
 6588SOL    HW220097   3.718   3.516   3.916
 6589SOL     OW20098   3.837   2.599   5.321
 6589SOL    HW120099   3.925   2.586   5.366
 6589SOL    HW220100   3.824   2.696   5.299
 6590SOL     OW20101   4.337   3.227   4.450
 6590SOL    HW120102   4.288   3.140   4.459
 6590SOL    HW220103   4.314   3.270   4.363
 6591SOL     OW20104   4.533   1.866   4.226
 6591SOL    HW120105   4.573   1.957   4.217
 6591SOL    HW220106   4.433   1.874   4.232
 6592SOL     OW20107   3.921   2.838   4.988
 6592SOL    HW120108   4.010   2.793   4.974
 6592SOL    HW220109   3.848   2.773   4.969
 6593SOL     OW20110   4.041   2.113   5.525
 6593SOL    HW120111   4.112   2.184   5.531
 6593SOL    HW220112   3.953   2.152   5.553
 6594SOL     OW20113   4.322   2.591   3.994
 6594SOL    HW120114   4.346   2.660   3.926
 6594SOL    HW220115   4.244   2.624   4.048
 6595SOL     OW20116   3.800   2.673   4.513
 6595SOL    HW120117   3.899   2.661   4.522
 6595SOL    HW220118   3.776   2.768   4.534
 6596SOL     OW20119   3.854   3.683   5.295
 6596SOL    HW120120   3.844   3.668   5.394
 6596SOL    HW220121   3.768   3.719   5.259
 6597SOL     OW20122   4.274   2.058   4.609
 6597SOL    HW120123   4.269   2.053   4.709
 6597SOL    HW220124   4.276   2.154   4.580
 6598SOL     OW20125   4.075   3.663   4.577
 6598SOL    HW120126   4.125   3.577   4.583
 6598SOL    HW220127   4.140   3.740   4.574
 6599SOL     OW20128   4.045   2.805   3.966
 6599SOL    HW120129   4.127   2.844   3.924
 6599SOL    HW220130   4.018   2.723   3.917
 6600SOL     OW20131   4.185   3.128   5.451
 6600SOL    HW120132   4.135   3.129   5.365
 6600SOL    HW220133   4.122   3.110   5.527
 6601SOL     OW20134   3.926   2.147   5.222
 6601SOL    HW120135   3.846   2.207   5.209
 6601SOL    HW220136   3.916   2.098   5.308
 6602SOL     OW20137   4.188   3.605   4.047
 6602SOL    HW120138   4.221   3.644   4.133
 6602SOL    HW220139   4.264   3.598   3.982
 6603SOL     OW20140   3.973   3.647   4.965
 6603SOL    HW120141   4.030   3.582   5.015
 6603SOL    HW220142   3.957   3.614   4.872
 6604SOL     OW20143   4.106   2.562   4.204
 6604SOL    HW120144   4.151   2.472   4.201
 6604SOL    HW220145   4.012   2.551   4.237
 6605SOL     OW20146   4.338   1.984   3.841
 6605SOL    HW120147   4.436   1.962   3.848
 6605SOL    HW220148   4.307   1.967   3.748
 6606SOL     OW20149   4.527   3.264   4.648
 6606SOL    HW120150   4.617   3.278   4.606
 6606SOL    HW220151   4.456   3.266   4.577
 6607SOL     OW20152   4.263   1.926   4.236
 6607SOL    HW120153   4.182   1.927   4.294
 6607SOL    HW220154   4.266   2.009   4.181
 6608SOL     OW20155   4.021   1.897   3.895
 6608SOL    HW120156   4.070   1.981   3.874
 6608SOL    HW220157   4.083   1.832   3.940
 6609SOL     OW20158   4.800   2.545   5.188
 6609SOL    HW120159   4.720   2.484   5.191
 6609SOL    HW220160   4.881   2.492   5.164
 6610SOL     OW20161   4.183   3.014   4.465
 6610SOL    HW120162   4.112   2.987   4.530
 6610SOL    HW220163   4.157   2.986   4.372
 6611SOL     OW20164   3.802   2.418   5.110
 6611SOL    HW120165   3.894   2.417   5.069
 6611SOL    HW220166   3.796   2.492   5.177
 6612SOL     OW20167   4.285   2.084   4.871
 6612SOL    HW120168   4.323   2.000   4.908
 6612SOL    HW220169   4.197   2.103   4.915
 6613SOL     OW20170   4.212   3.247   3.898
 6613SOL    HW120171   4.125   3.232   3.945
 6613SOL    HW220172   4.195   3.273   3.803
 6614SOL     OW20173   4.251   2.118   4.052
 6614SOL    HW120174   4.278   2.059   3.977
 6614SOL    HW220175   4.251   2.213   4.021
 6615SOL     OW20176   4.134   2.675   4.975
 6615SOL    HW120177   4.220   2.687   5.025
 6615SOL    HW220178   4.092   2.588   5.002
 6616SOL     OW20179   3.788   3.426   5.055
 6616SOL    HW120180   3.742   3.508   5.021
 6616SOL    HW220181   3.886   3.445   5.064
 6617SOL     OW20182   4.091   2.962   4.225
 6617SOL    HW120183   4.084   3.045   4.169
 6617SOL    HW220184   4.095   2.882   4.165
 6618SOL     OW20185   4.290   2.399   4.589
 6618SOL    HW120186   4.302   2.465   4.515
 6618SOL    HW220187   4.336   2.433   4.672
 6619SOL     OW20188   4.078   3.372   5.053
 6619SOL    HW120189   4.057   3.328   4.966
 6619SOL    HW220190   4.175   3.398   5.056
 6620SOL     OW20191   4.126   2.613   5.322
 6620SOL    HW120192   4.194   2.668   5.275
 6620SOL    HW220193   4.166   2.525   5.349
 6621SOL     OW20194   4.228   1.912   5.464
 6621SOL    HW120195   4.186   1.855   5.394
 6621SOL    HW220196   4.162   1.981   5.496
 6622SOL     OW20197   4.297   2.732   4.753
 6622SOL    HW120198   4.341   2.821   4.744
 6622SOL    HW220199   4.234   2.732   4.830
 6623SOL     OW20200   4.031   2.075   4.955
 6623SOL    HW120201   4.008   2.112   5.045
 6623SOL    HW220202   4.001   1.980   4.949
 6624SOL     OW20203   3.761   3.172   5.006
 6624SOL    HW120204   3.814   3.123   5.074
 6624SOL    HW220205   3.783   3.270   5.011
 6625SOL     OW20206   4.031   1.925   4.342
 6625SOL    HW120207   4.020   2.019   4.375
 6625SOL    HW220208   4.026   1.862   4.419
 6626SOL     OW20209   4.074   2.760   5.528
 6626SOL    HW120210   4.150   2.804   5.576
 6626SOL    HW220211   4.109   2.713   5.446
 6627SOL     OW20212   4.043   2.672   4.673
 6627SOL    HW120213   4.136   2.708   4.678
 6627SOL    HW220214   4.037   2.587   4.725
 6628SOL     OW20215   4.063   2.371   4.730
 6628SOL    HW120216   4.011   2.288   4.713
 6628SOL    HW220217   4.140   2.376   4.666
 6629SOL     OW20218   3.732   3.188   3.924
 6629SOL    HW120219   3.639   3.209   3.893
 6629SOL    HW220220   3.742   3.089   3.937
 6630SOL     OW20221   3.812   3.663   4.651
 6630SOL    HW120222   3.770   3.577   4.624
 6630SOL    HW220223   3.906   3.666   4.617
 6631SOL     OW20224   4.228   3.430   4.634
 6631SOL    HW120225   4.294   3.504   4.643
 6631SOL    HW220226   4.272   3.351   4.592
 6632SOL     OW20227   3.764   2.406   4.838
 6632SOL    HW120228   3.849   2.373   4.797
 6632SOL    HW220229   3.777   2.421   4.936
 6633SOL     OW20230   3.913   2.382   5.446
 6633SOL    HW120231   3.972   2.342   5.376
 6633SOL    HW220232   3.855   2.453   5.405
 6634SOL     OW20233   4.539   2.434   4.049
 6634SOL    HW120234   4.546   2.345   4.003
 6634SOL    HW220235   4.445   2.468   4.041
 6635SOL     OW20236   3.976   3.426   5.468
 6635SOL    HW120237   3.946   3.483   5.544
 6635SOL    HW220238   3.969   3.329   5.494
 6636SOL     OW20239   4.197   2.362   3.915
 6636SOL    HW120240   4.258   2.442   3.919
 6636SOL    HW220241   4.102   2.393   3.922
 6637SOL     OW20242   3.883   2.999   5.190
 6637SOL    HW120243   3.905   2.938   5.266
 6637SOL    HW220244   3.893   2.950   5.104
 6638SOL     OW20245   3.807   3.120   4.746
 6638SOL    HW120246   3.802   3.119   4.846
 6638SOL    HW220247   3.724   3.079   4.708
 6639SOL     OW20248   4.412   3.524   5.440
 6639SOL    HW120249   4.356   3.605   5.449
 6639SOL    HW220250   4.464   3.528   5.354
 6640SOL     OW20251   3.854   3.656   5.575
 6640SOL    HW120252   3.813   3.582   5.628
 6640SOL    HW220253   3.918   3.707   5.633
 6641SOL     OW20254   3.987   2.188   4.444
 6641SOL    HW120255   3.908   2.239   4.410
 6641SOL    HW220256   3.978   2.173   4.542
 6642SOL     OW20257   4.096   3.150   5.214
 6642SOL    HW120258   4.083   3.243   5.180
 6642SOL    HW220259   4.012   3.098   5.201
 6643SOL     OW20260   4.314   3.349   4.215
 6643SOL    HW120261   4.356   3.291   4.145
 6643SOL    HW220262   4.270   3.428   4.171
 6644SOL     OW20263   3.979   3.210   4.014
 6644SOL    HW120264   3.883   3.211   3.987
 6644SOL    HW220265   3.991   3.263   4.098
 6645SOL     OW20266   3.829   2.875   5.450
 6645SOL    HW120267   3.752   2.842   5.504
 6645SOL    HW220268   3.914   2.845   5.492
 6646SOL     OW20269   4.396   2.065   5.213
 6646SOL    HW120270   4.486   2.049   5.173
 6646SOL    HW220271   4.404   2.070   5.312
 6647SOL     OW20272   3.799   2.207   3.757
 6647SOL    HW120273   3.707   2.179   3.728
 6647SOL    HW220274   3.830   2.284   3.701
 6648SOL     OW20275   3.796   2.028   4.042
 6648SOL    HW120276   3.779   2.111   3.988
 6648SOL    HW220277   3.886   1.991   4.020
 6649SOL     OW20278   4.337   2.704   5.155
 6649SOL    HW120279   4.393   2.785   5.138
 6649SOL    HW220280   4.396   2.624   5.158
 6650SOL     OW20281   4.440   2.427   5.432
 6650SOL    HW120282   4.459   2.492   5.506
 6650SOL    HW220283   4.500   2.347   5.441
 6651SOL     OW20284   4.114   3.603   5.284
 6651SOL    HW120285   4.023   3.644   5.282
 6651SOL    HW220286   4.107   3.509   5.316
 6652SOL     OW20287   4.318   2.607   4.376
 6652SOL    HW120288   4.368   2.692   4.357
 6652SOL    HW220289   4.230   2.609   4.328
 6653SOL     OW20290   3.945   3.176   5.568
 6653SOL    HW120291   3.880   3.103   5.547
 6653SOL    HW220292   3.949   3.190   5.666
 6654SOL     OW20293   3.803   3.102   4.377
 6654SOL    HW120294   3.802   3.055   4.465
 6654SOL    HW220295   3.885   3.074   4.326
 6655SOL     OW20296   4.396   3.253   5.348
 6655SOL    HW120297   4.318   3.203   5.386
 6655SOL    HW220298   4.393   3.348   5.379
 6656SOL     OW20299   4.152   2.286   4.244
 6656SOL    HW120300   4.182   2.214   4.182
 6656SOL    HW220301   4.113   2.246   4.327
 6657SOL     OW20302   4.041   2.409   5.004
 6657SOL    HW120303   4.079   2.350   5.076
 6657SOL    HW220304   4.081   2.383   4.916
 6658SOL     OW20305   4.536   3.448   4.411
 6658SOL    HW120306   4.568   3.458   4.317
 6658SOL    HW220307   4.457   3.386   4.413
 6659SOL     OW20308   3.763   2.939   4.024
 6659SOL    HW120309   3.862   2.928   4.015
 6659SOL    HW220310   3.723   2.853   4.056
 6660SOL     OW20311   3.954   2.490   5.699
 6660SOL    HW120312   3.861   2.488   5.736
 6660SOL    HW220313   3.955   2.451   5.607
 6661SOL     OW20314   3.949   2.137   6.582
 6661SOL    HW120315   3.984   2.120   6.674
 6661SOL    HW220316   3.861   2.092   6.570
 6662SOL     OW20317   3.743   2.230   6.233
 6662SOL    HW120318   3.661   2.273   6.272
 6662SOL    HW220319   3.715   2.157   6.170
 6663SOL     OW20320   4.293   3.137   6.751
 6663SOL    HW120321   4.200   3.130   6.714
 6663SOL    HW220322   4.304   3.226   6.795
 6664SOL     OW20323   4.574   2.660   7.409
 6664SOL    HW120324   4.570   2.736   7.474
 6664SOL    HW220325   4.596   2.696   7.318
 6665SOL     OW20326   4.409   2.874   6.251
 6665SOL    HW120327   4.478   2.858   6.321
 6665SOL    HW220328   4.336   2.931   6.289
 6666SOL     OW20329   4.410   3.023   7.389
 6666SOL    HW120330   4.470   3.102   7.403
 6666SOL    HW220331   4.324   3.054   7.348
 6667SOL     OW20332   4.059   3.297   6.647
 6667SOL    HW120333   3.981   3.266   6.594
 6667SOL    HW220334   4.117   3.355   6.590
 6668SOL     OW20335   4.162   2.254   7.085
 6668SOL    HW120336   4.244   2.198   7.094
 6668SOL    HW220337   4.081   2.196   7.089
 6669SOL     OW20338   3.955   3.575   6.069
 6669SOL    HW120339   3.989   3.652   6.123
 6669SOL    HW220340   3.999   3.575   5.979
 6670SOL     OW20341   3.954   3.296   6.124
 6670SOL    HW120342   3.928   3.392   6.124
 6670SOL    HW220343   3.883   3.242   6.169
 6671SOL     OW20344   3.964   2.953   6.472
 6671SOL    HW120345   3.978   2.869   6.524
 6671SOL    HW220346   3.909   3.017   6.527
 6672SOL     OW20347   4.344   3.648   7.025
 6672SOL    HW120348   4.252   3.631   7.060
 6672SOL    HW220349   4.372   3.740   7.051
 6673SOL     OW20350   4.330   2.826   5.709
 6673SOL    HW120351   4.337   2.910   5.655
 6673SOL    HW220352   4.376   2.839   5.797
 6674SOL     OW20353   3.846   2.505   6.149
 6674SOL    HW120354   3.801   2.417   6.166
 6674SOL    HW220355   3.845   2.559   6.233
 6675SOL     OW20356   3.751   3.458   5.703
 6675SOL    HW120357   3.732   3.362   5.724
 6675SOL    HW220358   3.718   3.516   5.778
 6676SOL     OW20359   3.837   2.599   7.183
 6676SOL    HW120360   3.925   2.586   7.228
 6676SOL    HW220361   3.824   2.696   7.161
 6677SOL     OW20362   4.337   3.227   6.312
 6677SOL    HW120363   4.288   3.140   6.321
 6677SOL    HW220364   4.314   3.270   6.225
 6678SOL     OW20365   4.533   1.866   6.088
 6678SOL    HW120366   4.573   1.957   6.079
 6678SOL    HW220367   4.433   1.874   6.094
 6679SOL     OW20368   3.921   2.838   6.850
 6679SOL    HW120369   4.010   2.793   6.836
 6679SOL    HW220370   3.848   2.773   6.831
 6680SOL     OW20371   4.041   2.113   7.387
 6680SOL    HW120372   4.112   2.184   7.393
 6680SOL    HW220373   3.953   2.152   7.415
 6681SOL     OW20374   4.322   2.591   5.856
 6681SOL    HW120375   4.346   2.660   5.788
 6681SOL    HW220376   4.244   2.624   5.910
 6682SOL     OW20377   3.800   2.673   6.375
 6682SOL    HW120378   3.899   2.661   6.384
 6682SOL    HW220379   3.776   2.768   6.396
 6683SOL     OW20380   3.854   3.683   7.157
 6683SOL    HW120381   3.844   3.668   7.256
 6683SOL    HW220382   3.768   3.719   7.121
 6684SOL     OW20383   4.274   2.058   6.471
 6684SOL    HW120384   4.269   2.053   6.571
 6684SOL    HW220385   4.276   2.154   6.442
 6685SOL     OW20386   4.075   3.663   6.439
 6685SOL    HW120387   4.125   3.577   6.445
 6685SOL    HW220388   4.140   3.740   6.436
 6686SOL     OW20389   4.045   2.805   5.828
 6686SOL    HW120390   4.127   2.844   5.786
 6686SOL    HW220391   4.018   2.723   5.779
 6687SOL     OW20392   4.185   3.128   7.313
 6687SOL    HW120393   4.135   3.129   7.227
 6687SOL    HW220394   4.122   3.110   7.389
 6688SOL     OW20395   3.926   2.147   7.084
 6688SOL    HW120396   3.846   2.207   7.071
 6688SOL    HW220397   3.916   2.098   7.170
 6689SOL     OW20398   4.188   3.605   5.909
 6689SOL    HW120399   4.221   3.644   5.995
 6689SOL    HW220400   4.264   3.598   5.844
 6690SOL     OW20401   3.973   3.647   6.827
 6690SOL    HW120402   4.030   3.582   6.877
 6690SOL    HW220403   3.957   3.614   6.734
 6691SOL     OW20404   4.106   2.562   6.066
 6691SOL    HW120405   4.151   2.472   6.063
 6691SOL    HW220406   4.012   2.551   6.099
 6692SOL     OW20407   4.338   1.984   5.703
 6692SOL    HW120408   4.436   1.962   5.710
 6692SOL    HW220409   4.307   1.967   5.610
 6693SOL     OW20410   4.527   3.264   6.510
 6693SOL    HW120411   4.617   3.278   6.468
 6693SOL    HW220412   4.456   3.266   6.439
 6694SOL     OW20413   4.263   1.926   6.098
 6694SOL    HW120414   4.182   1.927   6.156
 6694SOL    HW220415   4.266   2.009   6.043
 6695SOL     OW20416   4.021   1.897   5.757
 6695SOL    HW120417   4.070   1.981   5.736
 6695SOL    HW220418   4.083   1.832   5.802
 6696SOL     OW20419   4.800   2.545   7.050
 6696SOL    HW120420   4.720   2.484   7.053
 6696SOL    HW220421   4.881   2.492   7.026
 6697SOL     OW20422   4.183   3.014   6.327
 6697SOL    HW120423   4.112   2.987   6.392
 6697SOL    HW220424   4.157   2.986   6.234
 6698SOL     OW20425   3.802   2.418   6.972
 6698SOL    HW120426   3.894   2.417   6.931
 6698SOL    HW220427   3.796   2.492   7.039
 6699SOL     OW20428   4.285   2.084   6.733
 6699SOL    HW120429   4.323   2.000   6.770
 6699SOL    HW220430   4.197   2.103   6.777
 6700SOL     OW20431   4.212   3.247   5.760
 6700SOL    HW120432   4.125   3.232   5.807
 6700SOL    HW220433   4.195   3.273   5.665
 6701SOL     OW20434   4.251   2.118   5.914
 6701SOL    HW120435   4.278   2.059   5.839
 6701SOL    HW220436   4.251   2.213   5.883
 6702SOL     OW20437   4.134   2.675   6.837
 6702SOL    HW120438   4.220   2.687   6.887
 6702SOL    HW220439   4.092   2.588   6.864
 6703SOL     OW20440   3.788   3.426   6.917
 6703SOL    HW120441   3.742   3.508   6.883
 6703SOL    HW220442   3.886   3.445   6.926
 6704SOL     OW20443   4.091   2.962   6.087
 6704SOL    HW120444   4.084   3.045   6.031
 6704SOL    HW220445   4.095   2.882   6.027
 6705SOL     OW20446   4.290   2.399   6.451
 6705SOL    HW120447   4.302   2.465   6.377
 6705SOL    HW220448   4.336   2.433   6.534
 6706SOL     OW20449   4.078   3.372   6.915
 6706SOL    HW120450   4.057   3.328   6.828
 6706SOL    HW220451   4.175   3.398   6.918
 6707SOL     OW20452   4.126   2.613   7.184
 6707SOL    HW120453   4.194   2.668   7.137
 6707SOL    HW220454   4.166   2.525   7.211
 6708SOL     OW20455   4.228   1.912   7.326
 6708SOL    HW120456   4.186   1.855   7.256
 6708SOL    HW220457   4.162   1.981   7.358
 6709SOL     OW20458   4.297   2.732   6.615
 6709SOL    HW120459   4.341   2.821   6.606
 6709SOL    HW220460   4.234   2.732   6.692
 6710SOL     OW20461   4.031   2.075   6.817
 6710SOL    HW120462   4.008   2.112   6.907
 6710SOL    HW220463   4.001   1.980   6.811
 6711SOL     OW20464   3.761   3.172   6.868
 6711SOL    HW120465   3.814   3.123   6.936
 6711SOL    HW220466   3.783   3.270   6.873
 6712SOL     OW20467   4.031   1.925   6.204
 6712SOL    HW120468   4.020   2.019   6.237
 6712SOL    HW220469   4.026   1.862   6.281
 6713SOL     OW20470   4.074   2.760   7.390
 6713SOL    HW120471   4.150   2.804   7.438
 6713SOL    HW220472   4.109   2.713   7.308
 6714SOL     OW20473   4.043   2.672   6.535
 6714SOL    HW120474   4.136   2.708   6.540
 6714SOL    HW220475   4.037   2.587   6.587
 6715SOL     OW20476   4.063   2.371   6.592
 6715SOL    HW120477   4.011   2.288   6.575
 6715SOL    HW220478   4.140   2.376   6.528
 6716SOL     OW20479   3.732   3.188   5.786
 6716SOL    HW120480   3.639   3.209   5.755
 6716SOL    HW220481   3.742   3.089   5.799
 6717SOL     OW20482   3.812   3.663   6.513
 6717SOL    HW120483   3.770   3.577   6.486
 6717SOL    HW220484   3.906   3.666   6.479
 6718SOL     OW20485   4.228   3.430   6.496
 6718SOL    HW120486   4.294   3.504   6.505
 6718SOL    HW220487   4.272   3.351   6.454
 6719SOL     OW20488   3.764   2.406   6.700
 6719SOL    HW120489   3.849   2.373   6.659
 6719SOL    HW220490   3.777   2.421   6.798
 6720SOL     OW20491   3.913   2.382   7.308
 6720SOL    HW120492   3.972   2.342   7.238
 6720SOL    HW220493   3.855   2.453   7.267
 6721SOL     OW20494   4.539   2.434   5.911
 6721SOL    HW120495   4.546   2.345   5.865
 6721SOL    HW220496   4.445   2.468   5.903
 6722SOL     OW20497   3.976   3.426   7.330
 6722SOL    HW120498   3.946   3.483   7.406
 6722SOL    HW220499   3.969   3.329   7.356
 6723SOL     OW20500   4.197   2.362   5.777
 6723SOL    HW120501   4.258   2.442   5.781
 6723SOL    HW220502   4.102   2.393   5.784
 6724SOL     OW20503   3.883   2.999   7.052
 6724SOL    HW120504   3.905   2.938   7.128
 6724SOL    HW220505   3.893   2.950   6.966
 6725SOL     OW20506   3.807   3.120   6.608
 6725SOL    HW120507   3.802   3.119   6.708
 6725SOL    HW220508   3.724   3.079   6.570
 6726SOL     OW20509   4.412   3.524   7.302
 6726SOL    HW120510   4.356   3.605   7.311
 6726SOL    HW220511   4.464   3.528   7.216
 6727SOL     OW20512   3.854   3.656   7.437
 6727SOL    HW120513   3.813   3.582   7.490
 6727SOL    HW220514   3.918   3.707   7.495
 6728SOL     OW20515   3.987   2.188   6.306
 6728SOL    HW120516   3.908   2.239   6.272
 6728SOL    HW220517   3.978   2.173   6.404
 6729SOL     OW20518   4.096   3.150   7.076
 6729SOL    HW120519   4.083   3.243   7.042
 6729SOL    HW220520   4.012   3.098   7.063
 6730SOL     OW20521   4.314   3.349   6.077
 6730SOL    HW120522   4.356   3.291   6.007
 6730SOL    HW220523   4.270   3.428   6.033
 6731SOL     OW20524   3.979   3.210   5.876
 6731SOL    HW120525   3.883   3.211   5.849
 6731SOL    HW220526   3.991   3.263   5.960
 6732SOL     OW20527   3.829   2.875   7.312
 6732SOL    HW120528   3.752   2.842   7.366
 6732SOL    HW220529   3.914   2.845   7.354
 6733SOL     OW20530   4.396   2.065   7.075
 6733SOL    HW120531   4.486   2.049   7.035
 6733SOL    HW220532   4.404   2.070   7.174
 6734SOL     OW20533   3.799   2.207   5.619
 6734SOL    HW120534   3.707   2.179   5.590
 6734SOL    HW220535   3.830   2.284   5.563
 6735SOL     OW20536   3.796   2.028   5.904
 6735SOL    HW120537   3.779   2.111   5.850
 6735SOL    HW220538   3.886   1.991   5.882
 6736SOL     OW20539   4.337   2.704   7.017
 6736SOL    HW120540   4.393   2.785   7.000
 6736SOL    HW220541   4.396   2.624   7.020
 6737SOL     OW20542   4.440   2.427   7.294
 6737SOL    HW120543   4.459   2.492   7.368
 6737SOL    HW220544   4.500   2.347   7.303
 6738SOL     OW20545   4.114   3.603   7.146
 6738SOL    HW120546   4.023   3.644   7.144
 6738SOL    HW220547   4.107   3.509   7.178
 6739SOL     OW20548   4.318   2.607   6.238
 6739SOL    HW120549   4.368   2.692   6.219
 6739SOL    HW220550   4.230   2.609   6.190
 6740SOL     OW20551   3.945   3.176   7.430
 6740SOL    HW120552   3.880   3.103   7.409
 6740SOL    HW220553   3.949   3.190   7.528
 6741SOL     OW20554   3.803   3.102   6.239
 6741SOL    HW120555   3.802   3.055   6.327
 6741SOL    HW220556   3.885   3.074   6.188
 6742SOL     OW20557   4.396   3.253   7.210
 6742SOL    HW120558   4.318   3.203   7.248
 6742SOL    HW220559   4.393   3.348   7.241
 6743SOL     OW20560   4.152   2.286   6.106
 6743SOL    HW120561   4.182   2.214   6.044
 6743SOL    HW220562   4.113   2.246   6.189
 6744SOL     OW20563   4.041   2.409   6.866
 6744SOL    HW120564   4.079   2.350   6.938
 6744SOL    HW220565   4.081   2.383   6.778
 6745SOL     OW20566   4.536   3.448   6.273
 6745SOL    HW120567   4.568   3.458   6.179
 6745SOL    HW220568   4.457   3.386   6.275
 6746SOL     OW20569   3.763   2.939   5.886
 6746SOL    HW120570   3.862   2.928   5.877
 6746SOL    HW220571   3.723   2.853   5.918
 6747SOL     OW20572   3.954   2.490   7.561
 6747SOL    HW120573   3.861   2.488   7.598
 6747SOL    HW220574   3.955   2.451   7.469
 6748SOL     OW20575   3.949   2.137   8.444
 6748SOL    HW120576   3.984   2.120   8.536
 6748SOL    HW220577   3.861   2.092   8.432
 6749SOL     OW20578   3.743   2.230   8.095
 6749SOL    HW120579   3.661   2.273   8.134
 6749SOL    HW220580   3.715   2.157   8.032
 6750SOL     OW20581   4.293   3.137   8.613
 6750SOL    HW120582   4.200   3.130   8.576
 6750SOL    HW220583   4.304   3.226   8.657
 6751SOL     OW20584   4.574   2.660   9.271
 6751SOL    HW120585   4.570   2.736   9.336
 6751SOL    HW220586   4.596   2.696   9.180
 6752SOL     OW20587   4.409   2.874   8.113
 6752SOL    HW120588   4.478   2.858   8.183
 6752SOL    HW220589   4.336   2.931   8.151
 6753SOL     OW20590   4.410   3.023   9.251
 6753SOL    HW120591   4.470   3.102   9.265
 6753SOL    HW220592   4.324   3.054   9.210
 6754SOL     OW20593   4.059   3.297   8.509
 6754SOL    HW120594   3.981   3.266   8.456
 6754SOL    HW220595   4.117   3.355   8.452
 6755SOL     OW20596   4.162   2.254   8.947
 6755SOL    HW120597   4.244   2.198   8.956
 6755SOL    HW220598   4.081   2.196   8.951
 6756SOL     OW20599   3.955   3.575   7.931
 6756SOL    HW120600   3.989   3.652   7.985
 6756SOL    HW220601   3.999   3.575   7.841
 6757SOL     OW20602   3.954   3.296   7.986
 6757SOL    HW120603   3.928   3.392   7.986
 6757SOL    HW220604   3.883   3.242   8.031
 6758SOL     OW20605   3.964   2.953   8.334
 6758SOL    HW120606   3.978   2.869   8.386
 6758SOL    HW220607   3.909   3.017   8.389
 6759SOL     OW20608   4.344   3.648   8.887
 6759SOL    HW120609   4.252   3.631   8.922
 6759SOL    HW220610   4.372   3.740   8.913
 6760SOL     OW20611   4.330   2.826   7.571
 6760SOL    HW120612   4.337   2.910   7.517
 6760SOL    HW220613   4.376   2.839   7.659
 6761SOL     OW20614   3.846   2.505   8.011
 6761SOL    HW120615   3.801   2.417   8.028
 6761SOL    HW220616   3.845   2.559   8.095
 6762SOL     OW20617   3.751   3.458   7.565
 6762SOL    HW120618   3.732   3.362   7.586
 6762SOL    HW220619   3.718   3.516   7.640
 6763SOL     OW20620   3.837   2.599   9.045
 6763SOL    HW120621   3.925   2.586   9.090
 6763SOL    HW220622   3.824   2.696   9.023
 6764SOL     OW20623   4.337   3.227   8.174
 6764SOL    HW120624   4.288   3.140   8.183
 6764SOL    HW220625   4.314   3.270   8.087
 6765SOL     OW20626   4.533   1.866   7.950
 6765SOL    HW120627   4.573   1.957   7.941
 6765SOL    HW220628   4.433   1.874   7.956
 6766SOL     OW20629   3.921   2.838   8.712
 6766SOL    HW120630   4.010   2.793   8.698
 6766SOL    HW220631   3.848   2.773   8.693
 6767SOL     OW20632   4.041   2.113   9.249
 6767SOL    HW120633   4.112   2.184   9.255
 6767SOL    HW220634   3.953   2.152   9.277
 6768SOL     OW20635   4.322   2.591   7.718
 6768SOL    HW120636   4.346   2.660   7.650
 6768SOL    HW220637   4.244   2.624   7.772
 6769SOL     OW20638   3.800   2.673   8.237
 6769SOL    HW120639   3.899   2.661   8.246
 6769SOL    HW220640   3.776   2.768   8.258
 6770SOL     OW20641   3.854   3.683   9.019
 6770SOL    HW120642   3.844   3.668   9.118
 6770SOL    HW220643   3.768   3.719   8.983
 6771SOL     OW20644   4.274   2.058   8.333
 6771SOL    HW120645   4.269   2.053   8.433
 6771SOL    HW220646   4.276   2.154   8.304
 6772SOL     OW20647   4.075   3.663   8.301
 6772SOL    HW120648   4.125   3.577   8.307
 6772SOL    HW220649   4.140   3.740   8.298
 6773SOL     OW20650   4.045   2.805   7.690
 6773SOL    HW120651   4.127   2.844   7.648
 6773SOL    HW220652   4.018   2.723   7.641
 6774SOL     OW20653   4.185   3.128   9.175
 6774SOL    HW120654   4.135   3.129   9.089
 6774SOL    HW220655   4.122   3.110   9.251
 6775SOL     OW20656   3.926   2.147   8.946
 6775SOL    HW120657   3.846   2.207   8.933
 6775SOL    HW220658   3.916   2.098   9.032
 6776SOL     OW20659   4.188   3.605   7.771
 6776SOL    HW120660   4.221   3.644   7.857
 6776SOL    HW220661   4.264   3.598   7.706
 6777SOL     OW20662   3.973   3.647   8.689
 6777SOL    HW120663   4.030   3.582   8.739
 6777SOL    HW220664   3.957   3.614   8.596
 6778SOL     OW20665   4.106   2.562   7.928
 6778SOL    HW120666   4.151   2.472   7.925
 6778SOL    HW220667   4.012   2.551   7.961
 6779SOL     OW20668   4.338   1.984   7.565
 6779SOL    HW120669   4.436   1.962   7.572
 6779SOL    HW220670   4.307   1.967   7.472
 6780SOL     OW20671   4.527   3.264   8.372
 6780SOL    HW120672   4.617   3.278   8.330
 6780SOL    HW220673   4.456   3.266   8.301
 6781SOL     OW20674   4.263   1.926   7.960
 6781SOL    HW120675   4.182   1.927   8.018
 6781SOL    HW220676   4.266   2.009   7.905
 6782SOL     OW20677   4.021   1.897   7.619
 6782SOL    HW120678   4.070   1.981   7.598
 6782SOL    HW220679   4.083   1.832   7.664
 6783SOL     OW20680   4.800   2.545   8.912
 6783SOL    HW120681   4.720   2.484   8.915
 6783SOL    HW220682   4.881   2.492   8.888
 6784SOL     OW20683   4.183   3.014   8.189
 6784SOL    HW120684   4.112   2.987   8.254
 6784SOL    HW220685   4.157   2.986   8.096
 6785SOL     OW20686   3.802   2.418   8.834
 6785SOL    HW120687   3.894   2.417   8.793
 6785SOL    HW220688   3.796   2.492   8.901
 6786SOL     OW20689   4.285   2.084   8.595
 6786SOL    HW120690   4.323   2.000   8.632
 6786SOL    HW220691   4.197   2.103   8.639
 6787SOL     OW20692   4.212   3.247   7.622
 6787SOL    HW120693   4.125   3.232   7.669
 6787SOL    HW220694   4.195   3.273   7.527
 6788SOL     OW20695   4.251   2.118   7.776
 6788SOL    HW120696   4.278   2.059   7.701
 6788SOL    HW220697   4.251   2.213   7.745
 6789SOL     OW20698   4.134   2.675   8.699
 6789SOL    HW120699   4.220   2.687   8.749
 6789SOL    HW220700   4.092   2.588   8.726
 6790SOL     OW20701   3.788   3.426   8.779
 6790SOL    HW120702   3.742   3.508   8.745
 6790SOL    HW220703   3.886   3.445   8.788
 6791SOL     OW20704   4.091   2.962   7.949
 6791SOL    HW120705   4.084   3.045   7.893
 6791SOL    HW220706   4.095   2.882   7.889
 6792SOL     OW20707   4.290   2.399   8.313
 6792SOL    HW120708   4.302   2.465   8.239
 6792SOL    HW220709   4.336   2.433   8.396
 6793SOL     OW20710   4.078   3.372   8.777
 6793SOL    HW120711   4.057   3.328   8.690
 6793SOL    HW220712   4.175   3.398   8.780
 6794SOL     OW20713   4.126   2.613   9.046
 6794SOL    HW120714   4.194   2.668   8.999
 6794SOL    HW220715   4.166   2.525   9.073
 6795SOL     OW20716   4.228   1.912   9.188
 6795SOL    HW120717   4.186   1.855   9.118
 6795SOL    HW220718   4.162   1.981   9.220
 6796SOL     OW20719   4.297   2.732   8.477
 6796SOL    HW120720   4.341   2.821   8.468
 6796SOL    HW220721   4.234   2.732   8.554
 6797SOL     OW20722   4.031   2.075   8.679
 6797SOL    HW120723   4.008   2.112   8.769
 6797SOL    HW220724   4.001   1.980   8.673
 6798SOL     OW20725   3.761   3.172   8.730
 6798SOL    HW120726   3.814   3.123   8.798
 6798SOL    HW220727   3.783   3.270   8.735
 6799SOL     OW20728   4.031   1.925   8.066
 6799SOL    HW120729   4.020   2.019   8.099
 6799SOL    HW220730   4.026   1.862   8.143
 6800SOL     OW20731   4.074   2.760   9.252
 6800SOL    HW120732   4.150   2.804   9.300
 6800SOL    HW220733   4.109   2.713   9.170
 6801SOL     OW20734   4.043   2.672   8.397
 6801SOL    HW120735   4.136   2.708   8.402
 6801SOL    HW220736   4.037   2.587   8.449
 6802SOL     OW20737   4.063   2.371   8.454
 6802SOL    HW120738   4.011   2.288   8.437
 6802SOL    HW220739   4.140   2.376   8.390
 6803SOL     OW20740   3.732   3.188   7.648
 6803SOL    HW120741   3.639   3.209   7.617
 6803SOL    HW220742   3.742   3.089   7.661
 6804SOL     OW20743   3.812   3.663   8.375
 6804SOL    HW120744   3.770   3.577   8.348
 6804SOL    HW220745   3.906   3.666   8.341
 6805SOL     OW20746   4.228   3.430   8.358
 6805SOL    HW120747   4.294   3.504   8.367
 6805SOL    HW220748   4.272   3.351   8.316
 6806SOL     OW20749   3.764   2.406   8.562
 6806SOL    HW120750   3.849   2.373   8.521
 6806SOL    HW220751   3.777   2.421   8.660
 6807SOL     OW20752   3.913   2.382   9.170
 6807SOL    HW120753   3.972   2.342   9.100
 6807SOL    HW220754   3.855   2.453   9.129
 6808SOL     OW20755   4.539   2.434   7.773
 6808SOL    HW120756   4.546   2.345   7.727
 6808SOL    HW220757   4.445   2.468   7.765
 6809SOL     OW20758   3.976   3.426   9.192
 6809SOL    HW120759   3.946   3.483   9.268
 6809SOL    HW220760   3.969   3.329   9.218
 6810SOL     OW20761   4.197   2.362   7.639
 6810SOL    HW120762   4.258   2.442   7.643
 6810SOL    HW220763   4.102   2.393   7.646
 6811SOL     OW20764   3.883   2.999   8.914
 6811SOL    HW120765   3.905   2.938   8.990
 6811SOL    HW220766   3.893   2.950   8.828
 6812SOL     OW20767   3.807   3.120   8.470
 6812SOL    HW120768   3.802   3.119   8.570
 6812SOL    HW220769   3.724   3.079   8.432
 6813SOL     OW20770   4.412   3.524   9.164
 6813SOL    HW120771   4.356   3.605   9.173
 6813SOL    HW220772   4.464   3.528   9.078
 6814SOL     OW20773   3.854   3.656   9.299
 6814SOL    HW120774   3.813   3.582   9.352
 6814SOL    HW220775   3.918   3.707   9.357
 6815SOL     OW20776   3.987   2.188   8.168
 6815SOL    HW120777   3.908   2.239   8.134
 6815SOL    HW220778   3.978   2.173   8.266
 6816SOL     OW20779   4.096   3.150   8.938
 6816SOL    HW120780   4.083   3.243   8.904
 6816SOL    HW220781   4.012   3.098   8.925
 6817SOL     OW20782   4.314   3.349   7.939
 6817SOL    HW120783   4.356   3.291   7.869
 6817SOL    HW220784   4.270   3.428   7.895
 6818SOL     OW20785   3.979   3.210   7.738
 6818SOL    HW120786   3.883   3.211   7.711
 6818SOL    HW220787   3.991   3.263   7.822
 6819SOL     OW20788   3.829   2.875   9.174
 6819SOL    HW120789   3.752   2.842   9.228
 6819SOL    HW220790   3.914   2.845   9.216
 6820SOL     OW20791   4.396   2.065   8.937
 6820SOL    HW120792   4.486   2.049   8.897
 6820SOL    HW220793   4.404   2.070   9.036
 6821SOL     OW20794   3.799   2.207   7.481
 6821SOL    HW120795   3.707   2.179   7.452
 6821SOL    HW220796   3.830   2.284   7.425
 6822SOL     OW20797   3.796   2.028   7.766
 6822SOL    HW120798   3.779   2.111   7.712
 6822SOL    HW220799   3.886   1.991   7.744
 6823SOL     OW20800   4.337   2.704   8.879
 6823SOL    HW120801   4.393   2.785   8.862
 6823SOL    HW220802   4.396   2.624   8.882
 6824SOL     OW20803   4.440   2.427   9.156
 6824SOL    HW120804   4.459   2.492   9.230
 6824SOL    HW220805   4.500   2.347   9.165
 6825SOL     OW20806   4.114   3.603   9.008
 6825SOL    HW120807   4.023   3.644   9.006
 6825SOL    HW220808   4.107   3.509   9.040
 6826SOL     OW20809   4.318   2.607   8.100
 6826SOL    HW120810   4.368   2.692   8.081
 6826SOL    HW220811   4.230   2.609   8.052
 6827SOL     OW20812   3.945   3.176   9.292
 6827SOL    HW120813   3.880   3.103   9.271
 6827SOL    HW220814   3.949   3.190   9.390
 6828SOL     OW20815   3.803   3.102   8.101
 6828SOL    HW120816   3.802   3.055   8.189
 6828SOL    HW220817   3.885   3.074   8.050
 6829SOL     OW20818   4.396   3.253   9.072
 6829SOL    HW120819   4.318   3.203   9.110
 6829SOL    HW220820   4.393   3.348   9.103
 6830SOL     OW20821   4.152   2.286   7.968
 6830SOL    HW120822   4.182   2.214   7.906
 6830SOL    HW220823   4.113   2.246   8.051
 6831SOL     OW20824   4.041   2.409   8.728
 6831SOL    HW120825   4.079   2.350   8.800
 6831SOL    HW220826   4.081   2.383   8.640
 6832SOL     OW20827   4.536   3.448   8.135
 6832SOL    HW120828   4.568   3.458   8.041
 6832SOL    HW220829   4.457   3.386   8.137
 6833SOL     OW20830   3.763   2.939   7.748
 6833SOL    HW120831   3.862   2.928   7.739
 6833SOL    HW220832   3.723   2.853   7.780
 6834SOL     OW20833   3.954   2.490   9.423
 6834SOL    HW120834   3.861   2.488   9.460
 6834SOL    HW220835   3.955   2.451   9.331
 6835SOL     OW20836   3.949   2.137  10.306
 6835SOL    HW120837   3.984   2.120  10.398
 6835SOL    HW220838   3.861   2.092  10.294
 6836SOL     OW20839   3.743   2.230   9.957
 6836SOL    HW120840   3.661   2.273   9.996
 6836SOL    HW220841   3.715   2.157   9.894
 6837SOL     OW20842   4.293   3.137  10.475
 6837SOL    HW120843   4.200   3.130  10.438
 6837SOL    HW220844   4.304   3.226  10.519
 6838SOL     OW20845   4.574   2.660  11.133
 6838SOL    HW120846   4.570   2.736  11.198
 6838SOL    HW220847   4.596   2.696  11.042
 6839SOL     OW20848   4.409   2.874   9.975
 6839SOL    HW120849   4.478   2.858  10.045
 6839SOL    HW220850   4.336   2.931  10.013
 6840SOL     OW20851   4.059   3.297  10.371
 6840SOL    HW120852   3.981   3.266  10.318
 6840SOL    HW220853   4.117   3.355  10.314
 6841SOL     OW20854   4.162   2.254  10.809
 6841SOL    HW120855   4.244   2.198  10.818
 6841SOL    HW220856   4.081   2.196  10.813
 6842SOL     OW20857   3.955   3.575   9.793
 6842SOL    HW120858   3.989   3.652   9.847
 6842SOL    HW220859   3.999   3.575   9.703
 6843SOL     OW20860   3.954   3.296   9.848
 6843SOL    HW120861   3.928   3.392   9.848
 6843SOL    HW220862   3.883   3.242   9.893
 6844SOL     OW20863   3.964   2.953  10.196
 6844SOL    HW120864   3.978   2.869  10.248
 6844SOL    HW220865   3.909   3.017  10.251
 6845SOL     OW20866   4.344   3.648  10.749
 6845SOL    HW120867   4.252   3.631  10.784
 6845SOL    HW220868   4.372   3.740  10.775
 6846SOL     OW20869   4.330   2.826   9.433
 6846SOL    HW120870   4.337   2.910   9.379
 6846SOL    HW220871   4.376   2.839   9.521
 6847SOL     OW20872   3.846   2.505   9.873
 6847SOL    HW120873   3.801   2.417   9.890
 6847SOL    HW220874   3.845   2.559   9.957
 6848SOL     OW20875   3.751   3.458   9.427
 6848SOL    HW120876   3.732   3.362   9.448
 6848SOL    HW220877   3.718   3.516   9.502
 6849SOL     OW20878   4.337   3.227  10.036
 6849SOL    HW120879   4.288   3.140  10.045
 6849SOL    HW220880   4.314   3.270   9.949
 6850SOL     OW20881   4.533   1.866   9.812
 6850SOL    HW120882   4.573   1.957   9.803
 6850SOL    HW220883   4.433   1.874   9.818
 6851SOL     OW20884   3.921   2.838  10.574
 6851SOL    HW120885   4.010   2.793  10.560
 6851SOL    HW220886   3.848   2.773  10.555
 6852SOL     OW20887   4.322   2.591   9.580
 6852SOL    HW120888   4.346   2.660   9.512
 6852SOL    HW220889   4.244   2.624   9.634
 6853SOL     OW20890   4.697   2.752  10.882
 6853SOL    HW120891   4.743   2.668  10.853
 6853SOL    HW220892   4.641   2.786  10.807
 6854SOL     OW20893   3.800   2.673  10.099
 6854SOL    HW120894   3.899   2.661  10.108
 6854SOL    HW220895   3.776   2.768  10.120
 6855SOL     OW20896   3.854   3.683  10.881
 6855SOL    HW120897   3.844   3.668  10.980
 6855SOL    HW220898   3.768   3.719  10.845
 6856SOL     OW20899   4.274   2.058  10.195
 6856SOL    HW120900   4.269   2.053  10.295
 6856SOL    HW220901   4.276   2.154  10.166
 6857SOL     OW20902   4.075   3.663  10.163
 6857SOL    HW120903   4.125   3.577  10.169
 6857SOL    HW220904   4.140   3.740  10.160
 6858SOL     OW20905   4.045   2.805   9.552
 6858SOL    HW120906   4.127   2.844   9.510
 6858SOL    HW220907   4.018   2.723   9.503
 6859SOL     OW20908   3.926   2.147  10.808
 6859SOL    HW120909   3.846   2.207  10.795
 6859SOL    HW220910   3.916   2.098  10.894
 6860SOL     OW20911   4.188   3.605   9.633
 6860SOL    HW120912   4.221   3.644   9.719
 6860SOL    HW220913   4.264   3.598   9.568
 6861SOL     OW20914   3.973   3.647  10.551
 6861SOL    HW120915   4.030   3.582  10.601
 6861SOL    HW220916   3.957   3.614  10.458
 6862SOL     OW20917   4.106   2.562   9.790
 6862SOL    HW120918   4.151   2.472   9.787
 6862SOL    HW220919   4.012   2.551   9.823
 6863SOL     OW20920   4.338   1.984   9.427
 6863SOL    HW120921   4.436   1.962   9.434
 6863SOL    HW220922   4.307   1.967   9.334
 6864SOL     OW20923   4.527   3.264  10.234
 6864SOL    HW120924   4.617   3.278  10.192
 6864SOL    HW220925   4.456   3.266  10.163
 6865SOL     OW20926   4.263   1.926   9.822
 6865SOL    HW120927   4.182   1.927   9.880
 6865SOL    HW220928   4.266   2.009   9.767
 6866SOL     OW20929   4.021   1.897   9.481
 6866SOL    HW120930   4.070   1.981   9.460
 6866SOL    HW220931   4.083   1.832   9.526
 6867SOL     OW20932   4.800   2.545  10.774
 6867SOL    HW120933   4.720   2.484  10.777
 6867SOL    HW220934   4.881   2.492  10.750
 6868SOL     OW20935   4.183   3.014  10.051
 6868SOL    HW120936   4.112   2.987  10.116
 6868SOL    HW220937   4.157   2.986   9.958
 6869SOL     OW20938   3.802   2.418  10.696
 6869SOL    HW120939   3.894   2.417  10.655
 6869SOL    HW220940   3.796   2.492  10.763
 6870SOL     OW20941   4.285   2.084  10.457
 6870SOL    HW120942   4.323   2.000  10.494
 6870SOL    HW220943   4.197   2.103  10.501
 6871SOL     OW20944   4.212   3.247   9.484
 6871SOL    HW120945   4.125   3.232   9.531
 6871SOL    HW220946   4.195   3.273   9.389
 6872SOL     OW20947   4.251   2.118   9.638
 6872SOL    HW120948   4.278   2.059   9.563
 6872SOL    HW220949   4.251   2.213   9.607
 6873SOL     OW20950   4.639   1.951  10.712
 6873SOL    HW120951   4.664   1.931  10.617
 6873SOL    HW220952   4.711   2.007  10.754
 6874SOL     OW20953   4.134   2.675  10.561
 6874SOL    HW120954   4.220   2.687  10.611
 6874SOL    HW220955   4.092   2.588  10.588
 6875SOL     OW20956   3.788   3.426  10.641
 6875SOL    HW120957   3.742   3.508  10.607
 6875SOL    HW220958   3.886   3.445  10.650
 6876SOL     OW20959   4.091   2.962   9.811
 6876SOL    HW120960   4.084   3.045   9.755
 6876SOL    HW220961   4.095   2.882   9.751
 6877SOL     OW20962   4.290   2.399  10.175
 6877SOL    HW120963   4.302   2.465  10.101
 6877SOL    HW220964   4.336   2.433  10.258
 6878SOL     OW20965   4.078   3.372  10.639
 6878SOL    HW120966   4.057   3.328  10.552
 6878SOL    HW220967   4.175   3.398  10.642
 6879SOL     OW20968   4.126   2.613  10.908
 6879SOL    HW120969   4.194   2.668  10.861
 6879SOL    HW220970   4.166   2.525  10.935
 6880SOL     OW20971   4.297   2.732  10.339
 6880SOL    HW120972   4.341   2.821  10.330
 6880SOL    HW220973   4.234   2.732  10.416
 6881SOL     OW20974   4.031   2.075  10.541
 6881SOL    HW120975   4.008   2.112  10.631
 6881SOL    HW220976   4.001   1.980  10.535
 6882SOL     OW20977   3.761   3.172  10.592
 6882SOL    HW120978   3.814   3.123  10.660
 6882SOL    HW220979   3.783   3.270  10.597
 6883SOL     OW20980   4.031   1.925   9.928
 6883SOL    HW120981   4.020   2.019   9.961
 6883SOL    HW220982   4.026   1.862  10.005
 6884SOL     OW20983   4.043   2.672  10.259
 6884SOL    HW120984   4.136   2.708  10.264
 6884SOL    HW220985   4.037   2.587  10.311
 6885SOL     OW20986   4.063   2.371  10.316
 6885SOL    HW120987   4.011   2.288  10.299
 6885SOL    HW220988   4.140   2.376  10.252
 6886SOL     OW20989   3.732   3.188   9.510
 6886SOL    HW120990   3.639   3.209   9.479
 6886SOL    HW220991   3.742   3.089   9.523
 6887SOL     OW20992   3.812   3.663  10.237
 6887SOL    HW120993   3.770   3.577  10.210
 6887SOL    HW220994   3.906   3.666  10.203
 6888SOL     OW20995   4.228   3.430  10.220
 6888SOL    HW120996   4.294   3.504  10.229
 6888SOL    HW220997   4.272   3.351  10.178
 6889SOL     OW20998   3.764   2.406  10.424
 6889SOL    HW120999   3.849   2.373  10.383
 6889SOL    HW221000   3.777   2.421  10.522
 6890SOL     OW21001   4.539   2.434   9.635
 6890SOL    HW121002   4.546   2.345   9.589
 6890SOL    HW221003   4.445   2.468   9.627
 6891SOL     OW21004   3.976   3.426  11.054
 6891SOL    HW121005   3.946   3.483  11.130
 6891SOL    HW221006   3.969   3.329  11.080
 6892SOL     OW21007   4.197   2.362   9.501
 6892SOL    HW121008   4.258   2.442   9.505
 6892SOL    HW221009   4.102   2.393   9.508
 6893SOL     OW21010   3.883   2.999  10.776
 6893SOL    HW121011   3.905   2.938  10.852
 6893SOL    HW221012   3.893   2.950  10.690
 6894SOL     OW21013   3.807   3.120  10.332
 6894SOL    HW121014   3.802   3.119  10.432
 6894SOL    HW221015   3.724   3.079  10.294
 6895SOL     OW21016   3.987   2.188  10.030
 6895SOL    HW121017   3.908   2.239   9.996
 6895SOL    HW221018   3.978   2.173  10.128
 6896SOL     OW21019   4.096   3.150  10.800
 6896SOL    HW121020   4.083   3.243  10.766
 6896SOL    HW221021   4.012   3.098  10.787
 6897SOL     OW21022   4.314   3.349   9.801
 6897SOL    HW121023   4.356   3.291   9.731
 6897SOL    HW221024   4.270   3.428   9.757
 6898SOL     OW21025   3.979   3.210   9.600
 6898SOL    HW121026   3.883   3.211   9.573
 6898SOL    HW221027   3.991   3.263   9.684
 6899SOL     OW21028   3.829   2.875  11.036
 6899SOL    HW121029   3.752   2.842  11.090
 6899SOL    HW221030   3.914   2.845  11.078
 6900SOL     OW21031   3.799   2.207   9.343
 6900SOL    HW121032   3.707   2.179   9.314
 6900SOL    HW221033   3.830   2.284   9.287
 6901SOL     OW21034   3.796   2.028   9.628
 6901SOL    HW121035   3.779   2.111   9.574
 6901SOL    HW221036   3.886   1.991   9.606
 6902SOL     OW21037   4.337   2.704  10.741
 6902SOL    HW121038   4.393   2.785  10.724
 6902SOL    HW221039   4.396   2.624  10.744
 6903SOL     OW21040   4.440   2.427  11.018
 6903SOL    HW121041   4.459   2.492  11.092
 6903SOL    HW221042   4.500   2.347  11.027
 6904SOL     OW21043   4.114   3.603  10.870
 6904SOL    HW121044   4.023   3.644  10.868
 6904SOL    HW221045   4.107   3.509  10.902
 6905SOL     OW21046   4.318   2.607   9.962
 6905SOL    HW121047   4.368   2.692   9.943
 6905SOL    HW221048   4.230   2.609   9.914
 6906SOL     OW21049   3.803   3.102   9.963
 6906SOL    HW121050   3.802   3.055  10.051
 6906SOL    HW221051   3.885   3.074   9.912
 6907SOL     OW21052   4.396   3.253  10.934
 6907SOL    HW121053   4.318   3.203  10.972
 6907SOL    HW221054   4.393   3.348  10.965
 6908SOL     OW21055   4.152   2.286   9.830
 6908SOL    HW121056   4.182   2.214   9.768
 6908SOL    HW221057   4.113   2.246   9.913
 6909SOL     OW21058   4.041   2.409  10.590
 6909SOL    HW121059   4.079   2.350  10.662
 6909SOL    HW221060   4.081   2.383  10.502
 6910SOL     OW21061   4.536   3.448   9.997
 6910SOL    HW121062   4.568   3.458   9.903
 6910SOL    HW221063   4.457   3.386   9.999
 6911SOL     OW21064   3.763   2.939   9.610
 6911SOL    HW121065   3.862   2.928   9.601
 6911SOL    HW221066   3.723   2.853   9.642
 6912SOL     OW21067   3.954   4.352   0.113
 6912SOL    HW121068   3.861   4.350   0.150
 6912SOL    HW221069   3.955   4.313   0.021
 6913SOL     OW21070   3.949   3.999   0.996
 6913SOL    HW121071   3.984   3.982   1.088
 6913SOL    HW221072   3.861   3.954   0.984
 6914SOL     OW21073   3.743   4.092   0.647
 6914SOL    HW121074   3.661   4.135   0.686
 6914SOL    HW221075   3.715   4.019   0.584
 6915SOL     OW21076   4.574   4.522   1.823
 6915SOL    HW121077   4.570   4.598   1.888
 6915SOL    HW221078   4.596   4.558   1.732
 6916SOL     OW21079   4.162   4.116   1.499
 6916SOL    HW121080   4.244   4.060   1.508
 6916SOL    HW221081   4.081   4.058   1.503
 6917SOL     OW21082   3.846   4.367   0.563
 6917SOL    HW121083   3.801   4.279   0.580
 6917SOL    HW221084   3.845   4.421   0.647
 6918SOL     OW21085   3.837   4.461   1.597
 6918SOL    HW121086   3.925   4.448   1.642
 6918SOL    HW221087   3.824   4.558   1.575
 6919SOL     OW21088   4.533   3.728   0.502
 6919SOL    HW121089   4.573   3.819   0.493
 6919SOL    HW221090   4.433   3.736   0.508
 6920SOL     OW21091   4.041   3.975   1.801
 6920SOL    HW121092   4.112   4.046   1.807
 6920SOL    HW221093   3.953   4.014   1.829
 6921SOL     OW21094   4.274   3.920   0.885
 6921SOL    HW121095   4.269   3.915   0.985
 6921SOL    HW221096   4.276   4.016   0.856
 6922SOL     OW21097   3.926   4.009   1.498
 6922SOL    HW121098   3.846   4.069   1.485
 6922SOL    HW221099   3.916   3.960   1.584
 6923SOL     OW21100   4.106   4.424   0.480
 6923SOL    HW121101   4.151   4.334   0.477
 6923SOL    HW221102   4.012   4.413   0.513
 6924SOL     OW21103   4.338   3.846   0.117
 6924SOL    HW121104   4.436   3.824   0.124
 6924SOL    HW221105   4.307   3.829   0.024
 6925SOL     OW21106   4.263   3.788   0.512
 6925SOL    HW121107   4.182   3.789   0.570
 6925SOL    HW221108   4.266   3.871   0.457
 6926SOL     OW21109   4.021   3.759   0.171
 6926SOL    HW121110   4.070   3.843   0.150
 6926SOL    HW221111   4.083   3.694   0.216
 6927SOL     OW21112   4.800   4.407   1.464
 6927SOL    HW121113   4.720   4.346   1.467
 6927SOL    HW221114   4.881   4.354   1.440
 6928SOL     OW21115   3.802   4.280   1.386
 6928SOL    HW121116   3.894   4.279   1.345
 6928SOL    HW221117   3.796   4.354   1.453
 6929SOL     OW21118   4.285   3.946   1.147
 6929SOL    HW121119   4.323   3.862   1.184
 6929SOL    HW221120   4.197   3.965   1.191
 6930SOL     OW21121   4.251   3.980   0.328
 6930SOL    HW121122   4.278   3.921   0.253
 6930SOL    HW221123   4.251   4.075   0.297
 6931SOL     OW21124   4.134   4.537   1.251
 6931SOL    HW121125   4.220   4.549   1.301
 6931SOL    HW221126   4.092   4.450   1.278
 6932SOL     OW21127   4.290   4.261   0.865
 6932SOL    HW121128   4.302   4.327   0.791
 6932SOL    HW221129   4.336   4.295   0.948
 6933SOL     OW21130   4.228   3.774   1.740
 6933SOL    HW121131   4.186   3.717   1.670
 6933SOL    HW221132   4.162   3.843   1.772
 6934SOL     OW21133   4.031   3.937   1.231
 6934SOL    HW121134   4.008   3.974   1.321
 6934SOL    HW221135   4.001   3.842   1.225
 6935SOL     OW21136   4.031   3.787   0.618
 6935SOL    HW121137   4.020   3.881   0.651
 6935SOL    HW221138   4.026   3.724   0.695
 6936SOL     OW21139   4.043   4.534   0.949
 6936SOL    HW121140   4.136   4.570   0.954
 6936SOL    HW221141   4.037   4.449   1.001
 6937SOL     OW21142   4.063   4.233   1.006
 6937SOL    HW121143   4.011   4.150   0.989
 6937SOL    HW221144   4.140   4.238   0.942
 6938SOL     OW21145   3.764   4.268   1.114
 6938SOL    HW121146   3.849   4.235   1.073
 6938SOL    HW221147   3.777   4.283   1.212
 6939SOL     OW21148   3.913   4.244   1.722
 6939SOL    HW121149   3.972   4.204   1.652
 6939SOL    HW221150   3.855   4.315   1.681
 6940SOL     OW21151   4.539   4.296   0.325
 6940SOL    HW121152   4.546   4.207   0.279
 6940SOL    HW221153   4.445   4.330   0.317
 6941SOL     OW21154   4.197   4.224   0.191
 6941SOL    HW121155   4.258   4.304   0.195
 6941SOL    HW221156   4.102   4.255   0.198
 6942SOL     OW21157   3.987   4.050   0.720
 6942SOL    HW121158   3.908   4.101   0.686
 6942SOL    HW221159   3.978   4.035   0.818
 6943SOL     OW21160   4.396   3.927   1.489
 6943SOL    HW121161   4.486   3.911   1.449
 6943SOL    HW221162   4.404   3.932   1.588
 6944SOL     OW21163   3.799   4.069   0.033
 6944SOL    HW121164   3.707   4.041   0.004
 6944SOL    HW221165   3.830   4.146  -0.023
 6945SOL     OW21166   3.796   3.890   0.318
 6945SOL    HW121167   3.779   3.973   0.264
 6945SOL    HW221168   3.886   3.853   0.296
 6946SOL     OW21169   4.440   4.289   1.708
 6946SOL    HW121170   4.459   4.354   1.782
 6946SOL    HW221171   4.500   4.209   1.717
 6947SOL     OW21172   4.152   4.148   0.520
 6947SOL    HW121173   4.182   4.076   0.458
 6947SOL    HW221174   4.113   4.108   0.603
 6948SOL     OW21175   4.041   4.271   1.280
 6948SOL    HW121176   4.079   4.212   1.352
 6948SOL    HW221177   4.081   4.245   1.192
 6949SOL     OW21178   3.954   4.352   1.975
 6949SOL    HW121179   3.861   4.350   2.012
 6949SOL    HW221180   3.955   4.313   1.883
 6950SOL     OW21181   3.949   3.999   2.858
 6950SOL    HW121182   3.984   3.982   2.950
 6950SOL    HW221183   3.861   3.954   2.846
 6951SOL     OW21184   3.743   4.092   2.509
 6951SOL    HW121185   3.661   4.135   2.548
 6951SOL    HW221186   3.715   4.019   2.446
 6952SOL     OW21187   4.574   4.522   3.685
 6952SOL    HW121188   4.570   4.598   3.750
 6952SOL    HW221189   4.596   4.558   3.594
 6953SOL     OW21190   4.162   4.116   3.361
 6953SOL    HW121191   4.244   4.060   3.370
 6953SOL    HW221192   4.081   4.058   3.365
 6954SOL     OW21193   3.846   4.367   2.425
 6954SOL    HW121194   3.801   4.279   2.442
 6954SOL    HW221195   3.845   4.421   2.509
 6955SOL     OW21196   3.837   4.461   3.459
 6955SOL    HW121197   3.925   4.448   3.504
 6955SOL    HW221198   3.824   4.558   3.437
 6956SOL     OW21199   4.533   3.728   2.364
 6956SOL    HW121200   4.573   3.819   2.355
 6956SOL    HW221201   4.433   3.736   2.370
 6957SOL     OW21202   4.041   3.975   3.663
 6957SOL    HW121203   4.112   4.046   3.669
 6957SOL    HW221204   3.953   4.014   3.691
 6958SOL     OW21205   4.274   3.920   2.747
 6958SOL    HW121206   4.269   3.915   2.847
 6958SOL    HW221207   4.276   4.016   2.718
 6959SOL     OW21208   3.926   4.009   3.360
 6959SOL    HW121209   3.846   4.069   3.347
 6959SOL    HW221210   3.916   3.960   3.446
 6960SOL     OW21211   4.106   4.424   2.342
 6960SOL    HW121212   4.151   4.334   2.339
 6960SOL    HW221213   4.012   4.413   2.375
 6961SOL     OW21214   4.338   3.846   1.979
 6961SOL    HW121215   4.436   3.824   1.986
 6961SOL    HW221216   4.307   3.829   1.886
 6962SOL     OW21217   4.263   3.788   2.374
 6962SOL    HW121218   4.182   3.789   2.432
 6962SOL    HW221219   4.266   3.871   2.319
 6963SOL     OW21220   4.021   3.759   2.033
 6963SOL    HW121221   4.070   3.843   2.012
 6963SOL    HW221222   4.083   3.694   2.078
 6964SOL     OW21223   4.800   4.407   3.326
 6964SOL    HW121224   4.720   4.346   3.329
 6964SOL    HW221225   4.881   4.354   3.302
 6965SOL     OW21226   3.802   4.280   3.248
 6965SOL    HW121227   3.894   4.279   3.207
 6965SOL    HW221228   3.796   4.354   3.315
 6966SOL     OW21229   4.285   3.946   3.009
 6966SOL    HW121230   4.323   3.862   3.046
 6966SOL    HW221231   4.197   3.965   3.053
 6967SOL     OW21232   4.251   3.980   2.190
 6967SOL    HW121233   4.278   3.921   2.115
 6967SOL    HW221234   4.251   4.075   2.159
 6968SOL     OW21235   4.134   4.537   3.113
 6968SOL    HW121236   4.220   4.549   3.163
 6968SOL    HW221237   4.092   4.450   3.140
 6969SOL     OW21238   4.290   4.261   2.727
 6969SOL    HW121239   4.302   4.327   2.653
 6969SOL    HW221240   4.336   4.295   2.810
 6970SOL     OW21241   4.228   3.774   3.602
 6970SOL    HW121242   4.186   3.717   3.532
 6970SOL    HW221243   4.162   3.843   3.634
 6971SOL     OW21244   4.031   3.937   3.093
 6971SOL    HW121245   4.008   3.974   3.183
 6971SOL    HW221246   4.001   3.842   3.087
 6972SOL     OW21247   4.031   3.787   2.480
 6972SOL    HW121248   4.020   3.881   2.513
 6972SOL    HW221249   4.026   3.724   2.557
 6973SOL     OW21250   4.043   4.534   2.811
 6973SOL    HW121251   4.136   4.570   2.816
 6973SOL    HW221252   4.037   4.449   2.863
 6974SOL     OW21253   4.063   4.233   2.868
 6974SOL    HW121254   4.011   4.150   2.851
 6974SOL    HW221255   4.140   4.238   2.804
 6975SOL     OW21256   3.764   4.268   2.976
 6975SOL    HW121257   3.849   4.235   2.935
 6975SOL    HW221258   3.777   4.283   3.074
 6976SOL     OW21259   3.913   4.244   3.584
 6976SOL    HW121260   3.972   4.204   3.514
 6976SOL    HW221261   3.855   4.315   3.543
 6977SOL     OW21262   4.539   4.296   2.187
 6977SOL    HW121263   4.546   4.207   2.141
 6977SOL    HW221264   4.445   4.330   2.179
 6978SOL     OW21265   4.197   4.224   2.053
 6978SOL    HW121266   4.258   4.304   2.057
 6978SOL    HW221267   4.102   4.255   2.060
 6979SOL     OW21268   3.987   4.050   2.582
 6979SOL    HW121269   3.908   4.101   2.548
 6979SOL    HW221270   3.978   4.035   2.680
 6980SOL     OW21271   4.396   3.927   3.351
 6980SOL    HW121272   4.486   3.911   3.311
 6980SOL    HW221273   4.404   3.932   3.450
 6981SOL     OW21274   3.799   4.069   1.895
 6981SOL    HW121275   3.707   4.041   1.866
 6981SOL    HW221276   3.830   4.146   1.839
 6982SOL     OW21277   3.796   3.890   2.180
 6982SOL    HW121278   3.779   3.973   2.126
 6982SOL    HW221279   3.886   3.853   2.158
 6983SOL     OW21280   4.440   4.289   3.570
 6983SOL    HW121281   4.459   4.354   3.644
 6983SOL    HW221282   4.500   4.209   3.579
 6984SOL     OW21283   4.152   4.148   2.382
 6984SOL    HW121284   4.182   4.076   2.320
 6984SOL    HW221285   4.113   4.108   2.465
 6985SOL     OW21286   4.041   4.271   3.142
 6985SOL    HW121287   4.079   4.212   3.214
 6985SOL    HW221288   4.081   4.245   3.054
 6986SOL     OW21289   3.954   4.352   3.837
 6986SOL    HW121290   3.861   4.350   3.874
 6986SOL    HW221291   3.955   4.313   3.745
 6987SOL     OW21292   3.949   3.999   4.720
 6987SOL    HW121293   3.984   3.982   4.812
 6987SOL    HW221294   3.861   3.954   4.708
 6988SOL     OW21295   3.743   4.092   4.371
 6988SOL    HW121296   3.661   4.135   4.410
 6988SOL    HW221297   3.715   4.019   4.308
 6989SOL     OW21298   4.574   4.522   5.547
 6989SOL    HW121299   4.570   4.598   5.612
 6989SOL    HW221300   4.596   4.558   5.456
 6990SOL     OW21301   4.162   4.116   5.223
 6990SOL    HW121302   4.244   4.060   5.232
 6990SOL    HW221303   4.081   4.058   5.227
 6991SOL     OW21304   3.846   4.367   4.287
 6991SOL    HW121305   3.801   4.279   4.304
 6991SOL    HW221306   3.845   4.421   4.371
 6992SOL     OW21307   3.837   4.461   5.321
 6992SOL    HW121308   3.925   4.448   5.366
 6992SOL    HW221309   3.824   4.558   5.299
 6993SOL     OW21310   4.533   3.728   4.226
 6993SOL    HW121311   4.573   3.819   4.217
 6993SOL    HW221312   4.433   3.736   4.232
 6994SOL     OW21313   4.041   3.975   5.525
 6994SOL    HW121314   4.112   4.046   5.531
 6994SOL    HW221315   3.953   4.014   5.553
 6995SOL     OW21316   4.274   3.920   4.609
 6995SOL    HW121317   4.269   3.915   4.709
 6995SOL    HW221318   4.276   4.016   4.580
 6996SOL     OW21319   3.926   4.009   5.222
 6996SOL    HW121320   3.846   4.069   5.209
 6996SOL    HW221321   3.916   3.960   5.308
 6997SOL     OW21322   4.106   4.424   4.204
 6997SOL    HW121323   4.151   4.334   4.201
 6997SOL    HW221324   4.012   4.413   4.237
 6998SOL     OW21325   4.338   3.846   3.841
 6998SOL    HW121326   4.436   3.824   3.848
 6998SOL    HW221327   4.307   3.829   3.748
 6999SOL     OW21328   4.263   3.788   4.236
 6999SOL    HW121329   4.182   3.789   4.294
 6999SOL    HW221330   4.266   3.871   4.181
 7000SOL     OW21331   4.021   3.759   3.895
 7000SOL    HW121332   4.070   3.843   3.874
 7000SOL    HW221333   4.083   3.694   3.940
 7001SOL     OW21334   4.800   4.407   5.188
 7001SOL    HW121335   4.720   4.346   5.191
 7001SOL    HW221336   4.881   4.354   5.164
 7002SOL     OW21337   3.802   4.280   5.110
 7002SOL    HW121338   3.894   4.279   5.069
 7002SOL    HW221339   3.796   4.354   5.177
 7003SOL     OW21340   4.285   3.946   4.871
 7003SOL    HW121341   4.323   3.862   4.908
 7003SOL    HW221342   4.197   3.965   4.915
 7004SOL     OW21343   4.251   3.980   4.052
 7004SOL    HW121344   4.278   3.921   3.977
 7004SOL    HW221345   4.251   4.075   4.021
 7005SOL     OW21346   4.134   4.537   4.975
 7005SOL    HW121347   4.220   4.549   5.025
 7005SOL    HW221348   4.092   4.450   5.002
 7006SOL     OW21349   4.290   4.261   4.589
 7006SOL    HW121350   4.302   4.327   4.515
 7006SOL    HW221351   4.336   4.295   4.672
 7007SOL     OW21352   4.228   3.774   5.464
 7007SOL    HW121353   4.186   3.717   5.394
 7007SOL    HW221354   4.162   3.843   5.496
 7008SOL     OW21355   4.031   3.937   4.955
 7008SOL    HW121356   4.008   3.974   5.045
 7008SOL    HW221357   4.001   3.842   4.949
 7009SOL     OW21358   4.031   3.787   4.342
 7009SOL    HW121359   4.020   3.881   4.375
 7009SOL    HW221360   4.026   3.724   4.419
 7010SOL     OW21361   4.043   4.534   4.673
 7010SOL    HW121362   4.136   4.570   4.678
 7010SOL    HW221363   4.037   4.449   4.725
 7011SOL     OW21364   4.063   4.233   4.730
 7011SOL    HW121365   4.011   4.150   4.713
 7011SOL    HW221366   4.140   4.238   4.666
 7012SOL     OW21367   3.764   4.268   4.838
 7012SOL    HW121368   3.849   4.235   4.797
 7012SOL    HW221369   3.777   4.283   4.936
 7013SOL     OW21370   3.913   4.244   5.446
 7013SOL    HW121371   3.972   4.204   5.376
 7013SOL    HW221372   3.855   4.315   5.405
 7014SOL     OW21373   4.539   4.296   4.049
 7014SOL    HW121374   4.546   4.207   4.003
 7014SOL    HW221375   4.445   4.330   4.041
 7015SOL     OW21376   4.197   4.224   3.915
 7015SOL    HW121377   4.258   4.304   3.919
 7015SOL    HW221378   4.102   4.255   3.922
 7016SOL     OW21379   3.987   4.050   4.444
 7016SOL    HW121380   3.908   4.101   4.410
 7016SOL    HW221381   3.978   4.035   4.542
 7017SOL     OW21382   4.396   3.927   5.213
 7017SOL    HW121383   4.486   3.911   5.173
 7017SOL    HW221384   4.404   3.932   5.312
 7018SOL     OW21385   3.799   4.069   3.757
 7018SOL    HW121386   3.707   4.041   3.728
 7018SOL    HW221387   3.830   4.146   3.701
 7019SOL     OW21388   3.796   3.890   4.042
 7019SOL    HW121389   3.779   3.973   3.988
 7019SOL    HW221390   3.886   3.853   4.020
 7020SOL     OW21391   4.440   4.289   5.432
 7020SOL    HW121392   4.459   4.354   5.506
 7020SOL    HW221393   4.500   4.209   5.441
 7021SOL     OW21394   4.152   4.148   4.244
 7021SOL    HW121395   4.182   4.076   4.182
 7021SOL    HW221396   4.113   4.108   4.327
 7022SOL     OW21397   4.041   4.271   5.004
 7022SOL    HW121398   4.079   4.212   5.076
 7022SOL    HW221399   4.081   4.245   4.916
 7023SOL     OW21400   3.954   4.352   5.699
 7023SOL    HW121401   3.861   4.350   5.736
 7023SOL    HW221402   3.955   4.313   5.607
 7024SOL     OW21403   3.949   3.999   6.582
 7024SOL    HW121404   3.984   3.982   6.674
 7024SOL    HW221405   3.861   3.954   6.570
 7025SOL     OW21406   3.743   4.092   6.233
 7025SOL    HW121407   3.661   4.135   6.272
 7025SOL    HW221408   3.715   4.019   6.170
 7026SOL     OW21409   4.574   4.522   7.409
 7026SOL    HW121410   4.570   4.598   7.474
 7026SOL    HW221411   4.596   4.558   7.318
 7027SOL     OW21412   4.162   4.116   7.085
 7027SOL    HW121413   4.244   4.060   7.094
 7027SOL    HW221414   4.081   4.058   7.089
 7028SOL     OW21415   3.846   4.367   6.149
 7028SOL    HW121416   3.801   4.279   6.166
 7028SOL    HW221417   3.845   4.421   6.233
 7029SOL     OW21418   3.837   4.461   7.183
 7029SOL    HW121419   3.925   4.448   7.228
 7029SOL    HW221420   3.824   4.558   7.161
 7030SOL     OW21421   4.533   3.728   6.088
 7030SOL    HW121422   4.573   3.819   6.079
 7030SOL    HW221423   4.433   3.736   6.094
 7031SOL     OW21424   4.041   3.975   7.387
 7031SOL    HW121425   4.112   4.046   7.393
 7031SOL    HW221426   3.953   4.014   7.415
 7032SOL     OW21427   4.274   3.920   6.471
 7032SOL    HW121428   4.269   3.915   6.571
 7032SOL    HW221429   4.276   4.016   6.442
 7033SOL     OW21430   3.926   4.009   7.084
 7033SOL    HW121431   3.846   4.069   7.071
 7033SOL    HW221432   3.916   3.960   7.170
 7034SOL     OW21433   4.106   4.424   6.066
 7034SOL    HW121434   4.151   4.334   6.063
 7034SOL    HW221435   4.012   4.413   6.099
 7035SOL     OW21436   4.338   3.846   5.703
 7035SOL    HW121437   4.436   3.824   5.710
 7035SOL    HW221438   4.307   3.829   5.610
 7036SOL     OW21439   4.263   3.788   6.098
 7036SOL    HW121440   4.182   3.789   6.156
 7036SOL    HW221441   4.266   3.871   6.043
 7037SOL     OW21442   4.021   3.759   5.757
 7037SOL    HW121443   4.070   3.843   5.736
 7037SOL    HW221444   4.083   3.694   5.802
 7038SOL     OW21445   4.800   4.407   7.050
 7038SOL    HW121446   4.720   4.346   7.053
 7038SOL    HW221447   4.881   4.354   7.026
 7039SOL     OW21448   3.802   4.280   6.972
 7039SOL    HW121449   3.894   4.279   6.931
 7039SOL    HW221450   3.796   4.354   7.039
 7040SOL     OW21451   4.285   3.946   6.733
 7040SOL    HW121452   4.323   3.862   6.770
 7040SOL    HW221453   4.197   3.965   6.777
 7041SOL     OW21454   4.251   3.980   5.914
 7041SOL    HW121455   4.278   3.921   5.839
 7041SOL    HW221456   4.251   4.075   5.883
 7042SOL     OW21457   4.134   4.537   6.837
 7042SOL    HW121458   4.220   4.549   6.887
 7042SOL    HW221459   4.092   4.450   6.864
 7043SOL     OW21460   4.290   4.261   6.451
 7043SOL    HW121461   4.302   4.327   6.377
 7043SOL    HW221462   4.336   4.295   6.534
 7044SOL     OW21463   4.228   3.774   7.326
 7044SOL    HW121464   4.186   3.717   7.256
 7044SOL    HW221465   4.162   3.843   7.358
 7045SOL     OW21466   4.031   3.937   6.817
 7045SOL    HW121467   4.008   3.974   6.907
 7045SOL    HW221468   4.001   3.842   6.811
 7046SOL     OW21469   4.031   3.787   6.204
 7046SOL    HW121470   4.020   3.881   6.237
 7046SOL    HW221471   4.026   3.724   6.281
 7047SOL     OW21472   4.043   4.534   6.535
 7047SOL    HW121473   4.136   4.570   6.540
 7047SOL    HW221474   4.037   4.449   6.587
 7048SOL     OW21475   4.063   4.233   6.592
 7048SOL    HW121476   4.011   4.150   6.575
 7048SOL    HW221477   4.140   4.238   6.528
 7049SOL     OW21478   3.764   4.268   6.700
 7049SOL    HW121479   3.849   4.235   6.659
 7049SOL    HW221480   3.777   4.283   6.798
 7050SOL     OW21481   3.913   4.244   7.308
 7050SOL    HW121482   3.972   4.204   7.238
 7050SOL    HW221483   3.855   4.315   7.267
 7051SOL     OW21484   4.539   4.296   5.911
 7051SOL    HW121485   4.546   4.207   5.865
 7051SOL    HW221486   4.445   4.330   5.903
 7052SOL     OW21487   4.197   4.224   5.777
 7052SOL    HW121488   4.258   4.304   5.781
 7052SOL    HW221489   4.102   4.255   5.784
 7053SOL     OW21490   3.987   4.050   6.306
 7053SOL    HW121491   3.908   4.101   6.272
 7053SOL    HW221492   3.978   4.035   6.404
 7054SOL     OW21493   4.396   3.927   7.075
 7054SOL    HW121494   4.486   3.911   7.035
 7054SOL    HW221495   4.404   3.932   7.174
 7055SOL     OW21496   3.799   4.069   5.619
 7055SOL    HW121497   3.707   4.041   5.590
 7055SOL    HW221498   3.830   4.146   5.563
 7056SOL     OW21499   3.796   3.890   5.904
 7056SOL    HW121500   3.779   3.973   5.850
 7056SOL    HW221501   3.886   3.853   5.882
 7057SOL     OW21502   4.440   4.289   7.294
 7057SOL    HW121503   4.459   4.354   7.368
 7057SOL    HW221504   4.500   4.209   7.303
 7058SOL     OW21505   4.152   4.148   6.106
 7058SOL    HW121506   4.182   4.076   6.044
 7058SOL    HW221507   4.113   4.108   6.189
 7059SOL     OW21508   4.041   4.271   6.866
 7059SOL    HW121509   4.079   4.212   6.938
 7059SOL    HW221510   4.081   4.245   6.778
 7060SOL     OW21511   3.954   4.352   7.561
 7060SOL    HW121512   3.861   4.350   7.598
 7060SOL    HW221513   3.955   4.313   7.469
 7061SOL     OW21514   3.949   3.999   8.444
 7061SOL    HW121515   3.984   3.982   8.536
 7061SOL    HW221516   3.861   3.954   8.432
 7062SOL     OW21517   3.743   4.092   8.095
 7062SOL    HW121518   3.661   4.135   8.134
 7062SOL    HW221519   3.715   4.019   8.032
 7063SOL     OW21520   4.574   4.522   9.271
 7063SOL    HW121521   4.570   4.598   9.336
 7063SOL    HW221522   4.596   4.558   9.180
 7064SOL     OW21523   4.162   4.116   8.947
 7064SOL    HW121524   4.244   4.060   8.956
 7064SOL    HW221525   4.081   4.058   8.951
 7065SOL     OW21526   3.846   4.367   8.011
 7065SOL    HW121527   3.801   4.279   8.028
 7065SOL    HW221528   3.845   4.421   8.095
 7066SOL     OW21529   3.837   4.461   9.045
 7066SOL    HW121530   3.925   4.448   9.090
 7066SOL    HW221531   3.824   4.558   9.023
 7067SOL     OW21532   4.533   3.728   7.950
 7067SOL    HW121533   4.573   3.819   7.941
 7067SOL    HW221534   4.433   3.736   7.956
 7068SOL     OW21535   4.041   3.975   9.249
 7068SOL    HW121536   4.112   4.046   9.255
 7068SOL    HW221537   3.953   4.014   9.277
 7069SOL     OW21538   4.274   3.920   8.333
 7069SOL    HW121539   4.269   3.915   8.433
 7069SOL    HW221540   4.276   4.016   8.304
 7070SOL     OW21541   3.926   4.009   8.946
 7070SOL    HW121542   3.846   4.069   8.933
 7070SOL    HW221543   3.916   3.960   9.032
 7071SOL     OW21544   4.106   4.424   7.928
 7071SOL    HW121545   4.151   4.334   7.925
 7071SOL    HW221546   4.012   4.413   7.961
 7072SOL     OW21547   4.338   3.846   7.565
 7072SOL    HW121548   4.436   3.824   7.572
 7072SOL    HW221549   4.307   3.829   7.472
 7073SOL     OW21550   4.263   3.788   7.960
 7073SOL    HW121551   4.182   3.789   8.018
 7073SOL    HW221552   4.266   3.871   7.905
 7074SOL     OW21553   4.021   3.759   7.619
 7074SOL    HW121554   4.070   3.843   7.598
 7074SOL    HW221555   4.083   3.694   7.664
 7075SOL     OW21556   4.800   4.407   8.912
 7075SOL    HW121557   4.720   4.346   8.915
 7075SOL    HW221558   4.881   4.354   8.888
 7076SOL     OW21559   3.802   4.280   8.834
 7076SOL    HW121560   3.894   4.279   8.793
 7076SOL    HW221561   3.796   4.354   8.901
 7077SOL     OW21562   4.285   3.946   8.595
 7077SOL    HW121563   4.323   3.862   8.632
 7077SOL    HW221564   4.197   3.965   8.639
 7078SOL     OW21565   4.251   3.980   7.776
 7078SOL    HW121566   4.278   3.921   7.701
 7078SOL    HW221567   4.251   4.075   7.745
 7079SOL     OW21568   4.134   4.537   8.699
 7079SOL    HW121569   4.220   4.549   8.749
 7079SOL    HW221570   4.092   4.450   8.726
 7080SOL     OW21571   4.290   4.261   8.313
 7080SOL    HW121572   4.302   4.327   8.239
 7080SOL    HW221573   4.336   4.295   8.396
 7081SOL     OW21574   4.228   3.774   9.188
 7081SOL    HW121575   4.186   3.717   9.118
 7081SOL    HW221576   4.162   3.843   9.220
 7082SOL     OW21577   4.031   3.937   8.679
 7082SOL    HW121578   4.008   3.974   8.769
 7082SOL    HW221579   4.001   3.842   8.673
 7083SOL     OW21580   4.031   3.787   8.066
 7083SOL    HW121581   4.020   3.881   8.099
 7083SOL    HW221582   4.026   3.724   8.143
 7084SOL     OW21583   4.043   4.534   8.397
 7084SOL    HW121584   4.136   4.570   8.402
 7084SOL    HW221585   4.037   4.449   8.449
 7085SOL     OW21586   4.063   4.233   8.454
 7085SOL    HW121587   4.011   4.150   8.437
 7085SOL    HW221588   4.140   4.238   8.390
 7086SOL     OW21589   3.764   4.268   8.562
 7086SOL    HW121590   3.849   4.235   8.521
 7086SOL    HW221591   3.777   4.283   8.660
 7087SOL     OW21592   3.913   4.244   9.170
 7087SOL    HW121593   3.972   4.204   9.100
 7087SOL    HW221594   3.855   4.315   9.129
 7088SOL     OW21595   4.539   4.296   7.773
 7088SOL    HW121596   4.546   4.207   7.727
 7088SOL    HW221597   4.445   4.330   7.765
 7089SOL     OW21598   4.197   4.224   7.639
 7089SOL    HW121599   4.258   4.304   7.643
 7089SOL    HW221600   4.102   4.255   7.646
 7090SOL     OW21601   3.987   4.050   8.168
 7090SOL    HW121602   3.908   4.101   8.134
 7090SOL    HW221603   3.978   4.035   8.266
 7091SOL     OW21604   4.396   3.927   8.937
 7091SOL    HW121605   4.486   3.911   8.897
 7091SOL    HW221606   4.404   3.932   9.036
 7092SOL     OW21607   3.799   4.069   7.481
 7092SOL    HW121608   3.707   4.041   7.452
 7092SOL    HW221609   3.830   4.146   7.425
 7093SOL     OW21610   3.796   3.890   7.766
 7093SOL    HW121611   3.779   3.973   7.712
 7093SOL    HW221612   3.886   3.853   7.744
 7094SOL     OW21613   4.440   4.289   9.156
 7094SOL    HW121614   4.459   4.354   9.230
 7094SOL    HW221615   4.500   4.209   9.165
 7095SOL     OW21616   4.152   4.148   7.968
 7095SOL    HW121617   4.182   4.076   7.906
 7095SOL    HW221618   4.113   4.108   8.051
 7096SOL     OW21619   4.041   4.271   8.728
 7096SOL    HW121620   4.079   4.212   8.800
 7096SOL    HW221621   4.081   4.245   8.640
 7097SOL     OW21622   3.954   4.352   9.423
 7097SOL    HW121623   3.861   4.350   9.460
 7097SOL    HW221624   3.955   4.313   9.331
 7098SOL     OW21625   3.949   3.999  10.306
 7098SOL    HW121626   3.984   3.982  10.398
 7098SOL    HW221627   3.861   3.954  10.294
 7099SOL     OW21628   3.743   4.092   9.957
 7099SOL    HW121629   3.661   4.135   9.996
 7099SOL    HW221630   3.715   4.019   9.894
 7100SOL     OW21631   4.162   4.116  10.809
 7100SOL    HW121632   4.244   4.060  10.818
 7100SOL    HW221633   4.081   4.058  10.813
 7101SOL     OW21634   3.846   4.367   9.873
 7101SOL    HW121635   3.801   4.279   9.890
 7101SOL    HW221636   3.845   4.421   9.957
 7102SOL     OW21637   4.533   3.728   9.812
 7102SOL    HW121638   4.573   3.819   9.803
 7102SOL    HW221639   4.433   3.736   9.818
 7103SOL     OW21640   4.274   3.920  10.195
 7103SOL    HW121641   4.269   3.915  10.295
 7103SOL    HW221642   4.276   4.016  10.166
 7104SOL     OW21643   4.106   4.424   9.790
 7104SOL    HW121644   4.151   4.334   9.787
 7104SOL    HW221645   4.012   4.413   9.823
 7105SOL     OW21646   4.338   3.846   9.427
 7105SOL    HW121647   4.436   3.824   9.434
 7105SOL    HW221648   4.307   3.829   9.334
 7106SOL     OW21649   4.263   3.788   9.822
 7106SOL    HW121650   4.182   3.789   9.880
 7106SOL    HW221651   4.266   3.871   9.767
 7107SOL     OW21652   4.021   3.759   9.481
 7107SOL    HW121653   4.070   3.843   9.460
 7107SOL    HW221654   4.083   3.694   9.526
 7108SOL     OW21655   4.800   4.407  10.774
 7108SOL    HW121656   4.720   4.346  10.777
 7108SOL    HW221657   4.881   4.354  10.750
 7109SOL     OW21658   3.802   4.280  10.696
 7109SOL    HW121659   3.894   4.279  10.655
 7109SOL    HW221660   3.796   4.354  10.763
 7110SOL     OW21661   4.285   3.946  10.457
 7110SOL    HW121662   4.323   3.862  10.494
 7110SOL    HW221663   4.197   3.965  10.501
 7111SOL     OW21664   4.251   3.980   9.638
 7111SOL    HW121665   4.278   3.921   9.563
 7111SOL    HW221666   4.251   4.075   9.607
 7112SOL     OW21667   4.639   3.813  10.712
 7112SOL    HW121668   4.664   3.793  10.617
 7112SOL    HW221669   4.711   3.869  10.754
 7113SOL     OW21670   4.134   4.537  10.561
 7113SOL    HW121671   4.220   4.549  10.611
 7113SOL    HW221672   4.092   4.450  10.588
 7114SOL     OW21673   4.290   4.261  10.175
 7114SOL    HW121674   4.302   4.327  10.101
 7114SOL    HW221675   4.336   4.295  10.258
 7115SOL     OW21676   4.126   4.475  10.908
 7115SOL    HW121677   4.194   4.530  10.861
 7115SOL    HW221678   4.166   4.387  10.935
 7116SOL     OW21679   4.031   3.937  10.541
 7116SOL    HW121680   4.008   3.974  10.631
 7116SOL    HW221681   4.001   3.842  10.535
 7117SOL     OW21682   4.031   3.787   9.928
 7117SOL    HW121683   4.020   3.881   9.961
 7117SOL    HW221684   4.026   3.724  10.005
 7118SOL     OW21685   4.043   4.534  10.259
 7118SOL    HW121686   4.136   4.570  10.264
 7118SOL    HW221687   4.037   4.449  10.311
 7119SOL     OW21688   4.063   4.233  10.316
 7119SOL    HW121689   4.011   4.150  10.299
 7119SOL    HW221690   4.140   4.238  10.252
 7120SOL     OW21691   3.764   4.268  10.424
 7120SOL    HW121692   3.849   4.235  10.383
 7120SOL    HW221693   3.777   4.283  10.522
 7121SOL     OW21694   4.539   4.296   9.635
 7121SOL    HW121695   4.546   4.207   9.589
 7121SOL    HW221696   4.445   4.330   9.627
 7122SOL     OW21697   4.197   4.224   9.501
 7122SOL    HW121698   4.258   4.304   9.505
 7122SOL    HW221699   4.102   4.255   9.508
 7123SOL     OW21700   3.987   4.050  10.030
 7123SOL    HW121701   3.908   4.101   9.996
 7123SOL    HW221702   3.978   4.035  10.128
 7124SOL     OW21703   3.799   4.069   9.343
 7124SOL    HW121704   3.707   4.041   9.314
 7124SOL    HW221705   3.830   4.146   9.287
 7125SOL     OW21706   3.796   3.890   9.628
 7125SOL    HW121707   3.779   3.973   9.574
 7125SOL    HW221708   3.886   3.853   9.606
 7126SOL     OW21709   4.337   4.566  10.741
 7126SOL    HW121710   4.393   4.647  10.724
 7126SOL    HW221711   4.396   4.486  10.744
 7127SOL     OW21712   4.440   4.289  11.018
 7127SOL    HW121713   4.459   4.354  11.092
 7127SOL    HW221714   4.500   4.209  11.027
 7128SOL     OW21715   4.152   4.148   9.830
 7128SOL    HW121716   4.182   4.076   9.768
 7128SOL    HW221717   4.113   4.108   9.913
 7129SOL     OW21718   4.041   4.271  10.590
 7129SOL    HW121719   4.079   4.212  10.662
 7129SOL    HW221720   4.081   4.245  10.502
   4.50000   4.50000  10.91513
