2gCDOC_2PEG_l11
22029
    1LIG      O    1   2.381   2.327   0.025
    1LIG      C    2   2.356   2.401   0.150
    1LIG     C1    3   2.428   2.340   0.279
    1LIG     O1    4   2.361   2.382   0.403
    1LIG     C2    5   2.427   2.342   0.528
    1LIG     C3    6   2.350   2.393   0.657
    1LIG     O2    7   2.405   2.338   0.782
    1LIG     C4    8   2.365   2.412   0.902
    1LIG     C5    9   2.437   2.359   1.032
    1LIG     O3   10   2.366   2.399   1.154
    1LIG     C6   11   2.429   2.347   1.274
    1LIG     C7   12   2.362   2.408   1.402
    1LIG     O4   13   2.422   2.357   1.524
    1LIG     C8   14   2.367   2.415   1.646
    1LIG     C9   15   2.429   2.347   1.772
    1LIG     O5   16   2.362   2.395   1.891
    1LIG    C10   17   2.425   2.345   2.013
    1LIG    C11   18   2.345   2.394   2.138
    1LIG     O6   19   2.397   2.334   2.260
    1LIG    C12   20   2.350   2.398   2.382
    1LIG    C13   21   2.422   2.337   2.507
    1LIG     O7   22   2.352   2.369   2.630
    1LIG    C14   23   2.428   2.331   2.748
    1LIG    C15   24   2.367   2.396   2.876
    1LIG     O8   25   2.408   2.327   2.998
    1LIG    C16   26   2.374   2.399   3.119
    1LIG    C17   27   2.434   2.332   3.247
    1LIG     O9   28   2.382   2.396   3.368
    1LIG    C18   29   2.440   2.338   3.488
    1LIG    C19   30   2.378   2.401   3.618
    1LIG    O10   31   2.423   2.331   3.736
    1LIG    C20   32   2.376   2.391   3.860
    1LIG    C21   33   2.445   2.325   3.984
    1LIG    O11   34   2.376   2.360   4.108
    1LIG    C22   35   2.448   2.314   4.225
    1LIG    C23   36   2.379   2.366   4.354
    1LIG    O12   37   2.425   2.299   4.474
    1LIG    C24   38   2.390   2.376   4.592
    1LIG    C25   39   2.423   2.300   4.727
    1LIG    O13   40   2.367   2.370   4.843
    1LIG    C26   41   2.434   2.343   4.968
    1LIG    C27   42   2.365   2.416   5.089
    1LIG    O14   43   2.401   2.347   5.212
    1LIG    C28   44   2.360   2.415   5.334
    1LIG    C29   45   2.426   2.346   5.458
    1LIG    O15   46   2.373   2.398   5.583
    1LIG    C30   47   2.440   2.344   5.700
    1LIG    C31   48   2.375   2.401   5.832
    1LIG    O16   49   2.427   2.335   5.950
    1LIG    C32   50   2.382   2.401   6.072
    1LIG    C33   51   2.442   2.328   6.197
    1LIG    O17   52   2.381   2.380   6.317
    1LIG    C34   53   2.435   2.320   6.436
    1LIG    C35   54   2.376   2.387   6.562
    1LIG    O18   55   2.414   2.316   6.682
    1LIG    C36   56   2.379   2.393   6.800
    1LIG    C37   57   2.439   2.329   6.929
    1LIG    O19   58   2.383   2.396   7.046
    1LIG    C38   59   2.439   2.343   7.168
    1LIG    C39   60   2.372   2.409   7.293
    1LIG    O20   61   2.420   2.344   7.414
    1LIG    C40   62   2.366   2.400   7.536
    1LIG    C41   63   2.427   2.328   7.661
    1LIG    O21   64   2.358   2.372   7.781
    1LIG    C42   65   2.419   2.326   7.904
    1LIG    C43   66   2.348   2.389   8.028
    1LIG    O22   67   2.403   2.335   8.151
    1LIG    C44   68   2.362   2.402   8.273
    1LIG    C45   69   2.429   2.333   8.397
    1LIG    O23   70   2.370   2.383   8.520
    1LIG    C46   71   2.432   2.326   8.639
    1LIG    C47   72   2.375   2.400   8.764
    1LIG    O24   73   2.427   2.347   8.888
    1LIG    C48   74   2.368   2.405   9.008
    1LIG    C49   75   2.430   2.340   9.135
    1LIG    O25   76   2.368   2.393   9.255
    1LIG    C50   77   2.433   2.347   9.376
    1LIG    C51   78   2.357   2.402   9.501
    1LIG    O26   79   2.413   2.348   9.625
    1LIG    C52   80   2.356   2.401   9.749
    1LIG    C53   81   2.427   2.336   9.873
    1LIG    O27   82   2.355   2.362   9.997
    1LIG    C54   83   2.432   2.331  10.117
    1LIG    C55   84   2.367   2.398  10.244
    1LIG    O28   85   2.407   2.333  10.370
    1LIG    C56   86   2.367   2.405  10.491
    1LIG    C57   87   2.427   2.342  10.623
    1LIG    O29   88   2.366   2.397  10.746
    1LIG    C58   89   2.415   2.330  10.868
    1LIG    C59   90   2.383   2.411  11.003
    1LIG      H   91   2.248   2.405   0.170
    1LIG     H1   92   2.388   2.505   0.136
    1LIG     H2   93   2.532   2.374   0.281
    1LIG     H3   94   2.429   2.231   0.274
    1LIG     H4   95   2.529   2.383   0.529
    1LIG     H5   96   2.435   2.233   0.532
    1LIG     H6   97   2.244   2.368   0.650
    1LIG     H7   98   2.349   2.502   0.662
    1LIG     H8   99   2.256   2.403   0.915
    1LIG     H9  100   2.388   2.518   0.890
    1LIG    H10  101   2.539   2.398   1.035
    1LIG    H11  102   2.442   2.250   1.027
    1LIG    H12  103   2.535   2.373   1.273
    1LIG    H13  104   2.421   2.238   1.278
    1LIG    H14  105   2.255   2.391   1.402
    1LIG    H15  106   2.373   2.516   1.400
    1LIG    H16  107   2.258   2.401   1.646
    1LIG    H17  108   2.387   2.523   1.648
    1LIG    H18  109   2.536   2.370   1.777
    1LIG    H19  110   2.416   2.238   1.766
    1LIG    H20  111   2.528   2.380   2.018
    1LIG    H21  112   2.426   2.236   2.011
    1LIG    H22  113   2.240   2.369   2.126
    1LIG    H23  114   2.344   2.503   2.145
    1LIG    H24  115   2.242   2.385   2.391
    1LIG    H25  116   2.369   2.505   2.375
    1LIG    H26  117   2.523   2.378   2.511
    1LIG    H27  118   2.430   2.228   2.497
    1LIG    H28  119   2.532   2.365   2.738
    1LIG    H29  120   2.429   2.221   2.758
    1LIG    H30  121   2.258   2.397   2.870
    1LIG    H31  122   2.398   2.501   2.881
    1LIG    H32  123   2.265   2.404   3.129
    1LIG    H33  124   2.412   2.501   3.113
    1LIG    H34  125   2.543   2.343   3.245
    1LIG    H35  126   2.410   2.225   3.248
    1LIG    H36  127   2.548   2.355   3.488
    1LIG    H37  128   2.421   2.230   3.488
    1LIG    H38  129   2.269   2.397   3.612
    1LIG    H39  130   2.407   2.507   3.624
    1LIG    H40  131   2.268   2.378   3.867
    1LIG    H41  132   2.395   2.499   3.858
    1LIG    H42  133   2.549   2.360   3.989
    1LIG    H43  134   2.445   2.216   3.973
    1LIG    H44  135   2.551   2.353   4.222
    1LIG    H45  136   2.452   2.204   4.225
    1LIG    H46  137   2.271   2.357   4.346
    1LIG    H47  138   2.399   2.472   4.363
    1LIG    H48  139   2.284   2.399   4.589
    1LIG    H49  140   2.442   2.472   4.588
    1LIG    H50  141   2.530   2.289   4.741
    1LIG    H51  142   2.383   2.199   4.722
    1LIG    H52  143   2.537   2.378   4.962
    1LIG    H53  144   2.435   2.235   4.987
    1LIG    H54  145   2.257   2.418   5.077
    1LIG    H55  146   2.398   2.520   5.095
    1LIG    H56  147   2.251   2.411   5.343
    1LIG    H57  148   2.389   2.520   5.331
    1LIG    H58  149   2.534   2.365   5.455
    1LIG    H59  150   2.410   2.238   5.454
    1LIG    H60  151   2.546   2.371   5.697
    1LIG    H61  152   2.433   2.235   5.698
    1LIG    H62  153   2.267   2.393   5.828
    1LIG    H63  154   2.394   2.506   5.842
    1LIG    H64  155   2.273   2.400   6.077
    1LIG    H65  156   2.414   2.506   6.072
    1LIG    H66  157   2.550   2.343   6.201
    1LIG    H67  158   2.426   2.220   6.192
    1LIG    H68  159   2.543   2.336   6.438
    1LIG    H69  160   2.415   2.212   6.436
    1LIG    H70  161   2.267   2.394   6.555
    1LIG    H71  162   2.416   2.488   6.568
    1LIG    H72  163   2.270   2.399   6.809
    1LIG    H73  164   2.417   2.495   6.791
    1LIG    H74  165   2.547   2.343   6.928
    1LIG    H75  166   2.416   2.222   6.932
    1LIG    H76  167   2.547   2.363   7.170
    1LIG    H77  168   2.423   2.235   7.172
    1LIG    H78  169   2.263   2.399   7.287
    1LIG    H79  170   2.396   2.516   7.296
    1LIG    H80  171   2.258   2.387   7.535
    1LIG    H81  172   2.387   2.507   7.539
    1LIG    H82  173   2.533   2.353   7.667
    1LIG    H83  174   2.419   2.219   7.652
    1LIG    H84  175   2.525   2.355   7.907
    1LIG    H85  176   2.415   2.216   7.909
    1LIG    H86  177   2.241   2.371   8.024
    1LIG    H87  178   2.358   2.498   8.023
    1LIG    H88  179   2.254   2.398   8.283
    1LIG    H89  180   2.390   2.508   8.272
    1LIG    H90  181   2.536   2.354   8.397
    1LIG    H91  182   2.417   2.224   8.392
    1LIG    H92  183   2.540   2.340   8.636
    1LIG    H93  184   2.411   2.219   8.645
    1LIG    H94  185   2.266   2.396   8.765
    1LIG    H95  186   2.402   2.505   8.756
    1LIG    H96  187   2.260   2.389   9.007
    1LIG    H97  188   2.385   2.513   9.010
    1LIG    H98  189   2.538   2.363   9.137
    1LIG    H99  190   2.416   2.232   9.132
    1LIG   H100  191   2.537   2.380   9.378
    1LIG   H101  192   2.432   2.237   9.378
    1LIG   H102  193   2.252   2.375   9.495
    1LIG   H103  194   2.359   2.511   9.499
    1LIG   H104  195   2.249   2.381   9.751
    1LIG   H105  196   2.368   2.510   9.753
    1LIG   H106  197   2.528   2.378   9.879
    1LIG   H107  198   2.438   2.227   9.858
    1LIG   H108  199   2.534   2.369  10.107
    1LIG   H109  200   2.438   2.222  10.130
    1LIG   H110  201   2.258   2.396  10.235
    1LIG   H111  202   2.397   2.503  10.246
    1LIG   H112  203   2.258   2.409  10.497
    1LIG   H113  204   2.402   2.509  10.483
    1LIG   H114  205   2.535   2.364  10.626
    1LIG   H115  206   2.415   2.233  10.621
    1LIG   H116  207   2.524   2.319  10.859
    1LIG   H117  208   2.375   2.229  10.872
    1LIG   H118  209   2.287   2.464  10.993
    1LIG   H119  210   2.460   2.487  11.016
    2LIG      O  211   2.120   2.058   0.033
    2LIG      C  212   2.159   2.132   0.156
    2LIG     C1  213   2.086   2.082   0.289
    2LIG     O1  214   2.160   2.110   0.413
    2LIG     C2  215   2.092   2.064   0.535
    2LIG     C3  216   2.143   2.138   0.664
    2LIG     O2  217   2.105   2.074   0.789
    2LIG     C4  218   2.142   2.154   0.907
    2LIG     C5  219   2.086   2.094   1.041
    2LIG     O3  220   2.162   2.136   1.159
    2LIG     C6  221   2.089   2.095   1.279
    2LIG     C7  222   2.155   2.148   1.407
    2LIG     O4  223   2.103   2.085   1.526
    2LIG     C8  224   2.143   2.156   1.645
    2LIG     C9  225   2.083   2.089   1.770
    2LIG     O5  226   2.153   2.131   1.890
    2LIG    C10  227   2.089   2.077   2.008
    2LIG    C11  228   2.149   2.137   2.139
    2LIG     O6  229   2.109   2.064   2.259
    2LIG    C12  230   2.142   2.140   2.379
    2LIG    C13  231   2.081   2.077   2.508
    2LIG     O7  232   2.153   2.123   2.626
    2LIG    C14  233   2.077   2.097   2.747
    2LIG    C15  234   2.145   2.152   2.876
    2LIG     O8  235   2.094   2.088   2.997
    2LIG    C16  236   2.145   2.149   3.119
    2LIG    C17  237   2.082   2.089   3.249
    2LIG     O9  238   2.138   2.152   3.369
    2LIG    C18  239   2.090   2.086   3.490
    2LIG    C19  240   2.153   2.147   3.619
    2LIG    O10  241   2.123   2.066   3.737
    2LIG    C20  242   2.156   2.134   3.863
    2LIG    C21  243   2.081   2.071   3.986
    2LIG    O11  244   2.141   2.114   4.113
    2LIG    C22  245   2.068   2.075   4.233
    2LIG    C23  246   2.124   2.153   4.357
    2LIG    O12  247   2.071   2.111   4.486
    2LIG    C24  248   2.136   2.182   4.596
    2LIG    C25  249   2.082   2.142   4.738
    2LIG    O13  250   2.163   2.172   4.854
    2LIG    C26  251   2.103   2.108   4.972
    2LIG    C27  252   2.161   2.160   5.103
    2LIG    O14  253   2.098   2.096   5.216
    2LIG    C28  254   2.145   2.162   5.336
    2LIG    C29  255   2.097   2.094   5.465
    2LIG    O15  256   2.157   2.160   5.579
    2LIG    C30  257   2.110   2.100   5.700
    2LIG    C31  258   2.175   2.159   5.827
    2LIG    O16  259   2.153   2.076   5.944
    2LIG    C32  260   2.168   2.151   6.067
    2LIG    C33  261   2.087   2.091   6.187
    2LIG    O17  262   2.130   2.155   6.310
    2LIG    C34  263   2.052   2.118   6.426
    2LIG    C35  264   2.114   2.178   6.557
    2LIG    O18  265   2.066   2.113   6.678
    2LIG    C36  266   2.132   2.164   6.798
    2LIG    C37  267   2.075   2.100   6.930
    2LIG    O19  268   2.139   2.156   7.048
    2LIG    C38  269   2.091   2.089   7.168
    2LIG    C39  270   2.152   2.150   7.298
    2LIG    O20  271   2.123   2.067   7.414
    2LIG    C40  272   2.160   2.132   7.540
    2LIG    C41  273   2.090   2.064   7.663
    2LIG    O21  274   2.154   2.104   7.787
    2LIG    C42  275   2.076   2.071   7.905
    2LIG    C43  276   2.139   2.137   8.030
    2LIG    O22  277   2.109   2.066   8.153
    2LIG    C44  278   2.154   2.144   8.267
    2LIG    C45  279   2.086   2.098   8.399
    2LIG    O23  280   2.157   2.143   8.518
    2LIG    C46  281   2.085   2.097   8.637
    2LIG    C47  282   2.151   2.146   8.769
    2LIG    O24  283   2.091   2.087   8.887
    2LIG    C48  284   2.140   2.149   9.009
    2LIG    C49  285   2.083   2.081   9.137
    2LIG    O25  286   2.152   2.130   9.257
    2LIG    C50  287   2.092   2.079   9.379
    2LIG    C51  288   2.155   2.142   9.507
    2LIG    O26  289   2.123   2.065   9.626
    2LIG    C52  290   2.154   2.137   9.749
    2LIG    C53  291   2.098   2.063   9.876
    2LIG    O27  292   2.160   2.112   9.998
    2LIG    C54  293   2.082   2.085  10.119
    2LIG    C55  294   2.149   2.145  10.249
    2LIG    O28  295   2.109   2.080  10.374
    2LIG    C56  296   2.158   2.147  10.496
    2LIG    C57  297   2.091   2.090  10.629
    2LIG    O29  298   2.147   2.143  10.754
    2LIG    C58  299   2.097   2.071  10.872
    2LIG    C59  300   2.149   2.134  11.008
    2LIG      H  301   2.133   2.237   0.143
    2LIG     H1  302   2.268   2.127   0.170
    2LIG     H2  303   2.069   1.974   0.284
    2LIG     H3  304   1.988   2.131   0.295
    2LIG     H4  305   2.109   1.957   0.547
    2LIG     H5  306   1.984   2.081   0.525
    2LIG     H6  307   2.101   2.239   0.664
    2LIG     H7  308   2.253   2.144   0.660
    2LIG     H8  309   2.101   2.255   0.896
    2LIG     H9  310   2.250   2.163   0.913
    2LIG    H10  311   2.084   1.985   1.036
    2LIG    H11  312   1.985   2.133   1.053
    2LIG    H12  313   2.081   1.987   1.284
    2LIG    H13  314   1.989   2.139   1.275
    2LIG    H14  315   2.128   2.254   1.413
    2LIG    H15  316   2.264   2.138   1.404
    2LIG    H16  317   2.107   2.260   1.639
    2LIG    H17  318   2.252   2.156   1.651
    2LIG    H18  319   2.095   1.981   1.759
    2LIG    H19  320   1.977   2.114   1.778
    2LIG    H20  321   2.097   1.968   2.009
    2LIG    H21  322   1.983   2.106   2.004
    2LIG    H22  323   2.107   2.238   2.148
    2LIG    H23  324   2.258   2.141   2.133
    2LIG    H24  325   2.102   2.242   2.369
    2LIG    H25  326   2.251   2.145   2.389
    2LIG    H26  327   2.084   1.968   2.502
    2LIG    H27  328   1.976   2.109   2.514
    2LIG    H28  329   2.063   1.989   2.757
    2LIG    H29  330   1.979   2.146   2.736
    2LIG    H30  331   2.120   2.258   2.882
    2LIG    H31  332   2.253   2.139   2.871
    2LIG    H32  333   2.122   2.256   3.116
    2LIG    H33  334   2.254   2.137   3.122
    2LIG    H34  335   2.098   1.981   3.253
    2LIG    H35  336   1.974   2.109   3.249
    2LIG    H36  337   2.117   1.980   3.487
    2LIG    H37  338   1.980   2.095   3.495
    2LIG    H38  339   2.114   2.249   3.633
    2LIG    H39  340   2.262   2.152   3.607
    2LIG    H40  341   2.125   2.239   3.855
    2LIG    H41  342   2.264   2.130   3.878
    2LIG    H42  343   2.084   1.962   3.980
    2LIG    H43  344   1.976   2.103   3.984
    2LIG    H44  345   2.080   1.967   4.249
    2LIG    H45  346   1.961   2.097   4.220
    2LIG    H46  347   2.100   2.259   4.343
    2LIG    H47  348   2.233   2.140   4.357
    2LIG    H48  349   2.118   2.289   4.583
    2LIG    H49  350   2.243   2.161   4.590
    2LIG    H50  351   2.070   2.034   4.739
    2LIG    H51  352   1.987   2.193   4.753
    2LIG    H52  353   2.125   2.002   4.971
    2LIG    H53  354   1.994   2.123   4.972
    2LIG    H54  355   2.142   2.266   5.108
    2LIG    H55  356   2.269   2.141   5.105
    2LIG    H56  357   2.109   2.266   5.335
    2LIG    H57  358   2.254   2.161   5.335
    2LIG    H58  359   2.126   1.988   5.465
    2LIG    H59  360   1.988   2.099   5.472
    2LIG    H60  361   2.135   1.994   5.698
    2LIG    H61  362   2.001   2.114   5.703
    2LIG    H62  363   2.128   2.257   5.843
    2LIG    H63  364   2.282   2.168   5.812
    2LIG    H64  365   2.131   2.253   6.053
    2LIG    H65  366   2.274   2.153   6.092
    2LIG    H66  367   2.103   1.983   6.193
    2LIG    H67  368   1.980   2.110   6.172
    2LIG    H68  369   2.046   2.009   6.433
    2LIG    H69  370   1.950   2.155   6.413
    2LIG    H70  371   2.089   2.285   6.562
    2LIG    H71  372   2.223   2.168   6.552
    2LIG    H72  373   2.114   2.272   6.803
    2LIG    H73  374   2.240   2.145   6.792
    2LIG    H74  375   2.088   1.992   6.928
    2LIG    H75  376   1.969   2.124   6.937
    2LIG    H76  377   2.119   1.984   7.164
    2LIG    H77  378   1.982   2.097   7.173
    2LIG    H78  379   2.111   2.251   7.313
    2LIG    H79  380   2.261   2.158   7.287
    2LIG    H80  381   2.129   2.237   7.537
    2LIG    H81  382   2.268   2.127   7.551
    2LIG    H82  383   2.094   1.955   7.654
    2LIG    H83  384   1.985   2.094   7.666
    2LIG    H84  385   2.075   1.962   7.917
    2LIG    H85  386   1.973   2.106   7.893
    2LIG    H86  387   2.099   2.239   8.037
    2LIG    H87  388   2.247   2.141   8.019
    2LIG    H88  389   2.126   2.249   8.252
    2LIG    H89  390   2.263   2.136   8.275
    2LIG    H90  391   2.078   1.990   8.400
    2LIG    H91  392   1.987   2.144   8.400
    2LIG    H92  393   2.079   1.988   8.636
    2LIG    H93  394   1.984   2.138   8.632
    2LIG    H94  395   2.132   2.254   8.774
    2LIG    H95  396   2.259   2.128   8.768
    2LIG    H96  397   2.110   2.254   9.009
    2LIG    H97  398   2.250   2.143   9.011
    2LIG    H98  399   2.098   1.973   9.131
    2LIG    H99  400   1.976   2.102   9.145
    2LIG   H100  401   2.106   1.971   9.383
    2LIG   H101  402   1.984   2.102   9.379
    2LIG   H102  403   2.113   2.242   9.518
    2LIG   H103  404   2.264   2.147   9.495
    2LIG   H104  405   2.109   2.236   9.745
    2LIG   H105  406   2.263   2.146   9.757
    2LIG   H106  407   2.119   1.956   9.868
    2LIG   H107  408   1.990   2.077   9.879
    2LIG   H108  409   2.069   1.977  10.129
    2LIG   H109  410   1.982   2.129  10.107
    2LIG   H110  411   2.119   2.251  10.255
    2LIG   H111  412   2.258   2.139  10.239
    2LIG   H112  413   2.131   2.253  10.489
    2LIG   H113  414   2.267   2.138  10.500
    2LIG   H114  415   2.100   1.982  10.630
    2LIG   H115  416   1.986   2.118  10.627
    2LIG   H116  417   2.129   1.967  10.865
    2LIG   H117  418   1.987   2.074  10.870
    2LIG   H118  419   2.257   2.145  11.001
    2LIG   H119  420   2.102   2.233  11.017
    3MOL     C1  421   2.765   1.804   5.083
    3MOL     H1  422   2.786   1.697   5.098
    3MOL     O1  423   2.806   1.842   4.950
    3MOL     C2  424   2.789   1.980   4.915
    3MOL     H2  425   2.684   2.010   4.930
    3MOL     C3  426   2.820   1.993   4.764
    3MOL     H3  427   2.783   2.089   4.726
    3MOL     H4  428   2.768   1.912   4.710
    3MOL     O2  429   2.963   1.983   4.743
    3MOL     C4  430   3.003   1.990   4.605
    3MOL     C5  431   2.850   1.885   5.186
    3MOL     H5  432   2.954   1.848   5.180
    3MOL     O3  433   2.800   1.865   5.321
    3MOL     C6  434   2.832   1.738   5.381
    3MOL     C7  435   2.852   2.037   5.156
    3MOL     H6  436   2.755   2.080   5.183
    3MOL     O4  437   2.960   2.096   5.232
    3MOL     C8  438   2.921   2.192   5.331
    3MOL     C9  439   2.881   2.066   5.006
    3MOL     H7  440   2.985   2.038   4.987
    3MOL     O5  441   2.859   2.208   4.982
    3MOL    C10  442   2.956   2.274   4.896
    3MOL     H8  443   3.037   2.205   4.871
    3MOL     O6  444   2.892   2.316   4.774
    3MOL    C11  445   2.780   2.405   4.792
    3MOL     H9  446   2.707   2.355   4.857
    3MOL    C12  447   2.713   2.427   4.656
    3MOL    H10  448   2.619   2.478   4.677
    3MOL    H11  449   2.691   2.330   4.609
    3MOL     O7  450   2.791   2.508   4.568
    3MOL    C13  451   2.712   2.540   4.451
    3MOL    C14  452   3.014   2.401   4.964
    3MOL    H12  453   3.090   2.444   4.898
    3MOL     O8  454   3.074   2.366   5.090
    3MOL    C15  455   3.196   2.291   5.082
    3MOL    C16  456   2.906   2.509   4.988
    3MOL    H13  457   2.839   2.474   5.068
    3MOL     O9  458   2.972   2.632   5.025
    3MOL    C17  459   2.954   2.670   5.163
    3MOL    C18  460   2.822   2.537   4.860
    3MOL    H14  461   2.885   2.596   4.792
    3MOL    O10  462   2.702   2.611   4.898
    3MOL    C19  463   2.664   2.724   4.814
    3MOL    H15  464   2.738   2.738   4.735
    3MOL    O11  465   2.534   2.699   4.754
    3MOL    C20  466   2.425   2.688   4.849
    3MOL    H16  467   2.451   2.610   4.921
    3MOL    C21  468   2.292   2.645   4.782
    3MOL    H17  469   2.220   2.614   4.858
    3MOL    H18  470   2.313   2.557   4.723
    3MOL    O12  471   2.235   2.745   4.695
    3MOL    C22  472   2.143   2.684   4.603
    3MOL    C23  473   2.655   2.854   4.899
    3MOL    H19  474   2.635   2.939   4.832
    3MOL    O13  475   2.779   2.876   4.969
    3MOL    C24  476   2.886   2.925   4.888
    3MOL    C25  477   2.540   2.849   5.003
    3MOL    H20  478   2.559   2.771   5.077
    3MOL    O14  479   2.529   2.980   5.065
    3MOL    C26  480   2.591   2.992   5.194
    3MOL    C27  481   2.408   2.818   4.927
    3MOL    H21  482   2.383   2.900   4.858
    3MOL    O15  483   2.301   2.792   5.019
    3MOL    C28  484   2.230   2.907   5.067
    3MOL    H22  485   2.298   2.993   5.075
    3MOL    O16  486   2.119   2.935   4.980
    3MOL    C29  487   2.025   2.827   4.963
    3MOL    H23  488   2.078   2.737   4.928
    3MOL    C30  489   1.930   2.869   4.851
    3MOL    H24  490   1.878   2.783   4.807
    3MOL    H25  491   1.990   2.912   4.772
    3MOL    O17  492   1.838   2.967   4.899
    3MOL    C31  493   1.763   3.031   4.795
    3MOL    C32  494   2.178   2.870   5.206
    3MOL    H26  495   2.135   2.960   5.253
    3MOL    O18  496   2.293   2.823   5.277
    3MOL    C33  497   2.299   2.876   5.407
    3MOL    C34  498   2.070   2.760   5.204
    3MOL    H27  499   2.119   2.664   5.178
    3MOL    O19  500   2.009   2.753   5.335
    3MOL    C35  501   1.992   2.621   5.390
    3MOL    C36  502   1.961   2.793   5.100
    3MOL    H28  503   1.905   2.881   5.137
    3MOL    O20  504   1.874   2.679   5.088
    3MOL    C37  505   1.738   2.707   5.053
    3MOL    H29  506   1.718   2.816   5.059
    3MOL    O21  507   1.714   2.662   4.918
    3MOL    C38  508   1.734   2.521   4.892
    3MOL    H30  509   1.835   2.493   4.920
    3MOL    C39  510   1.718   2.499   4.740
    3MOL    H31  511   1.753   2.398   4.715
    3MOL    H32  512   1.781   2.571   4.686
    3MOL    O22  513   1.580   2.515   4.702
    3MOL    C40  514   1.554   2.485   4.564
    3MOL    C41  515   1.641   2.635   5.149
    3MOL    H33  516   1.540   2.671   5.130
    3MOL    O23  517   1.677   2.659   5.288
    3MOL    C42  518   1.663   2.796   5.330
    3MOL    C43  519   1.642   2.481   5.126
    3MOL    H34  520   1.732   2.438   5.169
    3MOL    O24  521   1.525   2.428   5.188
    3MOL    C44  522   1.544   2.344   5.300
    3MOL    C45  523   1.631   2.444   4.977
    3MOL    H35  524   1.531   2.471   4.945
    3MOL    O25  525   1.653   2.300   4.967
    3MOL    C46  526   1.559   2.230   4.881
    3MOL    H36  527   1.481   2.298   4.846
    3MOL    O26  528   1.631   2.178   4.768
    3MOL    C47  529   1.736   2.085   4.799
    3MOL    H37  530   1.809   2.134   4.865
    3MOL    C48  531   1.808   2.047   4.670
    3MOL    H38  532   1.894   1.990   4.701
    3MOL    H39  533   1.838   2.137   4.616
    3MOL    O27  534   1.732   1.962   4.585
    3MOL    C49  535   1.822   1.915   4.483
    3MOL    C50  536   1.495   2.111   4.958
    3MOL    H40  537   1.422   2.063   4.890
    3MOL    O28  538   1.426   2.158   5.075
    3MOL    C51  539   1.306   2.232   5.046
    3MOL    C52  540   1.598   2.003   4.996
    3MOL    H41  541   1.666   2.042   5.075
    3MOL    O29  542   1.527   1.886   5.040
    3MOL    C53  543   1.526   1.865   5.182
    3MOL    C54  544   1.683   1.961   4.874
    3MOL    H42  545   1.615   1.907   4.806
    3MOL    O30  546   1.793   1.877   4.915
    3MOL    C55  547   1.809   1.750   4.843
    3MOL    H43  548   1.721   1.732   4.780
    3MOL    O31  549   1.925   1.753   4.757
    3MOL    C56  550   2.053   1.769   4.821
    3MOL    H44  551   2.056   1.866   4.867
    3MOL    C57  552   2.171   1.756   4.720
    3MOL    H45  553   2.167   1.659   4.669
    3MOL    H46  554   2.264   1.762   4.777
    3MOL    O32  555   2.170   1.862   4.624
    3MOL    C58  556   2.294   1.877   4.553
    3MOL    C59  557   1.823   1.632   4.942
    3MOL    H47  558   1.831   1.539   4.883
    3MOL    O33  559   1.708   1.625   5.028
    3MOL    C60  560   1.587   1.582   4.964
    3MOL    C61  561   1.952   1.645   5.027
    3MOL    H48  562   1.945   1.733   5.092
    3MOL    O34  563   1.974   1.523   5.103
    3MOL    C62  564   1.918   1.516   5.235
    3MOL    C63  565   2.073   1.663   4.933
    3MOL    H49  566   2.093   1.568   4.884
    3MOL    O35  567   2.185   1.705   5.012
    3MOL    C64  568   2.267   1.595   5.055
    3MOL    H50  569   2.208   1.503   5.057
    3MOL    O36  570   2.376   1.580   4.964
    3MOL    C65  571   2.468   1.691   4.956
    3MOL    H51  572   2.414   1.783   4.931
    3MOL    C66  573   2.559   1.655   4.841
    3MOL    H52  574   2.580   1.548   4.848
    3MOL    H53  575   2.652   1.712   4.842
    3MOL    O37  576   2.489   1.679   4.719
    3MOL    C67  577   2.560   1.627   4.608
    3MOL    C68  578   2.324   1.620   5.195
    3MOL    H54  579   2.369   1.526   5.229
    3MOL    O38  580   2.213   1.657   5.277
    3MOL    C69  581   2.209   1.587   5.400
    3MOL    C70  582   2.429   1.732   5.201
    3MOL    H55  583   2.378   1.827   5.181
    3MOL    O39  584   2.490   1.732   5.332
    3MOL    C71  585   2.488   1.861   5.395
    3MOL    C72  586   2.538   1.710   5.094
    3MOL    H56  587   2.595   1.619   5.119
    3MOL    O40  588   2.623   1.828   5.096
    3MOL    H57  589   3.111   1.975   4.598
    3MOL    H58  590   2.953   1.911   4.547
    3MOL    H59  591   2.977   2.087   4.562
    3MOL    H60  592   2.503   1.643   4.516
    3MOL    H61  593   2.658   1.676   4.599
    3MOL    H62  594   2.577   1.519   4.621
    3MOL    H63  595   2.296   1.972   4.498
    3MOL    H64  596   2.379   1.879   4.622
    3MOL    H65  597   2.308   1.795   4.482
    3MOL    H66  598   1.776   1.837   4.423
    3MOL    H67  599   1.852   1.998   4.418
    3MOL    H68  600   1.913   1.871   4.527
    3MOL    H69  601   1.448   2.501   4.542
    3MOL    H70  602   1.614   2.549   4.499
    3MOL    H71  603   1.578   2.380   4.543
    3MOL    H72  604   1.696   3.106   4.838
    3MOL    H73  605   1.830   3.082   4.725
    3MOL    H74  606   1.700   2.959   4.742
    3MOL    H75  607   2.108   2.756   4.528
    3MOL    H76  608   2.192   2.602   4.548
    3MOL    H77  609   2.056   2.643   4.657
    3MOL    H78  610   2.768   2.604   4.382
    3MOL    H79  611   2.683   2.448   4.399
    3MOL    H80  612   2.621   2.594   4.481
    3MOL    H81  613   3.009   2.762   5.184
    3MOL    H82  614   2.847   2.687   5.183
    3MOL    H83  615   2.990   2.591   5.230
    3MOL    H84  616   3.243   2.287   5.181
    3MOL    H85  617   3.176   2.188   5.051
    3MOL    H86  618   3.266   2.339   5.013
    3MOL    H87  619   3.009   2.240   5.374
    3MOL    H88  620   2.857   2.270   5.287
    3MOL    H89  621   2.866   2.142   5.412
    3MOL    H90  622   2.806   1.740   5.488
    3MOL    H91  623   2.775   1.658   5.333
    3MOL    H92  624   2.939   1.717   5.372
    3MOL    H93  625   2.543   1.857   5.489
    3MOL    H94  626   2.536   1.936   5.331
    3MOL    H95  627   2.384   1.892   5.415
    3MOL    H96  628   2.125   1.625   5.460
    3MOL    H97  629   2.196   1.480   5.384
    3MOL    H98  630   2.304   1.604   5.452
    3MOL    H99  631   1.946   1.421   5.282
    3MOL   H100  632   1.958   1.596   5.298
    3MOL   H101  633   1.809   1.523   5.233
    3MOL   H102  634   1.512   1.554   5.038
    3MOL   H103  635   1.545   1.663   4.903
    3MOL   H104  636   1.606   1.496   4.899
    3MOL   H105  637   1.464   1.777   5.205
    3MOL   H106  638   1.628   1.847   5.218
    3MOL   H107  639   1.484   1.952   5.233
    3MOL   H108  640   1.255   2.260   5.139
    3MOL   H109  641   1.329   2.325   4.992
    3MOL   H110  642   1.237   2.172   4.985
    3MOL   H111  643   1.450   2.328   5.354
    3MOL   H112  644   1.582   2.247   5.267
    3MOL   H113  645   1.615   2.390   5.368
    3MOL   H114  646   1.663   2.802   5.440
    3MOL   H115  647   1.745   2.857   5.292
    3MOL   H116  648   1.569   2.838   5.293
    3MOL   H117  649   1.950   2.627   5.491
    3MOL   H118  650   1.923   2.562   5.329
    3MOL   H119  651   2.089   2.568   5.396
    3MOL   H120  652   2.387   2.837   5.460
    3MOL   H121  653   2.302   2.986   5.405
    3MOL   H122  654   2.208   2.844   5.456
    3MOL   H123  655   2.584   3.097   5.228
    3MOL   H124  656   2.541   2.928   5.267
    3MOL   H125  657   2.697   2.965   5.189
    3MOL   H126  658   2.964   2.965   4.954
    3MOL   H127  659   2.928   2.844   4.827
    3MOL   H128  660   2.852   3.007   4.822
    4MOL     C1  661   1.709   1.794   6.010
    4MOL     H1  662   1.687   1.688   5.991
    4MOL     O1  663   1.664   1.829   6.140
    4MOL     C2  664   1.686   1.967   6.175
    4MOL     H2  665   1.790   1.996   6.156
    4MOL     C3  666   1.661   1.975   6.324
    4MOL     H3  667   1.693   2.073   6.360
    4MOL     H4  668   1.720   1.896   6.372
    4MOL     O2  669   1.522   1.954   6.348
    4MOL     C4  670   1.485   1.975   6.483
    4MOL     C5  671   1.629   1.883   5.907
    4MOL     H5  672   1.528   1.842   5.903
    4MOL     O3  673   1.689   1.873   5.776
    4MOL     C6  674   1.665   1.747   5.714
    4MOL     C7  675   1.612   2.033   5.944
    4MOL     H6  676   1.701   2.088   5.922
    4MOL     O4  677   1.508   2.094   5.866
    4MOL     C8  678   1.561   2.180   5.763
    4MOL     C9  679   1.590   2.057   6.093
    4MOL     H7  680   1.485   2.036   6.117
    4MOL     O5  681   1.625   2.195   6.116
    4MOL    C10  682   1.540   2.266   6.207
    4MOL     H8  683   1.455   2.204   6.238
    4MOL     O6  684   1.618   2.303   6.323
    4MOL    C11  685   1.733   2.387   6.298
    4MOL     H9  686   1.801   2.339   6.226
    4MOL    C12  687   1.810   2.405   6.431
    4MOL    H10  688   1.908   2.452   6.411
    4MOL    H11  689   1.828   2.308   6.477
    4MOL     O7  690   1.733   2.486   6.521
    4MOL    C13  691   1.802   2.517   6.642
    4MOL    C14  692   1.485   2.393   6.136
    4MOL    H12  693   1.407   2.439   6.198
    4MOL     O8  694   1.434   2.361   6.004
    4MOL    C15  695   1.305   2.297   6.001
    4MOL    C16  696   1.595   2.498   6.116
    4MOL    H13  697   1.660   2.466   6.033
    4MOL     O9  698   1.530   2.623   6.088
    4MOL    C17  699   1.551   2.669   5.955
    4MOL    C18  700   1.682   2.521   6.239
    4MOL    H14  701   1.622   2.574   6.314
    4MOL    O10  702   1.794   2.600   6.194
    4MOL    C19  703   1.829   2.711   6.277
    4MOL    H15  704   1.755   2.723   6.358
    4MOL    O11  705   1.958   2.684   6.336
    4MOL    C20  706   2.066   2.671   6.241
    4MOL    H16  707   2.043   2.592   6.169
    4MOL    C21  708   2.192   2.629   6.319
    4MOL    H17  709   2.269   2.596   6.248
    4MOL    H18  710   2.168   2.545   6.385
    4MOL    O12  711   2.238   2.742   6.394
    4MOL    C22  712   2.341   2.716   6.490
    4MOL    C23  713   1.836   2.841   6.193
    4MOL    H19  714   1.856   2.924   6.261
    4MOL    O13  715   1.711   2.864   6.125
    4MOL    C24  716   1.606   2.920   6.206
    4MOL    C25  717   1.951   2.840   6.091
    4MOL    H20  718   1.934   2.764   6.013
    4MOL    O14  719   1.960   2.973   6.034
    4MOL    C26  720   1.895   2.988   5.905
    4MOL    C27  721   2.082   2.805   6.167
    4MOL    H21  722   2.105   2.884   6.239
    4MOL    O15  723   2.191   2.789   6.076
    4MOL    C28  724   2.257   2.910   6.035
    4MOL    H22  725   2.186   2.994   6.031
    4MOL    O16  726   2.364   2.940   6.125
    4MOL    C29  727   2.462   2.836   6.141
    4MOL    H23  728   2.415   2.745   6.180
    4MOL    C30  729   2.559   2.891   6.245
    4MOL    H24  730   2.626   2.811   6.279
    4MOL    H25  731   2.503   2.927   6.332
    4MOL    O17  732   2.633   2.998   6.184
    4MOL    C31  733   2.732   3.053   6.270
    4MOL    C32  734   2.312   2.887   5.896
    4MOL    H26  735   2.349   2.982   5.856
    4MOL    O18  736   2.198   2.838   5.824
    4MOL    C33  737   2.196   2.881   5.691
    4MOL    C34  738   2.424   2.781   5.894
    4MOL    H27  739   2.377   2.684   5.912
    4MOL    O19  740   2.492   2.788   5.766
    4MOL    C35  741   2.499   2.665   5.693
    4MOL    C36  742   2.529   2.806   6.004
    4MOL    H28  743   2.587   2.893   5.971
    4MOL    O20  744   2.614   2.689   6.014
    4MOL    C37  745   2.753   2.716   6.047
    4MOL    H29  746   2.772   2.824   6.043
    4MOL    O21  747   2.782   2.668   6.179
    4MOL    C38  748   2.761   2.527   6.200
    4MOL    H30  749   2.658   2.504   6.170
    4MOL    C39  750   2.776   2.498   6.351
    4MOL    H31  751   2.740   2.397   6.372
    4MOL    H32  752   2.712   2.568   6.406
    4MOL    O22  753   2.914   2.512   6.391
    4MOL    C40  754   2.938   2.482   6.529
    4MOL    C41  755   2.848   2.645   5.948
    4MOL    H33  756   2.950   2.678   5.972
    4MOL    O23  757   2.817   2.681   5.811
    4MOL    C42  758   2.853   2.815   5.774
    4MOL    C43  759   2.845   2.491   5.962
    4MOL    H34  760   2.750   2.453   5.922
    4MOL    O24  761   2.960   2.439   5.890
    4MOL    C44  762   2.927   2.355   5.778
    4MOL    C45  763   2.859   2.448   6.110
    4MOL    H35  764   2.962   2.472   6.141
    4MOL    O25  765   2.832   2.306   6.120
    4MOL    C46  766   2.920   2.234   6.209
    4MOL    H36  767   2.999   2.300   6.245
    4MOL    O26  768   2.844   2.186   6.322
    4MOL    C47  769   2.737   2.092   6.292
    4MOL    H37  770   2.667   2.138   6.222
    4MOL    C48  771   2.661   2.063   6.423
    4MOL    H38  772   2.565   2.014   6.400
    4MOL    H39  773   2.639   2.157   6.474
    4MOL    O27  774   2.740   1.981   6.511
    4MOL    C49  775   2.669   1.936   6.627
    4MOL    C50  776   2.986   2.113   6.136
    4MOL    H40  777   3.062   2.070   6.202
    4MOL    O28  778   3.047   2.156   6.012
    4MOL    C51  779   3.169   2.230   6.026
    4MOL    C52  780   2.881   2.005   6.102
    4MOL    H41  781   2.814   2.043   6.025
    4MOL    O29  782   2.951   1.886   6.058
    4MOL    C53  783   2.947   1.861   5.917
    4MOL    C54  784   2.798   1.966   6.226
    4MOL    H42  785   2.864   1.916   6.298
    4MOL    O30  786   2.693   1.879   6.181
    4MOL    C55  787   2.673   1.758   6.257
    4MOL    H43  788   2.758   1.740   6.325
    4MOL    O31  789   2.552   1.770   6.334
    4MOL    C56  790   2.432   1.795   6.256
    4MOL    H44  791   2.441   1.888   6.199
    4MOL    C57  792   2.310   1.804   6.350
    4MOL    H45  793   2.295   1.708   6.398
    4MOL    H46  794   2.219   1.827   6.293
    4MOL    O32  795   2.332   1.907   6.448
    4MOL    C58  796   2.259   1.881   6.569
    4MOL    C59  797   2.660   1.636   6.161
    4MOL    H47  798   2.652   1.545   6.221
    4MOL    O33  799   2.775   1.628   6.075
    4MOL    C60  800   2.895   1.579   6.138
    4MOL    C61  801   2.534   1.648   6.072
    4MOL    H48  802   2.547   1.732   6.003
    4MOL    O34  803   2.514   1.522   6.003
    4MOL    C62  804   2.567   1.517   5.869
    4MOL    C63  805   2.410   1.677   6.160
    4MOL    H49  806   2.386   1.588   6.220
    4MOL    O35  807   2.299   1.712   6.076
    4MOL    C64  808   2.218   1.599   6.037
    4MOL    H50  809   2.280   1.509   6.031
    4MOL    O36  810   2.113   1.579   6.133
    4MOL    C65  811   2.012   1.683   6.142
    4MOL    H51  812   2.059   1.779   6.166
    4MOL    C66  813   1.919   1.642   6.257
    4MOL    H52  814   1.892   1.536   6.246
    4MOL    H53  815   1.827   1.701   6.256
    4MOL    O37  816   1.988   1.664   6.381
    4MOL    C67  817   1.918   1.610   6.493
    4MOL    C68  818   2.158   1.624   5.898
    4MOL    H54  819   2.118   1.529   5.861
    4MOL    O38  820   2.263   1.671   5.813
    4MOL    C69  821   2.282   1.584   5.702
    4MOL    C70  822   2.040   1.722   5.892
    4MOL    H55  823   2.079   1.825   5.900
    4MOL    O39  824   1.972   1.697   5.768
    4MOL    C71  825   1.988   1.797   5.667
    4MOL    C72  826   1.939   1.697   6.005
    4MOL    H56  827   1.883   1.605   5.984
    4MOL    O40  828   1.853   1.813   6.006
    4MOL    H57  829   1.377   1.962   6.495
    4MOL    H58  830   1.537   1.905   6.549
    4MOL    H59  831   1.511   2.078   6.513
    4MOL    H60  832   1.973   1.629   6.586
    4MOL    H61  833   1.818   1.655   6.501
    4MOL    H62  834   1.905   1.502   6.482
    4MOL    H63  835   2.272   1.965   6.638
    4MOL    H64  836   2.152   1.869   6.547
    4MOL    H65  837   2.296   1.790   6.616
    4MOL    H66  838   2.732   1.868   6.686
    4MOL    H67  839   2.640   2.022   6.690
    4MOL    H68  840   2.578   1.882   6.598
    4MOL    H69  841   3.045   2.493   6.553
    4MOL    H70  842   2.882   2.551   6.593
    4MOL    H71  843   2.909   2.379   6.552
    4MOL    H72  844   2.783   3.136   6.219
    4MOL    H73  845   2.684   3.091   6.360
    4MOL    H74  846   2.805   2.976   6.297
    4MOL    H75  847   2.381   2.810   6.529
    4MOL    H76  848   2.298   2.659   6.574
    4MOL    H77  849   2.422   2.659   6.444
    4MOL    H78  850   1.736   2.575   6.708
    4MOL    H79  851   1.830   2.425   6.695
    4MOL    H80  852   1.892   2.577   6.622
    4MOL    H81  853   1.501   2.766   5.946
    4MOL    H82  854   1.658   2.681   5.934
    4MOL    H83  855   1.507   2.599   5.882
    4MOL    H84  856   1.274   2.279   5.898
    4MOL    H85  857   1.310   2.200   6.052
    4MOL    H86  858   1.230   2.360   6.050
    4MOL    H87  859   1.480   2.211   5.696
    4MOL    H88  860   1.608   2.268   5.807
    4MOL    H89  861   1.637   2.127   5.704
    4MOL    H90  862   1.689   1.752   5.607
    4MOL    H91  863   1.726   1.668   5.760
    4MOL    H92  864   1.559   1.721   5.726
    4MOL    H93  865   1.933   1.768   5.578
    4MOL    H94  866   1.947   1.892   5.704
    4MOL    H95  867   2.094   1.808   5.642
    4MOL    H96  868   2.365   1.620   5.641
    4MOL    H97  869   2.303   1.481   5.735
    4MOL    H98  870   2.189   1.582   5.645
    4MOL    H99  871   2.537   1.422   5.822
    4MOL   H100  872   2.528   1.600   5.810
    4MOL   H101  873   2.677   1.522   5.870
    4MOL   H102  874   2.973   1.563   6.063
    4MOL   H103  875   2.932   1.652   6.211
    4MOL   H104  876   2.876   1.484   6.190
    4MOL   H105  877   3.008   1.773   5.893
    4MOL   H106  878   2.843   1.841   5.886
    4MOL   H107  879   2.985   1.947   5.861
    4MOL   H108  880   3.219   2.237   5.929
    4MOL   H109  881   3.149   2.332   6.061
    4MOL   H110  882   3.237   2.181   6.096
    4MOL   H111  883   3.019   2.319   5.730
    4MOL   H112  884   2.869   2.268   5.812
    4MOL   H113  885   2.868   2.411   5.704
    4MOL   H114  886   2.846   2.827   5.665
    4MOL   H115  887   2.785   2.888   5.821
    4MOL   H116  888   2.956   2.837   5.803
    4MOL   H117  889   2.545   2.680   5.595
    4MOL   H118  890   2.559   2.592   5.749
    4MOL   H119  891   2.398   2.627   5.675
    4MOL   H120  892   2.106   2.843   5.641
    4MOL   H121  893   2.200   2.990   5.685
    4MOL   H122  894   2.285   2.839   5.644
    4MOL   H123  895   1.896   3.093   5.875
    4MOL   H124  896   1.948   2.929   5.829
    4MOL   H125  897   1.791   2.955   5.909
    4MOL   H126  898   1.523   2.950   6.141
    4MOL   H127  899   1.570   2.845   6.277
    4MOL   H128  900   1.642   3.009   6.259
    5SOL     OW  901   0.242   0.598   0.109
    5SOL    HW1  902   0.168   0.594   0.169
    5SOL    HW2  903   0.206   0.637   0.029
    6SOL     OW  904   0.195   0.293   0.990
    6SOL    HW1  905   0.230   0.269   1.075
    6SOL    HW2  906   0.130   0.225   0.971
    7SOL     OW  907   0.004   0.380   0.640
    7SOL    HW1  908   4.427   0.419   0.683
    7SOL    HW2  909   4.468   0.308   0.588
    8SOL     OW  910   0.567   1.286   1.175
    8SOL    HW1  911   0.480   1.291   1.136
    8SOL    HW2  912   0.583   1.374   1.210
    9SOL     OW  913   1.560   1.511   0.707
    9SOL    HW1  914   1.517   1.491   0.790
    9SOL    HW2  915   1.488   1.515   0.644
   10SOL     OW  916   1.134   0.699   0.699
   10SOL    HW1  917   1.181   0.782   0.689
   10SOL    HW2  918   1.084   0.710   0.780
   11SOL     OW  919   1.776   0.602   0.217
   11SOL    HW1  920   1.722   0.606   0.138
   11SOL    HW2  921   1.737   0.532   0.270
   12SOL     OW  922   0.756   1.143   1.040
   12SOL    HW1  923   0.687   1.177   1.096
   12SOL    HW2  924   0.791   1.219   0.995
   13SOL     OW  925   0.865   0.774   1.821
   13SOL    HW1  926   0.851   0.845   1.884
   13SOL    HW2  927   0.889   0.819   1.739
   14SOL     OW  928   0.685   1.004   0.647
   14SOL    HW1  929   0.751   0.991   0.716
   14SOL    HW2  930   0.616   1.055   0.690
   15SOL     OW  931   0.710   1.150   1.812
   15SOL    HW1  932   0.757   1.229   1.838
   15SOL    HW2  933   0.627   1.182   1.776
   16SOL     OW  934   0.335   1.421   1.069
   16SOL    HW1  935   0.254   1.403   1.023
   16SOL    HW2  936   0.386   1.476   1.009
   17SOL     OW  937   1.461   1.499   1.353
   17SOL    HW1  938   1.511   1.580   1.362
   17SOL    HW2  939   1.401   1.499   1.428
   18SOL     OW  940   0.438   0.395   1.490
   18SOL    HW1  941   0.528   0.360   1.492
   18SOL    HW2  942   0.383   0.319   1.512
   19SOL     OW  943   1.611   0.447   0.739
   19SOL    HW1  944   1.530   0.467   0.693
   19SOL    HW2  945   1.629   0.525   0.791
   20SOL     OW  946   0.244   1.691   0.482
   20SOL    HW1  947   0.232   1.778   0.521
   20SOL    HW2  948   0.305   1.706   0.410
   21SOL     OW  949   1.136   1.341   1.692
   21SOL    HW1  950   1.176   1.337   1.779
   21SOL    HW2  951   1.084   1.261   1.686
   22SOL     OW  952   0.244   1.427   0.528
   22SOL    HW1  953   0.239   1.522   0.529
   22SOL    HW2  954   0.179   1.399   0.593
   23SOL     OW  955   0.245   1.082   0.883
   23SOL    HW1  956   0.264   0.993   0.913
   23SOL    HW2  957   0.187   1.118   0.949
   24SOL     OW  958   0.614   1.791   1.432
   24SOL    HW1  959   0.530   1.773   1.475
   24SOL    HW2  960   0.634   1.881   1.455
   25SOL     OW  961   0.572   0.994   0.148
   25SOL    HW1  962   0.620   1.034   0.075
   25SOL    HW2  963   0.622   1.019   0.226
   26SOL     OW  964   1.582   0.115   1.471
   26SOL    HW1  965   1.602   0.184   1.408
   26SOL    HW2  966   1.572   0.162   1.555
   27SOL     OW  967   0.136   0.644   0.575
   27SOL    HW1  968   0.084   0.566   0.592
   27SOL    HW2  969   0.109   0.706   0.642
   28SOL     OW  970   1.845   1.780   0.336
   28SOL    HW1  971   1.898   1.742   0.406
   28SOL    HW2  972   1.907   1.828   0.281
   29SOL     OW  973   0.073   1.591   0.151
   29SOL    HW1  974   0.038   1.502   0.156
   29SOL    HW2  975   0.022   1.640   0.215
   30SOL     OW  976   1.690   0.919   0.640
   30SOL    HW1  977   1.774   0.878   0.619
   30SOL    HW2  978   1.667   0.971   0.563
   31SOL     OW  979   1.646   1.105   0.432
   31SOL    HW1  980   1.728   1.117   0.384
   31SOL    HW2  981   1.651   1.168   0.504
   32SOL     OW  982   0.105   0.764   1.582
   32SOL    HW1  983   0.196   0.760   1.554
   32SOL    HW2  984   0.089   0.857   1.601
   33SOL     OW  985   0.613   1.385   0.736
   33SOL    HW1  986   0.567   1.302   0.745
   33SOL    HW2  987   0.597   1.412   0.646
   34SOL     OW  988   1.289   1.238   1.424
   34SOL    HW1  989   1.321   1.171   1.364
   34SOL    HW2  990   1.346   1.232   1.500
   35SOL     OW  991   0.821   0.011   0.552
   35SOL    HW1  992   0.858   0.089   0.512
   35SOL    HW2  993   0.726   0.021   0.542
   36SOL     OW  994   0.180   0.941   1.280
   36SOL    HW1  995   0.271   0.924   1.259
   36SOL    HW2  996   0.133   0.926   1.197
   37SOL     OW  997   1.518   1.000   0.203
   37SOL    HW1  998   1.453   0.939   0.238
   37SOL    HW2  999   1.567   1.030   0.279
   38SOL     OW 1000   1.185   1.806   1.622
   38SOL    HW1 1001   1.198   1.864   1.547
   38SOL    HW2 1002   1.201   1.718   1.587
   39SOL     OW 1003   0.318   0.260   1.769
   39SOL    HW1 1004   0.386   0.311   1.813
   39SOL    HW2 1005   0.242   0.268   1.827
   40SOL     OW 1006   1.466   1.419   0.952
   40SOL    HW1 1007   1.398   1.434   1.017
   40SOL    HW2 1008   1.454   1.328   0.925
   41SOL     OW 1009   1.657   1.736   0.580
   41SOL    HW1 1010   1.635   1.708   0.492
   41SOL    HW2 1011   1.632   1.662   0.636
   42SOL     OW 1012   0.594   0.719   0.263
   42SOL    HW1 1013   0.599   0.801   0.213
   42SOL    HW2 1014   0.532   0.738   0.333
   43SOL     OW 1015   1.289   0.361   0.934
   43SOL    HW1 1016   1.199   0.330   0.922
   43SOL    HW2 1017   1.328   0.299   0.995
   44SOL     OW 1018   1.583   1.671   0.312
   44SOL    HW1 1019   1.671   1.708   0.303
   44SOL    HW2 1020   1.556   1.651   0.223
   45SOL     OW 1021   0.797   0.617   1.454
   45SOL    HW1 1022   0.769   0.593   1.542
   45SOL    HW2 1023   0.753   0.555   1.396
   46SOL     OW 1024   1.388   0.479   1.676
   46SOL    HW1 1025   1.392   0.523   1.761
   46SOL    HW2 1026   1.455   0.411   1.682
   47SOL     OW 1027   0.955   0.888   1.582
   47SOL    HW1 1028   1.010   0.817   1.547
   47SOL    HW2 1029   0.908   0.922   1.506
   48SOL     OW 1030   0.997   0.417   1.236
   48SOL    HW1 1031   0.911   0.428   1.276
   48SOL    HW2 1032   0.981   0.367   1.156
   49SOL     OW 1033   1.049   0.701   0.428
   49SOL    HW1 1034   1.066   0.692   0.521
   49SOL    HW2 1035   0.967   0.653   0.414
   50SOL     OW 1036   0.098   0.823   0.784
   50SOL    HW1 1037   0.185   0.809   0.823
   50SOL    HW2 1038   0.045   0.859   0.855
   51SOL     OW 1039   0.123   1.858   1.577
   51SOL    HW1 1040   0.117   1.833   1.669
   51SOL    HW2 1041   0.046   1.817   1.536
   52SOL     OW 1042   0.879   0.360   0.203
   52SOL    HW1 1043   0.931   0.414   0.143
   52SOL    HW2 1044   0.906   0.271   0.185
   53SOL     OW 1045   1.704   0.574   1.828
   53SOL    HW1 1046   1.669   0.649   1.781
   53SOL    HW2 1047   1.740   0.517   1.760
   54SOL     OW 1048   1.377   1.142   0.541
   54SOL    HW1 1049   1.455   1.129   0.487
   54SOL    HW2 1050   1.324   1.204   0.492
   55SOL     OW 1051   0.541   0.204   0.900
   55SOL    HW1 1052   0.562   0.223   0.991
   55SOL    HW2 1053   0.536   0.290   0.858
   56SOL     OW 1054   1.006   1.445   0.474
   56SOL    HW1 1055   0.968   1.517   0.424
   56SOL    HW2 1056   0.988   1.466   0.565
   57SOL     OW 1057   0.355   1.810   0.859
   57SOL    HW1 1058   0.397   1.725   0.868
   57SOL    HW2 1059   0.426   1.873   0.873
   58SOL     OW 1060   1.799   1.057   0.868
   58SOL    HW1 1061   1.743   1.040   0.791
   58SOL    HW2 1062   1.738   1.063   0.941
   59SOL     OW 1063   1.228   1.539   1.513
   59SOL    HW1 1064   1.214   1.466   1.573
   59SOL    HW2 1065   1.166   1.524   1.442
   60SOL     OW 1066   0.314   0.956   0.278
   60SOL    HW1 1067   0.397   0.983   0.240
   60SOL    HW2 1068   0.308   0.862   0.257
   61SOL     OW 1069   1.479   0.740   0.724
   61SOL    HW1 1070   1.467   0.697   0.808
   61SOL    HW2 1071   1.555   0.797   0.737
   62SOL     OW 1072   0.467   1.262   1.735
   62SOL    HW1 1073   0.440   1.268   1.644
   62SOL    HW2 1074   0.385   1.267   1.785
   63SOL     OW 1075   1.108   1.779   0.227
   63SOL    HW1 1076   1.048   1.727   0.281
   63SOL    HW2 1077   1.148   1.715   0.169
   64SOL     OW 1078   0.163   0.265   1.509
   64SOL    HW1 1079   0.135   0.352   1.482
   64SOL    HW2 1080   0.198   0.278   1.598
   65SOL     OW 1081   1.627   1.374   0.091
   65SOL    HW1 1082   1.586   1.459   0.076
   65SOL    HW2 1083   1.562   1.311   0.061
   66SOL     OW 1084   0.469   1.741   0.318
   66SOL    HW1 1085   0.507   1.798   0.384
   66SOL    HW2 1086   0.543   1.713   0.264
   67SOL     OW 1087   1.419   0.134   0.425
   67SOL    HW1 1088   1.397   0.099   0.338
   67SOL    HW2 1089   1.515   0.134   0.427
   68SOL     OW 1090   0.256   1.789   1.234
   68SOL    HW1 1091   0.305   1.715   1.270
   68SOL    HW2 1092   0.227   1.759   1.148
   69SOL     OW 1093   0.938   1.699   0.899
   69SOL    HW1 1094   1.015   1.646   0.920
   69SOL    HW2 1095   0.893   1.649   0.830
   70SOL     OW 1096   0.393   0.693   0.470
   70SOL    HW1 1097   0.419   0.602   0.484
   70SOL    HW2 1098   0.302   0.696   0.500
   71SOL     OW 1099   1.525   0.233   1.722
   71SOL    HW1 1100   1.525   0.256   1.815
   71SOL    HW2 1101   1.448   0.178   1.711
   72SOL     OW 1102   0.601   0.104   0.120
   72SOL    HW1 1103   0.694   0.082   0.119
   72SOL    HW2 1104   0.568   0.072   0.036
   73SOL     OW 1105   0.768   0.269   1.754
   73SOL    HW1 1106   0.835   0.201   1.763
   73SOL    HW2 1107   0.728   0.276   1.840
   74SOL     OW 1108   0.877   1.522   1.194
   74SOL    HW1 1109   0.861   1.486   1.106
   74SOL    HW2 1110   0.946   1.467   1.230
   75SOL     OW 1111   1.341   0.589   1.429
   75SOL    HW1 1112   1.369   0.560   1.516
   75SOL    HW2 1113   1.376   0.678   1.421
   76SOL     OW 1114   0.815   1.396   0.939
   76SOL    HW1 1115   0.899   1.384   0.894
   76SOL    HW2 1116   0.750   1.396   0.868
   77SOL     OW 1117   0.924   0.516   0.900
   77SOL    HW1 1118   0.906   0.517   0.806
   77SOL    HW2 1119   0.963   0.430   0.917
   78SOL     OW 1120   0.561   0.068   0.512
   78SOL    HW1 1121   0.474   0.056   0.548
   78SOL    HW2 1122   0.551   0.138   0.447
   79SOL     OW 1123   1.425   1.196   0.030
   79SOL    HW1 1124   1.457   1.124   0.084
   79SOL    HW2 1125   1.342   1.221   0.070
   80SOL     OW 1126   0.296   0.055   0.191
   80SOL    HW1 1127   0.375   0.091   0.150
   80SOL    HW2 1128   0.330   0.000   0.262
   81SOL     OW 1129   0.951   0.227   0.445
   81SOL    HW1 1130   0.905   0.290   0.391
   81SOL    HW2 1131   1.040   0.261   0.452
   82SOL     OW 1132   1.080   0.681   1.461
   82SOL    HW1 1133   1.010   0.616   1.461
   82SOL    HW2 1134   1.160   0.629   1.449
   83SOL     OW 1135   1.224   1.570   0.794
   83SOL    HW1 1136   1.241   1.636   0.728
   83SOL    HW2 1137   1.292   1.583   0.860
   84SOL     OW 1138   0.468   1.149   0.739
   84SOL    HW1 1139   0.396   1.130   0.800
   84SOL    HW2 1140   0.430   1.136   0.652
   85SOL     OW 1141   1.269   1.794   0.606
   85SOL    HW1 1142   1.315   1.856   0.549
   85SOL    HW2 1143   1.204   1.847   0.652
   86SOL     OW 1144   1.020   0.532   0.035
   86SOL    HW1 1145   0.983   0.617   0.012
   86SOL    HW2 1146   1.094   0.553   0.093
   87SOL     OW 1147   0.093   0.519   1.412
   87SOL    HW1 1148   0.152   0.528   1.337
   87SOL    HW2 1149   0.060   0.607   1.428
   88SOL     OW 1150   0.562   0.244   1.166
   88SOL    HW1 1151   0.593   0.160   1.201
   88SOL    HW2 1152   0.468   0.245   1.185
   89SOL     OW 1153   0.861   0.510   0.629
   89SOL    HW1 1154   0.821   0.544   0.549
   89SOL    HW2 1155   0.836   0.417   0.631
   90SOL     OW 1156   0.961   0.031   0.783
   90SOL    HW1 1157   0.914   0.026   0.700
   90SOL    HW2 1158   0.982   4.440   0.804
   91SOL     OW 1159   1.437   1.162   0.857
   91SOL    HW1 1160   1.368   1.096   0.856
   91SOL    HW2 1161   1.460   1.174   0.765
   92SOL     OW 1162   1.466   0.604   0.976
   92SOL    HW1 1163   1.413   0.525   0.978
   92SOL    HW2 1164   1.524   0.597   1.052
   93SOL     OW 1165   1.849   0.814   0.379
   93SOL    HW1 1166   1.902   0.763   0.440
   93SOL    HW2 1167   1.821   0.751   0.313
   94SOL     OW 1168   0.494   1.422   0.174
   94SOL    HW1 1169   0.415   1.397   0.222
   94SOL    HW2 1170   0.490   1.374   0.092
   95SOL     OW 1171   1.671   1.265   0.647
   95SOL    HW1 1172   1.765   1.270   0.660
   95SOL    HW2 1173   1.639   1.353   0.668
   96SOL     OW 1174   1.390   0.574   0.077
   96SOL    HW1 1175   1.328   0.556   0.147
   96SOL    HW2 1176   1.460   0.510   0.089
   97SOL     OW 1177   0.524   0.262   0.325
   97SOL    HW1 1178   0.557   0.204   0.256
   97SOL    HW2 1179   0.511   0.346   0.281
   98SOL     OW 1180   1.753   1.238   1.575
   98SOL    HW1 1181   1.841   1.200   1.569
   98SOL    HW2 1182   1.769   1.329   1.602
   99SOL     OW 1183   1.059   1.354   1.334
   99SOL    HW1 1184   0.984   1.323   1.385
   99SOL    HW2 1185   1.135   1.312   1.375
  100SOL     OW 1186   1.608   1.625   1.653
  100SOL    HW1 1187   1.602   1.660   1.564
  100SOL    HW2 1188   1.692   1.578   1.655
  101SOL     OW 1189   1.128   1.203   1.106
  101SOL    HW1 1190   1.069   1.241   1.171
  101SOL    HW2 1191   1.095   1.234   1.022
  102SOL     OW 1192   1.629   1.098   1.078
  102SOL    HW1 1193   1.624   1.161   1.150
  102SOL    HW2 1194   1.550   1.115   1.027
  103SOL     OW 1195   0.902   0.133   1.388
  103SOL    HW1 1196   0.924   0.088   1.306
  103SOL    HW2 1197   0.986   0.148   1.431
  104SOL     OW 1198   0.984   1.114   1.723
  104SOL    HW1 1199   0.892   1.130   1.744
  104SOL    HW2 1200   0.983   1.037   1.667
  105SOL     OW 1201   0.710   1.059   0.374
  105SOL    HW1 1202   0.697   1.044   0.468
  105SOL    HW2 1203   0.786   1.005   0.351
  106SOL     OW 1204   0.429   0.825   1.241
  106SOL    HW1 1205   0.498   0.835   1.307
  106SOL    HW2 1206   0.371   0.758   1.277
  107SOL     OW 1207   1.269   0.376   1.273
  107SOL    HW1 1208   1.301   0.454   1.318
  107SOL    HW2 1209   1.180   0.398   1.246
  108SOL     OW 1210   0.062   1.576   1.344
  108SOL    HW1 1211   0.036   1.665   1.318
  108SOL    HW2 1212   0.158   1.580   1.348
  109SOL     OW 1213   0.348   1.117   0.499
  109SOL    HW1 1214   0.352   1.191   0.439
  109SOL    HW2 1215   0.342   1.040   0.443
  110SOL     OW 1216   0.563   0.527   0.853
  110SOL    HW1 1217   0.576   0.587   0.780
  110SOL    HW2 1218   0.624   0.558   0.921
  111SOL     OW 1219   1.247   1.346   0.395
  111SOL    HW1 1220   1.303   1.419   0.422
  111SOL    HW2 1221   1.160   1.369   0.426
  112SOL     OW 1222   1.280   1.457   1.147
  112SOL    HW1 1223   1.335   1.460   1.224
  112SOL    HW2 1224   1.225   1.380   1.159
  113SOL     OW 1225   1.585   0.627   0.475
  113SOL    HW1 1226   1.535   0.670   0.545
  113SOL    HW2 1227   1.621   0.699   0.423
  114SOL     OW 1228   0.347   1.531   1.315
  114SOL    HW1 1229   0.333   1.484   1.233
  114SOL    HW2 1230   0.442   1.541   1.322
  115SOL     OW 1231   0.484   0.761   1.669
  115SOL    HW1 1232   0.510   0.799   1.585
  115SOL    HW2 1233   0.524   0.674   1.669
  116SOL     OW 1234   1.600   0.778   1.680
  116SOL    HW1 1235   1.514   0.819   1.674
  116SOL    HW2 1236   1.653   0.820   1.612
  117SOL     OW 1237   1.005   0.086   1.720
  117SOL    HW1 1238   1.035   0.169   1.683
  117SOL    HW2 1239   1.030   0.020   1.656
  118SOL     OW 1240   0.495   0.044   1.751
  118SOL    HW1 1241   0.480   4.497   1.669
  118SOL    HW2 1242   0.429   0.113   1.752
  119SOL     OW 1243   0.589   0.874   1.024
  119SOL    HW1 1244   0.619   0.965   1.026
  119SOL    HW2 1245   0.533   0.866   1.101
  120SOL     OW 1246   1.359   0.858   1.031
  120SOL    HW1 1247   1.276   0.850   0.983
  120SOL    HW2 1248   1.398   0.771   1.024
  121SOL     OW 1249   1.200   0.532   0.266
  121SOL    HW1 1250   1.209   0.453   0.320
  121SOL    HW2 1251   1.159   0.596   0.323
  122SOL     OW 1252   0.285   0.217   1.234
  122SOL    HW1 1253   0.246   0.234   1.320
  122SOL    HW2 1254   0.325   0.131   1.243
  123SOL     OW 1255   0.041   1.313   1.285
  123SOL    HW1 1256   0.076   1.266   1.361
  123SOL    HW2 1257   0.046   1.405   1.311
  124SOL     OW 1258   0.724   0.631   1.058
  124SOL    HW1 1259   0.798   0.611   1.001
  124SOL    HW2 1260   0.698   0.720   1.033
  125SOL     OW 1261   1.734   0.959   1.852
  125SOL    HW1 1262   1.687   0.900   1.793
  125SOL    HW2 1263   1.675   0.972   1.926
  126SOL     OW 1264   0.317   0.074   0.629
  126SOL    HW1 1265   0.302   0.162   0.662
  126SOL    HW2 1266   0.307   0.017   0.706
  127SOL     OW 1267   1.617   0.377   0.364
  127SOL    HW1 1268   1.644   0.312   0.429
  127SOL    HW2 1269   1.592   0.454   0.415
  128SOL     OW 1270   1.028   0.761   0.961
  128SOL    HW1 1271   1.026   0.777   1.055
  128SOL    HW2 1272   1.000   0.670   0.951
  129SOL     OW 1273   0.983   1.566   1.716
  129SOL    HW1 1274   0.967   1.610   1.633
  129SOL    HW2 1275   1.025   1.484   1.693
  130SOL     OW 1276   1.856   1.504   1.605
  130SOL    HW1 1277   1.869   1.533   1.515
  130SOL    HW2 1278   1.937   1.528   1.650
  131SOL     OW 1279   0.346   0.933   1.818
  131SOL    HW1 1280   0.419   0.963   1.873
  131SOL    HW2 1281   0.386   0.866   1.762
  132SOL     OW 1282   1.534   0.295   0.111
  132SOL    HW1 1283   1.475   0.220   0.126
  132SOL    HW2 1284   1.566   0.317   0.198
  133SOL     OW 1285   1.288   0.823   0.032
  133SOL    HW1 1286   1.331   0.738   0.042
  133SOL    HW2 1287   1.322   0.858  11.050
  134SOL     OW 1288   1.066   1.335   0.853
  134SOL    HW1 1289   1.068   1.263   0.791
  134SOL    HW2 1290   1.127   1.399   0.819
  135SOL     OW 1291   0.318   0.813   0.948
  135SOL    HW1 1292   0.412   0.830   0.945
  135SOL    HW2 1293   0.312   0.722   0.978
  136SOL     OW 1294   0.335   0.530   0.990
  136SOL    HW1 1295   0.291   0.447   0.971
  136SOL    HW2 1296   0.413   0.529   0.935
  137SOL     OW 1297   1.135   0.374   1.696
  137SOL    HW1 1298   1.086   0.438   1.746
  137SOL    HW2 1299   1.221   0.414   1.682
  138SOL     OW 1300   1.157   0.213   1.473
  138SOL    HW1 1301   1.151   0.277   1.544
  138SOL    HW2 1302   1.196   0.261   1.401
  139SOL     OW 1303   4.496   1.324   0.200
  139SOL    HW1 1304   4.402   1.342   0.192
  139SOL    HW2 1305   0.000   1.232   0.227
  140SOL     OW 1306   0.097   1.777   0.940
  140SOL    HW1 1307   0.058   1.724   0.870
  140SOL    HW2 1308   0.184   1.798   0.908
  141SOL     OW 1309   0.497   1.573   0.907
  141SOL    HW1 1310   0.565   1.636   0.931
  141SOL    HW2 1311   0.541   1.511   0.850
  142SOL     OW 1312   0.985   0.793   1.227
  142SOL    HW1 1313   1.040   0.770   1.302
  142SOL    HW2 1314   0.899   0.755   1.247
  143SOL     OW 1315   0.037   0.566   1.110
  143SOL    HW1 1316   0.114   0.525   1.069
  143SOL    HW2 1317   0.017   0.511   1.186
  144SOL     OW 1318   0.179   0.523   1.712
  144SOL    HW1 1319   0.266   0.506   1.676
  144SOL    HW2 1320   0.151   0.603   1.668
  145SOL     OW 1321   1.377   0.939   1.659
  145SOL    HW1 1322   1.398   1.033   1.657
  145SOL    HW2 1323   1.374   0.914   1.566
  146SOL     OW 1324   0.811   0.576   0.359
  146SOL    HW1 1325   0.820   0.501   0.301
  146SOL    HW2 1326   0.738   0.626   0.324
  147SOL     OW 1327   1.641   0.601   1.187
  147SOL    HW1 1328   1.630   0.542   1.261
  147SOL    HW2 1329   1.728   0.581   1.152
  148SOL     OW 1330   0.272   1.562   1.740
  148SOL    HW1 1331   0.216   1.613   1.799
  148SOL    HW2 1332   0.253   1.471   1.763
  149SOL     OW 1333   0.686   0.464   1.267
  149SOL    HW1 1334   0.647   0.384   1.231
  149SOL    HW2 1335   0.692   0.523   1.191
  150SOL     OW 1336   0.928   1.679   1.467
  150SOL    HW1 1337   0.902   1.645   1.382
  150SOL    HW2 1338   0.925   1.774   1.458
  151SOL     OW 1339   0.475   0.484   0.182
  151SOL    HW1 1340   0.532   0.558   0.204
  151SOL    HW2 1341   0.391   0.523   0.161
  152SOL     OW 1342   0.162   1.140   1.462
  152SOL    HW1 1343   0.146   1.095   1.544
  152SOL    HW2 1344   0.169   1.071   1.397
  153SOL     OW 1345   1.326   1.047   1.224
  153SOL    HW1 1346   1.350   0.984   1.156
  153SOL    HW2 1347   1.256   1.099   1.185
  154SOL     OW 1348   1.309   0.852   0.310
  154SOL    HW1 1349   1.232   0.822   0.358
  154SOL    HW2 1350   1.285   0.839   0.218
  155SOL     OW 1351   1.767   1.744   1.148
  155SOL    HW1 1352   1.830   1.773   1.083
  155SOL    HW2 1353   1.748   1.653   1.125
  156SOL     OW 1354   1.241   1.733   1.113
  156SOL    HW1 1355   1.323   1.753   1.069
  156SOL    HW2 1356   1.246   1.639   1.132
  157SOL     OW 1357   0.066   1.185   1.050
  157SOL    HW1 1358   0.066   1.218   1.140
  157SOL    HW2 1359   0.023   1.253   0.999
  158SOL     OW 1360   0.679   1.665   1.729
  158SOL    HW1 1361   0.624   1.743   1.723
  158SOL    HW2 1362   0.742   1.676   1.658
  159SOL     OW 1363   0.878   0.065   0.124
  159SOL    HW1 1364   0.964   0.094   0.092
  159SOL    HW2 1365   0.898   0.014   0.203
  160SOL     OW 1366   1.720   0.134   0.497
  160SOL    HW1 1367   1.793   0.139   0.435
  160SOL    HW2 1368   1.739   0.056   0.549
  161SOL     OW 1369   1.390   1.568   0.485
  161SOL    HW1 1370   1.450   1.599   0.418
  161SOL    HW2 1371   1.342   1.646   0.513
  162SOL     OW 1372   0.118   1.808   1.848
  162SOL    HW1 1373   0.079   1.735   1.895
  162SOL    HW2 1374   0.182   1.845   1.909
  163SOL     OW 1375   1.279   0.927   0.673
  163SOL    HW1 1376   1.351   0.865   0.676
  163SOL    HW2 1377   1.312   1.000   0.620
  164SOL     OW 1378   0.815   1.273   1.430
  164SOL    HW1 1379   0.788   1.312   1.513
  164SOL    HW2 1380   0.745   1.295   1.369
  165SOL     OW 1381   0.675   1.620   0.167
  165SOL    HW1 1382   0.686   1.629   0.073
  165SOL    HW2 1383   0.617   1.544   0.178
  166SOL     OW 1384   1.625   1.725   1.390
  166SOL    HW1 1385   1.675   1.733   1.309
  166SOL    HW2 1386   1.613   1.816   1.420
  167SOL     OW 1387   1.839   0.154   0.966
  167SOL    HW1 1388   1.867   0.077   0.918
  167SOL    HW2 1389   1.752   0.174   0.930
  168SOL     OW 1390   0.264   0.324   0.723
  168SOL    HW1 1391   0.182   0.360   0.690
  168SOL    HW2 1392   0.251   0.316   0.817
  169SOL     OW 1393   1.223   1.602   0.052
  169SOL    HW1 1394   1.210   1.510   0.072
  169SOL    HW2 1395   1.158   1.622  11.085
  170SOL     OW 1396   0.825   1.007   1.372
  170SOL    HW1 1397   0.868   1.003   1.286
  170SOL    HW2 1398   0.825   1.100   1.395
  171SOL     OW 1399   0.914   0.907   0.282
  171SOL    HW1 1400   0.981   0.946   0.226
  171SOL    HW2 1401   0.961   0.842   0.334
  172SOL     OW 1402   1.499   1.622   0.047
  172SOL    HW1 1403   1.404   1.618   0.043
  172SOL    HW2 1404   1.526   1.637  11.056
  173SOL     OW 1405   0.373   1.307   1.491
  173SOL    HW1 1406   0.356   1.385   1.439
  173SOL    HW2 1407   0.298   1.250   1.474
  174SOL     OW 1408   1.610   1.283   1.280
  174SOL    HW1 1409   1.672   1.274   1.353
  174SOL    HW2 1410   1.551   1.352   1.307
  175SOL     OW 1411   1.051   1.106   0.705
  175SOL    HW1 1412   0.981   1.055   0.745
  175SOL    HW2 1413   1.114   1.041   0.675
  176SOL     OW 1414   1.011   0.241   0.997
  176SOL    HW1 1415   1.011   0.211   0.906
  176SOL    HW2 1416   1.001   0.161   1.049
  177SOL     OW 1417   0.602   1.490   0.483
  177SOL    HW1 1418   0.642   1.440   0.412
  177SOL    HW2 1419   0.531   1.538   0.442
  178SOL     OW 1420   1.721   0.393   1.377
  178SOL    HW1 1421   1.793   0.456   1.376
  178SOL    HW2 1422   1.751   0.322   1.321
  179SOL     OW 1423   0.263   1.329   0.284
  179SOL    HW1 1424   0.175   1.342   0.247
  179SOL    HW2 1425   0.258   1.369   0.370
  180SOL     OW 1426   0.115   1.007   1.695
  180SOL    HW1 1427   0.052   1.050   1.753
  180SOL    HW2 1428   0.194   0.997   1.749
  181SOL     OW 1429   0.658   0.209   1.497
  181SOL    HW1 1430   0.738   0.182   1.451
  181SOL    HW2 1431   0.687   0.225   1.587
  182SOL     OW 1432   0.051   0.339   0.014
  182SOL    HW1 1433   4.460   0.331   0.042
  182SOL    HW2 1434   0.071   0.433   0.023
  183SOL     OW 1435   1.430   0.858   1.400
  183SOL    HW1 1436   1.381   0.919   1.344
  183SOL    HW2 1437   1.520   0.861   1.366
  184SOL     OW 1438   0.081   0.183   0.296
  184SOL    HW1 1439   0.084   0.263   0.243
  184SOL    HW2 1440   0.158   0.134   0.269
  185SOL     OW 1441   1.182   1.340   0.122
  185SOL    HW1 1442   1.089   1.322   0.115
  185SOL    HW2 1443   1.202   1.333   0.215
  186SOL     OW 1444   0.623   0.830   1.429
  186SOL    HW1 1445   0.677   0.908   1.416
  186SOL    HW2 1446   0.685   0.758   1.438
  187SOL     OW 1447   1.485   1.776   0.978
  187SOL    HW1 1448   1.507   1.837   0.908
  187SOL    HW2 1449   1.568   1.760   1.024
  188SOL     OW 1450   0.714   0.562   1.705
  188SOL    HW1 1451   0.750   0.628   1.763
  188SOL    HW2 1452   0.750   0.479   1.737
  189SOL     OW 1453   1.471   1.201   1.632
  189SOL    HW1 1454   1.459   1.215   1.726
  189SOL    HW2 1455   1.564   1.215   1.618
  190SOL     OW 1456   0.380   1.744   1.564
  190SOL    HW1 1457   0.295   1.784   1.547
  190SOL    HW2 1458   0.359   1.663   1.612
  191SOL     OW 1459   1.670   0.881   1.255
  191SOL    HW1 1460   1.662   0.797   1.212
  191SOL    HW2 1461   1.661   0.946   1.185
  192SOL     OW 1462   1.218   0.327   0.447
  192SOL    HW1 1463   1.284   0.259   0.437
  192SOL    HW2 1464   1.244   0.373   0.527
  193SOL     OW 1465   0.585   0.738   0.670
  193SOL    HW1 1466   0.628   0.823   0.655
  193SOL    HW2 1467   0.519   0.732   0.602
  194SOL     OW 1468   1.763   0.364   1.644
  194SOL    HW1 1469   1.747   0.378   1.550
  194SOL    HW2 1470   1.684   0.319   1.675
  195SOL     OW 1471   1.745   0.933   1.512
  195SOL    HW1 1472   1.743   1.028   1.526
  195SOL    HW2 1473   1.730   0.922   1.419
  196SOL     OW 1474   0.903   1.357   0.067
  196SOL    HW1 1475   0.832   1.357   0.132
  196SOL    HW2 1476   0.891   1.438   0.018
  197SOL     OW 1477   0.660   1.792   0.947
  197SOL    HW1 1478   0.639   1.882   0.921
  197SOL    HW2 1479   0.755   1.786   0.937
  198SOL     OW 1480   0.867   0.967   0.855
  198SOL    HW1 1481   0.917   0.895   0.894
  198SOL    HW2 1482   0.833   1.016   0.929
  199SOL     OW 1483   1.079   0.990   0.086
  199SOL    HW1 1484   1.054   1.024  11.100
  199SOL    HW2 1485   1.155   0.934   0.068
  200SOL     OW 1486   1.855   1.551   0.841
  200SOL    HW1 1487   1.774   1.543   0.792
  200SOL    HW2 1488   1.845   1.491   0.915
  201SOL     OW 1489   0.230   1.306   1.858
  201SOL    HW1 1490   0.157   1.248   1.835
  201SOL    HW2 1491   0.224   1.316   1.953
  202SOL     OW 1492   0.103   1.232   0.668
  202SOL    HW1 1493   0.120   1.188   0.751
  202SOL    HW2 1494   0.168   1.196   0.608
  203SOL     OW 1495   0.682   1.402   1.628
  203SOL    HW1 1496   0.601   1.359   1.656
  203SOL    HW2 1497   0.676   1.490   1.665
  204SOL     OW 1498   1.809   0.182   1.238
  204SOL    HW1 1499   1.806   0.088   1.259
  204SOL    HW2 1500   1.825   0.185   1.144
  205SOL     OW 1501   0.439   0.431   0.530
  205SOL    HW1 1502   0.459   0.360   0.469
  205SOL    HW2 1503   0.382   0.391   0.595
  206SOL     OW 1504   1.703   1.487   1.093
  206SOL    HW1 1505   1.620   1.464   1.051
  206SOL    HW2 1506   1.715   1.421   1.161
  207SOL     OW 1507   0.311   0.505   1.254
  207SOL    HW1 1508   0.383   0.456   1.294
  207SOL    HW2 1509   0.337   0.515   1.162
  208SOL     OW 1510   0.827   1.578   0.678
  208SOL    HW1 1511   0.815   1.629   0.599
  208SOL    HW2 1512   0.750   1.521   0.682
  209SOL     OW 1513   1.432   0.216   1.117
  209SOL    HW1 1514   1.467   0.145   1.170
  209SOL    HW2 1515   1.381   0.269   1.179
  210SOL     OW 1516   0.996   0.010   1.150
  210SOL    HW1 1517   0.953   4.425   1.140
  210SOL    HW2 1518   1.089   4.489   1.161
  211SOL     OW 1519   0.768   1.328   0.316
  211SOL    HW1 1520   0.739   1.238   0.329
  211SOL    HW2 1521   0.852   1.333   0.360
  212SOL     OW 1522   0.621   1.557   1.285
  212SOL    HW1 1523   0.623   1.638   1.335
  212SOL    HW2 1524   0.708   1.549   1.246
  213SOL     OW 1525   1.350   0.059   0.169
  213SOL    HW1 1526   1.385   0.000   0.102
  213SOL    HW2 1527   1.269   0.015   0.198
  214SOL     OW 1528   1.315   0.463   0.678
  214SOL    HW1 1529   1.254   0.536   0.678
  214SOL    HW2 1530   1.302   0.420   0.763
  215SOL     OW 1531   1.586   0.201   0.868
  215SOL    HW1 1532   1.526   0.216   0.941
  215SOL    HW2 1533   1.588   0.284   0.821
  216SOL     OW 1534   0.038   1.050   0.283
  216SOL    HW1 1535   0.134   1.045   0.284
  216SOL    HW2 1536   0.012   1.018   0.369
  217SOL     OW 1537   0.885   1.653   0.347
  217SOL    HW1 1538   0.813   1.633   0.287
  217SOL    HW2 1539   0.853   1.727   0.398
  218SOL     OW 1540   0.247   0.627   1.983
  218SOL    HW1 1541   0.172   0.607   2.039
  218SOL    HW2 1542   0.214   0.613   1.894
  219SOL     OW 1543   0.194   0.293   2.851
  219SOL    HW1 1544   0.229   0.268   2.937
  219SOL    HW2 1545   0.132   0.224   2.830
  220SOL     OW 1546   0.004   0.381   2.502
  220SOL    HW1 1547   4.426   0.418   2.543
  220SOL    HW2 1548   4.471   0.309   2.448
  221SOL     OW 1549   0.567   1.286   3.037
  221SOL    HW1 1550   0.480   1.291   2.998
  221SOL    HW2 1551   0.583   1.374   3.072
  222SOL     OW 1552   1.559   1.510   2.569
  222SOL    HW1 1553   1.516   1.492   2.653
  222SOL    HW2 1554   1.488   1.515   2.506
  223SOL     OW 1555   1.134   0.699   2.561
  223SOL    HW1 1556   1.181   0.782   2.550
  223SOL    HW2 1557   1.084   0.710   2.642
  224SOL     OW 1558   1.767   0.607   2.090
  224SOL    HW1 1559   1.746   0.598   1.997
  224SOL    HW2 1560   1.734   0.527   2.130
  225SOL     OW 1561   0.756   1.143   2.902
  225SOL    HW1 1562   0.687   1.177   2.959
  225SOL    HW2 1563   0.791   1.220   2.857
  226SOL     OW 1564   0.865   0.774   3.683
  226SOL    HW1 1565   0.851   0.845   3.745
  226SOL    HW2 1566   0.889   0.819   3.601
  227SOL     OW 1567   0.685   1.004   2.510
  227SOL    HW1 1568   0.751   0.991   2.578
  227SOL    HW2 1569   0.616   1.055   2.552
  228SOL     OW 1570   0.710   1.150   3.674
  228SOL    HW1 1571   0.757   1.229   3.700
  228SOL    HW2 1572   0.627   1.182   3.638
  229SOL     OW 1573   0.336   1.422   2.932
  229SOL    HW1 1574   0.254   1.402   2.885
  229SOL    HW2 1575   0.386   1.476   2.870
  230SOL     OW 1576   1.461   1.499   3.215
  230SOL    HW1 1577   1.511   1.580   3.224
  230SOL    HW2 1578   1.401   1.499   3.289
  231SOL     OW 1579   0.439   0.394   3.353
  231SOL    HW1 1580   0.528   0.359   3.354
  231SOL    HW2 1581   0.383   0.319   3.373
  232SOL     OW 1582   1.611   0.446   2.600
  232SOL    HW1 1583   1.531   0.468   2.553
  232SOL    HW2 1584   1.630   0.524   2.653
  233SOL     OW 1585   0.245   1.692   2.340
  233SOL    HW1 1586   0.231   1.777   2.381
  233SOL    HW2 1587   0.313   1.708   2.274
  234SOL     OW 1588   1.136   1.341   3.554
  234SOL    HW1 1589   1.176   1.337   3.641
  234SOL    HW2 1590   1.084   1.262   3.548
  235SOL     OW 1591   0.248   1.427   2.389
  235SOL    HW1 1592   0.239   1.522   2.392
  235SOL    HW2 1593   0.184   1.395   2.453
  236SOL     OW 1594   0.247   1.082   2.746
  236SOL    HW1 1595   0.264   0.992   2.775
  236SOL    HW2 1596   0.187   1.118   2.811
  237SOL     OW 1597   0.614   1.791   3.294
  237SOL    HW1 1598   0.530   1.773   3.337
  237SOL    HW2 1599   0.634   1.881   3.317
  238SOL     OW 1600   0.580   0.986   2.000
  238SOL    HW1 1601   0.627   1.030   1.929
  238SOL    HW2 1602   0.625   1.015   2.079
  239SOL     OW 1603   1.582   0.115   3.333
  239SOL    HW1 1604   1.603   0.184   3.270
  239SOL    HW2 1605   1.572   0.161   3.417
  240SOL     OW 1606   0.136   0.643   2.436
  240SOL    HW1 1607   0.084   0.565   2.454
  240SOL    HW2 1608   0.108   0.706   2.503
  241SOL     OW 1609   1.839   1.733   2.201
  241SOL    HW1 1610   1.906   1.716   2.267
  241SOL    HW2 1611   1.843   1.828   2.188
  242SOL     OW 1612   0.032   1.602   2.002
  242SOL    HW1 1613   0.021   1.507   1.999
  242SOL    HW2 1614   0.020   1.625   2.094
  243SOL     OW 1615   1.691   0.920   2.502
  243SOL    HW1 1616   1.774   0.878   2.480
  243SOL    HW2 1617   1.668   0.970   2.424
  244SOL     OW 1618   1.646   1.107   2.291
  244SOL    HW1 1619   1.731   1.114   2.249
  244SOL    HW2 1620   1.650   1.168   2.365
  245SOL     OW 1621   0.105   0.764   3.444
  245SOL    HW1 1622   0.196   0.760   3.417
  245SOL    HW2 1623   0.089   0.857   3.463
  246SOL     OW 1624   0.613   1.384   2.598
  246SOL    HW1 1625   0.566   1.301   2.607
  246SOL    HW2 1626   0.597   1.411   2.508
  247SOL     OW 1627   1.289   1.238   3.286
  247SOL    HW1 1628   1.321   1.171   3.226
  247SOL    HW2 1629   1.346   1.232   3.362
  248SOL     OW 1630   0.820   0.013   2.413
  248SOL    HW1 1631   0.854   0.099   2.388
  248SOL    HW2 1632   0.725   0.021   2.401
  249SOL     OW 1633   0.180   0.941   3.141
  249SOL    HW1 1634   0.272   0.923   3.121
  249SOL    HW2 1635   0.133   0.925   3.059
  250SOL     OW 1636   1.532   0.992   2.060
  250SOL    HW1 1637   1.461   0.936   2.092
  250SOL    HW2 1638   1.572   1.027   2.140
  251SOL     OW 1639   1.186   1.806   3.484
  251SOL    HW1 1640   1.197   1.864   3.408
  251SOL    HW2 1641   1.201   1.718   3.449
  252SOL     OW 1642   0.318   0.260   3.632
  252SOL    HW1 1643   0.386   0.312   3.675
  252SOL    HW2 1644   0.242   0.268   3.689
  253SOL     OW 1645   1.466   1.419   2.814
  253SOL    HW1 1646   1.397   1.434   2.879
  253SOL    HW2 1647   1.453   1.328   2.787
  254SOL     OW 1648   1.661   1.732   2.443
  254SOL    HW1 1649   1.639   1.704   2.354
  254SOL    HW2 1650   1.633   1.659   2.498
  255SOL     OW 1651   0.596   0.723   2.127
  255SOL    HW1 1652   0.599   0.804   2.077
  255SOL    HW2 1653   0.530   0.739   2.195
  256SOL     OW 1654   1.291   0.362   2.795
  256SOL    HW1 1655   1.202   0.332   2.779
  256SOL    HW2 1656   1.327   0.299   2.858
  257SOL     OW 1657   1.575   1.668   2.170
  257SOL    HW1 1658   1.668   1.689   2.166
  257SOL    HW2 1659   1.549   1.653   2.079
  258SOL     OW 1660   0.797   0.618   3.316
  258SOL    HW1 1661   0.769   0.593   3.404
  258SOL    HW2 1662   0.754   0.555   3.258
  259SOL     OW 1663   1.388   0.479   3.538
  259SOL    HW1 1664   1.392   0.523   3.623
  259SOL    HW2 1665   1.455   0.411   3.544
  260SOL     OW 1666   0.956   0.888   3.444
  260SOL    HW1 1667   1.010   0.817   3.409
  260SOL    HW2 1668   0.908   0.922   3.368
  261SOL     OW 1669   0.997   0.417   3.098
  261SOL    HW1 1670   0.910   0.427   3.137
  261SOL    HW2 1671   0.982   0.365   3.019
  262SOL     OW 1672   1.050   0.698   2.289
  262SOL    HW1 1673   1.066   0.690   2.383
  262SOL    HW2 1674   0.967   0.651   2.275
  263SOL     OW 1675   0.098   0.825   2.646
  263SOL    HW1 1676   0.184   0.809   2.683
  263SOL    HW2 1677   0.045   0.857   2.719
  264SOL     OW 1678   0.123   1.858   3.439
  264SOL    HW1 1679   0.117   1.833   3.531
  264SOL    HW2 1680   0.046   1.817   3.398
  265SOL     OW 1681   0.853   0.369   2.041
  265SOL    HW1 1682   0.927   0.404   1.992
  265SOL    HW2 1683   0.871   0.275   2.047
  266SOL     OW 1684   1.704   0.574   3.690
  266SOL    HW1 1685   1.669   0.649   3.643
  266SOL    HW2 1686   1.740   0.517   3.622
  267SOL     OW 1687   1.377   1.143   2.403
  267SOL    HW1 1688   1.455   1.130   2.350
  267SOL    HW2 1689   1.324   1.205   2.353
  268SOL     OW 1690   0.542   0.204   2.763
  268SOL    HW1 1691   0.562   0.223   2.854
  268SOL    HW2 1692   0.533   0.289   2.721
  269SOL     OW 1693   1.006   1.445   2.335
  269SOL    HW1 1694   0.968   1.517   2.285
  269SOL    HW2 1695   0.989   1.466   2.426
  270SOL     OW 1696   0.356   1.810   2.720
  270SOL    HW1 1697   0.398   1.724   2.730
  270SOL    HW2 1698   0.426   1.873   2.736
  271SOL     OW 1699   1.799   1.058   2.729
  271SOL    HW1 1700   1.744   1.040   2.653
  271SOL    HW2 1701   1.738   1.063   2.802
  272SOL     OW 1702   1.228   1.539   3.375
  272SOL    HW1 1703   1.214   1.466   3.435
  272SOL    HW2 1704   1.166   1.524   3.304
  273SOL     OW 1705   0.316   0.954   2.114
  273SOL    HW1 1706   0.400   0.977   2.075
  273SOL    HW2 1707   0.300   0.864   2.086
  274SOL     OW 1708   1.479   0.741   2.587
  274SOL    HW1 1709   1.467   0.697   2.671
  274SOL    HW2 1710   1.555   0.798   2.600
  275SOL     OW 1711   0.467   1.262   3.597
  275SOL    HW1 1712   0.440   1.268   3.506
  275SOL    HW2 1713   0.385   1.267   3.647
  276SOL     OW 1714   1.122   1.778   2.093
  276SOL    HW1 1715   1.049   1.736   2.139
  276SOL    HW2 1716   1.144   1.717   2.023
  277SOL     OW 1717   0.163   0.265   3.371
  277SOL    HW1 1718   0.136   0.352   3.344
  277SOL    HW2 1719   0.198   0.278   3.460
  278SOL     OW 1720   1.628   1.380   1.950
  278SOL    HW1 1721   1.588   1.465   1.934
  278SOL    HW2 1722   1.560   1.316   1.931
  279SOL     OW 1723   0.469   1.743   2.176
  279SOL    HW1 1724   0.511   1.797   2.244
  279SOL    HW2 1725   0.542   1.709   2.124
  280SOL     OW 1726   1.420   0.137   2.280
  280SOL    HW1 1727   1.403   0.086   2.200
  280SOL    HW2 1728   1.514   0.131   2.293
  281SOL     OW 1729   0.256   1.789   3.096
  281SOL    HW1 1730   0.305   1.715   3.133
  281SOL    HW2 1731   0.226   1.759   3.011
  282SOL     OW 1732   0.938   1.699   2.761
  282SOL    HW1 1733   1.015   1.646   2.782
  282SOL    HW2 1734   0.893   1.649   2.692
  283SOL     OW 1735   0.394   0.693   2.335
  283SOL    HW1 1736   0.419   0.602   2.347
  283SOL    HW2 1737   0.302   0.697   2.361
  284SOL     OW 1738   1.525   0.233   3.584
  284SOL    HW1 1739   1.525   0.256   3.677
  284SOL    HW2 1740   1.448   0.178   3.573
  285SOL     OW 1741   0.624   0.121   1.980
  285SOL    HW1 1742   0.712   0.086   1.992
  285SOL    HW2 1743   0.594   0.084   1.897
  286SOL     OW 1744   0.768   0.269   3.616
  286SOL    HW1 1745   0.835   0.201   3.625
  286SOL    HW2 1746   0.728   0.275   3.702
  287SOL     OW 1747   0.877   1.522   3.056
  287SOL    HW1 1748   0.861   1.486   2.968
  287SOL    HW2 1749   0.946   1.467   3.092
  288SOL     OW 1750   1.341   0.589   3.291
  288SOL    HW1 1751   1.369   0.560   3.378
  288SOL    HW2 1752   1.376   0.678   3.283
  289SOL     OW 1753   0.815   1.396   2.801
  289SOL    HW1 1754   0.899   1.384   2.756
  289SOL    HW2 1755   0.750   1.396   2.730
  290SOL     OW 1756   0.923   0.518   2.762
  290SOL    HW1 1757   0.906   0.516   2.668
  290SOL    HW2 1758   0.961   0.432   2.781
  291SOL     OW 1759   0.561   0.068   2.370
  291SOL    HW1 1760   0.474   0.055   2.408
  291SOL    HW2 1761   0.549   0.139   2.307
  292SOL     OW 1762   1.428   1.198   1.903
  292SOL    HW1 1763   1.458   1.122   1.953
  292SOL    HW2 1764   1.342   1.219   1.940
  293SOL     OW 1765   0.304   0.074   2.049
  293SOL    HW1 1766   0.388   0.121   2.046
  293SOL    HW2 1767   0.320   4.499   2.106
  294SOL     OW 1768   0.953   0.240   2.332
  294SOL    HW1 1769   0.901   0.295   2.273
  294SOL    HW2 1770   1.041   0.276   2.325
  295SOL     OW 1771   1.080   0.681   3.323
  295SOL    HW1 1772   1.010   0.616   3.323
  295SOL    HW2 1773   1.160   0.629   3.311
  296SOL     OW 1774   1.224   1.570   2.656
  296SOL    HW1 1775   1.241   1.637   2.590
  296SOL    HW2 1776   1.292   1.584   2.722
  297SOL     OW 1777   0.466   1.149   2.598
  297SOL    HW1 1778   0.395   1.130   2.660
  297SOL    HW2 1779   0.427   1.133   2.512
  298SOL     OW 1780   1.269   1.794   2.469
  298SOL    HW1 1781   1.315   1.856   2.412
  298SOL    HW2 1782   1.204   1.847   2.514
  299SOL     OW 1783   1.029   0.548   1.879
  299SOL    HW1 1784   0.981   0.629   1.863
  299SOL    HW2 1785   1.088   0.568   1.951
  300SOL     OW 1786   0.094   0.519   3.275
  300SOL    HW1 1787   0.151   0.528   3.199
  300SOL    HW2 1788   0.059   0.607   3.290
  301SOL     OW 1789   0.562   0.244   3.028
  301SOL    HW1 1790   0.592   0.160   3.064
  301SOL    HW2 1791   0.468   0.245   3.047
  302SOL     OW 1792   0.866   0.503   2.489
  302SOL    HW1 1793   0.820   0.544   2.415
  302SOL    HW2 1794   0.835   0.412   2.488
  303SOL     OW 1795   0.964   0.026   2.645
  303SOL    HW1 1796   0.916   0.024   2.562
  303SOL    HW2 1797   0.977   4.433   2.666
  304SOL     OW 1798   1.437   1.162   2.719
  304SOL    HW1 1799   1.368   1.096   2.718
  304SOL    HW2 1800   1.460   1.174   2.627
  305SOL     OW 1801   1.466   0.604   2.838
  305SOL    HW1 1802   1.413   0.525   2.840
  305SOL    HW2 1803   1.524   0.597   2.913
  306SOL     OW 1804   1.846   0.817   2.245
  306SOL    HW1 1805   1.902   0.765   2.302
  306SOL    HW2 1806   1.817   0.755   2.177
  307SOL     OW 1807   0.492   1.417   2.022
  307SOL    HW1 1808   0.415   1.387   2.071
  307SOL    HW2 1809   0.474   1.390   1.931
  308SOL     OW 1810   1.670   1.265   2.508
  308SOL    HW1 1811   1.765   1.270   2.522
  308SOL    HW2 1812   1.639   1.352   2.530
  309SOL     OW 1813   1.394   0.570   1.932
  309SOL    HW1 1814   1.333   0.555   2.003
  309SOL    HW2 1815   1.480   0.552   1.969
  310SOL     OW 1816   0.522   0.264   2.183
  310SOL    HW1 1817   0.570   0.214   2.117
  310SOL    HW2 1818   0.506   0.349   2.142
  311SOL     OW 1819   1.753   1.238   3.437
  311SOL    HW1 1820   1.841   1.199   3.431
  311SOL    HW2 1821   1.769   1.329   3.464
  312SOL     OW 1822   1.059   1.354   3.196
  312SOL    HW1 1823   0.984   1.323   3.247
  312SOL    HW2 1824   1.135   1.312   3.237
  313SOL     OW 1825   1.609   1.626   3.515
  313SOL    HW1 1826   1.602   1.660   3.426
  313SOL    HW2 1827   1.692   1.578   3.516
  314SOL     OW 1828   1.128   1.203   2.968
  314SOL    HW1 1829   1.069   1.241   3.033
  314SOL    HW2 1830   1.095   1.234   2.884
  315SOL     OW 1831   1.629   1.098   2.939
  315SOL    HW1 1832   1.625   1.161   3.012
  315SOL    HW2 1833   1.550   1.115   2.889
  316SOL     OW 1834   0.902   0.133   3.250
  316SOL    HW1 1835   0.924   0.088   3.168
  316SOL    HW2 1836   0.986   0.147   3.293
  317SOL     OW 1837   0.984   1.114   3.585
  317SOL    HW1 1838   0.892   1.130   3.606
  317SOL    HW2 1839   0.983   1.037   3.529
  318SOL     OW 1840   0.708   1.061   2.234
  318SOL    HW1 1841   0.696   1.045   2.328
  318SOL    HW2 1842   0.784   1.007   2.211
  319SOL     OW 1843   0.429   0.826   3.103
  319SOL    HW1 1844   0.498   0.835   3.169
  319SOL    HW2 1845   0.372   0.758   3.138
  320SOL     OW 1846   1.269   0.376   3.135
  320SOL    HW1 1847   1.301   0.454   3.179
  320SOL    HW2 1848   1.180   0.398   3.108
  321SOL     OW 1849   0.062   1.576   3.205
  321SOL    HW1 1850   0.036   1.665   3.180
  321SOL    HW2 1851   0.158   1.580   3.210
  322SOL     OW 1852   0.347   1.108   2.355
  322SOL    HW1 1853   0.357   1.182   2.295
  322SOL    HW2 1854   0.348   1.031   2.299
  323SOL     OW 1855   0.564   0.526   2.715
  323SOL    HW1 1856   0.575   0.587   2.642
  323SOL    HW2 1857   0.623   0.558   2.783
  324SOL     OW 1858   1.248   1.348   2.251
  324SOL    HW1 1859   1.303   1.420   2.282
  324SOL    HW2 1860   1.161   1.369   2.285
  325SOL     OW 1861   1.280   1.457   3.009
  325SOL    HW1 1862   1.335   1.459   3.086
  325SOL    HW2 1863   1.225   1.380   3.021
  326SOL     OW 1864   1.582   0.623   2.339
  326SOL    HW1 1865   1.536   0.674   2.405
  326SOL    HW2 1866   1.626   0.689   2.285
  327SOL     OW 1867   0.347   1.531   3.177
  327SOL    HW1 1868   0.333   1.484   3.095
  327SOL    HW2 1869   0.442   1.541   3.184
  328SOL     OW 1870   0.485   0.761   3.531
  328SOL    HW1 1871   0.510   0.799   3.447
  328SOL    HW2 1872   0.523   0.674   3.531
  329SOL     OW 1873   1.600   0.778   3.542
  329SOL    HW1 1874   1.514   0.819   3.536
  329SOL    HW2 1875   1.653   0.820   3.475
  330SOL     OW 1876   1.005   0.086   3.582
  330SOL    HW1 1877   1.034   0.169   3.545
  330SOL    HW2 1878   1.030   0.020   3.518
  331SOL     OW 1879   0.495   0.044   3.613
  331SOL    HW1 1880   0.480   4.497   3.531
  331SOL    HW2 1881   0.429   0.113   3.614
  332SOL     OW 1882   0.589   0.874   2.886
  332SOL    HW1 1883   0.619   0.965   2.888
  332SOL    HW2 1884   0.533   0.865   2.963
  333SOL     OW 1885   1.358   0.858   2.892
  333SOL    HW1 1886   1.275   0.850   2.846
  333SOL    HW2 1887   1.398   0.771   2.886
  334SOL     OW 1888   1.204   0.535   2.125
  334SOL    HW1 1889   1.210   0.455   2.177
  334SOL    HW2 1890   1.161   0.598   2.183
  335SOL     OW 1891   0.285   0.218   3.097
  335SOL    HW1 1892   0.246   0.234   3.182
  335SOL    HW2 1893   0.325   0.131   3.105
  336SOL     OW 1894   0.041   1.313   3.147
  336SOL    HW1 1895   0.076   1.265   3.223
  336SOL    HW2 1896   0.046   1.405   3.173
  337SOL     OW 1897   0.724   0.631   2.920
  337SOL    HW1 1898   0.798   0.611   2.863
  337SOL    HW2 1899   0.698   0.720   2.895
  338SOL     OW 1900   1.734   0.959   3.714
  338SOL    HW1 1901   1.687   0.900   3.655
  338SOL    HW2 1902   1.674   0.972   3.788
  339SOL     OW 1903   0.320   0.074   2.493
  339SOL    HW1 1904   0.302   0.163   2.525
  339SOL    HW2 1905   0.307   0.018   2.570
  340SOL     OW 1906   1.614   0.377   2.225
  340SOL    HW1 1907   1.643   0.314   2.291
  340SOL    HW2 1908   1.591   0.455   2.276
  341SOL     OW 1909   1.029   0.761   2.823
  341SOL    HW1 1910   1.026   0.778   2.918
  341SOL    HW2 1911   1.000   0.671   2.814
  342SOL     OW 1912   0.983   1.567   3.578
  342SOL    HW1 1913   0.967   1.610   3.495
  342SOL    HW2 1914   1.025   1.484   3.555
  343SOL     OW 1915   1.855   1.504   3.467
  343SOL    HW1 1916   1.870   1.532   3.377
  343SOL    HW2 1917   1.937   1.526   3.512
  344SOL     OW 1918   0.347   0.933   3.680
  344SOL    HW1 1919   0.419   0.963   3.735
  344SOL    HW2 1920   0.386   0.866   3.624
  345SOL     OW 1921   1.531   0.265   1.990
  345SOL    HW1 1922   1.459   0.209   2.019
  345SOL    HW2 1923   1.560   0.310   2.069
  346SOL     OW 1924   1.292   0.826   1.893
  346SOL    HW1 1925   1.334   0.740   1.895
  346SOL    HW2 1926   1.323   0.866   1.812
  347SOL     OW 1927   1.065   1.335   2.715
  347SOL    HW1 1928   1.068   1.263   2.653
  347SOL    HW2 1929   1.127   1.399   2.681
  348SOL     OW 1930   0.318   0.812   2.810
  348SOL    HW1 1931   0.412   0.830   2.807
  348SOL    HW2 1932   0.311   0.722   2.840
  349SOL     OW 1933   0.335   0.529   2.852
  349SOL    HW1 1934   0.290   0.447   2.833
  349SOL    HW2 1935   0.413   0.528   2.796
  350SOL     OW 1936   1.135   0.374   3.558
  350SOL    HW1 1937   1.086   0.438   3.608
  350SOL    HW2 1938   1.221   0.414   3.544
  351SOL     OW 1939   1.157   0.212   3.335
  351SOL    HW1 1940   1.151   0.276   3.406
  351SOL    HW2 1941   1.196   0.261   3.263
  352SOL     OW 1942   4.491   1.322   2.066
  352SOL    HW1 1943   4.399   1.338   2.048
  352SOL    HW2 1944   4.496   1.229   2.088
  353SOL     OW 1945   0.097   1.777   2.802
  353SOL    HW1 1946   0.059   1.723   2.733
  353SOL    HW2 1947   0.185   1.798   2.770
  354SOL     OW 1948   0.497   1.574   2.769
  354SOL    HW1 1949   0.565   1.636   2.793
  354SOL    HW2 1950   0.541   1.510   2.712
  355SOL     OW 1951   0.985   0.794   3.089
  355SOL    HW1 1952   1.040   0.770   3.164
  355SOL    HW2 1953   0.899   0.755   3.109
  356SOL     OW 1954   0.039   0.568   2.973
  356SOL    HW1 1955   0.113   0.524   2.931
  356SOL    HW2 1956   0.016   0.510   3.047
  357SOL     OW 1957   0.180   0.523   3.574
  357SOL    HW1 1958   0.266   0.505   3.538
  357SOL    HW2 1959   0.151   0.603   3.530
  358SOL     OW 1960   1.377   0.939   3.521
  358SOL    HW1 1961   1.398   1.033   3.519
  358SOL    HW2 1962   1.374   0.914   3.428
  359SOL     OW 1963   0.811   0.574   2.217
  359SOL    HW1 1964   0.814   0.502   2.153
  359SOL    HW2 1965   0.739   0.629   2.188
  360SOL     OW 1966   1.641   0.601   3.049
  360SOL    HW1 1967   1.630   0.542   3.123
  360SOL    HW2 1968   1.728   0.581   3.014
  361SOL     OW 1969   0.272   1.562   3.603
  361SOL    HW1 1970   0.216   1.613   3.661
  361SOL    HW2 1971   0.253   1.471   3.625
  362SOL     OW 1972   0.686   0.464   3.129
  362SOL    HW1 1973   0.647   0.384   3.093
  362SOL    HW2 1974   0.692   0.523   3.054
  363SOL     OW 1975   0.929   1.679   3.329
  363SOL    HW1 1976   0.903   1.645   3.244
  363SOL    HW2 1977   0.924   1.774   3.319
  364SOL     OW 1978   0.473   0.491   2.046
  364SOL    HW1 1979   0.532   0.562   2.068
  364SOL    HW2 1980   0.389   0.534   2.030
  365SOL     OW 1981   0.162   1.141   3.324
  365SOL    HW1 1982   0.146   1.095   3.406
  365SOL    HW2 1983   0.169   1.071   3.259
  366SOL     OW 1984   1.327   1.047   3.086
  366SOL    HW1 1985   1.350   0.984   3.018
  366SOL    HW2 1986   1.256   1.099   3.047
  367SOL     OW 1987   1.311   0.856   2.168
  367SOL    HW1 1988   1.236   0.827   2.219
  367SOL    HW2 1989   1.285   0.843   2.077
  368SOL     OW 1990   1.763   1.743   3.011
  368SOL    HW1 1991   1.829   1.772   2.948
  368SOL    HW2 1992   1.746   1.652   2.988
  369SOL     OW 1993   1.241   1.733   2.976
  369SOL    HW1 1994   1.323   1.753   2.931
  369SOL    HW2 1995   1.246   1.639   2.994
  370SOL     OW 1996   0.067   1.185   2.911
  370SOL    HW1 1997   0.067   1.218   3.002
  370SOL    HW2 1998   0.021   1.253   2.862
  371SOL     OW 1999   0.679   1.665   3.591
  371SOL    HW1 2000   0.623   1.743   3.585
  371SOL    HW2 2001   0.742   1.676   3.519
  372SOL     OW 2002   1.719   0.130   2.356
  372SOL    HW1 2003   1.790   0.138   2.293
  372SOL    HW2 2004   1.744   0.057   2.412
  373SOL     OW 2005   1.389   1.567   2.348
  373SOL    HW1 2006   1.449   1.599   2.279
  373SOL    HW2 2007   1.341   1.645   2.376
  374SOL     OW 2008   0.119   1.808   3.710
  374SOL    HW1 2009   0.079   1.735   3.757
  374SOL    HW2 2010   0.182   1.845   3.771
  375SOL     OW 2011   1.278   0.927   2.534
  375SOL    HW1 2012   1.351   0.865   2.539
  375SOL    HW2 2013   1.312   0.999   2.482
  376SOL     OW 2014   0.815   1.273   3.292
  376SOL    HW1 2015   0.788   1.312   3.375
  376SOL    HW2 2016   0.745   1.295   3.231
  377SOL     OW 2017   0.672   1.619   2.017
  377SOL    HW1 2018   0.682   1.630   1.923
  377SOL    HW2 2019   0.618   1.541   2.026
  378SOL     OW 2020   1.626   1.726   3.253
  378SOL    HW1 2021   1.675   1.732   3.171
  378SOL    HW2 2022   1.614   1.816   3.281
  379SOL     OW 2023   1.839   0.154   2.828
  379SOL    HW1 2024   1.868   0.077   2.780
  379SOL    HW2 2025   1.752   0.174   2.792
  380SOL     OW 2026   0.264   0.325   2.585
  380SOL    HW1 2027   0.181   0.359   2.552
  380SOL    HW2 2028   0.249   0.316   2.679
  381SOL     OW 2029   1.207   1.606   1.893
  381SOL    HW1 2030   1.198   1.515   1.920
  381SOL    HW2 2031   1.142   1.618   1.824
  382SOL     OW 2032   0.825   1.007   3.234
  382SOL    HW1 2033   0.868   1.003   3.148
  382SOL    HW2 2034   0.825   1.100   3.256
  383SOL     OW 2035   0.915   0.910   2.152
  383SOL    HW1 2036   0.977   0.942   2.086
  383SOL    HW2 2037   0.962   0.840   2.197
  384SOL     OW 2038   1.493   1.625   1.903
  384SOL    HW1 2039   1.398   1.619   1.890
  384SOL    HW2 2040   1.529   1.631   1.815
  385SOL     OW 2041   0.373   1.307   3.353
  385SOL    HW1 2042   0.356   1.385   3.301
  385SOL    HW2 2043   0.298   1.250   3.336
  386SOL     OW 2044   1.610   1.283   3.142
  386SOL    HW1 2045   1.672   1.274   3.214
  386SOL    HW2 2046   1.551   1.352   3.169
  387SOL     OW 2047   1.051   1.107   2.568
  387SOL    HW1 2048   0.980   1.056   2.607
  387SOL    HW2 2049   1.113   1.041   2.536
  388SOL     OW 2050   1.005   0.243   2.866
  388SOL    HW1 2051   1.011   0.220   2.773
  388SOL    HW2 2052   0.998   0.159   2.911
  389SOL     OW 2053   0.604   1.489   2.345
  389SOL    HW1 2054   0.645   1.439   2.274
  389SOL    HW2 2055   0.531   1.534   2.302
  390SOL     OW 2056   1.721   0.393   3.239
  390SOL    HW1 2057   1.793   0.456   3.239
  390SOL    HW2 2058   1.751   0.322   3.183
  391SOL     OW 2059   0.252   1.344   2.138
  391SOL    HW1 2060   0.157   1.344   2.124
  391SOL    HW2 2061   0.263   1.376   2.228
  392SOL     OW 2062   0.116   1.007   3.557
  392SOL    HW1 2063   0.052   1.050   3.615
  392SOL    HW2 2064   0.194   0.997   3.611
  393SOL     OW 2065   0.658   0.208   3.359
  393SOL    HW1 2066   0.738   0.182   3.313
  393SOL    HW2 2067   0.687   0.225   3.449
  394SOL     OW 2068   0.071   0.320   1.888
  394SOL    HW1 2069   4.477   0.328   1.902
  394SOL    HW2 2070   0.099   0.407   1.857
  395SOL     OW 2071   1.430   0.858   3.262
  395SOL    HW1 2072   1.381   0.919   3.207
  395SOL    HW2 2073   1.520   0.861   3.229
  396SOL     OW 2074   0.085   0.188   2.164
  396SOL    HW1 2075   0.077   0.261   2.103
  396SOL    HW2 2076   0.164   0.142   2.138
  397SOL     OW 2077   1.179   1.340   1.979
  397SOL    HW1 2078   1.088   1.310   1.981
  397SOL    HW2 2079   1.207   1.340   2.070
  398SOL     OW 2080   0.623   0.830   3.291
  398SOL    HW1 2081   0.678   0.908   3.278
  398SOL    HW2 2082   0.685   0.758   3.300
  399SOL     OW 2083   1.485   1.776   2.840
  399SOL    HW1 2084   1.507   1.838   2.771
  399SOL    HW2 2085   1.567   1.761   2.887
  400SOL     OW 2086   0.714   0.561   3.567
  400SOL    HW1 2087   0.750   0.628   3.625
  400SOL    HW2 2088   0.750   0.479   3.599
  401SOL     OW 2089   1.471   1.201   3.494
  401SOL    HW1 2090   1.459   1.215   3.588
  401SOL    HW2 2091   1.564   1.215   3.480
  402SOL     OW 2092   0.380   1.744   3.426
  402SOL    HW1 2093   0.295   1.784   3.409
  402SOL    HW2 2094   0.359   1.663   3.474
  403SOL     OW 2095   1.670   0.881   3.117
  403SOL    HW1 2096   1.662   0.796   3.074
  403SOL    HW2 2097   1.661   0.945   3.047
  404SOL     OW 2098   1.218   0.329   2.310
  404SOL    HW1 2099   1.283   0.260   2.299
  404SOL    HW2 2100   1.246   0.377   2.388
  405SOL     OW 2101   0.587   0.738   2.532
  405SOL    HW1 2102   0.628   0.823   2.517
  405SOL    HW2 2103   0.519   0.731   2.465
  406SOL     OW 2104   1.763   0.364   3.506
  406SOL    HW1 2105   1.747   0.378   3.412
  406SOL    HW2 2106   1.684   0.319   3.537
  407SOL     OW 2107   1.744   0.933   3.374
  407SOL    HW1 2108   1.744   1.028   3.388
  407SOL    HW2 2109   1.729   0.922   3.281
  408SOL     OW 2110   0.863   1.367   1.895
  408SOL    HW1 2111   0.824   1.395   1.978
  408SOL    HW2 2112   0.881   1.449   1.849
  409SOL     OW 2113   0.660   1.792   2.808
  409SOL    HW1 2114   0.640   1.882   2.783
  409SOL    HW2 2115   0.755   1.786   2.799
  410SOL     OW 2116   0.867   0.967   2.717
  410SOL    HW1 2117   0.917   0.895   2.756
  410SOL    HW2 2118   0.833   1.016   2.792
  411SOL     OW 2119   1.080   0.988   1.951
  411SOL    HW1 2120   1.057   1.039   1.873
  411SOL    HW2 2121   1.154   0.935   1.924
  412SOL     OW 2122   1.854   1.548   2.702
  412SOL    HW1 2123   1.772   1.540   2.653
  412SOL    HW2 2124   1.843   1.488   2.776
  413SOL     OW 2125   0.230   1.306   3.719
  413SOL    HW1 2126   0.157   1.248   3.697
  413SOL    HW2 2127   0.224   1.316   3.814
  414SOL     OW 2128   0.106   1.236   2.530
  414SOL    HW1 2129   0.117   1.189   2.612
  414SOL    HW2 2130   0.165   1.192   2.469
  415SOL     OW 2131   0.682   1.402   3.490
  415SOL    HW1 2132   0.602   1.358   3.518
  415SOL    HW2 2133   0.675   1.490   3.527
  416SOL     OW 2134   1.809   0.182   3.100
  416SOL    HW1 2135   1.807   0.088   3.121
  416SOL    HW2 2136   1.824   0.185   3.006
  417SOL     OW 2137   0.440   0.431   2.393
  417SOL    HW1 2138   0.458   0.361   2.330
  417SOL    HW2 2139   0.381   0.392   2.457
  418SOL     OW 2140   1.704   1.486   2.954
  418SOL    HW1 2141   1.620   1.464   2.913
  418SOL    HW2 2142   1.716   1.420   3.022
  419SOL     OW 2143   0.312   0.506   3.116
  419SOL    HW1 2144   0.383   0.455   3.156
  419SOL    HW2 2145   0.337   0.515   3.024
  420SOL     OW 2146   0.827   1.578   2.540
  420SOL    HW1 2147   0.816   1.630   2.460
  420SOL    HW2 2148   0.750   1.521   2.543
  421SOL     OW 2149   1.432   0.215   2.980
  421SOL    HW1 2150   1.468   0.145   3.033
  421SOL    HW2 2151   1.381   0.269   3.041
  422SOL     OW 2152   0.996   0.008   3.013
  422SOL    HW1 2153   0.953   4.423   3.003
  422SOL    HW2 2154   1.089   4.487   3.024
  423SOL     OW 2155   0.772   1.332   2.175
  423SOL    HW1 2156   0.740   1.242   2.182
  423SOL    HW2 2157   0.854   1.333   2.225
  424SOL     OW 2158   0.621   1.557   3.147
  424SOL    HW1 2159   0.623   1.638   3.197
  424SOL    HW2 2160   0.708   1.549   3.109
  425SOL     OW 2161   1.341   0.053   2.015
  425SOL    HW1 2162   1.380   4.477   1.971
  425SOL    HW2 2163   1.265   0.017   2.062
  426SOL     OW 2164   1.314   0.463   2.539
  426SOL    HW1 2165   1.255   0.537   2.540
  426SOL    HW2 2166   1.303   0.422   2.625
  427SOL     OW 2167   1.585   0.201   2.730
  427SOL    HW1 2168   1.526   0.216   2.803
  427SOL    HW2 2169   1.588   0.284   2.683
  428SOL     OW 2170   0.041   1.052   2.150
  428SOL    HW1 2171   0.135   1.036   2.140
  428SOL    HW2 2172   0.020   1.018   2.237
  429SOL     OW 2173   0.884   1.652   2.205
  429SOL    HW1 2174   0.812   1.634   2.144
  429SOL    HW2 2175   0.854   1.727   2.256
  430SOL     OW 2176   0.247   0.627   3.845
  430SOL    HW1 2177   0.172   0.607   3.901
  430SOL    HW2 2178   0.214   0.613   3.756
  431SOL     OW 2179   0.194   0.293   4.713
  431SOL    HW1 2180   0.229   0.268   4.799
  431SOL    HW2 2181   0.131   0.224   4.692
  432SOL     OW 2182   0.004   0.381   4.364
  432SOL    HW1 2183   4.426   0.417   4.405
  432SOL    HW2 2184   4.471   0.309   4.310
  433SOL     OW 2185   0.568   1.286   4.899
  433SOL    HW1 2186   0.480   1.290   4.860
  433SOL    HW2 2187   0.583   1.374   4.934
  434SOL     OW 2188   1.558   1.509   4.430
  434SOL    HW1 2189   1.515   1.488   4.513
  434SOL    HW2 2190   1.487   1.513   4.367
  435SOL     OW 2191   1.134   0.699   4.423
  435SOL    HW1 2192   1.180   0.782   4.413
  435SOL    HW2 2193   1.084   0.709   4.504
  436SOL     OW 2194   1.766   0.607   3.952
  436SOL    HW1 2195   1.746   0.598   3.859
  436SOL    HW2 2196   1.734   0.527   3.992
  437SOL     OW 2197   0.757   1.143   4.765
  437SOL    HW1 2198   0.688   1.177   4.821
  437SOL    HW2 2199   0.791   1.220   4.719
  438SOL     OW 2200   0.865   0.774   5.545
  438SOL    HW1 2201   0.851   0.845   5.608
  438SOL    HW2 2202   0.889   0.819   5.464
  439SOL     OW 2203   0.686   1.004   4.371
  439SOL    HW1 2204   0.751   0.991   4.440
  439SOL    HW2 2205   0.616   1.055   4.413
  440SOL     OW 2206   0.710   1.150   5.536
  440SOL    HW1 2207   0.757   1.230   5.562
  440SOL    HW2 2208   0.627   1.182   5.500
  441SOL     OW 2209   0.336   1.422   4.794
  441SOL    HW1 2210   0.254   1.402   4.747
  441SOL    HW2 2211   0.385   1.476   4.732
  442SOL     OW 2212   0.439   0.394   5.215
  442SOL    HW1 2213   0.528   0.359   5.216
  442SOL    HW2 2214   0.383   0.319   5.236
  443SOL     OW 2215   1.611   0.446   4.462
  443SOL    HW1 2216   1.531   0.468   4.415
  443SOL    HW2 2217   1.631   0.524   4.514
  444SOL     OW 2218   0.245   1.692   4.201
  444SOL    HW1 2219   0.230   1.777   4.243
  444SOL    HW2 2220   0.312   1.709   4.136
  445SOL     OW 2221   1.138   1.341   5.414
  445SOL    HW1 2222   1.178   1.338   5.501
  445SOL    HW2 2223   1.083   1.262   5.411
  446SOL     OW 2224   0.249   1.427   4.251
  446SOL    HW1 2225   0.239   1.522   4.255
  446SOL    HW2 2226   0.185   1.394   4.315
  447SOL     OW 2227   0.248   1.082   4.608
  447SOL    HW1 2228   0.264   0.992   4.638
  447SOL    HW2 2229   0.188   1.118   4.674
  448SOL     OW 2230   0.615   1.789   5.157
  448SOL    HW1 2231   0.531   1.772   5.200
  448SOL    HW2 2232   0.635   1.880   5.179
  449SOL     OW 2233   0.580   0.986   3.862
  449SOL    HW1 2234   0.627   1.030   3.791
  449SOL    HW2 2235   0.625   1.015   3.941
  450SOL     OW 2236   1.582   0.116   5.195
  450SOL    HW1 2237   1.602   0.185   5.132
  450SOL    HW2 2238   1.572   0.162   5.279
  451SOL     OW 2239   0.136   0.643   4.298
  451SOL    HW1 2240   0.084   0.565   4.315
  451SOL    HW2 2241   0.107   0.706   4.365
  452SOL     OW 2242   1.841   1.779   4.063
  452SOL    HW1 2243   1.896   1.737   4.130
  452SOL    HW2 2244   1.901   1.838   4.017
  453SOL     OW 2245   0.033   1.602   3.864
  453SOL    HW1 2246   0.021   1.507   3.861
  453SOL    HW2 2247   0.020   1.625   3.956
  454SOL     OW 2248   1.692   0.921   4.365
  454SOL    HW1 2249   1.774   0.877   4.343
  454SOL    HW2 2250   1.668   0.970   4.286
  455SOL     OW 2251   1.646   1.107   4.153
  455SOL    HW1 2252   1.732   1.113   4.111
  455SOL    HW2 2253   1.651   1.168   4.227
  456SOL     OW 2254   0.105   0.764   5.306
  456SOL    HW1 2255   0.196   0.760   5.279
  456SOL    HW2 2256   0.089   0.857   5.325
  457SOL     OW 2257   0.613   1.384   4.460
  457SOL    HW1 2258   0.566   1.302   4.470
  457SOL    HW2 2259   0.597   1.411   4.370
  458SOL     OW 2260   1.300   1.250   5.138
  458SOL    HW1 2261   1.323   1.174   5.085
  458SOL    HW2 2262   1.346   1.236   5.220
  459SOL     OW 2263   0.820   0.013   4.275
  459SOL    HW1 2264   0.854   0.099   4.250
  459SOL    HW2 2265   0.725   0.021   4.263
  460SOL     OW 2266   0.180   0.941   5.004
  460SOL    HW1 2267   0.271   0.923   4.982
  460SOL    HW2 2268   0.133   0.925   4.922
  461SOL     OW 2269   1.532   0.992   3.922
  461SOL    HW1 2270   1.461   0.936   3.954
  461SOL    HW2 2271   1.572   1.027   4.001
  462SOL     OW 2272   1.196   1.798   5.351
  462SOL    HW1 2273   1.188   1.862   5.280
  462SOL    HW2 2274   1.206   1.714   5.306
  463SOL     OW 2275   0.318   0.260   5.493
  463SOL    HW1 2276   0.386   0.311   5.537
  463SOL    HW2 2277   0.242   0.268   5.551
  464SOL     OW 2278   1.449   1.427   4.663
  464SOL    HW1 2279   1.399   1.436   4.744
  464SOL    HW2 2280   1.448   1.333   4.645
  465SOL     OW 2281   1.634   1.727   4.284
  465SOL    HW1 2282   1.617   1.692   4.196
  465SOL    HW2 2283   1.622   1.652   4.342
  466SOL     OW 2284   0.596   0.723   3.989
  466SOL    HW1 2285   0.598   0.804   3.939
  466SOL    HW2 2286   0.530   0.739   4.057
  467SOL     OW 2287   1.291   0.363   4.658
  467SOL    HW1 2288   1.202   0.332   4.641
  467SOL    HW2 2289   1.327   0.299   4.720
  468SOL     OW 2290   1.580   1.664   4.026
  468SOL    HW1 2291   1.665   1.707   4.018
  468SOL    HW2 2292   1.552   1.649   3.935
  469SOL     OW 2293   0.797   0.618   5.178
  469SOL    HW1 2294   0.769   0.593   5.266
  469SOL    HW2 2295   0.754   0.555   5.120
  470SOL     OW 2296   1.389   0.479   5.400
  470SOL    HW1 2297   1.392   0.523   5.485
  470SOL    HW2 2298   1.455   0.410   5.406
  471SOL     OW 2299   0.956   0.888   5.306
  471SOL    HW1 2300   1.010   0.817   5.271
  471SOL    HW2 2301   0.908   0.922   5.230
  472SOL     OW 2302   0.997   0.418   4.960
  472SOL    HW1 2303   0.910   0.426   4.999
  472SOL    HW2 2304   0.982   0.365   4.881
  473SOL     OW 2305   1.050   0.698   4.151
  473SOL    HW1 2306   1.066   0.690   4.245
  473SOL    HW2 2307   0.967   0.651   4.137
  474SOL     OW 2308   0.097   0.826   4.508
  474SOL    HW1 2309   0.184   0.810   4.545
  474SOL    HW2 2310   0.045   0.856   4.582
  475SOL     OW 2311   0.123   1.857   5.301
  475SOL    HW1 2312   0.117   1.833   5.393
  475SOL    HW2 2313   0.046   1.818   5.260
  476SOL     OW 2314   0.853   0.369   3.904
  476SOL    HW1 2315   0.927   0.403   3.854
  476SOL    HW2 2316   0.870   0.275   3.909
  477SOL     OW 2317   1.705   0.573   5.552
  477SOL    HW1 2318   1.669   0.648   5.504
  477SOL    HW2 2319   1.740   0.516   5.484
  478SOL     OW 2320   1.377   1.143   4.265
  478SOL    HW1 2321   1.455   1.129   4.212
  478SOL    HW2 2322   1.324   1.204   4.215
  479SOL     OW 2323   0.542   0.204   4.625
  479SOL    HW1 2324   0.562   0.223   4.716
  479SOL    HW2 2325   0.534   0.289   4.583
  480SOL     OW 2326   1.007   1.445   4.197
  480SOL    HW1 2327   0.968   1.517   4.147
  480SOL    HW2 2328   0.988   1.466   4.288
  481SOL     OW 2329   0.355   1.810   4.582
  481SOL    HW1 2330   0.398   1.724   4.592
  481SOL    HW2 2331   0.425   1.873   4.597
  482SOL     OW 2332   1.799   1.061   4.593
  482SOL    HW1 2333   1.745   1.040   4.516
  482SOL    HW2 2334   1.736   1.064   4.665
  483SOL     OW 2335   1.228   1.545   5.227
  483SOL    HW1 2336   1.227   1.471   5.287
  483SOL    HW2 2337   1.158   1.526   5.165
  484SOL     OW 2338   0.316   0.954   3.977
  484SOL    HW1 2339   0.400   0.977   3.937
  484SOL    HW2 2340   0.300   0.864   3.949
  485SOL     OW 2341   1.479   0.742   4.449
  485SOL    HW1 2342   1.467   0.697   4.533
  485SOL    HW2 2343   1.556   0.797   4.462
  486SOL     OW 2344   0.467   1.262   5.459
  486SOL    HW1 2345   0.440   1.269   5.368
  486SOL    HW2 2346   0.386   1.267   5.509
  487SOL     OW 2347   1.122   1.777   3.956
  487SOL    HW1 2348   1.048   1.736   4.001
  487SOL    HW2 2349   1.144   1.716   3.885
  488SOL     OW 2350   0.163   0.265   5.233
  488SOL    HW1 2351   0.136   0.352   5.206
  488SOL    HW2 2352   0.198   0.278   5.322
  489SOL     OW 2353   1.628   1.381   3.812
  489SOL    HW1 2354   1.585   1.465   3.795
  489SOL    HW2 2355   1.560   1.316   3.793
  490SOL     OW 2356   0.469   1.743   4.038
  490SOL    HW1 2357   0.510   1.797   4.106
  490SOL    HW2 2358   0.542   1.709   3.986
  491SOL     OW 2359   1.420   0.137   4.142
  491SOL    HW1 2360   1.403   0.086   4.062
  491SOL    HW2 2361   1.514   0.131   4.155
  492SOL     OW 2362   0.257   1.789   4.958
  492SOL    HW1 2363   0.304   1.715   4.994
  492SOL    HW2 2364   0.226   1.759   4.873
  493SOL     OW 2365   0.938   1.698   4.623
  493SOL    HW1 2366   1.017   1.647   4.641
  493SOL    HW2 2367   0.893   1.649   4.554
  494SOL     OW 2368   0.394   0.693   4.197
  494SOL    HW1 2369   0.419   0.602   4.209
  494SOL    HW2 2370   0.302   0.697   4.223
  495SOL     OW 2371   1.525   0.233   5.446
  495SOL    HW1 2372   1.525   0.256   5.539
  495SOL    HW2 2373   1.448   0.177   5.435
  496SOL     OW 2374   0.624   0.121   3.842
  496SOL    HW1 2375   0.712   0.086   3.854
  496SOL    HW2 2376   0.594   0.084   3.759
  497SOL     OW 2377   0.768   0.269   5.478
  497SOL    HW1 2378   0.835   0.202   5.487
  497SOL    HW2 2379   0.728   0.275   5.564
  498SOL     OW 2380   0.877   1.522   4.917
  498SOL    HW1 2381   0.861   1.486   4.830
  498SOL    HW2 2382   0.945   1.467   4.954
  499SOL     OW 2383   1.342   0.589   5.153
  499SOL    HW1 2384   1.369   0.560   5.240
  499SOL    HW2 2385   1.376   0.678   5.146
  500SOL     OW 2386   0.815   1.396   4.663
  500SOL    HW1 2387   0.898   1.385   4.617
  500SOL    HW2 2388   0.750   1.396   4.593
  501SOL     OW 2389   0.923   0.518   4.624
  501SOL    HW1 2390   0.906   0.516   4.530
  501SOL    HW2 2391   0.961   0.432   4.643
  502SOL     OW 2392   0.561   0.069   4.232
  502SOL    HW1 2393   0.474   0.055   4.270
  502SOL    HW2 2394   0.548   0.139   4.169
  503SOL     OW 2395   1.429   1.198   3.766
  503SOL    HW1 2396   1.459   1.122   3.815
  503SOL    HW2 2397   1.342   1.218   3.802
  504SOL     OW 2398   0.304   0.074   3.911
  504SOL    HW1 2399   0.388   0.121   3.908
  504SOL    HW2 2400   0.320   4.499   3.968
  505SOL     OW 2401   0.953   0.240   4.194
  505SOL    HW1 2402   0.900   0.294   4.134
  505SOL    HW2 2403   1.041   0.276   4.187
  506SOL     OW 2404   1.080   0.681   5.184
  506SOL    HW1 2405   1.009   0.617   5.185
  506SOL    HW2 2406   1.160   0.628   5.173
  507SOL     OW 2407   1.220   1.572   4.519
  507SOL    HW1 2408   1.239   1.639   4.454
  507SOL    HW2 2409   1.296   1.573   4.577
  508SOL     OW 2410   0.466   1.149   4.460
  508SOL    HW1 2411   0.395   1.130   4.522
  508SOL    HW2 2412   0.428   1.133   4.374
  509SOL     OW 2413   1.271   1.794   4.331
  509SOL    HW1 2414   1.315   1.856   4.274
  509SOL    HW2 2415   1.205   1.847   4.377
  510SOL     OW 2416   1.029   0.548   3.741
  510SOL    HW1 2417   0.981   0.629   3.725
  510SOL    HW2 2418   1.088   0.568   3.813
  511SOL     OW 2419   0.094   0.519   5.137
  511SOL    HW1 2420   0.151   0.528   5.061
  511SOL    HW2 2421   0.059   0.607   5.151
  512SOL     OW 2422   0.562   0.244   4.890
  512SOL    HW1 2423   0.593   0.161   4.926
  512SOL    HW2 2424   0.468   0.245   4.909
  513SOL     OW 2425   0.866   0.503   4.350
  513SOL    HW1 2426   0.820   0.544   4.277
  513SOL    HW2 2427   0.835   0.413   4.350
  514SOL     OW 2428   0.964   0.026   4.506
  514SOL    HW1 2429   0.916   0.024   4.424
  514SOL    HW2 2430   0.977   4.434   4.528
  515SOL     OW 2431   1.438   1.162   4.582
  515SOL    HW1 2432   1.369   1.095   4.581
  515SOL    HW2 2433   1.462   1.174   4.490
  516SOL     OW 2434   1.466   0.604   4.700
  516SOL    HW1 2435   1.413   0.525   4.702
  516SOL    HW2 2436   1.524   0.597   4.776
  517SOL     OW 2437   1.845   0.817   4.107
  517SOL    HW1 2438   1.902   0.766   4.164
  517SOL    HW2 2439   1.817   0.756   4.039
  518SOL     OW 2440   0.492   1.417   3.884
  518SOL    HW1 2441   0.415   1.388   3.933
  518SOL    HW2 2442   0.474   1.390   3.794
  519SOL     OW 2443   1.671   1.265   4.370
  519SOL    HW1 2444   1.766   1.269   4.383
  519SOL    HW2 2445   1.640   1.352   4.392
  520SOL     OW 2446   1.394   0.570   3.794
  520SOL    HW1 2447   1.333   0.555   3.865
  520SOL    HW2 2448   1.480   0.552   3.831
  521SOL     OW 2449   0.522   0.264   4.045
  521SOL    HW1 2450   0.570   0.214   3.979
  521SOL    HW2 2451   0.506   0.349   4.004
  522SOL     OW 2452   1.752   1.228   5.300
  522SOL    HW1 2453   1.840   1.192   5.288
  522SOL    HW2 2454   1.761   1.289   5.374
  523SOL     OW 2455   1.058   1.357   5.062
  523SOL    HW1 2456   0.983   1.324   5.111
  523SOL    HW2 2457   1.134   1.314   5.101
  524SOL     OW 2458   1.616   1.637   5.372
  524SOL    HW1 2459   1.614   1.646   5.276
  524SOL    HW2 2460   1.686   1.574   5.389
  525SOL     OW 2461   1.132   1.211   4.829
  525SOL    HW1 2462   1.068   1.241   4.893
  525SOL    HW2 2463   1.094   1.234   4.744
  526SOL     OW 2464   1.628   1.096   4.801
  526SOL    HW1 2465   1.622   1.156   4.875
  526SOL    HW2 2466   1.550   1.115   4.749
  527SOL     OW 2467   0.902   0.133   5.112
  527SOL    HW1 2468   0.924   0.088   5.030
  527SOL    HW2 2469   0.986   0.147   5.155
  528SOL     OW 2470   0.984   1.115   5.446
  528SOL    HW1 2471   0.892   1.131   5.468
  528SOL    HW2 2472   0.983   1.037   5.391
  529SOL     OW 2473   0.708   1.061   4.096
  529SOL    HW1 2474   0.696   1.045   4.190
  529SOL    HW2 2475   0.784   1.007   4.073
  530SOL     OW 2476   0.429   0.825   4.965
  530SOL    HW1 2477   0.497   0.835   5.031
  530SOL    HW2 2478   0.372   0.757   4.999
  531SOL     OW 2479   1.269   0.376   4.997
  531SOL    HW1 2480   1.301   0.454   5.042
  531SOL    HW2 2481   1.180   0.398   4.970
  532SOL     OW 2482   0.062   1.576   5.067
  532SOL    HW1 2483   0.035   1.665   5.043
  532SOL    HW2 2484   0.157   1.581   5.072
  533SOL     OW 2485   0.348   1.108   4.217
  533SOL    HW1 2486   0.357   1.182   4.157
  533SOL    HW2 2487   0.348   1.031   4.161
  534SOL     OW 2488   0.564   0.526   4.577
  534SOL    HW1 2489   0.575   0.587   4.504
  534SOL    HW2 2490   0.623   0.558   4.645
  535SOL     OW 2491   1.247   1.348   4.113
  535SOL    HW1 2492   1.303   1.419   4.144
  535SOL    HW2 2493   1.160   1.368   4.147
  536SOL     OW 2494   1.285   1.449   4.884
  536SOL    HW1 2495   1.295   1.440   4.978
  536SOL    HW2 2496   1.228   1.376   4.859
  537SOL     OW 2497   1.582   0.623   4.201
  537SOL    HW1 2498   1.536   0.675   4.267
  537SOL    HW2 2499   1.627   0.688   4.147
  538SOL     OW 2500   0.347   1.531   5.039
  538SOL    HW1 2501   0.333   1.484   4.957
  538SOL    HW2 2502   0.442   1.541   5.046
  539SOL     OW 2503   0.485   0.761   5.393
  539SOL    HW1 2504   0.509   0.799   5.309
  539SOL    HW2 2505   0.523   0.674   5.393
  540SOL     OW 2506   1.601   0.778   5.405
  540SOL    HW1 2507   1.515   0.819   5.398
  540SOL    HW2 2508   1.653   0.820   5.336
  541SOL     OW 2509   1.005   0.086   5.444
  541SOL    HW1 2510   1.034   0.169   5.406
  541SOL    HW2 2511   1.030   0.020   5.380
  542SOL     OW 2512   0.496   0.044   5.475
  542SOL    HW1 2513   0.480   4.497   5.393
  542SOL    HW2 2514   0.429   0.113   5.476
  543SOL     OW 2515   0.589   0.874   4.748
  543SOL    HW1 2516   0.618   0.965   4.750
  543SOL    HW2 2517   0.533   0.865   4.825
  544SOL     OW 2518   1.358   0.858   4.755
  544SOL    HW1 2519   1.276   0.849   4.707
  544SOL    HW2 2520   1.399   0.772   4.749
  545SOL     OW 2521   1.204   0.535   3.987
  545SOL    HW1 2522   1.211   0.455   4.039
  545SOL    HW2 2523   1.161   0.598   4.046
  546SOL     OW 2524   0.285   0.218   4.959
  546SOL    HW1 2525   0.246   0.234   5.044
  546SOL    HW2 2526   0.325   0.131   4.967
  547SOL     OW 2527   0.042   1.313   5.009
  547SOL    HW1 2528   0.077   1.265   5.085
  547SOL    HW2 2529   0.046   1.405   5.035
  548SOL     OW 2530   0.724   0.631   4.782
  548SOL    HW1 2531   0.798   0.611   4.725
  548SOL    HW2 2532   0.698   0.720   4.757
  549SOL     OW 2533   1.731   0.963   5.573
  549SOL    HW1 2534   1.685   0.899   5.518
  549SOL    HW2 2535   1.675   0.973   5.650
  550SOL     OW 2536   0.320   0.074   4.355
  550SOL    HW1 2537   0.302   0.163   4.387
  550SOL    HW2 2538   0.307   0.018   4.431
  551SOL     OW 2539   1.614   0.377   4.087
  551SOL    HW1 2540   1.643   0.314   4.153
  551SOL    HW2 2541   1.591   0.455   4.138
  552SOL     OW 2542   1.029   0.761   4.685
  552SOL    HW1 2543   1.026   0.777   4.780
  552SOL    HW2 2544   1.000   0.671   4.675
  553SOL     OW 2545   0.983   1.566   5.437
  553SOL    HW1 2546   0.968   1.610   5.354
  553SOL    HW2 2547   1.026   1.484   5.414
  554SOL     OW 2548   0.347   0.933   5.542
  554SOL    HW1 2549   0.419   0.963   5.598
  554SOL    HW2 2550   0.386   0.867   5.485
  555SOL     OW 2551   1.531   0.265   3.852
  555SOL    HW1 2552   1.459   0.209   3.881
  555SOL    HW2 2553   1.560   0.310   3.931
  556SOL     OW 2554   1.292   0.826   3.755
  556SOL    HW1 2555   1.334   0.740   3.757
  556SOL    HW2 2556   1.323   0.866   3.674
  557SOL     OW 2557   1.066   1.335   4.577
  557SOL    HW1 2558   1.068   1.263   4.515
  557SOL    HW2 2559   1.126   1.400   4.541
  558SOL     OW 2560   0.318   0.812   4.672
  558SOL    HW1 2561   0.412   0.829   4.668
  558SOL    HW2 2562   0.311   0.722   4.702
  559SOL     OW 2563   0.335   0.529   4.714
  559SOL    HW1 2564   0.290   0.447   4.695
  559SOL    HW2 2565   0.413   0.528   4.658
  560SOL     OW 2566   1.135   0.374   5.419
  560SOL    HW1 2567   1.086   0.438   5.470
  560SOL    HW2 2568   1.221   0.415   5.406
  561SOL     OW 2569   1.158   0.213   5.197
  561SOL    HW1 2570   1.151   0.277   5.268
  561SOL    HW2 2571   1.197   0.261   5.125
  562SOL     OW 2572   4.491   1.322   3.928
  562SOL    HW1 2573   4.399   1.338   3.910
  562SOL    HW2 2574   4.496   1.229   3.950
  563SOL     OW 2575   0.097   1.777   4.664
  563SOL    HW1 2576   0.058   1.723   4.596
  563SOL    HW2 2577   0.185   1.798   4.632
  564SOL     OW 2578   0.497   1.574   4.631
  564SOL    HW1 2579   0.565   1.636   4.655
  564SOL    HW2 2580   0.541   1.510   4.574
  565SOL     OW 2581   0.985   0.795   4.952
  565SOL    HW1 2582   1.039   0.770   5.026
  565SOL    HW2 2583   0.900   0.755   4.970
  566SOL     OW 2584   0.039   0.568   4.836
  566SOL    HW1 2585   0.113   0.524   4.793
  566SOL    HW2 2586   0.016   0.510   4.909
  567SOL     OW 2587   0.179   0.523   5.436
  567SOL    HW1 2588   0.266   0.505   5.400
  567SOL    HW2 2589   0.151   0.603   5.392
  568SOL     OW 2590   1.377   0.938   5.383
  568SOL    HW1 2591   1.394   1.033   5.382
  568SOL    HW2 2592   1.375   0.914   5.290
  569SOL     OW 2593   0.811   0.574   4.079
  569SOL    HW1 2594   0.815   0.502   4.015
  569SOL    HW2 2595   0.738   0.629   4.050
  570SOL     OW 2596   1.641   0.601   4.911
  570SOL    HW1 2597   1.630   0.542   4.985
  570SOL    HW2 2598   1.728   0.582   4.877
  571SOL     OW 2599   0.273   1.562   5.465
  571SOL    HW1 2600   0.216   1.614   5.522
  571SOL    HW2 2601   0.253   1.471   5.488
  572SOL     OW 2602   0.687   0.464   4.991
  572SOL    HW1 2603   0.648   0.384   4.956
  572SOL    HW2 2604   0.693   0.522   4.916
  573SOL     OW 2605   0.931   1.679   5.189
  573SOL    HW1 2606   0.903   1.642   5.105
  573SOL    HW2 2607   0.920   1.773   5.178
  574SOL     OW 2608   0.473   0.491   3.908
  574SOL    HW1 2609   0.532   0.562   3.930
  574SOL    HW2 2610   0.389   0.534   3.892
  575SOL     OW 2611   0.162   1.141   5.186
  575SOL    HW1 2612   0.146   1.095   5.268
  575SOL    HW2 2613   0.169   1.071   5.121
  576SOL     OW 2614   1.324   1.046   4.949
  576SOL    HW1 2615   1.349   0.983   4.881
  576SOL    HW2 2616   1.256   1.100   4.908
  577SOL     OW 2617   1.311   0.856   4.030
  577SOL    HW1 2618   1.235   0.827   4.081
  577SOL    HW2 2619   1.285   0.843   3.939
  578SOL     OW 2620   1.238   1.731   4.840
  578SOL    HW1 2621   1.314   1.752   4.786
  578SOL    HW2 2622   1.248   1.637   4.859
  579SOL     OW 2623   0.067   1.185   4.773
  579SOL    HW1 2624   0.067   1.218   4.863
  579SOL    HW2 2625   0.020   1.252   4.724
  580SOL     OW 2626   0.679   1.666   5.453
  580SOL    HW1 2627   0.622   1.743   5.447
  580SOL    HW2 2628   0.741   1.676   5.381
  581SOL     OW 2629   1.719   0.130   4.218
  581SOL    HW1 2630   1.790   0.138   4.155
  581SOL    HW2 2631   1.745   0.057   4.275
  582SOL     OW 2632   1.388   1.566   4.207
  582SOL    HW1 2633   1.445   1.598   4.137
  582SOL    HW2 2634   1.341   1.644   4.237
  583SOL     OW 2635   0.119   1.808   5.572
  583SOL    HW1 2636   0.079   1.735   5.619
  583SOL    HW2 2637   0.182   1.844   5.633
  584SOL     OW 2638   1.279   0.927   4.397
  584SOL    HW1 2639   1.351   0.865   4.401
  584SOL    HW2 2640   1.312   1.000   4.344
  585SOL     OW 2641   0.815   1.273   5.154
  585SOL    HW1 2642   0.788   1.312   5.237
  585SOL    HW2 2643   0.743   1.294   5.093
  586SOL     OW 2644   0.673   1.619   3.879
  586SOL    HW1 2645   0.682   1.630   3.785
  586SOL    HW2 2646   0.618   1.541   3.888
  587SOL     OW 2647   1.839   0.154   4.690
  587SOL    HW1 2648   1.868   0.077   4.642
  587SOL    HW2 2649   1.752   0.174   4.654
  588SOL     OW 2650   0.264   0.325   4.447
  588SOL    HW1 2651   0.181   0.359   4.414
  588SOL    HW2 2652   0.249   0.316   4.541
  589SOL     OW 2653   1.207   1.606   3.755
  589SOL    HW1 2654   1.198   1.515   3.782
  589SOL    HW2 2655   1.142   1.618   3.686
  590SOL     OW 2656   0.825   1.007   5.097
  590SOL    HW1 2657   0.867   1.002   5.011
  590SOL    HW2 2658   0.824   1.100   5.118
  591SOL     OW 2659   0.915   0.910   4.014
  591SOL    HW1 2660   0.977   0.942   3.948
  591SOL    HW2 2661   0.962   0.840   4.059
  592SOL     OW 2662   1.492   1.626   3.764
  592SOL    HW1 2663   1.398   1.619   3.751
  592SOL    HW2 2664   1.529   1.631   3.676
  593SOL     OW 2665   0.373   1.307   5.215
  593SOL    HW1 2666   0.355   1.385   5.163
  593SOL    HW2 2667   0.298   1.250   5.198
  594SOL     OW 2668   1.600   1.262   5.014
  594SOL    HW1 2669   1.680   1.271   5.067
  594SOL    HW2 2670   1.537   1.320   5.057
  595SOL     OW 2671   1.051   1.107   4.430
  595SOL    HW1 2672   0.980   1.056   4.469
  595SOL    HW2 2673   1.113   1.041   4.398
  596SOL     OW 2674   1.005   0.243   4.728
  596SOL    HW1 2675   1.011   0.220   4.635
  596SOL    HW2 2676   0.998   0.159   4.774
  597SOL     OW 2677   0.604   1.489   4.207
  597SOL    HW1 2678   0.645   1.440   4.136
  597SOL    HW2 2679   0.530   1.534   4.165
  598SOL     OW 2680   1.721   0.394   5.101
  598SOL    HW1 2681   1.794   0.456   5.100
  598SOL    HW2 2682   1.750   0.322   5.045
  599SOL     OW 2683   0.252   1.344   4.000
  599SOL    HW1 2684   0.157   1.344   3.986
  599SOL    HW2 2685   0.263   1.376   4.090
  600SOL     OW 2686   0.116   1.007   5.419
  600SOL    HW1 2687   0.052   1.050   5.477
  600SOL    HW2 2688   0.194   0.997   5.473
  601SOL     OW 2689   0.658   0.209   5.221
  601SOL    HW1 2690   0.738   0.182   5.175
  601SOL    HW2 2691   0.687   0.225   5.311
  602SOL     OW 2692   0.071   0.320   3.750
  602SOL    HW1 2693   4.477   0.328   3.764
  602SOL    HW2 2694   0.099   0.407   3.719
  603SOL     OW 2695   1.431   0.859   5.125
  603SOL    HW1 2696   1.381   0.918   5.068
  603SOL    HW2 2697   1.520   0.861   5.089
  604SOL     OW 2698   0.085   0.188   4.027
  604SOL    HW1 2699   0.077   0.261   3.964
  604SOL    HW2 2700   0.164   0.142   4.000
  605SOL     OW 2701   1.179   1.340   3.841
  605SOL    HW1 2702   1.088   1.310   3.843
  605SOL    HW2 2703   1.207   1.339   3.932
  606SOL     OW 2704   0.623   0.830   5.153
  606SOL    HW1 2705   0.678   0.907   5.140
  606SOL    HW2 2706   0.685   0.758   5.162
  607SOL     OW 2707   1.460   1.772   4.675
  607SOL    HW1 2708   1.491   1.822   4.599
  607SOL    HW2 2709   1.541   1.739   4.716
  608SOL     OW 2710   0.714   0.561   5.429
  608SOL    HW1 2711   0.750   0.628   5.487
  608SOL    HW2 2712   0.750   0.478   5.461
  609SOL     OW 2713   1.466   1.202   5.355
  609SOL    HW1 2714   1.455   1.214   5.449
  609SOL    HW2 2715   1.561   1.206   5.342
  610SOL     OW 2716   0.380   1.744   5.289
  610SOL    HW1 2717   0.295   1.784   5.271
  610SOL    HW2 2718   0.359   1.663   5.337
  611SOL     OW 2719   1.670   0.881   4.979
  611SOL    HW1 2720   1.662   0.796   4.936
  611SOL    HW2 2721   1.660   0.945   4.908
  612SOL     OW 2722   1.218   0.330   4.172
  612SOL    HW1 2723   1.283   0.260   4.161
  612SOL    HW2 2724   1.246   0.377   4.250
  613SOL     OW 2725   0.587   0.738   4.394
  613SOL    HW1 2726   0.628   0.823   4.378
  613SOL    HW2 2727   0.519   0.731   4.327
  614SOL     OW 2728   1.763   0.365   5.367
  614SOL    HW1 2729   1.746   0.378   5.274
  614SOL    HW2 2730   1.685   0.319   5.399
  615SOL     OW 2731   1.745   0.933   5.235
  615SOL    HW1 2732   1.739   1.027   5.247
  615SOL    HW2 2733   1.729   0.919   5.141
  616SOL     OW 2734   0.864   1.368   3.757
  616SOL    HW1 2735   0.824   1.395   3.840
  616SOL    HW2 2736   0.881   1.450   3.711
  617SOL     OW 2737   0.660   1.792   4.670
  617SOL    HW1 2738   0.639   1.882   4.646
  617SOL    HW2 2739   0.756   1.787   4.661
  618SOL     OW 2740   0.867   0.967   4.579
  618SOL    HW1 2741   0.917   0.895   4.618
  618SOL    HW2 2742   0.832   1.015   4.654
  619SOL     OW 2743   1.080   0.989   3.813
  619SOL    HW1 2744   1.057   1.039   3.735
  619SOL    HW2 2745   1.154   0.935   3.786
  620SOL     OW 2746   1.860   1.541   4.547
  620SOL    HW1 2747   1.769   1.538   4.517
  620SOL    HW2 2748   1.866   1.471   4.612
  621SOL     OW 2749   0.230   1.306   5.581
  621SOL    HW1 2750   0.157   1.248   5.559
  621SOL    HW2 2751   0.224   1.316   5.676
  622SOL     OW 2752   0.106   1.237   4.391
  622SOL    HW1 2753   0.115   1.189   4.474
  622SOL    HW2 2754   0.165   1.192   4.331
  623SOL     OW 2755   0.682   1.403   5.351
  623SOL    HW1 2756   0.602   1.358   5.380
  623SOL    HW2 2757   0.675   1.490   5.390
  624SOL     OW 2758   1.809   0.182   4.962
  624SOL    HW1 2759   1.807   0.088   4.983
  624SOL    HW2 2760   1.824   0.185   4.868
  625SOL     OW 2761   0.440   0.431   4.255
  625SOL    HW1 2762   0.458   0.361   4.192
  625SOL    HW2 2763   0.381   0.392   4.319
  626SOL     OW 2764   0.312   0.506   4.978
  626SOL    HW1 2765   0.383   0.455   5.017
  626SOL    HW2 2766   0.337   0.515   4.886
  627SOL     OW 2767   0.827   1.577   4.402
  627SOL    HW1 2768   0.815   1.630   4.323
  627SOL    HW2 2769   0.750   1.521   4.405
  628SOL     OW 2770   1.432   0.216   4.842
  628SOL    HW1 2771   1.467   0.144   4.895
  628SOL    HW2 2772   1.381   0.269   4.903
  629SOL     OW 2773   0.996   0.008   4.874
  629SOL    HW1 2774   0.953   4.423   4.865
  629SOL    HW2 2775   1.089   4.487   4.886
  630SOL     OW 2776   0.772   1.332   4.037
  630SOL    HW1 2777   0.740   1.242   4.043
  630SOL    HW2 2778   0.854   1.332   4.086
  631SOL     OW 2779   0.621   1.557   5.009
  631SOL    HW1 2780   0.623   1.638   5.060
  631SOL    HW2 2781   0.708   1.550   4.970
  632SOL     OW 2782   1.341   0.053   3.877
  632SOL    HW1 2783   1.380   4.477   3.833
  632SOL    HW2 2784   1.265   0.017   3.924
  633SOL     OW 2785   1.314   0.463   4.401
  633SOL    HW1 2786   1.254   0.537   4.402
  633SOL    HW2 2787   1.303   0.422   4.487
  634SOL     OW 2788   1.585   0.200   4.592
  634SOL    HW1 2789   1.526   0.215   4.665
  634SOL    HW2 2790   1.588   0.284   4.545
  635SOL     OW 2791   0.041   1.052   4.012
  635SOL    HW1 2792   0.135   1.036   4.002
  635SOL    HW2 2793   0.020   1.019   4.099
  636SOL     OW 2794   0.884   1.652   4.066
  636SOL    HW1 2795   0.812   1.634   4.007
  636SOL    HW2 2796   0.854   1.727   4.118
  637SOL     OW 2797   0.247   0.627   5.707
  637SOL    HW1 2798   0.172   0.607   5.763
  637SOL    HW2 2799   0.214   0.613   5.618
  638SOL     OW 2800   0.194   0.293   6.575
  638SOL    HW1 2801   0.229   0.268   6.661
  638SOL    HW2 2802   0.132   0.224   6.554
  639SOL     OW 2803   0.004   0.381   6.226
  639SOL    HW1 2804   4.426   0.417   6.267
  639SOL    HW2 2805   4.472   0.309   6.172
  640SOL     OW 2806   0.567   1.286   6.761
  640SOL    HW1 2807   0.480   1.291   6.722
  640SOL    HW2 2808   0.583   1.374   6.796
  641SOL     OW 2809   1.561   1.507   6.285
  641SOL    HW1 2810   1.517   1.495   6.369
  641SOL    HW2 2811   1.491   1.527   6.223
  642SOL     OW 2812   1.134   0.699   6.285
  642SOL    HW1 2813   1.181   0.782   6.274
  642SOL    HW2 2814   1.084   0.709   6.366
  643SOL     OW 2815   1.767   0.607   5.814
  643SOL    HW1 2816   1.746   0.596   5.721
  643SOL    HW2 2817   1.734   0.527   5.855
  644SOL     OW 2818   0.756   1.143   6.626
  644SOL    HW1 2819   0.687   1.177   6.683
  644SOL    HW2 2820   0.791   1.220   6.581
  645SOL     OW 2821   0.865   0.774   7.407
  645SOL    HW1 2822   0.851   0.845   7.470
  645SOL    HW2 2823   0.889   0.819   7.325
  646SOL     OW 2824   0.685   1.004   6.234
  646SOL    HW1 2825   0.751   0.991   6.302
  646SOL    HW2 2826   0.616   1.055   6.276
  647SOL     OW 2827   0.710   1.150   7.398
  647SOL    HW1 2828   0.757   1.229   7.424
  647SOL    HW2 2829   0.627   1.182   7.362
  648SOL     OW 2830   0.336   1.422   6.656
  648SOL    HW1 2831   0.254   1.402   6.609
  648SOL    HW2 2832   0.386   1.476   6.594
  649SOL     OW 2833   1.461   1.499   6.939
  649SOL    HW1 2834   1.512   1.579   6.949
  649SOL    HW2 2835   1.402   1.499   7.015
  650SOL     OW 2836   0.439   0.395   7.077
  650SOL    HW1 2837   0.528   0.360   7.078
  650SOL    HW2 2838   0.383   0.319   7.098
  651SOL     OW 2839   1.611   0.446   6.324
  651SOL    HW1 2840   1.531   0.469   6.277
  651SOL    HW2 2841   1.630   0.524   6.377
  652SOL     OW 2842   0.246   1.692   6.064
  652SOL    HW1 2843   0.230   1.776   6.105
  652SOL    HW2 2844   0.312   1.709   5.997
  653SOL     OW 2845   1.136   1.341   7.278
  653SOL    HW1 2846   1.176   1.337   7.365
  653SOL    HW2 2847   1.084   1.262   7.272
  654SOL     OW 2848   0.248   1.427   6.113
  654SOL    HW1 2849   0.239   1.522   6.117
  654SOL    HW2 2850   0.185   1.394   6.177
  655SOL     OW 2851   0.247   1.082   6.470
  655SOL    HW1 2852   0.264   0.992   6.499
  655SOL    HW2 2853   0.188   1.118   6.535
  656SOL     OW 2854   0.614   1.791   7.017
  656SOL    HW1 2855   0.530   1.773   7.061
  656SOL    HW2 2856   0.635   1.881   7.041
  657SOL     OW 2857   0.580   0.986   5.724
  657SOL    HW1 2858   0.627   1.029   5.653
  657SOL    HW2 2859   0.625   1.015   5.803
  658SOL     OW 2860   1.582   0.116   7.057
  658SOL    HW1 2861   1.603   0.184   6.994
  658SOL    HW2 2862   1.572   0.162   7.141
  659SOL     OW 2863   0.136   0.643   6.160
  659SOL    HW1 2864   0.084   0.565   6.178
  659SOL    HW2 2865   0.107   0.706   6.227
  660SOL     OW 2866   0.033   1.602   5.726
  660SOL    HW1 2867   0.021   1.507   5.723
  660SOL    HW2 2868   0.019   1.625   5.817
  661SOL     OW 2869   1.688   0.918   6.224
  661SOL    HW1 2870   1.774   0.879   6.206
  661SOL    HW2 2871   1.668   0.970   6.146
  662SOL     OW 2872   1.646   1.109   6.015
  662SOL    HW1 2873   1.732   1.113   5.975
  662SOL    HW2 2874   1.652   1.169   6.090
  663SOL     OW 2875   0.105   0.764   7.168
  663SOL    HW1 2876   0.196   0.760   7.141
  663SOL    HW2 2877   0.089   0.857   7.187
  664SOL     OW 2878   0.614   1.385   6.322
  664SOL    HW1 2879   0.567   1.302   6.331
  664SOL    HW2 2880   0.597   1.411   6.231
  665SOL     OW 2881   1.289   1.238   7.010
  665SOL    HW1 2882   1.322   1.172   6.949
  665SOL    HW2 2883   1.346   1.232   7.086
  666SOL     OW 2884   0.820   0.013   6.137
  666SOL    HW1 2885   0.854   0.099   6.112
  666SOL    HW2 2886   0.725   0.021   6.125
  667SOL     OW 2887   0.180   0.941   6.865
  667SOL    HW1 2888   0.272   0.924   6.845
  667SOL    HW2 2889   0.133   0.925   6.783
  668SOL     OW 2890   1.532   0.991   5.786
  668SOL    HW1 2891   1.462   0.935   5.818
  668SOL    HW2 2892   1.573   1.026   5.865
  669SOL     OW 2893   1.185   1.806   7.208
  669SOL    HW1 2894   1.198   1.864   7.133
  669SOL    HW2 2895   1.201   1.718   7.173
  670SOL     OW 2896   0.318   0.260   7.355
  670SOL    HW1 2897   0.386   0.311   7.399
  670SOL    HW2 2898   0.242   0.268   7.413
  671SOL     OW 2899   1.455   1.427   6.532
  671SOL    HW1 2900   1.393   1.435   6.604
  671SOL    HW2 2901   1.452   1.335   6.507
  672SOL     OW 2902   0.596   0.723   5.851
  672SOL    HW1 2903   0.598   0.804   5.801
  672SOL    HW2 2904   0.530   0.739   5.919
  673SOL     OW 2905   1.291   0.362   6.519
  673SOL    HW1 2906   1.202   0.332   6.503
  673SOL    HW2 2907   1.327   0.299   6.582
  674SOL     OW 2908   0.797   0.618   7.040
  674SOL    HW1 2909   0.769   0.593   7.128
  674SOL    HW2 2910   0.753   0.555   6.982
  675SOL     OW 2911   1.388   0.479   7.262
  675SOL    HW1 2912   1.392   0.523   7.347
  675SOL    HW2 2913   1.455   0.411   7.268
  676SOL     OW 2914   0.955   0.888   7.168
  676SOL    HW1 2915   1.010   0.817   7.133
  676SOL    HW2 2916   0.908   0.922   7.092
  677SOL     OW 2917   0.997   0.417   6.822
  677SOL    HW1 2918   0.910   0.427   6.861
  677SOL    HW2 2919   0.982   0.365   6.743
  678SOL     OW 2920   1.050   0.698   6.013
  678SOL    HW1 2921   1.066   0.690   6.107
  678SOL    HW2 2922   0.967   0.651   5.999
  679SOL     OW 2923   0.098   0.826   6.370
  679SOL    HW1 2924   0.184   0.810   6.407
  679SOL    HW2 2925   0.045   0.857   6.443
  680SOL     OW 2926   0.123   1.857   7.163
  680SOL    HW1 2927   0.117   1.833   7.255
  680SOL    HW2 2928   0.045   1.817   7.123
  681SOL     OW 2929   0.853   0.368   5.765
  681SOL    HW1 2930   0.928   0.403   5.716
  681SOL    HW2 2931   0.870   0.274   5.772
  682SOL     OW 2932   1.704   0.574   7.414
  682SOL    HW1 2933   1.669   0.649   7.367
  682SOL    HW2 2934   1.740   0.517   7.346
  683SOL     OW 2935   1.376   1.141   6.126
  683SOL    HW1 2936   1.457   1.131   6.076
  683SOL    HW2 2937   1.324   1.204   6.075
  684SOL     OW 2938   0.542   0.204   6.487
  684SOL    HW1 2939   0.562   0.223   6.578
  684SOL    HW2 2940   0.534   0.290   6.446
  685SOL     OW 2941   1.006   1.445   6.059
  685SOL    HW1 2942   0.968   1.517   6.010
  685SOL    HW2 2943   0.988   1.465   6.151
  686SOL     OW 2944   0.356   1.810   6.443
  686SOL    HW1 2945   0.397   1.724   6.454
  686SOL    HW2 2946   0.425   1.873   6.460
  687SOL     OW 2947   1.799   1.052   6.454
  687SOL    HW1 2948   1.743   1.042   6.378
  687SOL    HW2 2949   1.739   1.061   6.528
  688SOL     OW 2950   1.227   1.539   7.099
  688SOL    HW1 2951   1.214   1.466   7.160
  688SOL    HW2 2952   1.165   1.523   7.028
  689SOL     OW 2953   0.316   0.954   5.838
  689SOL    HW1 2954   0.400   0.977   5.799
  689SOL    HW2 2955   0.300   0.864   5.811
  690SOL     OW 2956   1.478   0.741   6.311
  690SOL    HW1 2957   1.468   0.698   6.396
  690SOL    HW2 2958   1.555   0.797   6.322
  691SOL     OW 2959   0.467   1.262   7.321
  691SOL    HW1 2960   0.440   1.268   7.230
  691SOL    HW2 2961   0.385   1.267   7.371
  692SOL     OW 2962   1.115   1.773   5.827
  692SOL    HW1 2963   1.041   1.730   5.868
  692SOL    HW2 2964   1.137   1.716   5.752
  693SOL     OW 2965   0.163   0.265   7.095
  693SOL    HW1 2966   0.136   0.352   7.068
  693SOL    HW2 2967   0.198   0.278   7.184
  694SOL     OW 2968   1.637   1.373   5.664
  694SOL    HW1 2969   1.583   1.451   5.647
  694SOL    HW2 2970   1.575   1.300   5.658
  695SOL     OW 2971   0.469   1.744   5.899
  695SOL    HW1 2972   0.510   1.796   5.968
  695SOL    HW2 2973   0.542   1.708   5.849
  696SOL     OW 2974   1.420   0.138   6.003
  696SOL    HW1 2975   1.404   0.086   5.925
  696SOL    HW2 2976   1.514   0.131   6.017
  697SOL     OW 2977   0.256   1.789   6.820
  697SOL    HW1 2978   0.305   1.715   6.857
  697SOL    HW2 2979   0.226   1.758   6.735
  698SOL     OW 2980   0.938   1.699   6.485
  698SOL    HW1 2981   1.015   1.647   6.506
  698SOL    HW2 2982   0.893   1.649   6.417
  699SOL     OW 2983   0.394   0.693   6.059
  699SOL    HW1 2984   0.419   0.602   6.071
  699SOL    HW2 2985   0.301   0.697   6.085
  700SOL     OW 2986   1.525   0.233   7.308
  700SOL    HW1 2987   1.525   0.256   7.401
  700SOL    HW2 2988   1.448   0.177   7.297
  701SOL     OW 2989   0.624   0.122   5.704
  701SOL    HW1 2990   0.712   0.086   5.716
  701SOL    HW2 2991   0.595   0.084   5.621
  702SOL     OW 2992   0.768   0.269   7.340
  702SOL    HW1 2993   0.835   0.202   7.349
  702SOL    HW2 2994   0.728   0.276   7.426
  703SOL     OW 2995   0.877   1.522   6.779
  703SOL    HW1 2996   0.861   1.485   6.692
  703SOL    HW2 2997   0.946   1.467   6.816
  704SOL     OW 2998   1.341   0.589   7.015
  704SOL    HW1 2999   1.369   0.560   7.102
  704SOL    HW2 3000   1.376   0.678   7.007
  705SOL     OW 3001   0.814   1.396   6.525
  705SOL    HW1 3002   0.898   1.384   6.481
  705SOL    HW2 3003   0.750   1.396   6.454
  706SOL     OW 3004   0.923   0.518   6.486
  706SOL    HW1 3005   0.906   0.516   6.392
  706SOL    HW2 3006   0.961   0.432   6.505
  707SOL     OW 3007   0.561   0.068   6.094
  707SOL    HW1 3008   0.474   0.055   6.132
  707SOL    HW2 3009   0.548   0.139   6.031
  708SOL     OW 3010   1.430   1.193   5.626
  708SOL    HW1 3011   1.457   1.117   5.679
  708SOL    HW2 3012   1.347   1.220   5.664
  709SOL     OW 3013   0.304   0.074   5.773
  709SOL    HW1 3014   0.388   0.121   5.771
  709SOL    HW2 3015   0.320   4.499   5.830
  710SOL     OW 3016   0.953   0.240   6.056
  710SOL    HW1 3017   0.901   0.295   5.997
  710SOL    HW2 3018   1.041   0.276   6.049
  711SOL     OW 3019   1.080   0.681   7.047
  711SOL    HW1 3020   1.010   0.616   7.047
  711SOL    HW2 3021   1.160   0.629   7.035
  712SOL     OW 3022   1.218   1.569   6.380
  712SOL    HW1 3023   1.242   1.635   6.315
  712SOL    HW2 3024   1.293   1.564   6.438
  713SOL     OW 3025   0.466   1.149   6.322
  713SOL    HW1 3026   0.395   1.130   6.384
  713SOL    HW2 3027   0.427   1.133   6.236
  714SOL     OW 3028   1.267   1.795   6.188
  714SOL    HW1 3029   1.310   1.862   6.136
  714SOL    HW2 3030   1.202   1.842   6.240
  715SOL     OW 3031   1.030   0.548   5.602
  715SOL    HW1 3032   0.981   0.629   5.587
  715SOL    HW2 3033   1.088   0.568   5.676
  716SOL     OW 3034   0.094   0.519   6.999
  716SOL    HW1 3035   0.151   0.527   6.923
  716SOL    HW2 3036   0.060   0.607   7.014
  717SOL     OW 3037   0.562   0.244   6.752
  717SOL    HW1 3038   0.593   0.161   6.788
  717SOL    HW2 3039   0.468   0.245   6.771
  718SOL     OW 3040   0.865   0.503   6.212
  718SOL    HW1 3041   0.819   0.544   6.139
  718SOL    HW2 3042   0.835   0.412   6.212
  719SOL     OW 3043   0.964   0.026   6.368
  719SOL    HW1 3044   0.915   0.024   6.286
  719SOL    HW2 3045   0.978   4.434   6.390
  720SOL     OW 3046   1.438   1.165   6.445
  720SOL    HW1 3047   1.370   1.098   6.441
  720SOL    HW2 3048   1.465   1.177   6.354
  721SOL     OW 3049   1.466   0.604   6.562
  721SOL    HW1 3050   1.413   0.525   6.564
  721SOL    HW2 3051   1.524   0.597   6.637
  722SOL     OW 3052   1.846   0.816   5.968
  722SOL    HW1 3053   1.902   0.765   6.027
  722SOL    HW2 3054   1.818   0.753   5.902
  723SOL     OW 3055   0.492   1.417   5.746
  723SOL    HW1 3056   0.415   1.388   5.795
  723SOL    HW2 3057   0.474   1.390   5.656
  724SOL     OW 3058   1.670   1.265   6.233
  724SOL    HW1 3059   1.765   1.268   6.245
  724SOL    HW2 3060   1.640   1.354   6.253
  725SOL     OW 3061   1.394   0.570   5.656
  725SOL    HW1 3062   1.333   0.555   5.727
  725SOL    HW2 3063   1.480   0.551   5.694
  726SOL     OW 3064   0.522   0.264   5.907
  726SOL    HW1 3065   0.570   0.215   5.841
  726SOL    HW2 3066   0.506   0.349   5.866
  727SOL     OW 3067   1.753   1.238   7.162
  727SOL    HW1 3068   1.841   1.199   7.155
  727SOL    HW2 3069   1.769   1.328   7.188
  728SOL     OW 3070   1.059   1.354   6.921
  728SOL    HW1 3071   0.984   1.323   6.972
  728SOL    HW2 3072   1.135   1.312   6.961
  729SOL     OW 3073   1.609   1.624   7.241
  729SOL    HW1 3074   1.601   1.660   7.152
  729SOL    HW2 3075   1.692   1.577   7.241
  730SOL     OW 3076   1.129   1.204   6.692
  730SOL    HW1 3077   1.069   1.241   6.757
  730SOL    HW2 3078   1.095   1.234   6.608
  731SOL     OW 3079   1.629   1.098   6.663
  731SOL    HW1 3080   1.624   1.160   6.737
  731SOL    HW2 3081   1.550   1.116   6.612
  732SOL     OW 3082   0.902   0.133   6.974
  732SOL    HW1 3083   0.924   0.088   6.892
  732SOL    HW2 3084   0.986   0.147   7.017
  733SOL     OW 3085   0.984   1.114   7.309
  733SOL    HW1 3086   0.892   1.130   7.330
  733SOL    HW2 3087   0.983   1.037   7.253
  734SOL     OW 3088   0.708   1.061   5.958
  734SOL    HW1 3089   0.696   1.045   6.052
  734SOL    HW2 3090   0.784   1.007   5.935
  735SOL     OW 3091   0.429   0.825   6.827
  735SOL    HW1 3092   0.498   0.835   6.893
  735SOL    HW2 3093   0.372   0.758   6.862
  736SOL     OW 3094   1.269   0.376   6.859
  736SOL    HW1 3095   1.301   0.454   6.903
  736SOL    HW2 3096   1.180   0.398   6.832
  737SOL     OW 3097   0.062   1.576   6.929
  737SOL    HW1 3098   0.035   1.665   6.905
  737SOL    HW2 3099   0.157   1.580   6.934
  738SOL     OW 3100   0.347   1.108   6.079
  738SOL    HW1 3101   0.357   1.181   6.018
  738SOL    HW2 3102   0.348   1.030   6.023
  739SOL     OW 3103   0.564   0.526   6.439
  739SOL    HW1 3104   0.575   0.587   6.366
  739SOL    HW2 3105   0.623   0.558   6.507
  740SOL     OW 3106   1.247   1.348   5.975
  740SOL    HW1 3107   1.302   1.419   6.008
  740SOL    HW2 3108   1.160   1.368   6.008
  741SOL     OW 3109   1.279   1.456   6.735
  741SOL    HW1 3110   1.335   1.458   6.812
  741SOL    HW2 3111   1.224   1.378   6.747
  742SOL     OW 3112   1.582   0.624   6.062
  742SOL    HW1 3113   1.536   0.675   6.130
  742SOL    HW2 3114   1.628   0.690   6.010
  743SOL     OW 3115   0.347   1.531   6.901
  743SOL    HW1 3116   0.333   1.484   6.819
  743SOL    HW2 3117   0.442   1.541   6.908
  744SOL     OW 3118   0.485   0.761   7.255
  744SOL    HW1 3119   0.510   0.799   7.171
  744SOL    HW2 3120   0.524   0.674   7.255
  745SOL     OW 3121   1.600   0.778   7.266
  745SOL    HW1 3122   1.514   0.819   7.260
  745SOL    HW2 3123   1.653   0.820   7.199
  746SOL     OW 3124   1.005   0.086   7.306
  746SOL    HW1 3125   1.035   0.169   7.269
  746SOL    HW2 3126   1.030   0.020   7.242
  747SOL     OW 3127   0.495   0.044   7.337
  747SOL    HW1 3128   0.480   4.497   7.255
  747SOL    HW2 3129   0.429   0.113   7.338
  748SOL     OW 3130   0.589   0.874   6.610
  748SOL    HW1 3131   0.619   0.965   6.612
  748SOL    HW2 3132   0.533   0.865   6.687
  749SOL     OW 3133   1.358   0.858   6.617
  749SOL    HW1 3134   1.276   0.850   6.569
  749SOL    HW2 3135   1.398   0.772   6.611
  750SOL     OW 3136   1.204   0.535   5.849
  750SOL    HW1 3137   1.211   0.455   5.901
  750SOL    HW2 3138   1.161   0.598   5.907
  751SOL     OW 3139   0.285   0.217   6.820
  751SOL    HW1 3140   0.246   0.234   6.906
  751SOL    HW2 3141   0.325   0.131   6.829
  752SOL     OW 3142   0.041   1.313   6.871
  752SOL    HW1 3143   0.076   1.265   6.947
  752SOL    HW2 3144   0.046   1.405   6.897
  753SOL     OW 3145   0.724   0.631   6.644
  753SOL    HW1 3146   0.798   0.611   6.587
  753SOL    HW2 3147   0.698   0.720   6.619
  754SOL     OW 3148   1.734   0.959   7.439
  754SOL    HW1 3149   1.687   0.900   7.379
  754SOL    HW2 3150   1.674   0.972   7.512
  755SOL     OW 3151   0.320   0.074   6.217
  755SOL    HW1 3152   0.302   0.163   6.249
  755SOL    HW2 3153   0.307   0.018   6.293
  756SOL     OW 3154   1.614   0.378   5.949
  756SOL    HW1 3155   1.643   0.314   6.015
  756SOL    HW2 3156   1.591   0.455   6.000
  757SOL     OW 3157   1.028   0.761   6.547
  757SOL    HW1 3158   1.026   0.778   6.641
  757SOL    HW2 3159   1.000   0.671   6.538
  758SOL     OW 3160   0.982   1.567   7.302
  758SOL    HW1 3161   0.967   1.610   7.219
  758SOL    HW2 3162   1.025   1.484   7.279
  759SOL     OW 3163   1.855   1.503   7.191
  759SOL    HW1 3164   1.869   1.531   7.101
  759SOL    HW2 3165   1.936   1.527   7.237
  760SOL     OW 3166   0.347   0.933   7.404
  760SOL    HW1 3167   0.419   0.963   7.459
  760SOL    HW2 3168   0.386   0.866   7.347
  761SOL     OW 3169   1.531   0.265   5.714
  761SOL    HW1 3170   1.459   0.209   5.743
  761SOL    HW2 3171   1.560   0.310   5.793
  762SOL     OW 3172   1.292   0.826   5.617
  762SOL    HW1 3173   1.334   0.740   5.620
  762SOL    HW2 3174   1.323   0.865   5.535
  763SOL     OW 3175   1.064   1.334   6.440
  763SOL    HW1 3176   1.068   1.261   6.377
  763SOL    HW2 3177   1.124   1.399   6.404
  764SOL     OW 3178   0.318   0.812   6.534
  764SOL    HW1 3179   0.412   0.830   6.531
  764SOL    HW2 3180   0.311   0.722   6.564
  765SOL     OW 3181   0.335   0.529   6.576
  765SOL    HW1 3182   0.290   0.447   6.557
  765SOL    HW2 3183   0.413   0.528   6.520
  766SOL     OW 3184   1.135   0.374   7.282
  766SOL    HW1 3185   1.086   0.438   7.332
  766SOL    HW2 3186   1.221   0.414   7.268
  767SOL     OW 3187   1.157   0.213   7.059
  767SOL    HW1 3188   1.151   0.277   7.130
  767SOL    HW2 3189   1.196   0.261   6.987
  768SOL     OW 3190   4.492   1.322   5.790
  768SOL    HW1 3191   4.399   1.338   5.772
  768SOL    HW2 3192   4.496   1.229   5.812
  769SOL     OW 3193   0.097   1.777   6.526
  769SOL    HW1 3194   0.059   1.722   6.457
  769SOL    HW2 3195   0.185   1.798   6.494
  770SOL     OW 3196   0.497   1.573   6.492
  770SOL    HW1 3197   0.565   1.636   6.516
  770SOL    HW2 3198   0.541   1.510   6.437
  771SOL     OW 3199   0.985   0.794   6.813
  771SOL    HW1 3200   1.040   0.770   6.888
  771SOL    HW2 3201   0.899   0.755   6.833
  772SOL     OW 3202   0.039   0.568   6.697
  772SOL    HW1 3203   0.113   0.524   6.655
  772SOL    HW2 3204   0.016   0.511   6.771
  773SOL     OW 3205   0.179   0.523   7.298
  773SOL    HW1 3206   0.266   0.505   7.262
  773SOL    HW2 3207   0.151   0.603   7.254
  774SOL     OW 3208   1.377   0.940   7.245
  774SOL    HW1 3209   1.398   1.033   7.243
  774SOL    HW2 3210   1.374   0.914   7.152
  775SOL     OW 3211   0.811   0.574   5.940
  775SOL    HW1 3212   0.814   0.502   5.877
  775SOL    HW2 3213   0.738   0.629   5.912
  776SOL     OW 3214   1.641   0.601   6.773
  776SOL    HW1 3215   1.630   0.542   6.847
  776SOL    HW2 3216   1.728   0.581   6.738
  777SOL     OW 3217   0.272   1.562   7.326
  777SOL    HW1 3218   0.217   1.614   7.385
  777SOL    HW2 3219   0.253   1.471   7.350
  778SOL     OW 3220   0.686   0.464   6.853
  778SOL    HW1 3221   0.647   0.384   6.817
  778SOL    HW2 3222   0.692   0.523   6.778
  779SOL     OW 3223   0.929   1.679   7.053
  779SOL    HW1 3224   0.902   1.646   6.968
  779SOL    HW2 3225   0.925   1.774   7.044
  780SOL     OW 3226   0.472   0.491   5.769
  780SOL    HW1 3227   0.532   0.562   5.792
  780SOL    HW2 3228   0.389   0.534   5.754
  781SOL     OW 3229   0.162   1.141   7.048
  781SOL    HW1 3230   0.146   1.095   7.130
  781SOL    HW2 3231   0.169   1.071   6.983
  782SOL     OW 3232   1.326   1.047   6.810
  782SOL    HW1 3233   1.350   0.984   6.742
  782SOL    HW2 3234   1.256   1.099   6.771
  783SOL     OW 3235   1.311   0.856   5.892
  783SOL    HW1 3236   1.236   0.827   5.944
  783SOL    HW2 3237   1.285   0.843   5.801
  784SOL     OW 3238   1.773   1.744   6.759
  784SOL    HW1 3239   1.809   1.789   6.682
  784SOL    HW2 3240   1.744   1.659   6.726
  785SOL     OW 3241   1.233   1.728   6.702
  785SOL    HW1 3242   1.324   1.752   6.683
  785SOL    HW2 3243   1.236   1.634   6.719
  786SOL     OW 3244   0.067   1.185   6.635
  786SOL    HW1 3245   0.067   1.218   6.725
  786SOL    HW2 3246   0.020   1.253   6.586
  787SOL     OW 3247   0.679   1.665   7.315
  787SOL    HW1 3248   0.624   1.743   7.309
  787SOL    HW2 3249   0.742   1.676   7.244
  788SOL     OW 3250   1.718   0.129   6.079
  788SOL    HW1 3251   1.790   0.138   6.017
  788SOL    HW2 3252   1.744   0.057   6.137
  789SOL     OW 3253   1.387   1.569   6.069
  789SOL    HW1 3254   1.442   1.602   5.998
  789SOL    HW2 3255   1.340   1.647   6.100
  790SOL     OW 3256   0.119   1.808   7.434
  790SOL    HW1 3257   0.079   1.735   7.481
  790SOL    HW2 3258   0.182   1.845   7.495
  791SOL     OW 3259   1.278   0.927   6.258
  791SOL    HW1 3260   1.351   0.865   6.264
  791SOL    HW2 3261   1.312   0.999   6.206
  792SOL     OW 3262   0.815   1.273   7.016
  792SOL    HW1 3263   0.788   1.312   7.099
  792SOL    HW2 3264   0.744   1.295   6.955
  793SOL     OW 3265   0.672   1.619   5.741
  793SOL    HW1 3266   0.682   1.630   5.646
  793SOL    HW2 3267   0.618   1.541   5.751
  794SOL     OW 3268   1.620   1.726   6.983
  794SOL    HW1 3269   1.676   1.730   6.905
  794SOL    HW2 3270   1.607   1.818   7.007
  795SOL     OW 3271   1.839   0.154   6.552
  795SOL    HW1 3272   1.867   0.077   6.504
  795SOL    HW2 3273   1.752   0.174   6.516
  796SOL     OW 3274   0.264   0.325   6.309
  796SOL    HW1 3275   0.181   0.359   6.276
  796SOL    HW2 3276   0.249   0.316   6.403
  797SOL     OW 3277   1.192   1.611   5.620
  797SOL    HW1 3278   1.190   1.518   5.646
  797SOL    HW2 3279   1.128   1.618   5.549
  798SOL     OW 3280   0.825   1.007   6.958
  798SOL    HW1 3281   0.869   1.003   6.873
  798SOL    HW2 3282   0.825   1.100   6.981
  799SOL     OW 3283   0.915   0.910   5.875
  799SOL    HW1 3284   0.977   0.942   5.810
  799SOL    HW2 3285   0.962   0.840   5.921
  800SOL     OW 3286   1.459   1.560   5.582
  800SOL    HW1 3287   1.369   1.593   5.589
  800SOL    HW2 3288   1.494   1.603   5.504
  801SOL     OW 3289   0.373   1.307   7.077
  801SOL    HW1 3290   0.356   1.385   7.025
  801SOL    HW2 3291   0.298   1.250   7.060
  802SOL     OW 3292   1.607   1.280   6.867
  802SOL    HW1 3293   1.673   1.275   6.936
  802SOL    HW2 3294   1.550   1.352   6.894
  803SOL     OW 3295   1.051   1.106   6.291
  803SOL    HW1 3296   0.981   1.055   6.331
  803SOL    HW2 3297   1.114   1.041   6.261
  804SOL     OW 3298   1.005   0.243   6.590
  804SOL    HW1 3299   1.011   0.220   6.497
  804SOL    HW2 3300   0.998   0.159   6.635
  805SOL     OW 3301   0.604   1.490   6.068
  805SOL    HW1 3302   0.645   1.440   5.997
  805SOL    HW2 3303   0.529   1.533   6.027
  806SOL     OW 3304   1.721   0.393   6.963
  806SOL    HW1 3305   1.793   0.456   6.963
  806SOL    HW2 3306   1.751   0.322   6.907
  807SOL     OW 3307   0.252   1.344   5.862
  807SOL    HW1 3308   0.157   1.344   5.848
  807SOL    HW2 3309   0.262   1.376   5.952
  808SOL     OW 3310   0.116   1.007   7.281
  808SOL    HW1 3311   0.052   1.050   7.339
  808SOL    HW2 3312   0.194   0.997   7.335
  809SOL     OW 3313   0.658   0.208   7.083
  809SOL    HW1 3314   0.738   0.182   7.037
  809SOL    HW2 3315   0.687   0.225   7.173
  810SOL     OW 3316   0.071   0.320   5.612
  810SOL    HW1 3317   4.477   0.328   5.626
  810SOL    HW2 3318   0.099   0.407   5.581
  811SOL     OW 3319   1.430   0.858   6.986
  811SOL    HW1 3320   1.382   0.919   6.931
  811SOL    HW2 3321   1.520   0.861   6.952
  812SOL     OW 3322   0.085   0.188   5.888
  812SOL    HW1 3323   0.077   0.261   5.826
  812SOL    HW2 3324   0.164   0.142   5.862
  813SOL     OW 3325   1.179   1.341   5.702
  813SOL    HW1 3326   1.089   1.309   5.705
  813SOL    HW2 3327   1.208   1.340   5.793
  814SOL     OW 3328   0.623   0.830   7.015
  814SOL    HW1 3329   0.677   0.907   7.002
  814SOL    HW2 3330   0.685   0.758   7.024
  815SOL     OW 3331   0.714   0.562   7.291
  815SOL    HW1 3332   0.751   0.628   7.349
  815SOL    HW2 3333   0.750   0.479   7.323
  816SOL     OW 3334   1.471   1.201   7.218
  816SOL    HW1 3335   1.459   1.215   7.312
  816SOL    HW2 3336   1.564   1.215   7.203
  817SOL     OW 3337   0.380   1.743   7.150
  817SOL    HW1 3338   0.295   1.784   7.133
  817SOL    HW2 3339   0.359   1.663   7.198
  818SOL     OW 3340   1.670   0.881   6.841
  818SOL    HW1 3341   1.662   0.797   6.797
  818SOL    HW2 3342   1.661   0.946   6.771
  819SOL     OW 3343   1.218   0.330   6.033
  819SOL    HW1 3344   1.283   0.260   6.023
  819SOL    HW2 3345   1.246   0.377   6.112
  820SOL     OW 3346   0.587   0.738   6.256
  820SOL    HW1 3347   0.628   0.823   6.241
  820SOL    HW2 3348   0.519   0.731   6.189
  821SOL     OW 3349   1.763   0.364   7.230
  821SOL    HW1 3350   1.747   0.378   7.136
  821SOL    HW2 3351   1.684   0.319   7.261
  822SOL     OW 3352   1.745   0.933   7.099
  822SOL    HW1 3353   1.743   1.028   7.112
  822SOL    HW2 3354   1.730   0.922   7.005
  823SOL     OW 3355   0.863   1.368   5.619
  823SOL    HW1 3356   0.824   1.393   5.703
  823SOL    HW2 3357   0.880   1.450   5.574
  824SOL     OW 3358   0.660   1.792   6.531
  824SOL    HW1 3359   0.640   1.883   6.508
  824SOL    HW2 3360   0.755   1.786   6.524
  825SOL     OW 3361   0.867   0.967   6.441
  825SOL    HW1 3362   0.917   0.895   6.480
  825SOL    HW2 3363   0.833   1.015   6.516
  826SOL     OW 3364   1.079   0.989   5.675
  826SOL    HW1 3365   1.058   1.039   5.596
  826SOL    HW2 3366   1.154   0.935   5.649
  827SOL     OW 3367   0.230   1.306   7.444
  827SOL    HW1 3368   0.157   1.248   7.421
  827SOL    HW2 3369   0.224   1.316   7.539
  828SOL     OW 3370   0.106   1.236   6.253
  828SOL    HW1 3371   0.116   1.189   6.336
  828SOL    HW2 3372   0.166   1.192   6.193
  829SOL     OW 3373   0.682   1.402   7.214
  829SOL    HW1 3374   0.602   1.358   7.242
  829SOL    HW2 3375   0.676   1.490   7.251
  830SOL     OW 3376   1.809   0.182   6.824
  830SOL    HW1 3377   1.807   0.088   6.845
  830SOL    HW2 3378   1.825   0.185   6.730
  831SOL     OW 3379   0.440   0.431   6.117
  831SOL    HW1 3380   0.458   0.361   6.054
  831SOL    HW2 3381   0.381   0.392   6.181
  832SOL     OW 3382   1.692   1.497   6.691
  832SOL    HW1 3383   1.619   1.466   6.637
  832SOL    HW2 3384   1.712   1.423   6.748
  833SOL     OW 3385   0.312   0.505   6.840
  833SOL    HW1 3386   0.383   0.456   6.880
  833SOL    HW2 3387   0.337   0.515   6.748
  834SOL     OW 3388   0.827   1.578   6.264
  834SOL    HW1 3389   0.814   1.628   6.184
  834SOL    HW2 3390   0.750   1.521   6.269
  835SOL     OW 3391   1.432   0.215   6.704
  835SOL    HW1 3392   1.468   0.145   6.757
  835SOL    HW2 3393   1.381   0.269   6.765
  836SOL     OW 3394   0.996   0.008   6.736
  836SOL    HW1 3395   0.953   4.423   6.727
  836SOL    HW2 3396   1.089   4.487   6.748
  837SOL     OW 3397   0.773   1.332   5.898
  837SOL    HW1 3398   0.740   1.242   5.905
  837SOL    HW2 3399   0.854   1.333   5.949
  838SOL     OW 3400   0.621   1.557   6.871
  838SOL    HW1 3401   0.623   1.638   6.921
  838SOL    HW2 3402   0.708   1.550   6.832
  839SOL     OW 3403   1.340   0.053   5.739
  839SOL    HW1 3404   1.379   4.477   5.695
  839SOL    HW2 3405   1.265   0.017   5.786
  840SOL     OW 3406   1.314   0.462   6.263
  840SOL    HW1 3407   1.255   0.537   6.264
  840SOL    HW2 3408   1.303   0.422   6.349
  841SOL     OW 3409   1.585   0.201   6.453
  841SOL    HW1 3410   1.526   0.215   6.527
  841SOL    HW2 3411   1.588   0.284   6.407
  842SOL     OW 3412   0.041   1.052   5.874
  842SOL    HW1 3413   0.135   1.036   5.864
  842SOL    HW2 3414   0.020   1.018   5.961
  843SOL     OW 3415   0.882   1.651   5.929
  843SOL    HW1 3416   0.810   1.633   5.869
  843SOL    HW2 3417   0.852   1.726   5.981
  844SOL     OW 3418   0.247   0.627   7.569
  844SOL    HW1 3419   0.172   0.607   7.625
  844SOL    HW2 3420   0.214   0.613   7.480
  845SOL     OW 3421   0.194   0.293   8.437
  845SOL    HW1 3422   0.229   0.268   8.523
  845SOL    HW2 3423   0.132   0.224   8.416
  846SOL     OW 3424   0.004   0.381   8.088
  846SOL    HW1 3425   4.426   0.418   8.129
  846SOL    HW2 3426   4.471   0.309   8.034
  847SOL     OW 3427   0.567   1.286   8.623
  847SOL    HW1 3428   0.480   1.291   8.584
  847SOL    HW2 3429   0.583   1.374   8.658
  848SOL     OW 3430   1.560   1.511   8.156
  848SOL    HW1 3431   1.517   1.492   8.239
  848SOL    HW2 3432   1.488   1.516   8.092
  849SOL     OW 3433   1.134   0.699   8.147
  849SOL    HW1 3434   1.180   0.782   8.136
  849SOL    HW2 3435   1.084   0.709   8.228
  850SOL     OW 3436   1.767   0.607   7.676
  850SOL    HW1 3437   1.746   0.598   7.583
  850SOL    HW2 3438   1.734   0.527   7.716
  851SOL     OW 3439   0.756   1.143   8.488
  851SOL    HW1 3440   0.687   1.177   8.544
  851SOL    HW2 3441   0.791   1.220   8.443
  852SOL     OW 3442   0.865   0.774   9.269
  852SOL    HW1 3443   0.851   0.845   9.332
  852SOL    HW2 3444   0.889   0.819   9.187
  853SOL     OW 3445   0.685   1.004   8.096
  853SOL    HW1 3446   0.751   0.991   8.164
  853SOL    HW2 3447   0.616   1.055   8.138
  854SOL     OW 3448   0.710   1.150   9.260
  854SOL    HW1 3449   0.757   1.229   9.286
  854SOL    HW2 3450   0.627   1.182   9.224
  855SOL     OW 3451   0.336   1.422   8.517
  855SOL    HW1 3452   0.254   1.402   8.471
  855SOL    HW2 3453   0.386   1.476   8.457
  856SOL     OW 3454   1.461   1.499   8.801
  856SOL    HW1 3455   1.511   1.580   8.810
  856SOL    HW2 3456   1.401   1.499   8.876
  857SOL     OW 3457   0.439   0.395   8.939
  857SOL    HW1 3458   0.528   0.360   8.940
  857SOL    HW2 3459   0.383   0.319   8.960
  858SOL     OW 3460   1.611   0.446   8.186
  858SOL    HW1 3461   1.531   0.468   8.139
  858SOL    HW2 3462   1.630   0.524   8.239
  859SOL     OW 3463   0.245   1.692   7.925
  859SOL    HW1 3464   0.231   1.776   7.967
  859SOL    HW2 3465   0.313   1.709   7.860
  860SOL     OW 3466   1.136   1.341   9.140
  860SOL    HW1 3467   1.176   1.337   9.227
  860SOL    HW2 3468   1.084   1.261   9.134
  861SOL     OW 3469   0.248   1.427   7.975
  861SOL    HW1 3470   0.239   1.522   7.978
  861SOL    HW2 3471   0.184   1.395   8.039
  862SOL     OW 3472   0.247   1.082   8.331
  862SOL    HW1 3473   0.264   0.992   8.361
  862SOL    HW2 3474   0.187   1.118   8.397
  863SOL     OW 3475   0.614   1.791   8.879
  863SOL    HW1 3476   0.530   1.773   8.923
  863SOL    HW2 3477   0.634   1.881   8.903
  864SOL     OW 3478   0.580   0.986   7.586
  864SOL    HW1 3479   0.627   1.030   7.515
  864SOL    HW2 3480   0.625   1.015   7.665
  865SOL     OW 3481   1.582   0.116   8.919
  865SOL    HW1 3482   1.602   0.185   8.856
  865SOL    HW2 3483   1.572   0.161   9.003
  866SOL     OW 3484   0.136   0.643   8.022
  866SOL    HW1 3485   0.084   0.565   8.040
  866SOL    HW2 3486   0.108   0.706   8.089
  867SOL     OW 3487   1.841   1.775   7.788
  867SOL    HW1 3488   1.898   1.736   7.855
  867SOL    HW2 3489   1.895   1.842   7.746
  868SOL     OW 3490   0.032   1.602   7.588
  868SOL    HW1 3491   0.021   1.507   7.585
  868SOL    HW2 3492   0.020   1.625   7.680
  869SOL     OW 3493   1.691   0.920   8.088
  869SOL    HW1 3494   1.774   0.878   8.067
  869SOL    HW2 3495   1.668   0.970   8.009
  870SOL     OW 3496   1.646   1.107   7.877
  870SOL    HW1 3497   1.732   1.114   7.835
  870SOL    HW2 3498   1.651   1.168   7.951
  871SOL     OW 3499   0.105   0.764   9.030
  871SOL    HW1 3500   0.196   0.760   9.003
  871SOL    HW2 3501   0.089   0.857   9.049
  872SOL     OW 3502   0.613   1.384   8.184
  872SOL    HW1 3503   0.566   1.301   8.193
  872SOL    HW2 3504   0.597   1.411   8.094
  873SOL     OW 3505   1.289   1.238   8.872
  873SOL    HW1 3506   1.322   1.171   8.812
  873SOL    HW2 3507   1.346   1.232   8.948
  874SOL     OW 3508   0.820   0.013   7.999
  874SOL    HW1 3509   0.854   0.099   7.974
  874SOL    HW2 3510   0.725   0.021   7.987
  875SOL     OW 3511   0.180   0.941   8.727
  875SOL    HW1 3512   0.272   0.924   8.707
  875SOL    HW2 3513   0.133   0.925   8.645
  876SOL     OW 3514   1.532   0.992   7.646
  876SOL    HW1 3515   1.461   0.936   7.678
  876SOL    HW2 3516   1.572   1.027   7.726
  877SOL     OW 3517   1.185   1.806   9.070
  877SOL    HW1 3518   1.198   1.864   8.995
  877SOL    HW2 3519   1.201   1.718   9.035
  878SOL     OW 3520   0.318   0.260   9.218
  878SOL    HW1 3521   0.386   0.311   9.261
  878SOL    HW2 3522   0.242   0.268   9.275
  879SOL     OW 3523   1.466   1.419   8.400
  879SOL    HW1 3524   1.398   1.434   8.465
  879SOL    HW2 3525   1.453   1.328   8.373
  880SOL     OW 3526   1.658   1.735   8.027
  880SOL    HW1 3527   1.634   1.706   7.939
  880SOL    HW2 3528   1.633   1.662   8.084
  881SOL     OW 3529   0.596   0.723   7.713
  881SOL    HW1 3530   0.599   0.804   7.663
  881SOL    HW2 3531   0.530   0.739   7.781
  882SOL     OW 3532   1.291   0.362   8.381
  882SOL    HW1 3533   1.202   0.332   8.365
  882SOL    HW2 3534   1.327   0.299   8.444
  883SOL     OW 3535   1.581   1.669   7.757
  883SOL    HW1 3536   1.668   1.707   7.749
  883SOL    HW2 3537   1.553   1.652   7.667
  884SOL     OW 3538   0.797   0.618   8.902
  884SOL    HW1 3539   0.769   0.593   8.990
  884SOL    HW2 3540   0.754   0.555   8.844
  885SOL     OW 3541   1.388   0.479   9.124
  885SOL    HW1 3542   1.392   0.523   9.209
  885SOL    HW2 3543   1.455   0.411   9.130
  886SOL     OW 3544   0.955   0.888   9.030
  886SOL    HW1 3545   1.010   0.817   8.995
  886SOL    HW2 3546   0.908   0.922   8.954
  887SOL     OW 3547   0.997   0.417   8.684
  887SOL    HW1 3548   0.910   0.427   8.723
  887SOL    HW2 3549   0.982   0.365   8.605
  888SOL     OW 3550   1.050   0.698   7.875
  888SOL    HW1 3551   1.066   0.690   7.969
  888SOL    HW2 3552   0.967   0.651   7.861
  889SOL     OW 3553   0.098   0.825   8.232
  889SOL    HW1 3554   0.184   0.809   8.269
  889SOL    HW2 3555   0.045   0.857   8.305
  890SOL     OW 3556   0.123   1.857   9.025
  890SOL    HW1 3557   0.117   1.833   9.117
  890SOL    HW2 3558   0.046   1.817   8.984
  891SOL     OW 3559   0.853   0.368   7.627
  891SOL    HW1 3560   0.927   0.403   7.578
  891SOL    HW2 3561   0.871   0.275   7.633
  892SOL     OW 3562   1.704   0.574   9.276
  892SOL    HW1 3563   1.669   0.649   9.229
  892SOL    HW2 3564   1.740   0.517   9.208
  893SOL     OW 3565   1.377   1.143   7.989
  893SOL    HW1 3566   1.455   1.130   7.936
  893SOL    HW2 3567   1.324   1.204   7.939
  894SOL     OW 3568   0.542   0.204   8.349
  894SOL    HW1 3569   0.562   0.223   8.440
  894SOL    HW2 3570   0.533   0.290   8.307
  895SOL     OW 3571   1.006   1.445   7.920
  895SOL    HW1 3572   0.968   1.517   7.871
  895SOL    HW2 3573   0.989   1.466   8.012
  896SOL     OW 3574   0.356   1.810   8.306
  896SOL    HW1 3575   0.398   1.724   8.316
  896SOL    HW2 3576   0.425   1.873   8.322
  897SOL     OW 3577   1.799   1.058   8.315
  897SOL    HW1 3578   1.744   1.039   8.239
  897SOL    HW2 3579   1.738   1.064   8.388
  898SOL     OW 3580   1.228   1.539   8.961
  898SOL    HW1 3581   1.214   1.466   9.021
  898SOL    HW2 3582   1.166   1.524   8.890
  899SOL     OW 3583   0.316   0.954   7.700
  899SOL    HW1 3584   0.401   0.977   7.661
  899SOL    HW2 3585   0.300   0.864   7.673
  900SOL     OW 3586   1.479   0.741   8.173
  900SOL    HW1 3587   1.467   0.697   8.257
  900SOL    HW2 3588   1.555   0.798   8.186
  901SOL     OW 3589   0.467   1.262   9.183
  901SOL    HW1 3590   0.440   1.268   9.092
  901SOL    HW2 3591   0.385   1.267   9.233
  902SOL     OW 3592   1.121   1.777   7.679
  902SOL    HW1 3593   1.048   1.736   7.725
  902SOL    HW2 3594   1.144   1.716   7.609
  903SOL     OW 3595   0.163   0.265   8.957
  903SOL    HW1 3596   0.136   0.352   8.930
  903SOL    HW2 3597   0.198   0.278   9.046
  904SOL     OW 3598   1.628   1.381   7.536
  904SOL    HW1 3599   1.586   1.465   7.519
  904SOL    HW2 3600   1.561   1.316   7.517
  905SOL     OW 3601   0.469   1.743   7.762
  905SOL    HW1 3602   0.510   1.797   7.830
  905SOL    HW2 3603   0.542   1.709   7.710
  906SOL     OW 3604   1.420   0.137   7.866
  906SOL    HW1 3605   1.403   0.086   7.786
  906SOL    HW2 3606   1.514   0.131   7.879
  907SOL     OW 3607   0.256   1.789   8.682
  907SOL    HW1 3608   0.305   1.715   8.719
  907SOL    HW2 3609   0.226   1.759   8.597
  908SOL     OW 3610   0.938   1.699   8.347
  908SOL    HW1 3611   1.015   1.646   8.369
  908SOL    HW2 3612   0.894   1.649   8.278
  909SOL     OW 3613   0.394   0.693   7.921
  909SOL    HW1 3614   0.419   0.602   7.933
  909SOL    HW2 3615   0.302   0.697   7.947
  910SOL     OW 3616   1.525   0.233   9.170
  910SOL    HW1 3617   1.525   0.256   9.263
  910SOL    HW2 3618   1.448   0.178   9.159
  911SOL     OW 3619   0.624   0.121   7.566
  911SOL    HW1 3620   0.712   0.086   7.578
  911SOL    HW2 3621   0.595   0.084   7.483
  912SOL     OW 3622   0.768   0.269   9.202
  912SOL    HW1 3623   0.835   0.201   9.211
  912SOL    HW2 3624   0.728   0.276   9.288
  913SOL     OW 3625   0.877   1.522   8.641
  913SOL    HW1 3626   0.861   1.485   8.554
  913SOL    HW2 3627   0.946   1.467   8.678
  914SOL     OW 3628   1.341   0.589   8.877
  914SOL    HW1 3629   1.369   0.560   8.964
  914SOL    HW2 3630   1.376   0.678   8.869
  915SOL     OW 3631   0.815   1.396   8.387
  915SOL    HW1 3632   0.899   1.384   8.342
  915SOL    HW2 3633   0.750   1.396   8.316
  916SOL     OW 3634   0.923   0.518   8.348
  916SOL    HW1 3635   0.906   0.516   8.254
  916SOL    HW2 3636   0.961   0.432   8.367
  917SOL     OW 3637   0.561   0.068   7.956
  917SOL    HW1 3638   0.474   0.055   7.994
  917SOL    HW2 3639   0.548   0.139   7.893
  918SOL     OW 3640   1.429   1.198   7.490
  918SOL    HW1 3641   1.458   1.122   7.539
  918SOL    HW2 3642   1.343   1.219   7.526
  919SOL     OW 3643   0.304   0.074   7.635
  919SOL    HW1 3644   0.388   0.121   7.632
  919SOL    HW2 3645   0.320   4.499   7.692
  920SOL     OW 3646   0.953   0.240   7.918
  920SOL    HW1 3647   0.901   0.295   7.859
  920SOL    HW2 3648   1.041   0.276   7.911
  921SOL     OW 3649   1.080   0.681   8.909
  921SOL    HW1 3650   1.010   0.616   8.909
  921SOL    HW2 3651   1.160   0.629   8.897
  922SOL     OW 3652   1.224   1.569   8.241
  922SOL    HW1 3653   1.241   1.637   8.176
  922SOL    HW2 3654   1.292   1.583   8.308
  923SOL     OW 3655   0.466   1.149   8.184
  923SOL    HW1 3656   0.395   1.130   8.246
  923SOL    HW2 3657   0.427   1.133   8.098
  924SOL     OW 3658   1.269   1.794   8.055
  924SOL    HW1 3659   1.314   1.855   7.998
  924SOL    HW2 3660   1.203   1.847   8.100
  925SOL     OW 3661   1.029   0.548   7.465
  925SOL    HW1 3662   0.981   0.629   7.449
  925SOL    HW2 3663   1.088   0.568   7.537
  926SOL     OW 3664   0.094   0.519   8.861
  926SOL    HW1 3665   0.151   0.527   8.785
  926SOL    HW2 3666   0.060   0.607   8.875
  927SOL     OW 3667   0.562   0.244   8.614
  927SOL    HW1 3668   0.592   0.160   8.650
  927SOL    HW2 3669   0.468   0.245   8.633
  928SOL     OW 3670   0.866   0.503   8.075
  928SOL    HW1 3671   0.820   0.544   8.001
  928SOL    HW2 3672   0.835   0.412   8.074
  929SOL     OW 3673   0.964   0.026   8.231
  929SOL    HW1 3674   0.915   0.024   8.148
  929SOL    HW2 3675   0.978   4.433   8.252
  930SOL     OW 3676   1.437   1.162   8.305
  930SOL    HW1 3677   1.368   1.096   8.305
  930SOL    HW2 3678   1.459   1.174   8.213
  931SOL     OW 3679   1.466   0.604   8.424
  931SOL    HW1 3680   1.413   0.525   8.426
  931SOL    HW2 3681   1.524   0.597   8.499
  932SOL     OW 3682   1.846   0.817   7.831
  932SOL    HW1 3683   1.902   0.766   7.888
  932SOL    HW2 3684   1.817   0.756   7.763
  933SOL     OW 3685   0.492   1.417   7.608
  933SOL    HW1 3686   0.415   1.387   7.657
  933SOL    HW2 3687   0.474   1.390   7.518
  934SOL     OW 3688   1.671   1.265   8.093
  934SOL    HW1 3689   1.765   1.270   8.108
  934SOL    HW2 3690   1.639   1.353   8.116
  935SOL     OW 3691   1.394   0.570   7.518
  935SOL    HW1 3692   1.333   0.555   7.589
  935SOL    HW2 3693   1.480   0.552   7.555
  936SOL     OW 3694   0.522   0.264   7.769
  936SOL    HW1 3695   0.570   0.214   7.703
  936SOL    HW2 3696   0.506   0.349   7.728
  937SOL     OW 3697   1.753   1.238   9.023
  937SOL    HW1 3698   1.841   1.200   9.017
  937SOL    HW2 3699   1.769   1.329   9.050
  938SOL     OW 3700   1.059   1.354   8.782
  938SOL    HW1 3701   0.984   1.323   8.833
  938SOL    HW2 3702   1.135   1.312   8.823
  939SOL     OW 3703   1.608   1.624   9.101
  939SOL    HW1 3704   1.602   1.660   9.013
  939SOL    HW2 3705   1.692   1.578   9.103
  940SOL     OW 3706   1.128   1.203   8.554
  940SOL    HW1 3707   1.069   1.241   8.619
  940SOL    HW2 3708   1.095   1.234   8.470
  941SOL     OW 3709   1.629   1.098   8.526
  941SOL    HW1 3710   1.625   1.161   8.598
  941SOL    HW2 3711   1.550   1.115   8.475
  942SOL     OW 3712   0.902   0.133   8.836
  942SOL    HW1 3713   0.924   0.088   8.754
  942SOL    HW2 3714   0.986   0.147   8.879
  943SOL     OW 3715   0.984   1.114   9.171
  943SOL    HW1 3716   0.892   1.130   9.192
  943SOL    HW2 3717   0.983   1.037   9.115
  944SOL     OW 3718   0.708   1.061   7.820
  944SOL    HW1 3719   0.696   1.045   7.914
  944SOL    HW2 3720   0.784   1.007   7.797
  945SOL     OW 3721   0.429   0.826   8.689
  945SOL    HW1 3722   0.498   0.835   8.755
  945SOL    HW2 3723   0.372   0.758   8.724
  946SOL     OW 3724   1.269   0.376   8.721
  946SOL    HW1 3725   1.301   0.454   8.765
  946SOL    HW2 3726   1.180   0.398   8.694
  947SOL     OW 3727   0.062   1.576   8.791
  947SOL    HW1 3728   0.036   1.665   8.766
  947SOL    HW2 3729   0.158   1.580   8.796
  948SOL     OW 3730   0.347   1.108   7.941
  948SOL    HW1 3731   0.357   1.182   7.881
  948SOL    HW2 3732   0.348   1.031   7.885
  949SOL     OW 3733   0.564   0.526   8.301
  949SOL    HW1 3734   0.575   0.587   8.228
  949SOL    HW2 3735   0.623   0.558   8.369
  950SOL     OW 3736   1.248   1.348   7.837
  950SOL    HW1 3737   1.303   1.420   7.868
  950SOL    HW2 3738   1.161   1.369   7.871
  951SOL     OW 3739   1.280   1.457   8.594
  951SOL    HW1 3740   1.336   1.460   8.672
  951SOL    HW2 3741   1.225   1.380   8.607
  952SOL     OW 3742   1.582   0.623   7.925
  952SOL    HW1 3743   1.536   0.675   7.991
  952SOL    HW2 3744   1.626   0.689   7.871
  953SOL     OW 3745   0.347   1.531   8.763
  953SOL    HW1 3746   0.333   1.484   8.681
  953SOL    HW2 3747   0.442   1.541   8.770
  954SOL     OW 3748   0.485   0.761   9.117
  954SOL    HW1 3749   0.510   0.799   9.033
  954SOL    HW2 3750   0.524   0.674   9.117
  955SOL     OW 3751   1.600   0.778   9.128
  955SOL    HW1 3752   1.514   0.819   9.122
  955SOL    HW2 3753   1.653   0.820   9.061
  956SOL     OW 3754   1.005   0.086   9.168
  956SOL    HW1 3755   1.035   0.169   9.131
  956SOL    HW2 3756   1.030   0.020   9.104
  957SOL     OW 3757   0.495   0.044   9.199
  957SOL    HW1 3758   0.480   4.497   9.117
  957SOL    HW2 3759   0.429   0.113   9.200
  958SOL     OW 3760   0.589   0.874   8.472
  958SOL    HW1 3761   0.619   0.965   8.474
  958SOL    HW2 3762   0.533   0.865   8.549
  959SOL     OW 3763   1.358   0.858   8.478
  959SOL    HW1 3764   1.275   0.850   8.432
  959SOL    HW2 3765   1.398   0.772   8.472
  960SOL     OW 3766   1.204   0.535   7.711
  960SOL    HW1 3767   1.211   0.455   7.763
  960SOL    HW2 3768   1.161   0.598   7.770
  961SOL     OW 3769   0.285   0.217   8.682
  961SOL    HW1 3770   0.246   0.234   8.768
  961SOL    HW2 3771   0.325   0.131   8.691
  962SOL     OW 3772   0.041   1.313   8.733
  962SOL    HW1 3773   0.076   1.265   8.809
  962SOL    HW2 3774   0.046   1.405   8.759
  963SOL     OW 3775   0.724   0.631   8.506
  963SOL    HW1 3776   0.798   0.611   8.449
  963SOL    HW2 3777   0.698   0.720   8.481
  964SOL     OW 3778   1.734   0.959   9.300
  964SOL    HW1 3779   1.687   0.900   9.241
  964SOL    HW2 3780   1.675   0.972   9.374
  965SOL     OW 3781   0.320   0.074   8.079
  965SOL    HW1 3782   0.302   0.163   8.111
  965SOL    HW2 3783   0.307   0.018   8.156
  966SOL     OW 3784   1.614   0.377   7.811
  966SOL    HW1 3785   1.643   0.314   7.877
  966SOL    HW2 3786   1.591   0.455   7.862
  967SOL     OW 3787   1.029   0.761   8.409
  967SOL    HW1 3788   1.026   0.778   8.504
  967SOL    HW2 3789   1.000   0.671   8.400
  968SOL     OW 3790   0.982   1.566   9.164
  968SOL    HW1 3791   0.967   1.610   9.081
  968SOL    HW2 3792   1.025   1.484   9.141
  969SOL     OW 3793   1.856   1.504   9.054
  969SOL    HW1 3794   1.869   1.533   8.963
  969SOL    HW2 3795   1.937   1.527   9.098
  970SOL     OW 3796   0.347   0.933   9.266
  970SOL    HW1 3797   0.419   0.963   9.321
  970SOL    HW2 3798   0.386   0.866   9.210
  971SOL     OW 3799   1.531   0.265   7.576
  971SOL    HW1 3800   1.459   0.209   7.605
  971SOL    HW2 3801   1.560   0.310   7.655
  972SOL     OW 3802   1.292   0.826   7.479
  972SOL    HW1 3803   1.334   0.740   7.481
  972SOL    HW2 3804   1.323   0.866   7.397
  973SOL     OW 3805   1.065   1.335   8.301
  973SOL    HW1 3806   1.068   1.263   8.239
  973SOL    HW2 3807   1.127   1.399   8.267
  974SOL     OW 3808   0.318   0.812   8.396
  974SOL    HW1 3809   0.412   0.830   8.393
  974SOL    HW2 3810   0.311   0.722   8.426
  975SOL     OW 3811   0.335   0.529   8.438
  975SOL    HW1 3812   0.290   0.447   8.419
  975SOL    HW2 3813   0.413   0.528   8.382
  976SOL     OW 3814   1.135   0.374   9.144
  976SOL    HW1 3815   1.086   0.438   9.194
  976SOL    HW2 3816   1.221   0.414   9.130
  977SOL     OW 3817   1.157   0.213   8.921
  977SOL    HW1 3818   1.151   0.277   8.992
  977SOL    HW2 3819   1.196   0.261   8.849
  978SOL     OW 3820   4.491   1.322   7.652
  978SOL    HW1 3821   4.399   1.338   7.634
  978SOL    HW2 3822   4.496   1.229   7.674
  979SOL     OW 3823   0.097   1.777   8.388
  979SOL    HW1 3824   0.059   1.723   8.319
  979SOL    HW2 3825   0.185   1.798   8.356
  980SOL     OW 3826   0.497   1.574   8.355
  980SOL    HW1 3827   0.565   1.636   8.379
  980SOL    HW2 3828   0.541   1.510   8.298
  981SOL     OW 3829   0.985   0.794   8.675
  981SOL    HW1 3830   1.040   0.770   8.750
  981SOL    HW2 3831   0.899   0.755   8.695
  982SOL     OW 3832   0.039   0.568   8.559
  982SOL    HW1 3833   0.113   0.524   8.517
  982SOL    HW2 3834   0.016   0.511   8.633
  983SOL     OW 3835   0.180   0.523   9.160
  983SOL    HW1 3836   0.266   0.505   9.124
  983SOL    HW2 3837   0.151   0.603   9.116
  984SOL     OW 3838   1.377   0.939   9.107
  984SOL    HW1 3839   1.398   1.033   9.105
  984SOL    HW2 3840   1.374   0.914   9.014
  985SOL     OW 3841   0.811   0.574   7.803
  985SOL    HW1 3842   0.815   0.502   7.739
  985SOL    HW2 3843   0.739   0.629   7.774
  986SOL     OW 3844   1.641   0.601   8.635
  986SOL    HW1 3845   1.630   0.542   8.709
  986SOL    HW2 3846   1.728   0.582   8.600
  987SOL     OW 3847   0.272   1.562   9.188
  987SOL    HW1 3848   0.216   1.613   9.247
  987SOL    HW2 3849   0.253   1.471   9.212
  988SOL     OW 3850   0.686   0.464   8.715
  988SOL    HW1 3851   0.647   0.384   8.679
  988SOL    HW2 3852   0.692   0.523   8.640
  989SOL     OW 3853   0.928   1.679   8.915
  989SOL    HW1 3854   0.902   1.645   8.830
  989SOL    HW2 3855   0.925   1.774   8.906
  990SOL     OW 3856   0.472   0.491   7.631
  990SOL    HW1 3857   0.532   0.562   7.654
  990SOL    HW2 3858   0.389   0.534   7.616
  991SOL     OW 3859   0.162   1.141   8.910
  991SOL    HW1 3860   0.146   1.095   8.992
  991SOL    HW2 3861   0.169   1.071   8.845
  992SOL     OW 3862   1.327   1.047   8.672
  992SOL    HW1 3863   1.350   0.984   8.604
  992SOL    HW2 3864   1.256   1.099   8.633
  993SOL     OW 3865   1.311   0.856   7.754
  993SOL    HW1 3866   1.236   0.827   7.805
  993SOL    HW2 3867   1.285   0.843   7.663
  994SOL     OW 3868   1.764   1.741   8.598
  994SOL    HW1 3869   1.827   1.772   8.533
  994SOL    HW2 3870   1.747   1.650   8.573
  995SOL     OW 3871   1.241   1.733   8.561
  995SOL    HW1 3872   1.323   1.753   8.517
  995SOL    HW2 3873   1.246   1.639   8.580
  996SOL     OW 3874   0.067   1.185   8.497
  996SOL    HW1 3875   0.067   1.218   8.587
  996SOL    HW2 3876   0.021   1.253   8.448
  997SOL     OW 3877   0.679   1.665   9.177
  997SOL    HW1 3878   0.624   1.743   9.171
  997SOL    HW2 3879   0.742   1.676   9.106
  998SOL     OW 3880   1.718   0.130   7.942
  998SOL    HW1 3881   1.790   0.138   7.879
  998SOL    HW2 3882   1.744   0.057   7.999
  999SOL     OW 3883   1.390   1.567   7.933
  999SOL    HW1 3884   1.449   1.600   7.865
  999SOL    HW2 3885   1.341   1.645   7.961
 1000SOL     OW 3886   0.118   1.808   9.296
 1000SOL    HW1 3887   0.079   1.735   9.343
 1000SOL    HW2 3888   0.182   1.845   9.357
 1001SOL     OW 3889   1.278   0.927   8.120
 1001SOL    HW1 3890   1.351   0.865   8.125
 1001SOL    HW2 3891   1.312   0.999   8.068
 1002SOL     OW 3892   0.815   1.273   8.878
 1002SOL    HW1 3893   0.788   1.312   8.961
 1002SOL    HW2 3894   0.745   1.295   8.817
 1003SOL     OW 3895   0.672   1.619   7.603
 1003SOL    HW1 3896   0.682   1.630   7.509
 1003SOL    HW2 3897   0.618   1.541   7.612
 1004SOL     OW 3898   1.625   1.725   8.839
 1004SOL    HW1 3899   1.674   1.733   8.757
 1004SOL    HW2 3900   1.612   1.815   8.868
 1005SOL     OW 3901   1.839   0.154   8.414
 1005SOL    HW1 3902   1.868   0.077   8.366
 1005SOL    HW2 3903   1.752   0.174   8.378
 1006SOL     OW 3904   0.264   0.325   8.171
 1006SOL    HW1 3905   0.181   0.359   8.138
 1006SOL    HW2 3906   0.249   0.316   8.265
 1007SOL     OW 3907   1.207   1.606   7.479
 1007SOL    HW1 3908   1.198   1.515   7.506
 1007SOL    HW2 3909   1.142   1.618   7.410
 1008SOL     OW 3910   0.825   1.007   8.820
 1008SOL    HW1 3911   0.868   1.003   8.734
 1008SOL    HW2 3912   0.825   1.100   8.843
 1009SOL     OW 3913   0.915   0.910   7.737
 1009SOL    HW1 3914   0.977   0.942   7.672
 1009SOL    HW2 3915   0.962   0.840   7.783
 1010SOL     OW 3916   1.493   1.626   7.491
 1010SOL    HW1 3917   1.398   1.620   7.477
 1010SOL    HW2 3918   1.529   1.631   7.402
 1011SOL     OW 3919   0.373   1.307   8.939
 1011SOL    HW1 3920   0.356   1.385   8.887
 1011SOL    HW2 3921   0.298   1.250   8.922
 1012SOL     OW 3922   1.610   1.283   8.728
 1012SOL    HW1 3923   1.672   1.274   8.801
 1012SOL    HW2 3924   1.551   1.353   8.755
 1013SOL     OW 3925   1.051   1.107   8.153
 1013SOL    HW1 3926   0.981   1.056   8.193
 1013SOL    HW2 3927   1.113   1.041   8.123
 1014SOL     OW 3928   1.005   0.243   8.452
 1014SOL    HW1 3929   1.011   0.220   8.359
 1014SOL    HW2 3930   0.998   0.159   8.497
 1015SOL     OW 3931   0.604   1.489   7.930
 1015SOL    HW1 3932   0.645   1.439   7.860
 1015SOL    HW2 3933   0.531   1.534   7.888
 1016SOL     OW 3934   1.721   0.393   8.825
 1016SOL    HW1 3935   1.793   0.456   8.824
 1016SOL    HW2 3936   1.751   0.322   8.769
 1017SOL     OW 3937   0.252   1.344   7.724
 1017SOL    HW1 3938   0.157   1.344   7.710
 1017SOL    HW2 3939   0.263   1.376   7.814
 1018SOL     OW 3940   0.116   1.007   9.143
 1018SOL    HW1 3941   0.052   1.050   9.201
 1018SOL    HW2 3942   0.194   0.997   9.197
 1019SOL     OW 3943   0.658   0.208   8.945
 1019SOL    HW1 3944   0.738   0.182   8.899
 1019SOL    HW2 3945   0.687   0.225   9.035
 1020SOL     OW 3946   0.071   0.320   7.474
 1020SOL    HW1 3947   4.477   0.328   7.488
 1020SOL    HW2 3948   0.099   0.407   7.443
 1021SOL     OW 3949   1.430   0.858   8.848
 1021SOL    HW1 3950   1.382   0.919   8.793
 1021SOL    HW2 3951   1.520   0.861   8.814
 1022SOL     OW 3952   0.085   0.188   7.750
 1022SOL    HW1 3953   0.077   0.261   7.689
 1022SOL    HW2 3954   0.164   0.142   7.724
 1023SOL     OW 3955   1.179   1.340   7.565
 1023SOL    HW1 3956   1.088   1.310   7.567
 1023SOL    HW2 3957   1.207   1.340   7.656
 1024SOL     OW 3958   0.623   0.830   8.877
 1024SOL    HW1 3959   0.677   0.908   8.864
 1024SOL    HW2 3960   0.685   0.758   8.886
 1025SOL     OW 3961   1.485   1.775   8.426
 1025SOL    HW1 3962   1.508   1.837   8.357
 1025SOL    HW2 3963   1.567   1.761   8.474
 1026SOL     OW 3964   0.714   0.562   9.153
 1026SOL    HW1 3965   0.750   0.628   9.211
 1026SOL    HW2 3966   0.750   0.479   9.185
 1027SOL     OW 3967   1.471   1.201   9.080
 1027SOL    HW1 3968   1.459   1.215   9.174
 1027SOL    HW2 3969   1.564   1.215   9.066
 1028SOL     OW 3970   0.380   1.744   9.012
 1028SOL    HW1 3971   0.295   1.784   8.995
 1028SOL    HW2 3972   0.359   1.663   9.060
 1029SOL     OW 3973   1.670   0.881   8.703
 1029SOL    HW1 3974   1.662   0.796   8.660
 1029SOL    HW2 3975   1.661   0.945   8.633
 1030SOL     OW 3976   1.218   0.329   7.896
 1030SOL    HW1 3977   1.283   0.260   7.885
 1030SOL    HW2 3978   1.246   0.377   7.974
 1031SOL     OW 3979   0.587   0.738   8.118
 1031SOL    HW1 3980   0.628   0.823   8.103
 1031SOL    HW2 3981   0.519   0.731   8.051
 1032SOL     OW 3982   1.763   0.364   9.092
 1032SOL    HW1 3983   1.747   0.378   8.998
 1032SOL    HW2 3984   1.685   0.319   9.123
 1033SOL     OW 3985   1.745   0.933   8.961
 1033SOL    HW1 3986   1.743   1.028   8.974
 1033SOL    HW2 3987   1.730   0.922   8.867
 1034SOL     OW 3988   0.863   1.367   7.481
 1034SOL    HW1 3989   0.824   1.394   7.564
 1034SOL    HW2 3990   0.881   1.450   7.435
 1035SOL     OW 3991   0.660   1.792   8.394
 1035SOL    HW1 3992   0.640   1.883   8.369
 1035SOL    HW2 3993   0.755   1.786   8.386
 1036SOL     OW 3994   0.867   0.967   8.303
 1036SOL    HW1 3995   0.917   0.895   8.342
 1036SOL    HW2 3996   0.833   1.016   8.378
 1037SOL     OW 3997   1.080   0.988   7.537
 1037SOL    HW1 3998   1.057   1.039   7.459
 1037SOL    HW2 3999   1.154   0.935   7.510
 1038SOL     OW 4000   1.854   1.547   8.287
 1038SOL    HW1 4001   1.771   1.540   8.240
 1038SOL    HW2 4002   1.844   1.489   8.363
 1039SOL     OW 4003   0.230   1.306   9.306
 1039SOL    HW1 4004   0.157   1.248   9.283
 1039SOL    HW2 4005   0.224   1.316   9.401
 1040SOL     OW 4006   0.106   1.236   8.116
 1040SOL    HW1 4007   0.117   1.189   8.198
 1040SOL    HW2 4008   0.165   1.192   8.055
 1041SOL     OW 4009   0.682   1.402   9.076
 1041SOL    HW1 4010   0.602   1.358   9.104
 1041SOL    HW2 4011   0.676   1.490   9.113
 1042SOL     OW 4012   1.809   0.182   8.686
 1042SOL    HW1 4013   1.807   0.088   8.707
 1042SOL    HW2 4014   1.825   0.185   8.592
 1043SOL     OW 4015   0.440   0.431   7.979
 1043SOL    HW1 4016   0.458   0.361   7.916
 1043SOL    HW2 4017   0.381   0.392   8.043
 1044SOL     OW 4018   1.704   1.485   8.539
 1044SOL    HW1 4019   1.620   1.463   8.499
 1044SOL    HW2 4020   1.716   1.420   8.608
 1045SOL     OW 4021   0.312   0.505   8.702
 1045SOL    HW1 4022   0.383   0.456   8.742
 1045SOL    HW2 4023   0.337   0.515   8.610
 1046SOL     OW 4024   0.827   1.578   8.126
 1046SOL    HW1 4025   0.815   1.630   8.046
 1046SOL    HW2 4026   0.750   1.521   8.129
 1047SOL     OW 4027   1.432   0.216   8.566
 1047SOL    HW1 4028   1.468   0.145   8.619
 1047SOL    HW2 4029   1.381   0.269   8.627
 1048SOL     OW 4030   0.996   0.008   8.598
 1048SOL    HW1 4031   0.953   4.423   8.589
 1048SOL    HW2 4032   1.089   4.487   8.610
 1049SOL     OW 4033   0.772   1.332   7.761
 1049SOL    HW1 4034   0.740   1.242   7.767
 1049SOL    HW2 4035   0.854   1.333   7.811
 1050SOL     OW 4036   0.621   1.557   8.733
 1050SOL    HW1 4037   0.623   1.638   8.783
 1050SOL    HW2 4038   0.708   1.549   8.695
 1051SOL     OW 4039   1.341   0.053   7.601
 1051SOL    HW1 4040   1.380   4.477   7.557
 1051SOL    HW2 4041   1.265   0.017   7.648
 1052SOL     OW 4042   1.314   0.463   8.125
 1052SOL    HW1 4043   1.255   0.537   8.126
 1052SOL    HW2 4044   1.303   0.422   8.211
 1053SOL     OW 4045   1.585   0.201   8.316
 1053SOL    HW1 4046   1.526   0.215   8.389
 1053SOL    HW2 4047   1.588   0.284   8.269
 1054SOL     OW 4048   0.041   1.052   7.736
 1054SOL    HW1 4049   0.135   1.036   7.726
 1054SOL    HW2 4050   0.020   1.018   7.823
 1055SOL     OW 4051   0.884   1.652   7.791
 1055SOL    HW1 4052   0.812   1.634   7.730
 1055SOL    HW2 4053   0.854   1.727   7.842
 1056SOL     OW 4054   0.247   0.627   9.431
 1056SOL    HW1 4055   0.172   0.607   9.487
 1056SOL    HW2 4056   0.214   0.613   9.342
 1057SOL     OW 4057   0.196   0.293  10.300
 1057SOL    HW1 4058   0.231   0.269  10.386
 1057SOL    HW2 4059   0.134   0.224  10.279
 1058SOL     OW 4060   0.004   0.381   9.950
 1058SOL    HW1 4061   4.426   0.418   9.991
 1058SOL    HW2 4062   4.472   0.309   9.896
 1059SOL     OW 4063   0.567   1.286  10.486
 1059SOL    HW1 4064   0.481   1.291  10.446
 1059SOL    HW2 4065   0.583   1.375  10.520
 1060SOL     OW 4066   1.561   1.512  10.017
 1060SOL    HW1 4067   1.518   1.492  10.100
 1060SOL    HW2 4068   1.489   1.516   9.954
 1061SOL     OW 4069   1.134   0.699  10.009
 1061SOL    HW1 4070   1.181   0.782   9.999
 1061SOL    HW2 4071   1.084   0.709  10.090
 1062SOL     OW 4072   1.767   0.607   9.538
 1062SOL    HW1 4073   1.746   0.598   9.445
 1062SOL    HW2 4074   1.734   0.527   9.578
 1063SOL     OW 4075   0.757   1.143  10.351
 1063SOL    HW1 4076   0.687   1.178  10.407
 1063SOL    HW2 4077   0.791   1.220  10.305
 1064SOL     OW 4078   0.853   0.777   0.021
 1064SOL    HW1 4079   0.861   0.833   0.098
 1064SOL    HW2 4080   0.886   0.830  11.049
 1065SOL     OW 4081   0.685   1.004   9.958
 1065SOL    HW1 4082   0.751   0.991  10.026
 1065SOL    HW2 4083   0.616   1.055  10.000
 1066SOL     OW 4084   0.336   1.421  10.378
 1066SOL    HW1 4085   0.254   1.402  10.333
 1066SOL    HW2 4086   0.386   1.475  10.317
 1067SOL     OW 4087   1.463   1.500  10.659
 1067SOL    HW1 4088   1.518   1.578  10.666
 1067SOL    HW2 4089   1.412   1.498  10.739
 1068SOL     OW 4090   0.441   0.390  10.785
 1068SOL    HW1 4091   0.529   0.351  10.788
 1068SOL    HW2 4092   0.391   0.341  10.849
 1069SOL     OW 4093   1.611   0.446  10.048
 1069SOL    HW1 4094   1.531   0.468  10.001
 1069SOL    HW2 4095   1.630   0.524  10.101
 1070SOL     OW 4096   0.245   1.692   9.787
 1070SOL    HW1 4097   0.231   1.776   9.829
 1070SOL    HW2 4098   0.313   1.709   9.722
 1071SOL     OW 4099   0.248   1.427   9.837
 1071SOL    HW1 4100   0.239   1.522   9.840
 1071SOL    HW2 4101   0.184   1.395   9.901
 1072SOL     OW 4102   0.247   1.082  10.194
 1072SOL    HW1 4103   0.264   0.992  10.223
 1072SOL    HW2 4104   0.187   1.118  10.260
 1073SOL     OW 4105   0.612   1.790  10.739
 1073SOL    HW1 4106   0.532   1.771  10.787
 1073SOL    HW2 4107   0.634   1.880  10.763
 1074SOL     OW 4108   0.580   0.986   9.448
 1074SOL    HW1 4109   0.627   1.030   9.377
 1074SOL    HW2 4110   0.625   1.015   9.527
 1075SOL     OW 4111   1.554   0.136  10.784
 1075SOL    HW1 4112   1.600   0.192  10.722
 1075SOL    HW2 4113   1.614   0.127  10.858
 1076SOL     OW 4114   0.135   0.643   9.884
 1076SOL    HW1 4115   0.084   0.564   9.902
 1076SOL    HW2 4116   0.107   0.706   9.951
 1077SOL     OW 4117   1.839   1.741   9.648
 1077SOL    HW1 4118   1.908   1.724   9.712
 1077SOL    HW2 4119   1.848   1.835   9.629
 1078SOL     OW 4120   0.032   1.602   9.450
 1078SOL    HW1 4121   0.021   1.507   9.447
 1078SOL    HW2 4122   0.020   1.625   9.542
 1079SOL     OW 4123   1.691   0.920   9.950
 1079SOL    HW1 4124   1.774   0.878   9.929
 1079SOL    HW2 4125   1.668   0.969   9.871
 1080SOL     OW 4126   1.646   1.107   9.739
 1080SOL    HW1 4127   1.731   1.114   9.697
 1080SOL    HW2 4128   1.651   1.168   9.813
 1081SOL     OW 4129   0.096   0.761  10.911
 1081SOL    HW1 4130   0.186   0.743  10.882
 1081SOL    HW2 4131   0.088   0.856  10.908
 1082SOL     OW 4132   0.613   1.384  10.046
 1082SOL    HW1 4133   0.566   1.301  10.055
 1082SOL    HW2 4134   0.597   1.411   9.956
 1083SOL     OW 4135   1.295   1.237  10.752
 1083SOL    HW1 4136   1.319   1.177  10.682
 1083SOL    HW2 4137   1.351   1.213  10.825
 1084SOL     OW 4138   0.820   0.013   9.861
 1084SOL    HW1 4139   0.854   0.099   9.836
 1084SOL    HW2 4140   0.725   0.021   9.849
 1085SOL     OW 4141   0.178   0.940  10.590
 1085SOL    HW1 4142   0.270   0.922  10.570
 1085SOL    HW2 4143   0.133   0.924  10.507
 1086SOL     OW 4144   1.532   0.992   9.508
 1086SOL    HW1 4145   1.461   0.936   9.540
 1086SOL    HW2 4146   1.572   1.027   9.588
 1087SOL     OW 4147   1.195   1.806  10.927
 1087SOL    HW1 4148   1.196   1.869  10.856
 1087SOL    HW2 4149   1.204   1.720  10.885
 1088SOL     OW 4150   0.326   0.292  11.061
 1088SOL    HW1 4151   0.389   0.334   0.019
 1088SOL    HW2 4152   0.246   0.285   0.013
 1089SOL     OW 4153   1.466   1.419  10.261
 1089SOL    HW1 4154   1.397   1.435  10.326
 1089SOL    HW2 4155   1.453   1.328  10.235
 1090SOL     OW 4156   1.657   1.738   9.888
 1090SOL    HW1 4157   1.637   1.707   9.800
 1090SOL    HW2 4158   1.634   1.665   9.946
 1091SOL     OW 4159   0.596   0.723   9.575
 1091SOL    HW1 4160   0.599   0.804   9.525
 1091SOL    HW2 4161   0.530   0.739   9.643
 1092SOL     OW 4162   1.291   0.362  10.244
 1092SOL    HW1 4163   1.202   0.332  10.228
 1092SOL    HW2 4164   1.327   0.299  10.306
 1093SOL     OW 4165   1.576   1.669   9.618
 1093SOL    HW1 4166   1.669   1.692   9.613
 1093SOL    HW2 4167   1.550   1.653   9.528
 1094SOL     OW 4168   0.797   0.618  10.764
 1094SOL    HW1 4169   0.768   0.592  10.852
 1094SOL    HW2 4170   0.756   0.554  10.706
 1095SOL     OW 4171   0.965   0.898  10.902
 1095SOL    HW1 4172   1.014   0.826  10.862
 1095SOL    HW2 4173   0.915   0.936  10.829
 1096SOL     OW 4174   0.997   0.419  10.545
 1096SOL    HW1 4175   0.910   0.427  10.584
 1096SOL    HW2 4176   0.983   0.365  10.467
 1097SOL     OW 4177   1.050   0.698   9.737
 1097SOL    HW1 4178   1.066   0.690   9.831
 1097SOL    HW2 4179   0.967   0.651   9.723
 1098SOL     OW 4180   0.098   0.826  10.093
 1098SOL    HW1 4181   0.184   0.809  10.131
 1098SOL    HW2 4182   0.045   0.857  10.167
 1099SOL     OW 4183   0.117   1.851  10.900
 1099SOL    HW1 4184   0.115   1.790  10.974
 1099SOL    HW2 4185   0.051   1.818  10.839
 1100SOL     OW 4186   0.853   0.368   9.489
 1100SOL    HW1 4187   0.927   0.403   9.440
 1100SOL    HW2 4188   0.870   0.275   9.495
 1101SOL     OW 4189   1.377   1.143   9.851
 1101SOL    HW1 4190   1.455   1.130   9.798
 1101SOL    HW2 4191   1.324   1.204   9.801
 1102SOL     OW 4192   0.543   0.204  10.211
 1102SOL    HW1 4193   0.561   0.223  10.303
 1102SOL    HW2 4194   0.534   0.290  10.170
 1103SOL     OW 4195   1.007   1.445   9.783
 1103SOL    HW1 4196   0.968   1.517   9.733
 1103SOL    HW2 4197   0.989   1.466   9.874
 1104SOL     OW 4198   0.355   1.810  10.168
 1104SOL    HW1 4199   0.398   1.725  10.178
 1104SOL    HW2 4200   0.425   1.873  10.184
 1105SOL     OW 4201   1.799   1.058  10.177
 1105SOL    HW1 4202   1.743   1.039  10.101
 1105SOL    HW2 4203   1.738   1.063  10.251
 1106SOL     OW 4204   1.227   1.538  10.825
 1106SOL    HW1 4205   1.236   1.449  10.860
 1106SOL    HW2 4206   1.166   1.528  10.752
 1107SOL     OW 4207   0.316   0.954   9.562
 1107SOL    HW1 4208   0.400   0.977   9.523
 1107SOL    HW2 4209   0.300   0.864   9.535
 1108SOL     OW 4210   1.479   0.742  10.035
 1108SOL    HW1 4211   1.467   0.697  10.119
 1108SOL    HW2 4212   1.555   0.797  10.048
 1109SOL     OW 4213   0.454   1.268  11.052
 1109SOL    HW1 4214   0.426   1.280  10.961
 1109SOL    HW2 4215   0.387   1.212  11.091
 1110SOL     OW 4216   1.122   1.778   9.541
 1110SOL    HW1 4217   1.049   1.736   9.587
 1110SOL    HW2 4218   1.144   1.717   9.471
 1111SOL     OW 4219   0.163   0.260  10.820
 1111SOL    HW1 4220   0.139   0.349  10.795
 1111SOL    HW2 4221   0.205   0.270  10.906
 1112SOL     OW 4222   1.628   1.380   9.398
 1112SOL    HW1 4223   1.587   1.465   9.382
 1112SOL    HW2 4224   1.560   1.316   9.379
 1113SOL     OW 4225   0.469   1.743   9.624
 1113SOL    HW1 4226   0.510   1.797   9.692
 1113SOL    HW2 4227   0.542   1.709   9.572
 1114SOL     OW 4228   1.420   0.137   9.728
 1114SOL    HW1 4229   1.403   0.086   9.648
 1114SOL    HW2 4230   1.514   0.131   9.741
 1115SOL     OW 4231   0.254   1.790  10.546
 1115SOL    HW1 4232   0.304   1.718  10.584
 1115SOL    HW2 4233   0.228   1.758  10.459
 1116SOL     OW 4234   0.938   1.698  10.210
 1116SOL    HW1 4235   1.016   1.647  10.229
 1116SOL    HW2 4236   0.894   1.649  10.141
 1117SOL     OW 4237   0.394   0.693   9.783
 1117SOL    HW1 4238   0.419   0.602   9.795
 1117SOL    HW2 4239   0.301   0.697   9.809
 1118SOL     OW 4240   0.624   0.121   9.428
 1118SOL    HW1 4241   0.712   0.086   9.440
 1118SOL    HW2 4242   0.595   0.084   9.345
 1119SOL     OW 4243   0.767   0.272  11.043
 1119SOL    HW1 4244   0.829   0.205  11.072
 1119SOL    HW2 4245   0.711   0.288   0.018
 1120SOL     OW 4246   0.876   1.521  10.503
 1120SOL    HW1 4247   0.861   1.486  10.416
 1120SOL    HW2 4248   0.948   1.469  10.538
 1121SOL     OW 4249   1.344   0.590  10.753
 1121SOL    HW1 4250   1.394   0.573  10.833
 1121SOL    HW2 4251   1.370   0.678  10.727
 1122SOL     OW 4252   0.815   1.396  10.249
 1122SOL    HW1 4253   0.899   1.384  10.204
 1122SOL    HW2 4254   0.750   1.396  10.178
 1123SOL     OW 4255   0.923   0.518  10.210
 1123SOL    HW1 4256   0.906   0.516  10.116
 1123SOL    HW2 4257   0.961   0.432  10.230
 1124SOL     OW 4258   0.561   0.068   9.818
 1124SOL    HW1 4259   0.474   0.055   9.856
 1124SOL    HW2 4260   0.548   0.139   9.755
 1125SOL     OW 4261   1.428   1.198   9.351
 1125SOL    HW1 4262   1.458   1.122   9.401
 1125SOL    HW2 4263   1.342   1.219   9.388
 1126SOL     OW 4264   0.304   0.074   9.497
 1126SOL    HW1 4265   0.388   0.121   9.494
 1126SOL    HW2 4266   0.320   4.499   9.554
 1127SOL     OW 4267   0.953   0.240   9.779
 1127SOL    HW1 4268   0.901   0.295   9.721
 1127SOL    HW2 4269   1.041   0.276   9.773
 1128SOL     OW 4270   1.079   0.685  10.772
 1128SOL    HW1 4271   1.007   0.622  10.773
 1128SOL    HW2 4272   1.158   0.631  10.767
 1129SOL     OW 4273   1.223   1.570  10.104
 1129SOL    HW1 4274   1.241   1.637  10.038
 1129SOL    HW2 4275   1.292   1.583  10.170
 1130SOL     OW 4276   0.466   1.149  10.046
 1130SOL    HW1 4277   0.395   1.130  10.108
 1130SOL    HW2 4278   0.428   1.133   9.960
 1131SOL     OW 4279   1.269   1.794   9.917
 1131SOL    HW1 4280   1.314   1.856   9.859
 1131SOL    HW2 4281   1.203   1.847   9.962
 1132SOL     OW 4282   1.029   0.548   9.327
 1132SOL    HW1 4283   0.981   0.629   9.311
 1132SOL    HW2 4284   1.088   0.568   9.399
 1133SOL     OW 4285   0.087   0.519  10.723
 1133SOL    HW1 4286   0.151   0.528  10.653
 1133SOL    HW2 4287   0.064   0.608  10.747
 1134SOL     OW 4288   0.561   0.245  10.476
 1134SOL    HW1 4289   0.589   0.159  10.505
 1134SOL    HW2 4290   0.468   0.248  10.499
 1135SOL     OW 4291   0.865   0.503   9.936
 1135SOL    HW1 4292   0.819   0.544   9.863
 1135SOL    HW2 4293   0.835   0.412   9.936
 1136SOL     OW 4294   0.964   0.026  10.092
 1136SOL    HW1 4295   0.916   0.024  10.010
 1136SOL    HW2 4296   0.977   4.434  10.114
 1137SOL     OW 4297   1.436   1.163  10.167
 1137SOL    HW1 4298   1.368   1.095  10.166
 1137SOL    HW2 4299   1.460   1.174  10.075
 1138SOL     OW 4300   1.466   0.605  10.285
 1138SOL    HW1 4301   1.413   0.525  10.288
 1138SOL    HW2 4302   1.524   0.597  10.361
 1139SOL     OW 4303   1.846   0.817   9.693
 1139SOL    HW1 4304   1.902   0.765   9.750
 1139SOL    HW2 4305   1.817   0.755   9.625
 1140SOL     OW 4306   0.492   1.417   9.470
 1140SOL    HW1 4307   0.415   1.387   9.519
 1140SOL    HW2 4308   0.474   1.390   9.380
 1141SOL     OW 4309   1.670   1.265   9.956
 1141SOL    HW1 4310   1.765   1.269   9.970
 1141SOL    HW2 4311   1.639   1.353   9.978
 1142SOL     OW 4312   1.394   0.570   9.380
 1142SOL    HW1 4313   1.333   0.555   9.451
 1142SOL    HW2 4314   1.480   0.552   9.417
 1143SOL     OW 4315   0.522   0.264   9.631
 1143SOL    HW1 4316   0.570   0.214   9.565
 1143SOL    HW2 4317   0.506   0.349   9.590
 1144SOL     OW 4318   1.761   1.229  10.871
 1144SOL    HW1 4319   1.852   1.201  10.869
 1144SOL    HW2 4320   1.763   1.317  10.909
 1145SOL     OW 4321   1.064   1.353  10.649
 1145SOL    HW1 4322   0.986   1.321  10.694
 1145SOL    HW2 4323   1.136   1.306  10.689
 1146SOL     OW 4324   1.129   1.206  10.416
 1146SOL    HW1 4325   1.064   1.240  10.477
 1146SOL    HW2 4326   1.097   1.234  10.330
 1147SOL     OW 4327   1.630   1.099  10.388
 1147SOL    HW1 4328   1.626   1.160  10.461
 1147SOL    HW2 4329   1.550   1.116  10.338
 1148SOL     OW 4330   0.898   0.127  10.697
 1148SOL    HW1 4331   0.926   0.088  10.614
 1148SOL    HW2 4332   0.980   0.146  10.743
 1149SOL     OW 4333   0.708   1.061   9.682
 1149SOL    HW1 4334   0.696   1.045   9.776
 1149SOL    HW2 4335   0.784   1.007   9.659
 1150SOL     OW 4336   0.428   0.825  10.551
 1150SOL    HW1 4337   0.496   0.832  10.618
 1150SOL    HW2 4338   0.370   0.756  10.585
 1151SOL     OW 4339   1.271   0.382  10.581
 1151SOL    HW1 4340   1.301   0.459  10.629
 1151SOL    HW2 4341   1.181   0.404  10.554
 1152SOL     OW 4342   0.063   1.578  10.657
 1152SOL    HW1 4343   0.039   1.664  10.622
 1152SOL    HW2 4344   0.159   1.579  10.658
 1153SOL     OW 4345   0.347   1.108   9.803
 1153SOL    HW1 4346   0.357   1.182   9.743
 1153SOL    HW2 4347   0.348   1.031   9.747
 1154SOL     OW 4348   0.564   0.526  10.163
 1154SOL    HW1 4349   0.576   0.587  10.091
 1154SOL    HW2 4350   0.623   0.558  10.231
 1155SOL     OW 4351   1.248   1.348   9.699
 1155SOL    HW1 4352   1.304   1.420   9.730
 1155SOL    HW2 4353   1.161   1.369   9.733
 1156SOL     OW 4354   1.279   1.458  10.455
 1156SOL    HW1 4355   1.336   1.462  10.531
 1156SOL    HW2 4356   1.226   1.379  10.467
 1157SOL     OW 4357   1.582   0.624   9.787
 1157SOL    HW1 4358   1.536   0.675   9.853
 1157SOL    HW2 4359   1.626   0.689   9.733
 1158SOL     OW 4360   0.346   1.527  10.625
 1158SOL    HW1 4361   0.334   1.482  10.542
 1158SOL    HW2 4362   0.441   1.540  10.631
 1159SOL     OW 4363   0.490   0.749  10.972
 1159SOL    HW1 4364   0.521   0.785  10.889
 1159SOL    HW2 4365   0.525   0.660  10.975
 1160SOL     OW 4366   1.594   0.760  10.969
 1160SOL    HW1 4367   1.517   0.816  10.964
 1160SOL    HW2 4368   1.663   0.809  10.926
 1161SOL     OW 4369   0.588   0.874  10.334
 1161SOL    HW1 4370   0.618   0.965  10.337
 1161SOL    HW2 4371   0.532   0.865  10.411
 1162SOL     OW 4372   1.358   0.860  10.344
 1162SOL    HW1 4373   1.276   0.852  10.296
 1162SOL    HW2 4374   1.399   0.774  10.337
 1163SOL     OW 4375   1.204   0.535   9.573
 1163SOL    HW1 4376   1.211   0.455   9.625
 1163SOL    HW2 4377   1.161   0.598   9.632
 1164SOL     OW 4378   0.285   0.216  10.546
 1164SOL    HW1 4379   0.253   0.233  10.634
 1164SOL    HW2 4380   0.321   0.128  10.550
 1165SOL     OW 4381   0.042   1.315  10.595
 1165SOL    HW1 4382   0.075   1.266  10.670
 1165SOL    HW2 4383   0.044   1.407  10.623
 1166SOL     OW 4384   0.724   0.632  10.368
 1166SOL    HW1 4385   0.798   0.611  10.311
 1166SOL    HW2 4386   0.698   0.720  10.343
 1167SOL     OW 4387   0.320   0.074   9.941
 1167SOL    HW1 4388   0.302   0.163   9.973
 1167SOL    HW2 4389   0.308   0.018  10.018
 1168SOL     OW 4390   1.614   0.377   9.673
 1168SOL    HW1 4391   1.643   0.314   9.739
 1168SOL    HW2 4392   1.591   0.455   9.724
 1169SOL     OW 4393   1.028   0.762  10.271
 1169SOL    HW1 4394   1.026   0.777  10.366
 1169SOL    HW2 4395   0.999   0.671  10.261
 1170SOL     OW 4396   0.973   1.572  11.004
 1170SOL    HW1 4397   0.959   1.622  10.924
 1170SOL    HW2 4398   1.006   1.487  10.974
 1171SOL     OW 4399   1.859   1.492  10.912
 1171SOL    HW1 4400   1.871   1.527  10.824
 1171SOL    HW2 4401   1.921   1.541  10.966
 1172SOL     OW 4402   0.348   0.934  11.094
 1172SOL    HW1 4403   0.421   0.964   0.048
 1172SOL    HW2 4404   0.383   0.862  11.043
 1173SOL     OW 4405   1.531   0.265   9.438
 1173SOL    HW1 4406   1.459   0.209   9.467
 1173SOL    HW2 4407   1.560   0.310   9.517
 1174SOL     OW 4408   1.292   0.826   9.341
 1174SOL    HW1 4409   1.334   0.740   9.343
 1174SOL    HW2 4410   1.323   0.866   9.260
 1175SOL     OW 4411   1.066   1.335  10.164
 1175SOL    HW1 4412   1.069   1.263  10.101
 1175SOL    HW2 4413   1.127   1.399  10.129
 1176SOL     OW 4414   0.318   0.812  10.258
 1176SOL    HW1 4415   0.412   0.830  10.255
 1176SOL    HW2 4416   0.311   0.721  10.287
 1177SOL     OW 4417   0.335   0.530  10.301
 1177SOL    HW1 4418   0.291   0.447  10.283
 1177SOL    HW2 4419   0.413   0.528  10.245
 1178SOL     OW 4420   1.150   0.217  10.769
 1178SOL    HW1 4421   1.172   0.262  10.851
 1178SOL    HW2 4422   1.192   0.270  10.701
 1179SOL     OW 4423   4.491   1.322   9.514
 1179SOL    HW1 4424   4.399   1.338   9.496
 1179SOL    HW2 4425   4.496   1.229   9.536
 1180SOL     OW 4426   0.096   1.776  10.249
 1180SOL    HW1 4427   0.059   1.722  10.180
 1180SOL    HW2 4428   0.184   1.798  10.218
 1181SOL     OW 4429   0.497   1.574  10.217
 1181SOL    HW1 4430   0.565   1.637  10.240
 1181SOL    HW2 4431   0.541   1.510  10.160
 1182SOL     OW 4432   0.984   0.795  10.538
 1182SOL    HW1 4433   1.039   0.772  10.613
 1182SOL    HW2 4434   0.900   0.754  10.556
 1183SOL     OW 4435   0.035   0.565  10.417
 1183SOL    HW1 4436   0.114   0.525  10.380
 1183SOL    HW2 4437   0.021   0.518  10.499
 1184SOL     OW 4438   0.811   0.574   9.665
 1184SOL    HW1 4439   0.815   0.502   9.601
 1184SOL    HW2 4440   0.738   0.629   9.636
 1185SOL     OW 4441   1.641   0.601  10.496
 1185SOL    HW1 4442   1.631   0.543  10.571
 1185SOL    HW2 4443   1.728   0.582  10.462
 1186SOL     OW 4444   0.263   1.574  11.055
 1186SOL    HW1 4445   0.209   1.599   0.031
 1186SOL    HW2 4446   0.246   1.480  11.044
 1187SOL     OW 4447   0.693   0.461  10.576
 1187SOL    HW1 4448   0.649   0.383  10.543
 1187SOL    HW2 4449   0.696   0.521  10.501
 1188SOL     OW 4450   0.940   1.682  10.758
 1188SOL    HW1 4451   0.902   1.649  10.677
 1188SOL    HW2 4452   0.925   1.777  10.755
 1189SOL     OW 4453   0.472   0.491   9.493
 1189SOL    HW1 4454   0.532   0.562   9.516
 1189SOL    HW2 4455   0.389   0.534   9.478
 1190SOL     OW 4456   0.163   1.142  10.769
 1190SOL    HW1 4457   0.138   1.101  10.852
 1190SOL    HW2 4458   0.168   1.069  10.707
 1191SOL     OW 4459   1.325   1.053  10.538
 1191SOL    HW1 4460   1.351   0.987  10.473
 1191SOL    HW2 4461   1.254   1.101  10.495
 1192SOL     OW 4462   1.311   0.856   9.616
 1192SOL    HW1 4463   1.236   0.827   9.667
 1192SOL    HW2 4464   1.285   0.843   9.525
 1193SOL     OW 4465   1.764   1.747  10.457
 1193SOL    HW1 4466   1.831   1.772  10.394
 1193SOL    HW2 4467   1.746   1.655  10.437
 1194SOL     OW 4468   1.241   1.734  10.423
 1194SOL    HW1 4469   1.323   1.755  10.379
 1194SOL    HW2 4470   1.246   1.640  10.441
 1195SOL     OW 4471   0.067   1.185  10.360
 1195SOL    HW1 4472   0.068   1.219  10.450
 1195SOL    HW2 4473   0.020   1.253  10.310
 1196SOL     OW 4474   1.718   0.130   9.804
 1196SOL    HW1 4475   1.790   0.138   9.741
 1196SOL    HW2 4476   1.744   0.057   9.861
 1197SOL     OW 4477   1.390   1.567   9.795
 1197SOL    HW1 4478   1.449   1.599   9.727
 1197SOL    HW2 4479   1.341   1.645   9.823
 1198SOL     OW 4480   1.279   0.927   9.983
 1198SOL    HW1 4481   1.351   0.865   9.987
 1198SOL    HW2 4482   1.312   0.999   9.930
 1199SOL     OW 4483   0.819   1.274  10.738
 1199SOL    HW1 4484   0.788   1.308  10.822
 1199SOL    HW2 4485   0.749   1.295  10.677
 1200SOL     OW 4486   0.672   1.619   9.465
 1200SOL    HW1 4487   0.682   1.630   9.371
 1200SOL    HW2 4488   0.618   1.541   9.474
 1201SOL     OW 4489   1.621   1.719  10.696
 1201SOL    HW1 4490   1.675   1.734  10.619
 1201SOL    HW2 4491   1.605   1.807  10.732
 1202SOL     OW 4492   1.839   0.155  10.276
 1202SOL    HW1 4493   1.868   0.077  10.229
 1202SOL    HW2 4494   1.752   0.174  10.240
 1203SOL     OW 4495   0.264   0.325  10.033
 1203SOL    HW1 4496   0.181   0.359  10.000
 1203SOL    HW2 4497   0.250   0.316  10.128
 1204SOL     OW 4498   1.207   1.607   9.341
 1204SOL    HW1 4499   1.198   1.515   9.368
 1204SOL    HW2 4500   1.142   1.618   9.272
 1205SOL     OW 4501   0.826   1.006  10.686
 1205SOL    HW1 4502   0.869   0.999  10.600
 1205SOL    HW2 4503   0.826   1.100  10.705
 1206SOL     OW 4504   0.915   0.910   9.600
 1206SOL    HW1 4505   0.977   0.942   9.534
 1206SOL    HW2 4506   0.962   0.840   9.645
 1207SOL     OW 4507   1.493   1.625   9.352
 1207SOL    HW1 4508   1.398   1.619   9.338
 1207SOL    HW2 4509   1.529   1.631   9.263
 1208SOL     OW 4510   0.368   1.311  10.806
 1208SOL    HW1 4511   0.355   1.386  10.747
 1208SOL    HW2 4512   0.296   1.251  10.785
 1209SOL     OW 4513   1.612   1.282  10.592
 1209SOL    HW1 4514   1.671   1.270  10.667
 1209SOL    HW2 4515   1.555   1.355  10.617
 1210SOL     OW 4516   1.051   1.107  10.016
 1210SOL    HW1 4517   0.980   1.056  10.055
 1210SOL    HW2 4518   1.113   1.041   9.984
 1211SOL     OW 4519   1.006   0.244  10.314
 1211SOL    HW1 4520   1.011   0.220  10.221
 1211SOL    HW2 4521   0.998   0.160  10.359
 1212SOL     OW 4522   0.604   1.489   9.793
 1212SOL    HW1 4523   0.645   1.439   9.722
 1212SOL    HW2 4524   0.531   1.534   9.751
 1213SOL     OW 4525   1.719   0.394  10.689
 1213SOL    HW1 4526   1.791   0.456  10.691
 1213SOL    HW2 4527   1.748   0.324  10.631
 1214SOL     OW 4528   0.252   1.344   9.586
 1214SOL    HW1 4529   0.157   1.344   9.572
 1214SOL    HW2 4530   0.263   1.376   9.676
 1215SOL     OW 4531   0.110   1.019  11.003
 1215SOL    HW1 4532   0.052   1.024  11.080
 1215SOL    HW2 4533   0.197   1.000  11.040
 1216SOL     OW 4534   0.655   0.198  10.803
 1216SOL    HW1 4535   0.734   0.172  10.755
 1216SOL    HW2 4536   0.688   0.226  10.889
 1217SOL     OW 4537   0.071   0.320   9.336
 1217SOL    HW1 4538   4.477   0.328   9.350
 1217SOL    HW2 4539   0.099   0.407   9.305
 1218SOL     OW 4540   1.429   0.849  10.709
 1218SOL    HW1 4541   1.381   0.917  10.662
 1218SOL    HW2 4542   1.520   0.858  10.679
 1219SOL     OW 4543   0.085   0.188   9.612
 1219SOL    HW1 4544   0.077   0.261   9.550
 1219SOL    HW2 4545   0.164   0.142   9.586
 1220SOL     OW 4546   1.179   1.340   9.427
 1220SOL    HW1 4547   1.088   1.310   9.429
 1220SOL    HW2 4548   1.207   1.340   9.518
 1221SOL     OW 4549   0.623   0.828  10.739
 1221SOL    HW1 4550   0.678   0.906  10.725
 1221SOL    HW2 4551   0.686   0.756  10.747
 1222SOL     OW 4552   1.485   1.776  10.289
 1222SOL    HW1 4553   1.510   1.837  10.219
 1222SOL    HW2 4554   1.567   1.759  10.336
 1223SOL     OW 4555   0.713   0.562  11.014
 1223SOL    HW1 4556   0.748   0.634  11.067
 1223SOL    HW2 4557   0.762   0.485  11.043
 1224SOL     OW 4558   0.383   1.738  10.872
 1224SOL    HW1 4559   0.307   1.795  10.865
 1224SOL    HW2 4560   0.356   1.668  10.931
 1225SOL     OW 4561   1.671   0.882  10.567
 1225SOL    HW1 4562   1.662   0.797  10.524
 1225SOL    HW2 4563   1.662   0.946  10.496
 1226SOL     OW 4564   1.218   0.330   9.757
 1226SOL    HW1 4565   1.283   0.260   9.747
 1226SOL    HW2 4566   1.246   0.377   9.836
 1227SOL     OW 4567   0.587   0.738   9.980
 1227SOL    HW1 4568   0.628   0.823   9.964
 1227SOL    HW2 4569   0.519   0.731   9.913
 1228SOL     OW 4570   1.751   0.313  10.952
 1228SOL    HW1 4571   1.733   0.353  10.866
 1228SOL    HW2 4572   1.673   0.333  11.004
 1229SOL     OW 4573   1.748   0.935  10.826
 1229SOL    HW1 4574   1.742   1.030  10.840
 1229SOL    HW2 4575   1.731   0.924  10.732
 1230SOL     OW 4576   0.863   1.367   9.343
 1230SOL    HW1 4577   0.824   1.395   9.426
 1230SOL    HW2 4578   0.881   1.449   9.297
 1231SOL     OW 4579   0.660   1.792  10.256
 1231SOL    HW1 4580   0.639   1.882  10.232
 1231SOL    HW2 4581   0.755   1.786  10.247
 1232SOL     OW 4582   0.867   0.967  10.165
 1232SOL    HW1 4583   0.917   0.895  10.203
 1232SOL    HW2 4584   0.833   1.015  10.240
 1233SOL     OW 4585   1.080   0.988   9.399
 1233SOL    HW1 4586   1.057   1.039   9.321
 1233SOL    HW2 4587   1.154   0.935   9.372
 1234SOL     OW 4588   1.855   1.552  10.152
 1234SOL    HW1 4589   1.774   1.542  10.103
 1234SOL    HW2 4590   1.846   1.492  10.226
 1235SOL     OW 4591   0.106   1.236   9.978
 1235SOL    HW1 4592   0.116   1.189  10.060
 1235SOL    HW2 4593   0.165   1.192   9.917
 1236SOL     OW 4594   0.680   1.395  10.939
 1236SOL    HW1 4595   0.607   1.344  10.975
 1236SOL    HW2 4596   0.647   1.484  10.933
 1237SOL     OW 4597   1.802   0.180  10.549
 1237SOL    HW1 4598   1.816   0.087  10.569
 1237SOL    HW2 4599   1.820   0.187  10.455
 1238SOL     OW 4600   0.440   0.431   9.841
 1238SOL    HW1 4601   0.458   0.361   9.778
 1238SOL    HW2 4602   0.381   0.392   9.905
 1239SOL     OW 4603   1.704   1.488  10.403
 1239SOL    HW1 4604   1.621   1.463  10.363
 1239SOL    HW2 4605   1.719   1.422  10.471
 1240SOL     OW 4606   0.307   0.507  10.566
 1240SOL    HW1 4607   0.373   0.455  10.611
 1240SOL    HW2 4608   0.338   0.513  10.476
 1241SOL     OW 4609   0.827   1.578   9.988
 1241SOL    HW1 4610   0.816   1.630   9.909
 1241SOL    HW2 4611   0.750   1.521   9.991
 1242SOL     OW 4612   1.431   0.215  10.429
 1242SOL    HW1 4613   1.471   0.147  10.484
 1242SOL    HW2 4614   1.382   0.269  10.490
 1243SOL     OW 4615   0.995   0.009  10.459
 1243SOL    HW1 4616   0.953   4.424  10.449
 1243SOL    HW2 4617   1.088   4.488  10.473
 1244SOL     OW 4618   0.772   1.332   9.623
 1244SOL    HW1 4619   0.740   1.242   9.629
 1244SOL    HW2 4620   0.854   1.333   9.672
 1245SOL     OW 4621   0.620   1.555  10.597
 1245SOL    HW1 4622   0.621   1.639  10.644
 1245SOL    HW2 4623   0.707   1.550  10.557
 1246SOL     OW 4624   1.341   0.053   9.463
 1246SOL    HW1 4625   1.380   4.477   9.419
 1246SOL    HW2 4626   1.265   0.017   9.510
 1247SOL     OW 4627   1.314   0.463   9.987
 1247SOL    HW1 4628   1.255   0.537   9.988
 1247SOL    HW2 4629   1.303   0.421  10.073
 1248SOL     OW 4630   1.585   0.200  10.178
 1248SOL    HW1 4631   1.526   0.215  10.251
 1248SOL    HW2 4632   1.588   0.284  10.132
 1249SOL     OW 4633   0.041   1.052   9.598
 1249SOL    HW1 4634   0.135   1.036   9.588
 1249SOL    HW2 4635   0.020   1.018   9.685
 1250SOL     OW 4636   0.884   1.652   9.653
 1250SOL    HW1 4637   0.812   1.634   9.592
 1250SOL    HW2 4638   0.854   1.727   9.704
 1251SOL     OW 4639   0.242   2.458   0.107
 1251SOL    HW1 4640   0.169   2.455   0.169
 1251SOL    HW2 4641   0.205   2.500   0.029
 1252SOL     OW 4642   0.212   2.137   0.992
 1252SOL    HW1 4643   0.249   2.111   1.076
 1252SOL    HW2 4644   0.137   2.079   0.979
 1253SOL     OW 4645   0.009   2.252   0.638
 1253SOL    HW1 4646   4.428   2.283   0.680
 1253SOL    HW2 4647   4.484   2.170   0.596
 1254SOL     OW 4648   0.567   3.148   1.175
 1254SOL    HW1 4649   0.480   3.153   1.136
 1254SOL    HW2 4650   0.583   3.236   1.210
 1255SOL     OW 4651   1.560   3.374   0.706
 1255SOL    HW1 4652   1.516   3.354   0.789
 1255SOL    HW2 4653   1.489   3.377   0.642
 1256SOL     OW 4654   1.130   2.561   0.702
 1256SOL    HW1 4655   1.180   2.641   0.688
 1256SOL    HW2 4656   1.083   2.575   0.784
 1257SOL     OW 4657   1.758   2.474   0.230
 1257SOL    HW1 4658   1.750   2.453   0.137
 1257SOL    HW2 4659   1.736   2.392   0.275
 1258SOL     OW 4660   0.756   3.005   1.040
 1258SOL    HW1 4661   0.687   3.039   1.096
 1258SOL    HW2 4662   0.791   3.082   0.995
 1259SOL     OW 4663   0.866   2.637   1.821
 1259SOL    HW1 4664   0.851   2.708   1.883
 1259SOL    HW2 4665   0.889   2.681   1.739
 1260SOL     OW 4666   0.686   2.866   0.648
 1260SOL    HW1 4667   0.751   2.853   0.717
 1260SOL    HW2 4668   0.616   2.917   0.689
 1261SOL     OW 4669   0.710   3.012   1.812
 1261SOL    HW1 4670   0.757   3.092   1.838
 1261SOL    HW2 4671   0.628   3.044   1.776
 1262SOL     OW 4672   0.335   3.283   1.069
 1262SOL    HW1 4673   0.254   3.264   1.023
 1262SOL    HW2 4674   0.386   3.338   1.009
 1263SOL     OW 4675   1.461   3.360   1.354
 1263SOL    HW1 4676   1.509   3.442   1.363
 1263SOL    HW2 4677   1.399   3.360   1.427
 1264SOL     OW 4678   0.444   2.266   1.493
 1264SOL    HW1 4679   0.524   2.213   1.497
 1264SOL    HW2 4680   0.373   2.203   1.498
 1265SOL     OW 4681   1.599   2.313   0.747
 1265SOL    HW1 4682   1.525   2.336   0.691
 1265SOL    HW2 4683   1.618   2.394   0.795
 1266SOL     OW 4684   0.245   3.553   0.482
 1266SOL    HW1 4685   0.232   3.640   0.521
 1266SOL    HW2 4686   0.304   3.568   0.409
 1267SOL     OW 4687   1.136   3.203   1.692
 1267SOL    HW1 4688   1.176   3.199   1.779
 1267SOL    HW2 4689   1.084   3.123   1.686
 1268SOL     OW 4690   0.245   3.289   0.528
 1268SOL    HW1 4691   0.239   3.384   0.529
 1268SOL    HW2 4692   0.180   3.261   0.592
 1269SOL     OW 4693   0.247   2.944   0.884
 1269SOL    HW1 4694   0.263   2.854   0.913
 1269SOL    HW2 4695   0.187   2.980   0.949
 1270SOL     OW 4696   0.615   3.652   1.432
 1270SOL    HW1 4697   0.531   3.634   1.475
 1270SOL    HW2 4698   0.635   3.743   1.456
 1271SOL     OW 4699   0.572   2.856   0.147
 1271SOL    HW1 4700   0.620   2.896   0.075
 1271SOL    HW2 4701   0.622   2.881   0.226
 1272SOL     OW 4702   1.594   1.982   1.472
 1272SOL    HW1 4703   1.602   2.059   1.416
 1272SOL    HW2 4704   1.582   2.018   1.560
 1273SOL     OW 4705   0.136   2.508   0.573
 1273SOL    HW1 4706   0.089   2.427   0.591
 1273SOL    HW2 4707   0.107   2.568   0.642
 1274SOL     OW 4708   1.842   3.622   0.334
 1274SOL    HW1 4709   1.905   3.592   0.399
 1274SOL    HW2 4710   1.868   3.712   0.315
 1275SOL     OW 4711   0.074   3.453   0.151
 1275SOL    HW1 4712   0.038   3.364   0.156
 1275SOL    HW2 4713   0.021   3.503   0.213
 1276SOL     OW 4714   1.690   2.780   0.640
 1276SOL    HW1 4715   1.772   2.737   0.617
 1276SOL    HW2 4716   1.667   2.832   0.563
 1277SOL     OW 4717   1.646   2.967   0.432
 1277SOL    HW1 4718   1.728   2.978   0.385
 1277SOL    HW2 4719   1.651   3.030   0.504
 1278SOL     OW 4720   0.111   2.624   1.585
 1278SOL    HW1 4721   0.203   2.623   1.558
 1278SOL    HW2 4722   0.092   2.717   1.600
 1279SOL     OW 4723   0.614   3.247   0.736
 1279SOL    HW1 4724   0.567   3.164   0.745
 1279SOL    HW2 4725   0.597   3.274   0.646
 1280SOL     OW 4726   1.289   3.101   1.423
 1280SOL    HW1 4727   1.321   3.033   1.364
 1280SOL    HW2 4728   1.346   3.093   1.500
 1281SOL     OW 4729   0.816   1.862   0.508
 1281SOL    HW1 4730   0.854   1.948   0.491
 1281SOL    HW2 4731   0.722   1.879   0.517
 1282SOL     OW 4732   0.180   2.803   1.280
 1282SOL    HW1 4733   0.272   2.785   1.258
 1282SOL    HW2 4734   0.133   2.787   1.198
 1283SOL     OW 4735   1.517   2.864   0.202
 1283SOL    HW1 4736   1.454   2.800   0.236
 1283SOL    HW2 4737   1.567   2.892   0.279
 1284SOL     OW 4738   1.187   3.668   1.622
 1284SOL    HW1 4739   1.197   3.726   1.546
 1284SOL    HW2 4740   1.201   3.580   1.587
 1285SOL     OW 4741   0.330   2.118   1.798
 1285SOL    HW1 4742   0.380   2.191   1.833
 1285SOL    HW2 4743   0.244   2.126   1.837
 1286SOL     OW 4744   1.467   3.281   0.952
 1286SOL    HW1 4745   1.398   3.296   1.017
 1286SOL    HW2 4746   1.454   3.190   0.925
 1287SOL     OW 4747   1.659   3.600   0.579
 1287SOL    HW1 4748   1.640   3.572   0.490
 1287SOL    HW2 4749   1.633   3.526   0.634
 1288SOL     OW 4750   0.596   2.580   0.264
 1288SOL    HW1 4751   0.600   2.662   0.214
 1288SOL    HW2 4752   0.533   2.599   0.334
 1289SOL     OW 4753   1.278   2.215   0.933
 1289SOL    HW1 4754   1.189   2.181   0.941
 1289SOL    HW2 4755   1.330   2.162   0.993
 1290SOL     OW 4756   1.582   3.532   0.312
 1290SOL    HW1 4757   1.672   3.563   0.305
 1290SOL    HW2 4758   1.556   3.514   0.222
 1291SOL     OW 4759   0.794   2.478   1.451
 1291SOL    HW1 4760   0.768   2.455   1.540
 1291SOL    HW2 4761   0.751   2.414   1.396
 1292SOL     OW 4762   1.394   2.336   1.677
 1292SOL    HW1 4763   1.396   2.380   1.762
 1292SOL    HW2 4764   1.456   2.264   1.686
 1293SOL     OW 4765   0.956   2.750   1.582
 1293SOL    HW1 4766   1.010   2.679   1.546
 1293SOL    HW2 4767   0.908   2.784   1.506
 1294SOL     OW 4768   0.993   2.276   1.239
 1294SOL    HW1 4769   0.908   2.297   1.278
 1294SOL    HW2 4770   0.971   2.228   1.159
 1295SOL     OW 4771   1.050   2.563   0.427
 1295SOL    HW1 4772   1.066   2.555   0.521
 1295SOL    HW2 4773   0.968   2.517   0.413
 1296SOL     OW 4774   0.097   2.688   0.784
 1296SOL    HW1 4775   0.183   2.671   0.822
 1296SOL    HW2 4776   0.045   2.720   0.857
 1297SOL     OW 4777   0.125   3.715   1.576
 1297SOL    HW1 4778   0.117   3.693   1.669
 1297SOL    HW2 4779   0.044   3.681   1.537
 1298SOL     OW 4780   0.888   2.217   0.209
 1298SOL    HW1 4781   0.935   2.272   0.146
 1298SOL    HW2 4782   0.902   2.128   0.176
 1299SOL     OW 4783   1.711   2.440   1.831
 1299SOL    HW1 4784   1.672   2.511   1.779
 1299SOL    HW2 4785   1.737   2.375   1.766
 1300SOL     OW 4786   1.377   3.004   0.542
 1300SOL    HW1 4787   1.454   2.989   0.488
 1300SOL    HW2 4788   1.324   3.066   0.492
 1301SOL     OW 4789   0.552   2.044   0.893
 1301SOL    HW1 4790   0.554   2.075   0.984
 1301SOL    HW2 4791   0.552   2.124   0.841
 1302SOL     OW 4792   1.006   3.307   0.474
 1302SOL    HW1 4793   0.968   3.379   0.424
 1302SOL    HW2 4794   0.987   3.328   0.565
 1303SOL     OW 4795   0.355   3.672   0.859
 1303SOL    HW1 4796   0.397   3.586   0.869
 1303SOL    HW2 4797   0.426   3.735   0.872
 1304SOL     OW 4798   1.799   2.918   0.868
 1304SOL    HW1 4799   1.745   2.902   0.791
 1304SOL    HW2 4800   1.737   2.924   0.941
 1305SOL     OW 4801   1.228   3.401   1.513
 1305SOL    HW1 4802   1.214   3.328   1.573
 1305SOL    HW2 4803   1.165   3.386   1.442
 1306SOL     OW 4804   0.313   2.818   0.278
 1306SOL    HW1 4805   0.396   2.845   0.239
 1306SOL    HW2 4806   0.307   2.724   0.259
 1307SOL     OW 4807   1.477   2.604   0.728
 1307SOL    HW1 4808   1.467   2.561   0.813
 1307SOL    HW2 4809   1.555   2.659   0.737
 1308SOL     OW 4810   0.467   3.124   1.735
 1308SOL    HW1 4811   0.440   3.130   1.644
 1308SOL    HW2 4812   0.386   3.129   1.785
 1309SOL     OW 4813   1.107   3.641   0.227
 1309SOL    HW1 4814   1.048   3.589   0.281
 1309SOL    HW2 4815   1.149   3.577   0.169
 1310SOL     OW 4816   0.196   2.139   1.486
 1310SOL    HW1 4817   0.136   2.214   1.492
 1310SOL    HW2 4818   0.183   2.092   1.568
 1311SOL     OW 4819   1.628   3.237   0.089
 1311SOL    HW1 4820   1.585   3.322   0.077
 1311SOL    HW2 4821   1.562   3.173   0.061
 1312SOL     OW 4822   0.469   3.604   0.317
 1312SOL    HW1 4823   0.508   3.660   0.384
 1312SOL    HW2 4824   0.544   3.575   0.265
 1313SOL     OW 4825   1.400   1.969   0.431
 1313SOL    HW1 4826   1.390   1.947   0.338
 1313SOL    HW2 4827   1.495   1.979   0.442
 1314SOL     OW 4828   0.260   3.656   1.231
 1314SOL    HW1 4829   0.305   3.580   1.270
 1314SOL    HW2 4830   0.226   3.623   1.148
 1315SOL     OW 4831   0.938   3.561   0.899
 1315SOL    HW1 4832   1.015   3.508   0.920
 1315SOL    HW2 4833   0.893   3.511   0.830
 1316SOL     OW 4834   0.392   2.557   0.471
 1316SOL    HW1 4835   0.417   2.465   0.483
 1316SOL    HW2 4836   0.302   2.561   0.500
 1317SOL     OW 4837   1.537   2.089   1.727
 1317SOL    HW1 4838   1.546   2.109   1.820
 1317SOL    HW2 4839   1.470   2.021   1.724
 1318SOL     OW 4840   0.615   1.968   0.123
 1318SOL    HW1 4841   0.705   1.937   0.122
 1318SOL    HW2 4842   0.583   1.952   0.034
 1319SOL     OW 4843   0.767   2.139   1.754
 1319SOL    HW1 4844   0.842   2.080   1.756
 1319SOL    HW2 4845   0.718   2.118   1.834
 1320SOL     OW 4846   0.877   3.384   1.193
 1320SOL    HW1 4847   0.861   3.348   1.106
 1320SOL    HW2 4848   0.946   3.329   1.230
 1321SOL     OW 4849   1.341   2.451   1.432
 1321SOL    HW1 4850   1.371   2.418   1.517
 1321SOL    HW2 4851   1.377   2.539   1.425
 1322SOL     OW 4852   0.815   3.258   0.939
 1322SOL    HW1 4853   0.899   3.246   0.894
 1322SOL    HW2 4854   0.750   3.258   0.868
 1323SOL     OW 4855   0.927   2.371   0.904
 1323SOL    HW1 4856   0.904   2.363   0.811
 1323SOL    HW2 4857   0.959   2.284   0.928
 1324SOL     OW 4858   0.552   1.923   0.505
 1324SOL    HW1 4859   0.470   1.921   0.554
 1324SOL    HW2 4860   0.546   2.002   0.450
 1325SOL     OW 4861   1.425   3.058   0.030
 1325SOL    HW1 4862   1.457   2.987   0.084
 1325SOL    HW2 4863   1.342   3.084   0.070
 1326SOL     OW 4864   0.286   1.911   0.192
 1326SOL    HW1 4865   0.335   1.961   0.126
 1326SOL    HW2 4866   0.349   1.846   0.224
 1327SOL     OW 4867   0.939   2.107   0.463
 1327SOL    HW1 4868   0.910   2.153   0.384
 1327SOL    HW2 4869   1.034   2.123   0.466
 1328SOL     OW 4870   1.080   2.542   1.460
 1328SOL    HW1 4871   1.011   2.476   1.465
 1328SOL    HW2 4872   1.161   2.492   1.452
 1329SOL     OW 4873   1.224   3.432   0.794
 1329SOL    HW1 4874   1.240   3.498   0.727
 1329SOL    HW2 4875   1.292   3.446   0.859
 1330SOL     OW 4876   0.468   3.011   0.739
 1330SOL    HW1 4877   0.396   2.992   0.800
 1330SOL    HW2 4878   0.430   2.998   0.652
 1331SOL     OW 4879   1.269   3.656   0.606
 1331SOL    HW1 4880   1.316   3.718   0.549
 1331SOL    HW2 4881   1.204   3.710   0.651
 1332SOL     OW 4882   1.012   2.399   0.038
 1332SOL    HW1 4883   0.979   2.486   0.017
 1332SOL    HW2 4884   1.092   2.414   0.088
 1333SOL     OW 4885   0.083   2.391   1.409
 1333SOL    HW1 4886   0.148   2.389   1.339
 1333SOL    HW2 4887   0.068   2.484   1.425
 1334SOL     OW 4888   0.561   2.090   1.166
 1334SOL    HW1 4889   0.603   2.010   1.199
 1334SOL    HW2 4890   0.469   2.081   1.192
 1335SOL     OW 4891   0.869   2.322   0.640
 1335SOL    HW1 4892   0.823   2.376   0.575
 1335SOL    HW2 4893   0.888   2.240   0.594
 1336SOL     OW 4894   1.015   1.915   0.752
 1336SOL    HW1 4895   0.956   1.908   0.677
 1336SOL    HW2 4896   0.994   1.839   0.806
 1337SOL     OW 4897   1.437   3.025   0.857
 1337SOL    HW1 4898   1.368   2.959   0.855
 1337SOL    HW2 4899   1.461   3.037   0.765
 1338SOL     OW 4900   1.465   2.468   0.979
 1338SOL    HW1 4901   1.416   2.385   0.980
 1338SOL    HW2 4902   1.524   2.461   1.054
 1339SOL     OW 4903   1.854   2.679   0.381
 1339SOL    HW1 4904   1.904   2.624   0.441
 1339SOL    HW2 4905   1.816   2.617   0.318
 1340SOL     OW 4906   0.494   3.284   0.174
 1340SOL    HW1 4907   0.415   3.259   0.222
 1340SOL    HW2 4908   0.490   3.236   0.092
 1341SOL     OW 4909   1.669   3.126   0.648
 1341SOL    HW1 4910   1.764   3.131   0.660
 1341SOL    HW2 4911   1.639   3.215   0.668
 1342SOL     OW 4912   1.388   2.439   0.078
 1342SOL    HW1 4913   1.330   2.416   0.150
 1342SOL    HW2 4914   1.462   2.379   0.086
 1343SOL     OW 4915   0.529   2.125   0.328
 1343SOL    HW1 4916   0.556   2.065   0.258
 1343SOL    HW2 4917   0.511   2.208   0.283
 1344SOL     OW 4918   1.753   3.100   1.574
 1344SOL    HW1 4919   1.840   3.062   1.568
 1344SOL    HW2 4920   1.767   3.190   1.603
 1345SOL     OW 4921   1.059   3.216   1.334
 1345SOL    HW1 4922   0.984   3.185   1.385
 1345SOL    HW2 4923   1.135   3.174   1.375
 1346SOL     OW 4924   1.608   3.488   1.654
 1346SOL    HW1 4925   1.602   3.521   1.564
 1346SOL    HW2 4926   1.691   3.440   1.656
 1347SOL     OW 4927   1.129   3.066   1.106
 1347SOL    HW1 4928   1.068   3.103   1.171
 1347SOL    HW2 4929   1.095   3.096   1.022
 1348SOL     OW 4930   1.629   2.961   1.078
 1348SOL    HW1 4931   1.624   3.023   1.150
 1348SOL    HW2 4932   1.550   2.977   1.026
 1349SOL     OW 4933   0.917   1.960   1.397
 1349SOL    HW1 4934   0.940   1.940   1.306
 1349SOL    HW2 4935   0.997   1.999   1.434
 1350SOL     OW 4936   0.984   2.976   1.723
 1350SOL    HW1 4937   0.892   2.992   1.744
 1350SOL    HW2 4938   0.983   2.899   1.667
 1351SOL     OW 4939   0.710   2.922   0.374
 1351SOL    HW1 4940   0.697   2.906   0.467
 1351SOL    HW2 4941   0.786   2.868   0.351
 1352SOL     OW 4942   0.430   2.687   1.241
 1352SOL    HW1 4943   0.499   2.699   1.306
 1352SOL    HW2 4944   0.372   2.621   1.279
 1353SOL     OW 4945   1.266   2.239   1.275
 1353SOL    HW1 4946   1.299   2.316   1.320
 1353SOL    HW2 4947   1.176   2.261   1.251
 1354SOL     OW 4948   0.062   3.438   1.342
 1354SOL    HW1 4949   0.035   3.527   1.320
 1354SOL    HW2 4950   0.158   3.443   1.348
 1355SOL     OW 4951   0.349   2.979   0.499
 1355SOL    HW1 4952   0.352   3.053   0.438
 1355SOL    HW2 4953   0.342   2.902   0.443
 1356SOL     OW 4954   0.561   2.396   0.856
 1356SOL    HW1 4955   0.575   2.455   0.782
 1356SOL    HW2 4956   0.622   2.426   0.923
 1357SOL     OW 4957   1.247   3.208   0.395
 1357SOL    HW1 4958   1.303   3.281   0.422
 1357SOL    HW2 4959   1.160   3.232   0.426
 1358SOL     OW 4960   1.280   3.319   1.146
 1358SOL    HW1 4961   1.335   3.321   1.225
 1358SOL    HW2 4962   1.224   3.242   1.158
 1359SOL     OW 4963   1.582   2.484   0.479
 1359SOL    HW1 4964   1.535   2.539   0.542
 1359SOL    HW2 4965   1.620   2.545   0.417
 1360SOL     OW 4966   0.347   3.394   1.315
 1360SOL    HW1 4967   0.333   3.346   1.233
 1360SOL    HW2 4968   0.442   3.403   1.321
 1361SOL     OW 4969   0.479   2.621   1.665
 1361SOL    HW1 4970   0.508   2.659   1.583
 1361SOL    HW2 4971   0.519   2.534   1.667
 1362SOL     OW 4972   1.602   2.641   1.681
 1362SOL    HW1 4973   1.515   2.681   1.674
 1362SOL    HW2 4974   1.653   2.683   1.612
 1363SOL     OW 4975   0.996   1.984   1.755
 1363SOL    HW1 4976   1.051   2.056   1.726
 1363SOL    HW2 4977   1.044   1.905   1.730
 1364SOL     OW 4978   0.497   1.905   1.747
 1364SOL    HW1 4979   0.457   1.848   1.681
 1364SOL    HW2 4980   0.438   1.979   1.755
 1365SOL     OW 4981   0.590   2.735   1.024
 1365SOL    HW1 4982   0.618   2.827   1.026
 1365SOL    HW2 4983   0.533   2.726   1.101
 1366SOL     OW 4984   1.359   2.721   1.031
 1366SOL    HW1 4985   1.276   2.713   0.983
 1366SOL    HW2 4986   1.398   2.634   1.026
 1367SOL     OW 4987   1.203   2.388   0.271
 1367SOL    HW1 4988   1.212   2.310   0.327
 1367SOL    HW2 4989   1.160   2.453   0.327
 1368SOL     OW 4990   0.302   2.054   1.242
 1368SOL    HW1 4991   0.263   2.087   1.322
 1368SOL    HW2 4992   0.285   1.959   1.245
 1369SOL     OW 4993   0.041   3.175   1.285
 1369SOL    HW1 4994   0.076   3.128   1.361
 1369SOL    HW2 4995   0.046   3.267   1.310
 1370SOL     OW 4996   0.726   2.494   1.059
 1370SOL    HW1 4997   0.800   2.475   1.001
 1370SOL    HW2 4998   0.698   2.582   1.036
 1371SOL     OW 4999   1.735   2.821   1.852
 1371SOL    HW1 5000   1.688   2.760   1.795
 1371SOL    HW2 5001   1.675   2.835   1.925
 1372SOL     OW 5002   0.311   1.932   0.620
 1372SOL    HW1 5003   0.287   2.021   0.647
 1372SOL    HW2 5004   0.306   1.881   0.700
 1373SOL     OW 5005   1.612   2.232   0.370
 1373SOL    HW1 5006   1.644   2.173   0.439
 1373SOL    HW2 5007   1.591   2.313   0.417
 1374SOL     OW 5008   1.027   2.621   0.961
 1374SOL    HW1 5009   1.025   2.639   1.055
 1374SOL    HW2 5010   1.001   2.529   0.953
 1375SOL     OW 5011   0.983   3.429   1.716
 1375SOL    HW1 5012   0.967   3.473   1.632
 1375SOL    HW2 5013   1.025   3.346   1.692
 1376SOL     OW 5014   1.855   3.368   1.606
 1376SOL    HW1 5015   1.872   3.394   1.515
 1376SOL    HW2 5016   1.937   3.388   1.652
 1377SOL     OW 5017   0.347   2.795   1.818
 1377SOL    HW1 5018   0.420   2.824   1.873
 1377SOL    HW2 5019   0.385   2.728   1.761
 1378SOL     OW 5020   1.538   2.149   0.117
 1378SOL    HW1 5021   1.475   2.078   0.133
 1378SOL    HW2 5022   1.566   2.175   0.205
 1379SOL     OW 5023   1.288   2.686   0.033
 1379SOL    HW1 5024   1.331   2.601   0.044
 1379SOL    HW2 5025   1.322   2.719  11.050
 1380SOL     OW 5026   1.066   3.197   0.853
 1380SOL    HW1 5027   1.068   3.125   0.791
 1380SOL    HW2 5028   1.127   3.261   0.818
 1381SOL     OW 5029   0.318   2.673   0.948
 1381SOL    HW1 5030   0.412   2.690   0.945
 1381SOL    HW2 5031   0.311   2.582   0.977
 1382SOL     OW 5032   0.331   2.386   0.991
 1382SOL    HW1 5033   0.293   2.300   0.975
 1382SOL    HW2 5034   0.409   2.388   0.936
 1383SOL     OW 5035   1.134   2.239   1.681
 1383SOL    HW1 5036   1.087   2.294   1.744
 1383SOL    HW2 5037   1.222   2.277   1.677
 1384SOL     OW 5038   1.160   2.065   1.470
 1384SOL    HW1 5039   1.150   2.128   1.541
 1384SOL    HW2 5040   1.200   2.116   1.399
 1385SOL     OW 5041   4.496   3.186   0.200
 1385SOL    HW1 5042   4.403   3.204   0.192
 1385SOL    HW2 5043   0.000   3.094   0.227
 1386SOL     OW 5044   0.097   3.640   0.940
 1386SOL    HW1 5045   0.058   3.586   0.871
 1386SOL    HW2 5046   0.185   3.660   0.908
 1387SOL     OW 5047   0.497   3.435   0.907
 1387SOL    HW1 5048   0.565   3.498   0.931
 1387SOL    HW2 5049   0.541   3.373   0.850
 1388SOL     OW 5050   0.985   2.655   1.227
 1388SOL    HW1 5051   1.039   2.631   1.302
 1388SOL    HW2 5052   0.899   2.618   1.247
 1389SOL     OW 5053   0.035   2.425   1.104
 1389SOL    HW1 5054   0.118   2.391   1.073
 1389SOL    HW2 5055   0.021   2.380   1.188
 1390SOL     OW 5056   0.179   2.381   1.714
 1390SOL    HW1 5057   0.259   2.351   1.671
 1390SOL    HW2 5058   0.156   2.462   1.669
 1391SOL     OW 5059   1.377   2.801   1.659
 1391SOL    HW1 5060   1.397   2.895   1.657
 1391SOL    HW2 5061   1.374   2.776   1.567
 1392SOL     OW 5062   0.815   2.436   0.364
 1392SOL    HW1 5063   0.824   2.361   0.306
 1392SOL    HW2 5064   0.741   2.485   0.330
 1393SOL     OW 5065   1.641   2.465   1.188
 1393SOL    HW1 5066   1.633   2.403   1.261
 1393SOL    HW2 5067   1.728   2.447   1.152
 1394SOL     OW 5068   0.274   3.424   1.741
 1394SOL    HW1 5069   0.217   3.476   1.797
 1394SOL    HW2 5070   0.253   3.333   1.764
 1395SOL     OW 5071   0.691   2.317   1.263
 1395SOL    HW1 5072   0.645   2.239   1.229
 1395SOL    HW2 5073   0.692   2.378   1.189
 1396SOL     OW 5074   0.929   3.541   1.467
 1396SOL    HW1 5075   0.902   3.507   1.382
 1396SOL    HW2 5076   0.924   3.636   1.457
 1397SOL     OW 5077   0.475   2.346   0.182
 1397SOL    HW1 5078   0.532   2.420   0.205
 1397SOL    HW2 5079   0.390   2.386   0.163
 1398SOL     OW 5080   0.162   3.003   1.461
 1398SOL    HW1 5081   0.146   2.957   1.544
 1398SOL    HW2 5082   0.169   2.933   1.396
 1399SOL     OW 5083   1.327   2.910   1.224
 1399SOL    HW1 5084   1.350   2.846   1.156
 1399SOL    HW2 5085   1.256   2.961   1.185
 1400SOL     OW 5086   1.307   2.715   0.310
 1400SOL    HW1 5087   1.230   2.682   0.358
 1400SOL    HW2 5088   1.286   2.701   0.218
 1401SOL     OW 5089   1.771   3.606   1.150
 1401SOL    HW1 5090   1.831   3.633   1.080
 1401SOL    HW2 5091   1.747   3.516   1.129
 1402SOL     OW 5092   1.241   3.595   1.115
 1402SOL    HW1 5093   1.323   3.615   1.069
 1402SOL    HW2 5094   1.246   3.501   1.132
 1403SOL     OW 5095   0.067   3.047   1.049
 1403SOL    HW1 5096   0.066   3.080   1.139
 1403SOL    HW2 5097   0.022   3.115   0.999
 1404SOL     OW 5098   0.679   3.528   1.729
 1404SOL    HW1 5099   0.623   3.605   1.723
 1404SOL    HW2 5100   0.741   3.538   1.657
 1405SOL     OW 5101   0.917   1.954   0.108
 1405SOL    HW1 5102   0.968   1.918   0.035
 1405SOL    HW2 5103   0.954   1.912   0.186
 1406SOL     OW 5104   1.721   2.000   0.515
 1406SOL    HW1 5105   1.774   1.958   0.447
 1406SOL    HW2 5106   1.691   1.927   0.570
 1407SOL     OW 5107   1.390   3.430   0.485
 1407SOL    HW1 5108   1.451   3.461   0.418
 1407SOL    HW2 5109   1.343   3.508   0.513
 1408SOL     OW 5110   0.119   3.669   1.847
 1408SOL    HW1 5111   0.079   3.596   1.895
 1408SOL    HW2 5112   0.182   3.706   1.909
 1409SOL     OW 5113   1.277   2.788   0.672
 1409SOL    HW1 5114   1.350   2.726   0.677
 1409SOL    HW2 5115   1.311   2.860   0.619
 1410SOL     OW 5116   0.815   3.135   1.430
 1410SOL    HW1 5117   0.787   3.174   1.513
 1410SOL    HW2 5118   0.744   3.157   1.369
 1411SOL     OW 5119   0.675   3.482   0.167
 1411SOL    HW1 5120   0.685   3.490   0.072
 1411SOL    HW2 5121   0.617   3.406   0.178
 1412SOL     OW 5122   1.628   3.588   1.392
 1412SOL    HW1 5123   1.677   3.595   1.310
 1412SOL    HW2 5124   1.615   3.679   1.419
 1413SOL     OW 5125   1.802   2.014   0.967
 1413SOL    HW1 5126   1.853   1.944   0.928
 1413SOL    HW2 5127   1.726   2.023   0.910
 1414SOL     OW 5128   0.265   2.182   0.720
 1414SOL    HW1 5129   0.182   2.221   0.691
 1414SOL    HW2 5130   0.254   2.169   0.814
 1415SOL     OW 5131   1.223   3.464   0.052
 1415SOL    HW1 5132   1.210   3.372   0.073
 1415SOL    HW2 5133   1.157   3.483  11.085
 1416SOL     OW 5134   0.826   2.869   1.372
 1416SOL    HW1 5135   0.868   2.865   1.286
 1416SOL    HW2 5136   0.825   2.962   1.395
 1417SOL     OW 5137   0.914   2.769   0.282
 1417SOL    HW1 5138   0.981   2.809   0.226
 1417SOL    HW2 5139   0.962   2.704   0.333
 1418SOL     OW 5140   1.499   3.484   0.047
 1418SOL    HW1 5141   1.403   3.479   0.044
 1418SOL    HW2 5142   1.525   3.498  11.056
 1419SOL     OW 5143   0.373   3.169   1.491
 1419SOL    HW1 5144   0.356   3.248   1.439
 1419SOL    HW2 5145   0.298   3.112   1.474
 1420SOL     OW 5146   1.612   3.145   1.281
 1420SOL    HW1 5147   1.670   3.135   1.356
 1420SOL    HW2 5148   1.551   3.214   1.307
 1421SOL     OW 5149   1.051   2.969   0.706
 1421SOL    HW1 5150   0.981   2.917   0.746
 1421SOL    HW2 5151   1.114   2.903   0.674
 1422SOL     OW 5152   1.020   2.102   0.966
 1422SOL    HW1 5153   1.016   2.054   0.883
 1422SOL    HW2 5154   1.016   2.034   1.033
 1423SOL     OW 5155   0.603   3.353   0.483
 1423SOL    HW1 5156   0.642   3.302   0.412
 1423SOL    HW2 5157   0.530   3.399   0.442
 1424SOL     OW 5158   1.721   2.254   1.379
 1424SOL    HW1 5159   1.799   2.310   1.377
 1424SOL    HW2 5160   1.743   2.180   1.323
 1425SOL     OW 5161   0.263   3.192   0.284
 1425SOL    HW1 5162   0.175   3.204   0.247
 1425SOL    HW2 5163   0.258   3.231   0.370
 1426SOL     OW 5164   0.116   2.870   1.694
 1426SOL    HW1 5165   0.052   2.911   1.752
 1426SOL    HW2 5166   0.194   2.859   1.749
 1427SOL     OW 5167   0.674   2.061   1.499
 1427SOL    HW1 5168   0.757   2.039   1.457
 1427SOL    HW2 5169   0.697   2.089   1.587
 1428SOL     OW 5170   0.059   2.204   0.003
 1428SOL    HW1 5171   4.471   2.191   0.040
 1428SOL    HW2 5172   0.078   2.296   0.020
 1429SOL     OW 5173   1.431   2.721   1.401
 1429SOL    HW1 5174   1.382   2.781   1.345
 1429SOL    HW2 5175   1.520   2.723   1.365
 1430SOL     OW 5176   0.079   2.033   0.307
 1430SOL    HW1 5177   0.084   2.115   0.259
 1430SOL    HW2 5178   0.154   1.982   0.277
 1431SOL     OW 5179   1.182   3.202   0.122
 1431SOL    HW1 5180   1.089   3.183   0.115
 1431SOL    HW2 5181   1.202   3.195   0.215
 1432SOL     OW 5182   0.623   2.693   1.430
 1432SOL    HW1 5183   0.679   2.770   1.417
 1432SOL    HW2 5184   0.684   2.620   1.438
 1433SOL     OW 5185   1.484   3.638   0.978
 1433SOL    HW1 5186   1.508   3.696   0.906
 1433SOL    HW2 5187   1.567   3.620   1.022
 1434SOL     OW 5188   0.715   2.424   1.704
 1434SOL    HW1 5189   0.754   2.488   1.764
 1434SOL    HW2 5190   0.747   2.340   1.735
 1435SOL     OW 5191   1.471   3.063   1.632
 1435SOL    HW1 5192   1.458   3.076   1.726
 1435SOL    HW2 5193   1.564   3.077   1.618
 1436SOL     OW 5194   0.381   3.605   1.564
 1436SOL    HW1 5195   0.296   3.645   1.547
 1436SOL    HW2 5196   0.360   3.525   1.612
 1437SOL     OW 5197   1.671   2.744   1.255
 1437SOL    HW1 5198   1.661   2.658   1.213
 1437SOL    HW2 5199   1.660   2.807   1.184
 1438SOL     OW 5200   1.216   2.180   0.459
 1438SOL    HW1 5201   1.280   2.110   0.450
 1438SOL    HW2 5202   1.246   2.229   0.536
 1439SOL     OW 5203   0.590   2.600   0.668
 1439SOL    HW1 5204   0.628   2.687   0.653
 1439SOL    HW2 5205   0.521   2.592   0.602
 1440SOL     OW 5206   1.763   2.235   1.653
 1440SOL    HW1 5207   1.750   2.239   1.559
 1440SOL    HW2 5208   1.698   2.172   1.684
 1441SOL     OW 5209   1.750   2.793   1.511
 1441SOL    HW1 5210   1.743   2.888   1.526
 1441SOL    HW2 5211   1.731   2.783   1.418
 1442SOL     OW 5212   0.903   3.219   0.067
 1442SOL    HW1 5213   0.832   3.218   0.132
 1442SOL    HW2 5214   0.890   3.301   0.019
 1443SOL     OW 5215   0.661   3.654   0.947
 1443SOL    HW1 5216   0.639   3.744   0.922
 1443SOL    HW2 5217   0.756   3.648   0.937
 1444SOL     OW 5218   0.867   2.829   0.855
 1444SOL    HW1 5219   0.917   2.757   0.895
 1444SOL    HW2 5220   0.833   2.878   0.929
 1445SOL     OW 5221   1.079   2.852   0.085
 1445SOL    HW1 5222   1.055   2.885  11.098
 1445SOL    HW2 5223   1.156   2.797   0.069
 1446SOL     OW 5224   1.854   3.417   0.845
 1446SOL    HW1 5225   1.778   3.406   0.789
 1446SOL    HW2 5226   1.844   3.350   0.912
 1447SOL     OW 5227   0.230   3.168   1.857
 1447SOL    HW1 5228   0.157   3.110   1.834
 1447SOL    HW2 5229   0.223   3.178   1.952
 1448SOL     OW 5230   0.103   3.095   0.668
 1448SOL    HW1 5231   0.119   3.050   0.751
 1448SOL    HW2 5232   0.167   3.058   0.608
 1449SOL     OW 5233   0.682   3.264   1.628
 1449SOL    HW1 5234   0.602   3.220   1.656
 1449SOL    HW2 5235   0.675   3.352   1.665
 1450SOL     OW 5236   1.776   2.036   1.232
 1450SOL    HW1 5237   1.798   1.945   1.252
 1450SOL    HW2 5238   1.783   2.041   1.136
 1451SOL     OW 5239   0.433   2.297   0.526
 1451SOL    HW1 5240   0.462   2.224   0.471
 1451SOL    HW2 5241   0.384   2.255   0.596
 1452SOL     OW 5242   1.700   3.352   1.098
 1452SOL    HW1 5243   1.620   3.328   1.051
 1452SOL    HW2 5244   1.711   3.282   1.163
 1453SOL     OW 5245   0.302   2.351   1.254
 1453SOL    HW1 5246   0.376   2.309   1.298
 1453SOL    HW2 5247   0.332   2.366   1.164
 1454SOL     OW 5248   0.827   3.440   0.678
 1454SOL    HW1 5249   0.814   3.491   0.598
 1454SOL    HW2 5250   0.750   3.383   0.682
 1455SOL     OW 5251   1.434   2.088   1.116
 1455SOL    HW1 5252   1.465   2.011   1.163
 1455SOL    HW2 5253   1.381   2.135   1.181
 1456SOL     OW 5254   1.008   1.881   1.143
 1456SOL    HW1 5255   0.954   1.813   1.103
 1456SOL    HW2 5256   1.096   1.843   1.145
 1457SOL     OW 5257   0.768   3.190   0.315
 1457SOL    HW1 5258   0.739   3.100   0.329
 1457SOL    HW2 5259   0.852   3.195   0.360
 1458SOL     OW 5260   0.621   3.418   1.285
 1458SOL    HW1 5261   0.623   3.500   1.335
 1458SOL    HW2 5262   0.708   3.412   1.246
 1459SOL     OW 5263   1.351   1.916   0.164
 1459SOL    HW1 5264   1.372   1.867   0.085
 1459SOL    HW2 5265   1.264   1.884   0.189
 1460SOL     OW 5266   1.296   2.323   0.682
 1460SOL    HW1 5267   1.242   2.402   0.689
 1460SOL    HW2 5268   1.292   2.283   0.768
 1461SOL     OW 5269   1.562   2.061   0.861
 1461SOL    HW1 5270   1.516   2.081   0.942
 1461SOL    HW2 5271   1.570   2.145   0.816
 1462SOL     OW 5272   0.038   2.912   0.283
 1462SOL    HW1 5273   0.134   2.907   0.284
 1462SOL    HW2 5274   0.012   2.879   0.369
 1463SOL     OW 5275   0.885   3.515   0.347
 1463SOL    HW1 5276   0.813   3.494   0.287
 1463SOL    HW2 5277   0.853   3.589   0.398
 1464SOL     OW 5278   0.248   2.490   1.982
 1464SOL    HW1 5279   0.174   2.471   2.039
 1464SOL    HW2 5280   0.216   2.472   1.893
 1465SOL     OW 5281   0.213   2.137   2.854
 1465SOL    HW1 5282   0.249   2.111   2.938
 1465SOL    HW2 5283   0.137   2.080   2.841
 1466SOL     OW 5284   0.009   2.252   2.502
 1466SOL    HW1 5285   4.427   2.283   2.542
 1466SOL    HW2 5286   4.483   2.172   2.456
 1467SOL     OW 5287   0.568   3.148   3.037
 1467SOL    HW1 5288   0.480   3.153   2.998
 1467SOL    HW2 5289   0.583   3.236   3.072
 1468SOL     OW 5290   1.560   3.373   2.569
 1468SOL    HW1 5291   1.517   3.354   2.652
 1468SOL    HW2 5292   1.489   3.378   2.505
 1469SOL     OW 5293   1.129   2.561   2.564
 1469SOL    HW1 5294   1.179   2.642   2.550
 1469SOL    HW2 5295   1.083   2.575   2.646
 1470SOL     OW 5296   1.778   2.459   2.090
 1470SOL    HW1 5297   1.750   2.456   1.999
 1470SOL    HW2 5298   1.726   2.391   2.133
 1471SOL     OW 5299   0.756   3.005   2.902
 1471SOL    HW1 5300   0.687   3.039   2.958
 1471SOL    HW2 5301   0.791   3.082   2.857
 1472SOL     OW 5302   0.866   2.637   3.683
 1472SOL    HW1 5303   0.850   2.708   3.745
 1472SOL    HW2 5304   0.889   2.681   3.601
 1473SOL     OW 5305   0.686   2.867   2.510
 1473SOL    HW1 5306   0.750   2.854   2.579
 1473SOL    HW2 5307   0.616   2.917   2.551
 1474SOL     OW 5308   0.710   3.012   3.674
 1474SOL    HW1 5309   0.757   3.092   3.700
 1474SOL    HW2 5310   0.627   3.044   3.638
 1475SOL     OW 5311   0.336   3.283   2.932
 1475SOL    HW1 5312   0.254   3.264   2.885
 1475SOL    HW2 5313   0.386   3.338   2.870
 1476SOL     OW 5314   1.461   3.361   3.215
 1476SOL    HW1 5315   1.510   3.443   3.226
 1476SOL    HW2 5316   1.400   3.360   3.289
 1477SOL     OW 5317   0.444   2.266   3.355
 1477SOL    HW1 5318   0.524   2.213   3.359
 1477SOL    HW2 5319   0.373   2.203   3.360
 1478SOL     OW 5320   1.599   2.306   2.606
 1478SOL    HW1 5321   1.524   2.334   2.553
 1478SOL    HW2 5322   1.637   2.387   2.639
 1479SOL     OW 5323   0.246   3.553   2.340
 1479SOL    HW1 5324   0.231   3.638   2.381
 1479SOL    HW2 5325   0.312   3.571   2.273
 1480SOL     OW 5326   1.136   3.203   3.554
 1480SOL    HW1 5327   1.176   3.199   3.641
 1480SOL    HW2 5328   1.084   3.124   3.548
 1481SOL     OW 5329   0.248   3.289   2.390
 1481SOL    HW1 5330   0.239   3.384   2.393
 1481SOL    HW2 5331   0.185   3.257   2.453
 1482SOL     OW 5332   0.248   2.944   2.746
 1482SOL    HW1 5333   0.264   2.854   2.775
 1482SOL    HW2 5334   0.188   2.980   2.812
 1483SOL     OW 5335   0.615   3.653   3.294
 1483SOL    HW1 5336   0.531   3.634   3.337
 1483SOL    HW2 5337   0.635   3.743   3.318
 1484SOL     OW 5338   0.580   2.848   1.999
 1484SOL    HW1 5339   0.627   2.892   1.929
 1484SOL    HW2 5340   0.625   2.876   2.079
 1485SOL     OW 5341   1.596   1.982   3.334
 1485SOL    HW1 5342   1.602   2.059   3.278
 1485SOL    HW2 5343   1.580   2.017   3.421
 1486SOL     OW 5344   0.136   2.507   2.436
 1486SOL    HW1 5345   0.088   2.427   2.452
 1486SOL    HW2 5346   0.106   2.568   2.504
 1487SOL     OW 5347   1.842   3.622   2.197
 1487SOL    HW1 5348   1.904   3.593   2.264
 1487SOL    HW2 5349   1.867   3.712   2.178
 1488SOL     OW 5350   0.033   3.464   2.001
 1488SOL    HW1 5351   0.021   3.369   2.000
 1488SOL    HW2 5352   0.018   3.488   2.093
 1489SOL     OW 5353   1.691   2.782   2.501
 1489SOL    HW1 5354   1.773   2.740   2.477
 1489SOL    HW2 5355   1.666   2.832   2.424
 1490SOL     OW 5356   1.645   2.969   2.292
 1490SOL    HW1 5357   1.730   2.976   2.249
 1490SOL    HW2 5358   1.650   3.030   2.365
 1491SOL     OW 5359   0.111   2.624   3.446
 1491SOL    HW1 5360   0.203   2.623   3.420
 1491SOL    HW2 5361   0.092   2.717   3.463
 1492SOL     OW 5362   0.614   3.246   2.598
 1492SOL    HW1 5363   0.566   3.164   2.607
 1492SOL    HW2 5364   0.597   3.273   2.508
 1493SOL     OW 5365   1.290   3.101   3.285
 1493SOL    HW1 5366   1.322   3.033   3.226
 1493SOL    HW2 5367   1.346   3.094   3.362
 1494SOL     OW 5368   0.815   1.861   2.370
 1494SOL    HW1 5369   0.855   1.946   2.352
 1494SOL    HW2 5370   0.722   1.880   2.379
 1495SOL     OW 5371   0.180   2.803   3.141
 1495SOL    HW1 5372   0.272   2.786   3.120
 1495SOL    HW2 5373   0.133   2.787   3.060
 1496SOL     OW 5374   1.533   2.854   2.060
 1496SOL    HW1 5375   1.462   2.797   2.090
 1496SOL    HW2 5376   1.571   2.889   2.140
 1497SOL     OW 5377   1.186   3.668   3.484
 1497SOL    HW1 5378   1.197   3.726   3.408
 1497SOL    HW2 5379   1.201   3.580   3.449
 1498SOL     OW 5380   0.330   2.118   3.660
 1498SOL    HW1 5381   0.380   2.192   3.696
 1498SOL    HW2 5382   0.244   2.126   3.699
 1499SOL     OW 5383   1.467   3.281   2.815
 1499SOL    HW1 5384   1.398   3.296   2.879
 1499SOL    HW2 5385   1.454   3.190   2.787
 1500SOL     OW 5386   1.660   3.599   2.440
 1500SOL    HW1 5387   1.638   3.570   2.351
 1500SOL    HW2 5388   1.634   3.526   2.496
 1501SOL     OW 5389   0.598   2.583   2.128
 1501SOL    HW1 5390   0.600   2.664   2.077
 1501SOL    HW2 5391   0.532   2.599   2.195
 1502SOL     OW 5392   1.278   2.215   2.794
 1502SOL    HW1 5393   1.189   2.180   2.803
 1502SOL    HW2 5394   1.330   2.162   2.855
 1503SOL     OW 5395   1.581   3.532   2.171
 1503SOL    HW1 5396   1.671   3.564   2.164
 1503SOL    HW2 5397   1.554   3.515   2.081
 1504SOL     OW 5398   0.794   2.478   3.313
 1504SOL    HW1 5399   0.768   2.455   3.402
 1504SOL    HW2 5400   0.751   2.413   3.258
 1505SOL     OW 5401   1.393   2.337   3.539
 1505SOL    HW1 5402   1.395   2.381   3.624
 1505SOL    HW2 5403   1.455   2.264   3.549
 1506SOL     OW 5404   0.956   2.750   3.444
 1506SOL    HW1 5405   1.010   2.679   3.408
 1506SOL    HW2 5406   0.908   2.784   3.368
 1507SOL     OW 5407   0.993   2.276   3.101
 1507SOL    HW1 5408   0.908   2.297   3.140
 1507SOL    HW2 5409   0.971   2.228   3.020
 1508SOL     OW 5410   1.051   2.560   2.288
 1508SOL    HW1 5411   1.066   2.553   2.383
 1508SOL    HW2 5412   0.969   2.514   2.273
 1509SOL     OW 5413   0.097   2.689   2.646
 1509SOL    HW1 5414   0.183   2.671   2.683
 1509SOL    HW2 5415   0.045   2.720   2.721
 1510SOL     OW 5416   0.125   3.714   3.438
 1510SOL    HW1 5417   0.117   3.693   3.531
 1510SOL    HW2 5418   0.044   3.681   3.399
 1511SOL     OW 5419   0.892   2.210   2.056
 1511SOL    HW1 5420   0.932   2.271   1.995
 1511SOL    HW2 5421   0.907   2.123   2.018
 1512SOL     OW 5422   1.701   2.449   3.691
 1512SOL    HW1 5423   1.664   2.521   3.640
 1512SOL    HW2 5424   1.725   2.383   3.626
 1513SOL     OW 5425   1.377   3.004   2.404
 1513SOL    HW1 5426   1.455   2.991   2.350
 1513SOL    HW2 5427   1.323   3.066   2.354
 1514SOL     OW 5428   0.551   2.045   2.755
 1514SOL    HW1 5429   0.554   2.075   2.846
 1514SOL    HW2 5430   0.552   2.125   2.703
 1515SOL     OW 5431   1.007   3.307   2.335
 1515SOL    HW1 5432   0.969   3.379   2.285
 1515SOL    HW2 5433   0.988   3.328   2.426
 1516SOL     OW 5434   0.355   3.672   2.720
 1516SOL    HW1 5435   0.397   3.586   2.730
 1516SOL    HW2 5436   0.426   3.735   2.735
 1517SOL     OW 5437   1.799   2.917   2.729
 1517SOL    HW1 5438   1.743   2.902   2.653
 1517SOL    HW2 5439   1.738   2.924   2.803
 1518SOL     OW 5440   1.228   3.400   3.374
 1518SOL    HW1 5441   1.214   3.328   3.435
 1518SOL    HW2 5442   1.164   3.386   3.305
 1519SOL     OW 5443   0.316   2.816   2.114
 1519SOL    HW1 5444   0.400   2.839   2.075
 1519SOL    HW2 5445   0.300   2.726   2.087
 1520SOL     OW 5446   1.479   2.601   2.588
 1520SOL    HW1 5447   1.467   2.557   2.672
 1520SOL    HW2 5448   1.554   2.659   2.601
 1521SOL     OW 5449   0.467   3.124   3.597
 1521SOL    HW1 5450   0.440   3.130   3.506
 1521SOL    HW2 5451   0.386   3.129   3.647
 1522SOL     OW 5452   1.121   3.640   2.093
 1522SOL    HW1 5453   1.049   3.598   2.139
 1522SOL    HW2 5454   1.144   3.579   2.023
 1523SOL     OW 5455   0.196   2.139   3.348
 1523SOL    HW1 5456   0.136   2.214   3.354
 1523SOL    HW2 5457   0.183   2.092   3.430
 1524SOL     OW 5458   1.629   3.242   1.949
 1524SOL    HW1 5459   1.587   3.327   1.934
 1524SOL    HW2 5460   1.560   3.178   1.931
 1525SOL     OW 5461   0.469   3.606   2.176
 1525SOL    HW1 5462   0.511   3.659   2.244
 1525SOL    HW2 5463   0.542   3.571   2.124
 1526SOL     OW 5464   1.401   1.971   2.295
 1526SOL    HW1 5465   1.395   1.944   2.203
 1526SOL    HW2 5466   1.494   1.975   2.313
 1527SOL     OW 5467   0.261   3.656   3.093
 1527SOL    HW1 5468   0.305   3.580   3.132
 1527SOL    HW2 5469   0.226   3.622   3.011
 1528SOL     OW 5470   0.938   3.561   2.761
 1528SOL    HW1 5471   1.014   3.508   2.783
 1528SOL    HW2 5472   0.893   3.511   2.692
 1529SOL     OW 5473   0.394   2.557   2.335
 1529SOL    HW1 5474   0.418   2.465   2.346
 1529SOL    HW2 5475   0.302   2.561   2.361
 1530SOL     OW 5476   1.532   2.086   3.587
 1530SOL    HW1 5477   1.541   2.106   3.680
 1530SOL    HW2 5478   1.464   2.019   3.583
 1531SOL     OW 5479   0.634   1.987   1.965
 1531SOL    HW1 5480   0.703   1.922   1.981
 1531SOL    HW2 5481   0.586   1.953   1.890
 1532SOL     OW 5482   0.767   2.139   3.616
 1532SOL    HW1 5483   0.842   2.080   3.618
 1532SOL    HW2 5484   0.718   2.117   3.695
 1533SOL     OW 5485   0.877   3.384   3.055
 1533SOL    HW1 5486   0.861   3.348   2.968
 1533SOL    HW2 5487   0.946   3.329   3.092
 1534SOL     OW 5488   1.341   2.451   3.294
 1534SOL    HW1 5489   1.371   2.419   3.379
 1534SOL    HW2 5490   1.377   2.539   3.287
 1535SOL     OW 5491   0.815   3.258   2.801
 1535SOL    HW1 5492   0.899   3.246   2.756
 1535SOL    HW2 5493   0.750   3.258   2.731
 1536SOL     OW 5494   0.927   2.371   2.766
 1536SOL    HW1 5495   0.904   2.363   2.673
 1536SOL    HW2 5496   0.960   2.284   2.790
 1537SOL     OW 5497   0.552   1.924   2.364
 1537SOL    HW1 5498   0.471   1.922   2.415
 1537SOL    HW2 5499   0.544   2.002   2.310
 1538SOL     OW 5500   1.429   3.060   1.903
 1538SOL    HW1 5501   1.458   2.984   1.953
 1538SOL    HW2 5502   1.342   3.081   1.940
 1539SOL     OW 5503   0.295   1.908   2.040
 1539SOL    HW1 5504   0.358   1.975   2.013
 1539SOL    HW2 5505   0.348   1.842   2.085
 1540SOL     OW 5506   0.938   2.108   2.323
 1540SOL    HW1 5507   0.910   2.150   2.241
 1540SOL    HW2 5508   1.032   2.121   2.327
 1541SOL     OW 5509   1.080   2.542   3.322
 1541SOL    HW1 5510   1.011   2.476   3.326
 1541SOL    HW2 5511   1.161   2.492   3.314
 1542SOL     OW 5512   1.225   3.431   2.655
 1542SOL    HW1 5513   1.241   3.499   2.589
 1542SOL    HW2 5514   1.292   3.446   2.722
 1543SOL     OW 5515   0.466   3.011   2.598
 1543SOL    HW1 5516   0.395   2.992   2.659
 1543SOL    HW2 5517   0.428   2.995   2.512
 1544SOL     OW 5518   1.270   3.656   2.470
 1544SOL    HW1 5519   1.315   3.717   2.412
 1544SOL    HW2 5520   1.203   3.709   2.513
 1545SOL     OW 5521   1.024   2.405   1.883
 1545SOL    HW1 5522   0.980   2.488   1.863
 1545SOL    HW2 5523   1.088   2.427   1.951
 1546SOL     OW 5524   0.083   2.391   3.271
 1546SOL    HW1 5525   0.148   2.389   3.201
 1546SOL    HW2 5526   0.068   2.484   3.288
 1547SOL     OW 5527   0.561   2.090   3.028
 1547SOL    HW1 5528   0.603   2.010   3.061
 1547SOL    HW2 5529   0.469   2.081   3.054
 1548SOL     OW 5530   0.869   2.322   2.502
 1548SOL    HW1 5531   0.822   2.375   2.438
 1548SOL    HW2 5532   0.889   2.241   2.455
 1549SOL     OW 5533   1.014   1.916   2.614
 1549SOL    HW1 5534   0.957   1.908   2.538
 1549SOL    HW2 5535   0.993   1.839   2.669
 1550SOL     OW 5536   1.437   3.025   2.719
 1550SOL    HW1 5537   1.367   2.959   2.719
 1550SOL    HW2 5538   1.458   3.036   2.626
 1551SOL     OW 5539   1.463   2.469   2.843
 1551SOL    HW1 5540   1.417   2.385   2.840
 1551SOL    HW2 5541   1.524   2.461   2.916
 1552SOL     OW 5542   1.847   2.677   2.243
 1552SOL    HW1 5543   1.905   2.627   2.300
 1552SOL    HW2 5544   1.821   2.615   2.175
 1553SOL     OW 5545   0.492   3.279   2.022
 1553SOL    HW1 5546   0.415   3.250   2.071
 1553SOL    HW2 5547   0.474   3.253   1.931
 1554SOL     OW 5548   1.670   3.127   2.508
 1554SOL    HW1 5549   1.764   3.131   2.521
 1554SOL    HW2 5550   1.638   3.214   2.529
 1555SOL     OW 5551   1.394   2.434   1.933
 1555SOL    HW1 5552   1.333   2.415   2.004
 1555SOL    HW2 5553   1.477   2.396   1.962
 1556SOL     OW 5554   0.524   2.122   2.180
 1556SOL    HW1 5555   0.570   2.076   2.110
 1556SOL    HW2 5556   0.506   2.208   2.143
 1557SOL     OW 5557   1.752   3.101   3.436
 1557SOL    HW1 5558   1.840   3.062   3.433
 1557SOL    HW2 5559   1.767   3.191   3.465
 1558SOL     OW 5560   1.059   3.216   3.196
 1558SOL    HW1 5561   0.984   3.185   3.247
 1558SOL    HW2 5562   1.135   3.174   3.237
 1559SOL     OW 5563   1.608   3.488   3.515
 1559SOL    HW1 5564   1.602   3.521   3.426
 1559SOL    HW2 5565   1.691   3.440   3.518
 1560SOL     OW 5566   1.129   3.065   2.968
 1560SOL    HW1 5567   1.069   3.102   3.033
 1560SOL    HW2 5568   1.095   3.096   2.884
 1561SOL     OW 5569   1.630   2.961   2.939
 1561SOL    HW1 5570   1.625   3.023   3.012
 1561SOL    HW2 5571   1.550   2.977   2.889
 1562SOL     OW 5572   0.917   1.960   3.259
 1562SOL    HW1 5573   0.940   1.940   3.168
 1562SOL    HW2 5574   0.997   1.999   3.296
 1563SOL     OW 5575   0.984   2.976   3.585
 1563SOL    HW1 5576   0.892   2.992   3.606
 1563SOL    HW2 5577   0.983   2.898   3.529
 1564SOL     OW 5578   0.709   2.923   2.234
 1564SOL    HW1 5579   0.695   2.907   2.328
 1564SOL    HW2 5580   0.784   2.870   2.211
 1565SOL     OW 5581   0.430   2.687   3.103
 1565SOL    HW1 5582   0.499   2.699   3.168
 1565SOL    HW2 5583   0.372   2.622   3.142
 1566SOL     OW 5584   1.266   2.239   3.138
 1566SOL    HW1 5585   1.299   2.316   3.183
 1566SOL    HW2 5586   1.176   2.261   3.113
 1567SOL     OW 5587   0.062   3.438   3.203
 1567SOL    HW1 5588   0.034   3.528   3.183
 1567SOL    HW2 5589   0.157   3.443   3.210
 1568SOL     OW 5590   0.348   2.970   2.355
 1568SOL    HW1 5591   0.356   3.043   2.294
 1568SOL    HW2 5592   0.348   2.892   2.299
 1569SOL     OW 5593   0.561   2.396   2.718
 1569SOL    HW1 5594   0.574   2.455   2.644
 1569SOL    HW2 5595   0.622   2.426   2.785
 1570SOL     OW 5596   1.248   3.210   2.252
 1570SOL    HW1 5597   1.304   3.282   2.282
 1570SOL    HW2 5598   1.161   3.231   2.285
 1571SOL     OW 5599   1.280   3.319   3.008
 1571SOL    HW1 5600   1.335   3.321   3.087
 1571SOL    HW2 5601   1.224   3.242   3.020
 1572SOL     OW 5602   1.585   2.489   2.339
 1572SOL    HW1 5603   1.534   2.536   2.405
 1572SOL    HW2 5604   1.624   2.558   2.285
 1573SOL     OW 5605   0.347   3.394   3.177
 1573SOL    HW1 5606   0.333   3.346   3.095
 1573SOL    HW2 5607   0.442   3.403   3.184
 1574SOL     OW 5608   0.479   2.621   3.527
 1574SOL    HW1 5609   0.508   2.659   3.445
 1574SOL    HW2 5610   0.520   2.534   3.529
 1575SOL     OW 5611   1.598   2.645   3.541
 1575SOL    HW1 5612   1.512   2.686   3.533
 1575SOL    HW2 5613   1.651   2.687   3.472
 1576SOL     OW 5614   0.996   1.984   3.617
 1576SOL    HW1 5615   1.051   2.056   3.588
 1576SOL    HW2 5616   1.044   1.905   3.592
 1577SOL     OW 5617   0.498   1.905   3.609
 1577SOL    HW1 5618   0.456   1.848   3.543
 1577SOL    HW2 5619   0.438   1.979   3.617
 1578SOL     OW 5620   0.590   2.735   2.887
 1578SOL    HW1 5621   0.618   2.827   2.888
 1578SOL    HW2 5622   0.533   2.726   2.963
 1579SOL     OW 5623   1.358   2.721   2.892
 1579SOL    HW1 5624   1.275   2.713   2.846
 1579SOL    HW2 5625   1.398   2.634   2.888
 1580SOL     OW 5626   1.206   2.391   2.130
 1580SOL    HW1 5627   1.213   2.312   2.184
 1580SOL    HW2 5628   1.163   2.455   2.186
 1581SOL     OW 5629   0.302   2.054   3.104
 1581SOL    HW1 5630   0.263   2.087   3.184
 1581SOL    HW2 5631   0.285   1.959   3.107
 1582SOL     OW 5632   0.040   3.175   3.147
 1582SOL    HW1 5633   0.076   3.128   3.223
 1582SOL    HW2 5634   0.046   3.267   3.172
 1583SOL     OW 5635   0.726   2.493   2.921
 1583SOL    HW1 5636   0.800   2.475   2.863
 1583SOL    HW2 5637   0.698   2.582   2.898
 1584SOL     OW 5638   1.734   2.822   3.714
 1584SOL    HW1 5639   1.688   2.761   3.656
 1584SOL    HW2 5640   1.674   2.835   3.787
 1585SOL     OW 5641   0.310   1.932   2.481
 1585SOL    HW1 5642   0.287   2.021   2.508
 1585SOL    HW2 5643   0.307   1.880   2.562
 1586SOL     OW 5644   1.627   2.236   2.234
 1586SOL    HW1 5645   1.636   2.168   2.301
 1586SOL    HW2 5646   1.597   2.314   2.281
 1587SOL     OW 5647   1.027   2.621   2.823
 1587SOL    HW1 5648   1.025   2.639   2.917
 1587SOL    HW2 5649   1.001   2.529   2.815
 1588SOL     OW 5650   0.983   3.429   3.578
 1588SOL    HW1 5651   0.968   3.473   3.494
 1588SOL    HW2 5652   1.025   3.346   3.555
 1589SOL     OW 5653   1.855   3.369   3.468
 1589SOL    HW1 5654   1.873   3.395   3.377
 1589SOL    HW2 5655   1.936   3.388   3.514
 1590SOL     OW 5656   0.347   2.795   3.680
 1590SOL    HW1 5657   0.420   2.824   3.735
 1590SOL    HW2 5658   0.385   2.728   3.623
 1591SOL     OW 5659   1.529   2.137   1.993
 1591SOL    HW1 5660   1.464   2.070   2.017
 1591SOL    HW2 5661   1.561   2.170   2.076
 1592SOL     OW 5662   1.293   2.689   1.894
 1592SOL    HW1 5663   1.335   2.603   1.897
 1592SOL    HW2 5664   1.323   2.727   1.812
 1593SOL     OW 5665   1.066   3.197   2.715
 1593SOL    HW1 5666   1.068   3.125   2.653
 1593SOL    HW2 5667   1.127   3.262   2.680
 1594SOL     OW 5668   0.318   2.673   2.810
 1594SOL    HW1 5669   0.412   2.690   2.807
 1594SOL    HW2 5670   0.311   2.582   2.839
 1595SOL     OW 5671   0.331   2.386   2.853
 1595SOL    HW1 5672   0.293   2.300   2.837
 1595SOL    HW2 5673   0.409   2.389   2.798
 1596SOL     OW 5674   1.134   2.239   3.543
 1596SOL    HW1 5675   1.087   2.293   3.606
 1596SOL    HW2 5676   1.222   2.277   3.539
 1597SOL     OW 5677   1.160   2.065   3.332
 1597SOL    HW1 5678   1.150   2.128   3.403
 1597SOL    HW2 5679   1.200   2.115   3.261
 1598SOL     OW 5680   4.492   3.184   2.067
 1598SOL    HW1 5681   4.399   3.200   2.048
 1598SOL    HW2 5682   4.496   3.091   2.088
 1599SOL     OW 5683   0.097   3.639   2.802
 1599SOL    HW1 5684   0.058   3.585   2.734
 1599SOL    HW2 5685   0.185   3.660   2.770
 1600SOL     OW 5686   0.497   3.436   2.769
 1600SOL    HW1 5687   0.565   3.498   2.793
 1600SOL    HW2 5688   0.541   3.372   2.712
 1601SOL     OW 5689   0.985   2.655   3.089
 1601SOL    HW1 5690   1.039   2.631   3.164
 1601SOL    HW2 5691   0.899   2.618   3.109
 1602SOL     OW 5692   0.035   2.425   2.966
 1602SOL    HW1 5693   0.118   2.391   2.935
 1602SOL    HW2 5694   0.021   2.381   3.050
 1603SOL     OW 5695   0.179   2.381   3.576
 1603SOL    HW1 5696   0.259   2.351   3.533
 1603SOL    HW2 5697   0.156   2.462   3.531
 1604SOL     OW 5698   1.374   2.803   3.520
 1604SOL    HW1 5699   1.396   2.896   3.519
 1604SOL    HW2 5700   1.372   2.777   3.428
 1605SOL     OW 5701   0.817   2.431   2.220
 1605SOL    HW1 5702   0.820   2.356   2.161
 1605SOL    HW2 5703   0.743   2.484   2.190
 1606SOL     OW 5704   1.643   2.466   3.050
 1606SOL    HW1 5705   1.634   2.403   3.122
 1606SOL    HW2 5706   1.730   2.449   3.014
 1607SOL     OW 5707   0.273   3.423   3.603
 1607SOL    HW1 5708   0.217   3.476   3.659
 1607SOL    HW2 5709   0.253   3.333   3.627
 1608SOL     OW 5710   0.691   2.316   3.124
 1608SOL    HW1 5711   0.645   2.239   3.091
 1608SOL    HW2 5712   0.692   2.378   3.051
 1609SOL     OW 5713   0.930   3.541   3.329
 1609SOL    HW1 5714   0.902   3.507   3.243
 1609SOL    HW2 5715   0.924   3.636   3.319
 1610SOL     OW 5716   0.472   2.352   2.048
 1610SOL    HW1 5717   0.531   2.424   2.071
 1610SOL    HW2 5718   0.388   2.395   2.032
 1611SOL     OW 5719   0.162   3.003   3.323
 1611SOL    HW1 5720   0.146   2.957   3.406
 1611SOL    HW2 5721   0.169   2.933   3.259
 1612SOL     OW 5722   1.327   2.910   3.085
 1612SOL    HW1 5723   1.350   2.846   3.017
 1612SOL    HW2 5724   1.256   2.961   3.047
 1613SOL     OW 5725   1.311   2.718   2.169
 1613SOL    HW1 5726   1.235   2.689   2.219
 1613SOL    HW2 5727   1.287   2.705   2.077
 1614SOL     OW 5728   1.771   3.607   3.012
 1614SOL    HW1 5729   1.831   3.633   2.942
 1614SOL    HW2 5730   1.747   3.516   2.990
 1615SOL     OW 5731   1.241   3.595   2.976
 1615SOL    HW1 5732   1.323   3.615   2.931
 1615SOL    HW2 5733   1.246   3.501   2.994
 1616SOL     OW 5734   0.067   3.047   2.911
 1616SOL    HW1 5735   0.067   3.079   3.001
 1616SOL    HW2 5736   0.021   3.115   2.861
 1617SOL     OW 5737   0.679   3.528   3.591
 1617SOL    HW1 5738   0.623   3.605   3.585
 1617SOL    HW2 5739   0.741   3.538   3.519
 1618SOL     OW 5740   1.679   1.996   2.377
 1618SOL    HW1 5741   1.754   1.988   2.318
 1618SOL    HW2 5742   1.678   1.913   2.424
 1619SOL     OW 5743   1.391   3.430   2.347
 1619SOL    HW1 5744   1.451   3.462   2.279
 1619SOL    HW2 5745   1.342   3.507   2.374
 1620SOL     OW 5746   0.120   3.669   3.709
 1620SOL    HW1 5747   0.079   3.596   3.757
 1620SOL    HW2 5748   0.182   3.706   3.771
 1621SOL     OW 5749   1.278   2.787   2.533
 1621SOL    HW1 5750   1.351   2.726   2.539
 1621SOL    HW2 5751   1.311   2.860   2.481
 1622SOL     OW 5752   0.815   3.136   3.292
 1622SOL    HW1 5753   0.788   3.174   3.375
 1622SOL    HW2 5754   0.744   3.157   3.231
 1623SOL     OW 5755   0.673   3.481   2.017
 1623SOL    HW1 5756   0.682   3.492   1.923
 1623SOL    HW2 5757   0.618   3.403   2.026
 1624SOL     OW 5758   1.628   3.589   3.254
 1624SOL    HW1 5759   1.677   3.596   3.172
 1624SOL    HW2 5760   1.615   3.679   3.281
 1625SOL     OW 5761   1.807   2.016   2.843
 1625SOL    HW1 5762   1.851   1.938   2.809
 1625SOL    HW2 5763   1.728   2.025   2.789
 1626SOL     OW 5764   0.265   2.182   2.581
 1626SOL    HW1 5765   0.182   2.220   2.553
 1626SOL    HW2 5766   0.255   2.169   2.675
 1627SOL     OW 5767   1.207   3.468   1.893
 1627SOL    HW1 5768   1.197   3.377   1.920
 1627SOL    HW2 5769   1.142   3.480   1.824
 1628SOL     OW 5770   0.826   2.869   3.234
 1628SOL    HW1 5771   0.868   2.865   3.148
 1628SOL    HW2 5772   0.825   2.962   3.257
 1629SOL     OW 5773   0.916   2.773   2.152
 1629SOL    HW1 5774   0.977   2.805   2.086
 1629SOL    HW2 5775   0.963   2.703   2.196
 1630SOL     OW 5776   1.492   3.487   1.904
 1630SOL    HW1 5777   1.398   3.481   1.891
 1630SOL    HW2 5778   1.529   3.493   1.816
 1631SOL     OW 5779   0.373   3.169   3.352
 1631SOL    HW1 5780   0.355   3.248   3.301
 1631SOL    HW2 5781   0.298   3.112   3.336
 1632SOL     OW 5782   1.612   3.146   3.143
 1632SOL    HW1 5783   1.670   3.134   3.219
 1632SOL    HW2 5784   1.551   3.214   3.169
 1633SOL     OW 5785   1.052   2.969   2.568
 1633SOL    HW1 5786   0.980   2.918   2.608
 1633SOL    HW2 5787   1.113   2.903   2.536
 1634SOL     OW 5788   1.020   2.102   2.828
 1634SOL    HW1 5789   1.016   2.054   2.746
 1634SOL    HW2 5790   1.016   2.034   2.896
 1635SOL     OW 5791   0.604   3.352   2.345
 1635SOL    HW1 5792   0.645   3.302   2.274
 1635SOL    HW2 5793   0.530   3.395   2.303
 1636SOL     OW 5794   1.722   2.259   3.243
 1636SOL    HW1 5795   1.800   2.315   3.241
 1636SOL    HW2 5796   1.746   2.183   3.190
 1637SOL     OW 5797   0.252   3.206   2.139
 1637SOL    HW1 5798   0.157   3.206   2.124
 1637SOL    HW2 5799   0.262   3.238   2.228
 1638SOL     OW 5800   0.116   2.869   3.556
 1638SOL    HW1 5801   0.052   2.911   3.614
 1638SOL    HW2 5802   0.194   2.859   3.611
 1639SOL     OW 5803   0.674   2.061   3.361
 1639SOL    HW1 5804   0.757   2.039   3.319
 1639SOL    HW2 5805   0.697   2.089   3.449
 1640SOL     OW 5806   0.072   2.187   1.894
 1640SOL    HW1 5807   4.477   2.199   1.899
 1640SOL    HW2 5808   0.104   2.269   1.856
 1641SOL     OW 5809   1.431   2.721   3.263
 1641SOL    HW1 5810   1.382   2.781   3.206
 1641SOL    HW2 5811   1.520   2.723   3.228
 1642SOL     OW 5812   0.086   2.039   2.167
 1642SOL    HW1 5813   0.079   2.110   2.104
 1642SOL    HW2 5814   0.161   1.988   2.138
 1643SOL     OW 5815   1.179   3.202   1.979
 1643SOL    HW1 5816   1.088   3.172   1.981
 1643SOL    HW2 5817   1.207   3.201   2.070
 1644SOL     OW 5818   0.623   2.693   3.292
 1644SOL    HW1 5819   0.679   2.770   3.279
 1644SOL    HW2 5820   0.684   2.620   3.300
 1645SOL     OW 5821   1.484   3.638   2.840
 1645SOL    HW1 5822   1.508   3.697   2.768
 1645SOL    HW2 5823   1.567   3.621   2.885
 1646SOL     OW 5824   0.715   2.424   3.566
 1646SOL    HW1 5825   0.754   2.488   3.626
 1646SOL    HW2 5826   0.747   2.340   3.597
 1647SOL     OW 5827   1.471   3.063   3.494
 1647SOL    HW1 5828   1.458   3.076   3.588
 1647SOL    HW2 5829   1.564   3.077   3.480
 1648SOL     OW 5830   0.381   3.605   3.426
 1648SOL    HW1 5831   0.296   3.645   3.409
 1648SOL    HW2 5832   0.360   3.525   3.474
 1649SOL     OW 5833   1.672   2.744   3.117
 1649SOL    HW1 5834   1.661   2.658   3.075
 1649SOL    HW2 5835   1.660   2.807   3.045
 1650SOL     OW 5836   1.218   2.182   2.319
 1650SOL    HW1 5837   1.280   2.110   2.311
 1650SOL    HW2 5838   1.246   2.230   2.397
 1651SOL     OW 5839   0.590   2.600   2.531
 1651SOL    HW1 5840   0.628   2.687   2.515
 1651SOL    HW2 5841   0.521   2.592   2.465
 1652SOL     OW 5842   1.751   2.234   3.517
 1652SOL    HW1 5843   1.746   2.244   3.422
 1652SOL    HW2 5844   1.681   2.173   3.539
 1653SOL     OW 5845   1.746   2.797   3.373
 1653SOL    HW1 5846   1.742   2.892   3.386
 1653SOL    HW2 5847   1.730   2.785   3.279
 1654SOL     OW 5848   0.865   3.230   1.896
 1654SOL    HW1 5849   0.824   3.256   1.978
 1654SOL    HW2 5850   0.880   3.312   1.849
 1655SOL     OW 5851   0.661   3.654   2.808
 1655SOL    HW1 5852   0.639   3.744   2.784
 1655SOL    HW2 5853   0.756   3.648   2.799
 1656SOL     OW 5854   0.868   2.829   2.717
 1656SOL    HW1 5855   0.917   2.757   2.757
 1656SOL    HW2 5856   0.833   2.878   2.791
 1657SOL     OW 5857   1.080   2.851   1.951
 1657SOL    HW1 5858   1.057   2.901   1.873
 1657SOL    HW2 5859   1.155   2.797   1.925
 1658SOL     OW 5860   1.855   3.416   2.706
 1658SOL    HW1 5861   1.777   3.406   2.652
 1658SOL    HW2 5862   1.844   3.351   2.776
 1659SOL     OW 5863   0.230   3.168   3.719
 1659SOL    HW1 5864   0.157   3.110   3.697
 1659SOL    HW2 5865   0.224   3.178   3.814
 1660SOL     OW 5866   0.106   3.098   2.530
 1660SOL    HW1 5867   0.116   3.051   2.612
 1660SOL    HW2 5868   0.165   3.054   2.469
 1661SOL     OW 5869   0.682   3.264   3.490
 1661SOL    HW1 5870   0.602   3.220   3.518
 1661SOL    HW2 5871   0.675   3.352   3.527
 1662SOL     OW 5872   1.793   2.043   3.104
 1662SOL    HW1 5873   1.822   1.954   3.126
 1662SOL    HW2 5874   1.803   2.048   3.009
 1663SOL     OW 5875   0.435   2.295   2.388
 1663SOL    HW1 5876   0.459   2.222   2.331
 1663SOL    HW2 5877   0.384   2.256   2.458
 1664SOL     OW 5878   1.701   3.351   2.958
 1664SOL    HW1 5879   1.620   3.328   2.913
 1664SOL    HW2 5880   1.712   3.283   3.025
 1665SOL     OW 5881   0.302   2.351   3.116
 1665SOL    HW1 5882   0.376   2.309   3.160
 1665SOL    HW2 5883   0.332   2.366   3.026
 1666SOL     OW 5884   0.827   3.440   2.540
 1666SOL    HW1 5885   0.815   3.491   2.460
 1666SOL    HW2 5886   0.750   3.383   2.544
 1667SOL     OW 5887   1.433   2.088   2.978
 1667SOL    HW1 5888   1.463   2.010   3.024
 1667SOL    HW2 5889   1.380   2.135   3.043
 1668SOL     OW 5890   1.008   1.881   3.006
 1668SOL    HW1 5891   0.954   1.813   2.965
 1668SOL    HW2 5892   1.097   1.843   3.007
 1669SOL     OW 5893   0.772   3.194   2.175
 1669SOL    HW1 5894   0.740   3.104   2.181
 1669SOL    HW2 5895   0.854   3.194   2.224
 1670SOL     OW 5896   0.621   3.418   3.147
 1670SOL    HW1 5897   0.623   3.500   3.197
 1670SOL    HW2 5898   0.708   3.412   3.108
 1671SOL     OW 5899   1.353   1.916   2.026
 1671SOL    HW1 5900   1.380   1.852   1.959
 1671SOL    HW2 5901   1.266   1.886   2.054
 1672SOL     OW 5902   1.295   2.324   2.543
 1672SOL    HW1 5903   1.240   2.402   2.552
 1672SOL    HW2 5904   1.293   2.283   2.629
 1673SOL     OW 5905   1.570   2.058   2.728
 1673SOL    HW1 5906   1.518   2.084   2.804
 1673SOL    HW2 5907   1.578   2.138   2.676
 1674SOL     OW 5908   0.041   2.914   2.150
 1674SOL    HW1 5909   0.135   2.898   2.140
 1674SOL    HW2 5910   0.020   2.880   2.237
 1675SOL     OW 5911   0.884   3.514   2.205
 1675SOL    HW1 5912   0.812   3.496   2.145
 1675SOL    HW2 5913   0.854   3.589   2.256
 1676SOL     OW 5914   0.248   2.490   3.844
 1676SOL    HW1 5915   0.174   2.471   3.901
 1676SOL    HW2 5916   0.216   2.472   3.755
 1677SOL     OW 5917   0.213   2.137   4.715
 1677SOL    HW1 5918   0.249   2.111   4.800
 1677SOL    HW2 5919   0.137   2.080   4.703
 1678SOL     OW 5920   0.009   2.252   4.364
 1678SOL    HW1 5921   4.428   2.283   4.405
 1678SOL    HW2 5922   4.483   2.172   4.318
 1679SOL     OW 5923   0.567   3.148   4.898
 1679SOL    HW1 5924   0.480   3.153   4.860
 1679SOL    HW2 5925   0.583   3.235   4.934
 1680SOL     OW 5926   1.559   3.375   4.433
 1680SOL    HW1 5927   1.516   3.353   4.516
 1680SOL    HW2 5928   1.488   3.377   4.369
 1681SOL     OW 5929   1.134   2.562   4.428
 1681SOL    HW1 5930   1.182   2.644   4.413
 1681SOL    HW2 5931   1.086   2.576   4.509
 1682SOL     OW 5932   1.759   2.468   3.956
 1682SOL    HW1 5933   1.742   2.465   3.862
 1682SOL    HW2 5934   1.736   2.381   3.988
 1683SOL     OW 5935   0.755   3.004   4.762
 1683SOL    HW1 5936   0.686   3.039   4.820
 1683SOL    HW2 5937   0.791   3.082   4.719
 1684SOL     OW 5938   0.865   2.635   5.543
 1684SOL    HW1 5939   0.852   2.704   5.609
 1684SOL    HW2 5940   0.886   2.682   5.463
 1685SOL     OW 5941   0.685   2.866   4.372
 1685SOL    HW1 5942   0.750   2.854   4.441
 1685SOL    HW2 5943   0.616   2.917   4.414
 1686SOL     OW 5944   0.710   3.013   5.537
 1686SOL    HW1 5945   0.756   3.092   5.563
 1686SOL    HW2 5946   0.627   3.044   5.500
 1687SOL     OW 5947   0.336   3.283   4.793
 1687SOL    HW1 5948   0.254   3.265   4.747
 1687SOL    HW2 5949   0.386   3.338   4.733
 1688SOL     OW 5950   1.460   3.370   5.074
 1688SOL    HW1 5951   1.508   3.452   5.089
 1688SOL    HW2 5952   1.399   3.364   5.148
 1689SOL     OW 5953   0.445   2.266   5.217
 1689SOL    HW1 5954   0.523   2.212   5.220
 1689SOL    HW2 5955   0.372   2.203   5.221
 1690SOL     OW 5956   0.246   3.553   4.202
 1690SOL    HW1 5957   0.231   3.638   4.244
 1690SOL    HW2 5958   0.312   3.571   4.135
 1691SOL     OW 5959   1.137   3.206   5.417
 1691SOL    HW1 5960   1.179   3.200   5.502
 1691SOL    HW2 5961   1.084   3.126   5.410
 1692SOL     OW 5962   0.248   3.288   4.252
 1692SOL    HW1 5963   0.239   3.384   4.255
 1692SOL    HW2 5964   0.184   3.257   4.315
 1693SOL     OW 5965   0.247   2.944   4.608
 1693SOL    HW1 5966   0.264   2.854   4.637
 1693SOL    HW2 5967   0.188   2.980   4.673
 1694SOL     OW 5968   0.614   3.653   5.155
 1694SOL    HW1 5969   0.531   3.635   5.199
 1694SOL    HW2 5970   0.634   3.743   5.180
 1695SOL     OW 5971   0.580   2.848   3.861
 1695SOL    HW1 5972   0.628   2.892   3.791
 1695SOL    HW2 5973   0.625   2.876   3.941
 1696SOL     OW 5974   0.136   2.507   4.298
 1696SOL    HW1 5975   0.088   2.427   4.315
 1696SOL    HW2 5976   0.107   2.568   4.366
 1697SOL     OW 5977   1.842   3.622   4.059
 1697SOL    HW1 5978   1.905   3.593   4.126
 1697SOL    HW2 5979   1.867   3.712   4.040
 1698SOL     OW 5980   0.032   3.464   3.863
 1698SOL    HW1 5981   0.021   3.369   3.862
 1698SOL    HW2 5982   0.019   3.488   3.955
 1699SOL     OW 5983   1.679   2.758   4.335
 1699SOL    HW1 5984   1.770   2.743   4.312
 1699SOL    HW2 5985   1.651   2.832   4.281
 1700SOL     OW 5986   1.644   2.970   4.153
 1700SOL    HW1 5987   1.730   2.976   4.110
 1700SOL    HW2 5988   1.649   3.032   4.225
 1701SOL     OW 5989   0.110   2.624   5.307
 1701SOL    HW1 5990   0.203   2.623   5.281
 1701SOL    HW2 5991   0.091   2.717   5.324
 1702SOL     OW 5992   0.614   3.246   4.460
 1702SOL    HW1 5993   0.567   3.164   4.469
 1702SOL    HW2 5994   0.597   3.273   4.369
 1703SOL     OW 5995   1.287   3.102   5.149
 1703SOL    HW1 5996   1.320   3.037   5.087
 1703SOL    HW2 5997   1.348   3.096   5.223
 1704SOL     OW 5998   0.815   1.861   4.232
 1704SOL    HW1 5999   0.855   1.946   4.214
 1704SOL    HW2 6000   0.722   1.880   4.242
 1705SOL     OW 6001   0.180   2.803   5.003
 1705SOL    HW1 6002   0.272   2.786   4.982
 1705SOL    HW2 6003   0.133   2.787   4.922
 1706SOL     OW 6004   1.532   2.854   3.922
 1706SOL    HW1 6005   1.462   2.796   3.952
 1706SOL    HW2 6006   1.570   2.889   4.002
 1707SOL     OW 6007   1.186   3.668   5.346
 1707SOL    HW1 6008   1.197   3.725   5.270
 1707SOL    HW2 6009   1.200   3.580   5.312
 1708SOL     OW 6010   0.331   2.118   5.523
 1708SOL    HW1 6011   0.379   2.193   5.557
 1708SOL    HW2 6012   0.243   2.126   5.561
 1709SOL     OW 6013   1.471   3.285   4.681
 1709SOL    HW1 6014   1.400   3.297   4.744
 1709SOL    HW2 6015   1.458   3.196   4.648
 1710SOL     OW 6016   1.662   3.597   4.303
 1710SOL    HW1 6017   1.640   3.570   4.214
 1710SOL    HW2 6018   1.631   3.525   4.358
 1711SOL     OW 6019   0.598   2.583   3.990
 1711SOL    HW1 6020   0.600   2.664   3.939
 1711SOL    HW2 6021   0.532   2.599   4.058
 1712SOL     OW 6022   1.265   2.224   4.685
 1712SOL    HW1 6023   1.177   2.186   4.685
 1712SOL    HW2 6024   1.324   2.151   4.668
 1713SOL     OW 6025   1.581   3.532   4.033
 1713SOL    HW1 6026   1.671   3.565   4.026
 1713SOL    HW2 6027   1.554   3.515   3.943
 1714SOL     OW 6028   0.772   2.474   5.177
 1714SOL    HW1 6029   0.749   2.447   5.266
 1714SOL    HW2 6030   0.734   2.406   5.121
 1715SOL     OW 6031   0.946   2.760   5.309
 1715SOL    HW1 6032   0.990   2.683   5.272
 1715SOL    HW2 6033   0.899   2.798   5.235
 1716SOL     OW 6034   0.982   2.261   4.983
 1716SOL    HW1 6035   0.894   2.292   5.003
 1716SOL    HW2 6036   0.977   2.232   4.892
 1717SOL     OW 6037   1.051   2.560   4.150
 1717SOL    HW1 6038   1.065   2.553   4.245
 1717SOL    HW2 6039   0.968   2.514   4.135
 1718SOL     OW 6040   0.097   2.689   4.508
 1718SOL    HW1 6041   0.183   2.671   4.545
 1718SOL    HW2 6042   0.045   2.720   4.582
 1719SOL     OW 6043   0.125   3.714   5.300
 1719SOL    HW1 6044   0.117   3.693   5.393
 1719SOL    HW2 6045   0.044   3.681   5.261
 1720SOL     OW 6046   0.892   2.210   3.919
 1720SOL    HW1 6047   0.933   2.271   3.857
 1720SOL    HW2 6048   0.906   2.124   3.879
 1721SOL     OW 6049   1.716   2.450   5.571
 1721SOL    HW1 6050   1.707   2.526   5.513
 1721SOL    HW2 6051   1.748   2.380   5.515
 1722SOL     OW 6052   1.374   3.004   4.264
 1722SOL    HW1 6053   1.454   2.993   4.211
 1722SOL    HW2 6054   1.322   3.067   4.215
 1723SOL     OW 6055   0.552   2.044   4.616
 1723SOL    HW1 6056   0.554   2.074   4.707
 1723SOL    HW2 6057   0.552   2.125   4.565
 1724SOL     OW 6058   1.007   3.306   4.196
 1724SOL    HW1 6059   0.968   3.379   4.148
 1724SOL    HW2 6060   0.990   3.327   4.288
 1725SOL     OW 6061   0.356   3.671   4.581
 1725SOL    HW1 6062   0.397   3.586   4.592
 1725SOL    HW2 6063   0.426   3.735   4.597
 1726SOL     OW 6064   1.227   3.401   5.236
 1726SOL    HW1 6065   1.215   3.329   5.297
 1726SOL    HW2 6066   1.166   3.384   5.165
 1727SOL     OW 6067   0.316   2.816   3.976
 1727SOL    HW1 6068   0.400   2.839   3.937
 1727SOL    HW2 6069   0.300   2.726   3.949
 1728SOL     OW 6070   0.467   3.124   5.459
 1728SOL    HW1 6071   0.440   3.130   5.368
 1728SOL    HW2 6072   0.385   3.129   5.509
 1729SOL     OW 6073   1.121   3.640   3.955
 1729SOL    HW1 6074   1.049   3.598   4.001
 1729SOL    HW2 6075   1.144   3.578   3.885
 1730SOL     OW 6076   0.196   2.139   5.210
 1730SOL    HW1 6077   0.136   2.214   5.215
 1730SOL    HW2 6078   0.183   2.092   5.292
 1731SOL     OW 6079   1.629   3.242   3.811
 1731SOL    HW1 6080   1.588   3.327   3.797
 1731SOL    HW2 6081   1.560   3.178   3.793
 1732SOL     OW 6082   0.469   3.606   4.037
 1732SOL    HW1 6083   0.511   3.659   4.106
 1732SOL    HW2 6084   0.542   3.571   3.986
 1733SOL     OW 6085   1.401   1.971   4.154
 1733SOL    HW1 6086   1.387   1.944   4.063
 1733SOL    HW2 6087   1.496   1.976   4.164
 1734SOL     OW 6088   0.261   3.656   4.955
 1734SOL    HW1 6089   0.306   3.581   4.995
 1734SOL    HW2 6090   0.226   3.622   4.873
 1735SOL     OW 6091   0.938   3.561   4.623
 1735SOL    HW1 6092   1.014   3.507   4.645
 1735SOL    HW2 6093   0.894   3.511   4.554
 1736SOL     OW 6094   0.394   2.557   4.197
 1736SOL    HW1 6095   0.418   2.465   4.208
 1736SOL    HW2 6096   0.302   2.561   4.223
 1737SOL     OW 6097   1.548   2.074   5.464
 1737SOL    HW1 6098   1.538   2.075   5.559
 1737SOL    HW2 6099   1.479   2.015   5.433
 1738SOL     OW 6100   0.634   1.987   3.827
 1738SOL    HW1 6101   0.702   1.922   3.843
 1738SOL    HW2 6102   0.586   1.953   3.752
 1739SOL     OW 6103   0.770   2.140   5.481
 1739SOL    HW1 6104   0.843   2.078   5.482
 1739SOL    HW2 6105   0.715   2.114   5.555
 1740SOL     OW 6106   0.878   3.384   4.918
 1740SOL    HW1 6107   0.861   3.347   4.831
 1740SOL    HW2 6108   0.947   3.329   4.955
 1741SOL     OW 6109   1.287   2.505   5.206
 1741SOL    HW1 6110   1.368   2.454   5.209
 1741SOL    HW2 6111   1.308   2.579   5.149
 1742SOL     OW 6112   0.814   3.258   4.663
 1742SOL    HW1 6113   0.899   3.247   4.619
 1742SOL    HW2 6114   0.750   3.258   4.592
 1743SOL     OW 6115   0.927   2.370   4.628
 1743SOL    HW1 6116   0.904   2.363   4.535
 1743SOL    HW2 6117   0.958   2.283   4.652
 1744SOL     OW 6118   0.552   1.924   4.226
 1744SOL    HW1 6119   0.471   1.922   4.277
 1744SOL    HW2 6120   0.544   2.002   4.172
 1745SOL     OW 6121   1.428   3.060   3.765
 1745SOL    HW1 6122   1.458   2.984   3.815
 1745SOL    HW2 6123   1.342   3.081   3.802
 1746SOL     OW 6124   0.295   1.908   3.902
 1746SOL    HW1 6125   0.357   1.975   3.875
 1746SOL    HW2 6126   0.348   1.842   3.947
 1747SOL     OW 6127   0.938   2.108   4.185
 1747SOL    HW1 6128   0.910   2.149   4.103
 1747SOL    HW2 6129   1.032   2.122   4.189
 1748SOL     OW 6130   1.037   2.551   5.180
 1748SOL    HW1 6131   0.977   2.476   5.183
 1748SOL    HW2 6132   1.124   2.513   5.195
 1749SOL     OW 6133   1.224   3.431   4.518
 1749SOL    HW1 6134   1.242   3.499   4.453
 1749SOL    HW2 6135   1.292   3.443   4.584
 1750SOL     OW 6136   0.466   3.011   4.460
 1750SOL    HW1 6137   0.395   2.992   4.521
 1750SOL    HW2 6138   0.427   2.995   4.374
 1751SOL     OW 6139   1.271   3.656   4.332
 1751SOL    HW1 6140   1.315   3.718   4.273
 1751SOL    HW2 6141   1.203   3.708   4.375
 1752SOL     OW 6142   1.024   2.405   3.745
 1752SOL    HW1 6143   0.980   2.488   3.725
 1752SOL    HW2 6144   1.089   2.427   3.812
 1753SOL     OW 6145   0.083   2.391   5.133
 1753SOL    HW1 6146   0.148   2.389   5.063
 1753SOL    HW2 6147   0.068   2.484   5.150
 1754SOL     OW 6148   0.560   2.088   4.888
 1754SOL    HW1 6149   0.602   2.009   4.923
 1754SOL    HW2 6150   0.468   2.080   4.916
 1755SOL     OW 6151   0.870   2.322   4.364
 1755SOL    HW1 6152   0.821   2.375   4.301
 1755SOL    HW2 6153   0.889   2.241   4.317
 1756SOL     OW 6154   1.015   1.915   4.476
 1756SOL    HW1 6155   0.957   1.907   4.400
 1756SOL    HW2 6156   0.993   1.839   4.530
 1757SOL     OW 6157   1.428   3.043   4.568
 1757SOL    HW1 6158   1.383   2.962   4.593
 1757SOL    HW2 6159   1.445   3.034   4.474
 1758SOL     OW 6160   1.855   2.678   4.105
 1758SOL    HW1 6161   1.909   2.621   4.160
 1758SOL    HW2 6162   1.819   2.620   4.038
 1759SOL     OW 6163   0.492   3.279   3.884
 1759SOL    HW1 6164   0.415   3.250   3.933
 1759SOL    HW2 6165   0.473   3.253   3.793
 1760SOL     OW 6166   1.671   3.131   4.362
 1760SOL    HW1 6167   1.764   3.132   4.383
 1760SOL    HW2 6168   1.638   3.216   4.393
 1761SOL     OW 6169   1.393   2.434   3.794
 1761SOL    HW1 6170   1.334   2.414   3.867
 1761SOL    HW2 6171   1.479   2.405   3.825
 1762SOL     OW 6172   0.525   2.122   4.042
 1762SOL    HW1 6173   0.570   2.076   3.971
 1762SOL    HW2 6174   0.506   2.208   4.005
 1763SOL     OW 6175   1.744   3.120   5.334
 1763SOL    HW1 6176   1.814   3.074   5.288
 1763SOL    HW2 6177   1.774   3.211   5.339
 1764SOL     OW 6178   1.058   3.216   5.058
 1764SOL    HW1 6179   0.984   3.184   5.109
 1764SOL    HW2 6180   1.135   3.174   5.098
 1765SOL     OW 6181   1.608   3.489   5.378
 1765SOL    HW1 6182   1.603   3.522   5.289
 1765SOL    HW2 6183   1.690   3.439   5.381
 1766SOL     OW 6184   1.127   3.065   4.829
 1766SOL    HW1 6185   1.069   3.105   4.895
 1766SOL    HW2 6186   1.093   3.098   4.746
 1767SOL     OW 6187   0.905   1.954   5.119
 1767SOL    HW1 6188   0.933   1.940   5.029
 1767SOL    HW2 6189   0.982   1.990   5.163
 1768SOL     OW 6190   0.984   2.982   5.449
 1768SOL    HW1 6191   0.892   2.997   5.471
 1768SOL    HW2 6192   0.983   2.904   5.393
 1769SOL     OW 6193   0.708   2.923   4.096
 1769SOL    HW1 6194   0.695   2.907   4.190
 1769SOL    HW2 6195   0.784   2.870   4.073
 1770SOL     OW 6196   0.430   2.687   4.965
 1770SOL    HW1 6197   0.499   2.700   5.030
 1770SOL    HW2 6198   0.372   2.622   5.004
 1771SOL     OW 6199   0.062   3.438   5.065
 1771SOL    HW1 6200   0.034   3.528   5.045
 1771SOL    HW2 6201   0.157   3.443   5.072
 1772SOL     OW 6202   0.348   2.970   4.217
 1772SOL    HW1 6203   0.356   3.044   4.156
 1772SOL    HW2 6204   0.348   2.892   4.161
 1773SOL     OW 6205   0.561   2.395   4.580
 1773SOL    HW1 6206   0.574   2.455   4.506
 1773SOL    HW2 6207   0.621   2.427   4.647
 1774SOL     OW 6208   1.248   3.210   4.113
 1774SOL    HW1 6209   1.304   3.282   4.144
 1774SOL    HW2 6210   1.161   3.231   4.147
 1775SOL     OW 6211   1.278   3.320   4.870
 1775SOL    HW1 6212   1.335   3.322   4.947
 1775SOL    HW2 6213   1.227   3.239   4.879
 1776SOL     OW 6214   1.592   2.492   4.207
 1776SOL    HW1 6215   1.572   2.568   4.261
 1776SOL    HW2 6216   1.633   2.529   4.128
 1777SOL     OW 6217   0.347   3.394   5.039
 1777SOL    HW1 6218   0.333   3.346   4.957
 1777SOL    HW2 6219   0.442   3.403   5.046
 1778SOL     OW 6220   0.479   2.621   5.389
 1778SOL    HW1 6221   0.509   2.660   5.307
 1778SOL    HW2 6222   0.519   2.534   5.390
 1779SOL     OW 6223   0.994   1.979   5.482
 1779SOL    HW1 6224   1.051   2.049   5.450
 1779SOL    HW2 6225   1.042   1.898   5.463
 1780SOL     OW 6226   0.497   1.905   5.471
 1780SOL    HW1 6227   0.456   1.848   5.406
 1780SOL    HW2 6228   0.437   1.979   5.480
 1781SOL     OW 6229   0.590   2.735   4.748
 1781SOL    HW1 6230   0.619   2.826   4.750
 1781SOL    HW2 6231   0.533   2.726   4.825
 1782SOL     OW 6232   1.358   2.722   4.760
 1782SOL    HW1 6233   1.277   2.702   4.712
 1782SOL    HW2 6234   1.413   2.645   4.747
 1783SOL     OW 6235   1.207   2.391   3.992
 1783SOL    HW1 6236   1.213   2.312   4.047
 1783SOL    HW2 6237   1.163   2.455   4.048
 1784SOL     OW 6238   0.302   2.054   4.966
 1784SOL    HW1 6239   0.263   2.088   5.046
 1784SOL    HW2 6240   0.285   1.959   4.969
 1785SOL     OW 6241   0.040   3.174   5.009
 1785SOL    HW1 6242   0.076   3.128   5.085
 1785SOL    HW2 6243   0.046   3.267   5.034
 1786SOL     OW 6244   0.725   2.494   4.783
 1786SOL    HW1 6245   0.799   2.476   4.725
 1786SOL    HW2 6246   0.698   2.582   4.760
 1787SOL     OW 6247   0.310   1.932   4.343
 1787SOL    HW1 6248   0.287   2.021   4.370
 1787SOL    HW2 6249   0.307   1.880   4.423
 1788SOL     OW 6250   1.614   2.241   4.088
 1788SOL    HW1 6251   1.634   2.171   4.150
 1788SOL    HW2 6252   1.589   2.315   4.143
 1789SOL     OW 6253   1.030   2.619   4.681
 1789SOL    HW1 6254   1.025   2.640   4.775
 1789SOL    HW2 6255   1.002   2.528   4.676
 1790SOL     OW 6256   0.982   3.429   5.440
 1790SOL    HW1 6257   0.967   3.472   5.356
 1790SOL    HW2 6258   1.026   3.347   5.418
 1791SOL     OW 6259   1.858   3.376   5.330
 1791SOL    HW1 6260   1.875   3.402   5.239
 1791SOL    HW2 6261   1.941   3.392   5.375
 1792SOL     OW 6262   0.347   2.795   5.542
 1792SOL    HW1 6263   0.420   2.824   5.596
 1792SOL    HW2 6264   0.385   2.728   5.485
 1793SOL     OW 6265   1.531   2.133   3.850
 1793SOL    HW1 6266   1.464   2.070   3.878
 1793SOL    HW2 6267   1.562   2.173   3.931
 1794SOL     OW 6268   1.294   2.689   3.756
 1794SOL    HW1 6269   1.335   2.603   3.759
 1794SOL    HW2 6270   1.324   2.728   3.674
 1795SOL     OW 6271   1.063   3.198   4.576
 1795SOL    HW1 6272   1.069   3.125   4.515
 1795SOL    HW2 6273   1.128   3.261   4.544
 1796SOL     OW 6274   0.318   2.673   4.672
 1796SOL    HW1 6275   0.412   2.691   4.669
 1796SOL    HW2 6276   0.311   2.583   4.701
 1797SOL     OW 6277   0.331   2.386   4.715
 1797SOL    HW1 6278   0.293   2.300   4.699
 1797SOL    HW2 6279   0.410   2.388   4.659
 1798SOL     OW 6280   1.142   2.243   5.408
 1798SOL    HW1 6281   1.085   2.292   5.468
 1798SOL    HW2 6282   1.223   2.295   5.406
 1799SOL     OW 6283   1.140   2.045   5.218
 1799SOL    HW1 6284   1.140   2.116   5.282
 1799SOL    HW2 6285   1.175   2.085   5.138
 1800SOL     OW 6286   4.492   3.184   3.928
 1800SOL    HW1 6287   4.399   3.200   3.910
 1800SOL    HW2 6288   4.496   3.091   3.950
 1801SOL     OW 6289   0.097   3.640   4.664
 1801SOL    HW1 6290   0.059   3.585   4.596
 1801SOL    HW2 6291   0.185   3.660   4.632
 1802SOL     OW 6292   0.497   3.436   4.630
 1802SOL    HW1 6293   0.565   3.498   4.655
 1802SOL    HW2 6294   0.541   3.372   4.575
 1803SOL     OW 6295   0.977   2.659   4.942
 1803SOL    HW1 6296   1.025   2.636   5.021
 1803SOL    HW2 6297   0.888   2.627   4.957
 1804SOL     OW 6298   0.035   2.424   4.828
 1804SOL    HW1 6299   0.119   2.391   4.797
 1804SOL    HW2 6300   0.021   2.381   4.912
 1805SOL     OW 6301   0.179   2.381   5.437
 1805SOL    HW1 6302   0.259   2.352   5.394
 1805SOL    HW2 6303   0.155   2.462   5.393
 1806SOL     OW 6304   1.341   2.816   5.394
 1806SOL    HW1 6305   1.379   2.904   5.393
 1806SOL    HW2 6306   1.325   2.796   5.301
 1807SOL     OW 6307   0.817   2.432   4.082
 1807SOL    HW1 6308   0.820   2.356   4.023
 1807SOL    HW2 6309   0.743   2.484   4.052
 1808SOL     OW 6310   0.273   3.423   5.465
 1808SOL    HW1 6311   0.217   3.476   5.522
 1808SOL    HW2 6312   0.253   3.333   5.488
 1809SOL     OW 6313   0.688   2.313   4.983
 1809SOL    HW1 6314   0.643   2.236   4.947
 1809SOL    HW2 6315   0.690   2.375   4.911
 1810SOL     OW 6316   0.928   3.542   5.191
 1810SOL    HW1 6317   0.903   3.507   5.106
 1810SOL    HW2 6318   0.923   3.637   5.181
 1811SOL     OW 6319   0.472   2.352   3.910
 1811SOL    HW1 6320   0.531   2.424   3.933
 1811SOL    HW2 6321   0.388   2.395   3.894
 1812SOL     OW 6322   0.162   3.003   5.186
 1812SOL    HW1 6323   0.146   2.957   5.268
 1812SOL    HW2 6324   0.169   2.933   5.121
 1813SOL     OW 6325   1.323   2.911   4.957
 1813SOL    HW1 6326   1.357   2.848   4.893
 1813SOL    HW2 6327   1.255   2.959   4.909
 1814SOL     OW 6328   1.311   2.716   4.031
 1814SOL    HW1 6329   1.233   2.688   4.080
 1814SOL    HW2 6330   1.287   2.704   3.939
 1815SOL     OW 6331   1.773   3.613   4.875
 1815SOL    HW1 6332   1.833   3.638   4.805
 1815SOL    HW2 6333   1.748   3.523   4.854
 1816SOL     OW 6334   1.241   3.596   4.839
 1816SOL    HW1 6335   1.323   3.614   4.792
 1816SOL    HW2 6336   1.245   3.502   4.857
 1817SOL     OW 6337   0.067   3.047   4.773
 1817SOL    HW1 6338   0.067   3.079   4.863
 1817SOL    HW2 6339   0.021   3.115   4.724
 1818SOL     OW 6340   0.679   3.527   5.453
 1818SOL    HW1 6341   0.624   3.605   5.446
 1818SOL    HW2 6342   0.743   3.537   5.382
 1819SOL     OW 6343   1.692   1.997   4.215
 1819SOL    HW1 6344   1.758   1.962   4.155
 1819SOL    HW2 6345   1.666   1.923   4.268
 1820SOL     OW 6346   1.391   3.429   4.208
 1820SOL    HW1 6347   1.451   3.462   4.141
 1820SOL    HW2 6348   1.342   3.507   4.237
 1821SOL     OW 6349   0.119   3.669   5.571
 1821SOL    HW1 6350   0.079   3.596   5.619
 1821SOL    HW2 6351   0.182   3.706   5.633
 1822SOL     OW 6352   1.287   2.784   4.392
 1822SOL    HW1 6353   1.368   2.733   4.387
 1822SOL    HW2 6354   1.307   2.865   4.345
 1823SOL     OW 6355   0.815   3.136   5.154
 1823SOL    HW1 6356   0.788   3.174   5.238
 1823SOL    HW2 6357   0.744   3.157   5.094
 1824SOL     OW 6358   0.673   3.481   3.879
 1824SOL    HW1 6359   0.682   3.492   3.785
 1824SOL    HW2 6360   0.618   3.403   3.888
 1825SOL     OW 6361   1.629   3.591   5.117
 1825SOL    HW1 6362   1.678   3.599   5.035
 1825SOL    HW2 6363   1.615   3.681   5.145
 1826SOL     OW 6364   0.265   2.182   4.443
 1826SOL    HW1 6365   0.182   2.221   4.415
 1826SOL    HW2 6366   0.255   2.169   4.537
 1827SOL     OW 6367   1.207   3.468   3.755
 1827SOL    HW1 6368   1.198   3.377   3.783
 1827SOL    HW2 6369   1.142   3.480   3.686
 1828SOL     OW 6370   0.823   2.871   5.094
 1828SOL    HW1 6371   0.871   2.866   5.011
 1828SOL    HW2 6372   0.823   2.964   5.116
 1829SOL     OW 6373   0.916   2.773   4.014
 1829SOL    HW1 6374   0.977   2.805   3.947
 1829SOL    HW2 6375   0.963   2.702   4.058
 1830SOL     OW 6376   1.492   3.487   3.767
 1830SOL    HW1 6377   1.398   3.481   3.754
 1830SOL    HW2 6378   1.528   3.493   3.678
 1831SOL     OW 6379   0.373   3.169   5.215
 1831SOL    HW1 6380   0.355   3.248   5.163
 1831SOL    HW2 6381   0.298   3.112   5.198
 1832SOL     OW 6382   1.593   3.133   5.055
 1832SOL    HW1 6383   1.678   3.151   5.096
 1832SOL    HW2 6384   1.543   3.214   5.066
 1833SOL     OW 6385   1.050   2.968   4.428
 1833SOL    HW1 6386   0.980   2.919   4.471
 1833SOL    HW2 6387   1.110   2.901   4.395
 1834SOL     OW 6388   1.017   2.100   4.689
 1834SOL    HW1 6389   1.014   2.052   4.606
 1834SOL    HW2 6390   1.011   2.033   4.757
 1835SOL     OW 6391   0.604   3.352   4.206
 1835SOL    HW1 6392   0.645   3.302   4.135
 1835SOL    HW2 6393   0.530   3.395   4.165
 1836SOL     OW 6394   0.252   3.206   4.001
 1836SOL    HW1 6395   0.157   3.206   3.986
 1836SOL    HW2 6396   0.262   3.238   4.090
 1837SOL     OW 6397   0.116   2.869   5.419
 1837SOL    HW1 6398   0.052   2.911   5.476
 1837SOL    HW2 6399   0.194   2.859   5.473
 1838SOL     OW 6400   0.670   2.063   5.224
 1838SOL    HW1 6401   0.752   2.040   5.180
 1838SOL    HW2 6402   0.697   2.091   5.312
 1839SOL     OW 6403   0.072   2.187   3.756
 1839SOL    HW1 6404   4.477   2.198   3.761
 1839SOL    HW2 6405   0.104   2.269   3.718
 1840SOL     OW 6406   0.086   2.039   4.029
 1840SOL    HW1 6407   0.079   2.111   3.966
 1840SOL    HW2 6408   0.161   1.988   4.000
 1841SOL     OW 6409   1.179   3.202   3.841
 1841SOL    HW1 6410   1.088   3.173   3.843
 1841SOL    HW2 6411   1.207   3.202   3.932
 1842SOL     OW 6412   0.621   2.696   5.154
 1842SOL    HW1 6413   0.679   2.771   5.140
 1842SOL    HW2 6414   0.679   2.621   5.162
 1843SOL     OW 6415   1.483   3.639   4.701
 1843SOL    HW1 6416   1.507   3.698   4.630
 1843SOL    HW2 6417   1.565   3.623   4.747
 1844SOL     OW 6418   0.710   2.422   5.432
 1844SOL    HW1 6419   0.750   2.488   5.489
 1844SOL    HW2 6420   0.746   2.338   5.464
 1845SOL     OW 6421   1.467   3.065   5.355
 1845SOL    HW1 6422   1.455   3.087   5.448
 1845SOL    HW2 6423   1.559   3.084   5.338
 1846SOL     OW 6424   0.381   3.605   5.288
 1846SOL    HW1 6425   0.296   3.645   5.272
 1846SOL    HW2 6426   0.360   3.525   5.336
 1847SOL     OW 6427   1.218   2.182   4.182
 1847SOL    HW1 6428   1.281   2.110   4.175
 1847SOL    HW2 6429   1.244   2.229   4.261
 1848SOL     OW 6430   0.591   2.600   4.392
 1848SOL    HW1 6431   0.628   2.687   4.377
 1848SOL    HW2 6432   0.522   2.592   4.326
 1849SOL     OW 6433   1.788   2.213   5.399
 1849SOL    HW1 6434   1.803   2.214   5.304
 1849SOL    HW2 6435   1.711   2.159   5.410
 1850SOL     OW 6436   0.864   3.230   3.757
 1850SOL    HW1 6437   0.824   3.255   3.840
 1850SOL    HW2 6438   0.880   3.312   3.712
 1851SOL     OW 6439   0.660   3.654   4.670
 1851SOL    HW1 6440   0.640   3.744   4.646
 1851SOL    HW2 6441   0.756   3.648   4.661
 1852SOL     OW 6442   0.868   2.829   4.579
 1852SOL    HW1 6443   0.918   2.758   4.619
 1852SOL    HW2 6444   0.833   2.878   4.653
 1853SOL     OW 6445   1.080   2.851   3.813
 1853SOL    HW1 6446   1.057   2.901   3.735
 1853SOL    HW2 6447   1.155   2.797   3.787
 1854SOL     OW 6448   1.853   3.408   4.573
 1854SOL    HW1 6449   1.782   3.411   4.509
 1854SOL    HW2 6450   1.812   3.369   4.651
 1855SOL     OW 6451   0.230   3.168   5.582
 1855SOL    HW1 6452   0.156   3.110   5.559
 1855SOL    HW2 6453   0.224   3.178   5.677
 1856SOL     OW 6454   0.105   3.097   4.392
 1856SOL    HW1 6455   0.117   3.051   4.475
 1856SOL    HW2 6456   0.165   3.054   4.331
 1857SOL     OW 6457   0.681   3.265   5.351
 1857SOL    HW1 6458   0.601   3.221   5.380
 1857SOL    HW2 6459   0.675   3.352   5.389
 1858SOL     OW 6460   0.435   2.295   4.250
 1858SOL    HW1 6461   0.459   2.222   4.193
 1858SOL    HW2 6462   0.384   2.256   4.320
 1859SOL     OW 6463   1.705   3.357   4.818
 1859SOL    HW1 6464   1.621   3.333   4.780
 1859SOL    HW2 6465   1.716   3.300   4.894
 1860SOL     OW 6466   0.302   2.350   4.978
 1860SOL    HW1 6467   0.376   2.309   5.022
 1860SOL    HW2 6468   0.333   2.366   4.888
 1861SOL     OW 6469   0.827   3.440   4.402
 1861SOL    HW1 6470   0.814   3.491   4.322
 1861SOL    HW2 6471   0.750   3.383   4.406
 1862SOL     OW 6472   1.009   1.881   4.868
 1862SOL    HW1 6473   0.953   1.814   4.828
 1862SOL    HW2 6474   1.096   1.841   4.870
 1863SOL     OW 6475   0.772   3.194   4.036
 1863SOL    HW1 6476   0.740   3.104   4.043
 1863SOL    HW2 6477   0.854   3.195   4.087
 1864SOL     OW 6478   0.621   3.419   5.009
 1864SOL    HW1 6479   0.623   3.500   5.059
 1864SOL    HW2 6480   0.708   3.411   4.971
 1865SOL     OW 6481   1.352   1.914   3.889
 1865SOL    HW1 6482   1.378   1.853   3.820
 1865SOL    HW2 6483   1.265   1.884   3.916
 1866SOL     OW 6484   1.287   2.319   4.411
 1866SOL    HW1 6485   1.231   2.397   4.419
 1866SOL    HW2 6486   1.292   2.285   4.500
 1867SOL     OW 6487   1.481   2.092   4.562
 1867SOL    HW1 6488   1.529   2.085   4.644
 1867SOL    HW2 6489   1.541   2.139   4.503
 1868SOL     OW 6490   0.041   2.914   4.012
 1868SOL    HW1 6491   0.135   2.898   4.002
 1868SOL    HW2 6492   0.020   2.880   4.099
 1869SOL     OW 6493   0.884   3.514   4.067
 1869SOL    HW1 6494   0.812   3.496   4.007
 1869SOL    HW2 6495   0.854   3.589   4.118
 1870SOL     OW 6496   0.249   2.488   5.706
 1870SOL    HW1 6497   0.174   2.470   5.763
 1870SOL    HW2 6498   0.215   2.473   5.617
 1871SOL     OW 6499   0.213   2.137   6.577
 1871SOL    HW1 6500   0.249   2.111   6.662
 1871SOL    HW2 6501   0.137   2.080   6.565
 1872SOL     OW 6502   0.008   2.252   6.226
 1872SOL    HW1 6503   4.428   2.284   6.266
 1872SOL    HW2 6504   4.482   2.172   6.180
 1873SOL     OW 6505   0.567   3.148   6.761
 1873SOL    HW1 6506   0.480   3.153   6.722
 1873SOL    HW2 6507   0.583   3.235   6.796
 1874SOL     OW 6508   1.564   3.376   6.292
 1874SOL    HW1 6509   1.522   3.350   6.374
 1874SOL    HW2 6510   1.493   3.374   6.228
 1875SOL     OW 6511   1.135   2.569   6.292
 1875SOL    HW1 6512   1.184   2.651   6.282
 1875SOL    HW2 6513   1.085   2.580   6.373
 1876SOL     OW 6514   1.815   2.440   5.818
 1876SOL    HW1 6515   1.776   2.456   5.732
 1876SOL    HW2 6516   1.746   2.401   5.869
 1877SOL     OW 6517   0.756   3.005   6.625
 1877SOL    HW1 6518   0.687   3.039   6.682
 1877SOL    HW2 6519   0.791   3.083   6.581
 1878SOL     OW 6520   0.865   2.637   7.407
 1878SOL    HW1 6521   0.852   2.708   7.469
 1878SOL    HW2 6522   0.889   2.681   7.325
 1879SOL     OW 6523   0.686   2.867   6.234
 1879SOL    HW1 6524   0.750   2.854   6.304
 1879SOL    HW2 6525   0.616   2.917   6.275
 1880SOL     OW 6526   0.710   3.012   7.398
 1880SOL    HW1 6527   0.757   3.091   7.424
 1880SOL    HW2 6528   0.627   3.044   7.362
 1881SOL     OW 6529   0.336   3.283   6.656
 1881SOL    HW1 6530   0.254   3.264   6.610
 1881SOL    HW2 6531   0.386   3.338   6.595
 1882SOL     OW 6532   1.460   3.362   6.940
 1882SOL    HW1 6533   1.510   3.443   6.949
 1882SOL    HW2 6534   1.400   3.362   7.014
 1883SOL     OW 6535   0.444   2.266   7.078
 1883SOL    HW1 6536   0.524   2.214   7.083
 1883SOL    HW2 6537   0.373   2.203   7.084
 1884SOL     OW 6538   0.246   3.553   6.064
 1884SOL    HW1 6539   0.231   3.638   6.105
 1884SOL    HW2 6540   0.312   3.571   5.997
 1885SOL     OW 6541   1.136   3.203   7.278
 1885SOL    HW1 6542   1.176   3.199   7.365
 1885SOL    HW2 6543   1.084   3.124   7.272
 1886SOL     OW 6544   0.248   3.288   6.114
 1886SOL    HW1 6545   0.240   3.384   6.117
 1886SOL    HW2 6546   0.184   3.257   6.177
 1887SOL     OW 6547   0.248   2.944   6.470
 1887SOL    HW1 6548   0.264   2.854   6.499
 1887SOL    HW2 6549   0.188   2.980   6.535
 1888SOL     OW 6550   0.614   3.653   7.018
 1888SOL    HW1 6551   0.531   3.634   7.061
 1888SOL    HW2 6552   0.635   3.743   7.042
 1889SOL     OW 6553   0.581   2.847   5.723
 1889SOL    HW1 6554   0.628   2.891   5.652
 1889SOL    HW2 6555   0.625   2.876   5.803
 1890SOL     OW 6556   1.589   1.987   7.054
 1890SOL    HW1 6557   1.616   2.065   7.006
 1890SOL    HW2 6558   1.577   2.017   7.144
 1891SOL     OW 6559   0.137   2.507   6.160
 1891SOL    HW1 6560   0.088   2.427   6.177
 1891SOL    HW2 6561   0.107   2.568   6.227
 1892SOL     OW 6562   1.842   3.621   5.917
 1892SOL    HW1 6563   1.902   3.592   5.986
 1892SOL    HW2 6564   1.866   3.712   5.900
 1893SOL     OW 6565   0.033   3.464   5.725
 1893SOL    HW1 6566   0.021   3.369   5.724
 1893SOL    HW2 6567   0.019   3.488   5.817
 1894SOL     OW 6568   0.111   2.624   7.170
 1894SOL    HW1 6569   0.203   2.623   7.144
 1894SOL    HW2 6570   0.092   2.716   7.186
 1895SOL     OW 6571   0.614   3.246   6.322
 1895SOL    HW1 6572   0.566   3.163   6.331
 1895SOL    HW2 6573   0.597   3.273   6.232
 1896SOL     OW 6574   1.289   3.100   7.009
 1896SOL    HW1 6575   1.322   3.033   6.950
 1896SOL    HW2 6576   1.346   3.094   7.086
 1897SOL     OW 6577   0.813   1.860   6.094
 1897SOL    HW1 6578   0.851   1.946   6.076
 1897SOL    HW2 6579   0.719   1.877   6.104
 1898SOL     OW 6580   0.180   2.803   6.865
 1898SOL    HW1 6581   0.272   2.786   6.844
 1898SOL    HW2 6582   0.133   2.786   6.784
 1899SOL     OW 6583   1.532   2.880   5.737
 1899SOL    HW1 6584   1.466   2.813   5.754
 1899SOL    HW2 6585   1.580   2.887   5.820
 1900SOL     OW 6586   1.186   3.668   7.208
 1900SOL    HW1 6587   1.197   3.726   7.132
 1900SOL    HW2 6588   1.201   3.580   7.173
 1901SOL     OW 6589   0.330   2.118   7.383
 1901SOL    HW1 6590   0.380   2.191   7.420
 1901SOL    HW2 6591   0.244   2.126   7.423
 1902SOL     OW 6592   1.466   3.282   6.539
 1902SOL    HW1 6593   1.399   3.301   6.605
 1902SOL    HW2 6594   1.454   3.189   6.519
 1903SOL     OW 6595   1.660   3.600   6.163
 1903SOL    HW1 6596   1.636   3.569   6.075
 1903SOL    HW2 6597   1.639   3.527   6.221
 1904SOL     OW 6598   0.598   2.583   5.852
 1904SOL    HW1 6599   0.601   2.664   5.801
 1904SOL    HW2 6600   0.532   2.599   5.919
 1905SOL     OW 6601   1.284   2.218   6.553
 1905SOL    HW1 6602   1.196   2.180   6.553
 1905SOL    HW2 6603   1.334   2.162   6.612
 1906SOL     OW 6604   1.580   3.532   5.896
 1906SOL    HW1 6605   1.669   3.566   5.889
 1906SOL    HW2 6606   1.553   3.516   5.805
 1907SOL     OW 6607   0.792   2.479   7.037
 1907SOL    HW1 6608   0.767   2.455   7.126
 1907SOL    HW2 6609   0.750   2.413   6.982
 1908SOL     OW 6610   1.393   2.336   7.264
 1908SOL    HW1 6611   1.396   2.380   7.349
 1908SOL    HW2 6612   1.456   2.265   7.272
 1909SOL     OW 6613   0.956   2.750   7.168
 1909SOL    HW1 6614   1.009   2.679   7.133
 1909SOL    HW2 6615   0.908   2.784   7.092
 1910SOL     OW 6616   0.988   2.279   6.823
 1910SOL    HW1 6617   0.902   2.297   6.862
 1910SOL    HW2 6618   0.969   2.229   6.744
 1911SOL     OW 6619   1.047   2.568   6.011
 1911SOL    HW1 6620   1.067   2.552   6.103
 1911SOL    HW2 6621   0.969   2.515   5.994
 1912SOL     OW 6622   0.097   2.689   6.370
 1912SOL    HW1 6623   0.183   2.672   6.407
 1912SOL    HW2 6624   0.045   2.719   6.444
 1913SOL     OW 6625   0.125   3.714   7.162
 1913SOL    HW1 6626   0.117   3.693   7.255
 1913SOL    HW2 6627   0.044   3.681   7.123
 1914SOL     OW 6628   0.896   2.208   5.782
 1914SOL    HW1 6629   0.930   2.269   5.718
 1914SOL    HW2 6630   0.899   2.123   5.738
 1915SOL     OW 6631   1.697   2.448   7.414
 1915SOL    HW1 6632   1.661   2.520   7.363
 1915SOL    HW2 6633   1.724   2.383   7.349
 1916SOL     OW 6634   0.552   2.045   6.479
 1916SOL    HW1 6635   0.554   2.074   6.570
 1916SOL    HW2 6636   0.552   2.126   6.428
 1917SOL     OW 6637   1.004   3.306   6.061
 1917SOL    HW1 6638   0.968   3.378   6.010
 1917SOL    HW2 6639   0.987   3.330   6.152
 1918SOL     OW 6640   0.355   3.672   6.444
 1918SOL    HW1 6641   0.397   3.586   6.454
 1918SOL    HW2 6642   0.425   3.735   6.459
 1919SOL     OW 6643   1.794   2.951   6.496
 1919SOL    HW1 6644   1.744   2.934   6.416
 1919SOL    HW2 6645   1.729   2.945   6.566
 1920SOL     OW 6646   1.228   3.401   7.099
 1920SOL    HW1 6647   1.214   3.328   7.160
 1920SOL    HW2 6648   1.165   3.386   7.029
 1921SOL     OW 6649   0.316   2.816   5.838
 1921SOL    HW1 6650   0.400   2.839   5.799
 1921SOL    HW2 6651   0.300   2.726   5.811
 1922SOL     OW 6652   0.467   3.124   7.321
 1922SOL    HW1 6653   0.440   3.130   7.230
 1922SOL    HW2 6654   0.386   3.129   7.371
 1923SOL     OW 6655   1.121   3.640   5.816
 1923SOL    HW1 6656   1.049   3.597   5.863
 1923SOL    HW2 6657   1.144   3.579   5.747
 1924SOL     OW 6658   0.195   2.139   7.072
 1924SOL    HW1 6659   0.136   2.214   7.078
 1924SOL    HW2 6660   0.184   2.092   7.155
 1925SOL     OW 6661   1.647   3.257   5.677
 1925SOL    HW1 6662   1.595   3.336   5.661
 1925SOL    HW2 6663   1.587   3.185   5.656
 1926SOL     OW 6664   0.469   3.606   5.899
 1926SOL    HW1 6665   0.511   3.659   5.968
 1926SOL    HW2 6666   0.542   3.571   5.848
 1927SOL     OW 6667   0.261   3.656   6.817
 1927SOL    HW1 6668   0.305   3.581   6.857
 1927SOL    HW2 6669   0.226   3.622   6.735
 1928SOL     OW 6670   0.938   3.561   6.485
 1928SOL    HW1 6671   1.015   3.509   6.507
 1928SOL    HW2 6672   0.894   3.511   6.416
 1929SOL     OW 6673   0.394   2.556   6.059
 1929SOL    HW1 6674   0.418   2.464   6.070
 1929SOL    HW2 6675   0.302   2.561   6.085
 1930SOL     OW 6676   1.534   2.086   7.312
 1930SOL    HW1 6677   1.542   2.106   7.405
 1930SOL    HW2 6678   1.464   2.020   7.308
 1931SOL     OW 6679   0.638   1.988   5.687
 1931SOL    HW1 6680   0.701   1.919   5.707
 1931SOL    HW2 6681   0.587   1.954   5.613
 1932SOL     OW 6682   0.767   2.139   7.340
 1932SOL    HW1 6683   0.842   2.080   7.342
 1932SOL    HW2 6684   0.719   2.118   7.420
 1933SOL     OW 6685   0.877   3.384   6.779
 1933SOL    HW1 6686   0.861   3.348   6.692
 1933SOL    HW2 6687   0.946   3.329   6.816
 1934SOL     OW 6688   1.338   2.457   7.022
 1934SOL    HW1 6689   1.372   2.422   7.105
 1934SOL    HW2 6690   1.378   2.543   7.015
 1935SOL     OW 6691   0.814   3.258   6.525
 1935SOL    HW1 6692   0.898   3.247   6.480
 1935SOL    HW2 6693   0.749   3.258   6.455
 1936SOL     OW 6694   0.928   2.372   6.489
 1936SOL    HW1 6695   0.904   2.363   6.397
 1936SOL    HW2 6696   0.962   2.286   6.514
 1937SOL     OW 6697   0.551   1.923   6.088
 1937SOL    HW1 6698   0.470   1.922   6.139
 1937SOL    HW2 6699   0.544   2.002   6.034
 1938SOL     OW 6700   1.425   3.090   5.619
 1938SOL    HW1 6701   1.459   3.010   5.660
 1938SOL    HW2 6702   1.340   3.104   5.660
 1939SOL     OW 6703   0.294   1.908   5.764
 1939SOL    HW1 6704   0.356   1.976   5.737
 1939SOL    HW2 6705   0.348   1.843   5.808
 1940SOL     OW 6706   0.927   2.106   6.048
 1940SOL    HW1 6707   0.906   2.149   5.965
 1940SOL    HW2 6708   1.023   2.108   6.052
 1941SOL     OW 6709   1.079   2.543   7.045
 1941SOL    HW1 6710   1.012   2.475   7.050
 1941SOL    HW2 6711   1.162   2.496   7.040
 1942SOL     OW 6712   1.225   3.430   6.379
 1942SOL    HW1 6713   1.241   3.497   6.312
 1942SOL    HW2 6714   1.294   3.444   6.444
 1943SOL     OW 6715   0.466   3.011   6.322
 1943SOL    HW1 6716   0.396   2.992   6.383
 1943SOL    HW2 6717   0.428   2.995   6.235
 1944SOL     OW 6718   1.269   3.656   6.193
 1944SOL    HW1 6719   1.315   3.717   6.135
 1944SOL    HW2 6720   1.204   3.710   6.238
 1945SOL     OW 6721   1.020   2.411   5.604
 1945SOL    HW1 6722   0.968   2.487   5.577
 1945SOL    HW2 6723   1.087   2.448   5.661
 1946SOL     OW 6724   0.083   2.391   6.995
 1946SOL    HW1 6725   0.148   2.389   6.925
 1946SOL    HW2 6726   0.068   2.484   7.012
 1947SOL     OW 6727   0.561   2.089   6.751
 1947SOL    HW1 6728   0.603   2.011   6.787
 1947SOL    HW2 6729   0.469   2.081   6.778
 1948SOL     OW 6730   0.867   2.325   6.226
 1948SOL    HW1 6731   0.820   2.378   6.162
 1948SOL    HW2 6732   0.885   2.242   6.180
 1949SOL     OW 6733   1.019   1.911   6.335
 1949SOL    HW1 6734   0.955   1.905   6.264
 1949SOL    HW2 6735   0.997   1.838   6.393
 1950SOL     OW 6736   1.431   3.022   6.455
 1950SOL    HW1 6737   1.368   2.950   6.456
 1950SOL    HW2 6738   1.437   3.049   6.363
 1951SOL     OW 6739   1.451   2.463   6.606
 1951SOL    HW1 6740   1.402   2.382   6.588
 1951SOL    HW2 6741   1.543   2.439   6.594
 1952SOL     OW 6742   0.492   3.279   5.746
 1952SOL    HW1 6743   0.415   3.249   5.795
 1952SOL    HW2 6744   0.474   3.252   5.656
 1953SOL     OW 6745   1.386   2.442   5.669
 1953SOL    HW1 6746   1.363   2.413   5.758
 1953SOL    HW2 6747   1.479   2.424   5.662
 1954SOL     OW 6748   0.525   2.122   5.903
 1954SOL    HW1 6749   0.571   2.076   5.832
 1954SOL    HW2 6750   0.506   2.208   5.867
 1955SOL     OW 6751   1.754   3.100   7.161
 1955SOL    HW1 6752   1.842   3.063   7.155
 1955SOL    HW2 6753   1.767   3.190   7.190
 1956SOL     OW 6754   1.059   3.214   6.919
 1956SOL    HW1 6755   0.984   3.184   6.970
 1956SOL    HW2 6756   1.135   3.174   6.961
 1957SOL     OW 6757   1.607   3.488   7.239
 1957SOL    HW1 6758   1.602   3.522   7.150
 1957SOL    HW2 6759   1.690   3.440   7.242
 1958SOL     OW 6760   1.127   3.064   6.691
 1958SOL    HW1 6761   1.070   3.102   6.758
 1958SOL    HW2 6762   1.094   3.098   6.608
 1959SOL     OW 6763   1.607   2.959   6.680
 1959SOL    HW1 6764   1.606   3.027   6.748
 1959SOL    HW2 6765   1.530   2.978   6.627
 1960SOL     OW 6766   0.917   1.960   6.983
 1960SOL    HW1 6767   0.940   1.941   6.892
 1960SOL    HW2 6768   0.996   1.999   7.020
 1961SOL     OW 6769   0.984   2.977   7.308
 1961SOL    HW1 6770   0.892   2.992   7.330
 1961SOL    HW2 6771   0.983   2.899   7.253
 1962SOL     OW 6772   0.707   2.924   5.958
 1962SOL    HW1 6773   0.695   2.907   6.052
 1962SOL    HW2 6774   0.783   2.870   5.934
 1963SOL     OW 6775   0.430   2.687   6.827
 1963SOL    HW1 6776   0.500   2.699   6.892
 1963SOL    HW2 6777   0.372   2.622   6.866
 1964SOL     OW 6778   1.257   2.245   6.875
 1964SOL    HW1 6779   1.293   2.325   6.915
 1964SOL    HW2 6780   1.170   2.270   6.845
 1965SOL     OW 6781   0.062   3.438   6.927
 1965SOL    HW1 6782   0.034   3.528   6.907
 1965SOL    HW2 6783   0.157   3.443   6.934
 1966SOL     OW 6784   0.348   2.970   6.079
 1966SOL    HW1 6785   0.357   3.044   6.018
 1966SOL    HW2 6786   0.348   2.893   6.022
 1967SOL     OW 6787   0.561   2.395   6.441
 1967SOL    HW1 6788   0.575   2.455   6.368
 1967SOL    HW2 6789   0.621   2.426   6.509
 1968SOL     OW 6790   1.245   3.216   5.965
 1968SOL    HW1 6791   1.304   3.281   6.003
 1968SOL    HW2 6792   1.160   3.233   6.007
 1969SOL     OW 6793   1.280   3.319   6.733
 1969SOL    HW1 6794   1.336   3.322   6.811
 1969SOL    HW2 6795   1.223   3.244   6.747
 1970SOL     OW 6796   0.347   3.394   6.901
 1970SOL    HW1 6797   0.333   3.346   6.819
 1970SOL    HW2 6798   0.442   3.403   6.908
 1971SOL     OW 6799   0.478   2.620   7.251
 1971SOL    HW1 6800   0.508   2.659   7.168
 1971SOL    HW2 6801   0.521   2.535   7.254
 1972SOL     OW 6802   1.597   2.645   7.264
 1972SOL    HW1 6803   1.512   2.687   7.257
 1972SOL    HW2 6804   1.651   2.688   7.197
 1973SOL     OW 6805   0.996   1.984   7.341
 1973SOL    HW1 6806   1.051   2.057   7.313
 1973SOL    HW2 6807   1.044   1.906   7.315
 1974SOL     OW 6808   0.498   1.905   7.333
 1974SOL    HW1 6809   0.456   1.848   7.267
 1974SOL    HW2 6810   0.438   1.979   7.341
 1975SOL     OW 6811   0.590   2.736   6.610
 1975SOL    HW1 6812   0.618   2.827   6.613
 1975SOL    HW2 6813   0.533   2.726   6.687
 1976SOL     OW 6814   1.360   2.721   6.614
 1976SOL    HW1 6815   1.273   2.709   6.575
 1976SOL    HW2 6816   1.396   2.632   6.618
 1977SOL     OW 6817   0.302   2.054   6.828
 1977SOL    HW1 6818   0.263   2.088   6.908
 1977SOL    HW2 6819   0.285   1.959   6.831
 1978SOL     OW 6820   0.041   3.174   6.871
 1978SOL    HW1 6821   0.076   3.128   6.947
 1978SOL    HW2 6822   0.046   3.267   6.896
 1979SOL     OW 6823   0.725   2.493   6.644
 1979SOL    HW1 6824   0.800   2.475   6.587
 1979SOL    HW2 6825   0.698   2.582   6.622
 1980SOL     OW 6826   1.734   2.823   7.437
 1980SOL    HW1 6827   1.688   2.761   7.380
 1980SOL    HW2 6828   1.675   2.835   7.511
 1981SOL     OW 6829   0.310   1.932   6.205
 1981SOL    HW1 6830   0.286   2.021   6.232
 1981SOL    HW2 6831   0.307   1.881   6.285
 1982SOL     OW 6832   1.027   2.621   6.547
 1982SOL    HW1 6833   1.025   2.639   6.641
 1982SOL    HW2 6834   1.001   2.530   6.539
 1983SOL     OW 6835   0.983   3.429   7.302
 1983SOL    HW1 6836   0.967   3.472   7.218
 1983SOL    HW2 6837   1.025   3.346   7.279
 1984SOL     OW 6838   1.855   3.369   7.192
 1984SOL    HW1 6839   1.873   3.395   7.101
 1984SOL    HW2 6840   1.936   3.388   7.238
 1985SOL     OW 6841   0.347   2.795   7.404
 1985SOL    HW1 6842   0.420   2.824   7.459
 1985SOL    HW2 6843   0.385   2.728   7.347
 1986SOL     OW 6844   1.300   2.696   5.632
 1986SOL    HW1 6845   1.332   2.606   5.627
 1986SOL    HW2 6846   1.320   2.733   5.545
 1987SOL     OW 6847   1.066   3.199   6.440
 1987SOL    HW1 6848   1.069   3.126   6.378
 1987SOL    HW2 6849   1.126   3.264   6.405
 1988SOL     OW 6850   0.318   2.673   6.534
 1988SOL    HW1 6851   0.412   2.690   6.531
 1988SOL    HW2 6852   0.311   2.582   6.563
 1989SOL     OW 6853   0.331   2.386   6.576
 1989SOL    HW1 6854   0.293   2.300   6.561
 1989SOL    HW2 6855   0.410   2.388   6.521
 1990SOL     OW 6856   1.134   2.238   7.269
 1990SOL    HW1 6857   1.088   2.293   7.331
 1990SOL    HW2 6858   1.222   2.276   7.263
 1991SOL     OW 6859   1.159   2.064   7.058
 1991SOL    HW1 6860   1.149   2.126   7.131
 1991SOL    HW2 6861   1.197   2.116   6.987
 1992SOL     OW 6862   4.491   3.184   5.790
 1992SOL    HW1 6863   4.399   3.200   5.772
 1992SOL    HW2 6864   4.496   3.091   5.812
 1993SOL     OW 6865   0.097   3.640   6.526
 1993SOL    HW1 6866   0.058   3.585   6.458
 1993SOL    HW2 6867   0.185   3.660   6.494
 1994SOL     OW 6868   0.497   3.436   6.493
 1994SOL    HW1 6869   0.565   3.498   6.517
 1994SOL    HW2 6870   0.541   3.372   6.436
 1995SOL     OW 6871   0.984   2.656   6.813
 1995SOL    HW1 6872   1.040   2.631   6.887
 1995SOL    HW2 6873   0.899   2.618   6.833
 1996SOL     OW 6874   0.035   2.424   6.690
 1996SOL    HW1 6875   0.119   2.391   6.659
 1996SOL    HW2 6876   0.021   2.381   6.774
 1997SOL     OW 6877   0.179   2.381   7.300
 1997SOL    HW1 6878   0.259   2.352   7.257
 1997SOL    HW2 6879   0.156   2.462   7.255
 1998SOL     OW 6880   1.374   2.804   7.246
 1998SOL    HW1 6881   1.396   2.897   7.244
 1998SOL    HW2 6882   1.370   2.777   7.154
 1999SOL     OW 6883   0.817   2.431   5.943
 1999SOL    HW1 6884   0.817   2.355   5.885
 1999SOL    HW2 6885   0.743   2.484   5.914
 2000SOL     OW 6886   0.273   3.423   7.327
 2000SOL    HW1 6887   0.217   3.476   7.384
 2000SOL    HW2 6888   0.253   3.333   7.350
 2001SOL     OW 6889   0.691   2.316   6.848
 2001SOL    HW1 6890   0.645   2.239   6.814
 2001SOL    HW2 6891   0.692   2.377   6.775
 2002SOL     OW 6892   0.929   3.541   7.053
 2002SOL    HW1 6893   0.902   3.507   6.967
 2002SOL    HW2 6894   0.924   3.636   7.043
 2003SOL     OW 6895   0.473   2.352   5.772
 2003SOL    HW1 6896   0.531   2.424   5.795
 2003SOL    HW2 6897   0.389   2.394   5.756
 2004SOL     OW 6898   0.162   3.003   7.048
 2004SOL    HW1 6899   0.146   2.957   7.130
 2004SOL    HW2 6900   0.170   2.933   6.983
 2005SOL     OW 6901   1.325   2.908   6.809
 2005SOL    HW1 6902   1.349   2.845   6.741
 2005SOL    HW2 6903   1.254   2.959   6.771
 2006SOL     OW 6904   1.255   2.728   5.907
 2006SOL    HW1 6905   1.185   2.670   5.938
 2006SOL    HW2 6906   1.254   2.718   5.812
 2007SOL     OW 6907   1.773   3.608   6.737
 2007SOL    HW1 6908   1.832   3.633   6.666
 2007SOL    HW2 6909   1.747   3.519   6.717
 2008SOL     OW 6910   1.241   3.595   6.700
 2008SOL    HW1 6911   1.323   3.616   6.655
 2008SOL    HW2 6912   1.246   3.502   6.718
 2009SOL     OW 6913   0.067   3.047   6.635
 2009SOL    HW1 6914   0.067   3.079   6.725
 2009SOL    HW2 6915   0.021   3.115   6.585
 2010SOL     OW 6916   0.679   3.528   7.315
 2010SOL    HW1 6917   0.623   3.605   7.309
 2010SOL    HW2 6918   0.742   3.538   7.243
 2011SOL     OW 6919   1.390   3.428   6.072
 2011SOL    HW1 6920   1.450   3.460   6.004
 2011SOL    HW2 6921   1.343   3.506   6.100
 2012SOL     OW 6922   0.119   3.669   7.433
 2012SOL    HW1 6923   0.079   3.596   7.481
 2012SOL    HW2 6924   0.182   3.706   7.495
 2013SOL     OW 6925   1.302   2.787   6.246
 2013SOL    HW1 6926   1.367   2.718   6.234
 2013SOL    HW2 6927   1.300   2.832   6.162
 2014SOL     OW 6928   0.815   3.136   7.016
 2014SOL    HW1 6929   0.788   3.174   7.099
 2014SOL    HW2 6930   0.744   3.157   6.955
 2015SOL     OW 6931   0.672   3.481   5.741
 2015SOL    HW1 6932   0.682   3.492   5.647
 2015SOL    HW2 6933   0.618   3.403   5.751
 2016SOL     OW 6934   1.628   3.588   6.978
 2016SOL    HW1 6935   1.677   3.595   6.896
 2016SOL    HW2 6936   1.615   3.679   7.005
 2017SOL     OW 6937   1.816   1.988   6.573
 2017SOL    HW1 6938   1.875   1.958   6.505
 2017SOL    HW2 6939   1.743   2.028   6.526
 2018SOL     OW 6940   0.265   2.182   6.305
 2018SOL    HW1 6941   0.182   2.221   6.277
 2018SOL    HW2 6942   0.255   2.169   6.399
 2019SOL     OW 6943   1.207   3.468   5.618
 2019SOL    HW1 6944   1.198   3.377   5.645
 2019SOL    HW2 6945   1.142   3.479   5.548
 2020SOL     OW 6946   0.825   2.869   6.958
 2020SOL    HW1 6947   0.869   2.865   6.873
 2020SOL    HW2 6948   0.825   2.962   6.981
 2021SOL     OW 6949   0.913   2.774   5.875
 2021SOL    HW1 6950   0.975   2.805   5.809
 2021SOL    HW2 6951   0.960   2.706   5.922
 2022SOL     OW 6952   1.494   3.490   5.629
 2022SOL    HW1 6953   1.399   3.480   5.617
 2022SOL    HW2 6954   1.529   3.494   5.540
 2023SOL     OW 6955   0.373   3.169   7.076
 2023SOL    HW1 6956   0.355   3.248   7.025
 2023SOL    HW2 6957   0.298   3.112   7.060
 2024SOL     OW 6958   1.607   3.145   6.871
 2024SOL    HW1 6959   1.672   3.139   6.942
 2024SOL    HW2 6960   1.550   3.217   6.898
 2025SOL     OW 6961   1.054   2.968   6.295
 2025SOL    HW1 6962   0.981   2.922   6.337
 2025SOL    HW2 6963   1.101   2.900   6.248
 2026SOL     OW 6964   1.022   2.102   6.553
 2026SOL    HW1 6965   1.019   2.057   6.469
 2026SOL    HW2 6966   1.015   2.033   6.619
 2027SOL     OW 6967   0.604   3.351   6.069
 2027SOL    HW1 6968   0.645   3.302   5.998
 2027SOL    HW2 6969   0.530   3.395   6.027
 2028SOL     OW 6970   1.721   2.249   6.975
 2028SOL    HW1 6971   1.784   2.320   6.959
 2028SOL    HW2 6972   1.746   2.181   6.913
 2029SOL     OW 6973   0.252   3.206   5.863
 2029SOL    HW1 6974   0.157   3.206   5.848
 2029SOL    HW2 6975   0.262   3.238   5.952
 2030SOL     OW 6976   0.116   2.869   7.280
 2030SOL    HW1 6977   0.052   2.911   7.338
 2030SOL    HW2 6978   0.194   2.859   7.335
 2031SOL     OW 6979   0.674   2.061   7.085
 2031SOL    HW1 6980   0.757   2.039   7.044
 2031SOL    HW2 6981   0.697   2.089   7.173
 2032SOL     OW 6982   0.072   2.187   5.618
 2032SOL    HW1 6983   4.477   2.198   5.623
 2032SOL    HW2 6984   0.104   2.269   5.581
 2033SOL     OW 6985   1.428   2.724   6.990
 2033SOL    HW1 6986   1.378   2.781   6.932
 2033SOL    HW2 6987   1.518   2.733   6.961
 2034SOL     OW 6988   0.086   2.039   5.891
 2034SOL    HW1 6989   0.079   2.111   5.828
 2034SOL    HW2 6990   0.161   1.988   5.862
 2035SOL     OW 6991   1.176   3.203   5.702
 2035SOL    HW1 6992   1.085   3.172   5.705
 2035SOL    HW2 6993   1.205   3.204   5.793
 2036SOL     OW 6994   0.623   2.693   7.016
 2036SOL    HW1 6995   0.679   2.770   7.003
 2036SOL    HW2 6996   0.684   2.620   7.024
 2037SOL     OW 6997   1.483   3.640   6.566
 2037SOL    HW1 6998   1.508   3.694   6.492
 2037SOL    HW2 6999   1.566   3.615   6.607
 2038SOL     OW 7000   0.715   2.425   7.290
 2038SOL    HW1 7001   0.754   2.489   7.349
 2038SOL    HW2 7002   0.747   2.340   7.321
 2039SOL     OW 7003   1.471   3.063   7.218
 2039SOL    HW1 7004   1.458   3.076   7.312
 2039SOL    HW2 7005   1.564   3.077   7.204
 2040SOL     OW 7006   0.381   3.605   7.150
 2040SOL    HW1 7007   0.296   3.645   7.133
 2040SOL    HW2 7008   0.360   3.525   7.198
 2041SOL     OW 7009   1.664   2.759   6.850
 2041SOL    HW1 7010   1.641   2.681   6.800
 2041SOL    HW2 7011   1.652   2.832   6.790
 2042SOL     OW 7012   0.591   2.600   6.254
 2042SOL    HW1 7013   0.628   2.687   6.239
 2042SOL    HW2 7014   0.522   2.592   6.189
 2043SOL     OW 7015   1.754   2.231   7.241
 2043SOL    HW1 7016   1.750   2.242   7.146
 2043SOL    HW2 7017   1.681   2.172   7.261
 2044SOL     OW 7018   1.751   2.798   7.103
 2044SOL    HW1 7019   1.745   2.892   7.119
 2044SOL    HW2 7020   1.732   2.789   7.009
 2045SOL     OW 7021   0.861   3.230   5.619
 2045SOL    HW1 7022   0.823   3.258   5.702
 2045SOL    HW2 7023   0.881   3.311   5.573
 2046SOL     OW 7024   0.661   3.654   6.532
 2046SOL    HW1 7025   0.639   3.744   6.508
 2046SOL    HW2 7026   0.756   3.648   6.523
 2047SOL     OW 7027   0.868   2.830   6.442
 2047SOL    HW1 7028   0.916   2.757   6.482
 2047SOL    HW2 7029   0.832   2.879   6.516
 2048SOL     OW 7030   1.074   2.847   5.671
 2048SOL    HW1 7031   1.054   2.902   5.595
 2048SOL    HW2 7032   1.155   2.802   5.647
 2049SOL     OW 7033   1.850   3.421   6.433
 2049SOL    HW1 7034   1.785   3.396   6.368
 2049SOL    HW2 7035   1.859   3.344   6.489
 2050SOL     OW 7036   0.230   3.168   7.443
 2050SOL    HW1 7037   0.157   3.110   7.421
 2050SOL    HW2 7038   0.224   3.178   7.538
 2051SOL     OW 7039   0.105   3.098   6.254
 2051SOL    HW1 7040   0.116   3.051   6.336
 2051SOL    HW2 7041   0.165   3.054   6.193
 2052SOL     OW 7042   0.682   3.264   7.214
 2052SOL    HW1 7043   0.602   3.220   7.242
 2052SOL    HW2 7044   0.675   3.352   7.251
 2053SOL     OW 7045   1.780   2.033   6.829
 2053SOL    HW1 7046   1.802   1.944   6.854
 2053SOL    HW2 7047   1.804   2.039   6.737
 2054SOL     OW 7048   0.435   2.295   6.111
 2054SOL    HW1 7049   0.459   2.221   6.056
 2054SOL    HW2 7050   0.384   2.256   6.182
 2055SOL     OW 7051   1.695   3.356   6.692
 2055SOL    HW1 7052   1.620   3.330   6.639
 2055SOL    HW2 7053   1.711   3.282   6.751
 2056SOL     OW 7054   0.301   2.350   6.840
 2056SOL    HW1 7055   0.375   2.309   6.884
 2056SOL    HW2 7056   0.333   2.365   6.750
 2057SOL     OW 7057   0.827   3.440   6.264
 2057SOL    HW1 7058   0.816   3.491   6.184
 2057SOL    HW2 7059   0.750   3.383   6.268
 2058SOL     OW 7060   1.417   2.072   6.750
 2058SOL    HW1 7061   1.469   2.024   6.814
 2058SOL    HW2 7062   1.365   2.134   6.803
 2059SOL     OW 7063   1.006   1.881   6.728
 2059SOL    HW1 7064   0.951   1.813   6.690
 2059SOL    HW2 7065   1.093   1.844   6.732
 2060SOL     OW 7066   0.772   3.195   5.899
 2060SOL    HW1 7067   0.740   3.105   5.905
 2060SOL    HW2 7068   0.854   3.195   5.948
 2061SOL     OW 7069   0.621   3.418   6.871
 2061SOL    HW1 7070   0.623   3.500   6.921
 2061SOL    HW2 7071   0.708   3.412   6.832
 2062SOL     OW 7072   1.329   1.910   5.722
 2062SOL    HW1 7073   1.345   1.840   5.659
 2062SOL    HW2 7074   1.254   1.880   5.773
 2063SOL     OW 7075   1.228   2.298   6.301
 2063SOL    HW1 7076   1.196   2.388   6.305
 2063SOL    HW2 7077   1.257   2.278   6.390
 2064SOL     OW 7078   0.041   2.914   5.874
 2064SOL    HW1 7079   0.135   2.898   5.864
 2064SOL    HW2 7080   0.020   2.880   5.961
 2065SOL     OW 7081   0.884   3.514   5.929
 2065SOL    HW1 7082   0.812   3.496   5.869
 2065SOL    HW2 7083   0.854   3.589   5.980
 2066SOL     OW 7084   0.248   2.490   7.568
 2066SOL    HW1 7085   0.173   2.471   7.625
 2066SOL    HW2 7086   0.216   2.472   7.479
 2067SOL     OW 7087   0.213   2.137   8.440
 2067SOL    HW1 7088   0.249   2.111   8.524
 2067SOL    HW2 7089   0.137   2.080   8.427
 2068SOL     OW 7090   0.009   2.252   8.088
 2068SOL    HW1 7091   4.428   2.284   8.128
 2068SOL    HW2 7092   4.483   2.172   8.042
 2069SOL     OW 7093   0.568   3.148   8.623
 2069SOL    HW1 7094   0.480   3.153   8.584
 2069SOL    HW2 7095   0.583   3.236   8.658
 2070SOL     OW 7096   1.560   3.374   8.155
 2070SOL    HW1 7097   1.517   3.354   8.238
 2070SOL    HW2 7098   1.489   3.378   8.091
 2071SOL     OW 7099   1.130   2.560   8.150
 2071SOL    HW1 7100   1.179   2.641   8.136
 2071SOL    HW2 7101   1.083   2.575   8.232
 2072SOL     OW 7102   1.765   2.471   7.677
 2072SOL    HW1 7103   1.744   2.464   7.584
 2072SOL    HW2 7104   1.741   2.386   7.713
 2073SOL     OW 7105   0.756   3.005   8.488
 2073SOL    HW1 7106   0.687   3.039   8.544
 2073SOL    HW2 7107   0.791   3.082   8.443
 2074SOL     OW 7108   0.866   2.637   9.269
 2074SOL    HW1 7109   0.851   2.708   9.331
 2074SOL    HW2 7110   0.889   2.681   9.187
 2075SOL     OW 7111   0.685   2.866   8.096
 2075SOL    HW1 7112   0.750   2.853   8.165
 2075SOL    HW2 7113   0.616   2.917   8.137
 2076SOL     OW 7114   0.710   3.012   9.260
 2076SOL    HW1 7115   0.757   3.092   9.286
 2076SOL    HW2 7116   0.627   3.044   9.224
 2077SOL     OW 7117   0.336   3.283   8.518
 2077SOL    HW1 7118   0.254   3.264   8.471
 2077SOL    HW2 7119   0.386   3.338   8.456
 2078SOL     OW 7120   1.461   3.361   8.801
 2078SOL    HW1 7121   1.510   3.443   8.811
 2078SOL    HW2 7122   1.400   3.360   8.875
 2079SOL     OW 7123   0.444   2.266   8.941
 2079SOL    HW1 7124   0.524   2.213   8.945
 2079SOL    HW2 7125   0.373   2.203   8.946
 2080SOL     OW 7126   1.603   2.313   8.192
 2080SOL    HW1 7127   1.529   2.337   8.136
 2080SOL    HW2 7128   1.621   2.393   8.243
 2081SOL     OW 7129   0.246   3.553   7.926
 2081SOL    HW1 7130   0.231   3.638   7.967
 2081SOL    HW2 7131   0.312   3.571   7.859
 2082SOL     OW 7132   1.136   3.203   9.140
 2082SOL    HW1 7133   1.176   3.199   9.227
 2082SOL    HW2 7134   1.084   3.124   9.134
 2083SOL     OW 7135   0.248   3.289   7.976
 2083SOL    HW1 7136   0.239   3.384   7.979
 2083SOL    HW2 7137   0.185   3.256   8.039
 2084SOL     OW 7138   0.248   2.944   8.332
 2084SOL    HW1 7139   0.264   2.854   8.361
 2084SOL    HW2 7140   0.188   2.980   8.398
 2085SOL     OW 7141   0.614   3.653   8.880
 2085SOL    HW1 7142   0.531   3.634   8.923
 2085SOL    HW2 7143   0.635   3.743   8.904
 2086SOL     OW 7144   0.580   2.848   7.585
 2086SOL    HW1 7145   0.627   2.892   7.515
 2086SOL    HW2 7146   0.625   2.876   7.665
 2087SOL     OW 7147   1.591   1.980   8.922
 2087SOL    HW1 7148   1.605   2.055   8.864
 2087SOL    HW2 7149   1.579   2.020   9.009
 2088SOL     OW 7150   0.136   2.507   8.022
 2088SOL    HW1 7151   0.088   2.427   8.039
 2088SOL    HW2 7152   0.106   2.568   8.089
 2089SOL     OW 7153   1.842   3.622   7.783
 2089SOL    HW1 7154   1.905   3.593   7.850
 2089SOL    HW2 7155   1.867   3.712   7.764
 2090SOL     OW 7156   0.033   3.464   7.587
 2090SOL    HW1 7157   0.021   3.369   7.586
 2090SOL    HW2 7158   0.019   3.488   7.679
 2091SOL     OW 7159   1.691   2.782   8.088
 2091SOL    HW1 7160   1.772   2.737   8.064
 2091SOL    HW2 7161   1.667   2.831   8.010
 2092SOL     OW 7162   1.645   2.969   7.877
 2092SOL    HW1 7163   1.731   2.975   7.835
 2092SOL    HW2 7164   1.650   3.030   7.951
 2093SOL     OW 7165   0.111   2.624   9.032
 2093SOL    HW1 7166   0.203   2.623   9.006
 2093SOL    HW2 7167   0.092   2.717   9.048
 2094SOL     OW 7168   0.613   3.246   8.184
 2094SOL    HW1 7169   0.566   3.164   8.193
 2094SOL    HW2 7170   0.597   3.273   8.094
 2095SOL     OW 7171   1.290   3.101   8.871
 2095SOL    HW1 7172   1.321   3.033   8.812
 2095SOL    HW2 7173   1.346   3.094   8.948
 2096SOL     OW 7174   0.815   1.861   7.955
 2096SOL    HW1 7175   0.855   1.946   7.938
 2096SOL    HW2 7176   0.722   1.880   7.965
 2097SOL     OW 7177   0.180   2.803   8.727
 2097SOL    HW1 7178   0.272   2.786   8.706
 2097SOL    HW2 7179   0.133   2.787   8.646
 2098SOL     OW 7180   1.532   2.855   7.646
 2098SOL    HW1 7181   1.462   2.797   7.676
 2098SOL    HW2 7182   1.572   2.889   7.726
 2099SOL     OW 7183   1.186   3.668   9.070
 2099SOL    HW1 7184   1.197   3.726   8.994
 2099SOL    HW2 7185   1.201   3.580   9.035
 2100SOL     OW 7186   0.330   2.118   9.246
 2100SOL    HW1 7187   0.380   2.191   9.282
 2100SOL    HW2 7188   0.244   2.126   9.285
 2101SOL     OW 7189   1.467   3.281   8.400
 2101SOL    HW1 7190   1.398   3.296   8.465
 2101SOL    HW2 7191   1.454   3.190   8.373
 2102SOL     OW 7192   1.660   3.599   8.026
 2102SOL    HW1 7193   1.639   3.571   7.937
 2102SOL    HW2 7194   1.634   3.526   8.082
 2103SOL     OW 7195   0.598   2.583   7.714
 2103SOL    HW1 7196   0.601   2.664   7.663
 2103SOL    HW2 7197   0.532   2.599   7.781
 2104SOL     OW 7198   1.278   2.215   8.381
 2104SOL    HW1 7199   1.189   2.181   8.389
 2104SOL    HW2 7200   1.330   2.161   8.441
 2105SOL     OW 7201   1.581   3.532   7.757
 2105SOL    HW1 7202   1.671   3.564   7.750
 2105SOL    HW2 7203   1.554   3.515   7.667
 2106SOL     OW 7204   0.794   2.478   8.899
 2106SOL    HW1 7205   0.768   2.455   8.988
 2106SOL    HW2 7206   0.751   2.413   8.844
 2107SOL     OW 7207   1.394   2.336   9.125
 2107SOL    HW1 7208   1.396   2.380   9.210
 2107SOL    HW2 7209   1.456   2.264   9.134
 2108SOL     OW 7210   0.956   2.750   9.030
 2108SOL    HW1 7211   1.010   2.679   8.994
 2108SOL    HW2 7212   0.908   2.784   8.954
 2109SOL     OW 7213   0.993   2.276   8.687
 2109SOL    HW1 7214   0.908   2.297   8.726
 2109SOL    HW2 7215   0.971   2.228   8.607
 2110SOL     OW 7216   1.050   2.561   7.874
 2110SOL    HW1 7217   1.066   2.553   7.969
 2110SOL    HW2 7218   0.968   2.514   7.860
 2111SOL     OW 7219   0.097   2.689   8.232
 2111SOL    HW1 7220   0.183   2.671   8.269
 2111SOL    HW2 7221   0.045   2.719   8.307
 2112SOL     OW 7222   0.125   3.714   9.024
 2112SOL    HW1 7223   0.117   3.693   9.117
 2112SOL    HW2 7224   0.044   3.681   8.985
 2113SOL     OW 7225   0.891   2.210   7.642
 2113SOL    HW1 7226   0.933   2.271   7.582
 2113SOL    HW2 7227   0.908   2.124   7.604
 2114SOL     OW 7228   1.710   2.441   9.279
 2114SOL    HW1 7229   1.671   2.511   9.228
 2114SOL    HW2 7230   1.735   2.375   9.214
 2115SOL     OW 7231   1.377   3.004   7.990
 2115SOL    HW1 7232   1.455   2.991   7.936
 2115SOL    HW2 7233   1.323   3.066   7.940
 2116SOL     OW 7234   0.551   2.045   8.341
 2116SOL    HW1 7235   0.554   2.074   8.432
 2116SOL    HW2 7236   0.552   2.125   8.289
 2117SOL     OW 7237   1.007   3.307   7.921
 2117SOL    HW1 7238   0.968   3.379   7.871
 2117SOL    HW2 7239   0.988   3.328   8.012
 2118SOL     OW 7240   0.355   3.672   8.306
 2118SOL    HW1 7241   0.397   3.586   8.316
 2118SOL    HW2 7242   0.426   3.735   8.321
 2119SOL     OW 7243   1.799   2.919   8.315
 2119SOL    HW1 7244   1.745   2.901   8.239
 2119SOL    HW2 7245   1.737   2.925   8.388
 2120SOL     OW 7246   1.228   3.401   8.961
 2120SOL    HW1 7247   1.214   3.328   9.021
 2120SOL    HW2 7248   1.165   3.386   8.890
 2121SOL     OW 7249   0.316   2.816   7.700
 2121SOL    HW1 7250   0.400   2.839   7.661
 2121SOL    HW2 7251   0.300   2.726   7.673
 2122SOL     OW 7252   1.478   2.604   8.176
 2122SOL    HW1 7253   1.467   2.560   8.260
 2122SOL    HW2 7254   1.555   2.659   8.187
 2123SOL     OW 7255   0.467   3.124   9.183
 2123SOL    HW1 7256   0.440   3.130   9.092
 2123SOL    HW2 7257   0.386   3.129   9.233
 2124SOL     OW 7258   1.121   3.640   7.679
 2124SOL    HW1 7259   1.049   3.598   7.725
 2124SOL    HW2 7260   1.144   3.579   7.609
 2125SOL     OW 7261   0.196   2.139   8.934
 2125SOL    HW1 7262   0.136   2.214   8.940
 2125SOL    HW2 7263   0.184   2.092   9.016
 2126SOL     OW 7264   1.629   3.242   7.535
 2126SOL    HW1 7265   1.587   3.327   7.520
 2126SOL    HW2 7266   1.560   3.178   7.517
 2127SOL     OW 7267   0.469   3.606   7.761
 2127SOL    HW1 7268   0.511   3.659   7.830
 2127SOL    HW2 7269   0.542   3.571   7.710
 2128SOL     OW 7270   1.399   1.969   7.880
 2128SOL    HW1 7271   1.388   1.944   7.788
 2128SOL    HW2 7272   1.494   1.980   7.890
 2129SOL     OW 7273   0.261   3.656   8.679
 2129SOL    HW1 7274   0.305   3.580   8.718
 2129SOL    HW2 7275   0.226   3.622   8.597
 2130SOL     OW 7276   0.938   3.561   8.347
 2130SOL    HW1 7277   1.015   3.508   8.369
 2130SOL    HW2 7278   0.893   3.511   8.278
 2131SOL     OW 7279   0.394   2.557   7.921
 2131SOL    HW1 7280   0.418   2.465   7.932
 2131SOL    HW2 7281   0.302   2.561   7.947
 2132SOL     OW 7282   1.536   2.088   9.174
 2132SOL    HW1 7283   1.545   2.109   9.268
 2132SOL    HW2 7284   1.469   2.020   9.172
 2133SOL     OW 7285   0.634   1.987   7.552
 2133SOL    HW1 7286   0.703   1.923   7.567
 2133SOL    HW2 7287   0.586   1.953   7.476
 2134SOL     OW 7288   0.767   2.139   9.202
 2134SOL    HW1 7289   0.842   2.080   9.204
 2134SOL    HW2 7290   0.718   2.118   9.281
 2135SOL     OW 7291   0.877   3.384   8.641
 2135SOL    HW1 7292   0.861   3.348   8.554
 2135SOL    HW2 7293   0.946   3.329   8.678
 2136SOL     OW 7294   1.340   2.451   8.880
 2136SOL    HW1 7295   1.371   2.418   8.964
 2136SOL    HW2 7296   1.377   2.539   8.873
 2137SOL     OW 7297   0.815   3.258   8.387
 2137SOL    HW1 7298   0.899   3.246   8.342
 2137SOL    HW2 7299   0.750   3.258   8.316
 2138SOL     OW 7300   0.927   2.371   8.352
 2138SOL    HW1 7301   0.904   2.363   8.259
 2138SOL    HW2 7302   0.959   2.284   8.376
 2139SOL     OW 7303   0.552   1.924   7.950
 2139SOL    HW1 7304   0.471   1.922   8.001
 2139SOL    HW2 7305   0.544   2.002   7.896
 2140SOL     OW 7306   1.428   3.060   7.489
 2140SOL    HW1 7307   1.459   2.984   7.539
 2140SOL    HW2 7308   1.342   3.080   7.526
 2141SOL     OW 7309   0.295   1.908   7.626
 2141SOL    HW1 7310   0.358   1.975   7.599
 2141SOL    HW2 7311   0.348   1.842   7.671
 2142SOL     OW 7312   0.938   2.108   7.909
 2142SOL    HW1 7313   0.910   2.150   7.828
 2142SOL    HW2 7314   1.032   2.122   7.913
 2143SOL     OW 7315   1.080   2.542   8.908
 2143SOL    HW1 7316   1.011   2.476   8.913
 2143SOL    HW2 7317   1.161   2.492   8.901
 2144SOL     OW 7318   1.224   3.431   8.241
 2144SOL    HW1 7319   1.241   3.499   8.175
 2144SOL    HW2 7320   1.292   3.446   8.308
 2145SOL     OW 7321   0.466   3.011   8.184
 2145SOL    HW1 7322   0.395   2.992   8.245
 2145SOL    HW2 7323   0.428   2.995   8.098
 2146SOL     OW 7324   1.270   3.656   8.056
 2146SOL    HW1 7325   1.315   3.717   7.998
 2146SOL    HW2 7326   1.203   3.709   8.100
 2147SOL     OW 7327   1.023   2.405   7.470
 2147SOL    HW1 7328   0.981   2.488   7.450
 2147SOL    HW2 7329   1.089   2.426   7.536
 2148SOL     OW 7330   0.083   2.391   8.857
 2148SOL    HW1 7331   0.148   2.389   8.787
 2148SOL    HW2 7332   0.068   2.484   8.874
 2149SOL     OW 7333   0.561   2.090   8.614
 2149SOL    HW1 7334   0.603   2.010   8.648
 2149SOL    HW2 7335   0.469   2.081   8.640
 2150SOL     OW 7336   0.869   2.321   8.088
 2150SOL    HW1 7337   0.822   2.375   8.024
 2150SOL    HW2 7338   0.889   2.241   8.041
 2151SOL     OW 7339   1.015   1.915   8.200
 2151SOL    HW1 7340   0.957   1.908   8.125
 2151SOL    HW2 7341   0.994   1.839   8.255
 2152SOL     OW 7342   1.437   3.025   8.305
 2152SOL    HW1 7343   1.368   2.959   8.305
 2152SOL    HW2 7344   1.460   3.036   8.213
 2153SOL     OW 7345   1.466   2.467   8.427
 2153SOL    HW1 7346   1.416   2.385   8.429
 2153SOL    HW2 7347   1.525   2.461   8.502
 2154SOL     OW 7348   1.848   2.678   7.832
 2154SOL    HW1 7349   1.904   2.625   7.889
 2154SOL    HW2 7350   1.817   2.618   7.765
 2155SOL     OW 7351   0.492   3.279   7.608
 2155SOL    HW1 7352   0.415   3.250   7.657
 2155SOL    HW2 7353   0.474   3.252   7.518
 2156SOL     OW 7354   1.670   3.127   8.094
 2156SOL    HW1 7355   1.764   3.131   8.108
 2156SOL    HW2 7356   1.638   3.215   8.115
 2157SOL     OW 7357   1.393   2.434   7.519
 2157SOL    HW1 7358   1.335   2.414   7.592
 2157SOL    HW2 7359   1.480   2.407   7.549
 2158SOL     OW 7360   0.524   2.122   7.766
 2158SOL    HW1 7361   0.570   2.076   7.696
 2158SOL    HW2 7362   0.506   2.208   7.729
 2159SOL     OW 7363   1.752   3.100   9.022
 2159SOL    HW1 7364   1.840   3.062   9.016
 2159SOL    HW2 7365   1.767   3.190   9.051
 2160SOL     OW 7366   1.059   3.216   8.782
 2160SOL    HW1 7367   0.984   3.185   8.833
 2160SOL    HW2 7368   1.135   3.174   8.823
 2161SOL     OW 7369   1.608   3.488   9.101
 2161SOL    HW1 7370   1.602   3.521   9.012
 2161SOL    HW2 7371   1.691   3.440   9.104
 2162SOL     OW 7372   1.129   3.065   8.554
 2162SOL    HW1 7373   1.069   3.102   8.619
 2162SOL    HW2 7374   1.095   3.096   8.470
 2163SOL     OW 7375   1.629   2.961   8.525
 2163SOL    HW1 7376   1.625   3.023   8.598
 2163SOL    HW2 7377   1.550   2.977   8.475
 2164SOL     OW 7378   0.917   1.960   8.845
 2164SOL    HW1 7379   0.940   1.940   8.754
 2164SOL    HW2 7380   0.997   1.999   8.882
 2165SOL     OW 7381   0.984   2.976   9.171
 2165SOL    HW1 7382   0.892   2.992   9.192
 2165SOL    HW2 7383   0.983   2.899   9.115
 2166SOL     OW 7384   0.708   2.923   7.820
 2166SOL    HW1 7385   0.695   2.907   7.914
 2166SOL    HW2 7386   0.784   2.870   7.797
 2167SOL     OW 7387   0.430   2.687   8.689
 2167SOL    HW1 7388   0.499   2.699   8.754
 2167SOL    HW2 7389   0.372   2.622   8.728
 2168SOL     OW 7390   1.266   2.239   8.722
 2168SOL    HW1 7391   1.299   2.316   8.768
 2168SOL    HW2 7392   1.176   2.261   8.699
 2169SOL     OW 7393   0.062   3.438   8.789
 2169SOL    HW1 7394   0.034   3.528   8.769
 2169SOL    HW2 7395   0.157   3.443   8.796
 2170SOL     OW 7396   0.348   2.970   7.941
 2170SOL    HW1 7397   0.357   3.043   7.880
 2170SOL    HW2 7398   0.348   2.892   7.885
 2171SOL     OW 7399   0.561   2.396   8.304
 2171SOL    HW1 7400   0.574   2.455   8.230
 2171SOL    HW2 7401   0.622   2.426   8.371
 2172SOL     OW 7402   1.248   3.210   7.837
 2172SOL    HW1 7403   1.304   3.282   7.868
 2172SOL    HW2 7404   1.161   3.231   7.871
 2173SOL     OW 7405   1.280   3.319   8.594
 2173SOL    HW1 7406   1.335   3.321   8.673
 2173SOL    HW2 7407   1.224   3.242   8.606
 2174SOL     OW 7408   1.581   2.483   7.926
 2174SOL    HW1 7409   1.536   2.540   7.988
 2174SOL    HW2 7410   1.627   2.543   7.867
 2175SOL     OW 7411   0.347   3.394   8.763
 2175SOL    HW1 7412   0.333   3.346   8.681
 2175SOL    HW2 7413   0.442   3.403   8.770
 2176SOL     OW 7414   0.479   2.621   9.113
 2176SOL    HW1 7415   0.508   2.659   9.031
 2176SOL    HW2 7416   0.520   2.534   9.115
 2177SOL     OW 7417   1.601   2.641   9.129
 2177SOL    HW1 7418   1.514   2.681   9.122
 2177SOL    HW2 7419   1.652   2.683   9.060
 2178SOL     OW 7420   0.996   1.984   9.203
 2178SOL    HW1 7421   1.051   2.056   9.174
 2178SOL    HW2 7422   1.044   1.905   9.177
 2179SOL     OW 7423   0.498   1.905   9.195
 2179SOL    HW1 7424   0.457   1.848   9.129
 2179SOL    HW2 7425   0.438   1.979   9.203
 2180SOL     OW 7426   0.590   2.735   8.472
 2180SOL    HW1 7427   0.618   2.827   8.474
 2180SOL    HW2 7428   0.533   2.726   8.549
 2181SOL     OW 7429   1.359   2.721   8.479
 2181SOL    HW1 7430   1.276   2.712   8.432
 2181SOL    HW2 7431   1.398   2.634   8.474
 2182SOL     OW 7432   1.206   2.391   7.716
 2182SOL    HW1 7433   1.213   2.312   7.770
 2182SOL    HW2 7434   1.162   2.455   7.772
 2183SOL     OW 7435   0.302   2.054   8.690
 2183SOL    HW1 7436   0.263   2.087   8.770
 2183SOL    HW2 7437   0.285   1.959   8.693
 2184SOL     OW 7438   0.041   3.175   8.733
 2184SOL    HW1 7439   0.076   3.128   8.809
 2184SOL    HW2 7440   0.046   3.267   8.758
 2185SOL     OW 7441   0.726   2.493   8.507
 2185SOL    HW1 7442   0.800   2.475   8.449
 2185SOL    HW2 7443   0.698   2.582   8.484
 2186SOL     OW 7444   1.735   2.821   9.300
 2186SOL    HW1 7445   1.688   2.760   9.243
 2186SOL    HW2 7446   1.675   2.835   9.373
 2187SOL     OW 7447   0.310   1.932   8.067
 2187SOL    HW1 7448   0.287   2.021   8.094
 2187SOL    HW2 7449   0.307   1.880   8.147
 2188SOL     OW 7450   1.610   2.231   7.820
 2188SOL    HW1 7451   1.644   2.174   7.889
 2188SOL    HW2 7452   1.591   2.314   7.864
 2189SOL     OW 7453   1.028   2.621   8.409
 2189SOL    HW1 7454   1.025   2.639   8.503
 2189SOL    HW2 7455   1.001   2.529   8.401
 2190SOL     OW 7456   0.983   3.429   9.164
 2190SOL    HW1 7457   0.967   3.473   9.080
 2190SOL    HW2 7458   1.025   3.346   9.141
 2191SOL     OW 7459   1.855   3.369   9.054
 2191SOL    HW1 7460   1.873   3.395   8.963
 2191SOL    HW2 7461   1.936   3.388   9.100
 2192SOL     OW 7462   0.347   2.795   9.266
 2192SOL    HW1 7463   0.420   2.824   9.321
 2192SOL    HW2 7464   0.385   2.728   9.209
 2193SOL     OW 7465   1.531   2.133   7.576
 2193SOL    HW1 7466   1.464   2.070   7.603
 2193SOL    HW2 7467   1.562   2.171   7.658
 2194SOL     OW 7468   1.292   2.689   7.480
 2194SOL    HW1 7469   1.334   2.603   7.483
 2194SOL    HW2 7470   1.323   2.728   7.398
 2195SOL     OW 7471   1.065   3.197   8.301
 2195SOL    HW1 7472   1.068   3.125   8.239
 2195SOL    HW2 7473   1.127   3.262   8.266
 2196SOL     OW 7474   0.318   2.673   8.396
 2196SOL    HW1 7475   0.412   2.690   8.393
 2196SOL    HW2 7476   0.311   2.582   8.425
 2197SOL     OW 7477   0.331   2.386   8.439
 2197SOL    HW1 7478   0.293   2.300   8.423
 2197SOL    HW2 7479   0.410   2.389   8.384
 2198SOL     OW 7480   1.134   2.239   9.129
 2198SOL    HW1 7481   1.087   2.294   9.192
 2198SOL    HW2 7482   1.222   2.276   9.125
 2199SOL     OW 7483   1.160   2.065   8.918
 2199SOL    HW1 7484   1.150   2.128   8.989
 2199SOL    HW2 7485   1.200   2.115   8.847
 2200SOL     OW 7486   4.492   3.184   7.652
 2200SOL    HW1 7487   4.399   3.200   7.634
 2200SOL    HW2 7488   4.496   3.091   7.674
 2201SOL     OW 7489   0.097   3.640   8.388
 2201SOL    HW1 7490   0.058   3.585   8.320
 2201SOL    HW2 7491   0.185   3.660   8.356
 2202SOL     OW 7492   0.497   3.436   8.355
 2202SOL    HW1 7493   0.565   3.498   8.379
 2202SOL    HW2 7494   0.541   3.372   8.298
 2203SOL     OW 7495   0.985   2.655   8.675
 2203SOL    HW1 7496   1.039   2.631   8.750
 2203SOL    HW2 7497   0.899   2.618   8.696
 2204SOL     OW 7498   0.035   2.425   8.552
 2204SOL    HW1 7499   0.119   2.391   8.521
 2204SOL    HW2 7500   0.021   2.381   8.636
 2205SOL     OW 7501   0.179   2.381   9.162
 2205SOL    HW1 7502   0.259   2.351   9.119
 2205SOL    HW2 7503   0.156   2.462   9.117
 2206SOL     OW 7504   1.377   2.801   9.107
 2206SOL    HW1 7505   1.397   2.895   9.105
 2206SOL    HW2 7506   1.374   2.776   9.015
 2207SOL     OW 7507   0.817   2.431   7.807
 2207SOL    HW1 7508   0.820   2.356   7.747
 2207SOL    HW2 7509   0.743   2.483   7.776
 2208SOL     OW 7510   1.642   2.465   8.636
 2208SOL    HW1 7511   1.634   2.404   8.709
 2208SOL    HW2 7512   1.729   2.446   8.599
 2209SOL     OW 7513   0.274   3.423   9.189
 2209SOL    HW1 7514   0.217   3.476   9.245
 2209SOL    HW2 7515   0.253   3.333   9.212
 2210SOL     OW 7516   0.691   2.317   8.710
 2210SOL    HW1 7517   0.645   2.239   8.677
 2210SOL    HW2 7518   0.692   2.378   8.637
 2211SOL     OW 7519   0.929   3.541   8.915
 2211SOL    HW1 7520   0.902   3.507   8.830
 2211SOL    HW2 7521   0.924   3.636   8.905
 2212SOL     OW 7522   0.472   2.352   7.634
 2212SOL    HW1 7523   0.531   2.423   7.657
 2212SOL    HW2 7524   0.388   2.395   7.618
 2213SOL     OW 7525   0.162   3.003   8.910
 2213SOL    HW1 7526   0.146   2.957   8.992
 2213SOL    HW2 7527   0.169   2.933   8.845
 2214SOL     OW 7528   1.327   2.910   8.671
 2214SOL    HW1 7529   1.350   2.846   8.604
 2214SOL    HW2 7530   1.256   2.961   8.633
 2215SOL     OW 7531   1.310   2.719   7.755
 2215SOL    HW1 7532   1.234   2.688   7.804
 2215SOL    HW2 7533   1.287   2.705   7.663
 2216SOL     OW 7534   1.771   3.607   8.598
 2216SOL    HW1 7535   1.831   3.633   8.528
 2216SOL    HW2 7536   1.747   3.516   8.576
 2217SOL     OW 7537   1.241   3.595   8.562
 2217SOL    HW1 7538   1.323   3.615   8.517
 2217SOL    HW2 7539   1.246   3.501   8.580
 2218SOL     OW 7540   0.067   3.047   8.497
 2218SOL    HW1 7541   0.067   3.079   8.587
 2218SOL    HW2 7542   0.021   3.115   8.448
 2219SOL     OW 7543   0.679   3.528   9.177
 2219SOL    HW1 7544   0.623   3.605   9.171
 2219SOL    HW2 7545   0.741   3.538   9.105
 2220SOL     OW 7546   1.720   2.001   7.967
 2220SOL    HW1 7547   1.775   1.960   7.900
 2220SOL    HW2 7548   1.689   1.927   8.020
 2221SOL     OW 7549   1.391   3.430   7.933
 2221SOL    HW1 7550   1.451   3.462   7.865
 2221SOL    HW2 7551   1.342   3.507   7.960
 2222SOL     OW 7552   0.120   3.669   9.295
 2222SOL    HW1 7553   0.079   3.596   9.343
 2222SOL    HW2 7554   0.182   3.706   9.357
 2223SOL     OW 7555   1.277   2.787   8.119
 2223SOL    HW1 7556   1.351   2.726   8.125
 2223SOL    HW2 7557   1.311   2.860   8.067
 2224SOL     OW 7558   0.815   3.135   8.878
 2224SOL    HW1 7559   0.788   3.174   8.961
 2224SOL    HW2 7560   0.744   3.157   8.817
 2225SOL     OW 7561   0.672   3.481   7.603
 2225SOL    HW1 7562   0.682   3.492   7.509
 2225SOL    HW2 7563   0.618   3.403   7.613
 2226SOL     OW 7564   1.628   3.588   8.840
 2226SOL    HW1 7565   1.677   3.596   8.758
 2226SOL    HW2 7566   1.615   3.679   8.867
 2227SOL     OW 7567   1.797   2.004   8.434
 2227SOL    HW1 7568   1.847   1.935   8.391
 2227SOL    HW2 7569   1.724   2.021   8.374
 2228SOL     OW 7570   0.265   2.182   8.167
 2228SOL    HW1 7571   0.182   2.220   8.139
 2228SOL    HW2 7572   0.255   2.169   8.261
 2229SOL     OW 7573   1.207   3.468   7.479
 2229SOL    HW1 7574   1.198   3.377   7.507
 2229SOL    HW2 7575   1.142   3.480   7.410
 2230SOL     OW 7576   0.826   2.869   8.820
 2230SOL    HW1 7577   0.868   2.865   8.734
 2230SOL    HW2 7578   0.825   2.962   8.843
 2231SOL     OW 7579   0.916   2.773   7.738
 2231SOL    HW1 7580   0.977   2.805   7.671
 2231SOL    HW2 7581   0.963   2.703   7.782
 2232SOL     OW 7582   1.492   3.487   7.490
 2232SOL    HW1 7583   1.398   3.481   7.477
 2232SOL    HW2 7584   1.529   3.493   7.402
 2233SOL     OW 7585   0.373   3.169   8.939
 2233SOL    HW1 7586   0.355   3.248   8.887
 2233SOL    HW2 7587   0.298   3.112   8.922
 2234SOL     OW 7588   1.612   3.145   8.729
 2234SOL    HW1 7589   1.670   3.134   8.804
 2234SOL    HW2 7590   1.551   3.214   8.755
 2235SOL     OW 7591   1.051   2.969   8.154
 2235SOL    HW1 7592   0.981   2.918   8.193
 2235SOL    HW2 7593   1.113   2.903   8.122
 2236SOL     OW 7594   1.020   2.102   8.414
 2236SOL    HW1 7595   1.016   2.054   8.331
 2236SOL    HW2 7596   1.016   2.034   8.481
 2237SOL     OW 7597   0.604   3.352   7.930
 2237SOL    HW1 7598   0.645   3.302   7.860
 2237SOL    HW2 7599   0.530   3.395   7.889
 2238SOL     OW 7600   1.719   2.259   8.828
 2238SOL    HW1 7601   1.798   2.314   8.826
 2238SOL    HW2 7602   1.742   2.182   8.777
 2239SOL     OW 7603   0.252   3.206   7.725
 2239SOL    HW1 7604   0.157   3.206   7.710
 2239SOL    HW2 7605   0.262   3.238   7.814
 2240SOL     OW 7606   0.116   2.869   9.142
 2240SOL    HW1 7607   0.052   2.911   9.200
 2240SOL    HW2 7608   0.194   2.859   9.197
 2241SOL     OW 7609   0.674   2.061   8.947
 2241SOL    HW1 7610   0.757   2.039   8.905
 2241SOL    HW2 7611   0.697   2.089   9.035
 2242SOL     OW 7612   0.072   2.187   7.480
 2242SOL    HW1 7613   4.477   2.199   7.485
 2242SOL    HW2 7614   0.104   2.269   7.442
 2243SOL     OW 7615   1.431   2.721   8.849
 2243SOL    HW1 7616   1.382   2.781   8.793
 2243SOL    HW2 7617   1.520   2.723   8.814
 2244SOL     OW 7618   0.086   2.038   7.753
 2244SOL    HW1 7619   0.079   2.111   7.690
 2244SOL    HW2 7620   0.161   1.988   7.724
 2245SOL     OW 7621   1.179   3.202   7.565
 2245SOL    HW1 7622   1.088   3.172   7.567
 2245SOL    HW2 7623   1.207   3.202   7.656
 2246SOL     OW 7624   0.623   2.693   8.878
 2246SOL    HW1 7625   0.679   2.770   8.865
 2246SOL    HW2 7626   0.684   2.620   8.886
 2247SOL     OW 7627   1.484   3.638   8.426
 2247SOL    HW1 7628   1.508   3.697   8.354
 2247SOL    HW2 7629   1.567   3.620   8.471
 2248SOL     OW 7630   0.715   2.424   9.152
 2248SOL    HW1 7631   0.754   2.488   9.212
 2248SOL    HW2 7632   0.747   2.340   9.183
 2249SOL     OW 7633   1.471   3.063   9.080
 2249SOL    HW1 7634   1.458   3.076   9.174
 2249SOL    HW2 7635   1.564   3.077   9.066
 2250SOL     OW 7636   0.381   3.605   9.012
 2250SOL    HW1 7637   0.296   3.645   8.995
 2250SOL    HW2 7638   0.360   3.525   9.060
 2251SOL     OW 7639   1.671   2.743   8.703
 2251SOL    HW1 7640   1.662   2.658   8.661
 2251SOL    HW2 7641   1.660   2.807   8.632
 2252SOL     OW 7642   1.217   2.181   7.906
 2252SOL    HW1 7643   1.280   2.110   7.897
 2252SOL    HW2 7644   1.246   2.230   7.983
 2253SOL     OW 7645   0.590   2.600   8.117
 2253SOL    HW1 7646   0.628   2.687   8.101
 2253SOL    HW2 7647   0.521   2.592   8.051
 2254SOL     OW 7648   1.757   2.239   9.100
 2254SOL    HW1 7649   1.743   2.244   9.006
 2254SOL    HW2 7650   1.692   2.175   9.130
 2255SOL     OW 7651   1.749   2.794   8.959
 2255SOL    HW1 7652   1.743   2.888   8.974
 2255SOL    HW2 7653   1.731   2.783   8.866
 2256SOL     OW 7654   0.863   3.230   7.481
 2256SOL    HW1 7655   0.824   3.256   7.564
 2256SOL    HW2 7656   0.880   3.312   7.436
 2257SOL     OW 7657   0.661   3.654   8.394
 2257SOL    HW1 7658   0.639   3.744   8.370
 2257SOL    HW2 7659   0.756   3.648   8.385
 2258SOL     OW 7660   0.868   2.829   8.303
 2258SOL    HW1 7661   0.917   2.757   8.343
 2258SOL    HW2 7662   0.833   2.878   8.377
 2259SOL     OW 7663   1.079   2.851   7.537
 2259SOL    HW1 7664   1.058   2.901   7.458
 2259SOL    HW2 7665   1.154   2.797   7.511
 2260SOL     OW 7666   1.854   3.417   8.293
 2260SOL    HW1 7667   1.777   3.406   8.238
 2260SOL    HW2 7668   1.845   3.350   8.361
 2261SOL     OW 7669   0.230   3.168   9.305
 2261SOL    HW1 7670   0.157   3.110   9.283
 2261SOL    HW2 7671   0.223   3.178   9.400
 2262SOL     OW 7672   0.106   3.098   8.116
 2262SOL    HW1 7673   0.116   3.051   8.198
 2262SOL    HW2 7674   0.165   3.054   8.055
 2263SOL     OW 7675   0.682   3.264   9.076
 2263SOL    HW1 7676   0.602   3.220   9.104
 2263SOL    HW2 7677   0.675   3.352   9.113
 2264SOL     OW 7678   1.776   2.034   8.697
 2264SOL    HW1 7679   1.812   1.949   8.721
 2264SOL    HW2 7680   1.780   2.035   8.601
 2265SOL     OW 7681   0.435   2.295   7.973
 2265SOL    HW1 7682   0.459   2.222   7.917
 2265SOL    HW2 7683   0.384   2.256   8.044
 2266SOL     OW 7684   1.701   3.352   8.545
 2266SOL    HW1 7685   1.620   3.328   8.500
 2266SOL    HW2 7686   1.712   3.283   8.611
 2267SOL     OW 7687   0.302   2.351   8.702
 2267SOL    HW1 7688   0.376   2.309   8.746
 2267SOL    HW2 7689   0.332   2.366   8.612
 2268SOL     OW 7690   0.827   3.440   8.126
 2268SOL    HW1 7691   0.815   3.491   8.046
 2268SOL    HW2 7692   0.750   3.383   8.130
 2269SOL     OW 7693   1.434   2.088   8.564
 2269SOL    HW1 7694   1.467   2.011   8.611
 2269SOL    HW2 7695   1.381   2.135   8.629
 2270SOL     OW 7696   1.008   1.881   8.591
 2270SOL    HW1 7697   0.954   1.813   8.551
 2270SOL    HW2 7698   1.096   1.844   8.593
 2271SOL     OW 7699   0.772   3.194   7.761
 2271SOL    HW1 7700   0.740   3.104   7.767
 2271SOL    HW2 7701   0.854   3.194   7.810
 2272SOL     OW 7702   0.621   3.418   8.733
 2272SOL    HW1 7703   0.623   3.500   8.783
 2272SOL    HW2 7704   0.708   3.412   8.694
 2273SOL     OW 7705   1.351   1.915   7.613
 2273SOL    HW1 7706   1.378   1.854   7.544
 2273SOL    HW2 7707   1.265   1.884   7.640
 2274SOL     OW 7708   1.297   2.323   8.130
 2274SOL    HW1 7709   1.243   2.401   8.137
 2274SOL    HW2 7710   1.293   2.283   8.216
 2275SOL     OW 7711   1.567   2.063   8.310
 2275SOL    HW1 7712   1.516   2.083   8.389
 2275SOL    HW2 7713   1.574   2.146   8.264
 2276SOL     OW 7714   0.041   2.914   7.736
 2276SOL    HW1 7715   0.135   2.898   7.726
 2276SOL    HW2 7716   0.020   2.880   7.823
 2277SOL     OW 7717   0.884   3.514   7.791
 2277SOL    HW1 7718   0.812   3.496   7.731
 2277SOL    HW2 7719   0.854   3.589   7.842
 2278SOL     OW 7720   0.248   2.490   9.430
 2278SOL    HW1 7721   0.174   2.471   9.487
 2278SOL    HW2 7722   0.216   2.472   9.341
 2279SOL     OW 7723   0.214   2.137  10.301
 2279SOL    HW1 7724   0.249   2.111  10.386
 2279SOL    HW2 7725   0.137   2.081  10.289
 2280SOL     OW 7726   0.009   2.252   9.950
 2280SOL    HW1 7727   4.428   2.284   9.990
 2280SOL    HW2 7728   4.483   2.172   9.904
 2281SOL     OW 7729   0.568   3.148  10.486
 2281SOL    HW1 7730   0.481   3.152  10.446
 2281SOL    HW2 7731   0.582   3.236  10.520
 2282SOL     OW 7732   1.560   3.374  10.016
 2282SOL    HW1 7733   1.517   3.354  10.100
 2282SOL    HW2 7734   1.489   3.378   9.953
 2283SOL     OW 7735   1.130   2.560  10.012
 2283SOL    HW1 7736   1.179   2.641   9.998
 2283SOL    HW2 7737   1.083   2.575  10.094
 2284SOL     OW 7738   1.779   2.461   9.537
 2284SOL    HW1 7739   1.749   2.457   9.446
 2284SOL    HW2 7740   1.728   2.393   9.581
 2285SOL     OW 7741   0.757   3.005  10.351
 2285SOL    HW1 7742   0.687   3.040  10.407
 2285SOL    HW2 7743   0.791   3.082  10.305
 2286SOL     OW 7744   0.851   2.642   0.021
 2286SOL    HW1 7745   0.861   2.697   0.098
 2286SOL    HW2 7746   0.885   2.695  11.049
 2287SOL     OW 7747   0.686   2.867   9.958
 2287SOL    HW1 7748   0.750   2.854  10.027
 2287SOL    HW2 7749   0.616   2.917   9.999
 2288SOL     OW 7750   0.336   3.283  10.378
 2288SOL    HW1 7751   0.254   3.264  10.333
 2288SOL    HW2 7752   0.385   3.337  10.317
 2289SOL     OW 7753   1.464   3.361  10.659
 2289SOL    HW1 7754   1.518   3.439  10.668
 2289SOL    HW2 7755   1.409   3.361  10.738
 2290SOL     OW 7756   0.449   2.264  10.789
 2290SOL    HW1 7757   0.526   2.208  10.799
 2290SOL    HW2 7758   0.376   2.207  10.813
 2291SOL     OW 7759   1.598   2.314  10.057
 2291SOL    HW1 7760   1.520   2.335  10.005
 2291SOL    HW2 7761   1.615   2.393  10.108
 2292SOL     OW 7762   0.246   3.553   9.788
 2292SOL    HW1 7763   0.231   3.638   9.829
 2292SOL    HW2 7764   0.312   3.571   9.721
 2293SOL     OW 7765   0.249   3.289   9.838
 2293SOL    HW1 7766   0.239   3.384   9.841
 2293SOL    HW2 7767   0.185   3.256   9.901
 2294SOL     OW 7768   0.248   2.944  10.195
 2294SOL    HW1 7769   0.263   2.854  10.223
 2294SOL    HW2 7770   0.188   2.980  10.260
 2295SOL     OW 7771   0.613   3.651  10.740
 2295SOL    HW1 7772   0.532   3.632  10.787
 2295SOL    HW2 7773   0.634   3.742  10.764
 2296SOL     OW 7774   0.580   2.848   9.447
 2296SOL    HW1 7775   0.627   2.892   9.377
 2296SOL    HW2 7776   0.625   2.876   9.527
 2297SOL     OW 7777   1.584   1.977  10.782
 2297SOL    HW1 7778   1.602   2.049  10.722
 2297SOL    HW2 7779   1.607   2.011  10.869
 2298SOL     OW 7780   0.136   2.507   9.884
 2298SOL    HW1 7781   0.088   2.427   9.901
 2298SOL    HW2 7782   0.106   2.568   9.951
 2299SOL     OW 7783   1.842   3.622   9.645
 2299SOL    HW1 7784   1.904   3.593   9.712
 2299SOL    HW2 7785   1.867   3.712   9.626
 2300SOL     OW 7786   0.033   3.464   9.449
 2300SOL    HW1 7787   0.021   3.369   9.448
 2300SOL    HW2 7788   0.018   3.488   9.541
 2301SOL     OW 7789   1.690   2.781   9.950
 2301SOL    HW1 7790   1.773   2.738   9.930
 2301SOL    HW2 7791   1.668   2.831   9.871
 2302SOL     OW 7792   1.645   2.969   9.739
 2302SOL    HW1 7793   1.731   2.975   9.697
 2302SOL    HW2 7794   1.650   3.030   9.813
 2303SOL     OW 7795   0.102   2.621  10.911
 2303SOL    HW1 7796   0.192   2.607  10.882
 2303SOL    HW2 7797   0.090   2.716  10.907
 2304SOL     OW 7798   0.613   3.246  10.046
 2304SOL    HW1 7799   0.566   3.164  10.055
 2304SOL    HW2 7800   0.597   3.273   9.956
 2305SOL     OW 7801   1.295   3.099  10.752
 2305SOL    HW1 7802   1.320   3.039  10.682
 2305SOL    HW2 7803   1.350   3.075  10.825
 2306SOL     OW 7804   0.815   1.861   9.818
 2306SOL    HW1 7805   0.855   1.946   9.800
 2306SOL    HW2 7806   0.722   1.880   9.827
 2307SOL     OW 7807   0.179   2.802  10.590
 2307SOL    HW1 7808   0.271   2.784  10.569
 2307SOL    HW2 7809   0.132   2.785  10.508
 2308SOL     OW 7810   1.532   2.855   9.508
 2308SOL    HW1 7811   1.462   2.797   9.538
 2308SOL    HW2 7812   1.572   2.889   9.588
 2309SOL     OW 7813   1.196   3.668  10.927
 2309SOL    HW1 7814   1.195   3.731  10.855
 2309SOL    HW2 7815   1.205   3.583  10.884
 2310SOL     OW 7816   0.340   2.126   0.005
 2310SOL    HW1 7817   0.387   2.199   0.044
 2310SOL    HW2 7818   0.247   2.146   0.019
 2311SOL     OW 7819   1.467   3.281  10.262
 2311SOL    HW1 7820   1.398   3.297  10.326
 2311SOL    HW2 7821   1.454   3.190  10.235
 2312SOL     OW 7822   1.660   3.599   9.888
 2312SOL    HW1 7823   1.638   3.570   9.799
 2312SOL    HW2 7824   1.634   3.526   9.944
 2313SOL     OW 7825   0.598   2.583   9.576
 2313SOL    HW1 7826   0.600   2.664   9.525
 2313SOL    HW2 7827   0.532   2.599   9.643
 2314SOL     OW 7828   1.278   2.215  10.243
 2314SOL    HW1 7829   1.189   2.180  10.251
 2314SOL    HW2 7830   1.330   2.161  10.303
 2315SOL     OW 7831   1.581   3.532   9.619
 2315SOL    HW1 7832   1.671   3.564   9.612
 2315SOL    HW2 7833   1.554   3.515   9.529
 2316SOL     OW 7834   0.794   2.477  10.762
 2316SOL    HW1 7835   0.767   2.454  10.850
 2316SOL    HW2 7836   0.752   2.413  10.706
 2317SOL     OW 7837   0.966   2.761  10.901
 2317SOL    HW1 7838   1.014   2.688  10.862
 2317SOL    HW2 7839   0.916   2.798  10.829
 2318SOL     OW 7840   0.992   2.276  10.549
 2318SOL    HW1 7841   0.907   2.297  10.586
 2318SOL    HW2 7842   0.972   2.228  10.469
 2319SOL     OW 7843   1.051   2.560   9.736
 2319SOL    HW1 7844   1.066   2.553   9.831
 2319SOL    HW2 7845   0.968   2.514   9.721
 2320SOL     OW 7846   0.097   2.690  10.094
 2320SOL    HW1 7847   0.183   2.671  10.131
 2320SOL    HW2 7848   0.045   2.719  10.169
 2321SOL     OW 7849   0.119   3.711  10.899
 2321SOL    HW1 7850   0.114   3.651  10.974
 2321SOL    HW2 7851   0.051   3.681  10.839
 2322SOL     OW 7852   0.892   2.210   9.504
 2322SOL    HW1 7853   0.932   2.271   9.443
 2322SOL    HW2 7854   0.907   2.124   9.466
 2323SOL     OW 7855   1.376   3.004   9.852
 2323SOL    HW1 7856   1.455   2.991   9.799
 2323SOL    HW2 7857   1.323   3.066   9.802
 2324SOL     OW 7858   0.552   2.044  10.203
 2324SOL    HW1 7859   0.553   2.074  10.294
 2324SOL    HW2 7860   0.552   2.125  10.151
 2325SOL     OW 7861   1.007   3.307   9.783
 2325SOL    HW1 7862   0.968   3.379   9.733
 2325SOL    HW2 7863   0.988   3.328   9.874
 2326SOL     OW 7864   0.355   3.672  10.168
 2326SOL    HW1 7865   0.398   3.586  10.178
 2326SOL    HW2 7866   0.425   3.735  10.183
 2327SOL     OW 7867   1.799   2.919  10.177
 2327SOL    HW1 7868   1.743   2.901  10.101
 2327SOL    HW2 7869   1.738   2.925  10.251
 2328SOL     OW 7870   1.228   3.400  10.823
 2328SOL    HW1 7871   1.235   3.313  10.861
 2328SOL    HW2 7872   1.166   3.390  10.752
 2329SOL     OW 7873   0.316   2.816   9.563
 2329SOL    HW1 7874   0.400   2.839   9.523
 2329SOL    HW2 7875   0.300   2.726   9.535
 2330SOL     OW 7876   1.479   2.602  10.036
 2330SOL    HW1 7877   1.467   2.561  10.122
 2330SOL    HW2 7878   1.555   2.659  10.047
 2331SOL     OW 7879   0.455   3.130  11.052
 2331SOL    HW1 7880   0.426   3.142  10.961
 2331SOL    HW2 7881   0.387   3.075  11.091
 2332SOL     OW 7882   1.121   3.640   9.541
 2332SOL    HW1 7883   1.049   3.598   9.587
 2332SOL    HW2 7884   1.144   3.579   9.471
 2333SOL     OW 7885   0.193   2.139  10.797
 2333SOL    HW1 7886   0.138   2.216  10.804
 2333SOL    HW2 7887   0.188   2.097  10.883
 2334SOL     OW 7888   1.629   3.242   9.397
 2334SOL    HW1 7889   1.587   3.327   9.382
 2334SOL    HW2 7890   1.560   3.178   9.379
 2335SOL     OW 7891   0.469   3.606   9.624
 2335SOL    HW1 7892   0.511   3.659   9.692
 2335SOL    HW2 7893   0.542   3.571   9.572
 2336SOL     OW 7894   1.400   1.971   9.742
 2336SOL    HW1 7895   1.390   1.944   9.650
 2336SOL    HW2 7896   1.494   1.973   9.756
 2337SOL     OW 7897   0.257   3.654  10.544
 2337SOL    HW1 7898   0.305   3.582  10.584
 2337SOL    HW2 7899   0.228   3.621  10.459
 2338SOL     OW 7900   0.938   3.560  10.209
 2338SOL    HW1 7901   1.016   3.508  10.229
 2338SOL    HW2 7902   0.894   3.511  10.140
 2339SOL     OW 7903   0.394   2.557   9.783
 2339SOL    HW1 7904   0.418   2.465   9.794
 2339SOL    HW2 7905   0.302   2.561   9.809
 2340SOL     OW 7906   0.634   1.987   9.413
 2340SOL    HW1 7907   0.703   1.922   9.429
 2340SOL    HW2 7908   0.586   1.953   9.338
 2341SOL     OW 7909   0.770   2.135  11.046
 2341SOL    HW1 7910   0.834   2.077  11.087
 2341SOL    HW2 7911   0.708   2.156   0.016
 2342SOL     OW 7912   0.876   3.384  10.503
 2342SOL    HW1 7913   0.860   3.348  10.416
 2342SOL    HW2 7914   0.948   3.331  10.538
 2343SOL     OW 7915   1.343   2.452  10.753
 2343SOL    HW1 7916   1.394   2.430  10.831
 2343SOL    HW2 7917   1.371   2.540  10.730
 2344SOL     OW 7918   0.815   3.258  10.249
 2344SOL    HW1 7919   0.899   3.247  10.204
 2344SOL    HW2 7920   0.750   3.258  10.178
 2345SOL     OW 7921   0.928   2.371  10.214
 2345SOL    HW1 7922   0.904   2.363  10.121
 2345SOL    HW2 7923   0.959   2.284  10.238
 2346SOL     OW 7924   0.552   1.924   9.812
 2346SOL    HW1 7925   0.471   1.922   9.863
 2346SOL    HW2 7926   0.544   2.002   9.758
 2347SOL     OW 7927   1.428   3.060   9.351
 2347SOL    HW1 7928   1.458   2.984   9.401
 2347SOL    HW2 7929   1.342   3.081   9.388
 2348SOL     OW 7930   0.295   1.908   9.488
 2348SOL    HW1 7931   0.358   1.975   9.461
 2348SOL    HW2 7932   0.348   1.842   9.533
 2349SOL     OW 7933   0.938   2.108   9.771
 2349SOL    HW1 7934   0.910   2.150   9.689
 2349SOL    HW2 7935   1.032   2.121   9.774
 2350SOL     OW 7936   1.079   2.547  10.771
 2350SOL    HW1 7937   1.008   2.482  10.775
 2350SOL    HW2 7938   1.159   2.495  10.768
 2351SOL     OW 7939   1.224   3.432  10.104
 2351SOL    HW1 7940   1.240   3.499  10.037
 2351SOL    HW2 7941   1.292   3.446  10.170
 2352SOL     OW 7942   0.466   3.011  10.046
 2352SOL    HW1 7943   0.395   2.992  10.107
 2352SOL    HW2 7944   0.428   2.995   9.960
 2353SOL     OW 7945   1.270   3.656   9.918
 2353SOL    HW1 7946   1.315   3.717   9.860
 2353SOL    HW2 7947   1.204   3.709   9.962
 2354SOL     OW 7948   1.024   2.405   9.332
 2354SOL    HW1 7949   0.981   2.488   9.311
 2354SOL    HW2 7950   1.089   2.427   9.398
 2355SOL     OW 7951   0.075   2.391  10.716
 2355SOL    HW1 7952   0.147   2.391  10.652
 2355SOL    HW2 7953   0.069   2.481  10.746
 2356SOL     OW 7954   0.560   2.090  10.476
 2356SOL    HW1 7955   0.601   2.011  10.511
 2356SOL    HW2 7956   0.469   2.083  10.503
 2357SOL     OW 7957   0.869   2.322   9.950
 2357SOL    HW1 7958   0.822   2.375   9.886
 2357SOL    HW2 7959   0.889   2.241   9.903
 2358SOL     OW 7960   1.015   1.915  10.062
 2358SOL    HW1 7961   0.957   1.908   9.987
 2358SOL    HW2 7962   0.994   1.839  10.117
 2359SOL     OW 7963   1.436   3.025  10.167
 2359SOL    HW1 7964   1.368   2.958  10.166
 2359SOL    HW2 7965   1.459   3.037  10.075
 2360SOL     OW 7966   1.465   2.468  10.289
 2360SOL    HW1 7967   1.416   2.386  10.290
 2360SOL    HW2 7968   1.525   2.462  10.363
 2361SOL     OW 7969   1.846   2.677   9.692
 2361SOL    HW1 7970   1.902   2.626   9.751
 2361SOL    HW2 7971   1.822   2.615   9.623
 2362SOL     OW 7972   0.492   3.279   9.470
 2362SOL    HW1 7973   0.415   3.250   9.519
 2362SOL    HW2 7974   0.474   3.253   9.379
 2363SOL     OW 7975   1.669   3.127   9.956
 2363SOL    HW1 7976   1.764   3.131   9.970
 2363SOL    HW2 7977   1.638   3.215   9.977
 2364SOL     OW 7978   1.394   2.434   9.381
 2364SOL    HW1 7979   1.333   2.415   9.453
 2364SOL    HW2 7980   1.477   2.398   9.411
 2365SOL     OW 7981   0.525   2.122   9.628
 2365SOL    HW1 7982   0.570   2.076   9.558
 2365SOL    HW2 7983   0.506   2.208   9.591
 2366SOL     OW 7984   1.759   3.091  10.869
 2366SOL    HW1 7985   1.851   3.063  10.871
 2366SOL    HW2 7986   1.759   3.177  10.910
 2367SOL     OW 7987   1.064   3.216  10.650
 2367SOL    HW1 7988   0.986   3.183  10.694
 2367SOL    HW2 7989   1.136   3.168  10.690
 2368SOL     OW 7990   1.128   3.068  10.416
 2368SOL    HW1 7991   1.064   3.102  10.477
 2368SOL    HW2 7992   1.097   3.096  10.330
 2369SOL     OW 7993   1.630   2.961  10.388
 2369SOL    HW1 7994   1.626   3.023  10.461
 2369SOL    HW2 7995   1.550   2.978  10.338
 2370SOL     OW 7996   0.917   1.961  10.706
 2370SOL    HW1 7997   0.941   1.941  10.615
 2370SOL    HW2 7998   0.996   2.002  10.743
 2371SOL     OW 7999   0.709   2.923   9.682
 2371SOL    HW1 8000   0.695   2.907   9.776
 2371SOL    HW2 8001   0.784   2.870   9.659
 2372SOL     OW 8002   0.428   2.685  10.552
 2372SOL    HW1 8003   0.497   2.695  10.618
 2372SOL    HW2 8004   0.369   2.621  10.589
 2373SOL     OW 8005   1.267   2.241  10.587
 2373SOL    HW1 8006   1.299   2.318  10.633
 2373SOL    HW2 8007   1.177   2.263  10.561
 2374SOL     OW 8008   0.063   3.440  10.656
 2374SOL    HW1 8009   0.038   3.527  10.623
 2374SOL    HW2 8010   0.159   3.442  10.658
 2375SOL     OW 8011   0.348   2.970   9.803
 2375SOL    HW1 8012   0.356   3.043   9.742
 2375SOL    HW2 8013   0.348   2.892   9.747
 2376SOL     OW 8014   0.561   2.395  10.166
 2376SOL    HW1 8015   0.575   2.455  10.092
 2376SOL    HW2 8016   0.622   2.426  10.233
 2377SOL     OW 8017   1.248   3.210   9.699
 2377SOL    HW1 8018   1.304   3.282   9.730
 2377SOL    HW2 8019   1.161   3.231   9.733
 2378SOL     OW 8020   1.279   3.320  10.455
 2378SOL    HW1 8021   1.336   3.323  10.532
 2378SOL    HW2 8022   1.226   3.242  10.467
 2379SOL     OW 8023   1.580   2.487   9.782
 2379SOL    HW1 8024   1.534   2.535   9.851
 2379SOL    HW2 8025   1.630   2.554   9.736
 2380SOL     OW 8026   0.346   3.390  10.624
 2380SOL    HW1 8027   0.333   3.344  10.542
 2380SOL    HW2 8028   0.441   3.403  10.631
 2381SOL     OW 8029   0.485   2.608  10.969
 2381SOL    HW1 8030   0.520   2.645  10.887
 2381SOL    HW2 8031   0.523   2.520  10.973
 2382SOL     OW 8032   1.595   2.622  10.965
 2382SOL    HW1 8033   1.517   2.678  10.964
 2382SOL    HW2 8034   1.663   2.675  10.924
 2383SOL     OW 8035   0.590   2.735  10.335
 2383SOL    HW1 8036   0.616   2.827  10.337
 2383SOL    HW2 8037   0.532   2.726  10.411
 2384SOL     OW 8038   1.358   2.723  10.344
 2384SOL    HW1 8039   1.276   2.714  10.296
 2384SOL    HW2 8040   1.398   2.636  10.339
 2385SOL     OW 8041   1.206   2.391   9.578
 2385SOL    HW1 8042   1.213   2.312   9.632
 2385SOL    HW2 8043   1.163   2.455   9.634
 2386SOL     OW 8044   0.301   2.054  10.551
 2386SOL    HW1 8045   0.264   2.089  10.633
 2386SOL    HW2 8046   0.284   1.960  10.555
 2387SOL     OW 8047   0.042   3.177  10.595
 2387SOL    HW1 8048   0.076   3.128  10.670
 2387SOL    HW2 8049   0.044   3.268  10.623
 2388SOL     OW 8050   0.726   2.494  10.369
 2388SOL    HW1 8051   0.799   2.476  10.310
 2388SOL    HW2 8052   0.698   2.583  10.345
 2389SOL     OW 8053   0.310   1.932   9.929
 2389SOL    HW1 8054   0.287   2.021   9.956
 2389SOL    HW2 8055   0.307   1.880  10.010
 2390SOL     OW 8056   1.621   2.235   9.680
 2390SOL    HW1 8057   1.641   2.173   9.750
 2390SOL    HW2 8058   1.595   2.315   9.725
 2391SOL     OW 8059   1.027   2.621  10.271
 2391SOL    HW1 8060   1.025   2.639  10.365
 2391SOL    HW2 8061   1.001   2.529  10.263
 2392SOL     OW 8062   0.974   3.435  11.004
 2392SOL    HW1 8063   0.960   3.484  10.923
 2392SOL    HW2 8064   1.003   3.348  10.974
 2393SOL     OW 8065   1.857   3.356  10.911
 2393SOL    HW1 8066   1.873   3.391  10.824
 2393SOL    HW2 8067   1.923   3.398  10.966
 2394SOL     OW 8068   0.348   2.796  11.094
 2394SOL    HW1 8069   0.422   2.825   0.048
 2394SOL    HW2 8070   0.383   2.723  11.042
 2395SOL     OW 8071   1.529   2.136   9.440
 2395SOL    HW1 8072   1.463   2.070   9.464
 2395SOL    HW2 8073   1.560   2.171   9.523
 2396SOL     OW 8074   1.293   2.689   9.342
 2396SOL    HW1 8075   1.335   2.603   9.345
 2396SOL    HW2 8076   1.323   2.727   9.260
 2397SOL     OW 8077   1.066   3.197  10.164
 2397SOL    HW1 8078   1.069   3.125  10.101
 2397SOL    HW2 8079   1.127   3.261  10.128
 2398SOL     OW 8080   0.317   2.673  10.258
 2398SOL    HW1 8081   0.412   2.690  10.254
 2398SOL    HW2 8082   0.310   2.582  10.287
 2399SOL     OW 8083   0.331   2.386  10.301
 2399SOL    HW1 8084   0.293   2.300  10.286
 2399SOL    HW2 8085   0.410   2.388  10.246
 2400SOL     OW 8086   1.156   2.071  10.782
 2400SOL    HW1 8087   1.170   2.127  10.858
 2400SOL    HW2 8088   1.197   2.118  10.709
 2401SOL     OW 8089   4.492   3.184   9.514
 2401SOL    HW1 8090   4.399   3.200   9.496
 2401SOL    HW2 8091   4.496   3.091   9.536
 2402SOL     OW 8092   0.097   3.638  10.250
 2402SOL    HW1 8093   0.058   3.584  10.181
 2402SOL    HW2 8094   0.184   3.660  10.218
 2403SOL     OW 8095   0.497   3.436  10.217
 2403SOL    HW1 8096   0.565   3.499  10.240
 2403SOL    HW2 8097   0.541   3.373  10.160
 2404SOL     OW 8098   0.984   2.656  10.537
 2404SOL    HW1 8099   1.039   2.633  10.612
 2404SOL    HW2 8100   0.898   2.619  10.557
 2405SOL     OW 8101   0.033   2.422  10.412
 2405SOL    HW1 8102   0.119   2.391  10.384
 2405SOL    HW2 8103   0.023   2.387  10.501
 2406SOL     OW 8104   0.817   2.431   9.669
 2406SOL    HW1 8105   0.820   2.356   9.609
 2406SOL    HW2 8106   0.743   2.484   9.638
 2407SOL     OW 8107   1.642   2.465  10.496
 2407SOL    HW1 8108   1.635   2.405  10.570
 2407SOL    HW2 8109   1.730   2.451  10.461
 2408SOL     OW 8110   0.264   3.435  11.056
 2408SOL    HW1 8111   0.210   3.461   0.031
 2408SOL    HW2 8112   0.245   3.342  11.044
 2409SOL     OW 8113   0.697   2.315  10.571
 2409SOL    HW1 8114   0.646   2.240  10.540
 2409SOL    HW2 8115   0.694   2.377  10.498
 2410SOL     OW 8116   0.940   3.544  10.758
 2410SOL    HW1 8117   0.902   3.511  10.677
 2410SOL    HW2 8118   0.925   3.639  10.755
 2411SOL     OW 8119   0.472   2.352   9.496
 2411SOL    HW1 8120   0.531   2.424   9.519
 2411SOL    HW2 8121   0.388   2.395   9.480
 2412SOL     OW 8122   0.163   3.004  10.769
 2412SOL    HW1 8123   0.138   2.963  10.852
 2412SOL    HW2 8124   0.169   2.931  10.707
 2413SOL     OW 8125   1.325   2.915  10.538
 2413SOL    HW1 8126   1.351   2.850  10.473
 2413SOL    HW2 8127   1.255   2.964  10.496
 2414SOL     OW 8128   1.311   2.719   9.617
 2414SOL    HW1 8129   1.235   2.688   9.666
 2414SOL    HW2 8130   1.286   2.705   9.525
 2415SOL     OW 8131   1.772   3.608  10.461
 2415SOL    HW1 8132   1.832   3.633  10.390
 2415SOL    HW2 8133   1.747   3.517  10.440
 2416SOL     OW 8134   1.241   3.596  10.424
 2416SOL    HW1 8135   1.323   3.617  10.379
 2416SOL    HW2 8136   1.246   3.502  10.441
 2417SOL     OW 8137   0.067   3.047  10.359
 2417SOL    HW1 8138   0.068   3.080  10.449
 2417SOL    HW2 8139   0.020   3.115  10.310
 2418SOL     OW 8140   1.712   2.006   9.834
 2418SOL    HW1 8141   1.771   1.988   9.761
 2418SOL    HW2 8142   1.696   1.920   9.873
 2419SOL     OW 8143   1.391   3.430   9.794
 2419SOL    HW1 8144   1.451   3.462   9.727
 2419SOL    HW2 8145   1.342   3.507   9.822
 2420SOL     OW 8146   1.278   2.787   9.981
 2420SOL    HW1 8147   1.351   2.726   9.986
 2420SOL    HW2 8148   1.311   2.860   9.929
 2421SOL     OW 8149   0.818   3.136  10.738
 2421SOL    HW1 8150   0.788   3.170  10.822
 2421SOL    HW2 8151   0.748   3.157  10.677
 2422SOL     OW 8152   0.673   3.481   9.465
 2422SOL    HW1 8153   0.682   3.492   9.371
 2422SOL    HW2 8154   0.618   3.403   9.474
 2423SOL     OW 8155   1.623   3.582  10.697
 2423SOL    HW1 8156   1.677   3.596  10.619
 2423SOL    HW2 8157   1.608   3.669  10.732
 2424SOL     OW 8158   1.824   2.037  10.283
 2424SOL    HW1 8159   1.867   1.956  10.258
 2424SOL    HW2 8160   1.742   2.036  10.233
 2425SOL     OW 8161   0.265   2.182  10.029
 2425SOL    HW1 8162   0.182   2.221  10.001
 2425SOL    HW2 8163   0.255   2.169  10.123
 2426SOL     OW 8164   1.207   3.468   9.341
 2426SOL    HW1 8165   1.198   3.377   9.369
 2426SOL    HW2 8166   1.142   3.480   9.272
 2427SOL     OW 8167   0.826   2.868  10.685
 2427SOL    HW1 8168   0.868   2.862  10.600
 2427SOL    HW2 8169   0.826   2.962  10.706
 2428SOL     OW 8170   0.916   2.773   9.600
 2428SOL    HW1 8171   0.977   2.805   9.534
 2428SOL    HW2 8172   0.963   2.703   9.644
 2429SOL     OW 8173   1.492   3.487   9.352
 2429SOL    HW1 8174   1.398   3.481   9.339
 2429SOL    HW2 8175   1.529   3.493   9.264
 2430SOL     OW 8176   0.368   3.173  10.806
 2430SOL    HW1 8177   0.355   3.248  10.747
 2430SOL    HW2 8178   0.297   3.113  10.785
 2431SOL     OW 8179   1.613   3.144  10.593
 2431SOL    HW1 8180   1.669   3.131  10.670
 2431SOL    HW2 8181   1.556   3.216  10.617
 2432SOL     OW 8182   1.051   2.969  10.016
 2432SOL    HW1 8183   0.980   2.918  10.055
 2432SOL    HW2 8184   1.113   2.903   9.983
 2433SOL     OW 8185   1.021   2.102  10.276
 2433SOL    HW1 8186   1.016   2.054  10.194
 2433SOL    HW2 8187   1.016   2.034  10.344
 2434SOL     OW 8188   0.604   3.352   9.793
 2434SOL    HW1 8189   0.645   3.302   9.722
 2434SOL    HW2 8190   0.530   3.395   9.751
 2435SOL     OW 8191   1.721   2.260  10.687
 2435SOL    HW1 8192   1.800   2.313  10.688
 2435SOL    HW2 8193   1.742   2.185  10.632
 2436SOL     OW 8194   0.252   3.206   9.587
 2436SOL    HW1 8195   0.157   3.206   9.572
 2436SOL    HW2 8196   0.262   3.238   9.676
 2437SOL     OW 8197   0.110   2.882  11.003
 2437SOL    HW1 8198   0.052   2.884  11.079
 2437SOL    HW2 8199   0.197   2.862  11.040
 2438SOL     OW 8200   0.674   2.059  10.803
 2438SOL    HW1 8201   0.756   2.036  10.758
 2438SOL    HW2 8202   0.702   2.092  10.888
 2439SOL     OW 8203   0.072   2.187   9.342
 2439SOL    HW1 8204   4.477   2.199   9.347
 2439SOL    HW2 8205   0.104   2.269   9.304
 2440SOL     OW 8206   1.429   2.711  10.709
 2440SOL    HW1 8207   1.381   2.780  10.662
 2440SOL    HW2 8208   1.520   2.720  10.679
 2441SOL     OW 8209   0.086   2.039   9.615
 2441SOL    HW1 8210   0.079   2.111   9.552
 2441SOL    HW2 8211   0.161   1.988   9.586
 2442SOL     OW 8212   1.179   3.202   9.427
 2442SOL    HW1 8213   1.088   3.172   9.429
 2442SOL    HW2 8214   1.207   3.202   9.518
 2443SOL     OW 8215   0.624   2.691  10.739
 2443SOL    HW1 8216   0.679   2.768  10.726
 2443SOL    HW2 8217   0.686   2.618  10.747
 2444SOL     OW 8218   1.484   3.638  10.287
 2444SOL    HW1 8219   1.509   3.697  10.217
 2444SOL    HW2 8220   1.566   3.620  10.334
 2445SOL     OW 8221   0.716   2.425  11.014
 2445SOL    HW1 8222   0.748   2.498  11.067
 2445SOL    HW2 8223   0.767   2.350  11.043
 2446SOL     OW 8224   0.383   3.599  10.872
 2446SOL    HW1 8225   0.306   3.656  10.865
 2446SOL    HW2 8226   0.356   3.530  10.932
 2447SOL     OW 8227   1.672   2.745  10.568
 2447SOL    HW1 8228   1.661   2.659  10.525
 2447SOL    HW2 8229   1.662   2.808  10.496
 2448SOL     OW 8230   1.217   2.182   9.768
 2448SOL    HW1 8231   1.280   2.110   9.759
 2448SOL    HW2 8232   1.246   2.230   9.845
 2449SOL     OW 8233   0.590   2.600   9.979
 2449SOL    HW1 8234   0.628   2.687   9.963
 2449SOL    HW2 8235   0.521   2.592   9.913
 2450SOL     OW 8236   1.735   2.166  10.948
 2450SOL    HW1 8237   1.730   2.210  10.864
 2450SOL    HW2 8238   1.661   2.199  10.998
 2451SOL     OW 8239   1.754   2.798  10.825
 2451SOL    HW1 8240   1.743   2.891  10.840
 2451SOL    HW2 8241   1.733   2.785  10.732
 2452SOL     OW 8242   0.864   3.230   9.344
 2452SOL    HW1 8243   0.824   3.256   9.426
 2452SOL    HW2 8244   0.881   3.312   9.297
 2453SOL     OW 8245   0.661   3.654  10.256
 2453SOL    HW1 8246   0.639   3.744  10.232
 2453SOL    HW2 8247   0.756   3.649  10.247
 2454SOL     OW 8248   0.867   2.829  10.165
 2454SOL    HW1 8249   0.917   2.757  10.204
 2454SOL    HW2 8250   0.833   2.878  10.240
 2455SOL     OW 8251   1.080   2.851   9.399
 2455SOL    HW1 8252   1.057   2.901   9.320
 2455SOL    HW2 8253   1.154   2.797   9.373
 2456SOL     OW 8254   1.855   3.416  10.154
 2456SOL    HW1 8255   1.776   3.406  10.100
 2456SOL    HW2 8256   1.845   3.351  10.224
 2457SOL     OW 8257   0.106   3.099   9.978
 2457SOL    HW1 8258   0.116   3.051  10.060
 2457SOL    HW2 8259   0.165   3.054   9.917
 2458SOL     OW 8260   0.680   3.257  10.939
 2458SOL    HW1 8261   0.608   3.206  10.975
 2458SOL    HW2 8262   0.645   3.346  10.932
 2459SOL     OW 8263   1.779   2.039  10.545
 2459SOL    HW1 8264   1.804   1.948  10.561
 2459SOL    HW2 8265   1.798   2.053  10.452
 2460SOL     OW 8266   0.435   2.295   9.836
 2460SOL    HW1 8267   0.459   2.222   9.779
 2460SOL    HW2 8268   0.384   2.256   9.906
 2461SOL     OW 8269   1.702   3.352  10.407
 2461SOL    HW1 8270   1.620   3.327  10.363
 2461SOL    HW2 8271   1.715   3.284  10.472
 2462SOL     OW 8272   0.300   2.352  10.566
 2462SOL    HW1 8273   0.371   2.311  10.614
 2462SOL    HW2 8274   0.334   2.364  10.477
 2463SOL     OW 8275   0.827   3.440   9.988
 2463SOL    HW1 8276   0.816   3.492   9.909
 2463SOL    HW2 8277   0.750   3.383   9.991
 2464SOL     OW 8278   1.432   2.087  10.427
 2464SOL    HW1 8279   1.465   2.010  10.473
 2464SOL    HW2 8280   1.381   2.134  10.492
 2465SOL     OW 8281   1.008   1.881  10.454
 2465SOL    HW1 8282   0.954   1.814  10.413
 2465SOL    HW2 8283   1.096   1.843  10.455
 2466SOL     OW 8284   0.772   3.194   9.623
 2466SOL    HW1 8285   0.740   3.104   9.629
 2466SOL    HW2 8286   0.854   3.194   9.672
 2467SOL     OW 8287   0.620   3.417  10.597
 2467SOL    HW1 8288   0.621   3.501  10.644
 2467SOL    HW2 8289   0.707   3.412  10.557
 2468SOL     OW 8290   1.352   1.915   9.475
 2468SOL    HW1 8291   1.380   1.853   9.407
 2468SOL    HW2 8292   1.265   1.885   9.501
 2469SOL     OW 8293   1.298   2.324   9.992
 2469SOL    HW1 8294   1.242   2.401   9.999
 2469SOL    HW2 8295   1.292   2.283  10.078
 2470SOL     OW 8296   1.575   2.060  10.181
 2470SOL    HW1 8297   1.521   2.080  10.257
 2470SOL    HW2 8298   1.578   2.142  10.131
 2471SOL     OW 8299   0.041   2.914   9.598
 2471SOL    HW1 8300   0.135   2.898   9.588
 2471SOL    HW2 8301   0.020   2.880   9.685
 2472SOL     OW 8302   0.884   3.514   9.653
 2472SOL    HW1 8303   0.812   3.496   9.593
 2472SOL    HW2 8304   0.854   3.589   9.704
 2473SOL     OW 8305   0.206   4.283   0.085
 2473SOL    HW1 8306   0.152   4.312   0.158
 2473SOL    HW2 8307   0.229   4.363   0.038
 2474SOL     OW 8308   0.209   3.996   0.991
 2474SOL    HW1 8309   0.245   3.968   1.076
 2474SOL    HW2 8310   0.134   3.937   0.977
 2475SOL     OW 8311   4.499   4.101   0.629
 2475SOL    HW1 8312   4.418   4.127   0.673
 2475SOL    HW2 8313   4.480   4.015   0.592
 2476SOL     OW 8314   1.731   4.332   0.230
 2476SOL    HW1 8315   1.750   4.308   0.139
 2476SOL    HW2 8316   1.726   4.249   0.277
 2477SOL     OW 8317   0.734   0.269   0.685
 2477SOL    HW1 8318   0.721   0.204   0.754
 2477SOL    HW2 8319   0.646   0.289   0.653
 2478SOL     OW 8320   0.445   4.120   1.489
 2478SOL    HW1 8321   0.526   4.069   1.491
 2478SOL    HW2 8322   0.375   4.055   1.498
 2479SOL     OW 8323   1.615   4.172   0.741
 2479SOL    HW1 8324   1.548   4.197   0.678
 2479SOL    HW2 8325   1.616   4.243   0.805
 2480SOL     OW 8326   1.597   3.847   1.469
 2480SOL    HW1 8327   1.600   3.927   1.417
 2480SOL    HW2 8328   1.582   3.877   1.559
 2481SOL     OW 8329   0.164   4.320   0.633
 2481SOL    HW1 8330   0.103   4.248   0.619
 2481SOL    HW2 8331   0.118   4.398   0.602
 2482SOL     OW 8332   0.121   0.002   1.589
 2482SOL    HW1 8333   0.215   4.485   1.588
 2482SOL    HW2 8334   0.112   0.088   1.547
 2483SOL     OW 8335   0.816   3.725   0.508
 2483SOL    HW1 8336   0.854   3.812   0.492
 2483SOL    HW2 8337   0.722   3.742   0.517
 2484SOL     OW 8338   0.329   3.979   1.799
 2484SOL    HW1 8339   0.374   4.058   1.830
 2484SOL    HW2 8340   0.240   3.987   1.833
 2485SOL     OW 8341   1.277   4.073   0.933
 2485SOL    HW1 8342   1.188   4.039   0.942
 2485SOL    HW2 8343   1.329   4.021   0.994
 2486SOL     OW 8344   0.827   4.305   1.448
 2486SOL    HW1 8345   0.787   4.310   1.535
 2486SOL    HW2 8346   0.759   4.267   1.392
 2487SOL     OW 8347   1.395   4.199   1.676
 2487SOL    HW1 8348   1.397   4.244   1.761
 2487SOL    HW2 8349   1.454   4.125   1.687
 2488SOL     OW 8350   0.998   4.150   1.233
 2488SOL    HW1 8351   0.925   4.170   1.292
 2488SOL    HW2 8352   0.959   4.090   1.168
 2489SOL     OW 8353   1.060   4.403   0.423
 2489SOL    HW1 8354   1.056   4.457   0.501
 2489SOL    HW2 8355   0.968   4.382   0.404
 2490SOL     OW 8356   0.052   0.053   0.846
 2490SOL    HW1 8357   0.143   0.024   0.856
 2490SOL    HW2 8358   0.052   0.107   0.767
 2491SOL     OW 8359   0.887   4.073   0.209
 2491SOL    HW1 8360   0.932   4.131   0.148
 2491SOL    HW2 8361   0.901   3.985   0.174
 2492SOL     OW 8362   1.707   4.298   1.829
 2492SOL    HW1 8363   1.720   4.387   1.795
 2492SOL    HW2 8364   1.730   4.241   1.756
 2493SOL     OW 8365   0.552   3.905   0.893
 2493SOL    HW1 8366   0.554   3.936   0.984
 2493SOL    HW2 8367   0.548   3.985   0.841
 2494SOL     OW 8368   1.487   4.464   0.739
 2494SOL    HW1 8369   1.471   4.409   0.816
 2494SOL    HW2 8370   1.529   0.043   0.773
 2495SOL     OW 8371   0.190   4.000   1.485
 2495SOL    HW1 8372   0.138   4.081   1.494
 2495SOL    HW2 8373   0.183   3.958   1.571
 2496SOL     OW 8374   1.402   3.830   0.431
 2496SOL    HW1 8375   1.393   3.808   0.338
 2496SOL    HW2 8376   1.496   3.840   0.445
 2497SOL     OW 8377   0.349   4.376   0.403
 2497SOL    HW1 8378   0.394   4.304   0.446
 2497SOL    HW2 8379   0.299   4.418   0.474
 2498SOL     OW 8380   1.535   3.950   1.725
 2498SOL    HW1 8381   1.544   3.971   1.818
 2498SOL    HW2 8382   1.467   3.883   1.722
 2499SOL     OW 8383   0.617   3.833   0.122
 2499SOL    HW1 8384   0.705   3.798   0.121
 2499SOL    HW2 8385   0.581   3.812   0.036
 2500SOL     OW 8386   0.766   4.002   1.755
 2500SOL    HW1 8387   0.842   3.944   1.755
 2500SOL    HW2 8388   0.717   3.978   1.833
 2501SOL     OW 8389   1.343   4.312   1.429
 2501SOL    HW1 8390   1.365   4.275   1.515
 2501SOL    HW2 8391   1.385   4.398   1.428
 2502SOL     OW 8392   0.923   4.235   0.899
 2502SOL    HW1 8393   0.901   4.220   0.808
 2502SOL    HW2 8394   0.963   4.153   0.929
 2503SOL     OW 8395   0.553   3.786   0.504
 2503SOL    HW1 8396   0.471   3.783   0.553
 2503SOL    HW2 8397   0.545   3.864   0.449
 2504SOL     OW 8398   0.285   3.772   0.192
 2504SOL    HW1 8399   0.332   3.824   0.127
 2504SOL    HW2 8400   0.349   3.708   0.223
 2505SOL     OW 8401   0.939   3.973   0.464
 2505SOL    HW1 8402   0.912   4.013   0.382
 2505SOL    HW2 8403   1.034   3.986   0.467
 2506SOL     OW 8404   1.075   4.396   1.521
 2506SOL    HW1 8405   0.992   4.366   1.484
 2506SOL    HW2 8406   1.142   4.356   1.465
 2507SOL     OW 8407   1.008   4.264   0.041
 2507SOL    HW1 8408   1.020   4.322  11.066
 2507SOL    HW2 8409   1.089   4.273   0.091
 2508SOL     OW 8410   0.085   4.257   1.410
 2508SOL    HW1 8411   0.158   4.270   1.350
 2508SOL    HW2 8412   0.052   4.346   1.426
 2509SOL     OW 8413   0.560   3.951   1.165
 2509SOL    HW1 8414   0.601   3.871   1.199
 2509SOL    HW2 8415   0.469   3.946   1.194
 2510SOL     OW 8416   0.869   4.189   0.640
 2510SOL    HW1 8417   0.838   4.251   0.574
 2510SOL    HW2 8418   0.887   4.109   0.590
 2511SOL     OW 8419   1.014   3.777   0.752
 2511SOL    HW1 8420   0.956   3.769   0.676
 2511SOL    HW2 8421   0.994   3.701   0.806
 2512SOL     OW 8422   1.477   4.312   0.967
 2512SOL    HW1 8423   1.419   4.238   0.986
 2512SOL    HW2 8424   1.528   4.324   1.047
 2513SOL     OW 8425   1.401   4.293   0.072
 2513SOL    HW1 8426   1.335   4.276   0.140
 2513SOL    HW2 8427   1.468   4.226   0.087
 2514SOL     OW 8428   0.527   3.989   0.325
 2514SOL    HW1 8429   0.554   3.929   0.256
 2514SOL    HW2 8430   0.511   4.072   0.280
 2515SOL     OW 8431   0.917   3.823   1.396
 2515SOL    HW1 8432   0.941   3.801   1.306
 2515SOL    HW2 8433   0.997   3.861   1.434
 2516SOL     OW 8434   0.442   0.004   1.262
 2516SOL    HW1 8435   0.498   0.002   1.339
 2516SOL    HW2 8436   0.404   4.416   1.258
 2517SOL     OW 8437   1.266   4.100   1.275
 2517SOL    HW1 8438   1.299   4.177   1.320
 2517SOL    HW2 8439   1.177   4.124   1.249
 2518SOL     OW 8440   0.556   4.254   0.864
 2518SOL    HW1 8441   0.576   4.294   0.780
 2518SOL    HW2 8442   0.621   4.289   0.924
 2519SOL     OW 8443   1.579   4.339   0.481
 2519SOL    HW1 8444   1.536   4.404   0.536
 2519SOL    HW2 8445   1.623   4.390   0.413
 2520SOL     OW 8446   0.996   3.847   1.755
 2520SOL    HW1 8447   1.052   3.919   1.728
 2520SOL    HW2 8448   1.044   3.768   1.730
 2521SOL     OW 8449   0.497   3.767   1.747
 2521SOL    HW1 8450   0.456   3.710   1.682
 2521SOL    HW2 8451   0.437   3.841   1.756
 2522SOL     OW 8452   1.211   4.250   0.264
 2522SOL    HW1 8453   1.222   4.172   0.317
 2522SOL    HW2 8454   1.162   4.311   0.321
 2523SOL     OW 8455   0.299   3.923   1.244
 2523SOL    HW1 8456   0.259   3.951   1.327
 2523SOL    HW2 8457   0.286   3.828   1.242
 2524SOL     OW 8458   0.734   4.360   1.046
 2524SOL    HW1 8459   0.806   4.322   0.996
 2524SOL    HW2 8460   0.741   4.454   1.032
 2525SOL     OW 8461   1.751   0.133   1.855
 2525SOL    HW1 8462   1.687   0.148   1.785
 2525SOL    HW2 8463   1.707   0.160   1.935
 2526SOL     OW 8464   0.311   3.794   0.619
 2526SOL    HW1 8465   0.286   3.882   0.647
 2526SOL    HW2 8466   0.306   3.742   0.699
 2527SOL     OW 8467   1.615   4.092   0.368
 2527SOL    HW1 8468   1.644   4.029   0.434
 2527SOL    HW2 8469   1.592   4.170   0.417
 2528SOL     OW 8470   1.535   4.013   0.116
 2528SOL    HW1 8471   1.475   3.940   0.132
 2528SOL    HW2 8472   1.567   4.037   0.203
 2529SOL     OW 8473   0.317   0.017   0.916
 2529SOL    HW1 8474   0.399   0.066   0.923
 2529SOL    HW2 8475   0.332   4.439   0.969
 2530SOL     OW 8476   0.334   4.237   1.011
 2530SOL    HW1 8477   0.290   4.155   0.988
 2530SOL    HW2 8478   0.409   4.243   0.952
 2531SOL     OW 8479   1.137   4.094   1.685
 2531SOL    HW1 8480   1.085   4.153   1.740
 2531SOL    HW2 8481   1.222   4.138   1.676
 2532SOL     OW 8482   1.160   3.927   1.469
 2532SOL    HW1 8483   1.151   3.988   1.542
 2532SOL    HW2 8484   1.200   3.979   1.399
 2533SOL     OW 8485   0.025   4.279   1.107
 2533SOL    HW1 8486   0.110   4.258   1.069
 2533SOL    HW2 8487   0.026   4.239   1.193
 2534SOL     OW 8488   0.176   4.236   1.694
 2534SOL    HW1 8489   0.263   4.218   1.659
 2534SOL    HW2 8490   0.149   4.316   1.649
 2535SOL     OW 8491   0.814   4.309   0.328
 2535SOL    HW1 8492   0.825   4.223   0.288
 2535SOL    HW2 8493   0.720   4.316   0.345
 2536SOL     OW 8494   1.637   4.318   1.187
 2536SOL    HW1 8495   1.632   4.259   1.263
 2536SOL    HW2 8496   1.725   4.305   1.152
 2537SOL     OW 8497   0.675   4.187   1.258
 2537SOL    HW1 8498   0.638   4.105   1.224
 2537SOL    HW2 8499   0.684   4.243   1.181
 2538SOL     OW 8500   0.475   4.217   0.183
 2538SOL    HW1 8501   0.520   4.301   0.193
 2538SOL    HW2 8502   0.382   4.239   0.186
 2539SOL     OW 8503   0.918   3.814   0.106
 2539SOL    HW1 8504   0.968   3.778   0.033
 2539SOL    HW2 8505   0.955   3.772   0.184
 2540SOL     OW 8506   1.720   3.869   0.511
 2540SOL    HW1 8507   1.792   3.856   0.450
 2540SOL    HW2 8508   1.705   3.783   0.550
 2541SOL     OW 8509   1.278   0.137   0.682
 2541SOL    HW1 8510   1.335   0.060   0.691
 2541SOL    HW2 8511   1.327   0.196   0.625
 2542SOL     OW 8512   1.839   3.896   0.967
 2542SOL    HW1 8513   1.868   3.810   0.939
 2542SOL    HW2 8514   1.754   3.908   0.927
 2543SOL     OW 8515   0.268   4.042   0.721
 2543SOL    HW1 8516   0.192   4.091   0.692
 2543SOL    HW2 8517   0.254   4.029   0.815
 2544SOL     OW 8518   1.062   0.300   0.729
 2544SOL    HW1 8519   0.980   0.268   0.691
 2544SOL    HW2 8520   1.128   0.236   0.703
 2545SOL     OW 8521   1.020   3.964   0.965
 2545SOL    HW1 8522   1.015   3.916   0.883
 2545SOL    HW2 8523   1.015   3.896   1.033
 2546SOL     OW 8524   1.721   4.114   1.380
 2546SOL    HW1 8525   1.792   4.178   1.378
 2546SOL    HW2 8526   1.751   4.043   1.323
 2547SOL     OW 8527   0.674   3.923   1.499
 2547SOL    HW1 8528   0.757   3.901   1.457
 2547SOL    HW2 8529   0.697   3.952   1.587
 2548SOL     OW 8530   0.060   4.061   0.003
 2548SOL    HW1 8531   4.469   4.072   0.031
 2548SOL    HW2 8532   0.101   4.146   0.022
 2549SOL     OW 8533   0.081   3.897   0.310
 2549SOL    HW1 8534   0.078   3.972   0.250
 2549SOL    HW2 8535   0.155   3.845   0.280
 2550SOL     OW 8536   0.726   4.283   1.700
 2550SOL    HW1 8537   0.729   4.332   1.782
 2550SOL    HW2 8538   0.749   4.194   1.724
 2551SOL     OW 8539   1.217   4.039   0.456
 2551SOL    HW1 8540   1.281   3.969   0.447
 2551SOL    HW2 8541   1.246   4.089   0.533
 2552SOL     OW 8542   1.760   4.090   1.648
 2552SOL    HW1 8543   1.744   4.100   1.555
 2552SOL    HW2 8544   1.691   4.031   1.679
 2553SOL     OW 8545   1.100   0.204   0.051
 2553SOL    HW1 8546   1.096   0.290   0.009
 2553SOL    HW2 8547   1.191   0.176   0.041
 2554SOL     OW 8548   1.815   3.908   1.238
 2554SOL    HW1 8549   1.823   3.814   1.252
 2554SOL    HW2 8550   1.822   3.919   1.143
 2555SOL     OW 8551   0.450   4.155   0.536
 2555SOL    HW1 8552   0.469   4.081   0.478
 2555SOL    HW2 8553   0.391   4.119   0.603
 2556SOL     OW 8554   0.322   4.260   1.277
 2556SOL    HW1 8555   0.375   4.193   1.320
 2556SOL    HW2 8556   0.333   4.242   1.183
 2557SOL     OW 8557   1.432   3.948   1.118
 2557SOL    HW1 8558   1.457   3.868   1.164
 2557SOL    HW2 8559   1.380   3.997   1.181
 2558SOL     OW 8560   1.009   3.743   1.144
 2558SOL    HW1 8561   0.954   3.675   1.104
 2558SOL    HW2 8562   1.096   3.705   1.145
 2559SOL     OW 8563   1.351   3.778   0.164
 2559SOL    HW1 8564   1.373   3.727   0.086
 2559SOL    HW2 8565   1.264   3.747   0.190
 2560SOL     OW 8566   1.300   4.174   0.681
 2560SOL    HW1 8567   1.262   4.261   0.693
 2560SOL    HW2 8568   1.299   4.135   0.768
 2561SOL     OW 8569   1.587   3.927   0.878
 2561SOL    HW1 8570   1.526   3.948   0.948
 2561SOL    HW2 8571   1.587   4.005   0.822
 2562SOL     OW 8572   0.230   4.281   1.972
 2562SOL    HW1 8573   0.164   4.314   2.033
 2562SOL    HW2 8574   0.214   4.328   1.891
 2563SOL     OW 8575   0.209   3.996   2.853
 2563SOL    HW1 8576   0.245   3.968   2.938
 2563SOL    HW2 8577   0.134   3.939   2.840
 2564SOL     OW 8578   4.500   4.100   2.493
 2564SOL    HW1 8579   4.419   4.130   2.534
 2564SOL    HW2 8580   4.476   4.017   2.451
 2565SOL     OW 8581   1.730   4.335   2.100
 2565SOL    HW1 8582   1.731   4.322   2.005
 2565SOL    HW2 8583   1.732   4.246   2.135
 2566SOL     OW 8584   0.729   0.269   2.546
 2566SOL    HW1 8585   0.718   0.208   2.619
 2566SOL    HW2 8586   0.639   0.289   2.518
 2567SOL     OW 8587   0.445   4.120   3.350
 2567SOL    HW1 8588   0.526   4.069   3.353
 2567SOL    HW2 8589   0.375   4.054   3.360
 2568SOL     OW 8590   1.615   4.172   2.602
 2568SOL    HW1 8591   1.546   4.197   2.541
 2568SOL    HW2 8592   1.616   4.242   2.667
 2569SOL     OW 8593   1.597   3.847   3.331
 2569SOL    HW1 8594   1.600   3.927   3.279
 2569SOL    HW2 8595   1.582   3.877   3.421
 2570SOL     OW 8596   0.163   4.323   2.496
 2570SOL    HW1 8597   0.104   4.250   2.478
 2570SOL    HW2 8598   0.118   4.400   2.463
 2571SOL     OW 8599   0.121   0.002   3.451
 2571SOL    HW1 8600   0.215   4.485   3.450
 2571SOL    HW2 8601   0.112   0.088   3.409
 2572SOL     OW 8602   0.815   3.724   2.370
 2572SOL    HW1 8603   0.855   3.809   2.352
 2572SOL    HW2 8604   0.722   3.742   2.379
 2573SOL     OW 8605   0.329   3.979   3.660
 2573SOL    HW1 8606   0.374   4.058   3.692
 2573SOL    HW2 8607   0.240   3.987   3.695
 2574SOL     OW 8608   1.277   4.072   2.794
 2574SOL    HW1 8609   1.188   4.039   2.804
 2574SOL    HW2 8610   1.329   4.020   2.856
 2575SOL     OW 8611   0.827   4.305   3.310
 2575SOL    HW1 8612   0.787   4.310   3.396
 2575SOL    HW2 8613   0.759   4.266   3.254
 2576SOL     OW 8614   1.395   4.199   3.538
 2576SOL    HW1 8615   1.397   4.244   3.623
 2576SOL    HW2 8616   1.454   4.125   3.549
 2577SOL     OW 8617   0.998   4.150   3.095
 2577SOL    HW1 8618   0.926   4.171   3.155
 2577SOL    HW2 8619   0.959   4.090   3.031
 2578SOL     OW 8620   1.057   4.410   2.280
 2578SOL    HW1 8621   1.054   4.450   2.367
 2578SOL    HW2 8622   0.969   4.372   2.268
 2579SOL     OW 8623   0.054   0.062   2.713
 2579SOL    HW1 8624   0.142   0.025   2.718
 2579SOL    HW2 8625   0.049   0.099   2.625
 2580SOL     OW 8626   0.890   4.064   2.053
 2580SOL    HW1 8627   0.932   4.126   1.993
 2580SOL    HW2 8628   0.907   3.978   2.013
 2581SOL     OW 8629   1.707   4.298   3.691
 2581SOL    HW1 8630   1.720   4.387   3.657
 2581SOL    HW2 8631   1.730   4.241   3.618
 2582SOL     OW 8632   0.552   3.905   2.755
 2582SOL    HW1 8633   0.554   3.935   2.845
 2582SOL    HW2 8634   0.547   3.986   2.703
 2583SOL     OW 8635   1.490   4.465   2.600
 2583SOL    HW1 8636   1.472   4.410   2.676
 2583SOL    HW2 8637   1.530   0.044   2.636
 2584SOL     OW 8638   0.189   4.000   3.347
 2584SOL    HW1 8639   0.139   4.081   3.356
 2584SOL    HW2 8640   0.183   3.959   3.434
 2585SOL     OW 8641   1.401   3.830   2.294
 2585SOL    HW1 8642   1.391   3.806   2.202
 2585SOL    HW2 8643   1.495   3.840   2.306
 2586SOL     OW 8644   0.349   4.379   2.266
 2586SOL    HW1 8645   0.394   4.305   2.308
 2586SOL    HW2 8646   0.299   4.419   2.337
 2587SOL     OW 8647   1.536   3.950   3.587
 2587SOL    HW1 8648   1.544   3.971   3.680
 2587SOL    HW2 8649   1.467   3.883   3.584
 2588SOL     OW 8650   0.635   3.849   1.965
 2588SOL    HW1 8651   0.702   3.783   1.981
 2588SOL    HW2 8652   0.586   3.816   1.889
 2589SOL     OW 8653   0.766   4.002   3.616
 2589SOL    HW1 8654   0.842   3.943   3.617
 2589SOL    HW2 8655   0.717   3.978   3.695
 2590SOL     OW 8656   1.343   4.312   3.291
 2590SOL    HW1 8657   1.365   4.275   3.377
 2590SOL    HW2 8658   1.385   4.398   3.290
 2591SOL     OW 8659   0.923   4.236   2.760
 2591SOL    HW1 8660   0.901   4.220   2.669
 2591SOL    HW2 8661   0.962   4.154   2.790
 2592SOL     OW 8662   0.552   3.786   2.364
 2592SOL    HW1 8663   0.471   3.784   2.415
 2592SOL    HW2 8664   0.544   3.865   2.309
 2593SOL     OW 8665   0.294   3.770   2.040
 2593SOL    HW1 8666   0.355   3.837   2.011
 2593SOL    HW2 8667   0.348   3.705   2.084
 2594SOL     OW 8668   0.937   3.972   2.324
 2594SOL    HW1 8669   0.911   4.010   2.240
 2594SOL    HW2 8670   1.032   3.984   2.327
 2595SOL     OW 8671   1.075   4.396   3.383
 2595SOL    HW1 8672   0.992   4.366   3.346
 2595SOL    HW2 8673   1.142   4.356   3.327
 2596SOL     OW 8674   1.025   4.267   1.888
 2596SOL    HW1 8675   1.008   4.355   1.853
 2596SOL    HW2 8676   1.088   4.280   1.958
 2597SOL     OW 8677   0.085   4.257   3.271
 2597SOL    HW1 8678   0.159   4.270   3.212
 2597SOL    HW2 8679   0.052   4.346   3.288
 2598SOL     OW 8680   0.560   3.951   3.027
 2598SOL    HW1 8681   0.601   3.871   3.062
 2598SOL    HW2 8682   0.469   3.946   3.056
 2599SOL     OW 8683   0.870   4.190   2.499
 2599SOL    HW1 8684   0.834   4.248   2.433
 2599SOL    HW2 8685   0.888   4.108   2.452
 2600SOL     OW 8686   1.014   3.777   2.614
 2600SOL    HW1 8687   0.956   3.769   2.538
 2600SOL    HW2 8688   0.994   3.701   2.668
 2601SOL     OW 8689   1.478   4.311   2.827
 2601SOL    HW1 8690   1.418   4.239   2.847
 2601SOL    HW2 8691   1.528   4.324   2.908
 2602SOL     OW 8692   1.402   4.296   1.935
 2602SOL    HW1 8693   1.340   4.269   2.002
 2602SOL    HW2 8694   1.485   4.255   1.961
 2603SOL     OW 8695   0.523   3.985   2.178
 2603SOL    HW1 8696   0.568   3.937   2.108
 2603SOL    HW2 8697   0.510   4.073   2.142
 2604SOL     OW 8698   0.917   3.823   3.258
 2604SOL    HW1 8699   0.941   3.801   3.168
 2604SOL    HW2 8700   0.997   3.861   3.296
 2605SOL     OW 8701   0.442   0.004   3.124
 2605SOL    HW1 8702   0.498   0.002   3.201
 2605SOL    HW2 8703   0.404   4.416   3.120
 2606SOL     OW 8704   1.266   4.100   3.136
 2606SOL    HW1 8705   1.299   4.177   3.182
 2606SOL    HW2 8706   1.176   4.124   3.111
 2607SOL     OW 8707   0.556   4.253   2.726
 2607SOL    HW1 8708   0.575   4.295   2.642
 2607SOL    HW2 8709   0.621   4.289   2.786
 2608SOL     OW 8710   1.570   4.338   2.340
 2608SOL    HW1 8711   1.541   4.405   2.403
 2608SOL    HW2 8712   1.629   4.385   2.281
 2609SOL     OW 8713   0.996   3.847   3.617
 2609SOL    HW1 8714   1.052   3.919   3.590
 2609SOL    HW2 8715   1.044   3.768   3.592
 2610SOL     OW 8716   0.497   3.767   3.609
 2610SOL    HW1 8717   0.456   3.710   3.544
 2610SOL    HW2 8718   0.437   3.841   3.618
 2611SOL     OW 8719   1.211   4.254   2.126
 2611SOL    HW1 8720   1.220   4.175   2.178
 2611SOL    HW2 8721   1.161   4.314   2.182
 2612SOL     OW 8722   0.299   3.923   3.106
 2612SOL    HW1 8723   0.259   3.951   3.189
 2612SOL    HW2 8724   0.287   3.828   3.104
 2613SOL     OW 8725   0.733   4.360   2.908
 2613SOL    HW1 8726   0.806   4.323   2.858
 2613SOL    HW2 8727   0.741   4.454   2.895
 2614SOL     OW 8728   1.751   0.132   3.716
 2614SOL    HW1 8729   1.686   0.148   3.648
 2614SOL    HW2 8730   1.707   0.160   3.797
 2615SOL     OW 8731   0.310   3.793   2.480
 2615SOL    HW1 8732   0.286   3.882   2.507
 2615SOL    HW2 8733   0.307   3.742   2.561
 2616SOL     OW 8734   1.613   4.091   2.231
 2616SOL    HW1 8735   1.643   4.030   2.299
 2616SOL    HW2 8736   1.590   4.171   2.278
 2617SOL     OW 8737   1.527   3.999   1.989
 2617SOL    HW1 8738   1.464   3.932   2.015
 2617SOL    HW2 8739   1.562   4.032   2.072
 2618SOL     OW 8740   0.319   0.016   2.778
 2618SOL    HW1 8741   0.401   0.066   2.785
 2618SOL    HW2 8742   0.333   4.439   2.832
 2619SOL     OW 8743   0.334   4.237   2.873
 2619SOL    HW1 8744   0.290   4.155   2.850
 2619SOL    HW2 8745   0.409   4.242   2.814
 2620SOL     OW 8746   1.137   4.094   3.547
 2620SOL    HW1 8747   1.085   4.153   3.601
 2620SOL    HW2 8748   1.222   4.138   3.538
 2621SOL     OW 8749   1.160   3.927   3.331
 2621SOL    HW1 8750   1.151   3.988   3.404
 2621SOL    HW2 8751   1.200   3.979   3.261
 2622SOL     OW 8752   0.024   4.278   2.968
 2622SOL    HW1 8753   0.110   4.259   2.931
 2622SOL    HW2 8754   0.027   4.239   3.056
 2623SOL     OW 8755   0.176   4.236   3.555
 2623SOL    HW1 8756   0.264   4.218   3.522
 2623SOL    HW2 8757   0.149   4.317   3.511
 2624SOL     OW 8758   0.819   4.284   2.209
 2624SOL    HW1 8759   0.820   4.209   2.150
 2624SOL    HW2 8760   0.731   4.319   2.203
 2625SOL     OW 8761   1.637   4.318   3.049
 2625SOL    HW1 8762   1.632   4.260   3.125
 2625SOL    HW2 8763   1.725   4.304   3.014
 2626SOL     OW 8764   0.675   4.187   3.120
 2626SOL    HW1 8765   0.638   4.105   3.086
 2626SOL    HW2 8766   0.684   4.243   3.043
 2627SOL     OW 8767   0.486   4.223   2.050
 2627SOL    HW1 8768   0.516   4.309   2.079
 2627SOL    HW2 8769   0.392   4.235   2.034
 2628SOL     OW 8770   1.720   3.869   2.374
 2628SOL    HW1 8771   1.792   3.854   2.312
 2628SOL    HW2 8772   1.704   3.783   2.413
 2629SOL     OW 8773   1.279   0.137   2.541
 2629SOL    HW1 8774   1.337   0.061   2.551
 2629SOL    HW2 8775   1.330   0.199   2.489
 2630SOL     OW 8776   1.839   3.896   2.829
 2630SOL    HW1 8777   1.868   3.809   2.801
 2630SOL    HW2 8778   1.753   3.908   2.789
 2631SOL     OW 8779   0.268   4.041   2.583
 2631SOL    HW1 8780   0.190   4.089   2.553
 2631SOL    HW2 8781   0.255   4.029   2.677
 2632SOL     OW 8782   0.906   0.092   2.081
 2632SOL    HW1 8783   0.988   0.131   2.051
 2632SOL    HW2 8784   0.928   0.053   2.165
 2633SOL     OW 8785   1.066   0.299   2.604
 2633SOL    HW1 8786   0.989   0.286   2.549
 2633SOL    HW2 8787   1.130   0.236   2.571
 2634SOL     OW 8788   1.020   3.964   2.827
 2634SOL    HW1 8789   1.015   3.915   2.745
 2634SOL    HW2 8790   1.015   3.896   2.895
 2635SOL     OW 8791   1.721   4.114   3.242
 2635SOL    HW1 8792   1.792   4.178   3.240
 2635SOL    HW2 8793   1.751   4.043   3.185
 2636SOL     OW 8794   0.674   3.922   3.361
 2636SOL    HW1 8795   0.757   3.901   3.320
 2636SOL    HW2 8796   0.697   3.951   3.449
 2637SOL     OW 8797   0.067   4.045   1.897
 2637SOL    HW1 8798   4.474   4.064   1.889
 2637SOL    HW2 8799   0.110   4.130   1.885
 2638SOL     OW 8800   0.086   3.902   2.168
 2638SOL    HW1 8801   0.076   3.969   2.101
 2638SOL    HW2 8802   0.161   3.850   2.138
 2639SOL     OW 8803   0.726   4.283   3.562
 2639SOL    HW1 8804   0.729   4.332   3.644
 2639SOL    HW2 8805   0.749   4.194   3.586
 2640SOL     OW 8806   1.219   4.043   2.316
 2640SOL    HW1 8807   1.281   3.970   2.308
 2640SOL    HW2 8808   1.247   4.090   2.394
 2641SOL     OW 8809   1.760   4.090   3.510
 2641SOL    HW1 8810   1.743   4.100   3.417
 2641SOL    HW2 8811   1.691   4.031   3.541
 2642SOL     OW 8812   1.111   0.227   1.965
 2642SOL    HW1 8813   1.096   0.270   1.881
 2642SOL    HW2 8814   1.195   0.182   1.955
 2643SOL     OW 8815   1.814   3.908   3.100
 2643SOL    HW1 8816   1.823   3.814   3.114
 2643SOL    HW2 8817   1.822   3.919   3.005
 2644SOL     OW 8818   0.451   4.154   2.397
 2644SOL    HW1 8819   0.464   4.080   2.338
 2644SOL    HW2 8820   0.392   4.120   2.465
 2645SOL     OW 8821   0.322   4.260   3.139
 2645SOL    HW1 8822   0.375   4.193   3.182
 2645SOL    HW2 8823   0.333   4.243   3.045
 2646SOL     OW 8824   1.432   3.948   2.980
 2646SOL    HW1 8825   1.457   3.868   3.026
 2646SOL    HW2 8826   1.380   3.998   3.043
 2647SOL     OW 8827   1.009   3.743   3.006
 2647SOL    HW1 8828   0.954   3.675   2.966
 2647SOL    HW2 8829   1.096   3.705   3.007
 2648SOL     OW 8830   1.352   3.777   2.026
 2648SOL    HW1 8831   1.379   3.715   1.959
 2648SOL    HW2 8832   1.265   3.748   2.053
 2649SOL     OW 8833   1.299   4.175   2.543
 2649SOL    HW1 8834   1.261   4.262   2.557
 2649SOL    HW2 8835   1.299   4.134   2.630
 2650SOL     OW 8836   1.587   3.927   2.739
 2650SOL    HW1 8837   1.526   3.948   2.810
 2650SOL    HW2 8838   1.587   4.005   2.684
 2651SOL     OW 8839   0.230   4.281   3.834
 2651SOL    HW1 8840   0.164   4.314   3.895
 2651SOL    HW2 8841   0.214   4.329   3.753
 2652SOL     OW 8842   0.209   3.996   4.715
 2652SOL    HW1 8843   0.245   3.968   4.800
 2652SOL    HW2 8844   0.134   3.939   4.702
 2653SOL     OW 8845   4.500   4.100   4.355
 2653SOL    HW1 8846   4.419   4.130   4.397
 2653SOL    HW2 8847   4.476   4.017   4.313
 2654SOL     OW 8848   1.730   4.335   3.962
 2654SOL    HW1 8849   1.731   4.322   3.867
 2654SOL    HW2 8850   1.732   4.246   3.997
 2655SOL     OW 8851   0.729   0.269   4.408
 2655SOL    HW1 8852   0.718   0.207   4.480
 2655SOL    HW2 8853   0.639   0.288   4.380
 2656SOL     OW 8854   0.445   4.120   5.212
 2656SOL    HW1 8855   0.526   4.069   5.215
 2656SOL    HW2 8856   0.375   4.054   5.223
 2657SOL     OW 8857   1.615   4.172   4.463
 2657SOL    HW1 8858   1.545   4.197   4.403
 2657SOL    HW2 8859   1.616   4.242   4.529
 2658SOL     OW 8860   1.597   3.848   5.193
 2658SOL    HW1 8861   1.599   3.929   5.142
 2658SOL    HW2 8862   1.582   3.877   5.283
 2659SOL     OW 8863   0.164   4.323   4.358
 2659SOL    HW1 8864   0.104   4.250   4.340
 2659SOL    HW2 8865   0.118   4.400   4.325
 2660SOL     OW 8866   0.121   0.002   5.313
 2660SOL    HW1 8867   0.215   4.485   5.312
 2660SOL    HW2 8868   0.112   0.088   5.271
 2661SOL     OW 8869   0.815   3.724   4.231
 2661SOL    HW1 8870   0.855   3.810   4.214
 2661SOL    HW2 8871   0.722   3.742   4.241
 2662SOL     OW 8872   0.329   3.979   5.522
 2662SOL    HW1 8873   0.374   4.058   5.554
 2662SOL    HW2 8874   0.240   3.987   5.557
 2663SOL     OW 8875   1.278   4.072   4.656
 2663SOL    HW1 8876   1.188   4.039   4.666
 2663SOL    HW2 8877   1.329   4.020   4.718
 2664SOL     OW 8878   0.827   4.305   5.172
 2664SOL    HW1 8879   0.787   4.310   5.259
 2664SOL    HW2 8880   0.759   4.266   5.116
 2665SOL     OW 8881   1.396   4.199   5.400
 2665SOL    HW1 8882   1.397   4.243   5.485
 2665SOL    HW2 8883   1.454   4.124   5.411
 2666SOL     OW 8884   0.997   4.150   4.957
 2666SOL    HW1 8885   0.926   4.171   5.017
 2666SOL    HW2 8886   0.959   4.090   4.893
 2667SOL     OW 8887   1.057   4.410   4.142
 2667SOL    HW1 8888   1.054   4.450   4.229
 2667SOL    HW2 8889   0.969   4.372   4.130
 2668SOL     OW 8890   0.054   0.062   4.575
 2668SOL    HW1 8891   0.143   0.026   4.580
 2668SOL    HW2 8892   0.049   0.099   4.487
 2669SOL     OW 8893   0.890   4.064   3.915
 2669SOL    HW1 8894   0.932   4.126   3.855
 2669SOL    HW2 8895   0.907   3.978   3.875
 2670SOL     OW 8896   1.707   4.298   5.553
 2670SOL    HW1 8897   1.720   4.387   5.519
 2670SOL    HW2 8898   1.730   4.241   5.480
 2671SOL     OW 8899   0.552   3.906   4.617
 2671SOL    HW1 8900   0.554   3.935   4.708
 2671SOL    HW2 8901   0.547   3.986   4.565
 2672SOL     OW 8902   1.490   4.465   4.462
 2672SOL    HW1 8903   1.472   4.410   4.538
 2672SOL    HW2 8904   1.530   0.044   4.498
 2673SOL     OW 8905   0.189   4.000   5.209
 2673SOL    HW1 8906   0.138   4.081   5.219
 2673SOL    HW2 8907   0.184   3.959   5.295
 2674SOL     OW 8908   1.401   3.831   4.156
 2674SOL    HW1 8909   1.391   3.806   4.064
 2674SOL    HW2 8910   1.495   3.840   4.167
 2675SOL     OW 8911   0.349   4.379   4.128
 2675SOL    HW1 8912   0.394   4.305   4.170
 2675SOL    HW2 8913   0.299   4.419   4.199
 2676SOL     OW 8914   1.535   3.950   5.449
 2676SOL    HW1 8915   1.544   3.971   5.542
 2676SOL    HW2 8916   1.467   3.882   5.447
 2677SOL     OW 8917   0.635   3.850   3.826
 2677SOL    HW1 8918   0.702   3.783   3.843
 2677SOL    HW2 8919   0.586   3.816   3.751
 2678SOL     OW 8920   0.766   4.002   5.479
 2678SOL    HW1 8921   0.842   3.944   5.479
 2678SOL    HW2 8922   0.717   3.978   5.557
 2679SOL     OW 8923   1.343   4.311   5.153
 2679SOL    HW1 8924   1.365   4.274   5.239
 2679SOL    HW2 8925   1.385   4.398   5.153
 2680SOL     OW 8926   0.923   4.236   4.622
 2680SOL    HW1 8927   0.901   4.220   4.531
 2680SOL    HW2 8928   0.962   4.154   4.652
 2681SOL     OW 8929   0.552   3.786   4.226
 2681SOL    HW1 8930   0.471   3.784   4.277
 2681SOL    HW2 8931   0.543   3.865   4.171
 2682SOL     OW 8932   0.294   3.770   3.902
 2682SOL    HW1 8933   0.355   3.837   3.874
 2682SOL    HW2 8934   0.348   3.705   3.946
 2683SOL     OW 8935   0.937   3.972   4.186
 2683SOL    HW1 8936   0.911   4.010   4.102
 2683SOL    HW2 8937   1.032   3.984   4.189
 2684SOL     OW 8938   1.075   4.397   5.244
 2684SOL    HW1 8939   0.992   4.366   5.208
 2684SOL    HW2 8940   1.142   4.356   5.189
 2685SOL     OW 8941   1.025   4.267   3.750
 2685SOL    HW1 8942   1.008   4.354   3.716
 2685SOL    HW2 8943   1.088   4.280   3.820
 2686SOL     OW 8944   0.085   4.257   5.134
 2686SOL    HW1 8945   0.159   4.270   5.074
 2686SOL    HW2 8946   0.052   4.346   5.150
 2687SOL     OW 8947   0.560   3.950   4.889
 2687SOL    HW1 8948   0.601   3.871   4.924
 2687SOL    HW2 8949   0.469   3.946   4.918
 2688SOL     OW 8950   0.871   4.190   4.361
 2688SOL    HW1 8951   0.834   4.248   4.295
 2688SOL    HW2 8952   0.888   4.108   4.314
 2689SOL     OW 8953   1.015   3.777   4.476
 2689SOL    HW1 8954   0.956   3.769   4.400
 2689SOL    HW2 8955   0.994   3.701   4.531
 2690SOL     OW 8956   1.478   4.311   4.689
 2690SOL    HW1 8957   1.418   4.239   4.710
 2690SOL    HW2 8958   1.528   4.324   4.770
 2691SOL     OW 8959   1.402   4.296   3.797
 2691SOL    HW1 8960   1.340   4.269   3.864
 2691SOL    HW2 8961   1.485   4.255   3.823
 2692SOL     OW 8962   0.523   3.985   4.040
 2692SOL    HW1 8963   0.568   3.937   3.970
 2692SOL    HW2 8964   0.510   4.073   4.004
 2693SOL     OW 8965   0.917   3.823   5.120
 2693SOL    HW1 8966   0.941   3.801   5.030
 2693SOL    HW2 8967   0.997   3.861   5.158
 2694SOL     OW 8968   0.442   0.004   4.986
 2694SOL    HW1 8969   0.498   0.002   5.063
 2694SOL    HW2 8970   0.404   4.416   4.982
 2695SOL     OW 8971   1.266   4.100   4.998
 2695SOL    HW1 8972   1.299   4.177   5.043
 2695SOL    HW2 8973   1.176   4.124   4.973
 2696SOL     OW 8974   0.556   4.253   4.588
 2696SOL    HW1 8975   0.575   4.295   4.504
 2696SOL    HW2 8976   0.621   4.289   4.648
 2697SOL     OW 8977   1.569   4.339   4.201
 2697SOL    HW1 8978   1.542   4.405   4.265
 2697SOL    HW2 8979   1.629   4.385   4.143
 2698SOL     OW 8980   0.995   3.847   5.479
 2698SOL    HW1 8981   1.052   3.919   5.452
 2698SOL    HW2 8982   1.043   3.767   5.455
 2699SOL     OW 8983   0.498   3.767   5.471
 2699SOL    HW1 8984   0.456   3.710   5.406
 2699SOL    HW2 8985   0.437   3.841   5.480
 2700SOL     OW 8986   1.210   4.254   3.988
 2700SOL    HW1 8987   1.220   4.175   4.040
 2700SOL    HW2 8988   1.161   4.314   4.044
 2701SOL     OW 8989   0.299   3.923   4.968
 2701SOL    HW1 8990   0.259   3.951   5.051
 2701SOL    HW2 8991   0.287   3.828   4.966
 2702SOL     OW 8992   0.733   4.360   4.770
 2702SOL    HW1 8993   0.806   4.323   4.720
 2702SOL    HW2 8994   0.741   4.454   4.757
 2703SOL     OW 8995   1.751   0.134   5.578
 2703SOL    HW1 8996   1.686   0.148   5.510
 2703SOL    HW2 8997   1.708   0.160   5.659
 2704SOL     OW 8998   0.310   3.793   4.342
 2704SOL    HW1 8999   0.286   3.882   4.370
 2704SOL    HW2 9000   0.307   3.742   4.423
 2705SOL     OW 9001   1.614   4.091   4.093
 2705SOL    HW1 9002   1.642   4.030   4.161
 2705SOL    HW2 9003   1.590   4.171   4.140
 2706SOL     OW 9004   1.527   3.999   3.851
 2706SOL    HW1 9005   1.464   3.932   3.877
 2706SOL    HW2 9006   1.562   4.032   3.933
 2707SOL     OW 9007   0.319   0.016   4.640
 2707SOL    HW1 9008   0.401   0.066   4.648
 2707SOL    HW2 9009   0.333   4.439   4.694
 2708SOL     OW 9010   0.334   4.237   4.735
 2708SOL    HW1 9011   0.290   4.155   4.712
 2708SOL    HW2 9012   0.409   4.242   4.676
 2709SOL     OW 9013   1.137   4.094   5.409
 2709SOL    HW1 9014   1.085   4.153   5.464
 2709SOL    HW2 9015   1.222   4.138   5.401
 2710SOL     OW 9016   1.160   3.927   5.192
 2710SOL    HW1 9017   1.151   3.988   5.266
 2710SOL    HW2 9018   1.200   3.979   5.123
 2711SOL     OW 9019   0.024   4.278   4.830
 2711SOL    HW1 9020   0.110   4.259   4.793
 2711SOL    HW2 9021   0.027   4.239   4.918
 2712SOL     OW 9022   0.176   4.236   5.417
 2712SOL    HW1 9023   0.263   4.218   5.384
 2712SOL    HW2 9024   0.149   4.316   5.373
 2713SOL     OW 9025   0.820   4.284   4.071
 2713SOL    HW1 9026   0.820   4.209   4.012
 2713SOL    HW2 9027   0.730   4.319   4.065
 2714SOL     OW 9028   1.637   4.318   4.911
 2714SOL    HW1 9029   1.632   4.260   4.987
 2714SOL    HW2 9030   1.725   4.304   4.876
 2715SOL     OW 9031   0.675   4.187   4.982
 2715SOL    HW1 9032   0.638   4.105   4.948
 2715SOL    HW2 9033   0.684   4.243   4.905
 2716SOL     OW 9034   0.486   4.223   3.912
 2716SOL    HW1 9035   0.516   4.309   3.941
 2716SOL    HW2 9036   0.392   4.235   3.896
 2717SOL     OW 9037   1.720   3.868   4.236
 2717SOL    HW1 9038   1.792   3.854   4.174
 2717SOL    HW2 9039   1.705   3.782   4.275
 2718SOL     OW 9040   1.280   0.137   4.403
 2718SOL    HW1 9041   1.337   0.061   4.414
 2718SOL    HW2 9042   1.330   0.199   4.350
 2719SOL     OW 9043   1.840   3.895   4.691
 2719SOL    HW1 9044   1.868   3.809   4.661
 2719SOL    HW2 9045   1.754   3.908   4.651
 2720SOL     OW 9046   0.268   4.041   4.444
 2720SOL    HW1 9047   0.190   4.089   4.416
 2720SOL    HW2 9048   0.255   4.029   4.539
 2721SOL     OW 9049   0.906   0.092   3.943
 2721SOL    HW1 9050   0.988   0.131   3.913
 2721SOL    HW2 9051   0.928   0.053   4.027
 2722SOL     OW 9052   1.066   0.300   4.465
 2722SOL    HW1 9053   0.989   0.286   4.411
 2722SOL    HW2 9054   1.130   0.236   4.434
 2723SOL     OW 9055   1.020   3.964   4.689
 2723SOL    HW1 9056   1.015   3.915   4.607
 2723SOL    HW2 9057   1.015   3.896   4.757
 2724SOL     OW 9058   1.721   4.115   5.104
 2724SOL    HW1 9059   1.792   4.179   5.102
 2724SOL    HW2 9060   1.751   4.043   5.048
 2725SOL     OW 9061   0.674   3.923   5.223
 2725SOL    HW1 9062   0.757   3.901   5.182
 2725SOL    HW2 9063   0.697   3.951   5.311
 2726SOL     OW 9064   0.067   4.045   3.759
 2726SOL    HW1 9065   4.474   4.064   3.751
 2726SOL    HW2 9066   0.110   4.130   3.747
 2727SOL     OW 9067   0.086   3.902   4.029
 2727SOL    HW1 9068   0.076   3.970   3.963
 2727SOL    HW2 9069   0.161   3.850   4.000
 2728SOL     OW 9070   0.726   4.283   5.424
 2728SOL    HW1 9071   0.729   4.331   5.507
 2728SOL    HW2 9072   0.749   4.193   5.448
 2729SOL     OW 9073   1.219   4.043   4.178
 2729SOL    HW1 9074   1.281   3.970   4.170
 2729SOL    HW2 9075   1.247   4.090   4.256
 2730SOL     OW 9076   1.760   4.090   5.372
 2730SOL    HW1 9077   1.743   4.100   5.279
 2730SOL    HW2 9078   1.691   4.031   5.403
 2731SOL     OW 9079   1.111   0.227   3.827
 2731SOL    HW1 9080   1.096   0.269   3.742
 2731SOL    HW2 9081   1.195   0.182   3.817
 2732SOL     OW 9082   1.816   3.909   4.962
 2732SOL    HW1 9083   1.820   3.814   4.976
 2732SOL    HW2 9084   1.823   3.919   4.867
 2733SOL     OW 9085   0.451   4.154   4.259
 2733SOL    HW1 9086   0.464   4.080   4.200
 2733SOL    HW2 9087   0.392   4.120   4.327
 2734SOL     OW 9088   0.322   4.260   5.001
 2734SOL    HW1 9089   0.375   4.193   5.044
 2734SOL    HW2 9090   0.333   4.242   4.907
 2735SOL     OW 9091   1.432   3.948   4.842
 2735SOL    HW1 9092   1.455   3.868   4.888
 2735SOL    HW2 9093   1.380   3.998   4.905
 2736SOL     OW 9094   1.009   3.743   4.867
 2736SOL    HW1 9095   0.954   3.675   4.828
 2736SOL    HW2 9096   1.096   3.705   4.869
 2737SOL     OW 9097   1.352   3.777   3.888
 2737SOL    HW1 9098   1.379   3.714   3.822
 2737SOL    HW2 9099   1.265   3.748   3.915
 2738SOL     OW 9100   1.300   4.175   4.405
 2738SOL    HW1 9101   1.261   4.262   4.420
 2738SOL    HW2 9102   1.299   4.134   4.492
 2739SOL     OW 9103   1.587   3.927   4.602
 2739SOL    HW1 9104   1.526   3.948   4.672
 2739SOL    HW2 9105   1.587   4.005   4.546
 2740SOL     OW 9106   0.230   4.281   5.696
 2740SOL    HW1 9107   0.164   4.314   5.757
 2740SOL    HW2 9108   0.213   4.328   5.615
 2741SOL     OW 9109   0.209   3.996   6.577
 2741SOL    HW1 9110   0.245   3.968   6.662
 2741SOL    HW2 9111   0.134   3.939   6.564
 2742SOL     OW 9112   4.500   4.100   6.217
 2742SOL    HW1 9113   4.419   4.130   6.258
 2742SOL    HW2 9114   4.476   4.017   6.175
 2743SOL     OW 9115   1.731   4.335   5.823
 2743SOL    HW1 9116   1.731   4.322   5.729
 2743SOL    HW2 9117   1.731   4.246   5.860
 2744SOL     OW 9118   0.729   0.269   6.270
 2744SOL    HW1 9119   0.719   0.208   6.342
 2744SOL    HW2 9120   0.639   0.288   6.242
 2745SOL     OW 9121   0.445   4.120   7.074
 2745SOL    HW1 9122   0.526   4.069   7.077
 2745SOL    HW2 9123   0.375   4.054   7.085
 2746SOL     OW 9124   1.615   4.173   6.325
 2746SOL    HW1 9125   1.545   4.198   6.265
 2746SOL    HW2 9126   1.616   4.242   6.392
 2747SOL     OW 9127   1.596   3.847   7.055
 2747SOL    HW1 9128   1.600   3.927   7.003
 2747SOL    HW2 9129   1.582   3.877   7.144
 2748SOL     OW 9130   0.164   4.323   6.220
 2748SOL    HW1 9131   0.104   4.250   6.202
 2748SOL    HW2 9132   0.118   4.400   6.187
 2749SOL     OW 9133   0.121   0.002   7.174
 2749SOL    HW1 9134   0.215   4.485   7.174
 2749SOL    HW2 9135   0.112   0.088   7.133
 2750SOL     OW 9136   0.815   3.724   6.094
 2750SOL    HW1 9137   0.855   3.809   6.076
 2750SOL    HW2 9138   0.722   3.742   6.104
 2751SOL     OW 9139   0.329   3.979   7.384
 2751SOL    HW1 9140   0.374   4.058   7.416
 2751SOL    HW2 9141   0.240   3.987   7.419
 2752SOL     OW 9142   1.277   4.072   6.518
 2752SOL    HW1 9143   1.188   4.039   6.529
 2752SOL    HW2 9144   1.330   4.021   6.580
 2753SOL     OW 9145   0.827   4.305   7.034
 2753SOL    HW1 9146   0.787   4.310   7.120
 2753SOL    HW2 9147   0.759   4.266   6.978
 2754SOL     OW 9148   1.395   4.199   7.262
 2754SOL    HW1 9149   1.397   4.243   7.347
 2754SOL    HW2 9150   1.454   4.124   7.273
 2755SOL     OW 9151   0.997   4.150   6.819
 2755SOL    HW1 9152   0.926   4.171   6.879
 2755SOL    HW2 9153   0.959   4.090   6.755
 2756SOL     OW 9154   1.057   4.410   6.003
 2756SOL    HW1 9155   1.055   4.450   6.091
 2756SOL    HW2 9156   0.969   4.372   5.992
 2757SOL     OW 9157   0.054   0.062   6.437
 2757SOL    HW1 9158   0.143   0.025   6.442
 2757SOL    HW2 9159   0.049   0.099   6.349
 2758SOL     OW 9160   0.890   4.064   5.777
 2758SOL    HW1 9161   0.932   4.126   5.717
 2758SOL    HW2 9162   0.907   3.978   5.737
 2759SOL     OW 9163   1.707   4.298   7.415
 2759SOL    HW1 9164   1.720   4.387   7.381
 2759SOL    HW2 9165   1.730   4.241   7.342
 2760SOL     OW 9166   0.552   3.905   6.479
 2760SOL    HW1 9167   0.554   3.935   6.569
 2760SOL    HW2 9168   0.548   3.986   6.427
 2761SOL     OW 9169   1.490   4.465   6.324
 2761SOL    HW1 9170   1.472   4.410   6.400
 2761SOL    HW2 9171   1.530   0.044   6.360
 2762SOL     OW 9172   0.189   4.000   7.071
 2762SOL    HW1 9173   0.139   4.081   7.080
 2762SOL    HW2 9174   0.184   3.959   7.158
 2763SOL     OW 9175   1.400   3.831   6.018
 2763SOL    HW1 9176   1.391   3.805   5.926
 2763SOL    HW2 9177   1.495   3.838   6.031
 2764SOL     OW 9178   0.349   4.379   5.990
 2764SOL    HW1 9179   0.394   4.305   6.032
 2764SOL    HW2 9180   0.299   4.419   6.061
 2765SOL     OW 9181   1.535   3.950   7.311
 2765SOL    HW1 9182   1.544   3.971   7.404
 2765SOL    HW2 9183   1.468   3.882   7.308
 2766SOL     OW 9184   0.635   3.849   5.688
 2766SOL    HW1 9185   0.702   3.783   5.705
 2766SOL    HW2 9186   0.586   3.816   5.613
 2767SOL     OW 9187   0.766   4.002   7.340
 2767SOL    HW1 9188   0.842   3.944   7.341
 2767SOL    HW2 9189   0.717   3.978   7.419
 2768SOL     OW 9190   1.343   4.312   7.015
 2768SOL    HW1 9191   1.365   4.275   7.100
 2768SOL    HW2 9192   1.385   4.398   7.015
 2769SOL     OW 9193   0.923   4.236   6.484
 2769SOL    HW1 9194   0.901   4.220   6.393
 2769SOL    HW2 9195   0.962   4.154   6.514
 2770SOL     OW 9196   0.552   3.786   6.088
 2770SOL    HW1 9197   0.471   3.784   6.139
 2770SOL    HW2 9198   0.543   3.865   6.033
 2771SOL     OW 9199   0.294   3.770   5.764
 2771SOL    HW1 9200   0.356   3.837   5.736
 2771SOL    HW2 9201   0.348   3.705   5.808
 2772SOL     OW 9202   0.937   3.972   6.048
 2772SOL    HW1 9203   0.911   4.010   5.964
 2772SOL    HW2 9204   1.032   3.984   6.051
 2773SOL     OW 9205   1.075   4.396   7.107
 2773SOL    HW1 9206   0.992   4.366   7.070
 2773SOL    HW2 9207   1.142   4.356   7.051
 2774SOL     OW 9208   1.025   4.267   5.612
 2774SOL    HW1 9209   1.008   4.355   5.578
 2774SOL    HW2 9210   1.088   4.280   5.683
 2775SOL     OW 9211   0.085   4.257   6.995
 2775SOL    HW1 9212   0.159   4.270   6.936
 2775SOL    HW2 9213   0.052   4.346   7.012
 2776SOL     OW 9214   0.560   3.951   6.751
 2776SOL    HW1 9215   0.601   3.871   6.786
 2776SOL    HW2 9216   0.469   3.946   6.780
 2777SOL     OW 9217   0.870   4.190   6.223
 2777SOL    HW1 9218   0.834   4.248   6.157
 2777SOL    HW2 9219   0.888   4.108   6.176
 2778SOL     OW 9220   1.014   3.778   6.338
 2778SOL    HW1 9221   0.956   3.769   6.262
 2778SOL    HW2 9222   0.993   3.702   6.393
 2779SOL     OW 9223   1.478   4.311   6.551
 2779SOL    HW1 9224   1.418   4.239   6.571
 2779SOL    HW2 9225   1.528   4.324   6.632
 2780SOL     OW 9226   1.402   4.296   5.659
 2780SOL    HW1 9227   1.340   4.269   5.726
 2780SOL    HW2 9228   1.485   4.255   5.685
 2781SOL     OW 9229   0.523   3.985   5.902
 2781SOL    HW1 9230   0.568   3.937   5.832
 2781SOL    HW2 9231   0.510   4.073   5.866
 2782SOL     OW 9232   0.917   3.823   6.982
 2782SOL    HW1 9233   0.941   3.801   6.892
 2782SOL    HW2 9234   0.997   3.861   7.020
 2783SOL     OW 9235   0.442   0.004   6.848
 2783SOL    HW1 9236   0.498   0.002   6.925
 2783SOL    HW2 9237   0.404   4.416   6.844
 2784SOL     OW 9238   1.265   4.100   6.861
 2784SOL    HW1 9239   1.299   4.177   6.906
 2784SOL    HW2 9240   1.176   4.124   6.835
 2785SOL     OW 9241   0.556   4.253   6.450
 2785SOL    HW1 9242   0.575   4.295   6.366
 2785SOL    HW2 9243   0.621   4.289   6.510
 2786SOL     OW 9244   1.569   4.339   6.063
 2786SOL    HW1 9245   1.542   4.405   6.127
 2786SOL    HW2 9246   1.629   4.386   6.005
 2787SOL     OW 9247   0.996   3.847   7.341
 2787SOL    HW1 9248   1.052   3.919   7.314
 2787SOL    HW2 9249   1.044   3.768   7.316
 2788SOL     OW 9250   0.497   3.767   7.333
 2788SOL    HW1 9251   0.456   3.710   7.268
 2788SOL    HW2 9252   0.437   3.841   7.342
 2789SOL     OW 9253   1.210   4.254   5.850
 2789SOL    HW1 9254   1.221   4.175   5.902
 2789SOL    HW2 9255   1.161   4.314   5.906
 2790SOL     OW 9256   0.299   3.923   6.830
 2790SOL    HW1 9257   0.259   3.951   6.913
 2790SOL    HW2 9258   0.287   3.828   6.828
 2791SOL     OW 9259   0.733   4.360   6.632
 2791SOL    HW1 9260   0.806   4.323   6.582
 2791SOL    HW2 9261   0.741   4.454   6.619
 2792SOL     OW 9262   1.751   0.133   7.440
 2792SOL    HW1 9263   1.686   0.148   7.372
 2792SOL    HW2 9264   1.707   0.160   7.521
 2793SOL     OW 9265   0.310   3.793   6.204
 2793SOL    HW1 9266   0.286   3.882   6.232
 2793SOL    HW2 9267   0.307   3.742   6.285
 2794SOL     OW 9268   1.614   4.091   5.954
 2794SOL    HW1 9269   1.643   4.030   6.022
 2794SOL    HW2 9270   1.590   4.170   6.002
 2795SOL     OW 9271   1.527   3.999   5.713
 2795SOL    HW1 9272   1.464   3.932   5.739
 2795SOL    HW2 9273   1.562   4.032   5.796
 2796SOL     OW 9274   0.319   0.016   6.502
 2796SOL    HW1 9275   0.400   0.066   6.509
 2796SOL    HW2 9276   0.333   4.439   6.556
 2797SOL     OW 9277   0.334   4.237   6.597
 2797SOL    HW1 9278   0.290   4.155   6.574
 2797SOL    HW2 9279   0.409   4.242   6.538
 2798SOL     OW 9280   1.137   4.094   7.271
 2798SOL    HW1 9281   1.085   4.153   7.326
 2798SOL    HW2 9282   1.222   4.138   7.263
 2799SOL     OW 9283   1.160   3.927   7.055
 2799SOL    HW1 9284   1.151   3.988   7.128
 2799SOL    HW2 9285   1.200   3.979   6.985
 2800SOL     OW 9286   0.024   4.278   6.692
 2800SOL    HW1 9287   0.110   4.259   6.655
 2800SOL    HW2 9288   0.027   4.239   6.780
 2801SOL     OW 9289   0.176   4.236   7.279
 2801SOL    HW1 9290   0.263   4.218   7.246
 2801SOL    HW2 9291   0.149   4.317   7.235
 2802SOL     OW 9292   0.820   4.284   5.932
 2802SOL    HW1 9293   0.820   4.209   5.874
 2802SOL    HW2 9294   0.730   4.318   5.927
 2803SOL     OW 9295   1.637   4.318   6.773
 2803SOL    HW1 9296   1.632   4.260   6.849
 2803SOL    HW2 9297   1.725   4.305   6.738
 2804SOL     OW 9298   0.674   4.187   6.844
 2804SOL    HW1 9299   0.638   4.105   6.810
 2804SOL    HW2 9300   0.684   4.243   6.767
 2805SOL     OW 9301   0.486   4.223   5.774
 2805SOL    HW1 9302   0.516   4.309   5.803
 2805SOL    HW2 9303   0.392   4.235   5.758
 2806SOL     OW 9304   1.720   3.869   6.097
 2806SOL    HW1 9305   1.792   3.854   6.037
 2806SOL    HW2 9306   1.703   3.783   6.137
 2807SOL     OW 9307   1.279   0.137   6.265
 2807SOL    HW1 9308   1.337   0.061   6.275
 2807SOL    HW2 9309   1.330   0.199   6.213
 2808SOL     OW 9310   1.840   3.897   6.553
 2808SOL    HW1 9311   1.868   3.810   6.526
 2808SOL    HW2 9312   1.753   3.908   6.513
 2809SOL     OW 9313   0.268   4.041   6.306
 2809SOL    HW1 9314   0.190   4.089   6.278
 2809SOL    HW2 9315   0.255   4.029   6.401
 2810SOL     OW 9316   0.906   0.092   5.805
 2810SOL    HW1 9317   0.988   0.131   5.775
 2810SOL    HW2 9318   0.928   0.052   5.889
 2811SOL     OW 9319   1.066   0.299   6.327
 2811SOL    HW1 9320   0.988   0.285   6.273
 2811SOL    HW2 9321   1.130   0.236   6.295
 2812SOL     OW 9322   1.020   3.964   6.551
 2812SOL    HW1 9323   1.015   3.916   6.469
 2812SOL    HW2 9324   1.015   3.896   6.619
 2813SOL     OW 9325   1.721   4.114   6.966
 2813SOL    HW1 9326   1.792   4.178   6.963
 2813SOL    HW2 9327   1.751   4.043   6.909
 2814SOL     OW 9328   0.674   3.923   7.085
 2814SOL    HW1 9329   0.757   3.901   7.044
 2814SOL    HW2 9330   0.697   3.951   7.173
 2815SOL     OW 9331   0.067   4.045   5.621
 2815SOL    HW1 9332   4.474   4.064   5.613
 2815SOL    HW2 9333   0.110   4.130   5.609
 2816SOL     OW 9334   0.086   3.902   5.892
 2816SOL    HW1 9335   0.076   3.969   5.825
 2816SOL    HW2 9336   0.161   3.850   5.862
 2817SOL     OW 9337   0.725   4.283   7.286
 2817SOL    HW1 9338   0.729   4.332   7.368
 2817SOL    HW2 9339   0.749   4.194   7.310
 2818SOL     OW 9340   1.219   4.043   6.040
 2818SOL    HW1 9341   1.281   3.970   6.032
 2818SOL    HW2 9342   1.247   4.090   6.118
 2819SOL     OW 9343   1.760   4.090   7.234
 2819SOL    HW1 9344   1.743   4.100   7.141
 2819SOL    HW2 9345   1.691   4.031   7.265
 2820SOL     OW 9346   1.111   0.228   5.689
 2820SOL    HW1 9347   1.096   0.268   5.604
 2820SOL    HW2 9348   1.195   0.182   5.679
 2821SOL     OW 9349   1.815   3.908   6.824
 2821SOL    HW1 9350   1.822   3.813   6.837
 2821SOL    HW2 9351   1.822   3.919   6.729
 2822SOL     OW 9352   0.451   4.154   6.121
 2822SOL    HW1 9353   0.464   4.080   6.062
 2822SOL    HW2 9354   0.392   4.120   6.189
 2823SOL     OW 9355   0.322   4.260   6.863
 2823SOL    HW1 9356   0.375   4.193   6.906
 2823SOL    HW2 9357   0.333   4.242   6.769
 2824SOL     OW 9358   1.432   3.949   6.703
 2824SOL    HW1 9359   1.457   3.868   6.748
 2824SOL    HW2 9360   1.380   3.997   6.768
 2825SOL     OW 9361   1.009   3.743   6.730
 2825SOL    HW1 9362   0.954   3.675   6.690
 2825SOL    HW2 9363   1.096   3.706   6.731
 2826SOL     OW 9364   1.352   3.777   5.750
 2826SOL    HW1 9365   1.380   3.713   5.684
 2826SOL    HW2 9366   1.265   3.748   5.777
 2827SOL     OW 9367   1.299   4.176   6.267
 2827SOL    HW1 9368   1.261   4.262   6.282
 2827SOL    HW2 9369   1.299   4.134   6.354
 2828SOL     OW 9370   1.587   3.928   6.463
 2828SOL    HW1 9371   1.526   3.947   6.534
 2828SOL    HW2 9372   1.587   4.006   6.408
 2829SOL     OW 9373   0.230   4.281   7.558
 2829SOL    HW1 9374   0.164   4.314   7.619
 2829SOL    HW2 9375   0.214   4.329   7.477
 2830SOL     OW 9376   0.209   3.996   8.439
 2830SOL    HW1 9377   0.245   3.968   8.524
 2830SOL    HW2 9378   0.134   3.939   8.426
 2831SOL     OW 9379   4.500   4.100   8.079
 2831SOL    HW1 9380   4.419   4.130   8.120
 2831SOL    HW2 9381   4.476   4.017   8.037
 2832SOL     OW 9382   1.730   4.335   7.686
 2832SOL    HW1 9383   1.731   4.322   7.591
 2832SOL    HW2 9384   1.732   4.246   7.721
 2833SOL     OW 9385   0.729   0.269   8.132
 2833SOL    HW1 9386   0.718   0.208   8.205
 2833SOL    HW2 9387   0.639   0.288   8.104
 2834SOL     OW 9388   0.445   4.120   8.936
 2834SOL    HW1 9389   0.526   4.069   8.939
 2834SOL    HW2 9390   0.375   4.054   8.946
 2835SOL     OW 9391   1.615   4.172   8.187
 2835SOL    HW1 9392   1.546   4.197   8.127
 2835SOL    HW2 9393   1.616   4.242   8.253
 2836SOL     OW 9394   1.597   3.847   8.917
 2836SOL    HW1 9395   1.600   3.927   8.865
 2836SOL    HW2 9396   1.582   3.877   9.007
 2837SOL     OW 9397   0.163   4.323   8.082
 2837SOL    HW1 9398   0.104   4.250   8.064
 2837SOL    HW2 9399   0.118   4.400   8.049
 2838SOL     OW 9400   0.121   0.002   9.037
 2838SOL    HW1 9401   0.215   4.485   9.036
 2838SOL    HW2 9402   0.112   0.088   8.995
 2839SOL     OW 9403   0.815   3.724   7.956
 2839SOL    HW1 9404   0.855   3.809   7.938
 2839SOL    HW2 9405   0.722   3.742   7.965
 2840SOL     OW 9406   0.329   3.979   9.246
 2840SOL    HW1 9407   0.374   4.058   9.278
 2840SOL    HW2 9408   0.240   3.987   9.281
 2841SOL     OW 9409   1.277   4.072   8.380
 2841SOL    HW1 9410   1.188   4.039   8.390
 2841SOL    HW2 9411   1.329   4.020   8.442
 2842SOL     OW 9412   0.827   4.305   8.896
 2842SOL    HW1 9413   0.787   4.310   8.983
 2842SOL    HW2 9414   0.759   4.266   8.840
 2843SOL     OW 9415   1.395   4.199   9.124
 2843SOL    HW1 9416   1.397   4.244   9.209
 2843SOL    HW2 9417   1.454   4.124   9.135
 2844SOL     OW 9418   0.997   4.150   8.681
 2844SOL    HW1 9419   0.926   4.171   8.741
 2844SOL    HW2 9420   0.959   4.090   8.617
 2845SOL     OW 9421   1.057   4.410   7.866
 2845SOL    HW1 9422   1.054   4.450   7.953
 2845SOL    HW2 9423   0.969   4.372   7.854
 2846SOL     OW 9424   0.054   0.062   8.299
 2846SOL    HW1 9425   0.143   0.025   8.304
 2846SOL    HW2 9426   0.049   0.099   8.211
 2847SOL     OW 9427   0.890   4.064   7.638
 2847SOL    HW1 9428   0.932   4.126   7.579
 2847SOL    HW2 9429   0.908   3.978   7.599
 2848SOL     OW 9430   1.707   4.298   9.277
 2848SOL    HW1 9431   1.720   4.387   9.243
 2848SOL    HW2 9432   1.730   4.241   9.204
 2849SOL     OW 9433   0.552   3.905   8.341
 2849SOL    HW1 9434   0.554   3.935   8.431
 2849SOL    HW2 9435   0.548   3.986   8.289
 2850SOL     OW 9436   1.490   4.465   8.186
 2850SOL    HW1 9437   1.472   4.410   8.262
 2850SOL    HW2 9438   1.530   0.044   8.222
 2851SOL     OW 9439   0.189   4.000   8.933
 2851SOL    HW1 9440   0.139   4.081   8.942
 2851SOL    HW2 9441   0.183   3.959   9.020
 2852SOL     OW 9442   1.401   3.831   7.880
 2852SOL    HW1 9443   1.391   3.806   7.788
 2852SOL    HW2 9444   1.495   3.840   7.892
 2853SOL     OW 9445   0.349   4.379   7.852
 2853SOL    HW1 9446   0.394   4.305   7.894
 2853SOL    HW2 9447   0.299   4.419   7.923
 2854SOL     OW 9448   1.536   3.950   9.173
 2854SOL    HW1 9449   1.544   3.971   9.266
 2854SOL    HW2 9450   1.467   3.883   9.170
 2855SOL     OW 9451   0.635   3.849   7.551
 2855SOL    HW1 9452   0.702   3.783   7.567
 2855SOL    HW2 9453   0.586   3.816   7.475
 2856SOL     OW 9454   0.766   4.002   9.202
 2856SOL    HW1 9455   0.842   3.943   9.203
 2856SOL    HW2 9456   0.717   3.978   9.281
 2857SOL     OW 9457   1.343   4.312   8.877
 2857SOL    HW1 9458   1.365   4.275   8.962
 2857SOL    HW2 9459   1.385   4.398   8.877
 2858SOL     OW 9460   0.923   4.236   8.346
 2858SOL    HW1 9461   0.901   4.220   8.255
 2858SOL    HW2 9462   0.962   4.154   8.376
 2859SOL     OW 9463   0.552   3.786   7.950
 2859SOL    HW1 9464   0.471   3.784   8.001
 2859SOL    HW2 9465   0.543   3.865   7.895
 2860SOL     OW 9466   0.294   3.770   7.626
 2860SOL    HW1 9467   0.356   3.837   7.598
 2860SOL    HW2 9468   0.348   3.705   7.670
 2861SOL     OW 9469   0.937   3.972   7.910
 2861SOL    HW1 9470   0.911   4.010   7.826
 2861SOL    HW2 9471   1.032   3.984   7.913
 2862SOL     OW 9472   1.075   4.396   8.969
 2862SOL    HW1 9473   0.992   4.366   8.932
 2862SOL    HW2 9474   1.142   4.356   8.913
 2863SOL     OW 9475   1.025   4.267   7.474
 2863SOL    HW1 9476   1.008   4.355   7.440
 2863SOL    HW2 9477   1.088   4.280   7.544
 2864SOL     OW 9478   0.085   4.257   8.858
 2864SOL    HW1 9479   0.159   4.270   8.798
 2864SOL    HW2 9480   0.052   4.346   8.874
 2865SOL     OW 9481   0.560   3.951   8.613
 2865SOL    HW1 9482   0.601   3.871   8.648
 2865SOL    HW2 9483   0.469   3.946   8.642
 2866SOL     OW 9484   0.870   4.190   8.085
 2866SOL    HW1 9485   0.834   4.248   8.019
 2866SOL    HW2 9486   0.888   4.108   8.038
 2867SOL     OW 9487   1.014   3.777   8.200
 2867SOL    HW1 9488   0.956   3.769   8.124
 2867SOL    HW2 9489   0.994   3.701   8.254
 2868SOL     OW 9490   1.477   4.311   8.413
 2868SOL    HW1 9491   1.418   4.239   8.433
 2868SOL    HW2 9492   1.528   4.324   8.494
 2869SOL     OW 9493   1.402   4.296   7.521
 2869SOL    HW1 9494   1.340   4.269   7.588
 2869SOL    HW2 9495   1.485   4.255   7.546
 2870SOL     OW 9496   0.523   3.985   7.764
 2870SOL    HW1 9497   0.568   3.937   7.694
 2870SOL    HW2 9498   0.510   4.073   7.728
 2871SOL     OW 9499   0.917   3.823   8.844
 2871SOL    HW1 9500   0.941   3.801   8.754
 2871SOL    HW2 9501   0.997   3.861   8.882
 2872SOL     OW 9502   0.442   0.004   8.710
 2872SOL    HW1 9503   0.498   0.002   8.787
 2872SOL    HW2 9504   0.404   4.416   8.706
 2873SOL     OW 9505   1.266   4.100   8.722
 2873SOL    HW1 9506   1.299   4.177   8.768
 2873SOL    HW2 9507   1.176   4.124   8.697
 2874SOL     OW 9508   0.556   4.253   8.312
 2874SOL    HW1 9509   0.575   4.295   8.228
 2874SOL    HW2 9510   0.621   4.289   8.372
 2875SOL     OW 9511   1.569   4.339   7.925
 2875SOL    HW1 9512   1.542   4.405   7.989
 2875SOL    HW2 9513   1.629   4.385   7.867
 2876SOL     OW 9514   0.996   3.846   9.203
 2876SOL    HW1 9515   1.052   3.919   9.176
 2876SOL    HW2 9516   1.044   3.768   9.178
 2877SOL     OW 9517   0.497   3.767   9.195
 2877SOL    HW1 9518   0.456   3.710   9.130
 2877SOL    HW2 9519   0.437   3.841   9.204
 2878SOL     OW 9520   1.210   4.254   7.712
 2878SOL    HW1 9521   1.221   4.175   7.764
 2878SOL    HW2 9522   1.161   4.314   7.768
 2879SOL     OW 9523   0.299   3.923   8.692
 2879SOL    HW1 9524   0.259   3.951   8.775
 2879SOL    HW2 9525   0.287   3.828   8.690
 2880SOL     OW 9526   0.733   4.360   8.494
 2880SOL    HW1 9527   0.806   4.323   8.444
 2880SOL    HW2 9528   0.741   4.454   8.481
 2881SOL     OW 9529   1.751   0.133   9.302
 2881SOL    HW1 9530   1.686   0.148   9.234
 2881SOL    HW2 9531   1.707   0.160   9.383
 2882SOL     OW 9532   0.310   3.793   8.066
 2882SOL    HW1 9533   0.286   3.882   8.093
 2882SOL    HW2 9534   0.307   3.742   8.147
 2883SOL     OW 9535   1.614   4.091   7.817
 2883SOL    HW1 9536   1.643   4.030   7.885
 2883SOL    HW2 9537   1.590   4.171   7.864
 2884SOL     OW 9538   1.527   3.999   7.575
 2884SOL    HW1 9539   1.464   3.932   7.601
 2884SOL    HW2 9540   1.562   4.032   7.658
 2885SOL     OW 9541   0.319   0.016   8.364
 2885SOL    HW1 9542   0.401   0.066   8.371
 2885SOL    HW2 9543   0.333   4.439   8.418
 2886SOL     OW 9544   0.334   4.237   8.459
 2886SOL    HW1 9545   0.290   4.155   8.436
 2886SOL    HW2 9546   0.409   4.242   8.400
 2887SOL     OW 9547   1.137   4.094   9.133
 2887SOL    HW1 9548   1.085   4.153   9.188
 2887SOL    HW2 9549   1.222   4.138   9.124
 2888SOL     OW 9550   1.160   3.927   8.917
 2888SOL    HW1 9551   1.151   3.988   8.990
 2888SOL    HW2 9552   1.200   3.979   8.847
 2889SOL     OW 9553   0.024   4.278   8.554
 2889SOL    HW1 9554   0.110   4.259   8.517
 2889SOL    HW2 9555   0.027   4.239   8.642
 2890SOL     OW 9556   0.176   4.236   9.141
 2890SOL    HW1 9557   0.263   4.218   9.108
 2890SOL    HW2 9558   0.149   4.317   9.097
 2891SOL     OW 9559   0.820   4.284   7.795
 2891SOL    HW1 9560   0.820   4.209   7.736
 2891SOL    HW2 9561   0.730   4.319   7.789
 2892SOL     OW 9562   1.637   4.318   8.635
 2892SOL    HW1 9563   1.632   4.260   8.711
 2892SOL    HW2 9564   1.725   4.304   8.600
 2893SOL     OW 9565   0.675   4.187   8.706
 2893SOL    HW1 9566   0.638   4.105   8.672
 2893SOL    HW2 9567   0.684   4.243   8.629
 2894SOL     OW 9568   0.486   4.223   7.636
 2894SOL    HW1 9569   0.516   4.309   7.665
 2894SOL    HW2 9570   0.392   4.235   7.620
 2895SOL     OW 9571   1.720   3.869   7.960
 2895SOL    HW1 9572   1.792   3.854   7.898
 2895SOL    HW2 9573   1.704   3.783   7.999
 2896SOL     OW 9574   1.279   0.137   8.127
 2896SOL    HW1 9575   1.337   0.061   8.137
 2896SOL    HW2 9576   1.330   0.199   8.075
 2897SOL     OW 9577   1.839   3.896   8.415
 2897SOL    HW1 9578   1.868   3.809   8.387
 2897SOL    HW2 9579   1.753   3.908   8.375
 2898SOL     OW 9580   0.268   4.041   8.168
 2898SOL    HW1 9581   0.190   4.089   8.139
 2898SOL    HW2 9582   0.255   4.029   8.263
 2899SOL     OW 9583   0.906   0.092   7.667
 2899SOL    HW1 9584   0.988   0.131   7.637
 2899SOL    HW2 9585   0.928   0.053   7.751
 2900SOL     OW 9586   1.066   0.299   8.190
 2900SOL    HW1 9587   0.989   0.286   8.135
 2900SOL    HW2 9588   1.130   0.236   8.157
 2901SOL     OW 9589   1.020   3.964   8.413
 2901SOL    HW1 9590   1.015   3.915   8.331
 2901SOL    HW2 9591   1.015   3.896   8.481
 2902SOL     OW 9592   1.721   4.114   8.828
 2902SOL    HW1 9593   1.792   4.178   8.826
 2902SOL    HW2 9594   1.751   4.043   8.771
 2903SOL     OW 9595   0.674   3.922   8.947
 2903SOL    HW1 9596   0.757   3.901   8.905
 2903SOL    HW2 9597   0.697   3.951   9.035
 2904SOL     OW 9598   0.067   4.045   7.483
 2904SOL    HW1 9599   4.474   4.064   7.475
 2904SOL    HW2 9600   0.110   4.130   7.471
 2905SOL     OW 9601   0.086   3.902   7.753
 2905SOL    HW1 9602   0.076   3.969   7.687
 2905SOL    HW2 9603   0.161   3.850   7.724
 2906SOL     OW 9604   0.726   4.283   9.148
 2906SOL    HW1 9605   0.729   4.332   9.230
 2906SOL    HW2 9606   0.749   4.194   9.172
 2907SOL     OW 9607   1.219   4.043   7.902
 2907SOL    HW1 9608   1.281   3.970   7.894
 2907SOL    HW2 9609   1.247   4.090   7.980
 2908SOL     OW 9610   1.760   4.090   9.096
 2908SOL    HW1 9611   1.743   4.100   9.003
 2908SOL    HW2 9612   1.691   4.031   9.127
 2909SOL     OW 9613   1.111   0.227   7.551
 2909SOL    HW1 9614   1.096   0.269   7.466
 2909SOL    HW2 9615   1.195   0.183   7.541
 2910SOL     OW 9616   1.815   3.908   8.686
 2910SOL    HW1 9617   1.823   3.814   8.700
 2910SOL    HW2 9618   1.822   3.919   8.591
 2911SOL     OW 9619   0.451   4.154   7.983
 2911SOL    HW1 9620   0.464   4.080   7.924
 2911SOL    HW2 9621   0.392   4.120   8.051
 2912SOL     OW 9622   0.322   4.260   8.725
 2912SOL    HW1 9623   0.375   4.193   8.768
 2912SOL    HW2 9624   0.333   4.243   8.631
 2913SOL     OW 9625   1.432   3.948   8.566
 2913SOL    HW1 9626   1.457   3.868   8.612
 2913SOL    HW2 9627   1.380   3.998   8.629
 2914SOL     OW 9628   1.009   3.743   8.592
 2914SOL    HW1 9629   0.954   3.675   8.552
 2914SOL    HW2 9630   1.096   3.705   8.593
 2915SOL     OW 9631   1.352   3.777   7.612
 2915SOL    HW1 9632   1.380   3.714   7.546
 2915SOL    HW2 9633   1.265   3.748   7.639
 2916SOL     OW 9634   1.299   4.175   8.129
 2916SOL    HW1 9635   1.261   4.262   8.144
 2916SOL    HW2 9636   1.299   4.134   8.216
 2917SOL     OW 9637   1.587   3.927   8.325
 2917SOL    HW1 9638   1.526   3.948   8.396
 2917SOL    HW2 9639   1.587   4.005   8.270
 2918SOL     OW 9640   0.230   4.281   9.420
 2918SOL    HW1 9641   0.164   4.314   9.481
 2918SOL    HW2 9642   0.214   4.329   9.339
 2919SOL     OW 9643   0.211   3.995  10.300
 2919SOL    HW1 9644   0.246   3.970  10.386
 2919SOL    HW2 9645   0.134   3.940  10.289
 2920SOL     OW 9646   4.500   4.100   9.941
 2920SOL    HW1 9647   4.419   4.130   9.982
 2920SOL    HW2 9648   4.476   4.017   9.899
 2921SOL     OW 9649   1.731   4.335   9.548
 2921SOL    HW1 9650   1.731   4.322   9.453
 2921SOL    HW2 9651   1.732   4.246   9.584
 2922SOL     OW 9652   0.729   0.269   9.994
 2922SOL    HW1 9653   0.719   0.208  10.067
 2922SOL    HW2 9654   0.639   0.289   9.966
 2923SOL     OW 9655   0.447   4.123  10.790
 2923SOL    HW1 9656   0.526   4.069  10.798
 2923SOL    HW2 9657   0.375   4.065  10.815
 2924SOL     OW 9658   1.615   4.172  10.050
 2924SOL    HW1 9659   1.546   4.198   9.989
 2924SOL    HW2 9660   1.616   4.242  10.115
 2925SOL     OW 9661   1.589   3.840  10.778
 2925SOL    HW1 9662   1.602   3.921  10.728
 2925SOL    HW2 9663   1.590   3.869  10.870
 2926SOL     OW 9664   0.164   4.323   9.944
 2926SOL    HW1 9665   0.104   4.250   9.926
 2926SOL    HW2 9666   0.118   4.400   9.911
 2927SOL     OW 9667   0.101   4.490  10.936
 2927SOL    HW1 9668   0.195   4.475  10.944
 2927SOL    HW2 9669   0.093   0.073  10.890
 2928SOL     OW 9670   0.815   3.724   9.818
 2928SOL    HW1 9671   0.855   3.809   9.800
 2928SOL    HW2 9672   0.722   3.742   9.827
 2929SOL     OW 9673   0.340   3.985   0.008
 2929SOL    HW1 9674   0.384   4.065   0.036
 2929SOL    HW2 9675   0.246   4.005   0.015
 2930SOL     OW 9676   1.277   4.073  10.243
 2930SOL    HW1 9677   1.188   4.039  10.252
 2930SOL    HW2 9678   1.329   4.020  10.304
 2931SOL     OW 9679   0.825   4.300  10.763
 2931SOL    HW1 9680   0.779   4.313  10.846
 2931SOL    HW2 9681   0.758   4.264  10.704
 2932SOL     OW 9682   0.997   4.149  10.545
 2932SOL    HW1 9683   0.923   4.170  10.601
 2932SOL    HW2 9684   0.961   4.092  10.477
 2933SOL     OW 9685   1.057   4.410   9.728
 2933SOL    HW1 9686   1.054   4.450   9.815
 2933SOL    HW2 9687   0.969   4.372   9.716
 2934SOL     OW 9688   0.054   0.062  10.161
 2934SOL    HW1 9689   0.142   0.025  10.167
 2934SOL    HW2 9690   0.050   0.100  10.073
 2935SOL     OW 9691   0.890   4.064   9.500
 2935SOL    HW1 9692   0.932   4.126   9.441
 2935SOL    HW2 9693   0.908   3.978   9.461
 2936SOL     OW 9694   0.552   3.905  10.203
 2936SOL    HW1 9695   0.554   3.935  10.294
 2936SOL    HW2 9696   0.549   3.986  10.151
 2937SOL     OW 9697   1.490   4.465  10.048
 2937SOL    HW1 9698   1.472   4.410  10.124
 2937SOL    HW2 9699   1.530   0.044  10.084
 2938SOL     OW 9700   0.191   4.001  10.797
 2938SOL    HW1 9701   0.142   4.083  10.804
 2938SOL    HW2 9702   0.184   3.961  10.883
 2939SOL     OW 9703   1.401   3.830   9.742
 2939SOL    HW1 9704   1.391   3.806   9.650
 2939SOL    HW2 9705   1.495   3.840   9.754
 2940SOL     OW 9706   0.349   4.379   9.714
 2940SOL    HW1 9707   0.394   4.305   9.756
 2940SOL    HW2 9708   0.299   4.419   9.785
 2941SOL     OW 9709   0.635   3.849   9.413
 2941SOL    HW1 9710   0.702   3.783   9.429
 2941SOL    HW2 9711   0.586   3.816   9.337
 2942SOL     OW 9712   0.770   4.001  11.045
 2942SOL    HW1 9713   0.835   3.941  11.083
 2942SOL    HW2 9714   0.707   4.015   0.016
 2943SOL     OW 9715   1.352   4.308  10.743
 2943SOL    HW1 9716   1.372   4.289  10.835
 2943SOL    HW2 9717   1.377   4.400  10.732
 2944SOL     OW 9718   0.924   4.236  10.208
 2944SOL    HW1 9719   0.901   4.220  10.117
 2944SOL    HW2 9720   0.962   4.153  10.238
 2945SOL     OW 9721   0.552   3.786   9.812
 2945SOL    HW1 9722   0.471   3.784   9.863
 2945SOL    HW2 9723   0.544   3.865   9.757
 2946SOL     OW 9724   0.294   3.770   9.488
 2946SOL    HW1 9725   0.355   3.837   9.460
 2946SOL    HW2 9726   0.348   3.705   9.532
 2947SOL     OW 9727   0.937   3.972   9.772
 2947SOL    HW1 9728   0.911   4.010   9.688
 2947SOL    HW2 9729   1.032   3.984   9.775
 2948SOL     OW 9730   1.079   4.380  10.823
 2948SOL    HW1 9731   0.992   4.363  10.787
 2948SOL    HW2 9732   1.139   4.345  10.757
 2949SOL     OW 9733   1.025   4.267   9.336
 2949SOL    HW1 9734   1.008   4.354   9.302
 2949SOL    HW2 9735   1.088   4.280   9.406
 2950SOL     OW 9736   0.084   4.255  10.722
 2950SOL    HW1 9737   0.156   4.262  10.660
 2950SOL    HW2 9738   0.052   4.344  10.733
 2951SOL     OW 9739   0.560   3.950  10.475
 2951SOL    HW1 9740   0.600   3.872  10.511
 2951SOL    HW2 9741   0.469   3.946  10.503
 2952SOL     OW 9742   0.871   4.190   9.947
 2952SOL    HW1 9743   0.834   4.248   9.881
 2952SOL    HW2 9744   0.888   4.108   9.900
 2953SOL     OW 9745   1.014   3.777  10.062
 2953SOL    HW1 9746   0.956   3.769   9.986
 2953SOL    HW2 9747   0.993   3.701  10.116
 2954SOL     OW 9748   1.477   4.311  10.275
 2954SOL    HW1 9749   1.418   4.238  10.295
 2954SOL    HW2 9750   1.528   4.323  10.355
 2955SOL     OW 9751   1.402   4.296   9.383
 2955SOL    HW1 9752   1.340   4.269   9.450
 2955SOL    HW2 9753   1.485   4.255   9.409
 2956SOL     OW 9754   0.523   3.985   9.626
 2956SOL    HW1 9755   0.568   3.937   9.556
 2956SOL    HW2 9756   0.510   4.073   9.591
 2957SOL     OW 9757   0.918   3.823  10.706
 2957SOL    HW1 9758   0.942   3.802  10.615
 2957SOL    HW2 9759   0.997   3.863  10.743
 2958SOL     OW 9760   0.446   4.498  10.558
 2958SOL    HW1 9761   0.498   0.006  10.638
 2958SOL    HW2 9762   0.393   4.419  10.572
 2959SOL     OW 9763   1.266   4.099  10.586
 2959SOL    HW1 9764   1.302   4.176  10.630
 2959SOL    HW2 9765   1.178   4.125  10.560
 2960SOL     OW 9766   0.560   4.250  10.171
 2960SOL    HW1 9767   0.577   4.296  10.089
 2960SOL    HW2 9768   0.622   4.288  10.234
 2961SOL     OW 9769   1.569   4.339   9.787
 2961SOL    HW1 9770   1.542   4.405   9.851
 2961SOL    HW2 9771   1.629   4.385   9.729
 2962SOL     OW 9772   0.490   0.001  11.001
 2962SOL    HW1 9773   0.480   0.050  10.919
 2962SOL    HW2 9774   0.489   4.409  10.974
 2963SOL     OW 9775   1.210   4.254   9.574
 2963SOL    HW1 9776   1.220   4.175   9.626
 2963SOL    HW2 9777   1.161   4.314   9.630
 2964SOL     OW 9778   0.299   3.921  10.553
 2964SOL    HW1 9779   0.262   3.951  10.636
 2964SOL    HW2 9780   0.285   3.826  10.554
 2965SOL     OW 9781   0.733   4.359  10.355
 2965SOL    HW1 9782   0.806   4.324  10.305
 2965SOL    HW2 9783   0.739   4.454  10.344
 2966SOL     OW 9784   0.310   3.793   9.928
 2966SOL    HW1 9785   0.286   3.882   9.955
 2966SOL    HW2 9786   0.306   3.742  10.009
 2967SOL     OW 9787   1.613   4.091   9.679
 2967SOL    HW1 9788   1.643   4.030   9.747
 2967SOL    HW2 9789   1.590   4.171   9.726
 2968SOL     OW 9790   1.527   3.999   9.437
 2968SOL    HW1 9791   1.464   3.932   9.463
 2968SOL    HW2 9792   1.562   4.032   9.519
 2969SOL     OW 9793   0.319   0.016  10.226
 2969SOL    HW1 9794   0.400   0.066  10.236
 2969SOL    HW2 9795   0.333   4.438  10.279
 2970SOL     OW 9796   0.334   4.238  10.311
 2970SOL    HW1 9797   0.291   4.156  10.290
 2970SOL    HW2 9798   0.410   4.241  10.253
 2971SOL     OW 9799   1.157   3.932  10.782
 2971SOL    HW1 9800   1.165   3.991  10.856
 2971SOL    HW2 9801   1.198   3.979  10.709
 2972SOL     OW 9802   0.023   4.275  10.413
 2972SOL    HW1 9803   0.111   4.262  10.378
 2972SOL    HW2 9804   0.028   4.241  10.503
 2973SOL     OW 9805   1.347   0.192  10.987
 2973SOL    HW1 9806   1.416   0.255  11.007
 2973SOL    HW2 9807   1.372   0.155  10.903
 2974SOL     OW 9808   0.820   4.284   9.657
 2974SOL    HW1 9809   0.820   4.209   9.598
 2974SOL    HW2 9810   0.731   4.319   9.651
 2975SOL     OW 9811   1.637   4.318  10.497
 2975SOL    HW1 9812   1.633   4.259  10.572
 2975SOL    HW2 9813   1.725   4.306  10.461
 2976SOL     OW 9814   0.682   4.184  10.566
 2976SOL    HW1 9815   0.639   4.105  10.533
 2976SOL    HW2 9816   0.684   4.243  10.491
 2977SOL     OW 9817   0.486   4.223   9.498
 2977SOL    HW1 9818   0.516   4.309   9.527
 2977SOL    HW2 9819   0.392   4.235   9.482
 2978SOL     OW 9820   1.720   3.869   9.822
 2978SOL    HW1 9821   1.792   3.854   9.760
 2978SOL    HW2 9822   1.704   3.783   9.861
 2979SOL     OW 9823   1.280   0.137   9.989
 2979SOL    HW1 9824   1.337   0.061   9.999
 2979SOL    HW2 9825   1.330   0.199   9.937
 2980SOL     OW 9826   1.840   3.897  10.277
 2980SOL    HW1 9827   1.868   3.810  10.250
 2980SOL    HW2 9828   1.753   3.908  10.237
 2981SOL     OW 9829   0.268   4.041  10.030
 2981SOL    HW1 9830   0.191   4.089  10.002
 2981SOL    HW2 9831   0.255   4.028  10.124
 2982SOL     OW 9832   0.906   0.092   9.529
 2982SOL    HW1 9833   0.988   0.131   9.499
 2982SOL    HW2 9834   0.928   0.053   9.613
 2983SOL     OW 9835   1.066   0.300  10.051
 2983SOL    HW1 9836   0.988   0.285   9.997
 2983SOL    HW2 9837   1.130   0.236  10.019
 2984SOL     OW 9838   1.020   3.964  10.275
 2984SOL    HW1 9839   1.015   3.916  10.193
 2984SOL    HW2 9840   1.015   3.896  10.343
 2985SOL     OW 9841   1.717   4.116  10.690
 2985SOL    HW1 9842   1.789   4.179  10.692
 2985SOL    HW2 9843   1.748   4.046  10.633
 2986SOL     OW 9844   0.674   3.920  10.803
 2986SOL    HW1 9845   0.755   3.898  10.758
 2986SOL    HW2 9846   0.701   3.956  10.888
 2987SOL     OW 9847   0.067   4.045   9.345
 2987SOL    HW1 9848   4.474   4.064   9.337
 2987SOL    HW2 9849   0.110   4.130   9.333
 2988SOL     OW 9850   0.086   3.902   9.616
 2988SOL    HW1 9851   0.076   3.969   9.549
 2988SOL    HW2 9852   0.161   3.850   9.586
 2989SOL     OW 9853   0.720   4.290  11.021
 2989SOL    HW1 9854   0.755   4.344  11.092
 2989SOL    HW2 9855   0.766   4.206  11.030
 2990SOL     OW 9856   1.219   4.042   9.764
 2990SOL    HW1 9857   1.281   3.970   9.756
 2990SOL    HW2 9858   1.247   4.090   9.842
 2991SOL     OW 9859   1.753   4.051  10.956
 2991SOL    HW1 9860   1.732   4.081  10.867
 2991SOL    HW2 9861   1.671   4.057  11.004
 2992SOL     OW 9862   1.111   0.228   9.413
 2992SOL    HW1 9863   1.096   0.270   9.328
 2992SOL    HW2 9864   1.195   0.182   9.403
 2993SOL     OW 9865   1.810   3.908  10.548
 2993SOL    HW1 9866   1.822   3.814  10.562
 2993SOL    HW2 9867   1.820   3.920  10.454
 2994SOL     OW 9868   0.450   4.154   9.845
 2994SOL    HW1 9869   0.464   4.079   9.786
 2994SOL    HW2 9870   0.392   4.120   9.913
 2995SOL     OW 9871   0.313   4.240  10.575
 2995SOL    HW1 9872   0.372   4.179  10.618
 2995SOL    HW2 9873   0.333   4.232  10.482
 2996SOL     OW 9874   1.431   3.948  10.427
 2996SOL    HW1 9875   1.460   3.869  10.474
 2996SOL    HW2 9876   1.380   3.996  10.492
 2997SOL     OW 9877   1.008   3.743  10.454
 2997SOL    HW1 9878   0.954   3.676  10.413
 2997SOL    HW2 9879   1.096   3.706  10.455
 2998SOL     OW 9880   1.352   3.777   9.474
 2998SOL    HW1 9881   1.380   3.714   9.408
 2998SOL    HW2 9882   1.265   3.748   9.501
 2999SOL     OW 9883   1.299   4.175   9.991
 2999SOL    HW1 9884   1.261   4.262  10.005
 2999SOL    HW2 9885   1.299   4.135  10.078
 3000SOL     OW 9886   1.586   3.927  10.187
 3000SOL    HW1 9887   1.526   3.948  10.258
 3000SOL    HW2 9888   1.587   4.005  10.132
 3001SOL     OW 9889   2.086   0.613   0.117
 3001SOL    HW1 9890   2.001   0.620   0.159
 3001SOL    HW2 9891   2.071   0.642   0.027
 3002SOL     OW 9892   2.070   0.298   0.989
 3002SOL    HW1 9893   2.101   0.270   1.075
 3002SOL    HW2 9894   1.988   0.250   0.976
 3003SOL     OW 9895   1.869   0.385   0.638
 3003SOL    HW1 9896   1.783   0.405   0.675
 3003SOL    HW2 9897   1.853   0.310   0.581
 3004SOL     OW 9898   2.429   1.286   1.174
 3004SOL    HW1 9899   2.341   1.289   1.136
 3004SOL    HW2 9900   2.444   1.375   1.207
 3005SOL     OW 9901   3.422   1.512   0.707
 3005SOL    HW1 9902   3.379   1.491   0.789
 3005SOL    HW2 9903   3.351   1.515   0.643
 3006SOL     OW 9904   2.996   0.699   0.699
 3006SOL    HW1 9905   3.043   0.782   0.689
 3006SOL    HW2 9906   2.946   0.709   0.779
 3007SOL     OW 9907   3.638   0.602   0.217
 3007SOL    HW1 9908   3.583   0.606   0.139
 3007SOL    HW2 9909   3.599   0.533   0.270
 3008SOL     OW 9910   2.619   1.143   1.041
 3008SOL    HW1 9911   2.549   1.177   1.097
 3008SOL    HW2 9912   2.654   1.220   0.995
 3009SOL     OW 9913   2.727   0.776   1.822
 3009SOL    HW1 9914   2.714   0.847   1.884
 3009SOL    HW2 9915   2.751   0.820   1.740
 3010SOL     OW 9916   2.549   1.004   0.647
 3010SOL    HW1 9917   2.613   0.991   0.716
 3010SOL    HW2 9918   2.479   1.055   0.688
 3011SOL     OW 9919   2.572   1.151   1.811
 3011SOL    HW1 9920   2.619   1.230   1.837
 3011SOL    HW2 9921   2.489   1.183   1.777
 3012SOL     OW 9922   2.193   1.425   1.069
 3012SOL    HW1 9923   2.119   1.390   1.019
 3012SOL    HW2 9924   2.243   1.476   1.004
 3013SOL     OW 9925   3.323   1.499   1.354
 3013SOL    HW1 9926   3.372   1.581   1.363
 3013SOL    HW2 9927   3.262   1.498   1.427
 3014SOL     OW 9928   2.304   0.395   1.490
 3014SOL    HW1 9929   2.386   0.346   1.491
 3014SOL    HW2 9930   2.236   0.329   1.503
 3015SOL     OW 9931   3.473   0.447   0.738
 3015SOL    HW1 9932   3.391   0.467   0.693
 3015SOL    HW2 9933   3.491   0.525   0.791
 3016SOL     OW 9934   2.081   1.719   0.473
 3016SOL    HW1 9935   2.124   1.756   0.551
 3016SOL    HW2 9936   2.153   1.706   0.411
 3017SOL     OW 9937   2.998   1.341   1.692
 3017SOL    HW1 9938   3.038   1.337   1.779
 3017SOL    HW2 9939   2.946   1.262   1.686
 3018SOL     OW 9940   2.086   1.442   0.534
 3018SOL    HW1 9941   2.063   1.535   0.543
 3018SOL    HW2 9942   2.029   1.398   0.597
 3019SOL     OW 9943   2.119   1.090   0.891
 3019SOL    HW1 9944   2.115   1.004   0.932
 3019SOL    HW2 9945   2.061   1.145   0.944
 3020SOL     OW 9946   2.473   1.791   1.428
 3020SOL    HW1 9947   2.391   1.773   1.474
 3020SOL    HW2 9948   2.496   1.880   1.452
 3021SOL     OW 9949   2.446   0.987   0.141
 3021SOL    HW1 9950   2.485   1.043   0.074
 3021SOL    HW2 9951   2.489   1.014   0.222
 3022SOL     OW 9952   3.445   0.115   1.472
 3022SOL    HW1 9953   3.465   0.183   1.408
 3022SOL    HW2 9954   3.434   0.162   1.555
 3023SOL     OW 9955   1.977   0.652   0.559
 3023SOL    HW1 9956   1.948   0.564   0.581
 3023SOL    HW2 9957   1.969   0.701   0.641
 3024SOL     OW 9958   3.704   1.760   0.334
 3024SOL    HW1 9959   3.766   1.729   0.400
 3024SOL    HW2 9960   3.730   1.850   0.316
 3025SOL     OW 9961   1.896   1.601   0.120
 3025SOL    HW1 9962   1.878   1.509   0.139
 3025SOL    HW2 9963   1.869   1.647   0.199
 3026SOL     OW 9964   3.552   0.919   0.641
 3026SOL    HW1 9965   3.636   0.879   0.621
 3026SOL    HW2 9966   3.530   0.970   0.563
 3027SOL     OW 9967   3.508   1.105   0.431
 3027SOL    HW1 9968   3.591   1.117   0.384
 3027SOL    HW2 9969   3.513   1.167   0.504
 3028SOL     OW 9970   1.984   0.744   1.585
 3028SOL    HW1 9971   2.076   0.770   1.594
 3028SOL    HW2 9972   1.935   0.826   1.592
 3029SOL     OW 9973   2.476   1.385   0.735
 3029SOL    HW1 9974   2.430   1.302   0.745
 3029SOL    HW2 9975   2.459   1.412   0.644
 3030SOL     OW 9976   3.151   1.239   1.423
 3030SOL    HW1 9977   3.183   1.171   1.363
 3030SOL    HW2 9978   3.208   1.231   1.500
 3031SOL     OW 9979   2.680   0.011   0.552
 3031SOL    HW1 9980   2.718   0.088   0.510
 3031SOL    HW2 9981   2.585   0.024   0.545
 3032SOL     OW 9982   2.052   0.966   1.272
 3032SOL    HW1 9983   2.137   0.924   1.256
 3032SOL    HW2 9984   1.989   0.913   1.223
 3033SOL     OW 9985   3.380   1.000   0.203
 3033SOL    HW1 9986   3.315   0.939   0.238
 3033SOL    HW2 9987   3.429   1.030   0.279
 3034SOL     OW 9988   3.049   1.805   1.621
 3034SOL    HW1 9989   3.061   1.862   1.545
 3034SOL    HW2 9990   3.063   1.717   1.587
 3035SOL     OW 9991   2.177   0.254   1.781
 3035SOL    HW1 9992   2.240   0.318   1.813
 3035SOL    HW2 9993   2.103   0.261   1.841
 3036SOL     OW 9994   3.328   1.419   0.952
 3036SOL    HW1 9995   3.260   1.434   1.017
 3036SOL    HW2 9996   3.316   1.329   0.925
 3037SOL     OW 9997   3.520   1.739   0.579
 3037SOL    HW1 9998   3.501   1.710   0.490
 3037SOL    HW2 9999   3.495   1.664   0.634
 3038SOL     OW10000   2.454   0.719   0.263
 3038SOL    HW110001   2.463   0.802   0.215
 3038SOL    HW210002   2.391   0.738   0.332
 3039SOL     OW10003   3.151   0.361   0.934
 3039SOL    HW110004   3.060   0.330   0.924
 3039SOL    HW210005   3.190   0.299   0.995
 3040SOL     OW10006   3.444   1.670   0.312
 3040SOL    HW110007   3.534   1.701   0.305
 3040SOL    HW210008   3.418   1.652   0.222
 3041SOL     OW10009   2.657   0.619   1.454
 3041SOL    HW110010   2.629   0.594   1.542
 3041SOL    HW210011   2.617   0.554   1.397
 3042SOL     OW10012   3.251   0.479   1.676
 3042SOL    HW110013   3.254   0.523   1.761
 3042SOL    HW210014   3.317   0.410   1.682
 3043SOL     OW10015   2.818   0.888   1.582
 3043SOL    HW110016   2.871   0.817   1.547
 3043SOL    HW210017   2.770   0.921   1.506
 3044SOL     OW10018   2.858   0.417   1.237
 3044SOL    HW110019   2.771   0.428   1.275
 3044SOL    HW210020   2.842   0.367   1.156
 3045SOL     OW10021   2.911   0.700   0.428
 3045SOL    HW110022   2.928   0.692   0.521
 3045SOL    HW210023   2.829   0.653   0.414
 3046SOL     OW10024   1.951   0.821   0.775
 3046SOL    HW110025   2.032   0.814   0.827
 3046SOL    HW210026   1.907   0.898   0.810
 3047SOL     OW10027   1.980   1.805   1.575
 3047SOL    HW110028   1.974   1.801   1.670
 3047SOL    HW210029   1.912   1.866   1.548
 3048SOL     OW10030   2.736   0.360   0.197
 3048SOL    HW110031   2.793   0.414   0.142
 3048SOL    HW210032   2.772   0.272   0.188
 3049SOL     OW10033   3.567   0.574   1.828
 3049SOL    HW110034   3.531   0.649   1.781
 3049SOL    HW210035   3.602   0.517   1.759
 3050SOL     OW10036   3.239   1.142   0.541
 3050SOL    HW110037   3.317   1.128   0.487
 3050SOL    HW210038   3.186   1.204   0.491
 3051SOL     OW10039   2.401   0.203   0.900
 3051SOL    HW110040   2.422   0.221   0.992
 3051SOL    HW210041   2.394   0.290   0.860
 3052SOL     OW10042   2.869   1.445   0.474
 3052SOL    HW110043   2.830   1.517   0.425
 3052SOL    HW210044   2.851   1.466   0.566
 3053SOL     OW10045   2.215   1.795   0.837
 3053SOL    HW110046   2.263   1.715   0.859
 3053SOL    HW210047   2.278   1.865   0.855
 3054SOL     OW10048   3.660   1.059   0.869
 3054SOL    HW110049   3.605   1.041   0.792
 3054SOL    HW210050   3.598   1.064   0.942
 3055SOL     OW10051   3.090   1.539   1.513
 3055SOL    HW110052   3.076   1.466   1.574
 3055SOL    HW210053   3.027   1.523   1.442
 3056SOL     OW10054   2.178   0.957   0.275
 3056SOL    HW110055   2.256   0.983   0.226
 3056SOL    HW210056   2.151   0.875   0.235
 3057SOL     OW10057   3.341   0.740   0.724
 3057SOL    HW110058   3.329   0.697   0.808
 3057SOL    HW210059   3.417   0.797   0.737
 3058SOL     OW10060   2.328   1.264   1.738
 3058SOL    HW110061   2.300   1.268   1.647
 3058SOL    HW210062   2.246   1.262   1.788
 3059SOL     OW10063   2.968   1.779   0.226
 3059SOL    HW110064   2.909   1.727   0.281
 3059SOL    HW210065   3.010   1.716   0.168
 3060SOL     OW10066   2.050   0.268   1.511
 3060SOL    HW110067   1.984   0.335   1.495
 3060SOL    HW210068   2.063   0.270   1.606
 3061SOL     OW10069   3.490   1.375   0.089
 3061SOL    HW110070   3.447   1.460   0.077
 3061SOL    HW210071   3.424   1.311   0.061
 3062SOL     OW10072   2.337   1.732   0.339
 3062SOL    HW110073   2.376   1.800   0.393
 3062SOL    HW210074   2.406   1.707   0.277
 3063SOL     OW10075   3.281   0.135   0.425
 3063SOL    HW110076   3.259   0.100   0.338
 3063SOL    HW210077   3.377   0.133   0.428
 3064SOL     OW10078   2.105   1.757   1.226
 3064SOL    HW110079   2.168   1.698   1.267
 3064SOL    HW210080   2.113   1.740   1.133
 3065SOL     OW10081   2.802   1.698   0.899
 3065SOL    HW110082   2.879   1.645   0.920
 3065SOL    HW210083   2.757   1.649   0.830
 3066SOL     OW10084   2.254   0.693   0.474
 3066SOL    HW110085   2.276   0.601   0.489
 3066SOL    HW210086   2.161   0.699   0.495
 3067SOL     OW10087   3.387   0.233   1.722
 3067SOL    HW110088   3.387   0.256   1.815
 3067SOL    HW210089   3.310   0.178   1.711
 3068SOL     OW10090   2.465   0.094   0.123
 3068SOL    HW110091   2.559   0.080   0.130
 3068SOL    HW210092   2.448   0.101   0.029
 3069SOL     OW10093   2.631   0.271   1.754
 3069SOL    HW110094   2.696   0.202   1.765
 3069SOL    HW210095   2.586   0.275   1.838
 3070SOL     OW10096   2.740   1.522   1.193
 3070SOL    HW110097   2.723   1.486   1.106
 3070SOL    HW210098   2.808   1.467   1.230
 3071SOL     OW10099   3.204   0.589   1.429
 3071SOL    HW110100   3.231   0.560   1.516
 3071SOL    HW210101   3.238   0.678   1.421
 3072SOL     OW10102   2.677   1.396   0.939
 3072SOL    HW110103   2.761   1.384   0.894
 3072SOL    HW210104   2.612   1.396   0.868
 3073SOL     OW10105   2.787   0.517   0.900
 3073SOL    HW110106   2.770   0.517   0.806
 3073SOL    HW210107   2.824   0.430   0.917
 3074SOL     OW10108   2.417   0.075   0.523
 3074SOL    HW110109   2.328   0.050   0.549
 3074SOL    HW210110   2.405   0.140   0.454
 3075SOL     OW10111   3.288   1.196   0.030
 3075SOL    HW110112   3.319   1.124   0.085
 3075SOL    HW210113   3.204   1.221   0.070
 3076SOL     OW10114   2.148   0.055   0.199
 3076SOL    HW110115   2.217   0.103   0.153
 3076SOL    HW210116   2.194   0.005   0.266
 3077SOL     OW10117   2.813   0.225   0.442
 3077SOL    HW110118   2.765   0.293   0.395
 3077SOL    HW210119   2.901   0.260   0.452
 3078SOL     OW10120   2.942   0.680   1.461
 3078SOL    HW110121   2.870   0.617   1.461
 3078SOL    HW210122   3.021   0.628   1.449
 3079SOL     OW10123   3.085   1.570   0.794
 3079SOL    HW110124   3.103   1.636   0.727
 3079SOL    HW210125   3.154   1.583   0.859
 3080SOL     OW10126   2.332   1.149   0.737
 3080SOL    HW110127   2.262   1.130   0.799
 3080SOL    HW210128   2.292   1.135   0.651
 3081SOL     OW10129   3.131   1.795   0.606
 3081SOL    HW110130   3.178   1.856   0.549
 3081SOL    HW210131   3.066   1.848   0.651
 3082SOL     OW10132   2.883   0.532   0.035
 3082SOL    HW110133   2.846   0.617   0.012
 3082SOL    HW210134   2.956   0.553   0.094
 3083SOL     OW10135   1.944   0.550   1.395
 3083SOL    HW110136   2.034   0.554   1.365
 3083SOL    HW210137   1.936   0.622   1.458
 3084SOL     OW10138   2.425   0.243   1.166
 3084SOL    HW110139   2.452   0.160   1.206
 3084SOL    HW210140   2.333   0.253   1.191
 3085SOL     OW10141   2.724   0.510   0.628
 3085SOL    HW110142   2.681   0.544   0.549
 3085SOL    HW210143   2.697   0.418   0.632
 3086SOL     OW10144   2.824   0.033   0.781
 3086SOL    HW110145   2.775   0.026   0.699
 3086SOL    HW210146   2.844   4.442   0.804
 3087SOL     OW10147   3.299   1.163   0.857
 3087SOL    HW110148   3.230   1.096   0.856
 3087SOL    HW210149   3.323   1.174   0.765
 3088SOL     OW10150   3.328   0.604   0.976
 3088SOL    HW110151   3.275   0.525   0.978
 3088SOL    HW210152   3.386   0.597   1.052
 3089SOL     OW10153   3.712   0.814   0.378
 3089SOL    HW110154   3.764   0.764   0.440
 3089SOL    HW210155   3.683   0.750   0.313
 3090SOL     OW10156   2.356   1.423   0.173
 3090SOL    HW110157   2.278   1.397   0.223
 3090SOL    HW210158   2.350   1.373   0.092
 3091SOL     OW10159   3.532   1.264   0.647
 3091SOL    HW110160   3.627   1.268   0.660
 3091SOL    HW210161   3.501   1.353   0.668
 3092SOL     OW10162   3.252   0.574   0.077
 3092SOL    HW110163   3.190   0.556   0.148
 3092SOL    HW210164   3.322   0.510   0.089
 3093SOL     OW10165   2.386   0.262   0.325
 3093SOL    HW110166   2.418   0.203   0.257
 3093SOL    HW210167   2.370   0.345   0.279
 3094SOL     OW10168   3.615   1.238   1.574
 3094SOL    HW110169   3.702   1.199   1.570
 3094SOL    HW210170   3.630   1.328   1.603
 3095SOL     OW10171   2.921   1.354   1.335
 3095SOL    HW110172   2.846   1.323   1.385
 3095SOL    HW210173   2.997   1.312   1.375
 3096SOL     OW10174   3.469   1.626   1.653
 3096SOL    HW110175   3.464   1.660   1.564
 3096SOL    HW210176   3.552   1.578   1.656
 3097SOL     OW10177   2.991   1.204   1.106
 3097SOL    HW110178   2.930   1.240   1.171
 3097SOL    HW210179   2.957   1.234   1.022
 3098SOL     OW10180   3.490   1.098   1.078
 3098SOL    HW110181   3.486   1.161   1.151
 3098SOL    HW210182   3.411   1.115   1.027
 3099SOL     OW10183   2.765   0.132   1.388
 3099SOL    HW110184   2.787   0.088   1.306
 3099SOL    HW210185   2.849   0.147   1.431
 3100SOL     OW10186   2.846   1.115   1.723
 3100SOL    HW110187   2.754   1.130   1.743
 3100SOL    HW210188   2.845   1.037   1.667
 3101SOL     OW10189   2.572   1.060   0.373
 3101SOL    HW110190   2.557   1.044   0.466
 3101SOL    HW210191   2.648   1.005   0.351
 3102SOL     OW10192   2.281   0.815   1.251
 3102SOL    HW110193   2.349   0.824   1.317
 3102SOL    HW210194   2.246   0.727   1.265
 3103SOL     OW10195   3.130   0.376   1.273
 3103SOL    HW110196   3.162   0.454   1.317
 3103SOL    HW210197   3.041   0.398   1.246
 3104SOL     OW10198   1.926   1.568   1.349
 3104SOL    HW110199   1.892   1.643   1.300
 3104SOL    HW210200   2.020   1.582   1.352
 3105SOL     OW10201   2.212   1.116   0.497
 3105SOL    HW110202   2.213   1.189   0.435
 3105SOL    HW210203   2.206   1.038   0.441
 3106SOL     OW10204   2.418   0.530   0.858
 3106SOL    HW110205   2.432   0.589   0.784
 3106SOL    HW210206   2.482   0.559   0.924
 3107SOL     OW10207   3.109   1.346   0.395
 3107SOL    HW110208   3.165   1.419   0.422
 3107SOL    HW210209   3.022   1.369   0.426
 3108SOL     OW10210   3.142   1.457   1.146
 3108SOL    HW110211   3.197   1.459   1.225
 3108SOL    HW210212   3.086   1.380   1.157
 3109SOL     OW10213   3.447   0.628   0.475
 3109SOL    HW110214   3.397   0.670   0.545
 3109SOL    HW210215   3.483   0.701   0.424
 3110SOL     OW10216   2.216   1.516   1.320
 3110SOL    HW110217   2.199   1.478   1.234
 3110SOL    HW210218   2.310   1.531   1.321
 3111SOL     OW10219   2.276   0.743   1.602
 3111SOL    HW110220   2.336   0.790   1.544
 3111SOL    HW210221   2.321   0.660   1.620
 3112SOL     OW10222   3.462   0.778   1.681
 3112SOL    HW110223   3.376   0.819   1.674
 3112SOL    HW210224   3.515   0.820   1.612
 3113SOL     OW10225   2.868   0.085   1.721
 3113SOL    HW110226   2.895   0.168   1.683
 3113SOL    HW210227   2.892   0.019   1.656
 3114SOL     OW10228   2.361   0.046   1.759
 3114SOL    HW110229   2.357   0.004   1.673
 3114SOL    HW210230   2.293   0.114   1.756
 3115SOL     OW10231   2.444   0.873   1.031
 3115SOL    HW110232   2.474   0.964   1.030
 3115SOL    HW210233   2.388   0.867   1.108
 3116SOL     OW10234   3.220   0.858   1.031
 3116SOL    HW110235   3.137   0.850   0.984
 3116SOL    HW210236   3.260   0.772   1.025
 3117SOL     OW10237   3.062   0.532   0.266
 3117SOL    HW110238   3.072   0.453   0.320
 3117SOL    HW210239   3.021   0.596   0.323
 3118SOL     OW10240   2.153   0.234   1.241
 3118SOL    HW110241   2.109   0.250   1.325
 3118SOL    HW210242   2.186   0.145   1.248
 3119SOL     OW10243   1.907   1.308   1.276
 3119SOL    HW110244   1.942   1.256   1.349
 3119SOL    HW210245   1.914   1.399   1.306
 3120SOL     OW10246   2.585   0.631   1.057
 3120SOL    HW110247   2.659   0.613   1.000
 3120SOL    HW210248   2.558   0.720   1.034
 3121SOL     OW10249   3.596   0.959   1.852
 3121SOL    HW110250   3.549   0.900   1.794
 3121SOL    HW210251   3.537   0.972   1.926
 3122SOL     OW10252   2.163   0.058   0.653
 3122SOL    HW110253   2.150   0.153   0.657
 3122SOL    HW210254   2.172   0.031   0.745
 3123SOL     OW10255   3.479   0.377   0.364
 3123SOL    HW110256   3.506   0.312   0.429
 3123SOL    HW210257   3.454   0.454   0.415
 3124SOL     OW10258   2.890   0.761   0.961
 3124SOL    HW110259   2.887   0.777   1.056
 3124SOL    HW210260   2.862   0.670   0.952
 3125SOL     OW10261   2.845   1.567   1.716
 3125SOL    HW110262   2.829   1.610   1.632
 3125SOL    HW210263   2.887   1.484   1.693
 3126SOL     OW10264   3.717   1.507   1.606
 3126SOL    HW110265   3.734   1.533   1.515
 3126SOL    HW210266   3.798   1.526   1.652
 3127SOL     OW10267   2.216   0.916   1.808
 3127SOL    HW110268   2.298   0.935   1.854
 3127SOL    HW210269   2.240   0.853   1.740
 3128SOL     OW10270   3.397   0.296   0.111
 3128SOL    HW110271   3.338   0.221   0.125
 3128SOL    HW210272   3.429   0.317   0.199
 3129SOL     OW10273   3.150   0.822   0.032
 3129SOL    HW110274   3.194   0.738   0.042
 3129SOL    HW210275   3.183   0.857  11.050
 3130SOL     OW10276   2.927   1.335   0.853
 3130SOL    HW110277   2.930   1.262   0.791
 3130SOL    HW210278   2.989   1.399   0.818
 3131SOL     OW10279   2.171   0.810   0.948
 3131SOL    HW110280   2.264   0.832   0.941
 3131SOL    HW210281   2.170   0.720   0.981
 3132SOL     OW10282   2.199   0.531   1.013
 3132SOL    HW110283   2.156   0.447   0.994
 3132SOL    HW210284   2.274   0.533   0.955
 3133SOL     OW10285   2.997   0.374   1.695
 3133SOL    HW110286   2.948   0.438   1.746
 3133SOL    HW210287   3.083   0.415   1.682
 3134SOL     OW10288   3.020   0.212   1.473
 3134SOL    HW110289   3.013   0.276   1.544
 3134SOL    HW210290   3.059   0.261   1.401
 3135SOL     OW10291   1.869   1.328   0.196
 3135SOL    HW110292   1.783   1.340   0.157
 3135SOL    HW210293   1.870   1.237   0.226
 3136SOL     OW10294   1.953   1.786   0.929
 3136SOL    HW110295   1.924   1.704   0.890
 3136SOL    HW210296   2.040   1.802   0.892
 3137SOL     OW10297   2.360   1.570   0.906
 3137SOL    HW110298   2.428   1.632   0.930
 3137SOL    HW210299   2.404   1.506   0.850
 3138SOL     OW10300   2.846   0.794   1.228
 3138SOL    HW110301   2.901   0.770   1.303
 3138SOL    HW210302   2.761   0.754   1.247
 3139SOL     OW10303   1.895   0.543   1.118
 3139SOL    HW110304   1.973   0.524   1.066
 3139SOL    HW210305   1.928   0.548   1.208
 3140SOL     OW10306   2.047   0.519   1.721
 3140SOL    HW110307   2.121   0.499   1.664
 3140SOL    HW210308   2.005   0.595   1.679
 3141SOL     OW10309   3.239   0.939   1.659
 3141SOL    HW110310   3.259   1.033   1.657
 3141SOL    HW210311   3.236   0.914   1.567
 3142SOL     OW10312   2.673   0.575   0.358
 3142SOL    HW110313   2.679   0.500   0.299
 3142SOL    HW210314   2.599   0.626   0.324
 3143SOL     OW10315   3.503   0.602   1.187
 3143SOL    HW110316   3.492   0.542   1.261
 3143SOL    HW210317   3.590   0.582   1.153
 3144SOL     OW10318   2.113   1.549   1.731
 3144SOL    HW110319   2.080   1.610   1.797
 3144SOL    HW210320   2.110   1.464   1.774
 3145SOL     OW10321   2.560   0.459   1.264
 3145SOL    HW110322   2.513   0.382   1.232
 3145SOL    HW210323   2.560   0.520   1.190
 3146SOL     OW10324   2.790   1.679   1.467
 3146SOL    HW110325   2.764   1.645   1.382
 3146SOL    HW210326   2.787   1.774   1.457
 3147SOL     OW10327   2.326   0.486   0.180
 3147SOL    HW110328   2.385   0.558   0.201
 3147SOL    HW210329   2.240   0.528   0.172
 3148SOL     OW10330   2.008   1.140   1.473
 3148SOL    HW110331   2.011   1.088   1.553
 3148SOL    HW210332   2.025   1.077   1.403
 3149SOL     OW10333   3.189   1.048   1.223
 3149SOL    HW110334   3.212   0.984   1.156
 3149SOL    HW210335   3.118   1.099   1.185
 3150SOL     OW10336   3.171   0.852   0.310
 3150SOL    HW110337   3.094   0.822   0.359
 3150SOL    HW210338   3.147   0.839   0.218
 3151SOL     OW10339   3.634   1.744   1.150
 3151SOL    HW110340   3.693   1.771   1.080
 3151SOL    HW210341   3.609   1.655   1.129
 3152SOL     OW10342   3.104   1.733   1.115
 3152SOL    HW110343   3.185   1.753   1.069
 3152SOL    HW210344   3.108   1.639   1.132
 3153SOL     OW10345   1.947   1.265   1.013
 3153SOL    HW110346   1.932   1.278   1.107
 3153SOL    HW210347   1.872   1.213   0.984
 3154SOL     OW10348   2.540   1.664   1.727
 3154SOL    HW110349   2.487   1.744   1.726
 3154SOL    HW210350   2.604   1.676   1.657
 3155SOL     OW10351   2.742   0.065   0.127
 3155SOL    HW110352   2.826   0.093   0.093
 3155SOL    HW210353   2.763   0.013   0.205
 3156SOL     OW10354   3.581   0.133   0.497
 3156SOL    HW110355   3.654   0.138   0.435
 3156SOL    HW210356   3.601   0.057   0.550
 3157SOL     OW10357   3.252   1.568   0.485
 3157SOL    HW110358   3.313   1.599   0.418
 3157SOL    HW210359   3.205   1.646   0.513
 3158SOL     OW10360   1.989   1.787   1.850
 3158SOL    HW110361   1.938   1.718   1.892
 3158SOL    HW210362   2.047   1.819   1.919
 3159SOL     OW10363   3.141   0.927   0.673
 3159SOL    HW110364   3.213   0.865   0.676
 3159SOL    HW210365   3.174   1.000   0.620
 3160SOL     OW10366   2.677   1.273   1.430
 3160SOL    HW110367   2.649   1.312   1.513
 3160SOL    HW210368   2.607   1.294   1.369
 3161SOL     OW10369   2.535   1.621   0.168
 3161SOL    HW110370   2.544   1.633   0.074
 3161SOL    HW210371   2.479   1.544   0.177
 3162SOL     OW10372   3.490   1.727   1.392
 3162SOL    HW110373   3.539   1.734   1.310
 3162SOL    HW210374   3.476   1.817   1.419
 3163SOL     OW10375   3.701   0.154   0.966
 3163SOL    HW110376   3.731   0.077   0.919
 3163SOL    HW210377   3.614   0.173   0.930
 3164SOL     OW10378   2.126   0.323   0.718
 3164SOL    HW110379   2.041   0.356   0.690
 3164SOL    HW210380   2.119   0.314   0.813
 3165SOL     OW10381   3.085   1.602   0.052
 3165SOL    HW110382   3.072   1.510   0.073
 3165SOL    HW210383   3.019   1.621  11.086
 3166SOL     OW10384   2.686   1.006   1.372
 3166SOL    HW110385   2.729   1.001   1.287
 3166SOL    HW210386   2.686   1.099   1.394
 3167SOL     OW10387   2.776   0.906   0.282
 3167SOL    HW110388   2.843   0.946   0.226
 3167SOL    HW210389   2.824   0.842   0.334
 3168SOL     OW10390   3.361   1.622   0.046
 3168SOL    HW110391   3.265   1.617   0.044
 3168SOL    HW210392   3.387   1.636  11.055
 3169SOL     OW10393   2.232   1.299   1.493
 3169SOL    HW110394   2.220   1.377   1.438
 3169SOL    HW210395   2.154   1.247   1.476
 3170SOL     OW10396   3.473   1.283   1.281
 3170SOL    HW110397   3.532   1.272   1.356
 3170SOL    HW210398   3.413   1.352   1.307
 3171SOL     OW10399   2.913   1.106   0.706
 3171SOL    HW110400   2.842   1.055   0.745
 3171SOL    HW210401   2.976   1.041   0.675
 3172SOL     OW10402   2.875   0.241   0.995
 3172SOL    HW110403   2.874   0.208   0.905
 3172SOL    HW210404   2.864   0.162   1.049
 3173SOL     OW10405   2.464   1.491   0.482
 3173SOL    HW110406   2.505   1.438   0.414
 3173SOL    HW210407   2.398   1.542   0.435
 3174SOL     OW10408   3.583   0.394   1.377
 3174SOL    HW110409   3.656   0.456   1.376
 3174SOL    HW210410   3.612   0.322   1.321
 3175SOL     OW10411   2.128   1.336   0.292
 3175SOL    HW110412   2.040   1.339   0.253
 3175SOL    HW210413   2.117   1.378   0.378
 3176SOL     OW10414   1.974   1.020   1.719
 3176SOL    HW110415   1.898   0.998   1.773
 3176SOL    HW210416   2.049   0.984   1.767
 3177SOL     OW10417   2.520   0.204   1.498
 3177SOL    HW110418   2.600   0.179   1.451
 3177SOL    HW210419   2.550   0.225   1.587
 3178SOL     OW10420   1.939   0.343   0.053
 3178SOL    HW110421   1.864   0.311   0.003
 3178SOL    HW210422   1.957   0.429   0.016
 3179SOL     OW10423   3.292   0.858   1.400
 3179SOL    HW110424   3.243   0.919   1.345
 3179SOL    HW210425   3.382   0.861   1.366
 3180SOL     OW10426   1.928   0.181   0.325
 3180SOL    HW110427   1.922   0.247   0.256
 3180SOL    HW210428   2.000   0.124   0.297
 3181SOL     OW10429   3.044   1.340   0.122
 3181SOL    HW110430   2.951   1.322   0.115
 3181SOL    HW210431   3.064   1.332   0.215
 3182SOL     OW10432   2.481   0.830   1.433
 3182SOL    HW110433   2.536   0.907   1.418
 3182SOL    HW210434   2.542   0.757   1.442
 3183SOL     OW10435   3.346   1.777   0.978
 3183SOL    HW110436   3.370   1.834   0.906
 3183SOL    HW210437   3.428   1.757   1.022
 3184SOL     OW10438   2.578   0.563   1.706
 3184SOL    HW110439   2.616   0.628   1.765
 3184SOL    HW210440   2.611   0.479   1.737
 3185SOL     OW10441   3.333   1.201   1.632
 3185SOL    HW110442   3.320   1.214   1.726
 3185SOL    HW210443   3.426   1.215   1.618
 3186SOL     OW10444   2.244   1.741   1.566
 3186SOL    HW110445   2.157   1.776   1.546
 3186SOL    HW210446   2.227   1.656   1.606
 3187SOL     OW10447   3.532   0.881   1.255
 3187SOL    HW110448   3.524   0.796   1.212
 3187SOL    HW210449   3.522   0.945   1.185
 3188SOL     OW10450   3.080   0.327   0.447
 3188SOL    HW110451   3.146   0.259   0.437
 3188SOL    HW210452   3.105   0.373   0.527
 3189SOL     OW10453   2.448   0.739   0.670
 3189SOL    HW110454   2.490   0.823   0.655
 3189SOL    HW210455   2.382   0.732   0.602
 3190SOL     OW10456   3.625   0.365   1.643
 3190SOL    HW110457   3.609   0.378   1.550
 3190SOL    HW210458   3.547   0.319   1.675
 3191SOL     OW10459   3.608   0.933   1.512
 3191SOL    HW110460   3.604   1.028   1.525
 3191SOL    HW210461   3.592   0.921   1.419
 3192SOL     OW10462   2.765   1.358   0.068
 3192SOL    HW110463   2.693   1.357   0.131
 3192SOL    HW210464   2.752   1.439   0.019
 3193SOL     OW10465   2.529   1.777   0.944
 3193SOL    HW110466   2.510   1.868   0.919
 3193SOL    HW210467   2.625   1.771   0.941
 3194SOL     OW10468   2.729   0.967   0.855
 3194SOL    HW110469   2.779   0.895   0.894
 3194SOL    HW210470   2.695   1.016   0.930
 3195SOL     OW10471   2.942   0.990   0.086
 3195SOL    HW110472   2.916   1.023  11.100
 3195SOL    HW210473   3.017   0.934   0.068
 3196SOL     OW10474   3.716   1.556   0.845
 3196SOL    HW110475   3.640   1.544   0.789
 3196SOL    HW210476   3.709   1.487   0.911
 3197SOL     OW10477   2.086   1.302   1.856
 3197SOL    HW110478   2.019   1.242   1.826
 3197SOL    HW210479   2.068   1.314   1.949
 3198SOL     OW10480   1.948   1.234   0.664
 3198SOL    HW110481   1.950   1.187   0.747
 3198SOL    HW210482   2.017   1.193   0.611
 3199SOL     OW10483   2.543   1.402   1.627
 3199SOL    HW110484   2.463   1.359   1.657
 3199SOL    HW210485   2.537   1.490   1.664
 3200SOL     OW10486   3.670   0.182   1.239
 3200SOL    HW110487   3.669   0.088   1.259
 3200SOL    HW210488   3.687   0.186   1.144
 3201SOL     OW10489   2.297   0.432   0.529
 3201SOL    HW110490   2.320   0.362   0.468
 3201SOL    HW210491   2.242   0.390   0.595
 3202SOL     OW10492   3.562   1.490   1.098
 3202SOL    HW110493   3.481   1.466   1.052
 3202SOL    HW210494   3.574   1.420   1.162
 3203SOL     OW10495   2.191   0.557   1.292
 3203SOL    HW110496   2.247   0.500   1.346
 3203SOL    HW210497   2.211   0.530   1.202
 3204SOL     OW10498   2.689   1.578   0.678
 3204SOL    HW110499   2.676   1.625   0.596
 3204SOL    HW210500   2.612   1.520   0.685
 3205SOL     OW10501   3.294   0.217   1.117
 3205SOL    HW110502   3.330   0.145   1.170
 3205SOL    HW210503   3.243   0.269   1.179
 3206SOL     OW10504   2.858   0.010   1.149
 3206SOL    HW110505   2.814   4.426   1.142
 3206SOL    HW210506   2.951   4.489   1.162
 3207SOL     OW10507   2.629   1.328   0.317
 3207SOL    HW110508   2.600   1.238   0.330
 3207SOL    HW210509   2.715   1.332   0.360
 3208SOL     OW10510   2.484   1.557   1.284
 3208SOL    HW110511   2.485   1.638   1.334
 3208SOL    HW210512   2.571   1.550   1.246
 3209SOL     OW10513   3.211   0.059   0.170
 3209SOL    HW110514   3.247   0.002   0.101
 3209SOL    HW210515   3.132   0.013   0.199
 3210SOL     OW10516   3.178   0.463   0.679
 3210SOL    HW110517   3.116   0.536   0.678
 3210SOL    HW210518   3.164   0.420   0.763
 3211SOL     OW10519   3.448   0.200   0.867
 3211SOL    HW110520   3.388   0.215   0.941
 3211SOL    HW210521   3.450   0.284   0.821
 3212SOL     OW10522   1.904   1.071   0.301
 3212SOL    HW110523   2.000   1.065   0.296
 3212SOL    HW210524   1.876   0.983   0.327
 3213SOL     OW10525   2.746   1.653   0.348
 3213SOL    HW110526   2.675   1.632   0.287
 3213SOL    HW210527   2.713   1.728   0.398
 3214SOL     OW10528   2.091   0.626   1.983
 3214SOL    HW110529   2.004   0.620   2.021
 3214SOL    HW210530   2.080   0.596   1.892
 3215SOL     OW10531   2.070   0.298   2.851
 3215SOL    HW110532   2.101   0.270   2.937
 3215SOL    HW210533   1.988   0.250   2.838
 3216SOL     OW10534   1.870   0.386   2.500
 3216SOL    HW110535   1.783   0.405   2.537
 3216SOL    HW210536   1.855   0.312   2.442
 3217SOL     OW10537   2.429   1.287   3.036
 3217SOL    HW110538   2.341   1.289   2.999
 3217SOL    HW210539   2.443   1.375   3.070
 3218SOL     OW10540   3.422   1.512   2.569
 3218SOL    HW110541   3.379   1.491   2.652
 3218SOL    HW210542   3.351   1.516   2.505
 3219SOL     OW10543   2.996   0.699   2.561
 3219SOL    HW110544   3.042   0.782   2.551
 3219SOL    HW210545   2.946   0.709   2.642
 3220SOL     OW10546   3.629   0.607   2.090
 3220SOL    HW110547   3.608   0.597   1.997
 3220SOL    HW210548   3.596   0.527   2.131
 3221SOL     OW10549   2.619   1.143   2.902
 3221SOL    HW110550   2.549   1.177   2.959
 3221SOL    HW210551   2.654   1.221   2.857
 3222SOL     OW10552   2.727   0.776   3.684
 3222SOL    HW110553   2.715   0.846   3.747
 3222SOL    HW210554   2.751   0.820   3.603
 3223SOL     OW10555   2.548   1.004   2.509
 3223SOL    HW110556   2.613   0.991   2.579
 3223SOL    HW210557   2.479   1.055   2.550
 3224SOL     OW10558   2.572   1.151   3.672
 3224SOL    HW110559   2.619   1.230   3.700
 3224SOL    HW210560   2.488   1.184   3.639
 3225SOL     OW10561   2.194   1.424   2.931
 3225SOL    HW110562   2.119   1.389   2.882
 3225SOL    HW210563   2.242   1.475   2.866
 3226SOL     OW10564   3.323   1.499   3.215
 3226SOL    HW110565   3.372   1.581   3.226
 3226SOL    HW210566   3.261   1.498   3.288
 3227SOL     OW10567   2.304   0.395   3.351
 3227SOL    HW110568   2.386   0.346   3.353
 3227SOL    HW210569   2.236   0.329   3.365
 3228SOL     OW10570   3.473   0.446   2.600
 3228SOL    HW110571   3.393   0.468   2.553
 3228SOL    HW210572   3.492   0.524   2.653
 3229SOL     OW10573   2.083   1.724   2.339
 3229SOL    HW110574   2.123   1.763   2.416
 3229SOL    HW210575   2.155   1.711   2.277
 3230SOL     OW10576   2.999   1.341   3.554
 3230SOL    HW110577   3.038   1.338   3.642
 3230SOL    HW210578   2.946   1.262   3.548
 3231SOL     OW10579   2.089   1.443   2.397
 3231SOL    HW110580   2.065   1.536   2.407
 3231SOL    HW210581   2.032   1.397   2.458
 3232SOL     OW10582   2.119   1.090   2.753
 3232SOL    HW110583   2.115   1.004   2.794
 3232SOL    HW210584   2.061   1.145   2.806
 3233SOL     OW10585   2.475   1.782   3.294
 3233SOL    HW110586   2.391   1.770   3.338
 3233SOL    HW210587   2.498   1.873   3.312
 3234SOL     OW10588   2.449   0.981   1.996
 3234SOL    HW110589   2.493   1.031   1.927
 3234SOL    HW210590   2.489   1.011   2.077
 3235SOL     OW10591   3.445   0.115   3.334
 3235SOL    HW110592   3.465   0.184   3.270
 3235SOL    HW210593   3.434   0.162   3.417
 3236SOL     OW10594   1.978   0.653   2.422
 3236SOL    HW110595   1.948   0.564   2.443
 3236SOL    HW210596   1.969   0.702   2.503
 3237SOL     OW10597   3.704   1.760   2.197
 3237SOL    HW110598   3.766   1.731   2.264
 3237SOL    HW210599   3.729   1.850   2.179
 3238SOL     OW10600   1.892   1.585   1.985
 3238SOL    HW110601   1.876   1.492   2.002
 3238SOL    HW210602   1.868   1.630   2.066
 3239SOL     OW10603   3.553   0.921   2.503
 3239SOL    HW110604   3.636   0.878   2.482
 3239SOL    HW210605   3.531   0.969   2.424
 3240SOL     OW10606   3.508   1.107   2.291
 3240SOL    HW110607   3.594   1.114   2.249
 3240SOL    HW210608   3.512   1.168   2.365
 3241SOL     OW10609   1.984   0.745   3.447
 3241SOL    HW110610   2.076   0.770   3.456
 3241SOL    HW210611   1.936   0.827   3.455
 3242SOL     OW10612   2.476   1.385   2.596
 3242SOL    HW110613   2.430   1.301   2.606
 3242SOL    HW210614   2.459   1.411   2.506
 3243SOL     OW10615   3.152   1.239   3.285
 3243SOL    HW110616   3.184   1.171   3.226
 3243SOL    HW210617   3.208   1.232   3.362
 3244SOL     OW10618   2.679   0.014   2.412
 3244SOL    HW110619   2.714   0.099   2.387
 3244SOL    HW210620   2.584   0.024   2.405
 3245SOL     OW10621   2.053   0.966   3.133
 3245SOL    HW110622   2.137   0.924   3.118
 3245SOL    HW210623   1.990   0.912   3.086
 3246SOL     OW10624   3.394   0.992   2.060
 3246SOL    HW110625   3.323   0.936   2.091
 3246SOL    HW210626   3.434   1.027   2.140
 3247SOL     OW10627   3.050   1.806   3.483
 3247SOL    HW110628   3.061   1.863   3.406
 3247SOL    HW210629   3.063   1.718   3.450
 3248SOL     OW10630   2.177   0.254   3.642
 3248SOL    HW110631   2.241   0.318   3.675
 3248SOL    HW210632   2.104   0.261   3.703
 3249SOL     OW10633   3.328   1.420   2.814
 3249SOL    HW110634   3.260   1.434   2.879
 3249SOL    HW210635   3.316   1.329   2.787
 3250SOL     OW10636   3.521   1.738   2.440
 3250SOL    HW110637   3.500   1.709   2.351
 3250SOL    HW210638   3.496   1.664   2.496
 3251SOL     OW10639   2.455   0.723   2.127
 3251SOL    HW110640   2.461   0.805   2.077
 3251SOL    HW210641   2.390   0.741   2.195
 3252SOL     OW10642   3.153   0.362   2.795
 3252SOL    HW110643   3.064   0.332   2.780
 3252SOL    HW210644   3.189   0.299   2.858
 3253SOL     OW10645   3.443   1.670   2.171
 3253SOL    HW110646   3.533   1.702   2.164
 3253SOL    HW210647   3.416   1.653   2.081
 3254SOL     OW10648   2.657   0.619   3.316
 3254SOL    HW110649   2.629   0.594   3.404
 3254SOL    HW210650   2.617   0.554   3.259
 3255SOL     OW10651   3.251   0.479   3.538
 3255SOL    HW110652   3.254   0.523   3.623
 3255SOL    HW210653   3.317   0.410   3.544
 3256SOL     OW10654   2.818   0.888   3.444
 3256SOL    HW110655   2.871   0.817   3.409
 3256SOL    HW210656   2.770   0.921   3.368
 3257SOL     OW10657   2.858   0.417   3.099
 3257SOL    HW110658   2.771   0.428   3.136
 3257SOL    HW210659   2.844   0.365   3.019
 3258SOL     OW10660   2.912   0.697   2.289
 3258SOL    HW110661   2.928   0.690   2.383
 3258SOL    HW210662   2.829   0.651   2.275
 3259SOL     OW10663   1.951   0.820   2.638
 3259SOL    HW110664   2.032   0.814   2.689
 3259SOL    HW210665   1.907   0.898   2.673
 3260SOL     OW10666   1.968   1.798   3.428
 3260SOL    HW110667   1.972   1.793   3.523
 3260SOL    HW210668   1.881   1.833   3.409
 3261SOL     OW10669   2.717   0.369   2.044
 3261SOL    HW110670   2.789   0.403   1.992
 3261SOL    HW210671   2.732   0.274   2.048
 3262SOL     OW10672   3.567   0.574   3.690
 3262SOL    HW110673   3.531   0.649   3.643
 3262SOL    HW210674   3.602   0.517   3.621
 3263SOL     OW10675   3.239   1.143   2.403
 3263SOL    HW110676   3.317   1.129   2.350
 3263SOL    HW210677   3.186   1.204   2.353
 3264SOL     OW10678   2.400   0.203   2.763
 3264SOL    HW110679   2.421   0.221   2.855
 3264SOL    HW210680   2.392   0.290   2.723
 3265SOL     OW10681   2.869   1.445   2.335
 3265SOL    HW110682   2.830   1.517   2.285
 3265SOL    HW210683   2.852   1.466   2.426
 3266SOL     OW10684   2.214   1.791   2.695
 3266SOL    HW110685   2.252   1.705   2.712
 3266SOL    HW210686   2.282   1.853   2.721
 3267SOL     OW10687   3.660   1.060   2.730
 3267SOL    HW110688   3.606   1.039   2.654
 3267SOL    HW210689   3.598   1.064   2.803
 3268SOL     OW10690   3.091   1.538   3.374
 3268SOL    HW110691   3.076   1.467   3.436
 3268SOL    HW210692   3.026   1.524   3.306
 3269SOL     OW10693   2.182   0.956   2.112
 3269SOL    HW110694   2.264   0.975   2.066
 3269SOL    HW210695   2.151   0.875   2.073
 3270SOL     OW10696   3.341   0.742   2.587
 3270SOL    HW110697   3.328   0.697   2.670
 3270SOL    HW210698   3.418   0.797   2.601
 3271SOL     OW10699   2.328   1.264   3.600
 3271SOL    HW110700   2.301   1.269   3.508
 3271SOL    HW210701   2.246   1.262   3.649
 3272SOL     OW10702   2.984   1.777   2.094
 3272SOL    HW110703   2.910   1.735   2.139
 3272SOL    HW210704   3.006   1.717   2.023
 3273SOL     OW10705   2.050   0.267   3.373
 3273SOL    HW110706   1.984   0.335   3.357
 3273SOL    HW210707   2.064   0.270   3.468
 3274SOL     OW10708   3.491   1.380   1.949
 3274SOL    HW110709   3.449   1.465   1.934
 3274SOL    HW210710   3.422   1.316   1.931
 3275SOL     OW10711   2.328   1.722   2.201
 3275SOL    HW110712   2.368   1.795   2.250
 3275SOL    HW210713   2.388   1.708   2.127
 3276SOL     OW10714   3.282   0.137   2.280
 3276SOL    HW110715   3.266   0.086   2.200
 3276SOL    HW210716   3.376   0.131   2.293
 3277SOL     OW10717   2.097   1.771   3.103
 3277SOL    HW110718   2.167   1.715   3.137
 3277SOL    HW210719   2.108   1.770   3.008
 3278SOL     OW10720   2.797   1.697   2.762
 3278SOL    HW110721   2.875   1.646   2.784
 3278SOL    HW210722   2.755   1.648   2.691
 3279SOL     OW10723   2.254   0.694   2.338
 3279SOL    HW110724   2.277   0.602   2.350
 3279SOL    HW210725   2.160   0.699   2.356
 3280SOL     OW10726   3.387   0.233   3.585
 3280SOL    HW110727   3.387   0.256   3.677
 3280SOL    HW210728   3.310   0.178   3.573
 3281SOL     OW10729   2.489   0.122   1.984
 3281SOL    HW110730   2.577   0.086   1.993
 3281SOL    HW210731   2.456   0.086   1.902
 3282SOL     OW10732   2.630   0.270   3.615
 3282SOL    HW110733   2.696   0.202   3.627
 3282SOL    HW210734   2.587   0.277   3.701
 3283SOL     OW10735   2.740   1.523   3.054
 3283SOL    HW110736   2.723   1.484   2.968
 3283SOL    HW210737   2.808   1.468   3.093
 3284SOL     OW10738   3.204   0.589   3.291
 3284SOL    HW110739   3.231   0.560   3.378
 3284SOL    HW210740   3.238   0.678   3.283
 3285SOL     OW10741   2.676   1.397   2.800
 3285SOL    HW110742   2.761   1.384   2.757
 3285SOL    HW210743   2.612   1.395   2.729
 3286SOL     OW10744   2.785   0.518   2.762
 3286SOL    HW110745   2.769   0.516   2.668
 3286SOL    HW210746   2.823   0.432   2.782
 3287SOL     OW10747   2.416   0.076   2.383
 3287SOL    HW110748   2.327   0.048   2.406
 3287SOL    HW210749   2.403   0.141   2.314
 3288SOL     OW10750   3.291   1.198   1.903
 3288SOL    HW110751   3.320   1.122   1.953
 3288SOL    HW210752   3.204   1.219   1.940
 3289SOL     OW10753   2.158   0.069   2.059
 3289SOL    HW110754   2.236   0.121   2.041
 3289SOL    HW210755   2.188   4.500   2.118
 3290SOL     OW10756   2.814   0.240   2.330
 3290SOL    HW110757   2.762   0.295   2.272
 3290SOL    HW210758   2.903   0.276   2.325
 3291SOL     OW10759   2.942   0.680   3.322
 3291SOL    HW110760   2.870   0.617   3.323
 3291SOL    HW210761   3.021   0.628   3.311
 3292SOL     OW10762   3.085   1.570   2.656
 3292SOL    HW110763   3.104   1.637   2.589
 3292SOL    HW210764   3.154   1.582   2.721
 3293SOL     OW10765   2.330   1.150   2.596
 3293SOL    HW110766   2.261   1.130   2.659
 3293SOL    HW210767   2.291   1.133   2.511
 3294SOL     OW10768   3.132   1.794   2.469
 3294SOL    HW110769   3.178   1.855   2.411
 3294SOL    HW210770   3.067   1.848   2.514
 3295SOL     OW10771   2.892   0.548   1.878
 3295SOL    HW110772   2.843   0.629   1.863
 3295SOL    HW210773   2.950   0.568   1.952
 3296SOL     OW10774   1.944   0.551   3.257
 3296SOL    HW110775   2.034   0.554   3.227
 3296SOL    HW210776   1.936   0.623   3.320
 3297SOL     OW10777   2.425   0.243   3.028
 3297SOL    HW110778   2.452   0.161   3.068
 3297SOL    HW210779   2.333   0.253   3.053
 3298SOL     OW10780   2.728   0.504   2.488
 3298SOL    HW110781   2.682   0.544   2.415
 3298SOL    HW210782   2.696   0.413   2.489
 3299SOL     OW10783   2.826   0.026   2.643
 3299SOL    HW110784   2.777   0.024   2.561
 3299SOL    HW210785   2.839   4.434   2.666
 3300SOL     OW10786   3.298   1.163   2.719
 3300SOL    HW110787   3.230   1.096   2.719
 3300SOL    HW210788   3.321   1.174   2.627
 3301SOL     OW10789   3.328   0.604   2.838
 3301SOL    HW110790   3.275   0.525   2.840
 3301SOL    HW210791   3.386   0.597   2.913
 3302SOL     OW10792   3.708   0.817   2.244
 3302SOL    HW110793   3.764   0.765   2.303
 3302SOL    HW210794   3.679   0.755   2.177
 3303SOL     OW10795   2.353   1.418   2.019
 3303SOL    HW110796   2.279   1.389   2.072
 3303SOL    HW210797   2.337   1.381   1.932
 3304SOL     OW10798   3.532   1.265   2.507
 3304SOL    HW110799   3.626   1.268   2.522
 3304SOL    HW210800   3.501   1.353   2.529
 3305SOL     OW10801   3.256   0.570   1.932
 3305SOL    HW110802   3.195   0.555   2.003
 3305SOL    HW210803   3.342   0.551   1.969
 3306SOL     OW10804   2.384   0.266   2.186
 3306SOL    HW110805   2.431   0.214   2.119
 3306SOL    HW210806   2.367   0.349   2.143
 3307SOL     OW10807   3.615   1.238   3.435
 3307SOL    HW110808   3.702   1.199   3.433
 3307SOL    HW210809   3.629   1.328   3.465
 3308SOL     OW10810   2.921   1.354   3.196
 3308SOL    HW110811   2.846   1.323   3.247
 3308SOL    HW210812   2.997   1.313   3.237
 3309SOL     OW10813   3.470   1.626   3.515
 3309SOL    HW110814   3.465   1.659   3.426
 3309SOL    HW210815   3.552   1.578   3.518
 3310SOL     OW10816   2.991   1.204   2.968
 3310SOL    HW110817   2.931   1.240   3.033
 3310SOL    HW210818   2.956   1.234   2.884
 3311SOL     OW10819   3.491   1.098   2.940
 3311SOL    HW110820   3.486   1.161   3.013
 3311SOL    HW210821   3.411   1.115   2.890
 3312SOL     OW10822   2.765   0.132   3.250
 3312SOL    HW110823   2.787   0.089   3.168
 3312SOL    HW210824   2.849   0.147   3.293
 3313SOL     OW10825   2.846   1.115   3.584
 3313SOL    HW110826   2.754   1.131   3.606
 3313SOL    HW210827   2.845   1.037   3.529
 3314SOL     OW10828   2.571   1.061   2.233
 3314SOL    HW110829   2.557   1.045   2.327
 3314SOL    HW210830   2.646   1.007   2.211
 3315SOL     OW10831   2.281   0.815   3.113
 3315SOL    HW110832   2.349   0.824   3.179
 3315SOL    HW210833   2.246   0.727   3.127
 3316SOL     OW10834   3.131   0.376   3.135
 3316SOL    HW110835   3.162   0.454   3.179
 3316SOL    HW210836   3.041   0.398   3.108
 3317SOL     OW10837   1.927   1.567   3.210
 3317SOL    HW110838   1.894   1.645   3.164
 3317SOL    HW210839   2.022   1.580   3.214
 3318SOL     OW10840   2.212   1.109   2.353
 3318SOL    HW110841   2.217   1.181   2.291
 3318SOL    HW210842   2.210   1.030   2.298
 3319SOL     OW10843   2.418   0.530   2.720
 3319SOL    HW110844   2.432   0.589   2.646
 3319SOL    HW210845   2.482   0.559   2.786
 3320SOL     OW10846   3.110   1.348   2.251
 3320SOL    HW110847   3.166   1.420   2.282
 3320SOL    HW210848   3.023   1.369   2.285
 3321SOL     OW10849   3.142   1.457   3.008
 3321SOL    HW110850   3.197   1.459   3.087
 3321SOL    HW210851   3.086   1.380   3.020
 3322SOL     OW10852   3.444   0.624   2.339
 3322SOL    HW110853   3.397   0.674   2.405
 3322SOL    HW210854   3.488   0.690   2.285
 3323SOL     OW10855   2.214   1.518   3.182
 3323SOL    HW110856   2.197   1.480   3.095
 3323SOL    HW210857   2.308   1.533   3.183
 3324SOL     OW10858   2.276   0.743   3.464
 3324SOL    HW110859   2.336   0.790   3.406
 3324SOL    HW210860   2.321   0.660   3.482
 3325SOL     OW10861   3.463   0.778   3.542
 3325SOL    HW110862   3.377   0.819   3.536
 3325SOL    HW210863   3.515   0.820   3.474
 3326SOL     OW10864   2.868   0.084   3.583
 3326SOL    HW110865   2.895   0.168   3.545
 3326SOL    HW210866   2.892   0.019   3.518
 3327SOL     OW10867   2.361   0.046   3.621
 3327SOL    HW110868   2.357   0.005   3.535
 3327SOL    HW210869   2.293   0.114   3.618
 3328SOL     OW10870   2.444   0.873   2.893
 3328SOL    HW110871   2.475   0.964   2.892
 3328SOL    HW210872   2.388   0.867   2.970
 3329SOL     OW10873   3.220   0.859   2.892
 3329SOL    HW110874   3.137   0.850   2.846
 3329SOL    HW210875   3.260   0.772   2.887
 3330SOL     OW10876   3.066   0.535   2.125
 3330SOL    HW110877   3.073   0.455   2.177
 3330SOL    HW210878   3.023   0.598   2.184
 3331SOL     OW10879   2.152   0.234   3.103
 3331SOL    HW110880   2.109   0.250   3.187
 3331SOL    HW210881   2.186   0.145   3.110
 3332SOL     OW10882   1.906   1.308   3.138
 3332SOL    HW110883   1.941   1.256   3.211
 3332SOL    HW210884   1.914   1.399   3.167
 3333SOL     OW10885   2.585   0.631   2.920
 3333SOL    HW110886   2.659   0.612   2.862
 3333SOL    HW210887   2.559   0.720   2.896
 3334SOL     OW10888   3.596   0.959   3.714
 3334SOL    HW110889   3.549   0.900   3.656
 3334SOL    HW210890   3.537   0.972   3.788
 3335SOL     OW10891   2.159   0.055   2.516
 3335SOL    HW110892   2.149   0.151   2.518
 3335SOL    HW210893   2.171   0.031   2.608
 3336SOL     OW10894   3.476   0.377   2.225
 3336SOL    HW110895   3.505   0.314   2.290
 3336SOL    HW210896   3.453   0.455   2.276
 3337SOL     OW10897   2.891   0.761   2.824
 3337SOL    HW110898   2.888   0.777   2.918
 3337SOL    HW210899   2.862   0.671   2.814
 3338SOL     OW10900   2.846   1.567   3.578
 3338SOL    HW110901   2.830   1.610   3.495
 3338SOL    HW210902   2.887   1.484   3.555
 3339SOL     OW10903   3.717   1.507   3.468
 3339SOL    HW110904   3.735   1.533   3.377
 3339SOL    HW210905   3.798   1.526   3.514
 3340SOL     OW10906   2.216   0.916   3.670
 3340SOL    HW110907   2.297   0.935   3.716
 3340SOL    HW210908   2.240   0.853   3.602
 3341SOL     OW10909   3.393   0.265   1.990
 3341SOL    HW110910   3.321   0.209   2.019
 3341SOL    HW210911   3.422   0.310   2.069
 3342SOL     OW10912   3.154   0.826   1.893
 3342SOL    HW110913   3.196   0.740   1.896
 3342SOL    HW210914   3.185   0.866   1.811
 3343SOL     OW10915   2.926   1.336   2.715
 3343SOL    HW110916   2.930   1.262   2.653
 3343SOL    HW210917   2.989   1.399   2.680
 3344SOL     OW10918   2.171   0.810   2.810
 3344SOL    HW110919   2.264   0.832   2.803
 3344SOL    HW210920   2.170   0.720   2.843
 3345SOL     OW10921   2.198   0.531   2.875
 3345SOL    HW110922   2.156   0.447   2.856
 3345SOL    HW210923   2.274   0.534   2.817
 3346SOL     OW10924   2.997   0.374   3.557
 3346SOL    HW110925   2.948   0.438   3.608
 3346SOL    HW210926   3.083   0.415   3.544
 3347SOL     OW10927   3.020   0.212   3.335
 3347SOL    HW110928   3.013   0.276   3.406
 3347SOL    HW210929   3.058   0.261   3.263
 3348SOL     OW10930   1.867   1.319   2.056
 3348SOL    HW110931   1.779   1.333   2.020
 3348SOL    HW210932   1.864   1.229   2.090
 3349SOL     OW10933   1.947   1.781   2.793
 3349SOL    HW110934   1.917   1.699   2.754
 3349SOL    HW210935   2.036   1.793   2.758
 3350SOL     OW10936   2.359   1.571   2.765
 3350SOL    HW110937   2.428   1.634   2.786
 3350SOL    HW210938   2.403   1.505   2.711
 3351SOL     OW10939   2.846   0.794   3.090
 3351SOL    HW110940   2.901   0.770   3.164
 3351SOL    HW210941   2.761   0.754   3.109
 3352SOL     OW10942   1.895   0.543   2.980
 3352SOL    HW110943   1.973   0.524   2.928
 3352SOL    HW210944   1.928   0.548   3.070
 3353SOL     OW10945   2.047   0.519   3.582
 3353SOL    HW110946   2.122   0.499   3.527
 3353SOL    HW210947   2.005   0.595   3.541
 3354SOL     OW10948   3.240   0.939   3.521
 3354SOL    HW110949   3.259   1.033   3.520
 3354SOL    HW210950   3.236   0.914   3.428
 3355SOL     OW10951   2.673   0.575   2.217
 3355SOL    HW110952   2.677   0.503   2.154
 3355SOL    HW210953   2.599   0.629   2.188
 3356SOL     OW10954   3.503   0.602   3.049
 3356SOL    HW110955   3.492   0.542   3.123
 3356SOL    HW210956   3.590   0.582   3.015
 3357SOL     OW10957   2.110   1.548   3.591
 3357SOL    HW110958   2.084   1.611   3.659
 3357SOL    HW210959   2.109   1.464   3.636
 3358SOL     OW10960   2.560   0.459   3.126
 3358SOL    HW110961   2.513   0.382   3.094
 3358SOL    HW210962   2.560   0.520   3.052
 3359SOL     OW10963   2.793   1.678   3.328
 3359SOL    HW110964   2.763   1.645   3.244
 3359SOL    HW210965   2.789   1.773   3.320
 3360SOL     OW10966   2.327   0.493   2.047
 3360SOL    HW110967   2.386   0.565   2.068
 3360SOL    HW210968   2.241   0.534   2.035
 3361SOL     OW10969   2.008   1.140   3.335
 3361SOL    HW110970   2.011   1.088   3.415
 3361SOL    HW210971   2.025   1.077   3.264
 3362SOL     OW10972   3.189   1.047   3.085
 3362SOL    HW110973   3.212   0.984   3.017
 3362SOL    HW210974   3.118   1.099   3.047
 3363SOL     OW10975   3.173   0.857   2.168
 3363SOL    HW110976   3.098   0.827   2.219
 3363SOL    HW210977   3.147   0.843   2.077
 3364SOL     OW10978   3.633   1.745   3.012
 3364SOL    HW110979   3.693   1.770   2.942
 3364SOL    HW210980   3.609   1.655   2.991
 3365SOL     OW10981   3.104   1.733   2.976
 3365SOL    HW110982   3.186   1.753   2.930
 3365SOL    HW210983   3.108   1.640   2.995
 3366SOL     OW10984   1.947   1.266   2.875
 3366SOL    HW110985   1.932   1.279   2.969
 3366SOL    HW210986   1.872   1.213   2.846
 3367SOL     OW10987   2.539   1.664   3.589
 3367SOL    HW110988   2.487   1.744   3.592
 3367SOL    HW210989   2.601   1.678   3.517
 3368SOL     OW10990   3.580   0.129   2.355
 3368SOL    HW110991   3.652   0.137   2.293
 3368SOL    HW210992   3.606   0.058   2.413
 3369SOL     OW10993   3.253   1.567   2.347
 3369SOL    HW110994   3.313   1.599   2.279
 3369SOL    HW210995   3.204   1.645   2.374
 3370SOL     OW10996   1.994   1.796   3.697
 3370SOL    HW110997   1.954   1.733   3.757
 3370SOL    HW210998   2.041   1.857   3.754
 3371SOL     OW10999   3.140   0.927   2.535
 3371SOL    HW111000   3.213   0.865   2.539
 3371SOL    HW211001   3.174   1.000   2.482
 3372SOL     OW11002   2.677   1.273   3.292
 3372SOL    HW111003   2.650   1.312   3.375
 3372SOL    HW211004   2.606   1.293   3.231
 3373SOL     OW11005   2.534   1.619   2.015
 3373SOL    HW111006   2.544   1.630   1.920
 3373SOL    HW211007   2.479   1.542   2.025
 3374SOL     OW11008   3.491   1.727   3.253
 3374SOL    HW111009   3.539   1.734   3.171
 3374SOL    HW211010   3.477   1.817   3.281
 3375SOL     OW11011   3.701   0.154   2.828
 3375SOL    HW111012   3.732   0.078   2.780
 3375SOL    HW211013   3.614   0.172   2.792
 3376SOL     OW11014   2.127   0.323   2.580
 3376SOL    HW111015   2.041   0.357   2.552
 3376SOL    HW211016   2.120   0.314   2.675
 3377SOL     OW11017   3.069   1.607   1.893
 3377SOL    HW111018   3.060   1.515   1.921
 3377SOL    HW211019   3.003   1.618   1.824
 3378SOL     OW11020   2.686   1.006   3.234
 3378SOL    HW111021   2.729   1.001   3.149
 3378SOL    HW211022   2.686   1.099   3.257
 3379SOL     OW11023   2.778   0.910   2.152
 3379SOL    HW111024   2.840   0.942   2.086
 3379SOL    HW211025   2.824   0.840   2.197
 3380SOL     OW11026   3.354   1.625   1.904
 3380SOL    HW111027   3.260   1.619   1.891
 3380SOL    HW211028   3.391   1.631   1.816
 3381SOL     OW11029   2.232   1.300   3.354
 3381SOL    HW111030   2.220   1.378   3.300
 3381SOL    HW211031   2.153   1.247   3.338
 3382SOL     OW11032   3.474   1.284   3.143
 3382SOL    HW111033   3.531   1.272   3.219
 3382SOL    HW211034   3.413   1.352   3.169
 3383SOL     OW11035   2.913   1.107   2.568
 3383SOL    HW111036   2.842   1.056   2.607
 3383SOL    HW211037   2.975   1.041   2.537
 3384SOL     OW11038   2.868   0.243   2.865
 3384SOL    HW111039   2.874   0.219   2.773
 3384SOL    HW211040   2.861   0.160   2.911
 3385SOL     OW11041   2.464   1.490   2.343
 3385SOL    HW111042   2.507   1.439   2.274
 3385SOL    HW211043   2.400   1.544   2.296
 3386SOL     OW11044   3.583   0.394   3.239
 3386SOL    HW111045   3.656   0.456   3.238
 3386SOL    HW211046   3.612   0.322   3.183
 3387SOL     OW11047   2.121   1.346   2.151
 3387SOL    HW111048   2.028   1.342   2.128
 3387SOL    HW211049   2.123   1.384   2.238
 3388SOL     OW11050   1.974   1.020   3.581
 3388SOL    HW111051   1.898   0.997   3.635
 3388SOL    HW211052   2.049   0.984   3.629
 3389SOL     OW11053   2.520   0.203   3.360
 3389SOL    HW111054   2.600   0.179   3.313
 3389SOL    HW211055   2.550   0.225   3.449
 3390SOL     OW11056   1.943   0.339   1.909
 3390SOL    HW111057   1.872   0.287   1.873
 3390SOL    HW211058   1.957   0.409   1.844
 3391SOL     OW11059   3.292   0.858   3.262
 3391SOL    HW111060   3.243   0.919   3.206
 3391SOL    HW211061   3.382   0.861   3.228
 3392SOL     OW11062   1.927   0.182   2.182
 3392SOL    HW111063   1.925   0.249   2.114
 3392SOL    HW211064   2.001   0.127   2.160
 3393SOL     OW11065   3.041   1.340   1.979
 3393SOL    HW111066   2.950   1.310   1.981
 3393SOL    HW211067   3.069   1.340   2.070
 3394SOL     OW11068   2.481   0.830   3.295
 3394SOL    HW111069   2.536   0.907   3.280
 3394SOL    HW211070   2.542   0.757   3.304
 3395SOL     OW11071   3.346   1.777   2.840
 3395SOL    HW111072   3.371   1.835   2.768
 3395SOL    HW211073   3.428   1.757   2.885
 3396SOL     OW11074   2.578   0.564   3.568
 3396SOL    HW111075   2.616   0.628   3.627
 3396SOL    HW211076   2.611   0.480   3.600
 3397SOL     OW11077   3.332   1.201   3.494
 3397SOL    HW111078   3.319   1.214   3.588
 3397SOL    HW211079   3.426   1.215   3.481
 3398SOL     OW11080   2.239   1.741   3.426
 3398SOL    HW111081   2.151   1.770   3.402
 3398SOL    HW211082   2.225   1.656   3.468
 3399SOL     OW11083   3.532   0.881   3.117
 3399SOL    HW111084   3.524   0.796   3.075
 3399SOL    HW211085   3.523   0.945   3.046
 3400SOL     OW11086   3.080   0.329   2.310
 3400SOL    HW111087   3.145   0.260   2.299
 3400SOL    HW211088   3.108   0.377   2.388
 3401SOL     OW11089   2.449   0.738   2.532
 3401SOL    HW111090   2.491   0.823   2.516
 3401SOL    HW211091   2.382   0.731   2.465
 3402SOL     OW11092   3.625   0.364   3.505
 3402SOL    HW111093   3.609   0.378   3.412
 3402SOL    HW211094   3.547   0.319   3.537
 3403SOL     OW11095   3.608   0.933   3.374
 3403SOL    HW111096   3.604   1.028   3.387
 3403SOL    HW211097   3.592   0.922   3.281
 3404SOL     OW11098   2.725   1.368   1.895
 3404SOL    HW111099   2.685   1.395   1.978
 3404SOL    HW211100   2.742   1.450   1.849
 3405SOL     OW11101   2.522   1.798   2.795
 3405SOL    HW111102   2.521   1.885   2.835
 3405SOL    HW211103   2.614   1.772   2.796
 3406SOL     OW11104   2.729   0.967   2.717
 3406SOL    HW111105   2.779   0.895   2.756
 3406SOL    HW211106   2.695   1.015   2.792
 3407SOL     OW11107   2.942   0.989   1.951
 3407SOL    HW111108   2.919   1.039   1.873
 3407SOL    HW211109   3.016   0.935   1.924
 3408SOL     OW11110   3.716   1.556   2.707
 3408SOL    HW111111   3.639   1.543   2.652
 3408SOL    HW211112   3.710   1.487   2.774
 3409SOL     OW11113   2.087   1.303   3.718
 3409SOL    HW111114   2.019   1.241   3.690
 3409SOL    HW211115   2.072   1.312   3.813
 3410SOL     OW11116   1.948   1.234   2.525
 3410SOL    HW111117   1.949   1.187   2.608
 3410SOL    HW211118   2.015   1.191   2.472
 3411SOL     OW11119   2.542   1.403   3.487
 3411SOL    HW111120   2.463   1.359   3.520
 3411SOL    HW211121   2.538   1.490   3.526
 3412SOL     OW11122   3.670   0.182   3.101
 3412SOL    HW111123   3.669   0.088   3.121
 3412SOL    HW211124   3.687   0.186   3.006
 3413SOL     OW11125   2.298   0.433   2.392
 3413SOL    HW111126   2.320   0.364   2.329
 3413SOL    HW211127   2.242   0.390   2.456
 3414SOL     OW11128   3.562   1.490   2.960
 3414SOL    HW111129   3.481   1.466   2.914
 3414SOL    HW211130   3.574   1.421   3.025
 3415SOL     OW11131   2.191   0.556   3.153
 3415SOL    HW111132   2.247   0.500   3.208
 3415SOL    HW211133   2.211   0.530   3.064
 3416SOL     OW11134   2.688   1.578   2.540
 3416SOL    HW111135   2.676   1.626   2.457
 3416SOL    HW211136   2.612   1.520   2.545
 3417SOL     OW11137   3.294   0.216   2.980
 3417SOL    HW111138   3.330   0.145   3.033
 3417SOL    HW211139   3.243   0.269   3.041
 3418SOL     OW11140   2.858   0.008   3.012
 3418SOL    HW111141   2.815   4.423   3.004
 3418SOL    HW211142   2.951   4.487   3.024
 3419SOL     OW11143   2.634   1.332   2.176
 3419SOL    HW111144   2.601   1.243   2.182
 3419SOL    HW211145   2.716   1.331   2.224
 3420SOL     OW11146   2.483   1.556   3.143
 3420SOL    HW111147   2.484   1.635   3.197
 3420SOL    HW211148   2.572   1.549   3.108
 3421SOL     OW11149   3.203   0.053   2.015
 3421SOL    HW111150   3.242   4.477   1.971
 3421SOL    HW211151   3.127   0.017   2.062
 3422SOL     OW11152   3.177   0.463   2.539
 3422SOL    HW111153   3.116   0.537   2.540
 3422SOL    HW211154   3.165   0.421   2.625
 3423SOL     OW11155   3.447   0.200   2.729
 3423SOL    HW111156   3.388   0.215   2.803
 3423SOL    HW211157   3.450   0.284   2.683
 3424SOL     OW11158   1.906   1.071   2.168
 3424SOL    HW111159   2.000   1.062   2.150
 3424SOL    HW211160   1.877   0.983   2.191
 3425SOL     OW11161   2.745   1.652   2.205
 3425SOL    HW111162   2.673   1.634   2.144
 3425SOL    HW211163   2.714   1.727   2.256
 3426SOL     OW11164   2.091   0.626   3.844
 3426SOL    HW111165   2.004   0.620   3.883
 3426SOL    HW211166   2.080   0.596   3.754
 3427SOL     OW11167   2.070   0.298   4.713
 3427SOL    HW111168   2.101   0.270   4.799
 3427SOL    HW211169   1.988   0.250   4.700
 3428SOL     OW11170   1.870   0.386   4.362
 3428SOL    HW111171   1.783   0.405   4.399
 3428SOL    HW211172   1.855   0.312   4.304
 3429SOL     OW11173   2.433   1.290   4.897
 3429SOL    HW111174   2.350   1.287   4.849
 3429SOL    HW211175   2.441   1.381   4.926
 3430SOL     OW11176   3.420   1.512   4.432
 3430SOL    HW111177   3.377   1.493   4.515
 3430SOL    HW211178   3.349   1.515   4.367
 3431SOL     OW11179   2.996   0.698   4.423
 3431SOL    HW111180   3.042   0.781   4.412
 3431SOL    HW211181   2.946   0.709   4.504
 3432SOL     OW11182   3.630   0.607   3.952
 3432SOL    HW111183   3.609   0.597   3.859
 3432SOL    HW211184   3.596   0.528   3.993
 3433SOL     OW11185   2.619   1.143   4.759
 3433SOL    HW111186   2.554   1.187   4.814
 3433SOL    HW211187   2.651   1.210   4.700
 3434SOL     OW11188   2.729   0.776   5.546
 3434SOL    HW111189   2.711   0.847   5.608
 3434SOL    HW211190   2.751   0.820   5.465
 3435SOL     OW11191   2.547   1.002   4.371
 3435SOL    HW111192   2.613   0.991   4.439
 3435SOL    HW211193   2.479   1.055   4.411
 3436SOL     OW11194   2.572   1.148   5.533
 3436SOL    HW111195   2.618   1.227   5.559
 3436SOL    HW211196   2.487   1.178   5.501
 3437SOL     OW11197   2.211   1.389   4.766
 3437SOL    HW111198   2.127   1.374   4.722
 3437SOL    HW211199   2.252   1.459   4.715
 3438SOL     OW11200   3.320   1.496   5.080
 3438SOL    HW111201   3.363   1.582   5.083
 3438SOL    HW211202   3.258   1.497   5.153
 3439SOL     OW11203   2.304   0.395   5.214
 3439SOL    HW111204   2.386   0.346   5.215
 3439SOL    HW211205   2.236   0.329   5.227
 3440SOL     OW11206   3.473   0.446   4.462
 3440SOL    HW111207   3.393   0.468   4.415
 3440SOL    HW211208   3.492   0.524   4.515
 3441SOL     OW11209   2.083   1.725   4.193
 3441SOL    HW111210   2.124   1.756   4.273
 3441SOL    HW211211   2.156   1.706   4.134
 3442SOL     OW11212   2.990   1.354   5.424
 3442SOL    HW111213   3.036   1.340   5.507
 3442SOL    HW211214   2.940   1.273   5.411
 3443SOL     OW11215   2.082   1.443   4.257
 3443SOL    HW111216   2.062   1.535   4.274
 3443SOL    HW211217   2.030   1.394   4.320
 3444SOL     OW11218   2.111   1.090   4.612
 3444SOL    HW111219   2.115   1.005   4.656
 3444SOL    HW211220   2.060   1.145   4.671
 3445SOL     OW11221   2.448   0.982   3.858
 3445SOL    HW111222   2.494   1.031   3.789
 3445SOL    HW211223   2.488   1.012   3.939
 3446SOL     OW11224   3.445   0.115   5.196
 3446SOL    HW111225   3.465   0.183   5.132
 3446SOL    HW211226   3.434   0.162   5.279
 3447SOL     OW11227   1.977   0.653   4.284
 3447SOL    HW111228   1.948   0.564   4.305
 3447SOL    HW211229   1.969   0.701   4.366
 3448SOL     OW11230   3.704   1.760   4.058
 3448SOL    HW111231   3.765   1.730   4.126
 3448SOL    HW211232   3.730   1.850   4.041
 3449SOL     OW11233   1.899   1.599   3.854
 3449SOL    HW111234   1.883   1.505   3.861
 3449SOL    HW211235   1.862   1.636   3.935
 3450SOL     OW11236   3.553   0.920   4.364
 3450SOL    HW111237   3.636   0.878   4.342
 3450SOL    HW211238   3.529   0.970   4.286
 3451SOL     OW11239   3.508   1.107   4.152
 3451SOL    HW111240   3.594   1.114   4.111
 3451SOL    HW211241   3.511   1.168   4.226
 3452SOL     OW11242   1.984   0.744   5.309
 3452SOL    HW111243   2.076   0.770   5.319
 3452SOL    HW211244   1.936   0.826   5.317
 3453SOL     OW11245   2.479   1.372   4.445
 3453SOL    HW111246   2.426   1.293   4.456
 3453SOL    HW211247   2.456   1.405   4.358
 3454SOL     OW11248   3.159   1.228   5.157
 3454SOL    HW111249   3.192   1.166   5.092
 3454SOL    HW211250   3.222   1.224   5.229
 3455SOL     OW11251   2.679   0.014   4.273
 3455SOL    HW111252   2.714   0.099   4.249
 3455SOL    HW211253   2.584   0.024   4.266
 3456SOL     OW11254   2.052   0.967   4.995
 3456SOL    HW111255   2.137   0.925   4.980
 3456SOL    HW211256   1.989   0.912   4.947
 3457SOL     OW11257   3.394   0.992   3.922
 3457SOL    HW111258   3.324   0.936   3.954
 3457SOL    HW211259   3.434   1.027   4.002
 3458SOL     OW11260   2.177   0.254   5.504
 3458SOL    HW111261   2.241   0.318   5.537
 3458SOL    HW211262   2.104   0.260   5.565
 3459SOL     OW11263   3.335   1.416   4.681
 3459SOL    HW111264   3.263   1.433   4.741
 3459SOL    HW211265   3.320   1.327   4.649
 3460SOL     OW11266   3.521   1.737   4.302
 3460SOL    HW111267   3.499   1.708   4.213
 3460SOL    HW211268   3.494   1.665   4.358
 3461SOL     OW11269   2.455   0.723   3.989
 3461SOL    HW111270   2.463   0.805   3.939
 3461SOL    HW211271   2.391   0.741   4.057
 3462SOL     OW11272   3.153   0.362   4.657
 3462SOL    HW111273   3.064   0.332   4.642
 3462SOL    HW211274   3.189   0.299   4.719
 3463SOL     OW11275   3.443   1.673   4.032
 3463SOL    HW111276   3.533   1.703   4.025
 3463SOL    HW211277   3.417   1.655   3.942
 3464SOL     OW11278   2.657   0.619   5.178
 3464SOL    HW111279   2.629   0.594   5.266
 3464SOL    HW211280   2.617   0.554   5.121
 3465SOL     OW11281   3.251   0.479   5.400
 3465SOL    HW111282   3.254   0.523   5.485
 3465SOL    HW211283   3.317   0.411   5.406
 3466SOL     OW11284   2.819   0.889   5.306
 3466SOL    HW111285   2.872   0.817   5.272
 3466SOL    HW211286   2.770   0.922   5.230
 3467SOL     OW11287   2.858   0.417   4.961
 3467SOL    HW111288   2.770   0.427   4.997
 3467SOL    HW211289   2.845   0.365   4.881
 3468SOL     OW11290   2.912   0.697   4.151
 3468SOL    HW111291   2.928   0.690   4.245
 3468SOL    HW211292   2.829   0.651   4.137
 3469SOL     OW11293   1.951   0.820   4.501
 3469SOL    HW111294   2.033   0.814   4.551
 3469SOL    HW211295   1.909   0.899   4.534
 3470SOL     OW11296   1.965   1.834   5.316
 3470SOL    HW111297   1.943   1.832   5.410
 3470SOL    HW211298   1.912   1.906   5.282
 3471SOL     OW11299   2.716   0.369   3.905
 3471SOL    HW111300   2.789   0.403   3.854
 3471SOL    HW211301   2.732   0.274   3.909
 3472SOL     OW11302   3.567   0.574   5.552
 3472SOL    HW111303   3.531   0.649   5.505
 3472SOL    HW211304   3.602   0.517   5.483
 3473SOL     OW11305   3.239   1.141   4.266
 3473SOL    HW111306   3.317   1.130   4.211
 3473SOL    HW211307   3.185   1.205   4.219
 3474SOL     OW11308   2.400   0.204   4.625
 3474SOL    HW111309   2.421   0.221   4.717
 3474SOL    HW211310   2.392   0.290   4.585
 3475SOL     OW11311   2.875   1.442   4.183
 3475SOL    HW111312   2.839   1.515   4.133
 3475SOL    HW211313   2.846   1.457   4.273
 3476SOL     OW11314   3.660   1.060   4.591
 3476SOL    HW111315   3.605   1.041   4.515
 3476SOL    HW211316   3.599   1.064   4.665
 3477SOL     OW11317   3.093   1.532   5.241
 3477SOL    HW111318   3.062   1.463   5.299
 3477SOL    HW211319   3.037   1.526   5.164
 3478SOL     OW11320   2.182   0.957   3.973
 3478SOL    HW111321   2.265   0.975   3.928
 3478SOL    HW211322   2.152   0.874   3.934
 3479SOL     OW11323   3.342   0.740   4.448
 3479SOL    HW111324   3.329   0.697   4.533
 3479SOL    HW211325   3.417   0.798   4.462
 3480SOL     OW11326   2.334   1.263   5.457
 3480SOL    HW111327   2.300   1.261   5.368
 3480SOL    HW211328   2.256   1.269   5.513
 3481SOL     OW11329   2.986   1.777   3.957
 3481SOL    HW111330   2.911   1.738   4.001
 3481SOL    HW211331   3.006   1.716   3.886
 3482SOL     OW11332   2.050   0.268   5.235
 3482SOL    HW111333   1.984   0.335   5.220
 3482SOL    HW211334   2.064   0.269   5.330
 3483SOL     OW11335   3.491   1.380   3.810
 3483SOL    HW111336   3.449   1.465   3.797
 3483SOL    HW211337   3.422   1.316   3.793
 3484SOL     OW11338   2.329   1.721   4.062
 3484SOL    HW111339   2.367   1.793   4.111
 3484SOL    HW211340   2.389   1.708   3.988
 3485SOL     OW11341   3.282   0.137   4.141
 3485SOL    HW111342   3.266   0.086   4.062
 3485SOL    HW211343   3.377   0.131   4.155
 3486SOL     OW11344   2.254   0.695   4.199
 3486SOL    HW111345   2.277   0.602   4.212
 3486SOL    HW211346   2.160   0.699   4.218
 3487SOL     OW11347   3.387   0.233   5.446
 3487SOL    HW111348   3.387   0.256   5.539
 3487SOL    HW211349   3.310   0.178   5.435
 3488SOL     OW11350   2.489   0.121   3.847
 3488SOL    HW111351   2.577   0.086   3.855
 3488SOL    HW211352   2.456   0.086   3.764
 3489SOL     OW11353   2.631   0.271   5.478
 3489SOL    HW111354   2.696   0.202   5.488
 3489SOL    HW211355   2.586   0.275   5.562
 3490SOL     OW11356   2.792   1.501   4.930
 3490SOL    HW111357   2.807   1.487   4.837
 3490SOL    HW211358   2.854   1.442   4.974
 3491SOL     OW11359   3.203   0.589   5.153
 3491SOL    HW111360   3.231   0.560   5.240
 3491SOL    HW211361   3.238   0.678   5.145
 3492SOL     OW11362   2.785   0.517   4.624
 3492SOL    HW111363   2.769   0.516   4.530
 3492SOL    HW211364   2.823   0.432   4.643
 3493SOL     OW11365   2.416   0.075   4.245
 3493SOL    HW111366   2.327   0.048   4.268
 3493SOL    HW211367   2.404   0.140   4.176
 3494SOL     OW11368   3.290   1.198   3.766
 3494SOL    HW111369   3.320   1.122   3.816
 3494SOL    HW211370   3.205   1.220   3.803
 3495SOL     OW11371   2.158   0.069   3.921
 3495SOL    HW111372   2.236   0.121   3.904
 3495SOL    HW211373   2.188   4.500   3.980
 3496SOL     OW11374   2.814   0.240   4.192
 3496SOL    HW111375   2.762   0.296   4.135
 3496SOL    HW211376   2.903   0.276   4.187
 3497SOL     OW11377   2.942   0.680   5.186
 3497SOL    HW111378   2.871   0.616   5.185
 3497SOL    HW211379   3.021   0.628   5.173
 3498SOL     OW11380   3.102   1.554   4.508
 3498SOL    HW111381   3.108   1.628   4.447
 3498SOL    HW211382   3.147   1.584   4.587
 3499SOL     OW11383   2.327   1.143   4.457
 3499SOL    HW111384   2.256   1.127   4.521
 3499SOL    HW211385   2.286   1.127   4.372
 3500SOL     OW11386   3.142   1.792   4.327
 3500SOL    HW111387   3.184   1.855   4.268
 3500SOL    HW211388   3.066   1.838   4.362
 3501SOL     OW11389   2.892   0.548   3.741
 3501SOL    HW111390   2.843   0.629   3.725
 3501SOL    HW211391   2.950   0.568   3.814
 3502SOL     OW11392   1.944   0.551   5.119
 3502SOL    HW111393   2.034   0.554   5.089
 3502SOL    HW211394   1.937   0.622   5.182
 3503SOL     OW11395   2.425   0.243   4.890
 3503SOL    HW111396   2.452   0.161   4.930
 3503SOL    HW211397   2.333   0.253   4.915
 3504SOL     OW11398   2.728   0.503   4.350
 3504SOL    HW111399   2.682   0.545   4.278
 3504SOL    HW211400   2.696   0.413   4.350
 3505SOL     OW11401   2.826   0.026   4.505
 3505SOL    HW111402   2.777   0.024   4.423
 3505SOL    HW211403   2.839   4.434   4.528
 3506SOL     OW11404   3.302   1.161   4.581
 3506SOL    HW111405   3.226   1.102   4.583
 3506SOL    HW211406   3.319   1.175   4.488
 3507SOL     OW11407   3.328   0.604   4.699
 3507SOL    HW111408   3.275   0.524   4.702
 3507SOL    HW211409   3.386   0.597   4.775
 3508SOL     OW11410   3.709   0.817   4.106
 3508SOL    HW111411   3.764   0.765   4.165
 3508SOL    HW211412   3.680   0.755   4.039
 3509SOL     OW11413   2.353   1.417   3.880
 3509SOL    HW111414   2.279   1.388   3.933
 3509SOL    HW211415   2.336   1.379   3.793
 3510SOL     OW11416   3.532   1.266   4.367
 3510SOL    HW111417   3.626   1.271   4.384
 3510SOL    HW211418   3.499   1.352   4.392
 3511SOL     OW11419   3.256   0.570   3.794
 3511SOL    HW111420   3.194   0.555   3.865
 3511SOL    HW211421   3.342   0.551   3.832
 3512SOL     OW11422   2.384   0.266   4.048
 3512SOL    HW111423   2.431   0.214   3.982
 3512SOL    HW211424   2.367   0.349   4.005
 3513SOL     OW11425   3.615   1.238   5.299
 3513SOL    HW111426   3.702   1.199   5.295
 3513SOL    HW211427   3.631   1.329   5.327
 3514SOL     OW11428   2.933   1.329   5.066
 3514SOL    HW111429   2.859   1.302   5.119
 3514SOL    HW211430   3.009   1.291   5.110
 3515SOL     OW11431   3.470   1.626   5.380
 3515SOL    HW111432   3.463   1.659   5.290
 3515SOL    HW211433   3.553   1.578   5.380
 3516SOL     OW11434   2.992   1.192   4.829
 3516SOL    HW111435   2.934   1.232   4.894
 3516SOL    HW211436   2.966   1.231   4.746
 3517SOL     OW11437   3.491   1.098   4.802
 3517SOL    HW111438   3.485   1.161   4.874
 3517SOL    HW211439   3.413   1.115   4.749
 3518SOL     OW11440   2.765   0.132   5.112
 3518SOL    HW111441   2.787   0.089   5.030
 3518SOL    HW211442   2.849   0.147   5.155
 3519SOL     OW11443   2.846   1.116   5.447
 3519SOL    HW111444   2.753   1.128   5.467
 3519SOL    HW211445   2.849   1.039   5.390
 3520SOL     OW11446   2.570   1.060   4.095
 3520SOL    HW111447   2.557   1.046   4.189
 3520SOL    HW211448   2.646   1.007   4.073
 3521SOL     OW11449   2.279   0.816   4.977
 3521SOL    HW111450   2.350   0.825   5.042
 3521SOL    HW211451   2.246   0.728   4.989
 3522SOL     OW11452   3.131   0.376   4.997
 3522SOL    HW111453   3.163   0.454   5.041
 3522SOL    HW211454   3.041   0.398   4.970
 3523SOL     OW11455   2.207   1.109   4.215
 3523SOL    HW111456   2.220   1.181   4.154
 3523SOL    HW211457   2.207   1.031   4.159
 3524SOL     OW11458   2.418   0.530   4.582
 3524SOL    HW111459   2.432   0.589   4.508
 3524SOL    HW211460   2.482   0.559   4.648
 3525SOL     OW11461   3.115   1.346   4.112
 3525SOL    HW111462   3.170   1.418   4.144
 3525SOL    HW211463   3.028   1.367   4.144
 3526SOL     OW11464   3.141   1.451   4.869
 3526SOL    HW111465   3.196   1.459   4.947
 3526SOL    HW211466   3.088   1.373   4.884
 3527SOL     OW11467   3.444   0.624   4.200
 3527SOL    HW111468   3.398   0.673   4.268
 3527SOL    HW211469   3.487   0.691   4.147
 3528SOL     OW11470   2.277   0.742   5.326
 3528SOL    HW111471   2.336   0.789   5.267
 3528SOL    HW211472   2.321   0.659   5.344
 3529SOL     OW11473   3.463   0.779   5.405
 3529SOL    HW111474   3.376   0.819   5.397
 3529SOL    HW211475   3.515   0.820   5.336
 3530SOL     OW11476   2.868   0.085   5.445
 3530SOL    HW111477   2.895   0.168   5.407
 3530SOL    HW211478   2.892   0.019   5.380
 3531SOL     OW11479   2.361   0.046   5.483
 3531SOL    HW111480   2.357   0.004   5.397
 3531SOL    HW211481   2.293   0.114   5.480
 3532SOL     OW11482   2.444   0.874   4.755
 3532SOL    HW111483   2.477   0.963   4.753
 3532SOL    HW211484   2.389   0.870   4.833
 3533SOL     OW11485   3.222   0.857   4.756
 3533SOL    HW111486   3.139   0.852   4.709
 3533SOL    HW211487   3.260   0.770   4.748
 3534SOL     OW11488   3.066   0.535   3.987
 3534SOL    HW111489   3.072   0.455   4.039
 3534SOL    HW211490   3.024   0.598   4.045
 3535SOL     OW11491   2.152   0.234   4.965
 3535SOL    HW111492   2.109   0.250   5.049
 3535SOL    HW211493   2.186   0.145   4.972
 3536SOL     OW11494   1.898   1.291   4.999
 3536SOL    HW111495   1.936   1.232   5.064
 3536SOL    HW211496   1.923   1.379   5.028
 3537SOL     OW11497   2.585   0.631   4.782
 3537SOL    HW111498   2.659   0.612   4.724
 3537SOL    HW211499   2.559   0.720   4.758
 3538SOL     OW11500   3.596   0.959   5.576
 3538SOL    HW111501   3.549   0.900   5.517
 3538SOL    HW211502   3.537   0.971   5.650
 3539SOL     OW11503   2.159   0.055   4.378
 3539SOL    HW111504   2.149   0.150   4.380
 3539SOL    HW211505   2.171   0.030   4.469
 3540SOL     OW11506   3.476   0.378   4.087
 3540SOL    HW111507   3.505   0.314   4.153
 3540SOL    HW211508   3.453   0.455   4.138
 3541SOL     OW11509   2.891   0.761   4.685
 3541SOL    HW111510   2.888   0.778   4.780
 3541SOL    HW211511   2.862   0.670   4.676
 3542SOL     OW11512   3.717   1.506   5.330
 3542SOL    HW111513   3.733   1.532   5.240
 3542SOL    HW211514   3.799   1.526   5.376
 3543SOL     OW11515   2.215   0.918   5.529
 3543SOL    HW111516   2.294   0.935   5.579
 3543SOL    HW211517   2.241   0.854   5.463
 3544SOL     OW11518   3.393   0.265   3.852
 3544SOL    HW111519   3.321   0.209   3.881
 3544SOL    HW211520   3.422   0.310   3.931
 3545SOL     OW11521   3.154   0.826   3.754
 3545SOL    HW111522   3.196   0.740   3.757
 3545SOL    HW211523   3.185   0.866   3.673
 3546SOL     OW11524   2.937   1.323   4.595
 3546SOL    HW111525   2.927   1.259   4.524
 3546SOL    HW211526   2.980   1.398   4.554
 3547SOL     OW11527   2.172   0.811   4.672
 3547SOL    HW111528   2.264   0.833   4.665
 3547SOL    HW211529   2.171   0.721   4.705
 3548SOL     OW11530   2.198   0.531   4.737
 3548SOL    HW111531   2.156   0.448   4.718
 3548SOL    HW211532   2.274   0.534   4.679
 3549SOL     OW11533   2.998   0.374   5.419
 3549SOL    HW111534   2.948   0.438   5.470
 3549SOL    HW211535   3.083   0.415   5.406
 3550SOL     OW11536   3.020   0.212   5.197
 3550SOL    HW111537   3.013   0.276   5.268
 3550SOL    HW211538   3.058   0.261   5.124
 3551SOL     OW11539   1.866   1.323   3.919
 3551SOL    HW111540   1.779   1.336   3.882
 3551SOL    HW211541   1.864   1.233   3.952
 3552SOL     OW11542   2.846   0.792   4.952
 3552SOL    HW111543   2.901   0.769   5.027
 3552SOL    HW211544   2.761   0.753   4.971
 3553SOL     OW11545   1.895   0.543   4.842
 3553SOL    HW111546   1.973   0.524   4.790
 3553SOL    HW211547   1.928   0.547   4.932
 3554SOL     OW11548   2.047   0.519   5.445
 3554SOL    HW111549   2.122   0.498   5.389
 3554SOL    HW211550   2.005   0.594   5.403
 3555SOL     OW11551   3.238   0.939   5.383
 3555SOL    HW111552   3.261   1.032   5.381
 3555SOL    HW211553   3.235   0.914   5.291
 3556SOL     OW11554   2.672   0.574   4.079
 3556SOL    HW111555   2.676   0.503   4.016
 3556SOL    HW211556   2.599   0.629   4.050
 3557SOL     OW11557   3.502   0.601   4.911
 3557SOL    HW111558   3.492   0.541   4.985
 3557SOL    HW211559   3.590   0.582   4.877
 3558SOL     OW11560   2.559   0.459   4.988
 3558SOL    HW111561   2.513   0.382   4.955
 3558SOL    HW211562   2.560   0.520   4.914
 3559SOL     OW11563   2.327   0.493   3.908
 3559SOL    HW111564   2.386   0.565   3.930
 3559SOL    HW211565   2.241   0.534   3.897
 3560SOL     OW11566   2.009   1.135   5.197
 3560SOL    HW111567   2.011   1.085   5.279
 3560SOL    HW211568   2.027   1.071   5.129
 3561SOL     OW11569   3.190   1.046   4.948
 3561SOL    HW111570   3.214   0.983   4.880
 3561SOL    HW211571   3.118   1.097   4.911
 3562SOL     OW11572   3.175   0.855   4.030
 3562SOL    HW111573   3.099   0.829   4.082
 3562SOL    HW211574   3.147   0.843   3.939
 3563SOL     OW11575   3.634   1.745   4.874
 3563SOL    HW111576   3.693   1.770   4.803
 3563SOL    HW211577   3.608   1.655   4.853
 3564SOL     OW11578   3.144   1.736   4.873
 3564SOL    HW111579   3.204   1.747   4.798
 3564SOL    HW211580   3.112   1.647   4.865
 3565SOL     OW11581   1.935   1.276   4.731
 3565SOL    HW111582   1.921   1.276   4.826
 3565SOL    HW211583   1.872   1.211   4.698
 3566SOL     OW11584   3.580   0.129   4.217
 3566SOL    HW111585   3.652   0.137   4.155
 3566SOL    HW211586   3.606   0.058   4.275
 3567SOL     OW11587   3.256   1.565   4.206
 3567SOL    HW111588   3.314   1.601   4.139
 3567SOL    HW211589   3.206   1.641   4.237
 3568SOL     OW11590   3.140   0.926   4.395
 3568SOL    HW111591   3.214   0.865   4.400
 3568SOL    HW211592   3.173   1.000   4.344
 3569SOL     OW11593   2.680   1.268   5.159
 3569SOL    HW111594   2.649   1.311   5.239
 3569SOL    HW211595   2.616   1.294   5.092
 3570SOL     OW11596   2.533   1.619   3.876
 3570SOL    HW111597   2.543   1.629   3.782
 3570SOL    HW211598   2.479   1.541   3.886
 3571SOL     OW11599   3.496   1.727   5.119
 3571SOL    HW111600   3.539   1.734   5.034
 3571SOL    HW211601   3.479   1.818   5.145
 3572SOL     OW11602   3.701   0.154   4.690
 3572SOL    HW111603   3.732   0.078   4.642
 3572SOL    HW211604   3.614   0.172   4.654
 3573SOL     OW11605   2.127   0.322   4.442
 3573SOL    HW111606   2.041   0.357   4.415
 3573SOL    HW211607   2.120   0.314   4.537
 3574SOL     OW11608   3.070   1.606   3.754
 3574SOL    HW111609   3.060   1.515   3.784
 3574SOL    HW211610   3.003   1.617   3.687
 3575SOL     OW11611   2.686   1.004   5.095
 3575SOL    HW111612   2.730   0.999   5.010
 3575SOL    HW211613   2.688   1.097   5.118
 3576SOL     OW11614   2.776   0.909   4.012
 3576SOL    HW111615   2.839   0.942   3.948
 3576SOL    HW211616   2.824   0.840   4.059
 3577SOL     OW11617   3.355   1.625   3.766
 3577SOL    HW111618   3.260   1.619   3.754
 3577SOL    HW211619   3.390   1.631   3.678
 3578SOL     OW11620   2.230   1.294   5.211
 3578SOL    HW111621   2.200   1.371   5.162
 3578SOL    HW211622   2.159   1.230   5.201
 3579SOL     OW11623   3.474   1.284   5.005
 3579SOL    HW111624   3.532   1.274   5.081
 3579SOL    HW211625   3.412   1.352   5.031
 3580SOL     OW11626   2.910   1.105   4.426
 3580SOL    HW111627   2.840   1.054   4.467
 3580SOL    HW211628   2.974   1.039   4.398
 3581SOL     OW11629   2.868   0.243   4.728
 3581SOL    HW111630   2.874   0.220   4.635
 3581SOL    HW211631   2.860   0.160   4.773
 3582SOL     OW11632   2.455   1.489   4.197
 3582SOL    HW111633   2.503   1.439   4.131
 3582SOL    HW211634   2.400   1.549   4.147
 3583SOL     OW11635   3.583   0.394   5.101
 3583SOL    HW111636   3.656   0.456   5.100
 3583SOL    HW211637   3.612   0.322   5.045
 3584SOL     OW11638   2.120   1.346   4.010
 3584SOL    HW111639   2.027   1.343   3.989
 3584SOL    HW211640   2.124   1.384   4.099
 3585SOL     OW11641   1.973   1.024   5.445
 3585SOL    HW111642   1.898   0.998   5.497
 3585SOL    HW211643   2.048   0.986   5.490
 3586SOL     OW11644   2.520   0.204   5.222
 3586SOL    HW111645   2.600   0.179   5.175
 3586SOL    HW211646   2.550   0.225   5.311
 3587SOL     OW11647   1.943   0.339   3.771
 3587SOL    HW111648   1.872   0.287   3.734
 3587SOL    HW211649   1.957   0.409   3.706
 3588SOL     OW11650   3.293   0.858   5.125
 3588SOL    HW111651   3.243   0.918   5.069
 3588SOL    HW211652   3.382   0.861   5.090
 3589SOL     OW11653   1.927   0.182   4.044
 3589SOL    HW111654   1.925   0.249   3.975
 3589SOL    HW211655   2.001   0.127   4.022
 3590SOL     OW11656   3.041   1.340   3.842
 3590SOL    HW111657   2.950   1.310   3.846
 3590SOL    HW211658   3.070   1.341   3.933
 3591SOL     OW11659   2.481   0.831   5.157
 3591SOL    HW111660   2.537   0.907   5.141
 3591SOL    HW211661   2.542   0.757   5.166
 3592SOL     OW11662   3.349   1.779   4.690
 3592SOL    HW111663   3.382   1.836   4.621
 3592SOL    HW211664   3.427   1.756   4.742
 3593SOL     OW11665   2.578   0.563   5.430
 3593SOL    HW111666   2.616   0.627   5.490
 3593SOL    HW211667   2.611   0.479   5.461
 3594SOL     OW11668   3.338   1.198   5.360
 3594SOL    HW111669   3.326   1.213   5.453
 3594SOL    HW211670   3.431   1.215   5.345
 3595SOL     OW11671   3.532   0.881   4.979
 3595SOL    HW111672   3.524   0.797   4.936
 3595SOL    HW211673   3.522   0.946   4.909
 3596SOL     OW11674   3.080   0.329   4.172
 3596SOL    HW111675   3.145   0.260   4.161
 3596SOL    HW211676   3.107   0.377   4.250
 3597SOL     OW11677   2.449   0.738   4.395
 3597SOL    HW111678   2.491   0.823   4.381
 3597SOL    HW211679   2.382   0.732   4.326
 3598SOL     OW11680   3.625   0.365   5.368
 3598SOL    HW111681   3.609   0.378   5.274
 3598SOL    HW211682   3.547   0.319   5.399
 3599SOL     OW11683   3.608   0.933   5.236
 3599SOL    HW111684   3.604   1.028   5.249
 3599SOL    HW211685   3.592   0.921   5.142
 3600SOL     OW11686   2.722   1.368   3.756
 3600SOL    HW111687   2.687   1.391   3.842
 3600SOL    HW211688   2.742   1.451   3.714
 3601SOL     OW11689   2.729   0.964   4.579
 3601SOL    HW111690   2.782   0.894   4.617
 3601SOL    HW211691   2.697   1.014   4.654
 3602SOL     OW11692   2.941   0.988   3.813
 3602SOL    HW111693   2.920   1.039   3.735
 3602SOL    HW211694   3.016   0.935   3.786
 3603SOL     OW11695   3.716   1.556   4.569
 3603SOL    HW111696   3.638   1.544   4.514
 3603SOL    HW211697   3.707   1.489   4.637
 3604SOL     OW11698   2.086   1.298   5.573
 3604SOL    HW111699   2.026   1.227   5.551
 3604SOL    HW211700   2.058   1.327   5.659
 3605SOL     OW11701   1.949   1.232   4.387
 3605SOL    HW111702   1.954   1.184   4.470
 3605SOL    HW211703   2.016   1.191   4.332
 3606SOL     OW11704   2.548   1.406   5.355
 3606SOL    HW111705   2.474   1.356   5.388
 3606SOL    HW211706   2.526   1.497   5.372
 3607SOL     OW11707   3.670   0.181   4.963
 3607SOL    HW111708   3.669   0.088   4.983
 3607SOL    HW211709   3.687   0.186   4.869
 3608SOL     OW11710   2.297   0.433   4.253
 3608SOL    HW111711   2.320   0.364   4.191
 3608SOL    HW211712   2.242   0.390   4.318
 3609SOL     OW11713   3.563   1.490   4.822
 3609SOL    HW111714   3.483   1.467   4.775
 3609SOL    HW211715   3.573   1.421   4.887
 3610SOL     OW11716   2.191   0.557   5.015
 3610SOL    HW111717   2.247   0.500   5.069
 3610SOL    HW211718   2.211   0.530   4.925
 3611SOL     OW11719   2.710   1.551   4.366
 3611SOL    HW111720   2.668   1.605   4.298
 3611SOL    HW211721   2.638   1.501   4.403
 3612SOL     OW11722   3.294   0.215   4.842
 3612SOL    HW111723   3.330   0.145   4.895
 3612SOL    HW211724   3.243   0.269   4.903
 3613SOL     OW11725   2.858   0.008   4.874
 3613SOL    HW111726   2.816   4.422   4.866
 3613SOL    HW211727   2.951   4.488   4.885
 3614SOL     OW11728   2.635   1.332   4.035
 3614SOL    HW111729   2.604   1.242   4.045
 3614SOL    HW211730   2.715   1.336   4.089
 3615SOL     OW11731   3.203   0.053   3.877
 3615SOL    HW111732   3.241   4.477   3.833
 3615SOL    HW211733   3.127   0.018   3.924
 3616SOL     OW11734   3.176   0.462   4.401
 3616SOL    HW111735   3.117   0.537   4.402
 3616SOL    HW211736   3.164   0.422   4.487
 3617SOL     OW11737   3.447   0.200   4.591
 3617SOL    HW111738   3.388   0.215   4.665
 3617SOL    HW211739   3.450   0.284   4.545
 3618SOL     OW11740   1.906   1.072   4.029
 3618SOL    HW111741   2.000   1.064   4.013
 3618SOL    HW211742   1.877   0.983   4.052
 3619SOL     OW11743   2.748   1.652   4.057
 3619SOL    HW111744   2.673   1.633   3.999
 3619SOL    HW211745   2.718   1.724   4.112
 3620SOL     OW11746   2.091   0.627   5.706
 3620SOL    HW111747   2.004   0.620   5.745
 3620SOL    HW211748   2.079   0.595   5.616
 3621SOL     OW11749   2.070   0.298   6.575
 3621SOL    HW111750   2.101   0.270   6.661
 3621SOL    HW211751   1.988   0.250   6.562
 3622SOL     OW11752   1.870   0.386   6.224
 3622SOL    HW111753   1.783   0.405   6.261
 3622SOL    HW211754   1.855   0.312   6.166
 3623SOL     OW11755   2.429   1.285   6.760
 3623SOL    HW111756   2.339   1.283   6.728
 3623SOL    HW211757   2.443   1.376   6.788
 3624SOL     OW11758   3.419   1.512   6.293
 3624SOL    HW111759   3.379   1.494   6.378
 3624SOL    HW211760   3.346   1.514   6.231
 3625SOL     OW11761   2.996   0.699   6.285
 3625SOL    HW111762   3.042   0.782   6.275
 3625SOL    HW211763   2.946   0.709   6.366
 3626SOL     OW11764   3.629   0.607   5.814
 3626SOL    HW111765   3.608   0.597   5.721
 3626SOL    HW211766   3.596   0.527   5.855
 3627SOL     OW11767   2.620   1.147   6.624
 3627SOL    HW111768   2.550   1.180   6.681
 3627SOL    HW211769   2.654   1.224   6.580
 3628SOL     OW11770   2.727   0.776   7.408
 3628SOL    HW111771   2.714   0.847   7.470
 3628SOL    HW211772   2.751   0.820   7.326
 3629SOL     OW11773   2.550   1.004   6.235
 3629SOL    HW111774   2.614   0.992   6.305
 3629SOL    HW211775   2.479   1.054   6.275
 3630SOL     OW11776   2.572   1.151   7.397
 3630SOL    HW111777   2.619   1.230   7.424
 3630SOL    HW211778   2.489   1.184   7.363
 3631SOL     OW11779   2.179   1.431   6.663
 3631SOL    HW111780   2.114   1.388   6.608
 3631SOL    HW211781   2.245   1.464   6.602
 3632SOL     OW11782   3.323   1.498   6.940
 3632SOL    HW111783   3.370   1.581   6.949
 3632SOL    HW211784   3.261   1.498   7.013
 3633SOL     OW11785   2.304   0.395   7.076
 3633SOL    HW111786   2.386   0.346   7.077
 3633SOL    HW211787   2.236   0.329   7.089
 3634SOL     OW11788   3.473   0.446   6.324
 3634SOL    HW111789   3.392   0.468   6.278
 3634SOL    HW211790   3.492   0.523   6.378
 3635SOL     OW11791   2.999   1.341   7.278
 3635SOL    HW111792   3.038   1.337   7.365
 3635SOL    HW211793   2.946   1.261   7.272
 3636SOL     OW11794   2.121   1.089   6.476
 3636SOL    HW111795   2.116   1.002   6.516
 3636SOL    HW211796   2.061   1.143   6.529
 3637SOL     OW11797   2.476   1.781   7.020
 3637SOL    HW111798   2.391   1.770   7.063
 3637SOL    HW211799   2.497   1.873   7.034
 3638SOL     OW11800   2.447   0.979   5.718
 3638SOL    HW111801   2.494   1.029   5.651
 3638SOL    HW211802   2.484   1.008   5.801
 3639SOL     OW11803   3.445   0.115   7.058
 3639SOL    HW111804   3.465   0.183   6.994
 3639SOL    HW211805   3.434   0.162   7.141
 3640SOL     OW11806   1.978   0.652   6.146
 3640SOL    HW111807   1.948   0.564   6.168
 3640SOL    HW211808   1.969   0.702   6.227
 3641SOL     OW11809   3.703   1.760   5.921
 3641SOL    HW111810   3.765   1.731   5.988
 3641SOL    HW211811   3.729   1.850   5.902
 3642SOL     OW11812   3.553   0.921   6.227
 3642SOL    HW111813   3.636   0.878   6.208
 3642SOL    HW211814   3.532   0.969   6.147
 3643SOL     OW11815   3.508   1.107   6.015
 3643SOL    HW111816   3.593   1.113   5.973
 3643SOL    HW211817   3.513   1.168   6.089
 3644SOL     OW11818   1.984   0.744   7.171
 3644SOL    HW111819   2.076   0.770   7.180
 3644SOL    HW211820   1.935   0.826   7.178
 3645SOL     OW11821   2.482   1.370   6.316
 3645SOL    HW111822   2.430   1.290   6.328
 3645SOL    HW211823   2.482   1.384   6.221
 3646SOL     OW11824   3.151   1.238   7.010
 3646SOL    HW111825   3.184   1.171   6.950
 3646SOL    HW211826   3.208   1.231   7.086
 3647SOL     OW11827   2.679   0.014   6.136
 3647SOL    HW111828   2.714   0.099   6.111
 3647SOL    HW211829   2.584   0.024   6.129
 3648SOL     OW11830   2.053   0.965   6.859
 3648SOL    HW111831   2.137   0.924   6.842
 3648SOL    HW211832   1.990   0.914   6.808
 3649SOL     OW11833   3.394   0.992   5.784
 3649SOL    HW111834   3.323   0.936   5.815
 3649SOL    HW211835   3.434   1.026   5.864
 3650SOL     OW11836   3.049   1.806   7.206
 3650SOL    HW111837   3.062   1.861   7.130
 3650SOL    HW211838   3.063   1.717   7.174
 3651SOL     OW11839   2.177   0.254   7.367
 3651SOL    HW111840   2.240   0.318   7.399
 3651SOL    HW211841   2.103   0.260   7.427
 3652SOL     OW11842   3.334   1.417   6.542
 3652SOL    HW111843   3.264   1.433   6.605
 3652SOL    HW211844   3.319   1.327   6.512
 3653SOL     OW11845   3.524   1.736   6.165
 3653SOL    HW111846   3.500   1.709   6.076
 3653SOL    HW211847   3.496   1.663   6.221
 3654SOL     OW11848   2.455   0.723   5.851
 3654SOL    HW111849   2.462   0.805   5.802
 3654SOL    HW211850   2.391   0.741   5.920
 3655SOL     OW11851   3.153   0.362   6.519
 3655SOL    HW111852   3.064   0.332   6.504
 3655SOL    HW211853   3.189   0.299   6.582
 3656SOL     OW11854   3.445   1.665   5.895
 3656SOL    HW111855   3.534   1.700   5.890
 3656SOL    HW211856   3.420   1.650   5.804
 3657SOL     OW11857   2.658   0.619   7.040
 3657SOL    HW111858   2.629   0.594   7.128
 3657SOL    HW211859   2.617   0.554   6.983
 3658SOL     OW11860   3.251   0.479   7.262
 3658SOL    HW111861   3.254   0.523   7.347
 3658SOL    HW211862   3.317   0.410   7.268
 3659SOL     OW11863   2.818   0.888   7.168
 3659SOL    HW111864   2.871   0.817   7.133
 3659SOL    HW211865   2.770   0.921   7.092
 3660SOL     OW11866   2.858   0.417   6.823
 3660SOL    HW111867   2.771   0.428   6.860
 3660SOL    HW211868   2.844   0.365   6.743
 3661SOL     OW11869   2.912   0.697   6.013
 3661SOL    HW111870   2.928   0.690   6.107
 3661SOL    HW211871   2.829   0.652   5.999
 3662SOL     OW11872   1.950   0.821   6.362
 3662SOL    HW111873   2.031   0.814   6.413
 3662SOL    HW211874   1.906   0.898   6.397
 3663SOL     OW11875   1.968   1.796   7.154
 3663SOL    HW111876   1.973   1.792   7.249
 3663SOL    HW211877   1.883   1.835   7.135
 3664SOL     OW11878   2.717   0.369   5.768
 3664SOL    HW111879   2.789   0.403   5.716
 3664SOL    HW211880   2.732   0.274   5.772
 3665SOL     OW11881   3.567   0.574   7.414
 3665SOL    HW111882   3.531   0.649   7.367
 3665SOL    HW211883   3.602   0.517   7.345
 3666SOL     OW11884   3.241   1.142   6.125
 3666SOL    HW111885   3.322   1.126   6.077
 3666SOL    HW211886   3.192   1.202   6.069
 3667SOL     OW11887   2.401   0.204   6.487
 3667SOL    HW111888   2.421   0.221   6.579
 3667SOL    HW211889   2.392   0.290   6.447
 3668SOL     OW11890   3.660   1.060   6.454
 3668SOL    HW111891   3.605   1.039   6.378
 3668SOL    HW211892   3.598   1.064   6.527
 3669SOL     OW11893   3.091   1.538   7.099
 3669SOL    HW111894   3.075   1.465   7.159
 3669SOL    HW211895   3.028   1.526   7.029
 3670SOL     OW11896   2.180   0.952   5.835
 3670SOL    HW111897   2.263   0.974   5.792
 3670SOL    HW211898   2.153   0.870   5.794
 3671SOL     OW11899   3.340   0.742   6.311
 3671SOL    HW111900   3.328   0.697   6.394
 3671SOL    HW211901   3.417   0.797   6.325
 3672SOL     OW11902   2.328   1.264   7.324
 3672SOL    HW111903   2.300   1.268   7.233
 3672SOL    HW211904   2.246   1.262   7.374
 3673SOL     OW11905   2.050   0.268   7.097
 3673SOL    HW111906   1.984   0.335   7.081
 3673SOL    HW211907   2.063   0.270   7.192
 3674SOL     OW11908   3.492   1.380   5.674
 3674SOL    HW111909   3.451   1.465   5.658
 3674SOL    HW211910   3.423   1.316   5.656
 3675SOL     OW11911   3.282   0.138   6.003
 3675SOL    HW111912   3.266   0.086   5.924
 3675SOL    HW211913   3.376   0.131   6.017
 3676SOL     OW11914   2.102   1.765   6.818
 3676SOL    HW111915   2.164   1.718   6.873
 3676SOL    HW211916   2.126   1.741   6.728
 3677SOL     OW11917   2.254   0.694   6.063
 3677SOL    HW111918   2.277   0.602   6.075
 3677SOL    HW211919   2.160   0.699   6.080
 3678SOL     OW11920   3.387   0.233   7.308
 3678SOL    HW111921   3.387   0.256   7.401
 3678SOL    HW211922   3.310   0.178   7.297
 3679SOL     OW11923   2.489   0.122   5.708
 3679SOL    HW111924   2.577   0.085   5.717
 3679SOL    HW211925   2.456   0.086   5.626
 3680SOL     OW11926   2.631   0.271   7.340
 3680SOL    HW111927   2.696   0.202   7.351
 3680SOL    HW211928   2.586   0.275   7.424
 3681SOL     OW11929   2.736   1.518   6.781
 3681SOL    HW111930   2.724   1.486   6.691
 3681SOL    HW211931   2.808   1.467   6.816
 3682SOL     OW11932   3.204   0.589   7.015
 3682SOL    HW111933   3.231   0.560   7.102
 3682SOL    HW211934   3.238   0.678   7.007
 3683SOL     OW11935   2.680   1.402   6.518
 3683SOL    HW111936   2.766   1.387   6.479
 3683SOL    HW211937   2.619   1.395   6.445
 3684SOL     OW11938   2.785   0.518   6.486
 3684SOL    HW111939   2.769   0.516   6.391
 3684SOL    HW211940   2.823   0.432   6.506
 3685SOL     OW11941   2.416   0.076   6.107
 3685SOL    HW111942   2.328   0.048   6.131
 3685SOL    HW211943   2.403   0.141   6.038
 3686SOL     OW11944   3.291   1.199   5.630
 3686SOL    HW111945   3.323   1.122   5.677
 3686SOL    HW211946   3.204   1.214   5.665
 3687SOL     OW11947   2.158   0.069   5.783
 3687SOL    HW111948   2.236   0.122   5.766
 3687SOL    HW211949   2.188   4.500   5.842
 3688SOL     OW11950   2.814   0.240   6.054
 3688SOL    HW111951   2.762   0.295   5.996
 3688SOL    HW211952   2.903   0.276   6.049
 3689SOL     OW11953   2.942   0.680   7.047
 3689SOL    HW111954   2.870   0.617   7.047
 3689SOL    HW211955   3.021   0.628   7.035
 3690SOL     OW11956   3.111   1.556   6.375
 3690SOL    HW111957   3.129   1.634   6.322
 3690SOL    HW211958   3.152   1.574   6.459
 3691SOL     OW11959   2.329   1.147   6.319
 3691SOL    HW111960   2.259   1.128   6.381
 3691SOL    HW211961   2.291   1.130   6.233
 3692SOL     OW11962   3.165   1.784   6.213
 3692SOL    HW111963   3.217   1.837   6.151
 3692SOL    HW211964   3.081   1.829   6.218
 3693SOL     OW11965   2.892   0.548   5.602
 3693SOL    HW111966   2.843   0.629   5.587
 3693SOL    HW211967   2.950   0.568   5.676
 3694SOL     OW11968   1.944   0.551   6.981
 3694SOL    HW111969   2.034   0.554   6.951
 3694SOL    HW211970   1.936   0.623   7.044
 3695SOL     OW11971   2.425   0.243   6.752
 3695SOL    HW111972   2.452   0.160   6.792
 3695SOL    HW211973   2.333   0.253   6.777
 3696SOL     OW11974   2.728   0.503   6.212
 3696SOL    HW111975   2.682   0.545   6.139
 3696SOL    HW211976   2.696   0.413   6.213
 3697SOL     OW11977   2.827   0.026   6.367
 3697SOL    HW111978   2.777   0.024   6.285
 3697SOL    HW211979   2.839   4.434   6.390
 3698SOL     OW11980   3.298   1.163   6.443
 3698SOL    HW111981   3.231   1.095   6.443
 3698SOL    HW211982   3.322   1.174   6.351
 3699SOL     OW11983   3.328   0.604   6.561
 3699SOL    HW111984   3.275   0.525   6.564
 3699SOL    HW211985   3.386   0.597   6.637
 3700SOL     OW11986   3.708   0.817   5.968
 3700SOL    HW111987   3.764   0.766   6.027
 3700SOL    HW211988   3.679   0.755   5.901
 3701SOL     OW11989   3.531   1.266   6.231
 3701SOL    HW111990   3.626   1.268   6.246
 3701SOL    HW211991   3.501   1.353   6.254
 3702SOL     OW11992   3.256   0.571   5.656
 3702SOL    HW111993   3.195   0.554   5.727
 3702SOL    HW211994   3.342   0.550   5.693
 3703SOL     OW11995   2.384   0.266   5.909
 3703SOL    HW111996   2.431   0.214   5.843
 3703SOL    HW211997   2.367   0.349   5.867
 3704SOL     OW11998   3.615   1.238   7.160
 3704SOL    HW111999   3.702   1.199   7.157
 3704SOL    HW212000   3.629   1.328   7.189
 3705SOL     OW12001   2.922   1.353   6.919
 3705SOL    HW112002   2.846   1.323   6.970
 3705SOL    HW212003   2.997   1.312   6.961
 3706SOL     OW12004   3.470   1.626   7.240
 3706SOL    HW112005   3.464   1.659   7.150
 3706SOL    HW212006   3.552   1.578   7.242
 3707SOL     OW12007   2.989   1.202   6.692
 3707SOL    HW112008   2.931   1.240   6.758
 3707SOL    HW212009   2.955   1.234   6.609
 3708SOL     OW12010   3.491   1.098   6.664
 3708SOL    HW112011   3.487   1.161   6.737
 3708SOL    HW212012   3.411   1.115   6.614
 3709SOL     OW12013   2.765   0.132   6.974
 3709SOL    HW112014   2.787   0.089   6.892
 3709SOL    HW212015   2.849   0.147   7.017
 3710SOL     OW12016   2.846   1.114   7.309
 3710SOL    HW112017   2.754   1.131   7.330
 3710SOL    HW212018   2.845   1.037   7.253
 3711SOL     OW12019   2.561   1.045   5.956
 3711SOL    HW112020   2.554   1.039   6.051
 3711SOL    HW212021   2.643   1.001   5.935
 3712SOL     OW12022   2.281   0.815   6.836
 3712SOL    HW112023   2.350   0.824   6.903
 3712SOL    HW212024   2.246   0.727   6.851
 3713SOL     OW12025   3.130   0.376   6.859
 3713SOL    HW112026   3.162   0.454   6.903
 3713SOL    HW212027   3.041   0.398   6.832
 3714SOL     OW12028   1.926   1.567   6.935
 3714SOL    HW112029   1.892   1.642   6.885
 3714SOL    HW212030   2.021   1.581   6.937
 3715SOL     OW12031   2.218   1.107   6.076
 3715SOL    HW112032   2.198   1.174   6.010
 3715SOL    HW212033   2.219   1.025   6.027
 3716SOL     OW12034   2.418   0.530   6.444
 3716SOL    HW112035   2.432   0.589   6.370
 3716SOL    HW212036   2.482   0.559   6.510
 3717SOL     OW12037   3.107   1.347   5.973
 3717SOL    HW112038   3.161   1.419   6.003
 3717SOL    HW212039   3.032   1.347   6.033
 3718SOL     OW12040   3.143   1.455   6.731
 3718SOL    HW112041   3.197   1.459   6.810
 3718SOL    HW212042   3.085   1.380   6.745
 3719SOL     OW12043   3.443   0.624   6.063
 3719SOL    HW112044   3.398   0.675   6.129
 3719SOL    HW212045   3.489   0.689   6.009
 3720SOL     OW12046   2.214   1.520   6.911
 3720SOL    HW112047   2.193   1.483   6.825
 3720SOL    HW212048   2.309   1.533   6.909
 3721SOL     OW12049   2.276   0.743   7.188
 3721SOL    HW112050   2.335   0.790   7.130
 3721SOL    HW212051   2.321   0.660   7.206
 3722SOL     OW12052   3.463   0.778   7.267
 3722SOL    HW112053   3.376   0.819   7.260
 3722SOL    HW212054   3.515   0.820   7.198
 3723SOL     OW12055   2.868   0.085   7.307
 3723SOL    HW112056   2.895   0.168   7.269
 3723SOL    HW212057   2.892   0.019   7.242
 3724SOL     OW12058   2.361   0.046   7.345
 3724SOL    HW112059   2.357   0.004   7.259
 3724SOL    HW212060   2.293   0.114   7.342
 3725SOL     OW12061   2.445   0.874   6.617
 3725SOL    HW112062   2.474   0.965   6.616
 3725SOL    HW212063   2.388   0.867   6.694
 3726SOL     OW12064   3.220   0.859   6.616
 3726SOL    HW112065   3.136   0.849   6.571
 3726SOL    HW212066   3.260   0.772   6.610
 3727SOL     OW12067   3.067   0.536   5.850
 3727SOL    HW112068   3.073   0.455   5.901
 3727SOL    HW212069   3.022   0.597   5.908
 3728SOL     OW12070   2.152   0.234   6.827
 3728SOL    HW112071   2.109   0.250   6.911
 3728SOL    HW212072   2.186   0.145   6.834
 3729SOL     OW12073   1.902   1.308   6.863
 3729SOL    HW112074   1.940   1.257   6.935
 3729SOL    HW212075   1.912   1.399   6.891
 3730SOL     OW12076   2.585   0.631   6.644
 3730SOL    HW112077   2.659   0.613   6.586
 3730SOL    HW212078   2.558   0.720   6.620
 3731SOL     OW12079   3.596   0.959   7.438
 3731SOL    HW112080   3.549   0.900   7.380
 3731SOL    HW212081   3.537   0.972   7.512
 3732SOL     OW12082   2.159   0.056   6.240
 3732SOL    HW112083   2.149   0.151   6.242
 3732SOL    HW212084   2.171   0.031   6.331
 3733SOL     OW12085   3.476   0.377   5.949
 3733SOL    HW112086   3.505   0.314   6.014
 3733SOL    HW212087   3.453   0.455   6.000
 3734SOL     OW12088   2.891   0.761   6.548
 3734SOL    HW112089   2.887   0.777   6.642
 3734SOL    HW212090   2.862   0.671   6.537
 3735SOL     OW12091   2.846   1.566   7.303
 3735SOL    HW112092   2.828   1.610   7.219
 3735SOL    HW212093   2.888   1.484   7.279
 3736SOL     OW12094   3.717   1.506   7.192
 3736SOL    HW112095   3.734   1.533   7.101
 3736SOL    HW212096   3.798   1.526   7.238
 3737SOL     OW12097   2.216   0.916   7.394
 3737SOL    HW112098   2.298   0.935   7.440
 3737SOL    HW212099   2.240   0.853   7.326
 3738SOL     OW12100   3.393   0.265   5.714
 3738SOL    HW112101   3.321   0.209   5.743
 3738SOL    HW212102   3.422   0.310   5.793
 3739SOL     OW12103   3.154   0.826   5.617
 3739SOL    HW112104   3.196   0.740   5.620
 3739SOL    HW212105   3.185   0.865   5.535
 3740SOL     OW12106   2.929   1.335   6.437
 3740SOL    HW112107   2.934   1.262   6.376
 3740SOL    HW212108   2.995   1.397   6.406
 3741SOL     OW12109   2.171   0.809   6.533
 3741SOL    HW112110   2.264   0.832   6.527
 3741SOL    HW212111   2.170   0.720   6.567
 3742SOL     OW12112   2.198   0.531   6.599
 3742SOL    HW112113   2.156   0.447   6.580
 3742SOL    HW212114   2.274   0.533   6.541
 3743SOL     OW12115   2.997   0.374   7.281
 3743SOL    HW112116   2.948   0.438   7.332
 3743SOL    HW212117   3.083   0.415   7.268
 3744SOL     OW12118   3.021   0.212   7.059
 3744SOL    HW112119   3.013   0.276   7.130
 3744SOL    HW212120   3.058   0.261   6.987
 3745SOL     OW12121   1.881   1.320   5.779
 3745SOL    HW112122   1.797   1.348   5.743
 3745SOL    HW212123   1.865   1.231   5.811
 3746SOL     OW12124   2.389   1.524   6.522
 3746SOL    HW112125   2.450   1.598   6.525
 3746SOL    HW212126   2.422   1.468   6.452
 3747SOL     OW12127   2.846   0.794   6.814
 3747SOL    HW112128   2.901   0.770   6.888
 3747SOL    HW212129   2.761   0.754   6.833
 3748SOL     OW12130   1.895   0.542   6.704
 3748SOL    HW112131   1.973   0.525   6.652
 3748SOL    HW212132   1.928   0.548   6.794
 3749SOL     OW12133   2.047   0.519   7.307
 3749SOL    HW112134   2.121   0.499   7.250
 3749SOL    HW212135   2.005   0.595   7.265
 3750SOL     OW12136   3.239   0.939   7.245
 3750SOL    HW112137   3.259   1.033   7.243
 3750SOL    HW212138   3.236   0.914   7.153
 3751SOL     OW12139   2.673   0.575   5.941
 3751SOL    HW112140   2.677   0.503   5.878
 3751SOL    HW212141   2.599   0.629   5.912
 3752SOL     OW12142   3.503   0.602   6.773
 3752SOL    HW112143   3.492   0.542   6.847
 3752SOL    HW212144   3.590   0.582   6.739
 3753SOL     OW12145   2.113   1.548   7.316
 3753SOL    HW112146   2.083   1.612   7.381
 3753SOL    HW212147   2.109   1.464   7.361
 3754SOL     OW12148   2.560   0.459   6.850
 3754SOL    HW112149   2.513   0.382   6.818
 3754SOL    HW212150   2.560   0.520   6.776
 3755SOL     OW12151   2.792   1.675   7.053
 3755SOL    HW112152   2.764   1.642   6.968
 3755SOL    HW212153   2.788   1.771   7.045
 3756SOL     OW12154   2.327   0.493   5.770
 3756SOL    HW112155   2.386   0.565   5.792
 3756SOL    HW212156   2.241   0.534   5.759
 3757SOL     OW12157   2.008   1.140   7.059
 3757SOL    HW112158   2.011   1.088   7.139
 3757SOL    HW212159   2.025   1.077   6.989
 3758SOL     OW12160   3.189   1.047   6.809
 3758SOL    HW112161   3.212   0.984   6.741
 3758SOL    HW212162   3.118   1.099   6.771
 3759SOL     OW12163   3.172   0.859   5.892
 3759SOL    HW112164   3.098   0.825   5.944
 3759SOL    HW212165   3.147   0.843   5.801
 3760SOL     OW12166   3.633   1.745   6.736
 3760SOL    HW112167   3.693   1.770   6.666
 3760SOL    HW212168   3.609   1.655   6.715
 3761SOL     OW12169   3.117   1.735   6.709
 3761SOL    HW112170   3.195   1.749   6.656
 3761SOL    HW212171   3.112   1.640   6.720
 3762SOL     OW12172   1.952   1.258   6.603
 3762SOL    HW112173   1.934   1.275   6.695
 3762SOL    HW212174   1.872   1.217   6.570
 3763SOL     OW12175   2.539   1.665   7.313
 3763SOL    HW112176   2.486   1.745   7.314
 3763SOL    HW212177   2.600   1.677   7.240
 3764SOL     OW12178   3.580   0.129   6.079
 3764SOL    HW112179   3.652   0.137   6.017
 3764SOL    HW212180   3.606   0.058   6.137
 3765SOL     OW12181   3.248   1.565   6.061
 3765SOL    HW112182   3.314   1.597   5.999
 3765SOL    HW212183   3.217   1.644   6.106
 3766SOL     OW12184   1.994   1.790   7.421
 3766SOL    HW112185   1.952   1.729   7.482
 3766SOL    HW212186   2.042   1.851   7.478
 3767SOL     OW12187   3.140   0.928   6.259
 3767SOL    HW112188   3.212   0.865   6.264
 3767SOL    HW212189   3.175   0.999   6.205
 3768SOL     OW12190   2.677   1.273   7.016
 3768SOL    HW112191   2.649   1.312   7.099
 3768SOL    HW212192   2.608   1.295   6.954
 3769SOL     OW12193   3.492   1.727   6.978
 3769SOL    HW112194   3.539   1.734   6.895
 3769SOL    HW212195   3.477   1.817   7.006
 3770SOL     OW12196   3.701   0.154   6.552
 3770SOL    HW112197   3.732   0.077   6.504
 3770SOL    HW212198   3.614   0.172   6.516
 3771SOL     OW12199   2.127   0.323   6.304
 3771SOL    HW112200   2.041   0.357   6.277
 3771SOL    HW212201   2.120   0.314   6.399
 3772SOL     OW12202   3.075   1.609   5.615
 3772SOL    HW112203   3.063   1.522   5.653
 3772SOL    HW212204   3.040   1.602   5.526
 3773SOL     OW12205   2.686   1.006   6.958
 3773SOL    HW112206   2.729   1.002   6.873
 3773SOL    HW212207   2.686   1.099   6.981
 3774SOL     OW12208   2.781   0.911   5.875
 3774SOL    HW112209   2.844   0.943   5.810
 3774SOL    HW212210   2.827   0.840   5.920
 3775SOL     OW12211   3.356   1.629   5.629
 3775SOL    HW112212   3.262   1.619   5.615
 3775SOL    HW212213   3.393   1.632   5.541
 3776SOL     OW12214   2.232   1.299   7.079
 3776SOL    HW112215   2.221   1.378   7.026
 3776SOL    HW212216   2.154   1.247   7.062
 3777SOL     OW12217   3.474   1.283   6.867
 3777SOL    HW112218   3.531   1.272   6.943
 3777SOL    HW212219   3.413   1.352   6.893
 3778SOL     OW12220   2.915   1.107   6.287
 3778SOL    HW112221   2.843   1.059   6.328
 3778SOL    HW212222   2.977   1.039   6.261
 3779SOL     OW12223   2.868   0.243   6.589
 3779SOL    HW112224   2.874   0.219   6.497
 3779SOL    HW212225   2.861   0.160   6.635
 3780SOL     OW12226   3.583   0.394   6.963
 3780SOL    HW112227   3.656   0.456   6.962
 3780SOL    HW212228   3.612   0.322   6.907
 3781SOL     OW12229   2.117   1.299   5.914
 3781SOL    HW112230   2.033   1.305   5.868
 3781SOL    HW212231   2.112   1.367   5.982
 3782SOL     OW12232   1.975   1.020   7.306
 3782SOL    HW112233   1.898   0.998   7.359
 3782SOL    HW212234   2.049   0.983   7.353
 3783SOL     OW12235   2.520   0.204   7.084
 3783SOL    HW112236   2.600   0.179   7.037
 3783SOL    HW212237   2.550   0.225   7.173
 3784SOL     OW12238   1.943   0.339   5.633
 3784SOL    HW112239   1.872   0.286   5.597
 3784SOL    HW212240   1.957   0.408   5.568
 3785SOL     OW12241   3.292   0.858   6.986
 3785SOL    HW112242   3.243   0.919   6.931
 3785SOL    HW212243   3.382   0.861   6.952
 3786SOL     OW12244   1.926   0.182   5.906
 3786SOL    HW112245   1.925   0.250   5.838
 3786SOL    HW212246   2.001   0.127   5.884
 3787SOL     OW12247   3.039   1.344   5.706
 3787SOL    HW112248   2.958   1.292   5.708
 3787SOL    HW212249   3.071   1.342   5.796
 3788SOL     OW12250   2.481   0.830   7.019
 3788SOL    HW112251   2.536   0.907   7.004
 3788SOL    HW212252   2.542   0.758   7.028
 3789SOL     OW12253   3.349   1.775   6.561
 3789SOL    HW112254   3.373   1.832   6.488
 3789SOL    HW212255   3.431   1.759   6.607
 3790SOL     OW12256   2.578   0.563   7.292
 3790SOL    HW112257   2.616   0.628   7.351
 3790SOL    HW212258   2.611   0.479   7.323
 3791SOL     OW12259   3.333   1.201   7.218
 3791SOL    HW112260   3.320   1.214   7.312
 3791SOL    HW212261   3.426   1.215   7.204
 3792SOL     OW12262   2.238   1.740   7.150
 3792SOL    HW112263   2.150   1.770   7.130
 3792SOL    HW212264   2.226   1.655   7.192
 3793SOL     OW12265   3.532   0.881   6.842
 3793SOL    HW112266   3.524   0.796   6.798
 3793SOL    HW212267   3.522   0.945   6.771
 3794SOL     OW12268   3.080   0.330   6.033
 3794SOL    HW112269   3.145   0.260   6.023
 3794SOL    HW212270   3.107   0.376   6.112
 3795SOL     OW12271   2.450   0.739   6.256
 3795SOL    HW112272   2.491   0.823   6.239
 3795SOL    HW212273   2.382   0.732   6.189
 3796SOL     OW12274   3.625   0.365   7.229
 3796SOL    HW112275   3.609   0.378   7.136
 3796SOL    HW212276   3.547   0.319   7.261
 3797SOL     OW12277   3.608   0.933   7.098
 3797SOL    HW112278   3.604   1.028   7.111
 3797SOL    HW212279   3.592   0.922   7.005
 3798SOL     OW12280   2.716   1.365   5.617
 3798SOL    HW112281   2.694   1.410   5.699
 3798SOL    HW212282   2.759   1.433   5.565
 3799SOL     OW12283   2.731   0.969   6.441
 3799SOL    HW112284   2.780   0.897   6.480
 3799SOL    HW212285   2.696   1.017   6.516
 3800SOL     OW12286   2.947   0.995   5.675
 3800SOL    HW112287   2.920   1.038   5.594
 3800SOL    HW212288   3.018   0.937   5.649
 3801SOL     OW12289   3.717   1.555   6.431
 3801SOL    HW112290   3.640   1.544   6.376
 3801SOL    HW212291   3.709   1.488   6.499
 3802SOL     OW12292   2.086   1.302   7.442
 3802SOL    HW112293   2.019   1.242   7.412
 3802SOL    HW212294   2.069   1.313   7.536
 3803SOL     OW12295   1.943   1.232   6.246
 3803SOL    HW112296   1.953   1.186   6.329
 3803SOL    HW212297   2.019   1.205   6.194
 3804SOL     OW12298   2.543   1.402   7.214
 3804SOL    HW112299   2.463   1.359   7.243
 3804SOL    HW212300   2.538   1.490   7.250
 3805SOL     OW12301   3.670   0.182   6.825
 3805SOL    HW112302   3.669   0.088   6.845
 3805SOL    HW212303   3.687   0.186   6.730
 3806SOL     OW12304   2.298   0.433   6.116
 3806SOL    HW112305   2.320   0.364   6.053
 3806SOL    HW212306   2.242   0.390   6.181
 3807SOL     OW12307   3.563   1.490   6.684
 3807SOL    HW112308   3.483   1.467   6.638
 3807SOL    HW212309   3.574   1.421   6.749
 3808SOL     OW12310   2.191   0.556   6.878
 3808SOL    HW112311   2.247   0.500   6.932
 3808SOL    HW212312   2.211   0.530   6.788
 3809SOL     OW12313   3.294   0.216   6.704
 3809SOL    HW112314   3.330   0.145   6.757
 3809SOL    HW212315   3.243   0.269   6.765
 3810SOL     OW12316   2.858   0.008   6.736
 3810SOL    HW112317   2.815   4.423   6.728
 3810SOL    HW212318   2.951   4.487   6.748
 3811SOL     OW12319   2.481   1.557   6.868
 3811SOL    HW112320   2.485   1.636   6.921
 3811SOL    HW212321   2.570   1.548   6.833
 3812SOL     OW12322   3.203   0.053   5.739
 3812SOL    HW112323   3.242   4.477   5.695
 3812SOL    HW212324   3.127   0.017   5.786
 3813SOL     OW12325   3.177   0.463   6.263
 3813SOL    HW112326   3.116   0.537   6.264
 3813SOL    HW212327   3.165   0.421   6.349
 3814SOL     OW12328   3.447   0.200   6.453
 3814SOL    HW112329   3.388   0.215   6.527
 3814SOL    HW212330   3.450   0.284   6.407
 3815SOL     OW12331   1.901   1.069   5.890
 3815SOL    HW112332   1.996   1.065   5.877
 3815SOL    HW212333   1.876   0.980   5.914
 3816SOL     OW12334   2.091   0.626   7.569
 3816SOL    HW112335   2.004   0.620   7.607
 3816SOL    HW212336   2.080   0.596   7.478
 3817SOL     OW12337   2.070   0.298   8.437
 3817SOL    HW112338   2.101   0.270   8.523
 3817SOL    HW212339   1.988   0.250   8.424
 3818SOL     OW12340   1.870   0.386   8.086
 3818SOL    HW112341   1.783   0.405   8.123
 3818SOL    HW212342   1.855   0.312   8.028
 3819SOL     OW12343   2.429   1.286   8.622
 3819SOL    HW112344   2.341   1.288   8.585
 3819SOL    HW212345   2.443   1.375   8.656
 3820SOL     OW12346   3.422   1.512   8.155
 3820SOL    HW112347   3.379   1.492   8.238
 3820SOL    HW212348   3.351   1.516   8.091
 3821SOL     OW12349   2.996   0.699   8.147
 3821SOL    HW112350   3.042   0.782   8.137
 3821SOL    HW212351   2.946   0.709   8.228
 3822SOL     OW12352   3.629   0.607   7.676
 3822SOL    HW112353   3.608   0.597   7.583
 3822SOL    HW212354   3.596   0.527   7.717
 3823SOL     OW12355   2.619   1.143   8.489
 3823SOL    HW112356   2.550   1.177   8.545
 3823SOL    HW212357   2.654   1.220   8.443
 3824SOL     OW12358   2.727   0.776   9.270
 3824SOL    HW112359   2.714   0.847   9.332
 3824SOL    HW212360   2.751   0.820   9.188
 3825SOL     OW12361   2.548   1.004   8.095
 3825SOL    HW112362   2.613   0.991   8.165
 3825SOL    HW212363   2.479   1.055   8.136
 3826SOL     OW12364   2.572   1.151   9.259
 3826SOL    HW112365   2.619   1.230   9.286
 3826SOL    HW212366   2.489   1.184   9.225
 3827SOL     OW12367   2.193   1.425   8.517
 3827SOL    HW112368   2.119   1.389   8.468
 3827SOL    HW212369   2.242   1.475   8.452
 3828SOL     OW12370   3.323   1.499   8.801
 3828SOL    HW112371   3.372   1.581   8.812
 3828SOL    HW212372   3.262   1.498   8.875
 3829SOL     OW12373   2.304   0.395   8.938
 3829SOL    HW112374   2.386   0.346   8.939
 3829SOL    HW212375   2.236   0.329   8.951
 3830SOL     OW12376   3.473   0.446   8.186
 3830SOL    HW112377   3.393   0.468   8.139
 3830SOL    HW212378   3.492   0.524   8.239
 3831SOL     OW12379   2.082   1.719   7.922
 3831SOL    HW112380   2.118   1.758   8.002
 3831SOL    HW212381   2.158   1.706   7.865
 3832SOL     OW12382   2.998   1.341   9.140
 3832SOL    HW112383   3.038   1.337   9.227
 3832SOL    HW212384   2.946   1.261   9.134
 3833SOL     OW12385   2.088   1.442   7.983
 3833SOL    HW112386   2.065   1.534   7.993
 3833SOL    HW212387   2.031   1.396   8.045
 3834SOL     OW12388   2.119   1.090   8.339
 3834SOL    HW112389   2.115   1.004   8.380
 3834SOL    HW212390   2.061   1.144   8.392
 3835SOL     OW12391   2.477   1.785   8.882
 3835SOL    HW112392   2.392   1.772   8.925
 3835SOL    HW212393   2.498   1.877   8.897
 3836SOL     OW12394   2.449   0.981   7.582
 3836SOL    HW112395   2.493   1.031   7.513
 3836SOL    HW212396   2.489   1.011   7.663
 3837SOL     OW12397   3.445   0.115   8.920
 3837SOL    HW112398   3.465   0.183   8.856
 3837SOL    HW212399   3.434   0.162   9.003
 3838SOL     OW12400   1.978   0.653   8.008
 3838SOL    HW112401   1.948   0.564   8.029
 3838SOL    HW212402   1.969   0.702   8.089
 3839SOL     OW12403   3.704   1.759   7.783
 3839SOL    HW112404   3.766   1.731   7.850
 3839SOL    HW212405   3.728   1.850   7.765
 3840SOL     OW12406   1.898   1.598   7.579
 3840SOL    HW112407   1.881   1.504   7.588
 3840SOL    HW212408   1.862   1.636   7.659
 3841SOL     OW12409   3.553   0.921   8.089
 3841SOL    HW112410   3.636   0.878   8.068
 3841SOL    HW212411   3.531   0.969   8.010
 3842SOL     OW12412   3.508   1.107   7.877
 3842SOL    HW112413   3.593   1.114   7.835
 3842SOL    HW212414   3.512   1.168   7.951
 3843SOL     OW12415   1.984   0.744   9.033
 3843SOL    HW112416   2.076   0.770   9.042
 3843SOL    HW212417   1.935   0.826   9.040
 3844SOL     OW12418   2.476   1.384   8.182
 3844SOL    HW112419   2.430   1.301   8.192
 3844SOL    HW212420   2.459   1.411   8.092
 3845SOL     OW12421   3.151   1.239   8.871
 3845SOL    HW112422   3.183   1.171   8.811
 3845SOL    HW212423   3.208   1.232   8.948
 3846SOL     OW12424   2.679   0.014   7.998
 3846SOL    HW112425   2.714   0.099   7.973
 3846SOL    HW212426   2.584   0.024   7.991
 3847SOL     OW12427   2.053   0.966   8.720
 3847SOL    HW112428   2.137   0.924   8.704
 3847SOL    HW212429   1.990   0.913   8.672
 3848SOL     OW12430   3.394   0.992   7.646
 3848SOL    HW112431   3.323   0.936   7.677
 3848SOL    HW212432   3.434   1.027   7.726
 3849SOL     OW12433   3.050   1.806   9.069
 3849SOL    HW112434   3.060   1.863   8.994
 3849SOL    HW212435   3.064   1.717   9.035
 3850SOL     OW12436   2.177   0.254   9.229
 3850SOL    HW112437   2.240   0.318   9.261
 3850SOL    HW212438   2.103   0.261   9.289
 3851SOL     OW12439   3.328   1.420   8.400
 3851SOL    HW112440   3.260   1.434   8.465
 3851SOL    HW212441   3.316   1.329   8.373
 3852SOL     OW12442   3.521   1.738   8.026
 3852SOL    HW112443   3.500   1.708   7.937
 3852SOL    HW212444   3.496   1.664   8.082
 3853SOL     OW12445   2.455   0.723   7.713
 3853SOL    HW112446   2.461   0.805   7.663
 3853SOL    HW212447   2.390   0.741   7.781
 3854SOL     OW12448   3.153   0.363   8.381
 3854SOL    HW112449   3.064   0.332   8.366
 3854SOL    HW212450   3.189   0.299   8.443
 3855SOL     OW12451   3.443   1.670   7.757
 3855SOL    HW112452   3.533   1.702   7.750
 3855SOL    HW212453   3.416   1.653   7.667
 3856SOL     OW12454   2.657   0.619   8.902
 3856SOL    HW112455   2.629   0.594   8.990
 3856SOL    HW212456   2.617   0.554   8.845
 3857SOL     OW12457   3.251   0.479   9.124
 3857SOL    HW112458   3.254   0.523   9.209
 3857SOL    HW212459   3.317   0.410   9.130
 3858SOL     OW12460   2.818   0.888   9.030
 3858SOL    HW112461   2.871   0.817   8.995
 3858SOL    HW212462   2.770   0.921   8.954
 3859SOL     OW12463   2.858   0.417   8.685
 3859SOL    HW112464   2.770   0.427   8.722
 3859SOL    HW212465   2.844   0.365   8.605
 3860SOL     OW12466   2.912   0.697   7.875
 3860SOL    HW112467   2.928   0.690   7.969
 3860SOL    HW212468   2.829   0.651   7.861
 3861SOL     OW12469   1.951   0.820   8.224
 3861SOL    HW112470   2.032   0.814   8.275
 3861SOL    HW212471   1.907   0.898   8.259
 3862SOL     OW12472   1.974   1.796   9.014
 3862SOL    HW112473   1.969   1.793   9.109
 3862SOL    HW212474   1.904   1.856   8.988
 3863SOL     OW12475   2.717   0.369   7.630
 3863SOL    HW112476   2.789   0.403   7.578
 3863SOL    HW212477   2.732   0.274   7.634
 3864SOL     OW12478   3.567   0.574   9.276
 3864SOL    HW112479   3.531   0.649   9.229
 3864SOL    HW212480   3.602   0.517   9.207
 3865SOL     OW12481   3.239   1.143   7.989
 3865SOL    HW112482   3.317   1.129   7.936
 3865SOL    HW212483   3.186   1.204   7.939
 3866SOL     OW12484   2.400   0.203   8.349
 3866SOL    HW112485   2.421   0.221   8.441
 3866SOL    HW212486   2.392   0.290   8.309
 3867SOL     OW12487   2.869   1.445   7.920
 3867SOL    HW112488   2.830   1.517   7.871
 3867SOL    HW212489   2.852   1.466   8.012
 3868SOL     OW12490   2.212   1.789   8.288
 3868SOL    HW112491   2.253   1.704   8.305
 3868SOL    HW212492   2.282   1.853   8.303
 3869SOL     OW12493   3.660   1.060   8.316
 3869SOL    HW112494   3.606   1.040   8.240
 3869SOL    HW212495   3.598   1.064   8.389
 3870SOL     OW12496   3.090   1.538   8.961
 3870SOL    HW112497   3.076   1.466   9.021
 3870SOL    HW212498   3.026   1.524   8.891
 3871SOL     OW12499   2.182   0.956   7.698
 3871SOL    HW112500   2.264   0.975   7.652
 3871SOL    HW212501   2.151   0.875   7.658
 3872SOL     OW12502   3.341   0.742   8.173
 3872SOL    HW112503   3.328   0.697   8.256
 3872SOL    HW212504   3.418   0.797   8.186
 3873SOL     OW12505   2.328   1.264   9.186
 3873SOL    HW112506   2.300   1.268   9.095
 3873SOL    HW212507   2.246   1.262   9.236
 3874SOL     OW12508   2.984   1.776   7.681
 3874SOL    HW112509   2.910   1.735   7.725
 3874SOL    HW212510   3.006   1.717   7.609
 3875SOL     OW12511   2.050   0.268   8.959
 3875SOL    HW112512   1.984   0.335   8.943
 3875SOL    HW212513   2.064   0.270   9.054
 3876SOL     OW12514   3.491   1.380   7.535
 3876SOL    HW112515   3.450   1.465   7.520
 3876SOL    HW212516   3.422   1.316   7.517
 3877SOL     OW12517   2.329   1.720   7.790
 3877SOL    HW112518   2.368   1.794   7.837
 3877SOL    HW212519   2.385   1.709   7.713
 3878SOL     OW12520   3.282   0.138   7.866
 3878SOL    HW112521   3.266   0.086   7.786
 3878SOL    HW212522   3.376   0.131   7.879
 3879SOL     OW12523   2.101   1.757   8.685
 3879SOL    HW112524   2.169   1.703   8.726
 3879SOL    HW212525   2.113   1.743   8.591
 3880SOL     OW12526   2.797   1.697   8.348
 3880SOL    HW112527   2.875   1.647   8.370
 3880SOL    HW212528   2.755   1.648   8.277
 3881SOL     OW12529   2.254   0.694   7.924
 3881SOL    HW112530   2.277   0.602   7.936
 3881SOL    HW212531   2.160   0.699   7.942
 3882SOL     OW12532   3.387   0.233   9.170
 3882SOL    HW112533   3.387   0.256   9.263
 3882SOL    HW212534   3.310   0.178   9.159
 3883SOL     OW12535   2.489   0.122   7.570
 3883SOL    HW112536   2.577   0.085   7.579
 3883SOL    HW212537   2.456   0.086   7.488
 3884SOL     OW12538   2.631   0.271   9.202
 3884SOL    HW112539   2.696   0.202   9.213
 3884SOL    HW212540   2.586   0.275   9.286
 3885SOL     OW12541   2.739   1.523   8.640
 3885SOL    HW112542   2.723   1.484   8.554
 3885SOL    HW212543   2.808   1.468   8.678
 3886SOL     OW12544   3.203   0.589   8.877
 3886SOL    HW112545   3.231   0.560   8.964
 3886SOL    HW212546   3.238   0.678   8.869
 3887SOL     OW12547   2.676   1.397   8.386
 3887SOL    HW112548   2.761   1.384   8.342
 3887SOL    HW212549   2.612   1.395   8.315
 3888SOL     OW12550   2.785   0.518   8.348
 3888SOL    HW112551   2.769   0.516   8.253
 3888SOL    HW212552   2.823   0.432   8.367
 3889SOL     OW12553   2.416   0.076   7.969
 3889SOL    HW112554   2.328   0.048   7.992
 3889SOL    HW212555   2.403   0.141   7.900
 3890SOL     OW12556   3.291   1.198   7.489
 3890SOL    HW112557   3.320   1.122   7.539
 3890SOL    HW212558   3.204   1.219   7.526
 3891SOL     OW12559   2.158   0.069   7.645
 3891SOL    HW112560   2.236   0.121   7.627
 3891SOL    HW212561   2.188   4.500   7.704
 3892SOL     OW12562   2.814   0.240   7.916
 3892SOL    HW112563   2.762   0.295   7.858
 3892SOL    HW212564   2.903   0.276   7.911
 3893SOL     OW12565   2.942   0.680   8.909
 3893SOL    HW112566   2.870   0.617   8.909
 3893SOL    HW212567   3.021   0.628   8.897
 3894SOL     OW12568   3.085   1.570   8.242
 3894SOL    HW112569   3.103   1.637   8.175
 3894SOL    HW212570   3.154   1.583   8.307
 3895SOL     OW12571   2.330   1.150   8.182
 3895SOL    HW112572   2.261   1.130   8.245
 3895SOL    HW212573   2.291   1.133   8.097
 3896SOL     OW12574   3.132   1.794   8.056
 3896SOL    HW112575   3.177   1.855   7.997
 3896SOL    HW212576   3.067   1.848   8.100
 3897SOL     OW12577   2.892   0.548   7.464
 3897SOL    HW112578   2.843   0.629   7.449
 3897SOL    HW212579   2.950   0.568   7.538
 3898SOL     OW12580   1.944   0.551   8.843
 3898SOL    HW112581   2.034   0.554   8.813
 3898SOL    HW212582   1.936   0.622   8.906
 3899SOL     OW12583   2.425   0.243   8.614
 3899SOL    HW112584   2.452   0.160   8.654
 3899SOL    HW212585   2.333   0.253   8.639
 3900SOL     OW12586   2.728   0.504   8.074
 3900SOL    HW112587   2.682   0.544   8.001
 3900SOL    HW212588   2.696   0.413   8.075
 3901SOL     OW12589   2.826   0.026   8.229
 3901SOL    HW112590   2.777   0.024   8.147
 3901SOL    HW212591   2.839   4.434   8.252
 3902SOL     OW12592   3.298   1.163   8.305
 3902SOL    HW112593   3.230   1.096   8.305
 3902SOL    HW212594   3.322   1.174   8.213
 3903SOL     OW12595   3.328   0.604   8.424
 3903SOL    HW112596   3.275   0.525   8.426
 3903SOL    HW212597   3.386   0.597   8.500
 3904SOL     OW12598   3.708   0.817   7.830
 3904SOL    HW112599   3.764   0.765   7.889
 3904SOL    HW212600   3.680   0.755   7.763
 3905SOL     OW12601   2.353   1.418   7.605
 3905SOL    HW112602   2.279   1.389   7.658
 3905SOL    HW212603   2.336   1.381   7.518
 3906SOL     OW12604   3.532   1.265   8.093
 3906SOL    HW112605   3.626   1.268   8.108
 3906SOL    HW212606   3.501   1.353   8.115
 3907SOL     OW12607   3.256   0.570   7.518
 3907SOL    HW112608   3.195   0.555   7.589
 3907SOL    HW212609   3.342   0.551   7.556
 3908SOL     OW12610   2.384   0.266   7.772
 3908SOL    HW112611   2.431   0.214   7.705
 3908SOL    HW212612   2.367   0.349   7.729
 3909SOL     OW12613   3.615   1.238   9.022
 3909SOL    HW112614   3.702   1.199   9.019
 3909SOL    HW212615   3.630   1.328   9.051
 3910SOL     OW12616   2.921   1.354   8.782
 3910SOL    HW112617   2.846   1.323   8.833
 3910SOL    HW212618   2.997   1.313   8.823
 3911SOL     OW12619   3.469   1.626   9.101
 3911SOL    HW112620   3.464   1.660   9.012
 3911SOL    HW212621   3.552   1.578   9.104
 3912SOL     OW12622   2.991   1.204   8.554
 3912SOL    HW112623   2.931   1.240   8.619
 3912SOL    HW212624   2.957   1.234   8.470
 3913SOL     OW12625   3.491   1.098   8.526
 3913SOL    HW112626   3.486   1.161   8.599
 3913SOL    HW212627   3.411   1.115   8.476
 3914SOL     OW12628   2.765   0.132   8.836
 3914SOL    HW112629   2.787   0.088   8.754
 3914SOL    HW212630   2.849   0.147   8.879
 3915SOL     OW12631   2.846   1.115   9.171
 3915SOL    HW112632   2.754   1.130   9.192
 3915SOL    HW212633   2.845   1.037   9.115
 3916SOL     OW12634   2.570   1.061   7.819
 3916SOL    HW112635   2.557   1.045   7.913
 3916SOL    HW212636   2.646   1.007   7.797
 3917SOL     OW12637   2.281   0.815   8.699
 3917SOL    HW112638   2.349   0.824   8.765
 3917SOL    HW212639   2.246   0.727   8.713
 3918SOL     OW12640   3.130   0.376   8.721
 3918SOL    HW112641   3.162   0.454   8.765
 3918SOL    HW212642   3.041   0.398   8.694
 3919SOL     OW12643   1.924   1.566   8.796
 3919SOL    HW112644   1.889   1.642   8.750
 3919SOL    HW212645   2.018   1.582   8.800
 3920SOL     OW12646   2.212   1.109   7.939
 3920SOL    HW112647   2.217   1.181   7.877
 3920SOL    HW212648   2.210   1.030   7.884
 3921SOL     OW12649   2.418   0.530   8.306
 3921SOL    HW112650   2.432   0.589   8.232
 3921SOL    HW212651   2.482   0.559   8.372
 3922SOL     OW12652   3.110   1.348   7.837
 3922SOL    HW112653   3.166   1.420   7.868
 3922SOL    HW212654   3.023   1.369   7.870
 3923SOL     OW12655   3.142   1.457   8.594
 3923SOL    HW112656   3.197   1.459   8.673
 3923SOL    HW212657   3.086   1.380   8.605
 3924SOL     OW12658   3.444   0.624   7.925
 3924SOL    HW112659   3.397   0.674   7.991
 3924SOL    HW212660   3.488   0.690   7.871
 3925SOL     OW12661   2.217   1.515   8.769
 3925SOL    HW112662   2.198   1.478   8.683
 3925SOL    HW212663   2.311   1.530   8.769
 3926SOL     OW12664   2.276   0.743   9.050
 3926SOL    HW112665   2.336   0.790   8.992
 3926SOL    HW212666   2.321   0.660   9.068
 3927SOL     OW12667   3.463   0.778   9.129
 3927SOL    HW112668   3.376   0.819   9.122
 3927SOL    HW212669   3.515   0.820   9.060
 3928SOL     OW12670   2.868   0.085   9.169
 3928SOL    HW112671   2.895   0.168   9.131
 3928SOL    HW212672   2.892   0.019   9.104
 3929SOL     OW12673   2.361   0.046   9.207
 3929SOL    HW112674   2.357   0.004   9.121
 3929SOL    HW212675   2.293   0.114   9.204
 3930SOL     OW12676   2.444   0.873   8.479
 3930SOL    HW112677   2.475   0.964   8.478
 3930SOL    HW212678   2.388   0.867   8.556
 3931SOL     OW12679   3.220   0.858   8.478
 3931SOL    HW112680   3.137   0.850   8.432
 3931SOL    HW212681   3.260   0.772   8.473
 3932SOL     OW12682   3.066   0.535   7.711
 3932SOL    HW112683   3.072   0.455   7.763
 3932SOL    HW212684   3.023   0.598   7.770
 3933SOL     OW12685   2.152   0.234   8.689
 3933SOL    HW112686   2.109   0.250   8.773
 3933SOL    HW212687   2.186   0.145   8.696
 3934SOL     OW12688   1.907   1.307   8.724
 3934SOL    HW112689   1.942   1.256   8.797
 3934SOL    HW212690   1.914   1.398   8.753
 3935SOL     OW12691   2.585   0.631   8.506
 3935SOL    HW112692   2.659   0.612   8.448
 3935SOL    HW212693   2.559   0.720   8.482
 3936SOL     OW12694   3.596   0.959   9.300
 3936SOL    HW112695   3.549   0.900   9.242
 3936SOL    HW212696   3.537   0.972   9.374
 3937SOL     OW12697   2.159   0.055   8.102
 3937SOL    HW112698   2.149   0.151   8.104
 3937SOL    HW212699   2.171   0.031   8.194
 3938SOL     OW12700   3.476   0.377   7.811
 3938SOL    HW112701   3.505   0.314   7.876
 3938SOL    HW212702   3.453   0.455   7.862
 3939SOL     OW12703   2.891   0.762   8.410
 3939SOL    HW112704   2.888   0.777   8.504
 3939SOL    HW212705   2.862   0.671   8.400
 3940SOL     OW12706   2.845   1.567   9.164
 3940SOL    HW112707   2.829   1.611   9.081
 3940SOL    HW212708   2.887   1.484   9.140
 3941SOL     OW12709   3.717   1.507   9.054
 3941SOL    HW112710   3.734   1.533   8.963
 3941SOL    HW212711   3.798   1.526   9.100
 3942SOL     OW12712   2.216   0.916   9.256
 3942SOL    HW112713   2.298   0.935   9.302
 3942SOL    HW212714   2.240   0.853   9.188
 3943SOL     OW12715   3.393   0.265   7.576
 3943SOL    HW112716   3.321   0.209   7.605
 3943SOL    HW212717   3.422   0.310   7.655
 3944SOL     OW12718   3.155   0.826   7.479
 3944SOL    HW112719   3.196   0.740   7.482
 3944SOL    HW212720   3.185   0.866   7.398
 3945SOL     OW12721   2.926   1.336   8.301
 3945SOL    HW112722   2.930   1.262   8.239
 3945SOL    HW212723   2.989   1.399   8.266
 3946SOL     OW12724   2.171   0.810   8.396
 3946SOL    HW112725   2.264   0.832   8.389
 3946SOL    HW212726   2.170   0.720   8.429
 3947SOL     OW12727   2.198   0.531   8.461
 3947SOL    HW112728   2.156   0.448   8.442
 3947SOL    HW212729   2.274   0.534   8.403
 3948SOL     OW12730   2.997   0.374   9.143
 3948SOL    HW112731   2.948   0.438   9.194
 3948SOL    HW212732   3.083   0.415   9.130
 3949SOL     OW12733   3.020   0.212   8.921
 3949SOL    HW112734   3.013   0.276   8.992
 3949SOL    HW212735   3.058   0.261   8.849
 3950SOL     OW12736   1.867   1.322   7.643
 3950SOL    HW112737   1.780   1.336   7.605
 3950SOL    HW212738   1.865   1.232   7.676
 3951SOL     OW12739   1.948   1.782   8.375
 3951SOL    HW112740   1.919   1.700   8.337
 3951SOL    HW212741   2.037   1.794   8.341
 3952SOL     OW12742   2.361   1.570   8.352
 3952SOL    HW112743   2.429   1.634   8.372
 3952SOL    HW212744   2.404   1.505   8.297
 3953SOL     OW12745   2.846   0.794   8.676
 3953SOL    HW112746   2.901   0.770   8.751
 3953SOL    HW212747   2.761   0.754   8.694
 3954SOL     OW12748   1.895   0.543   8.566
 3954SOL    HW112749   1.973   0.524   8.514
 3954SOL    HW212750   1.928   0.548   8.656
 3955SOL     OW12751   2.047   0.519   9.169
 3955SOL    HW112752   2.121   0.499   9.112
 3955SOL    HW212753   2.005   0.595   9.127
 3956SOL     OW12754   3.239   0.939   9.107
 3956SOL    HW112755   3.259   1.033   9.105
 3956SOL    HW212756   3.236   0.914   9.015
 3957SOL     OW12757   2.673   0.575   7.803
 3957SOL    HW112758   2.677   0.503   7.740
 3957SOL    HW212759   2.599   0.629   7.774
 3958SOL     OW12760   3.503   0.602   8.635
 3958SOL    HW112761   3.492   0.542   8.709
 3958SOL    HW212762   3.590   0.582   8.601
 3959SOL     OW12763   2.114   1.548   9.179
 3959SOL    HW112764   2.081   1.610   9.244
 3959SOL    HW212765   2.110   1.463   9.222
 3960SOL     OW12766   2.560   0.459   8.712
 3960SOL    HW112767   2.514   0.382   8.680
 3960SOL    HW212768   2.560   0.520   8.638
 3961SOL     OW12769   2.793   1.679   8.915
 3961SOL    HW112770   2.764   1.645   8.830
 3961SOL    HW212771   2.787   1.774   8.906
 3962SOL     OW12772   2.327   0.493   7.633
 3962SOL    HW112773   2.386   0.565   7.654
 3962SOL    HW212774   2.241   0.534   7.621
 3963SOL     OW12775   2.008   1.140   8.921
 3963SOL    HW112776   2.011   1.088   9.001
 3963SOL    HW212777   2.025   1.077   8.851
 3964SOL     OW12778   3.189   1.047   8.671
 3964SOL    HW112779   3.212   0.984   8.604
 3964SOL    HW212780   3.118   1.099   8.633
 3965SOL     OW12781   3.173   0.857   7.754
 3965SOL    HW112782   3.098   0.827   7.805
 3965SOL    HW212783   3.147   0.843   7.663
 3966SOL     OW12784   3.634   1.745   8.598
 3966SOL    HW112785   3.693   1.771   8.528
 3966SOL    HW212786   3.609   1.655   8.577
 3967SOL     OW12787   3.103   1.733   8.562
 3967SOL    HW112788   3.185   1.753   8.516
 3967SOL    HW212789   3.108   1.639   8.580
 3968SOL     OW12790   1.947   1.265   8.461
 3968SOL    HW112791   1.933   1.278   8.555
 3968SOL    HW212792   1.872   1.213   8.432
 3969SOL     OW12793   2.539   1.665   9.176
 3969SOL    HW112794   2.485   1.744   9.173
 3969SOL    HW212795   2.602   1.677   9.104
 3970SOL     OW12796   3.580   0.129   7.941
 3970SOL    HW112797   3.652   0.137   7.879
 3970SOL    HW212798   3.606   0.058   7.999
 3971SOL     OW12799   3.253   1.568   7.933
 3971SOL    HW112800   3.313   1.599   7.865
 3971SOL    HW212801   3.204   1.645   7.960
 3972SOL     OW12802   1.986   1.786   9.287
 3972SOL    HW112803   1.935   1.718   9.332
 3972SOL    HW212804   2.045   1.821   9.353
 3973SOL     OW12805   3.140   0.927   8.121
 3973SOL    HW112806   3.213   0.865   8.125
 3973SOL    HW212807   3.174   1.000   8.068
 3974SOL     OW12808   2.677   1.273   8.878
 3974SOL    HW112809   2.650   1.312   8.961
 3974SOL    HW212810   2.606   1.294   8.817
 3975SOL     OW12811   2.537   1.617   7.601
 3975SOL    HW112812   2.544   1.629   7.506
 3975SOL    HW212813   2.480   1.541   7.611
 3976SOL     OW12814   3.490   1.727   8.840
 3976SOL    HW112815   3.539   1.734   8.758
 3976SOL    HW212816   3.477   1.817   8.867
 3977SOL     OW12817   3.701   0.154   8.414
 3977SOL    HW112818   3.732   0.078   8.366
 3977SOL    HW212819   3.614   0.172   8.378
 3978SOL     OW12820   2.127   0.323   8.166
 3978SOL    HW112821   2.041   0.357   8.139
 3978SOL    HW212822   2.120   0.314   8.261
 3979SOL     OW12823   3.069   1.606   7.479
 3979SOL    HW112824   3.060   1.515   7.507
 3979SOL    HW212825   3.003   1.618   7.410
 3980SOL     OW12826   2.686   1.006   8.821
 3980SOL    HW112827   2.729   1.001   8.735
 3980SOL    HW212828   2.686   1.099   8.842
 3981SOL     OW12829   2.778   0.910   7.738
 3981SOL    HW112830   2.840   0.942   7.672
 3981SOL    HW212831   2.824   0.840   7.783
 3982SOL     OW12832   3.354   1.625   7.491
 3982SOL    HW112833   3.260   1.619   7.477
 3982SOL    HW212834   3.391   1.631   7.402
 3983SOL     OW12835   2.232   1.298   8.941
 3983SOL    HW112836   2.221   1.377   8.887
 3983SOL    HW212837   2.154   1.246   8.925
 3984SOL     OW12838   3.474   1.283   8.729
 3984SOL    HW112839   3.532   1.272   8.804
 3984SOL    HW212840   3.413   1.352   8.755
 3985SOL     OW12841   2.913   1.107   8.154
 3985SOL    HW112842   2.842   1.056   8.193
 3985SOL    HW212843   2.975   1.041   8.123
 3986SOL     OW12844   2.868   0.243   8.451
 3986SOL    HW112845   2.874   0.219   8.359
 3986SOL    HW212846   2.860   0.160   8.497
 3987SOL     OW12847   2.463   1.490   7.929
 3987SOL    HW112848   2.506   1.439   7.860
 3987SOL    HW212849   2.402   1.546   7.882
 3988SOL     OW12850   3.583   0.394   8.825
 3988SOL    HW112851   3.656   0.456   8.824
 3988SOL    HW212852   3.612   0.322   8.769
 3989SOL     OW12853   2.121   1.346   7.736
 3989SOL    HW112854   2.028   1.343   7.714
 3989SOL    HW212855   2.124   1.383   7.824
 3990SOL     OW12856   1.974   1.020   9.167
 3990SOL    HW112857   1.898   0.997   9.221
 3990SOL    HW212858   2.049   0.983   9.215
 3991SOL     OW12859   2.520   0.204   8.946
 3991SOL    HW112860   2.600   0.179   8.899
 3991SOL    HW212861   2.550   0.225   9.035
 3992SOL     OW12862   1.943   0.339   7.495
 3992SOL    HW112863   1.872   0.287   7.459
 3992SOL    HW212864   1.957   0.409   7.430
 3993SOL     OW12865   3.292   0.858   8.849
 3993SOL    HW112866   3.243   0.919   8.793
 3993SOL    HW212867   3.382   0.861   8.814
 3994SOL     OW12868   1.927   0.183   7.768
 3994SOL    HW112869   1.925   0.249   7.699
 3994SOL    HW212870   2.001   0.127   7.746
 3995SOL     OW12871   3.041   1.340   7.565
 3995SOL    HW112872   2.950   1.311   7.567
 3995SOL    HW212873   3.069   1.340   7.656
 3996SOL     OW12874   2.481   0.830   8.881
 3996SOL    HW112875   2.536   0.907   8.866
 3996SOL    HW212876   2.542   0.757   8.890
 3997SOL     OW12877   3.346   1.776   8.426
 3997SOL    HW112878   3.370   1.835   8.354
 3997SOL    HW212879   3.428   1.758   8.471
 3998SOL     OW12880   2.578   0.563   9.154
 3998SOL    HW112881   2.616   0.628   9.213
 3998SOL    HW212882   2.611   0.479   9.185
 3999SOL     OW12883   3.332   1.201   9.080
 3999SOL    HW112884   3.320   1.214   9.174
 3999SOL    HW212885   3.426   1.215   9.066
 4000SOL     OW12886   2.242   1.743   9.016
 4000SOL    HW112887   2.155   1.773   8.989
 4000SOL    HW212888   2.226   1.657   9.056
 4001SOL     OW12889   3.532   0.881   8.704
 4001SOL    HW112890   3.524   0.796   8.661
 4001SOL    HW212891   3.522   0.945   8.633
 4002SOL     OW12892   3.080   0.329   7.896
 4002SOL    HW112893   3.145   0.260   7.885
 4002SOL    HW212894   3.108   0.377   7.974
 4003SOL     OW12895   2.449   0.738   8.119
 4003SOL    HW112896   2.491   0.823   8.102
 4003SOL    HW212897   2.382   0.731   8.051
 4004SOL     OW12898   3.625   0.365   9.091
 4004SOL    HW112899   3.609   0.378   8.998
 4004SOL    HW212900   3.547   0.319   9.123
 4005SOL     OW12901   3.608   0.933   8.960
 4005SOL    HW112902   3.604   1.028   8.973
 4005SOL    HW212903   3.592   0.921   8.867
 4006SOL     OW12904   2.726   1.368   7.482
 4006SOL    HW112905   2.685   1.395   7.564
 4006SOL    HW212906   2.743   1.450   7.435
 4007SOL     OW12907   2.522   1.797   8.381
 4007SOL    HW112908   2.520   1.886   8.417
 4007SOL    HW212909   2.615   1.772   8.382
 4008SOL     OW12910   2.729   0.967   8.303
 4008SOL    HW112911   2.779   0.895   8.342
 4008SOL    HW212912   2.695   1.015   8.378
 4009SOL     OW12913   2.942   0.989   7.537
 4009SOL    HW112914   2.919   1.039   7.459
 4009SOL    HW212915   3.016   0.935   7.510
 4010SOL     OW12916   3.717   1.556   8.293
 4010SOL    HW112917   3.639   1.543   8.238
 4010SOL    HW212918   3.710   1.487   8.360
 4011SOL     OW12919   2.086   1.302   9.304
 4011SOL    HW112920   2.019   1.242   9.274
 4011SOL    HW212921   2.069   1.314   9.398
 4012SOL     OW12922   1.948   1.234   8.111
 4012SOL    HW112923   1.950   1.187   8.195
 4012SOL    HW212924   2.015   1.190   8.058
 4013SOL     OW12925   2.543   1.402   9.075
 4013SOL    HW112926   2.463   1.359   9.105
 4013SOL    HW212927   2.538   1.490   9.112
 4014SOL     OW12928   3.670   0.182   8.687
 4014SOL    HW112929   3.669   0.088   8.707
 4014SOL    HW212930   3.687   0.186   8.593
 4015SOL     OW12931   2.298   0.433   7.978
 4015SOL    HW112932   2.320   0.364   7.915
 4015SOL    HW212933   2.242   0.390   8.042
 4016SOL     OW12934   3.562   1.490   8.546
 4016SOL    HW112935   3.481   1.466   8.500
 4016SOL    HW212936   3.574   1.421   8.610
 4017SOL     OW12937   2.191   0.557   8.740
 4017SOL    HW112938   2.247   0.500   8.794
 4017SOL    HW212939   2.211   0.530   8.650
 4018SOL     OW12940   2.688   1.578   8.126
 4018SOL    HW112941   2.677   1.626   8.044
 4018SOL    HW212942   2.612   1.520   8.130
 4019SOL     OW12943   3.294   0.216   8.566
 4019SOL    HW112944   3.330   0.145   8.619
 4019SOL    HW212945   3.243   0.269   8.627
 4020SOL     OW12946   2.858   0.008   8.598
 4020SOL    HW112947   2.815   4.423   8.590
 4020SOL    HW212948   2.951   4.487   8.609
 4021SOL     OW12949   2.633   1.332   7.762
 4021SOL    HW112950   2.601   1.242   7.768
 4021SOL    HW212951   2.716   1.331   7.810
 4022SOL     OW12952   2.483   1.558   8.730
 4022SOL    HW112953   2.485   1.637   8.783
 4022SOL    HW212954   2.572   1.550   8.695
 4023SOL     OW12955   3.203   0.053   7.601
 4023SOL    HW112956   3.242   4.477   7.557
 4023SOL    HW212957   3.127   0.017   7.648
 4024SOL     OW12958   3.177   0.463   8.125
 4024SOL    HW112959   3.116   0.537   8.126
 4024SOL    HW212960   3.165   0.421   8.211
 4025SOL     OW12961   3.447   0.200   8.315
 4025SOL    HW112962   3.388   0.215   8.389
 4025SOL    HW212963   3.450   0.284   8.269
 4026SOL     OW12964   1.906   1.072   7.753
 4026SOL    HW112965   2.000   1.063   7.736
 4026SOL    HW212966   1.877   0.983   7.776
 4027SOL     OW12967   2.744   1.652   7.792
 4027SOL    HW112968   2.674   1.634   7.730
 4027SOL    HW212969   2.713   1.728   7.842
 4028SOL     OW12970   2.091   0.626   9.431
 4028SOL    HW112971   2.004   0.620   9.469
 4028SOL    HW212972   2.080   0.596   9.340
 4029SOL     OW12973   2.071   0.298  10.299
 4029SOL    HW112974   2.101   0.270  10.385
 4029SOL    HW212975   1.988   0.250  10.286
 4030SOL     OW12976   1.870   0.386   9.948
 4030SOL    HW112977   1.784   0.405   9.985
 4030SOL    HW212978   1.855   0.312   9.890
 4031SOL     OW12979   2.430   1.287  10.484
 4031SOL    HW112980   2.342   1.287  10.447
 4031SOL    HW212981   2.442   1.375  10.518
 4032SOL     OW12982   3.423   1.512  10.017
 4032SOL    HW112983   3.379   1.492  10.100
 4032SOL    HW212984   3.351   1.516   9.953
 4033SOL     OW12985   2.996   0.699  10.009
 4033SOL    HW112986   3.042   0.782   9.999
 4033SOL    HW212987   2.946   0.709  10.090
 4034SOL     OW12988   3.629   0.607   9.538
 4034SOL    HW112989   3.608   0.597   9.445
 4034SOL    HW212990   3.596   0.527   9.579
 4035SOL     OW12991   2.621   1.144  10.352
 4035SOL    HW112992   2.550   1.178  10.407
 4035SOL    HW212993   2.654   1.221  10.305
 4036SOL     OW12994   2.715   0.777   0.021
 4036SOL    HW112995   2.722   0.834   0.098
 4036SOL    HW212996   2.748   0.831  11.049
 4037SOL     OW12997   2.549   1.004   9.957
 4037SOL    HW112998   2.613   0.991  10.027
 4037SOL    HW212999   2.478   1.055   9.998
 4038SOL     OW13000   2.194   1.423  10.378
 4038SOL    HW113001   2.119   1.389  10.330
 4038SOL    HW213002   2.243   1.474  10.313
 4039SOL     OW13003   3.326   1.499  10.659
 4039SOL    HW113004   3.380   1.577  10.669
 4039SOL    HW213005   3.270   1.500  10.737
 4040SOL     OW13006   2.310   0.394  10.787
 4040SOL    HW113007   2.387   0.339  10.797
 4040SOL    HW213008   2.238   0.341  10.819
 4041SOL     OW13009   3.473   0.446  10.048
 4041SOL    HW113010   3.393   0.468  10.001
 4041SOL    HW213011   3.493   0.524  10.100
 4042SOL     OW13012   2.082   1.721   9.785
 4042SOL    HW113013   2.123   1.756   9.864
 4042SOL    HW213014   2.155   1.709   9.724
 4043SOL     OW13015   2.089   1.442   9.845
 4043SOL    HW113016   2.065   1.535   9.854
 4043SOL    HW213017   2.031   1.396   9.906
 4044SOL     OW13018   2.120   1.090  10.201
 4044SOL    HW113019   2.115   1.004  10.243
 4044SOL    HW213020   2.061   1.145  10.254
 4045SOL     OW13021   2.475   1.780  10.742
 4045SOL    HW113022   2.393   1.766  10.790
 4045SOL    HW213023   2.497   1.871  10.759
 4046SOL     OW13024   2.449   0.981   9.443
 4046SOL    HW113025   2.493   1.031   9.375
 4046SOL    HW213026   2.489   1.011   9.525
 4047SOL     OW13027   3.416   0.135  10.782
 4047SOL    HW113028   3.464   0.192  10.721
 4047SOL    HW213029   3.474   0.127  10.858
 4048SOL     OW13030   1.978   0.653   9.870
 4048SOL    HW113031   1.948   0.564   9.891
 4048SOL    HW213032   1.969   0.702   9.951
 4049SOL     OW13033   3.704   1.760   9.645
 4049SOL    HW113034   3.766   1.731   9.712
 4049SOL    HW213035   3.728   1.850   9.627
 4050SOL     OW13036   1.893   1.588   9.434
 4050SOL    HW113037   1.876   1.496   9.451
 4050SOL    HW213038   1.868   1.633   9.515
 4051SOL     OW13039   3.553   0.921   9.951
 4051SOL    HW113040   3.636   0.878   9.930
 4051SOL    HW213041   3.531   0.969   9.872
 4052SOL     OW13042   3.508   1.107   9.739
 4052SOL    HW113043   3.593   1.114   9.697
 4052SOL    HW213044   3.512   1.168   9.813
 4053SOL     OW13045   1.988   0.726  10.915
 4053SOL    HW113046   2.081   0.747  10.906
 4053SOL    HW213047   1.944   0.810  10.909
 4054SOL     OW13048   2.476   1.384  10.044
 4054SOL    HW113049   2.430   1.301  10.053
 4054SOL    HW213050   2.459   1.411   9.954
 4055SOL     OW13051   3.156   1.237  10.751
 4055SOL    HW113052   3.181   1.176  10.681
 4055SOL    HW213053   3.213   1.213  10.825
 4056SOL     OW13054   2.679   0.014   9.860
 4056SOL    HW113055   2.714   0.099   9.835
 4056SOL    HW213056   2.584   0.024   9.853
 4057SOL     OW13057   2.053   0.965  10.579
 4057SOL    HW113058   2.137   0.922  10.563
 4057SOL    HW213059   1.988   0.910  10.534
 4058SOL     OW13060   3.394   0.992   9.508
 4058SOL    HW113061   3.323   0.936   9.539
 4058SOL    HW213062   3.434   1.027   9.588
 4059SOL     OW13063   3.061   1.806  10.927
 4059SOL    HW113064   3.058   1.869  10.855
 4059SOL    HW213065   3.068   1.721  10.884
 4060SOL     OW13066   2.197   0.276  11.088
 4060SOL    HW113067   2.253   0.340   0.032
 4060SOL    HW213068   2.113   0.282   0.034
 4061SOL     OW13069   3.328   1.420  10.261
 4061SOL    HW113070   3.260   1.435  10.326
 4061SOL    HW213071   3.316   1.329  10.234
 4062SOL     OW13072   3.521   1.738   9.888
 4062SOL    HW113073   3.500   1.709   9.799
 4062SOL    HW213074   3.496   1.664   9.944
 4063SOL     OW13075   2.455   0.723   9.575
 4063SOL    HW113076   2.461   0.805   9.525
 4063SOL    HW213077   2.390   0.741   9.643
 4064SOL     OW13078   3.153   0.362  10.244
 4064SOL    HW113079   3.064   0.332  10.228
 4064SOL    HW213080   3.189   0.299  10.306
 4065SOL     OW13081   3.443   1.670   9.619
 4065SOL    HW113082   3.533   1.702   9.612
 4065SOL    HW213083   3.416   1.653   9.529
 4066SOL     OW13084   2.658   0.618  10.766
 4066SOL    HW113085   2.626   0.593  10.852
 4066SOL    HW213086   2.619   0.553  10.706
 4067SOL     OW13087   2.828   0.899  10.902
 4067SOL    HW113088   2.876   0.826  10.862
 4067SOL    HW213089   2.777   0.936  10.830
 4068SOL     OW13090   2.858   0.418  10.546
 4068SOL    HW113091   2.770   0.428  10.582
 4068SOL    HW213092   2.846   0.365  10.467
 4069SOL     OW13093   2.912   0.697   9.737
 4069SOL    HW113094   2.928   0.690   9.831
 4069SOL    HW213095   2.829   0.651   9.723
 4070SOL     OW13096   1.951   0.821  10.086
 4070SOL    HW113097   2.032   0.814  10.137
 4070SOL    HW213098   1.907   0.898  10.121
 4071SOL     OW13099   1.968   1.792  10.894
 4071SOL    HW113100   1.960   1.790  10.989
 4071SOL    HW213101   1.885   1.830  10.864
 4072SOL     OW13102   2.717   0.369   9.493
 4072SOL    HW113103   2.789   0.403   9.440
 4072SOL    HW213104   2.732   0.274   9.496
 4073SOL     OW13105   3.239   1.143   9.851
 4073SOL    HW113106   3.317   1.129   9.798
 4073SOL    HW213107   3.186   1.204   9.801
 4074SOL     OW13108   2.401   0.204  10.212
 4074SOL    HW113109   2.421   0.222  10.304
 4074SOL    HW213110   2.392   0.290  10.171
 4075SOL     OW13111   2.869   1.445   9.783
 4075SOL    HW113112   2.830   1.517   9.733
 4075SOL    HW213113   2.852   1.467   9.874
 4076SOL     OW13114   2.216   1.785  10.150
 4076SOL    HW113115   2.255   1.699  10.165
 4076SOL    HW213116   2.284   1.847  10.176
 4077SOL     OW13117   3.660   1.060  10.178
 4077SOL    HW113118   3.606   1.039  10.102
 4077SOL    HW213119   3.599   1.064  10.251
 4078SOL     OW13120   3.091   1.538  10.823
 4078SOL    HW113121   3.097   1.451  10.861
 4078SOL    HW213122   3.027   1.529  10.752
 4079SOL     OW13123   2.182   0.956   9.560
 4079SOL    HW113124   2.264   0.975   9.514
 4079SOL    HW213125   2.151   0.875   9.521
 4080SOL     OW13126   3.341   0.742  10.035
 4080SOL    HW113127   3.329   0.697  10.118
 4080SOL    HW213128   3.418   0.797  10.048
 4081SOL     OW13129   2.316   1.265  11.053
 4081SOL    HW113130   2.288   1.278  10.963
 4081SOL    HW213131   2.250   1.208  11.091
 4082SOL     OW13132   2.984   1.776   9.543
 4082SOL    HW113133   2.910   1.735   9.587
 4082SOL    HW213134   3.006   1.717   9.471
 4083SOL     OW13135   2.056   0.266  10.815
 4083SOL    HW113136   1.987   0.332  10.808
 4083SOL    HW213137   2.073   0.260  10.909
 4084SOL     OW13138   3.491   1.380   9.397
 4084SOL    HW113139   3.450   1.465   9.382
 4084SOL    HW213140   3.422   1.316   9.379
 4085SOL     OW13141   2.330   1.720   9.652
 4085SOL    HW113142   2.367   1.794   9.700
 4085SOL    HW213143   2.387   1.709   9.576
 4086SOL     OW13144   3.282   0.137   9.728
 4086SOL    HW113145   3.265   0.086   9.649
 4086SOL    HW213146   3.376   0.131   9.741
 4087SOL     OW13147   2.094   1.760  10.541
 4087SOL    HW113148   2.165   1.712  10.583
 4087SOL    HW213149   2.115   1.758  10.448
 4088SOL     OW13150   2.797   1.697  10.211
 4088SOL    HW113151   2.876   1.647  10.231
 4088SOL    HW213152   2.755   1.648  10.139
 4089SOL     OW13153   2.254   0.694   9.786
 4089SOL    HW113154   2.277   0.602   9.798
 4089SOL    HW213155   2.160   0.699   9.804
 4090SOL     OW13156   2.489   0.122   9.432
 4090SOL    HW113157   2.577   0.085   9.441
 4090SOL    HW213158   2.456   0.086   9.350
 4091SOL     OW13159   2.622   0.266  11.045
 4091SOL    HW113160   2.691   0.207  11.075
 4091SOL    HW213161   2.585   0.302   0.026
 4092SOL     OW13162   2.739   1.522  10.502
 4092SOL    HW113163   2.723   1.485  10.415
 4092SOL    HW213164   2.810   1.470  10.538
 4093SOL     OW13165   3.206   0.590  10.753
 4093SOL    HW113166   3.256   0.573  10.833
 4093SOL    HW213167   3.232   0.678  10.727
 4094SOL     OW13168   2.677   1.397  10.248
 4094SOL    HW113169   2.761   1.384  10.204
 4094SOL    HW213170   2.612   1.395  10.177
 4095SOL     OW13171   2.785   0.518  10.210
 4095SOL    HW113172   2.769   0.516  10.115
 4095SOL    HW213173   2.822   0.432  10.230
 4096SOL     OW13174   2.416   0.076   9.831
 4096SOL    HW113175   2.328   0.048   9.855
 4096SOL    HW213176   2.403   0.141   9.762
 4097SOL     OW13177   3.290   1.198   9.351
 4097SOL    HW113178   3.320   1.122   9.401
 4097SOL    HW213179   3.204   1.219   9.388
 4098SOL     OW13180   2.158   0.069   9.507
 4098SOL    HW113181   2.236   0.121   9.489
 4098SOL    HW213182   2.188   4.500   9.566
 4099SOL     OW13183   2.814   0.240   9.779
 4099SOL    HW113184   2.762   0.295   9.720
 4099SOL    HW213185   2.903   0.276   9.773
 4100SOL     OW13186   2.940   0.684  10.773
 4100SOL    HW113187   2.867   0.622  10.772
 4100SOL    HW213188   3.018   0.630  10.766
 4101SOL     OW13189   3.085   1.571  10.104
 4101SOL    HW113190   3.103   1.637  10.037
 4101SOL    HW213191   3.154   1.583  10.169
 4102SOL     OW13192   2.331   1.149  10.045
 4102SOL    HW113193   2.261   1.130  10.107
 4102SOL    HW213194   2.291   1.133   9.959
 4103SOL     OW13195   3.132   1.794   9.917
 4103SOL    HW113196   3.178   1.855   9.859
 4103SOL    HW213197   3.067   1.848   9.962
 4104SOL     OW13198   2.892   0.548   9.326
 4104SOL    HW113199   2.843   0.629   9.311
 4104SOL    HW213200   2.950   0.568   9.400
 4105SOL     OW13201   1.942   0.549  10.708
 4105SOL    HW113202   2.033   0.554  10.677
 4105SOL    HW213203   1.937   0.614  10.778
 4106SOL     OW13204   2.424   0.244  10.477
 4106SOL    HW113205   2.447   0.157  10.511
 4106SOL    HW213206   2.333   0.256  10.502
 4107SOL     OW13207   2.728   0.504   9.936
 4107SOL    HW113208   2.682   0.544   9.863
 4107SOL    HW213209   2.696   0.413   9.937
 4108SOL     OW13210   2.826   0.026  10.091
 4108SOL    HW113211   2.777   0.024  10.009
 4108SOL    HW213212   2.839   4.434  10.114
 4109SOL     OW13213   3.298   1.163  10.167
 4109SOL    HW113214   3.230   1.095  10.166
 4109SOL    HW213215   3.322   1.174  10.075
 4110SOL     OW13216   3.327   0.605  10.286
 4110SOL    HW113217   3.275   0.525  10.287
 4110SOL    HW213218   3.386   0.597  10.361
 4111SOL     OW13219   3.708   0.817   9.692
 4111SOL    HW113220   3.764   0.765   9.751
 4111SOL    HW213221   3.679   0.755   9.625
 4112SOL     OW13222   2.353   1.418   9.467
 4112SOL    HW113223   2.279   1.389   9.520
 4112SOL    HW213224   2.336   1.381   9.380
 4113SOL     OW13225   3.532   1.265   9.956
 4113SOL    HW113226   3.626   1.268   9.970
 4113SOL    HW213227   3.501   1.353   9.977
 4114SOL     OW13228   3.256   0.570   9.380
 4114SOL    HW113229   3.195   0.555   9.451
 4114SOL    HW213230   3.342   0.551   9.417
 4115SOL     OW13231   2.384   0.266   9.634
 4115SOL    HW113232   2.431   0.214   9.567
 4115SOL    HW213233   2.367   0.349   9.591
 4116SOL     OW13234   3.621   1.229  10.869
 4116SOL    HW113235   3.713   1.201  10.871
 4116SOL    HW213236   3.622   1.316  10.910
 4117SOL     OW13237   2.925   1.354  10.650
 4117SOL    HW113238   2.847   1.321  10.695
 4117SOL    HW213239   2.998   1.306  10.689
 4118SOL     OW13240   2.991   1.207  10.416
 4118SOL    HW113241   2.925   1.239  10.477
 4118SOL    HW213242   2.959   1.233  10.330
 4119SOL     OW13243   3.491   1.099  10.388
 4119SOL    HW113244   3.487   1.161  10.461
 4119SOL    HW213245   3.411   1.116  10.338
 4120SOL     OW13246   2.761   0.126  10.699
 4120SOL    HW113247   2.787   0.089  10.614
 4120SOL    HW213248   2.843   0.144  10.744
 4121SOL     OW13249   2.571   1.061   9.681
 4121SOL    HW113250   2.557   1.045   9.775
 4121SOL    HW213251   2.646   1.007   9.659
 4122SOL     OW13252   2.281   0.815  10.561
 4122SOL    HW113253   2.350   0.824  10.627
 4122SOL    HW213254   2.246   0.727  10.575
 4123SOL     OW13255   3.132   0.382  10.581
 4123SOL    HW113256   3.162   0.459  10.629
 4123SOL    HW213257   3.043   0.404  10.554
 4124SOL     OW13258   1.925   1.568  10.657
 4124SOL    HW113259   1.895   1.645  10.609
 4124SOL    HW213260   2.020   1.577  10.661
 4125SOL     OW13261   2.212   1.109   9.801
 4125SOL    HW113262   2.217   1.182   9.739
 4125SOL    HW213263   2.210   1.030   9.746
 4126SOL     OW13264   2.418   0.530  10.169
 4126SOL    HW113265   2.432   0.589  10.094
 4126SOL    HW213266   2.482   0.559  10.234
 4127SOL     OW13267   3.110   1.348   9.699
 4127SOL    HW113268   3.166   1.420   9.730
 4127SOL    HW213269   3.023   1.369   9.733
 4128SOL     OW13270   3.141   1.459  10.455
 4128SOL    HW113271   3.197   1.461  10.532
 4128SOL    HW213272   3.088   1.380  10.466
 4129SOL     OW13273   3.444   0.624   9.787
 4129SOL    HW113274   3.397   0.675   9.853
 4129SOL    HW213275   3.488   0.689   9.733
 4130SOL     OW13276   2.214   1.514  10.629
 4130SOL    HW113277   2.197   1.477  10.543
 4130SOL    HW213278   2.308   1.531  10.630
 4131SOL     OW13279   2.276   0.735  10.905
 4131SOL    HW113280   2.338   0.780  10.848
 4131SOL    HW213281   2.313   0.648  10.918
 4132SOL     OW13282   3.456   0.760  10.969
 4132SOL    HW113283   3.379   0.816  10.963
 4132SOL    HW213284   3.525   0.810  10.926
 4133SOL     OW13285   2.445   0.873  10.341
 4133SOL    HW113286   2.473   0.964  10.340
 4133SOL    HW213287   2.388   0.866  10.418
 4134SOL     OW13288   3.220   0.860  10.344
 4134SOL    HW113289   3.138   0.852  10.295
 4134SOL    HW213290   3.261   0.774  10.337
 4135SOL     OW13291   3.066   0.535   9.574
 4135SOL    HW113292   3.072   0.455   9.625
 4135SOL    HW213293   3.023   0.598   9.632
 4136SOL     OW13294   2.152   0.233  10.549
 4136SOL    HW113295   2.114   0.250  10.635
 4136SOL    HW213296   2.185   0.143  10.556
 4137SOL     OW13297   1.910   1.309  10.585
 4137SOL    HW113298   1.940   1.256  10.659
 4137SOL    HW213299   1.913   1.399  10.616
 4138SOL     OW13300   2.586   0.632  10.369
 4138SOL    HW113301   2.659   0.613  10.310
 4138SOL    HW213302   2.558   0.720  10.344
 4139SOL     OW13303   2.159   0.056   9.964
 4139SOL    HW113304   2.149   0.151   9.966
 4139SOL    HW213305   2.171   0.031  10.055
 4140SOL     OW13306   3.476   0.377   9.673
 4140SOL    HW113307   3.505   0.314   9.738
 4140SOL    HW213308   3.453   0.455   9.724
 4141SOL     OW13309   2.890   0.762  10.271
 4141SOL    HW113310   2.888   0.777  10.366
 4141SOL    HW213311   2.861   0.671  10.261
 4142SOL     OW13312   2.838   1.572  11.004
 4142SOL    HW113313   2.822   1.622  10.923
 4142SOL    HW213314   2.865   1.486  10.974
 4143SOL     OW13315   3.719   1.494  10.912
 4143SOL    HW113316   3.734   1.529  10.824
 4143SOL    HW213317   3.786   1.536  10.966
 4144SOL     OW13318   2.222   0.918  11.095
 4144SOL    HW113319   2.307   0.934   0.037
 4144SOL    HW213320   2.240   0.852  11.028
 4145SOL     OW13321   3.393   0.265   9.438
 4145SOL    HW113322   3.321   0.209   9.467
 4145SOL    HW213323   3.422   0.310   9.517
 4146SOL     OW13324   3.155   0.826   9.341
 4146SOL    HW113325   3.196   0.740   9.344
 4146SOL    HW213326   3.185   0.866   9.260
 4147SOL     OW13327   2.927   1.335  10.163
 4147SOL    HW113328   2.930   1.262  10.101
 4147SOL    HW213329   2.989   1.399  10.128
 4148SOL     OW13330   2.171   0.809  10.257
 4148SOL    HW113331   2.264   0.831  10.250
 4148SOL    HW213332   2.170   0.720  10.291
 4149SOL     OW13333   2.198   0.531  10.323
 4149SOL    HW113334   2.156   0.447  10.304
 4149SOL    HW213335   2.274   0.533  10.265
 4150SOL     OW13336   3.015   0.216  10.769
 4150SOL    HW113337   3.029   0.267  10.849
 4150SOL    HW213338   3.055   0.269  10.700
 4151SOL     OW13339   1.867   1.320   9.505
 4151SOL    HW113340   1.779   1.334   9.468
 4151SOL    HW213341   1.864   1.230   9.538
 4152SOL     OW13342   1.947   1.790  10.241
 4152SOL    HW113343   1.917   1.708  10.202
 4152SOL    HW213344   2.037   1.799  10.210
 4153SOL     OW13345   2.363   1.568  10.215
 4153SOL    HW113346   2.431   1.632  10.234
 4153SOL    HW213347   2.406   1.503  10.159
 4154SOL     OW13348   2.846   0.795  10.538
 4154SOL    HW113349   2.900   0.772  10.614
 4154SOL    HW213350   2.762   0.754  10.555
 4155SOL     OW13351   1.896   0.543  10.429
 4155SOL    HW113352   1.974   0.525  10.377
 4155SOL    HW213353   1.927   0.548  10.519
 4156SOL     OW13354   2.673   0.575   9.665
 4156SOL    HW113355   2.677   0.503   9.602
 4156SOL    HW213356   2.599   0.629   9.636
 4157SOL     OW13357   3.502   0.601  10.496
 4157SOL    HW113358   3.493   0.542  10.571
 4157SOL    HW213359   3.590   0.583  10.462
 4158SOL     OW13360   2.127   1.559  11.054
 4158SOL    HW113361   2.094   1.617   0.022
 4158SOL    HW213362   2.102   1.471  11.083
 4159SOL     OW13363   2.564   0.457  10.574
 4159SOL    HW113364   2.514   0.382  10.543
 4159SOL    HW213365   2.562   0.519  10.500
 4160SOL     OW13366   2.804   1.680  10.758
 4160SOL    HW113367   2.763   1.648  10.678
 4160SOL    HW213368   2.791   1.775  10.755
 4161SOL     OW13369   2.327   0.493   9.495
 4161SOL    HW113370   2.386   0.565   9.516
 4161SOL    HW213371   2.241   0.534   9.483
 4162SOL     OW13372   2.015   1.138  10.780
 4162SOL    HW113373   2.008   1.083  10.858
 4162SOL    HW213374   2.028   1.076  10.709
 4163SOL     OW13375   3.187   1.053  10.538
 4163SOL    HW113376   3.213   0.987  10.473
 4163SOL    HW213377   3.117   1.102  10.495
 4164SOL     OW13378   3.173   0.857   9.616
 4164SOL    HW113379   3.098   0.827   9.667
 4164SOL    HW213380   3.147   0.843   9.525
 4165SOL     OW13381   3.636   1.745  10.461
 4165SOL    HW113382   3.694   1.771  10.390
 4165SOL    HW213383   3.610   1.656  10.441
 4166SOL     OW13384   3.103   1.734  10.424
 4166SOL    HW113385   3.185   1.754  10.379
 4166SOL    HW213386   3.108   1.640  10.441
 4167SOL     OW13387   1.947   1.266  10.322
 4167SOL    HW113388   1.934   1.279  10.416
 4167SOL    HW213389   1.872   1.213  10.295
 4168SOL     OW13390   3.580   0.129   9.803
 4168SOL    HW113391   3.652   0.137   9.741
 4168SOL    HW213392   3.607   0.058   9.861
 4169SOL     OW13393   3.253   1.568   9.795
 4169SOL    HW113394   3.313   1.599   9.727
 4169SOL    HW213395   3.204   1.645   9.822
 4170SOL     OW13396   3.141   0.927   9.983
 4170SOL    HW113397   3.213   0.865   9.987
 4170SOL    HW213398   3.174   1.000   9.930
 4171SOL     OW13399   2.680   1.274  10.738
 4171SOL    HW113400   2.649   1.308  10.822
 4171SOL    HW213401   2.609   1.294  10.677
 4172SOL     OW13402   2.536   1.619   9.463
 4172SOL    HW113403   2.544   1.629   9.368
 4172SOL    HW213404   2.480   1.542   9.473
 4173SOL     OW13405   3.486   1.720  10.697
 4173SOL    HW113406   3.540   1.734  10.620
 4173SOL    HW213407   3.470   1.808  10.732
 4174SOL     OW13408   3.701   0.155  10.277
 4174SOL    HW113409   3.732   0.078  10.229
 4174SOL    HW213410   3.614   0.172  10.240
 4175SOL     OW13411   2.127   0.323  10.028
 4175SOL    HW113412   2.041   0.357  10.001
 4175SOL    HW213413   2.120   0.314  10.123
 4176SOL     OW13414   3.069   1.607   9.341
 4176SOL    HW113415   3.060   1.515   9.368
 4176SOL    HW213416   3.004   1.618   9.272
 4177SOL     OW13417   2.687   1.005  10.686
 4177SOL    HW113418   2.728   0.998  10.601
 4177SOL    HW213419   2.688   1.099  10.705
 4178SOL     OW13420   2.778   0.911   9.600
 4178SOL    HW113421   2.840   0.942   9.534
 4178SOL    HW213422   2.824   0.840   9.645
 4179SOL     OW13423   3.354   1.625   9.353
 4179SOL    HW113424   3.260   1.619   9.339
 4179SOL    HW213425   3.391   1.631   9.264
 4180SOL     OW13426   2.231   1.302  10.806
 4180SOL    HW113427   2.219   1.379  10.750
 4180SOL    HW213428   2.155   1.246  10.787
 4181SOL     OW13429   3.475   1.282  10.593
 4181SOL    HW113430   3.530   1.268  10.670
 4181SOL    HW213431   3.418   1.355  10.617
 4182SOL     OW13432   2.913   1.107  10.017
 4182SOL    HW113433   2.842   1.055  10.055
 4182SOL    HW213434   2.975   1.041   9.984
 4183SOL     OW13435   2.869   0.244  10.314
 4183SOL    HW113436   2.874   0.220  10.221
 4183SOL    HW213437   2.860   0.160  10.359
 4184SOL     OW13438   2.464   1.490   9.791
 4184SOL    HW113439   2.506   1.439   9.722
 4184SOL    HW213440   2.401   1.545   9.744
 4185SOL     OW13441   3.581   0.394  10.689
 4185SOL    HW113442   3.653   0.457  10.690
 4185SOL    HW213443   3.610   0.324  10.631
 4186SOL     OW13444   2.121   1.346   9.598
 4186SOL    HW113445   2.028   1.343   9.576
 4186SOL    HW213446   2.124   1.384   9.686
 4187SOL     OW13447   1.977   1.009  11.018
 4187SOL    HW113448   1.908   0.999  11.083
 4187SOL    HW213449   2.057   0.981  11.063
 4188SOL     OW13450   2.514   0.186  10.809
 4188SOL    HW113451   2.593   0.165  10.757
 4188SOL    HW213452   2.548   0.222  10.891
 4189SOL     OW13453   1.943   0.339   9.357
 4189SOL    HW113454   1.872   0.286   9.321
 4189SOL    HW213455   1.957   0.409   9.292
 4190SOL     OW13456   3.291   0.849  10.710
 4190SOL    HW113457   3.243   0.917  10.662
 4190SOL    HW213458   3.381   0.858  10.678
 4191SOL     OW13459   1.927   0.182   9.630
 4191SOL    HW113460   1.925   0.249   9.562
 4191SOL    HW213461   2.001   0.127   9.608
 4192SOL     OW13462   3.041   1.340   9.427
 4192SOL    HW113463   2.950   1.310   9.429
 4192SOL    HW213464   3.069   1.340   9.518
 4193SOL     OW13465   2.482   0.830  10.744
 4193SOL    HW113466   2.537   0.906  10.729
 4193SOL    HW213467   2.543   0.757  10.752
 4194SOL     OW13468   3.345   1.777  10.288
 4194SOL    HW113469   3.371   1.835  10.216
 4194SOL    HW213470   3.427   1.757  10.333
 4195SOL     OW13471   2.576   0.565  11.017
 4195SOL    HW113472   2.611   0.638  11.068
 4195SOL    HW213473   2.627   0.489  11.044
 4196SOL     OW13474   2.243   1.731  10.873
 4196SOL    HW113475   2.158   1.771  10.855
 4196SOL    HW213476   2.223   1.658  10.932
 4197SOL     OW13477   3.533   0.882  10.567
 4197SOL    HW113478   3.524   0.797  10.524
 4197SOL    HW213479   3.524   0.946  10.496
 4198SOL     OW13480   3.080   0.329   9.758
 4198SOL    HW113481   3.146   0.260   9.747
 4198SOL    HW213482   3.108   0.377   9.836
 4199SOL     OW13483   2.449   0.739   9.981
 4199SOL    HW113484   2.491   0.823   9.964
 4199SOL    HW213485   2.382   0.731   9.913
 4200SOL     OW13486   3.613   0.313  10.951
 4200SOL    HW113487   3.595   0.353  10.866
 4200SOL    HW213488   3.536   0.332  11.004
 4201SOL     OW13489   3.612   0.935  10.825
 4201SOL    HW113490   3.604   1.029  10.839
 4201SOL    HW213491   3.594   0.923  10.732
 4202SOL     OW13492   2.725   1.368   9.343
 4202SOL    HW113493   2.685   1.395   9.426
 4202SOL    HW213494   2.743   1.450   9.297
 4203SOL     OW13495   2.522   1.798  10.244
 4203SOL    HW113496   2.520   1.886  10.281
 4203SOL    HW213497   2.614   1.774  10.244
 4204SOL     OW13498   2.729   0.967  10.166
 4204SOL    HW113499   2.779   0.895  10.204
 4204SOL    HW213500   2.695   1.015  10.241
 4205SOL     OW13501   2.942   0.989   9.399
 4205SOL    HW113502   2.919   1.039   9.321
 4205SOL    HW213503   3.016   0.935   9.372
 4206SOL     OW13504   3.717   1.556  10.155
 4206SOL    HW113505   3.639   1.543  10.100
 4206SOL    HW213506   3.710   1.487  10.222
 4207SOL     OW13507   1.948   1.234   9.973
 4207SOL    HW113508   1.949   1.187  10.057
 4207SOL    HW213509   2.015   1.191   9.921
 4208SOL     OW13510   2.542   1.396  10.940
 4208SOL    HW113511   2.469   1.345  10.975
 4208SOL    HW213512   2.506   1.484  10.930
 4209SOL     OW13513   3.665   0.180  10.550
 4209SOL    HW113514   3.676   0.087  10.569
 4209SOL    HW213515   3.683   0.187  10.456
 4210SOL     OW13516   2.298   0.433   9.840
 4210SOL    HW113517   2.320   0.364   9.777
 4210SOL    HW213518   2.242   0.390   9.905
 4211SOL     OW13519   3.562   1.491  10.408
 4211SOL    HW113520   3.482   1.466  10.363
 4211SOL    HW213521   3.576   1.421  10.473
 4212SOL     OW13522   2.190   0.557  10.601
 4212SOL    HW113523   2.244   0.500  10.656
 4212SOL    HW213524   2.209   0.530  10.512
 4213SOL     OW13525   2.688   1.578   9.988
 4213SOL    HW113526   2.677   1.626   9.906
 4213SOL    HW213527   2.612   1.520   9.992
 4214SOL     OW13528   3.293   0.215  10.429
 4214SOL    HW113529   3.333   0.147  10.483
 4214SOL    HW213530   3.244   0.269  10.490
 4215SOL     OW13531   2.858   0.009  10.460
 4215SOL    HW113532   2.815   4.424  10.450
 4215SOL    HW213533   2.950   4.488  10.472
 4216SOL     OW13534   2.634   1.332   9.624
 4216SOL    HW113535   2.601   1.242   9.630
 4216SOL    HW213536   2.716   1.331   9.672
 4217SOL     OW13537   2.483   1.554  10.593
 4217SOL    HW113538   2.483   1.635  10.644
 4217SOL    HW213539   2.571   1.549  10.556
 4218SOL     OW13540   3.203   0.053   9.463
 4218SOL    HW113541   3.242   4.477   9.419
 4218SOL    HW213542   3.127   0.017   9.510
 4219SOL     OW13543   3.177   0.463   9.987
 4219SOL    HW113544   3.116   0.537   9.988
 4219SOL    HW213545   3.164   0.421  10.073
 4220SOL     OW13546   3.447   0.200  10.177
 4220SOL    HW113547   3.388   0.215  10.251
 4220SOL    HW213548   3.450   0.284  10.131
 4221SOL     OW13549   1.906   1.071   9.616
 4221SOL    HW113550   2.000   1.062   9.598
 4221SOL    HW213551   1.877   0.983   9.639
 4222SOL     OW13552   2.745   1.652   9.654
 4222SOL    HW113553   2.673   1.634   9.592
 4222SOL    HW213554   2.714   1.727   9.704
 4223SOL     OW13555   2.044   2.527   0.078
 4223SOL    HW113556   1.982   2.505   0.147
 4223SOL    HW213557   2.088   2.444   0.058
 4224SOL     OW13558   1.844   2.263   0.638
 4224SOL    HW113559   1.761   2.283   0.682
 4224SOL    HW213560   1.834   2.172   0.608
 4225SOL     OW13561   2.429   3.148   1.175
 4225SOL    HW113562   2.342   3.151   1.135
 4225SOL    HW213563   2.443   3.237   1.207
 4226SOL     OW13564   3.422   3.373   0.706
 4226SOL    HW113565   3.379   3.354   0.789
 4226SOL    HW213566   3.351   3.377   0.642
 4227SOL     OW13567   2.991   2.562   0.700
 4227SOL    HW113568   3.041   2.643   0.690
 4227SOL    HW213569   2.945   2.572   0.783
 4228SOL     OW13570   3.636   2.464   0.218
 4228SOL    HW113571   3.583   2.468   0.139
 4228SOL    HW213572   3.598   2.393   0.270
 4229SOL     OW13573   2.619   3.004   1.043
 4229SOL    HW113574   2.548   3.039   1.097
 4229SOL    HW213575   2.654   3.080   0.997
 4230SOL     OW13576   2.728   2.641   1.819
 4230SOL    HW113577   2.721   2.712   1.883
 4230SOL    HW213578   2.754   2.685   1.737
 4231SOL     OW13579   2.560   2.903   0.650
 4231SOL    HW113580   2.619   2.880   0.722
 4231SOL    HW213581   2.484   2.941   0.693
 4232SOL     OW13582   2.573   3.015   1.807
 4232SOL    HW113583   2.621   3.093   1.835
 4232SOL    HW213584   2.490   3.049   1.773
 4233SOL     OW13585   2.193   3.288   1.068
 4233SOL    HW113586   2.120   3.251   1.018
 4233SOL    HW213587   2.243   3.339   1.004
 4234SOL     OW13588   3.323   3.361   1.353
 4234SOL    HW113589   3.372   3.442   1.363
 4234SOL    HW213590   3.263   3.360   1.428
 4235SOL     OW13591   3.474   2.310   0.740
 4235SOL    HW113592   3.397   2.333   0.688
 4235SOL    HW213593   3.491   2.388   0.793
 4236SOL     OW13594   2.081   3.575   0.474
 4236SOL    HW113595   2.103   3.653   0.525
 4236SOL    HW213596   2.150   3.569   0.408
 4237SOL     OW13597   2.998   3.204   1.692
 4237SOL    HW113598   3.039   3.199   1.779
 4237SOL    HW213599   2.946   3.124   1.686
 4238SOL     OW13600   2.090   3.302   0.534
 4238SOL    HW113601   2.076   3.397   0.536
 4238SOL    HW213602   2.029   3.267   0.597
 4239SOL     OW13603   2.117   2.955   0.890
 4239SOL    HW113604   2.112   2.868   0.929
 4239SOL    HW213605   2.058   3.009   0.943
 4240SOL     OW13606   2.475   3.653   1.431
 4240SOL    HW113607   2.392   3.635   1.476
 4240SOL    HW213608   2.497   3.742   1.455
 4241SOL     OW13609   2.438   2.862   0.134
 4241SOL    HW113610   2.486   2.914   0.070
 4241SOL    HW213611   2.482   2.879   0.217
 4242SOL     OW13612   3.458   1.985   1.468
 4242SOL    HW113613   3.463   2.065   1.417
 4242SOL    HW213614   3.444   2.015   1.558
 4243SOL     OW13615   1.967   2.507   0.561
 4243SOL    HW113616   1.932   2.421   0.586
 4243SOL    HW213617   1.964   2.559   0.642
 4244SOL     OW13618   3.704   3.622   0.334
 4244SOL    HW113619   3.767   3.592   0.400
 4244SOL    HW213620   3.730   3.712   0.315
 4245SOL     OW13621   1.907   3.464   0.119
 4245SOL    HW113622   1.879   3.375   0.143
 4245SOL    HW213623   1.880   3.518   0.193
 4246SOL     OW13624   3.550   2.779   0.641
 4246SOL    HW113625   3.635   2.740   0.622
 4246SOL    HW213626   3.530   2.831   0.563
 4247SOL     OW13627   3.508   2.967   0.432
 4247SOL    HW113628   3.591   2.979   0.385
 4247SOL    HW213629   3.513   3.029   0.504
 4248SOL     OW13630   1.997   2.606   1.580
 4248SOL    HW113631   2.035   2.610   1.667
 4248SOL    HW213632   1.939   2.682   1.576
 4249SOL     OW13633   2.475   3.248   0.735
 4249SOL    HW113634   2.428   3.165   0.745
 4249SOL    HW213635   2.459   3.275   0.645
 4250SOL     OW13636   3.151   3.100   1.424
 4250SOL    HW113637   3.183   3.033   1.364
 4250SOL    HW213638   3.208   3.093   1.500
 4251SOL     OW13639   2.671   1.866   0.504
 4251SOL    HW113640   2.713   1.950   0.489
 4251SOL    HW213641   2.578   1.886   0.513
 4252SOL     OW13642   2.047   2.834   1.270
 4252SOL    HW113643   2.132   2.792   1.255
 4252SOL    HW213644   1.984   2.777   1.226
 4253SOL     OW13645   3.380   2.863   0.202
 4253SOL    HW113646   3.316   2.802   0.238
 4253SOL    HW213647   3.430   2.893   0.278
 4254SOL     OW13648   3.047   3.667   1.622
 4254SOL    HW113649   3.059   3.726   1.547
 4254SOL    HW213650   3.063   3.580   1.586
 4255SOL     OW13651   3.328   3.282   0.952
 4255SOL    HW113652   3.260   3.296   1.017
 4255SOL    HW213653   3.316   3.191   0.925
 4256SOL     OW13654   3.521   3.600   0.579
 4256SOL    HW113655   3.501   3.572   0.490
 4256SOL    HW213656   3.496   3.526   0.634
 4257SOL     OW13657   2.498   2.639   0.305
 4257SOL    HW113658   2.488   2.683   0.220
 4257SOL    HW213659   2.409   2.626   0.336
 4258SOL     OW13660   3.142   2.213   0.932
 4258SOL    HW113661   3.052   2.180   0.940
 4258SOL    HW213662   3.193   2.160   0.994
 4259SOL     OW13663   3.444   3.532   0.312
 4259SOL    HW113664   3.534   3.563   0.305
 4259SOL    HW213665   3.418   3.513   0.222
 4260SOL     OW13666   2.669   2.472   1.469
 4260SOL    HW113667   2.666   2.476   1.564
 4260SOL    HW213668   2.611   2.398   1.447
 4261SOL     OW13669   3.256   2.336   1.678
 4261SOL    HW113670   3.258   2.380   1.763
 4261SOL    HW213671   3.317   2.263   1.688
 4262SOL     OW13672   2.817   2.749   1.580
 4262SOL    HW113673   2.875   2.682   1.545
 4262SOL    HW213674   2.776   2.788   1.503
 4263SOL     OW13675   2.864   2.273   1.235
 4263SOL    HW113676   2.782   2.288   1.282
 4263SOL    HW213677   2.837   2.233   1.153
 4264SOL     OW13678   2.912   2.563   0.431
 4264SOL    HW113679   2.936   2.560   0.523
 4264SOL    HW213680   2.824   2.524   0.427
 4265SOL     OW13681   1.950   2.683   0.774
 4265SOL    HW113682   2.032   2.680   0.825
 4265SOL    HW213683   1.904   2.760   0.808
 4266SOL     OW13684   1.989   3.708   1.577
 4266SOL    HW113685   1.989   3.687   1.671
 4266SOL    HW213686   1.898   3.702   1.551
 4267SOL     OW13687   2.752   2.214   0.217
 4267SOL    HW113688   2.802   2.274   0.162
 4267SOL    HW213689   2.763   2.129   0.175
 4268SOL     OW13690   3.571   2.437   1.828
 4268SOL    HW113691   3.534   2.511   1.781
 4268SOL    HW213692   3.598   2.376   1.759
 4269SOL     OW13693   3.239   3.003   0.541
 4269SOL    HW113694   3.317   2.990   0.488
 4269SOL    HW213695   3.186   3.066   0.492
 4270SOL     OW13696   2.451   2.030   0.871
 4270SOL    HW113697   2.442   2.039   0.966
 4270SOL    HW213698   2.454   2.120   0.838
 4271SOL     OW13699   2.869   3.307   0.474
 4271SOL    HW113700   2.830   3.379   0.425
 4271SOL    HW213701   2.850   3.328   0.565
 4272SOL     OW13702   2.216   3.670   0.862
 4272SOL    HW113703   2.260   3.585   0.869
 4272SOL    HW213704   2.286   3.734   0.878
 4273SOL     OW13705   3.660   2.921   0.869
 4273SOL    HW113706   3.605   2.904   0.792
 4273SOL    HW213707   3.598   2.925   0.942
 4274SOL     OW13708   3.090   3.401   1.513
 4274SOL    HW113709   3.076   3.328   1.573
 4274SOL    HW213710   3.028   3.386   1.442
 4275SOL     OW13711   2.186   2.810   0.270
 4275SOL    HW113712   2.264   2.838   0.222
 4275SOL    HW213713   2.147   2.742   0.216
 4276SOL     OW13714   3.340   2.601   0.726
 4276SOL    HW113715   3.331   2.560   0.812
 4276SOL    HW213716   3.417   2.658   0.735
 4277SOL     OW13717   2.327   3.125   1.737
 4277SOL    HW113718   2.300   3.130   1.645
 4277SOL    HW213719   2.245   3.125   1.787
 4278SOL     OW13720   2.969   3.641   0.227
 4278SOL    HW113721   2.910   3.589   0.281
 4278SOL    HW213722   3.011   3.577   0.169
 4279SOL     OW13723   3.490   3.236   0.089
 4279SOL    HW113724   3.447   3.321   0.077
 4279SOL    HW213725   3.424   3.173   0.060
 4280SOL     OW13726   2.331   3.595   0.327
 4280SOL    HW113727   2.369   3.657   0.389
 4280SOL    HW213728   2.403   3.572   0.269
 4281SOL     OW13729   3.264   1.970   0.431
 4281SOL    HW113730   3.255   1.947   0.338
 4281SOL    HW213731   3.358   1.976   0.445
 4282SOL     OW13732   2.118   3.654   1.232
 4282SOL    HW113733   2.169   3.587   1.278
 4282SOL    HW213734   2.106   3.619   1.144
 4283SOL     OW13735   2.800   3.560   0.900
 4283SOL    HW113736   2.878   3.508   0.919
 4283SOL    HW213737   2.755   3.511   0.830
 4284SOL     OW13738   3.398   2.087   1.725
 4284SOL    HW113739   3.407   2.108   1.818
 4284SOL    HW213740   3.330   2.020   1.722
 4285SOL     OW13741   2.476   1.968   0.132
 4285SOL    HW113742   2.568   1.942   0.129
 4285SOL    HW213743   2.443   1.950   0.044
 4286SOL     OW13744   2.634   2.115   1.744
 4286SOL    HW113745   2.713   2.061   1.751
 4286SOL    HW213746   2.590   2.103   1.828
 4287SOL     OW13747   2.738   3.383   1.194
 4287SOL    HW113748   2.723   3.348   1.106
 4287SOL    HW213749   2.808   3.329   1.230
 4288SOL     OW13750   3.203   2.452   1.433
 4288SOL    HW113751   3.235   2.419   1.518
 4288SOL    HW213752   3.241   2.539   1.425
 4289SOL     OW13753   2.676   3.257   0.939
 4289SOL    HW113754   2.760   3.246   0.894
 4289SOL    HW213755   2.612   3.258   0.868
 4290SOL     OW13756   2.795   2.363   0.914
 4290SOL    HW113757   2.770   2.360   0.821
 4290SOL    HW213758   2.828   2.275   0.932
 4291SOL     OW13759   2.405   1.939   0.506
 4291SOL    HW113760   2.357   1.942   0.589
 4291SOL    HW213761   2.374   2.015   0.457
 4292SOL     OW13762   3.287   3.058   0.030
 4292SOL    HW113763   3.320   2.986   0.084
 4292SOL    HW213764   3.204   3.083   0.071
 4293SOL     OW13765   2.158   1.803   0.131
 4293SOL    HW113766   2.167   1.891   0.094
 4293SOL    HW213767   2.228   1.796   0.196
 4294SOL     OW13768   2.798   2.111   0.463
 4294SOL    HW113769   2.773   2.152   0.380
 4294SOL    HW213770   2.893   2.121   0.468
 4295SOL     OW13771   2.947   2.544   1.459
 4295SOL    HW113772   2.881   2.475   1.467
 4295SOL    HW213773   3.030   2.498   1.452
 4296SOL     OW13774   3.085   3.432   0.795
 4296SOL    HW113775   3.102   3.498   0.727
 4296SOL    HW213776   3.154   3.445   0.859
 4297SOL     OW13777   2.329   3.014   0.737
 4297SOL    HW113778   2.259   2.994   0.799
 4297SOL    HW213779   2.290   2.997   0.651
 4298SOL     OW13780   3.131   3.656   0.606
 4298SOL    HW113781   3.178   3.718   0.549
 4298SOL    HW213782   3.067   3.711   0.651
 4299SOL     OW13783   2.902   2.379   0.056
 4299SOL    HW113784   2.868   2.447  11.097
 4299SOL    HW213785   2.974   2.421   0.103
 4300SOL     OW13786   1.944   2.424   1.379
 4300SOL    HW113787   2.037   2.404   1.387
 4300SOL    HW213788   1.928   2.489   1.448
 4301SOL     OW13789   2.419   2.026   1.142
 4301SOL    HW113790   2.445   1.972   1.216
 4301SOL    HW213791   2.333   2.060   1.166
 4302SOL     OW13792   2.744   2.315   0.650
 4302SOL    HW113793   2.689   2.375   0.600
 4302SOL    HW213794   2.758   2.241   0.591
 4303SOL     OW13795   2.877   1.914   0.751
 4303SOL    HW113796   2.817   1.907   0.678
 4303SOL    HW213797   2.857   1.839   0.807
 4304SOL     OW13798   3.299   3.025   0.857
 4304SOL    HW113799   3.230   2.959   0.855
 4304SOL    HW213800   3.323   3.037   0.766
 4305SOL     OW13801   3.329   2.467   0.978
 4305SOL    HW113802   3.279   2.385   0.981
 4305SOL    HW213803   3.389   2.461   1.052
 4306SOL     OW13804   3.711   2.676   0.378
 4306SOL    HW113805   3.764   2.626   0.440
 4306SOL    HW213806   3.683   2.612   0.313
 4307SOL     OW13807   2.356   3.286   0.172
 4307SOL    HW113808   2.279   3.260   0.223
 4307SOL    HW213809   2.351   3.233   0.093
 4308SOL     OW13810   3.532   3.126   0.648
 4308SOL    HW113811   3.627   3.130   0.660
 4308SOL    HW213812   3.501   3.215   0.668
 4309SOL     OW13813   3.254   2.439   0.081
 4309SOL    HW113814   3.196   2.419   0.154
 4309SOL    HW213815   3.321   2.370   0.083
 4310SOL     OW13816   3.615   3.100   1.574
 4310SOL    HW113817   3.702   3.061   1.571
 4310SOL    HW213818   3.630   3.190   1.603
 4311SOL     OW13819   2.921   3.216   1.334
 4311SOL    HW113820   2.846   3.185   1.386
 4311SOL    HW213821   2.997   3.174   1.375
 4312SOL     OW13822   3.469   3.487   1.653
 4312SOL    HW113823   3.464   3.522   1.564
 4312SOL    HW213824   3.552   3.440   1.656
 4313SOL     OW13825   2.990   3.065   1.106
 4313SOL    HW113826   2.931   3.104   1.171
 4313SOL    HW213827   2.957   3.096   1.022
 4314SOL     OW13828   3.490   2.960   1.078
 4314SOL    HW113829   3.486   3.022   1.151
 4314SOL    HW213830   3.411   2.977   1.027
 4315SOL     OW13831   2.785   1.958   1.397
 4315SOL    HW113832   2.806   1.938   1.305
 4315SOL    HW213833   2.865   1.997   1.432
 4316SOL     OW13834   2.846   2.976   1.721
 4316SOL    HW113835   2.754   2.993   1.742
 4316SOL    HW213836   2.845   2.899   1.666
 4317SOL     OW13837   2.572   2.929   0.369
 4317SOL    HW113838   2.560   2.920   0.464
 4317SOL    HW213839   2.644   2.869   0.349
 4318SOL     OW13840   2.277   2.687   1.251
 4318SOL    HW113841   2.344   2.704   1.318
 4318SOL    HW213842   2.271   2.592   1.247
 4319SOL     OW13843   3.133   2.239   1.276
 4319SOL    HW113844   3.163   2.317   1.321
 4319SOL    HW213845   3.043   2.260   1.250
 4320SOL     OW13846   1.931   3.435   1.352
 4320SOL    HW113847   1.900   3.507   1.298
 4320SOL    HW213848   2.027   3.440   1.346
 4321SOL     OW13849   2.213   2.974   0.493
 4321SOL    HW113850   2.215   3.050   0.436
 4321SOL    HW213851   2.206   2.899   0.434
 4322SOL     OW13852   3.110   3.208   0.395
 4322SOL    HW113853   3.165   3.281   0.422
 4322SOL    HW213854   3.022   3.231   0.426
 4323SOL     OW13855   3.142   3.319   1.146
 4323SOL    HW113856   3.197   3.321   1.224
 4323SOL    HW213857   3.087   3.241   1.158
 4324SOL     OW13858   3.447   2.489   0.477
 4324SOL    HW113859   3.397   2.535   0.545
 4324SOL    HW213860   3.483   2.559   0.422
 4325SOL     OW13861   2.209   3.388   1.316
 4325SOL    HW113862   2.196   3.346   1.231
 4325SOL    HW213863   2.304   3.401   1.322
 4326SOL     OW13864   3.462   2.641   1.682
 4326SOL    HW113865   3.376   2.681   1.674
 4326SOL    HW213866   3.515   2.682   1.613
 4327SOL     OW13867   2.867   1.979   1.758
 4327SOL    HW113868   2.919   2.053   1.727
 4327SOL    HW213869   2.916   1.902   1.730
 4328SOL     OW13870   2.364   1.897   1.752
 4328SOL    HW113871   2.321   1.847   1.683
 4328SOL    HW213872   2.310   1.976   1.760
 4329SOL     OW13873   2.422   2.749   1.021
 4329SOL    HW113874   2.483   2.822   1.024
 4329SOL    HW213875   2.386   2.744   1.110
 4330SOL     OW13876   3.220   2.720   1.031
 4330SOL    HW113877   3.137   2.712   0.984
 4330SOL    HW213878   3.260   2.634   1.026
 4331SOL     OW13879   3.077   2.394   0.281
 4331SOL    HW113880   3.078   2.312   0.330
 4331SOL    HW213881   3.028   2.455   0.336
 4332SOL     OW13882   1.909   3.173   1.277
 4332SOL    HW113883   1.942   3.119   1.349
 4332SOL    HW213884   1.915   3.263   1.309
 4333SOL     OW13885   3.596   2.822   1.852
 4333SOL    HW113886   3.550   2.761   1.794
 4333SOL    HW213887   3.536   2.834   1.926
 4334SOL     OW13888   3.479   2.236   0.366
 4334SOL    HW113889   3.505   2.172   0.432
 4334SOL    HW213890   3.455   2.314   0.417
 4335SOL     OW13891   2.886   2.618   0.959
 4335SOL    HW113892   2.887   2.637   1.052
 4335SOL    HW213893   2.851   2.529   0.952
 4336SOL     OW13894   2.844   3.428   1.716
 4336SOL    HW113895   2.829   3.473   1.633
 4336SOL    HW213896   2.887   3.346   1.693
 4337SOL     OW13897   3.717   3.369   1.606
 4337SOL    HW113898   3.735   3.395   1.515
 4337SOL    HW213899   3.798   3.388   1.652
 4338SOL     OW13900   2.223   2.769   1.798
 4338SOL    HW113901   2.293   2.799   1.855
 4338SOL    HW213902   2.269   2.728   1.724
 4339SOL     OW13903   3.398   2.151   0.116
 4339SOL    HW113904   3.338   2.078   0.132
 4339SOL    HW213905   3.430   2.175   0.203
 4340SOL     OW13906   3.149   2.684   0.031
 4340SOL    HW113907   3.195   2.600   0.044
 4340SOL    HW213908   3.188   2.721  11.052
 4341SOL     OW13909   2.927   3.197   0.854
 4341SOL    HW113910   2.930   3.125   0.792
 4341SOL    HW213911   2.989   3.262   0.819
 4342SOL     OW13912   2.168   2.679   0.943
 4342SOL    HW113913   2.259   2.708   0.947
 4342SOL    HW213914   2.165   2.604   1.003
 4343SOL     OW13915   2.996   2.241   1.679
 4343SOL    HW113916   2.949   2.293   1.744
 4343SOL    HW213917   3.084   2.278   1.677
 4344SOL     OW13918   3.024   2.066   1.470
 4344SOL    HW113919   3.013   2.129   1.541
 4344SOL    HW213920   3.065   2.117   1.399
 4345SOL     OW13921   1.869   3.190   0.195
 4345SOL    HW113922   1.783   3.202   0.156
 4345SOL    HW213923   1.869   3.099   0.225
 4346SOL     OW13924   1.952   3.650   0.938
 4346SOL    HW113925   1.922   3.570   0.894
 4346SOL    HW213926   2.042   3.662   0.907
 4347SOL     OW13927   2.359   3.436   0.906
 4347SOL    HW113928   2.428   3.498   0.930
 4347SOL    HW213929   2.403   3.372   0.849
 4348SOL     OW13930   2.852   2.657   1.226
 4348SOL    HW113931   2.907   2.631   1.300
 4348SOL    HW213932   2.764   2.629   1.251
 4349SOL     OW13933   1.899   2.418   1.113
 4349SOL    HW113934   1.961   2.355   1.075
 4349SOL    HW213935   1.920   2.419   1.206
 4350SOL     OW13936   3.238   2.802   1.658
 4350SOL    HW113937   3.260   2.895   1.657
 4350SOL    HW213938   3.237   2.776   1.566
 4351SOL     OW13939   3.504   2.463   1.187
 4351SOL    HW113940   3.494   2.403   1.261
 4351SOL    HW213941   3.591   2.444   1.152
 4352SOL     OW13942   2.107   3.414   1.728
 4352SOL    HW113943   2.083   3.478   1.794
 4352SOL    HW213944   2.107   3.330   1.775
 4353SOL     OW13945   2.790   3.541   1.467
 4353SOL    HW113946   2.764   3.507   1.382
 4353SOL    HW213947   2.786   3.636   1.458
 4354SOL     OW13948   2.008   3.003   1.475
 4354SOL    HW113949   2.010   2.950   1.554
 4354SOL    HW213950   2.023   2.941   1.403
 4355SOL     OW13951   3.188   2.910   1.224
 4355SOL    HW113952   3.212   2.846   1.156
 4355SOL    HW213953   3.118   2.961   1.185
 4356SOL     OW13954   3.170   2.716   0.309
 4356SOL    HW113955   3.094   2.684   0.358
 4356SOL    HW213956   3.149   2.701   0.217
 4357SOL     OW13957   3.634   3.607   1.151
 4357SOL    HW113958   3.693   3.633   1.080
 4357SOL    HW213959   3.609   3.517   1.129
 4358SOL     OW13960   3.103   3.595   1.114
 4358SOL    HW113961   3.185   3.616   1.069
 4358SOL    HW213962   3.108   3.501   1.132
 4359SOL     OW13963   1.945   3.129   1.013
 4359SOL    HW113964   1.931   3.141   1.107
 4359SOL    HW213965   1.871   3.075   0.985
 4360SOL     OW13966   2.539   3.527   1.728
 4360SOL    HW113967   2.486   3.607   1.724
 4360SOL    HW213968   2.604   3.538   1.658
 4361SOL     OW13969   2.777   1.956   0.107
 4361SOL    HW113970   2.828   1.921   0.033
 4361SOL    HW213971   2.815   1.913   0.184
 4362SOL     OW13972   3.580   2.008   0.510
 4362SOL    HW113973   3.653   1.994   0.450
 4362SOL    HW213974   3.565   1.922   0.550
 4363SOL     OW13975   3.252   3.430   0.485
 4363SOL    HW113976   3.313   3.461   0.418
 4363SOL    HW213977   3.205   3.508   0.513
 4364SOL     OW13978   1.999   3.657   1.843
 4364SOL    HW113979   1.948   3.593   1.892
 4364SOL    HW213980   2.045   3.707   1.910
 4365SOL     OW13981   3.140   2.787   0.671
 4365SOL    HW113982   3.214   2.726   0.676
 4365SOL    HW213983   3.173   2.860   0.619
 4366SOL     OW13984   2.677   3.136   1.430
 4366SOL    HW113985   2.649   3.175   1.513
 4366SOL    HW213986   2.608   3.159   1.368
 4367SOL     OW13987   2.536   3.483   0.168
 4367SOL    HW113988   2.549   3.492   0.073
 4367SOL    HW213989   2.479   3.407   0.177
 4368SOL     OW13990   3.490   3.588   1.391
 4368SOL    HW113991   3.539   3.595   1.310
 4368SOL    HW213992   3.476   3.679   1.419
 4369SOL     OW13993   3.702   2.035   0.968
 4369SOL    HW113994   3.732   1.948   0.940
 4369SOL    HW213995   3.616   2.045   0.927
 4370SOL     OW13996   3.085   3.464   0.052
 4370SOL    HW113997   3.072   3.372   0.072
 4370SOL    HW213998   3.019   3.484  11.085
 4371SOL     OW13999   2.698   2.874   1.369
 4371SOL    HW114000   2.737   2.874   1.281
 4371SOL    HW214001   2.693   2.966   1.393
 4372SOL     OW14002   2.785   2.781   0.287
 4372SOL    HW114003   2.853   2.817   0.230
 4372SOL    HW214004   2.830   2.712   0.337
 4373SOL     OW14005   3.361   3.484   0.047
 4373SOL    HW114006   3.265   3.479   0.043
 4373SOL    HW214007   3.387   3.498  11.056
 4374SOL     OW14008   2.231   3.164   1.492
 4374SOL    HW114009   2.218   3.241   1.437
 4374SOL    HW214010   2.154   3.110   1.476
 4375SOL     OW14011   3.473   3.145   1.281
 4375SOL    HW114012   3.532   3.135   1.355
 4375SOL    HW214013   3.413   3.214   1.307
 4376SOL     OW14014   2.915   2.969   0.707
 4376SOL    HW114015   2.844   2.918   0.746
 4376SOL    HW214016   2.976   2.904   0.674
 4377SOL     OW14017   2.884   2.100   0.967
 4377SOL    HW114018   2.878   2.053   0.884
 4377SOL    HW214019   2.878   2.031   1.034
 4378SOL     OW14020   2.464   3.352   0.482
 4378SOL    HW114021   2.505   3.301   0.413
 4378SOL    HW214022   2.396   3.402   0.438
 4379SOL     OW14023   3.583   2.254   1.380
 4379SOL    HW114024   3.655   2.317   1.379
 4379SOL    HW214025   3.613   2.183   1.324
 4380SOL     OW14026   2.127   3.198   0.291
 4380SOL    HW114027   2.040   3.202   0.253
 4380SOL    HW214028   2.118   3.239   0.377
 4381SOL     OW14029   1.976   2.883   1.722
 4381SOL    HW114030   1.898   2.860   1.773
 4381SOL    HW214031   2.048   2.841   1.768
 4382SOL     OW14032   2.544   2.051   1.487
 4382SOL    HW114033   2.630   2.025   1.455
 4382SOL    HW214034   2.559   2.083   1.576
 4383SOL     OW14035   1.886   2.267   0.063
 4383SOL    HW114036   1.824   2.201   0.031
 4383SOL    HW214037   1.941   2.287  11.087
 4384SOL     OW14038   3.292   2.721   1.401
 4384SOL    HW114039   3.244   2.781   1.345
 4384SOL    HW214040   3.382   2.723   1.366
 4385SOL     OW14041   3.044   3.202   0.122
 4385SOL    HW114042   2.951   3.183   0.116
 4385SOL    HW214043   3.064   3.195   0.215
 4386SOL     OW14044   2.493   2.710   1.424
 4386SOL    HW114045   2.550   2.785   1.410
 4386SOL    HW214046   2.551   2.639   1.448
 4387SOL     OW14047   3.346   3.638   0.978
 4387SOL    HW114048   3.370   3.697   0.906
 4387SOL    HW214049   3.428   3.619   1.022
 4388SOL     OW14050   3.333   3.063   1.632
 4388SOL    HW114051   3.321   3.076   1.726
 4388SOL    HW214052   3.426   3.077   1.618
 4389SOL     OW14053   2.242   3.601   1.564
 4389SOL    HW114054   2.157   3.642   1.550
 4389SOL    HW214055   2.222   3.518   1.606
 4390SOL     OW14056   3.532   2.743   1.256
 4390SOL    HW114057   3.525   2.658   1.213
 4390SOL    HW214058   3.523   2.806   1.184
 4391SOL     OW14059   3.077   2.178   0.461
 4391SOL    HW114060   3.142   2.109   0.450
 4391SOL    HW214061   3.107   2.228   0.537
 4392SOL     OW14062   2.529   2.640   0.617
 4392SOL    HW114063   2.549   2.734   0.621
 4392SOL    HW214064   2.435   2.636   0.600
 4393SOL     OW14065   3.625   2.223   1.650
 4393SOL    HW114066   3.608   2.238   1.557
 4393SOL    HW214067   3.553   2.166   1.679
 4394SOL     OW14068   3.607   2.796   1.512
 4394SOL    HW114069   3.605   2.890   1.525
 4394SOL    HW214070   3.592   2.783   1.419
 4395SOL     OW14071   2.764   3.218   0.066
 4395SOL    HW114072   2.694   3.219   0.132
 4395SOL    HW214073   2.752   3.301   0.019
 4396SOL     OW14074   2.522   3.654   0.946
 4396SOL    HW114075   2.502   3.744   0.922
 4396SOL    HW214076   2.617   3.648   0.938
 4397SOL     OW14077   2.729   2.831   0.856
 4397SOL    HW114078   2.774   2.754   0.892
 4397SOL    HW214079   2.697   2.878   0.933
 4398SOL     OW14080   2.945   2.854   0.084
 4398SOL    HW114081   2.920   2.888  11.098
 4398SOL    HW214082   3.019   2.797   0.066
 4399SOL     OW14083   3.717   3.418   0.845
 4399SOL    HW114084   3.640   3.406   0.789
 4399SOL    HW214085   3.710   3.349   0.911
 4400SOL     OW14086   2.087   3.165   1.856
 4400SOL    HW114087   2.017   3.107   1.826
 4400SOL    HW214088   2.068   3.179   1.949
 4401SOL     OW14089   1.945   3.097   0.666
 4401SOL    HW114090   1.949   3.046   0.747
 4401SOL    HW214091   2.014   3.060   0.611
 4402SOL     OW14092   2.542   3.265   1.627
 4402SOL    HW114093   2.461   3.222   1.657
 4402SOL    HW214094   2.538   3.353   1.664
 4403SOL     OW14095   3.675   2.046   1.238
 4403SOL    HW114096   3.684   1.952   1.252
 4403SOL    HW214097   3.684   2.058   1.144
 4404SOL     OW14098   3.561   3.352   1.099
 4404SOL    HW114099   3.481   3.328   1.052
 4404SOL    HW214100   3.574   3.282   1.162
 4405SOL     OW14101   2.688   3.440   0.678
 4405SOL    HW114102   2.677   3.490   0.598
 4405SOL    HW214103   2.612   3.383   0.682
 4406SOL     OW14104   3.295   2.086   1.118
 4406SOL    HW114105   3.320   2.006   1.164
 4406SOL    HW214106   3.243   2.136   1.182
 4407SOL     OW14107   2.872   1.881   1.144
 4407SOL    HW114108   2.816   1.813   1.104
 4407SOL    HW214109   2.959   1.842   1.145
 4408SOL     OW14110   2.630   3.192   0.315
 4408SOL    HW114111   2.601   3.102   0.327
 4408SOL    HW214112   2.715   3.196   0.360
 4409SOL     OW14113   2.482   3.419   1.285
 4409SOL    HW114114   2.485   3.501   1.335
 4409SOL    HW214115   2.569   3.411   1.247
 4410SOL     OW14116   3.213   1.916   0.164
 4410SOL    HW114117   3.234   1.865   0.086
 4410SOL    HW214118   3.126   1.885   0.190
 4411SOL     OW14119   3.159   2.323   0.682
 4411SOL    HW114120   3.105   2.402   0.689
 4411SOL    HW214121   3.155   2.283   0.768
 4412SOL     OW14122   3.449   2.065   0.877
 4412SOL    HW114123   3.387   2.084   0.948
 4412SOL    HW214124   3.448   2.143   0.822
 4413SOL     OW14125   1.903   2.933   0.301
 4413SOL    HW114126   1.999   2.929   0.298
 4413SOL    HW214127   1.877   2.845   0.327
 4414SOL     OW14128   2.746   3.515   0.348
 4414SOL    HW114129   2.675   3.495   0.287
 4414SOL    HW214130   2.715   3.589   0.399
 4415SOL     OW14131   2.072   2.520   1.983
 4415SOL    HW114132   1.984   2.493   2.007
 4415SOL    HW214133   2.104   2.450   1.926
 4416SOL     OW14134   2.428   3.148   3.037
 4416SOL    HW114135   2.341   3.153   2.998
 4416SOL    HW214136   2.444   3.236   3.070
 4417SOL     OW14137   3.422   3.374   2.568
 4417SOL    HW114138   3.379   3.354   2.652
 4417SOL    HW214139   3.351   3.378   2.505
 4418SOL     OW14140   2.992   2.561   2.563
 4418SOL    HW114141   3.042   2.641   2.549
 4418SOL    HW214142   2.949   2.574   2.648
 4419SOL     OW14143   3.629   2.468   2.091
 4419SOL    HW114144   3.608   2.460   1.998
 4419SOL    HW214145   3.593   2.388   2.131
 4420SOL     OW14146   2.616   3.004   2.901
 4420SOL    HW114147   2.548   3.040   2.958
 4420SOL    HW214148   2.653   3.080   2.857
 4421SOL     OW14149   2.735   2.642   3.685
 4421SOL    HW114150   2.714   2.715   3.743
 4421SOL    HW214151   2.756   2.684   3.601
 4422SOL     OW14152   2.559   2.892   2.508
 4422SOL    HW114153   2.620   2.872   2.578
 4422SOL    HW214154   2.485   2.935   2.551
 4423SOL     OW14155   2.573   3.014   3.670
 4423SOL    HW114156   2.620   3.093   3.698
 4423SOL    HW214157   2.489   3.048   3.637
 4424SOL     OW14158   2.193   3.287   2.930
 4424SOL    HW114159   2.120   3.251   2.880
 4424SOL    HW214160   2.243   3.338   2.866
 4425SOL     OW14161   3.323   3.361   3.215
 4425SOL    HW114162   3.372   3.442   3.225
 4425SOL    HW214163   3.263   3.361   3.290
 4426SOL     OW14164   3.474   2.310   2.602
 4426SOL    HW114165   3.399   2.334   2.548
 4426SOL    HW214166   3.491   2.388   2.655
 4427SOL     OW14167   2.082   3.575   2.335
 4427SOL    HW114168   2.103   3.652   2.388
 4427SOL    HW214169   2.154   3.569   2.272
 4428SOL     OW14170   2.998   3.203   3.554
 4428SOL    HW114171   3.039   3.199   3.641
 4428SOL    HW214172   2.946   3.123   3.548
 4429SOL     OW14173   2.092   3.302   2.397
 4429SOL    HW114174   2.076   3.397   2.400
 4429SOL    HW214175   2.031   3.265   2.460
 4430SOL     OW14176   2.118   2.956   2.751
 4430SOL    HW114177   2.114   2.869   2.791
 4430SOL    HW214178   2.059   3.009   2.805
 4431SOL     OW14179   2.475   3.653   3.292
 4431SOL    HW114180   2.392   3.635   3.338
 4431SOL    HW214181   2.497   3.742   3.317
 4432SOL     OW14182   2.443   2.854   1.987
 4432SOL    HW114183   2.490   2.903   1.920
 4432SOL    HW214184   2.482   2.884   2.070
 4433SOL     OW14185   3.458   1.985   3.330
 4433SOL    HW114186   3.462   2.066   3.279
 4433SOL    HW214187   3.444   2.014   3.420
 4434SOL     OW14188   1.974   2.512   2.422
 4434SOL    HW114189   1.931   2.432   2.452
 4434SOL    HW214190   1.974   2.569   2.499
 4435SOL     OW14191   3.704   3.622   2.197
 4435SOL    HW114192   3.766   3.593   2.264
 4435SOL    HW214193   3.728   3.712   2.178
 4436SOL     OW14194   1.894   3.457   1.986
 4436SOL    HW114195   1.875   3.365   2.006
 4436SOL    HW214196   1.870   3.505   2.066
 4437SOL     OW14197   3.551   2.781   2.503
 4437SOL    HW114198   3.635   2.740   2.483
 4437SOL    HW214199   3.530   2.831   2.424
 4438SOL     OW14200   3.508   2.969   2.291
 4438SOL    HW114201   3.593   2.975   2.249
 4438SOL    HW214202   3.512   3.030   2.365
 4439SOL     OW14203   1.979   2.597   3.447
 4439SOL    HW114204   2.069   2.622   3.469
 4439SOL    HW214205   1.929   2.678   3.458
 4440SOL     OW14206   2.475   3.247   2.598
 4440SOL    HW114207   2.429   3.164   2.607
 4440SOL    HW214208   2.459   3.274   2.507
 4441SOL     OW14209   3.151   3.100   3.286
 4441SOL    HW114210   3.183   3.033   3.225
 4441SOL    HW214211   3.208   3.093   3.362
 4442SOL     OW14212   2.674   1.862   2.369
 4442SOL    HW114213   2.715   1.946   2.349
 4442SOL    HW214214   2.581   1.882   2.376
 4443SOL     OW14215   2.038   2.838   3.131
 4443SOL    HW114216   2.125   2.804   3.111
 4443SOL    HW214217   1.977   2.778   3.087
 4444SOL     OW14218   3.394   2.855   2.060
 4444SOL    HW114219   3.324   2.797   2.091
 4444SOL    HW214220   3.434   2.889   2.140
 4445SOL     OW14221   3.047   3.667   3.484
 4445SOL    HW114222   3.059   3.726   3.409
 4445SOL    HW214223   3.064   3.580   3.448
 4446SOL     OW14224   3.328   3.282   2.814
 4446SOL    HW114225   3.260   3.296   2.879
 4446SOL    HW214226   3.316   3.191   2.787
 4447SOL     OW14227   3.521   3.599   2.440
 4447SOL    HW114228   3.501   3.570   2.351
 4447SOL    HW214229   3.496   3.526   2.496
 4448SOL     OW14230   2.527   2.635   2.145
 4448SOL    HW114231   2.521   2.690   2.067
 4448SOL    HW214232   2.444   2.649   2.191
 4449SOL     OW14233   3.141   2.213   2.795
 4449SOL    HW114234   3.052   2.179   2.803
 4449SOL    HW214235   3.192   2.161   2.856
 4450SOL     OW14236   3.443   3.531   2.171
 4450SOL    HW114237   3.533   3.564   2.165
 4450SOL    HW214238   3.417   3.515   2.081
 4451SOL     OW14239   3.257   2.336   3.539
 4451SOL    HW114240   3.258   2.380   3.624
 4451SOL    HW214241   3.316   2.262   3.549
 4452SOL     OW14242   2.818   2.747   3.439
 4452SOL    HW114243   2.872   2.676   3.403
 4452SOL    HW214244   2.775   2.786   3.363
 4453SOL     OW14245   2.859   2.273   3.097
 4453SOL    HW114246   2.774   2.294   3.137
 4453SOL    HW214247   2.836   2.228   3.015
 4454SOL     OW14248   2.920   2.565   2.289
 4454SOL    HW114249   2.935   2.558   2.383
 4454SOL    HW214250   2.839   2.517   2.274
 4455SOL     OW14251   1.953   2.685   2.634
 4455SOL    HW114252   2.033   2.682   2.686
 4455SOL    HW214253   1.904   2.759   2.669
 4456SOL     OW14254   1.989   3.707   3.439
 4456SOL    HW114255   1.989   3.687   3.533
 4456SOL    HW214256   1.897   3.702   3.413
 4457SOL     OW14257   2.754   2.211   2.057
 4457SOL    HW114258   2.796   2.270   1.994
 4457SOL    HW214259   2.762   2.125   2.017
 4458SOL     OW14260   3.573   2.438   3.690
 4458SOL    HW114261   3.534   2.512   3.643
 4458SOL    HW214262   3.598   2.376   3.622
 4459SOL     OW14263   3.238   3.004   2.404
 4459SOL    HW114264   3.317   2.991   2.351
 4459SOL    HW214265   3.186   3.066   2.353
 4460SOL     OW14266   2.868   3.307   2.334
 4460SOL    HW114267   2.830   3.379   2.286
 4460SOL    HW214268   2.852   3.328   2.426
 4461SOL     OW14269   2.216   3.670   2.723
 4461SOL    HW114270   2.260   3.585   2.731
 4461SOL    HW214271   2.285   3.734   2.741
 4462SOL     OW14272   3.660   2.922   2.730
 4462SOL    HW114273   3.605   2.903   2.654
 4462SOL    HW214274   3.598   2.926   2.803
 4463SOL     OW14275   3.090   3.401   3.375
 4463SOL    HW114276   3.076   3.328   3.435
 4463SOL    HW214277   3.027   3.386   3.304
 4464SOL     OW14278   2.189   2.807   2.114
 4464SOL    HW114279   2.267   2.830   2.064
 4464SOL    HW214280   2.152   2.732   2.068
 4465SOL     OW14281   3.340   2.603   2.589
 4465SOL    HW114282   3.330   2.560   2.674
 4465SOL    HW214283   3.417   2.659   2.599
 4466SOL     OW14284   2.328   3.125   3.599
 4466SOL    HW114285   2.300   3.131   3.507
 4466SOL    HW214286   2.246   3.124   3.649
 4467SOL     OW14287   2.983   3.640   2.093
 4467SOL    HW114288   2.911   3.597   2.139
 4467SOL    HW214289   3.006   3.579   2.023
 4468SOL     OW14290   3.491   3.242   1.949
 4468SOL    HW114291   3.450   3.327   1.934
 4468SOL    HW214292   3.422   3.178   1.931
 4469SOL     OW14293   2.328   3.599   2.183
 4469SOL    HW114294   2.370   3.657   2.247
 4469SOL    HW214295   2.401   3.570   2.127
 4470SOL     OW14296   3.263   1.970   2.294
 4470SOL    HW114297   3.252   1.945   2.202
 4470SOL    HW214298   3.358   1.976   2.306
 4471SOL     OW14299   2.117   3.654   3.094
 4471SOL    HW114300   2.169   3.588   3.141
 4471SOL    HW214301   2.107   3.618   3.006
 4472SOL     OW14302   2.800   3.560   2.762
 4472SOL    HW114303   2.878   3.509   2.782
 4472SOL    HW214304   2.756   3.511   2.692
 4473SOL     OW14305   3.397   2.087   3.587
 4473SOL    HW114306   3.406   2.108   3.680
 4473SOL    HW214307   3.329   2.020   3.584
 4474SOL     OW14308   2.507   1.987   1.966
 4474SOL    HW114309   2.568   1.917   1.989
 4474SOL    HW214310   2.453   1.950   1.897
 4475SOL     OW14311   2.629   2.122   3.607
 4475SOL    HW114312   2.704   2.066   3.627
 4475SOL    HW214313   2.584   2.133   3.691
 4476SOL     OW14314   2.738   3.383   3.056
 4476SOL    HW114315   2.723   3.347   2.968
 4476SOL    HW214316   2.808   3.329   3.092
 4477SOL     OW14317   3.197   2.457   3.297
 4477SOL    HW114318   3.230   2.422   3.380
 4477SOL    HW214319   3.241   2.542   3.288
 4478SOL     OW14320   2.676   3.257   2.801
 4478SOL    HW114321   2.761   3.246   2.757
 4478SOL    HW214322   2.612   3.258   2.730
 4479SOL     OW14323   2.789   2.368   2.769
 4479SOL    HW114324   2.774   2.363   2.674
 4479SOL    HW214325   2.824   2.282   2.792
 4480SOL     OW14326   2.407   1.932   2.365
 4480SOL    HW114327   2.348   1.939   2.440
 4480SOL    HW214328   2.398   2.016   2.320
 4481SOL     OW14329   3.290   3.060   1.903
 4481SOL    HW114330   3.321   2.984   1.953
 4481SOL    HW214331   3.205   3.081   1.941
 4482SOL     OW14332   2.800   2.106   2.319
 4482SOL    HW114333   2.774   2.148   2.237
 4482SOL    HW214334   2.895   2.117   2.323
 4483SOL     OW14335   2.931   2.526   3.316
 4483SOL    HW114336   2.894   2.445   3.352
 4483SOL    HW214337   3.025   2.507   3.307
 4484SOL     OW14338   3.085   3.432   2.656
 4484SOL    HW114339   3.102   3.499   2.590
 4484SOL    HW214340   3.154   3.445   2.721
 4485SOL     OW14341   2.329   3.011   2.596
 4485SOL    HW114342   2.260   2.994   2.659
 4485SOL    HW214343   2.290   2.994   2.510
 4486SOL     OW14344   3.131   3.656   2.469
 4486SOL    HW114345   3.177   3.717   2.411
 4486SOL    HW214346   3.066   3.710   2.514
 4487SOL     OW14347   2.886   2.405   1.883
 4487SOL    HW114348   2.838   2.485   1.864
 4487SOL    HW214349   2.950   2.430   1.949
 4488SOL     OW14350   1.952   2.419   3.244
 4488SOL    HW114351   2.034   2.379   3.271
 4488SOL    HW214352   1.934   2.486   3.310
 4489SOL     OW14353   2.756   2.315   2.499
 4489SOL    HW114354   2.720   2.375   2.434
 4489SOL    HW214355   2.772   2.234   2.451
 4490SOL     OW14356   2.874   1.915   2.615
 4490SOL    HW114357   2.819   1.904   2.537
 4490SOL    HW214358   2.854   1.839   2.670
 4491SOL     OW14359   3.298   3.025   2.719
 4491SOL    HW114360   3.230   2.958   2.718
 4491SOL    HW214361   3.322   3.036   2.627
 4492SOL     OW14362   3.329   2.467   2.840
 4492SOL    HW114363   3.279   2.385   2.843
 4492SOL    HW214364   3.389   2.461   2.914
 4493SOL     OW14365   3.708   2.679   2.244
 4493SOL    HW114366   3.764   2.627   2.302
 4493SOL    HW214367   3.680   2.616   2.178
 4494SOL     OW14368   2.353   3.279   2.021
 4494SOL    HW114369   2.278   3.250   2.072
 4494SOL    HW214370   2.336   3.244   1.933
 4495SOL     OW14371   3.532   3.126   2.508
 4495SOL    HW114372   3.626   3.130   2.522
 4495SOL    HW214373   3.501   3.215   2.530
 4496SOL     OW14374   3.256   2.434   1.933
 4496SOL    HW114375   3.195   2.414   2.005
 4496SOL    HW214376   3.340   2.401   1.964
 4497SOL     OW14377   3.615   3.101   3.436
 4497SOL    HW114378   3.702   3.061   3.433
 4497SOL    HW214379   3.630   3.190   3.465
 4498SOL     OW14380   2.921   3.216   3.196
 4498SOL    HW114381   2.846   3.185   3.248
 4498SOL    HW214382   2.997   3.174   3.237
 4499SOL     OW14383   3.469   3.487   3.515
 4499SOL    HW114384   3.464   3.521   3.426
 4499SOL    HW214385   3.552   3.440   3.518
 4500SOL     OW14386   2.990   3.066   2.968
 4500SOL    HW114387   2.931   3.103   3.033
 4500SOL    HW214388   2.957   3.097   2.884
 4501SOL     OW14389   3.490   2.960   2.940
 4501SOL    HW114390   3.486   3.022   3.013
 4501SOL    HW214391   3.411   2.977   2.889
 4502SOL     OW14392   2.791   1.953   3.259
 4502SOL    HW114393   2.811   1.937   3.167
 4502SOL    HW214394   2.870   1.995   3.294
 4503SOL     OW14395   2.846   2.974   3.584
 4503SOL    HW114396   2.754   2.991   3.604
 4503SOL    HW214397   2.845   2.897   3.528
 4504SOL     OW14398   2.569   2.927   2.230
 4504SOL    HW114399   2.560   2.918   2.325
 4504SOL    HW214400   2.645   2.873   2.207
 4505SOL     OW14401   2.272   2.703   3.115
 4505SOL    HW114402   2.346   2.716   3.175
 4505SOL    HW214403   2.226   2.626   3.150
 4506SOL     OW14404   3.130   2.242   3.138
 4506SOL    HW114405   3.160   2.320   3.184
 4506SOL    HW214406   3.040   2.262   3.113
 4507SOL     OW14407   1.931   3.435   3.214
 4507SOL    HW114408   1.900   3.508   3.161
 4507SOL    HW214409   2.027   3.440   3.209
 4508SOL     OW14410   2.214   2.967   2.350
 4508SOL    HW114411   2.218   3.046   2.296
 4508SOL    HW214412   2.209   2.896   2.287
 4509SOL     OW14413   3.110   3.210   2.251
 4509SOL    HW114414   3.166   3.282   2.282
 4509SOL    HW214415   3.023   3.231   2.285
 4510SOL     OW14416   3.142   3.319   3.008
 4510SOL    HW114417   3.197   3.321   3.086
 4510SOL    HW214418   3.087   3.241   3.020
 4511SOL     OW14419   3.444   2.485   2.340
 4511SOL    HW114420   3.398   2.539   2.404
 4511SOL    HW214421   3.488   2.548   2.284
 4512SOL     OW14422   2.209   3.389   3.178
 4512SOL    HW114423   2.196   3.346   3.093
 4512SOL    HW214424   2.304   3.401   3.184
 4513SOL     OW14425   2.263   2.629   3.442
 4513SOL    HW114426   2.331   2.681   3.400
 4513SOL    HW214427   2.288   2.538   3.424
 4514SOL     OW14428   3.462   2.641   3.544
 4514SOL    HW114429   3.376   2.681   3.536
 4514SOL    HW214430   3.515   2.683   3.475
 4515SOL     OW14431   2.863   1.980   3.622
 4515SOL    HW114432   2.913   2.054   3.587
 4515SOL    HW214433   2.912   1.903   3.595
 4516SOL     OW14434   2.363   1.892   3.615
 4516SOL    HW114435   2.323   1.845   3.542
 4516SOL    HW214436   2.297   1.957   3.641
 4517SOL     OW14437   2.439   2.744   2.892
 4517SOL    HW114438   2.483   2.829   2.886
 4517SOL    HW214439   2.385   2.751   2.971
 4518SOL     OW14440   3.220   2.720   2.893
 4518SOL    HW114441   3.137   2.711   2.846
 4518SOL    HW214442   3.260   2.634   2.887
 4519SOL     OW14443   3.068   2.391   2.130
 4519SOL    HW114444   3.075   2.312   2.184
 4519SOL    HW214445   3.028   2.456   2.187
 4520SOL     OW14446   1.911   3.173   3.139
 4520SOL    HW114447   1.942   3.120   3.212
 4520SOL    HW214448   1.915   3.263   3.171
 4521SOL     OW14449   2.642   2.542   2.953
 4521SOL    HW114450   2.667   2.480   2.884
 4521SOL    HW214451   2.576   2.598   2.913
 4522SOL     OW14452   3.596   2.822   3.714
 4522SOL    HW114453   3.550   2.761   3.656
 4522SOL    HW214454   3.537   2.835   3.788
 4523SOL     OW14455   3.478   2.236   2.229
 4523SOL    HW114456   3.505   2.172   2.295
 4523SOL    HW214457   3.455   2.314   2.280
 4524SOL     OW14458   2.899   2.622   2.821
 4524SOL    HW114459   2.895   2.646   2.913
 4524SOL    HW214460   2.861   2.534   2.817
 4525SOL     OW14461   2.844   3.428   3.578
 4525SOL    HW114462   2.829   3.473   3.495
 4525SOL    HW214463   2.887   3.346   3.555
 4526SOL     OW14464   3.717   3.369   3.468
 4526SOL    HW114465   3.735   3.395   3.377
 4526SOL    HW214466   3.798   3.388   3.514
 4527SOL     OW14467   2.217   2.778   3.672
 4527SOL    HW114468   2.300   2.797   3.715
 4527SOL    HW214469   2.240   2.725   3.596
 4528SOL     OW14470   3.392   2.135   1.989
 4528SOL    HW114471   3.327   2.070   2.015
 4528SOL    HW214472   3.424   2.171   2.072
 4529SOL     OW14473   3.155   2.688   1.893
 4529SOL    HW114474   3.198   2.603   1.897
 4529SOL    HW214475   3.186   2.727   1.812
 4530SOL     OW14476   2.927   3.198   2.716
 4530SOL    HW114477   2.930   3.125   2.654
 4530SOL    HW214478   2.989   3.262   2.681
 4531SOL     OW14479   2.172   2.683   2.804
 4531SOL    HW114480   2.266   2.703   2.801
 4531SOL    HW214481   2.168   2.597   2.846
 4532SOL     OW14482   2.995   2.245   3.536
 4532SOL    HW114483   2.948   2.294   3.604
 4532SOL    HW214484   3.084   2.280   3.538
 4533SOL     OW14485   3.027   2.067   3.331
 4533SOL    HW114486   3.014   2.129   3.403
 4533SOL    HW214487   3.066   2.118   3.261
 4534SOL     OW14488   1.867   3.183   2.056
 4534SOL    HW114489   1.780   3.198   2.018
 4534SOL    HW214490   1.863   3.094   2.090
 4535SOL     OW14491   1.952   3.649   2.800
 4535SOL    HW114492   1.922   3.570   2.756
 4535SOL    HW214493   2.042   3.661   2.768
 4536SOL     OW14494   2.359   3.436   2.768
 4536SOL    HW114495   2.428   3.498   2.792
 4536SOL    HW214496   2.403   3.372   2.712
 4537SOL     OW14497   2.850   2.667   3.089
 4537SOL    HW114498   2.887   2.621   3.165
 4537SOL    HW214499   2.772   2.616   3.066
 4538SOL     OW14500   1.905   2.422   2.977
 4538SOL    HW114501   1.947   2.343   2.943
 4538SOL    HW214502   1.925   2.421   3.070
 4539SOL     OW14503   3.238   2.802   3.520
 4539SOL    HW114504   3.259   2.895   3.520
 4539SOL    HW214505   3.238   2.777   3.428
 4540SOL     OW14506   2.693   2.431   2.233
 4540SOL    HW114507   2.688   2.360   2.168
 4540SOL    HW214508   2.631   2.496   2.201
 4541SOL     OW14509   3.504   2.463   3.049
 4541SOL    HW114510   3.495   2.403   3.123
 4541SOL    HW214511   3.591   2.444   3.014
 4542SOL     OW14512   2.107   3.414   3.590
 4542SOL    HW114513   2.083   3.478   3.657
 4542SOL    HW214514   2.107   3.330   3.637
 4543SOL     OW14515   2.790   3.541   3.329
 4543SOL    HW114516   2.764   3.508   3.243
 4543SOL    HW214517   2.787   3.636   3.320
 4544SOL     OW14518   2.008   3.005   3.338
 4544SOL    HW114519   2.009   2.950   3.417
 4544SOL    HW214520   2.019   2.943   3.266
 4545SOL     OW14521   3.189   2.910   3.085
 4545SOL    HW114522   3.212   2.846   3.018
 4545SOL    HW214523   3.118   2.961   3.047
 4546SOL     OW14524   3.172   2.719   2.169
 4546SOL    HW114525   3.096   2.688   2.219
 4546SOL    HW214526   3.148   2.705   2.077
 4547SOL     OW14527   3.634   3.607   3.012
 4547SOL    HW114528   3.693   3.633   2.942
 4547SOL    HW214529   3.609   3.517   2.990
 4548SOL     OW14530   3.103   3.595   2.976
 4548SOL    HW114531   3.185   3.615   2.930
 4548SOL    HW214532   3.108   3.501   2.994
 4549SOL     OW14533   1.945   3.128   2.875
 4549SOL    HW114534   1.932   3.141   2.969
 4549SOL    HW214535   1.870   3.075   2.848
 4550SOL     OW14536   2.539   3.527   3.589
 4550SOL    HW114537   2.486   3.607   3.586
 4550SOL    HW214538   2.604   3.539   3.520
 4551SOL     OW14539   3.581   2.007   2.372
 4551SOL    HW114540   3.654   1.993   2.312
 4551SOL    HW214541   3.565   1.922   2.412
 4552SOL     OW14542   3.252   3.430   2.346
 4552SOL    HW114543   3.313   3.462   2.279
 4552SOL    HW214544   3.204   3.507   2.374
 4553SOL     OW14545   1.999   3.658   3.705
 4553SOL    HW114546   1.948   3.593   3.753
 4553SOL    HW214547   2.046   3.707   3.772
 4554SOL     OW14548   3.140   2.787   2.533
 4554SOL    HW114549   3.213   2.726   2.539
 4554SOL    HW214550   3.173   2.860   2.481
 4555SOL     OW14551   2.677   3.135   3.292
 4555SOL    HW114552   2.650   3.174   3.375
 4555SOL    HW214553   2.608   3.158   3.230
 4556SOL     OW14554   2.534   3.481   2.018
 4556SOL    HW114555   2.544   3.493   1.923
 4556SOL    HW214556   2.479   3.403   2.026
 4557SOL     OW14557   3.490   3.588   3.253
 4557SOL    HW114558   3.539   3.596   3.172
 4557SOL    HW214559   3.476   3.679   3.281
 4558SOL     OW14560   3.702   2.035   2.830
 4558SOL    HW114561   3.732   1.948   2.802
 4558SOL    HW214562   3.616   2.045   2.789
 4559SOL     OW14563   3.069   3.469   1.894
 4559SOL    HW114564   3.059   3.377   1.920
 4559SOL    HW214565   3.004   3.480   1.824
 4560SOL     OW14566   2.685   2.868   3.234
 4560SOL    HW114567   2.733   2.859   3.152
 4560SOL    HW214568   2.688   2.962   3.253
 4561SOL     OW14569   2.786   2.784   2.156
 4561SOL    HW114570   2.846   2.810   2.086
 4561SOL    HW214571   2.828   2.709   2.198
 4562SOL     OW14572   3.354   3.487   1.904
 4562SOL    HW114573   3.260   3.481   1.891
 4562SOL    HW214574   3.391   3.493   1.816
 4563SOL     OW14575   2.232   3.163   3.353
 4563SOL    HW114576   2.218   3.241   3.299
 4563SOL    HW214577   2.154   3.110   3.339
 4564SOL     OW14578   3.473   3.145   3.143
 4564SOL    HW114579   3.532   3.135   3.217
 4564SOL    HW214580   3.413   3.214   3.170
 4565SOL     OW14581   2.914   2.969   2.569
 4565SOL    HW114582   2.843   2.917   2.608
 4565SOL    HW214583   2.975   2.904   2.535
 4566SOL     OW14584   2.882   2.101   2.828
 4566SOL    HW114585   2.878   2.054   2.745
 4566SOL    HW214586   2.879   2.033   2.895
 4567SOL     OW14587   2.464   3.350   2.344
 4567SOL    HW114588   2.508   3.300   2.275
 4567SOL    HW214589   2.396   3.399   2.298
 4568SOL     OW14590   3.583   2.255   3.242
 4568SOL    HW114591   3.655   2.317   3.241
 4568SOL    HW214592   3.613   2.183   3.186
 4569SOL     OW14593   2.121   3.206   2.151
 4569SOL    HW114594   2.028   3.205   2.127
 4569SOL    HW214595   2.123   3.244   2.239
 4570SOL     OW14596   1.974   2.882   3.582
 4570SOL    HW114597   1.897   2.859   3.634
 4570SOL    HW214598   2.048   2.844   3.631
 4571SOL     OW14599   2.552   2.036   3.359
 4571SOL    HW114600   2.639   2.014   3.325
 4571SOL    HW214601   2.569   2.069   3.448
 4572SOL     OW14602   3.293   2.721   3.263
 4572SOL    HW114603   3.244   2.782   3.206
 4572SOL    HW214604   3.382   2.723   3.229
 4573SOL     OW14605   1.867   1.998   2.190
 4573SOL    HW114606   1.841   2.079   2.147
 4573SOL    HW214607   1.957   2.013   2.219
 4574SOL     OW14608   3.041   3.202   1.979
 4574SOL    HW114609   2.951   3.171   1.982
 4574SOL    HW214610   3.070   3.202   2.070
 4575SOL     OW14611   2.480   2.701   3.290
 4575SOL    HW114612   2.540   2.775   3.274
 4575SOL    HW214613   2.538   2.627   3.307
 4576SOL     OW14614   3.346   3.638   2.840
 4576SOL    HW114615   3.370   3.697   2.769
 4576SOL    HW214616   3.428   3.620   2.885
 4577SOL     OW14617   3.333   3.063   3.494
 4577SOL    HW114618   3.321   3.076   3.588
 4577SOL    HW214619   3.426   3.077   3.480
 4578SOL     OW14620   2.242   3.601   3.426
 4578SOL    HW114621   2.157   3.642   3.412
 4578SOL    HW214622   2.222   3.518   3.468
 4579SOL     OW14623   3.532   2.743   3.118
 4579SOL    HW114624   3.526   2.658   3.075
 4579SOL    HW214625   3.523   2.807   3.046
 4580SOL     OW14626   3.078   2.180   2.320
 4580SOL    HW114627   3.142   2.110   2.311
 4580SOL    HW214628   3.107   2.230   2.397
 4581SOL     OW14629   2.476   2.639   2.546
 4581SOL    HW114630   2.514   2.723   2.520
 4581SOL    HW214631   2.389   2.639   2.506
 4582SOL     OW14632   3.625   2.223   3.512
 4582SOL    HW114633   3.607   2.238   3.419
 4582SOL    HW214634   3.553   2.166   3.541
 4583SOL     OW14635   3.606   2.796   3.374
 4583SOL    HW114636   3.605   2.891   3.387
 4583SOL    HW214637   3.591   2.784   3.281
 4584SOL     OW14638   2.723   3.230   1.894
 4584SOL    HW114639   2.686   3.257   1.978
 4584SOL    HW214640   2.743   3.312   1.849
 4585SOL     OW14641   2.522   3.654   2.807
 4585SOL    HW114642   2.502   3.744   2.784
 4585SOL    HW214643   2.617   3.648   2.800
 4586SOL     OW14644   2.729   2.829   2.718
 4586SOL    HW114645   2.777   2.756   2.755
 4586SOL    HW214646   2.696   2.878   2.793
 4587SOL     OW14647   2.943   2.850   1.948
 4587SOL    HW114648   2.922   2.901   1.870
 4587SOL    HW214649   3.018   2.797   1.923
 4588SOL     OW14650   3.717   3.417   2.707
 4588SOL    HW114651   3.639   3.406   2.652
 4588SOL    HW214652   3.710   3.349   2.774
 4589SOL     OW14653   2.087   3.165   3.718
 4589SOL    HW114654   2.019   3.104   3.688
 4589SOL    HW214655   2.068   3.178   3.811
 4590SOL     OW14656   1.945   3.096   2.527
 4590SOL    HW114657   1.948   3.048   2.609
 4590SOL    HW214658   2.014   3.057   2.473
 4591SOL     OW14659   2.542   3.265   3.488
 4591SOL    HW114660   2.462   3.222   3.519
 4591SOL    HW214661   2.538   3.353   3.526
 4592SOL     OW14662   3.675   2.047   3.100
 4592SOL    HW114663   3.684   1.953   3.115
 4592SOL    HW214664   3.685   2.057   3.006
 4593SOL     OW14665   3.562   3.352   2.960
 4593SOL    HW114666   3.482   3.328   2.914
 4593SOL    HW214667   3.575   3.282   3.024
 4594SOL     OW14668   2.689   3.440   2.540
 4594SOL    HW114669   2.678   3.491   2.460
 4594SOL    HW214670   2.612   3.383   2.543
 4595SOL     OW14671   3.294   2.087   2.980
 4595SOL    HW114672   3.319   2.007   3.026
 4595SOL    HW214673   3.243   2.136   3.044
 4596SOL     OW14674   2.873   1.881   3.003
 4596SOL    HW114675   2.818   1.811   2.968
 4596SOL    HW214676   2.961   1.844   3.006
 4597SOL     OW14677   2.635   3.196   2.175
 4597SOL    HW114678   2.603   3.105   2.181
 4597SOL    HW214679   2.717   3.196   2.224
 4598SOL     OW14680   2.482   3.419   3.147
 4598SOL    HW114681   2.484   3.500   3.197
 4598SOL    HW214682   2.569   3.411   3.109
 4599SOL     OW14683   3.214   1.915   2.027
 4599SOL    HW114684   3.242   1.852   1.960
 4599SOL    HW214685   3.127   1.886   2.053
 4600SOL     OW14686   3.159   2.322   2.543
 4600SOL    HW114687   3.105   2.401   2.551
 4600SOL    HW214688   3.155   2.283   2.631
 4601SOL     OW14689   3.449   2.065   2.739
 4601SOL    HW114690   3.387   2.084   2.810
 4601SOL    HW214691   3.448   2.143   2.684
 4602SOL     OW14692   1.904   2.933   2.169
 4602SOL    HW114693   1.998   2.925   2.152
 4602SOL    HW214694   1.876   2.845   2.190
 4603SOL     OW14695   2.745   3.514   2.205
 4603SOL    HW114696   2.673   3.497   2.145
 4603SOL    HW214697   2.716   3.590   2.256
 4604SOL     OW14698   2.062   2.523   3.845
 4604SOL    HW114699   1.978   2.496   3.881
 4604SOL    HW214700   2.065   2.483   3.758
 4605SOL     OW14701   1.835   2.283   4.360
 4605SOL    HW114702   1.754   2.293   4.409
 4605SOL    HW214703   1.833   2.193   4.328
 4606SOL     OW14704   2.415   3.153   4.852
 4606SOL    HW114705   2.326   3.187   4.841
 4606SOL    HW214706   2.455   3.212   4.916
 4607SOL     OW14707   3.421   3.373   4.431
 4607SOL    HW114708   3.377   3.356   4.514
 4607SOL    HW214709   3.349   3.379   4.367
 4608SOL     OW14710   3.017   2.548   4.415
 4608SOL    HW114711   3.055   2.636   4.418
 4608SOL    HW214712   2.951   2.548   4.484
 4609SOL     OW14713   3.624   2.468   3.955
 4609SOL    HW114714   3.607   2.460   3.861
 4609SOL    HW214715   3.593   2.385   3.992
 4610SOL     OW14716   2.767   2.660   5.488
 4610SOL    HW114717   2.735   2.686   5.574
 4610SOL    HW214718   2.705   2.698   5.426
 4611SOL     OW14719   2.584   2.914   4.388
 4611SOL    HW114720   2.599   2.858   4.464
 4611SOL    HW214721   2.499   2.955   4.405
 4612SOL     OW14722   2.588   3.016   5.525
 4612SOL    HW114723   2.631   3.095   5.557
 4612SOL    HW214724   2.507   3.048   5.484
 4613SOL     OW14725   2.184   3.297   4.782
 4613SOL    HW114726   2.116   3.284   4.716
 4613SOL    HW214727   2.253   3.345   4.737
 4614SOL     OW14728   3.322   3.361   5.076
 4614SOL    HW114729   3.372   3.442   5.086
 4614SOL    HW214730   3.263   3.360   5.152
 4615SOL     OW14731   3.473   2.311   4.468
 4615SOL    HW114732   3.406   2.339   4.405
 4615SOL    HW214733   3.501   2.391   4.511
 4616SOL     OW14734   2.083   3.574   4.198
 4616SOL    HW114735   2.104   3.652   4.250
 4616SOL    HW214736   2.154   3.569   4.134
 4617SOL     OW14737   2.998   3.205   5.415
 4617SOL    HW114738   3.038   3.196   5.501
 4617SOL    HW214739   2.945   3.126   5.406
 4618SOL     OW14740   2.090   3.303   4.259
 4618SOL    HW114741   2.078   3.398   4.259
 4618SOL    HW214742   2.026   3.271   4.323
 4619SOL     OW14743   2.109   2.999   4.597
 4619SOL    HW114744   2.148   2.917   4.629
 4619SOL    HW214745   2.078   3.043   4.675
 4620SOL     OW14746   2.475   3.655   5.155
 4620SOL    HW114747   2.393   3.637   5.201
 4620SOL    HW214748   2.497   3.745   5.180
 4621SOL     OW14749   2.446   2.847   3.849
 4621SOL    HW114750   2.492   2.899   3.784
 4621SOL    HW214751   2.484   2.873   3.933
 4622SOL     OW14752   3.461   1.985   5.193
 4622SOL    HW114753   3.459   2.065   5.141
 4622SOL    HW214754   3.448   2.014   5.284
 4623SOL     OW14755   1.982   2.510   4.290
 4623SOL    HW114756   1.936   2.426   4.295
 4623SOL    HW214757   1.975   2.546   4.378
 4624SOL     OW14758   3.704   3.622   4.059
 4624SOL    HW114759   3.766   3.593   4.126
 4624SOL    HW214760   3.728   3.712   4.040
 4625SOL     OW14761   1.894   3.457   3.848
 4625SOL    HW114762   1.875   3.365   3.868
 4625SOL    HW214763   1.869   3.505   3.927
 4626SOL     OW14764   3.548   2.777   4.363
 4626SOL    HW114765   3.635   2.740   4.348
 4626SOL    HW214766   3.530   2.829   4.285
 4627SOL     OW14767   3.508   2.969   4.154
 4627SOL    HW114768   3.593   2.975   4.112
 4627SOL    HW214769   3.513   3.030   4.228
 4628SOL     OW14770   2.476   3.250   4.459
 4628SOL    HW114771   2.433   3.164   4.466
 4628SOL    HW214772   2.460   3.276   4.368
 4629SOL     OW14773   3.154   3.095   5.145
 4629SOL    HW114774   3.199   3.032   5.089
 4629SOL    HW214775   3.204   3.094   5.227
 4630SOL     OW14776   2.663   1.858   4.209
 4630SOL    HW114777   2.713   1.940   4.212
 4630SOL    HW214778   2.573   1.884   4.230
 4631SOL     OW14779   3.394   2.855   3.922
 4631SOL    HW114780   3.325   2.797   3.953
 4631SOL    HW214781   3.434   2.889   4.002
 4632SOL     OW14782   3.047   3.668   5.346
 4632SOL    HW114783   3.059   3.726   5.271
 4632SOL    HW214784   3.064   3.580   5.311
 4633SOL     OW14785   3.328   3.281   4.680
 4633SOL    HW114786   3.258   3.295   4.743
 4633SOL    HW214787   3.316   3.190   4.651
 4634SOL     OW14788   3.522   3.599   4.302
 4634SOL    HW114789   3.500   3.570   4.213
 4634SOL    HW214790   3.496   3.525   4.358
 4635SOL     OW14791   2.483   2.640   4.043
 4635SOL    HW114792   2.480   2.679   3.956
 4635SOL    HW214793   2.391   2.634   4.069
 4636SOL     OW14794   3.443   3.532   4.033
 4636SOL    HW114795   3.533   3.564   4.026
 4636SOL    HW214796   3.417   3.515   3.942
 4637SOL     OW14797   2.644   2.498   5.214
 4637SOL    HW114798   2.650   2.467   5.304
 4637SOL    HW214799   2.622   2.421   5.163
 4638SOL     OW14800   3.253   2.328   5.418
 4638SOL    HW114801   3.246   2.377   5.501
 4638SOL    HW214802   3.325   2.267   5.433
 4639SOL     OW14803   2.913   2.559   4.151
 4639SOL    HW114804   2.946   2.549   4.241
 4639SOL    HW214805   2.832   2.507   4.150
 4640SOL     OW14806   1.989   3.709   5.303
 4640SOL    HW114807   1.989   3.687   5.397
 4640SOL    HW214808   1.898   3.701   5.276
 4641SOL     OW14809   2.759   2.206   3.931
 4641SOL    HW114810   2.784   2.272   3.867
 4641SOL    HW214811   2.764   2.123   3.883
 4642SOL     OW14812   3.570   2.437   5.552
 4642SOL    HW114813   3.533   2.512   5.507
 4642SOL    HW214814   3.596   2.377   5.482
 4643SOL     OW14815   3.236   3.002   4.263
 4643SOL    HW114816   3.316   2.991   4.213
 4643SOL    HW214817   3.186   3.068   4.214
 4644SOL     OW14818   2.867   3.305   4.198
 4644SOL    HW114819   2.830   3.379   4.149
 4644SOL    HW214820   2.852   3.328   4.290
 4645SOL     OW14821   2.217   3.669   4.586
 4645SOL    HW114822   2.263   3.585   4.593
 4645SOL    HW214823   2.285   3.735   4.603
 4646SOL     OW14824   3.660   2.920   4.592
 4646SOL    HW114825   3.603   2.905   4.516
 4646SOL    HW214826   3.600   2.926   4.666
 4647SOL     OW14827   3.090   3.401   5.238
 4647SOL    HW114828   3.076   3.330   5.300
 4647SOL    HW214829   3.025   3.385   5.169
 4648SOL     OW14830   2.180   2.820   3.971
 4648SOL    HW114831   2.260   2.837   3.922
 4648SOL    HW214832   2.145   2.739   3.931
 4649SOL     OW14833   3.339   2.604   4.457
 4649SOL    HW114834   3.336   2.561   4.542
 4649SOL    HW214835   3.418   2.658   4.460
 4650SOL     OW14836   2.983   3.640   3.955
 4650SOL    HW114837   2.911   3.598   4.001
 4650SOL    HW214838   3.006   3.579   3.885
 4651SOL     OW14839   3.491   3.241   3.811
 4651SOL    HW114840   3.450   3.327   3.797
 4651SOL    HW214841   3.422   3.178   3.792
 4652SOL     OW14842   2.329   3.599   4.045
 4652SOL    HW114843   2.370   3.657   4.110
 4652SOL    HW214844   2.401   3.570   3.989
 4653SOL     OW14845   3.264   1.974   4.154
 4653SOL    HW114846   3.252   1.946   4.063
 4653SOL    HW214847   3.359   1.973   4.167
 4654SOL     OW14848   2.121   3.655   4.955
 4654SOL    HW114849   2.179   3.594   4.999
 4654SOL    HW214850   2.113   3.620   4.866
 4655SOL     OW14851   2.799   3.563   4.623
 4655SOL    HW114852   2.868   3.504   4.654
 4655SOL    HW214853   2.754   3.513   4.555
 4656SOL     OW14854   2.237   2.583   4.180
 4656SOL    HW114855   2.268   2.499   4.147
 4656SOL    HW214856   2.146   2.566   4.206
 4657SOL     OW14857   3.407   2.083   5.452
 4657SOL    HW114858   3.412   2.105   5.545
 4657SOL    HW214859   3.325   2.033   5.443
 4658SOL     OW14860   2.499   1.989   3.835
 4658SOL    HW114861   2.566   1.925   3.857
 4658SOL    HW214862   2.455   1.953   3.758
 4659SOL     OW14863   2.636   2.130   5.496
 4659SOL    HW114864   2.718   2.082   5.511
 4659SOL    HW214865   2.584   2.115   5.575
 4660SOL     OW14866   2.738   3.383   4.919
 4660SOL    HW114867   2.717   3.350   4.831
 4660SOL    HW214868   2.804   3.322   4.952
 4661SOL     OW14869   2.679   3.282   4.667
 4661SOL    HW114870   2.761   3.252   4.628
 4661SOL    HW214871   2.611   3.253   4.605
 4662SOL     OW14872   2.395   1.935   4.226
 4662SOL    HW114873   2.350   1.955   4.308
 4662SOL    HW214874   2.385   2.014   4.173
 4663SOL     OW14875   3.290   3.060   3.765
 4663SOL    HW114876   3.321   2.985   3.815
 4663SOL    HW214877   3.204   3.081   3.802
 4664SOL     OW14878   2.797   2.105   4.187
 4664SOL    HW114879   2.771   2.145   4.104
 4664SOL    HW214880   2.892   2.120   4.192
 4665SOL     OW14881   3.096   3.428   4.512
 4665SOL    HW114882   3.106   3.500   4.450
 4665SOL    HW214883   3.156   3.449   4.583
 4666SOL     OW14884   2.336   3.014   4.445
 4666SOL    HW114885   2.265   3.012   4.510
 4666SOL    HW214886   2.294   2.990   4.363
 4667SOL     OW14887   3.132   3.656   4.332
 4667SOL    HW114888   3.177   3.717   4.274
 4667SOL    HW214889   3.065   3.709   4.375
 4668SOL     OW14890   2.889   2.407   3.739
 4668SOL    HW114891   2.838   2.486   3.723
 4668SOL    HW214892   2.950   2.432   3.809
 4669SOL     OW14893   1.967   2.423   5.125
 4669SOL    HW114894   2.038   2.428   5.061
 4669SOL    HW214895   1.938   2.514   5.135
 4670SOL     OW14896   2.421   2.012   4.864
 4670SOL    HW114897   2.456   1.999   4.952
 4670SOL    HW214898   2.345   2.069   4.877
 4671SOL     OW14899   3.298   3.024   4.581
 4671SOL    HW114900   3.230   2.958   4.572
 4671SOL    HW214901   3.328   3.041   4.491
 4672SOL     OW14902   3.327   2.462   4.711
 4672SOL    HW114903   3.301   2.370   4.715
 4672SOL    HW214904   3.393   2.471   4.780
 4673SOL     OW14905   3.709   2.679   4.105
 4673SOL    HW114906   3.764   2.628   4.164
 4673SOL    HW214907   3.679   2.616   4.040
 4674SOL     OW14908   2.353   3.279   3.882
 4674SOL    HW114909   2.278   3.250   3.934
 4674SOL    HW214910   2.336   3.244   3.794
 4675SOL     OW14911   3.530   3.125   4.373
 4675SOL    HW114912   3.625   3.129   4.385
 4675SOL    HW214913   3.500   3.214   4.392
 4676SOL     OW14914   3.257   2.434   3.794
 4676SOL    HW114915   3.195   2.414   3.865
 4676SOL    HW214916   3.341   2.399   3.825
 4677SOL     OW14917   3.614   3.100   5.296
 4677SOL    HW114918   3.701   3.060   5.296
 4677SOL    HW214919   3.630   3.190   5.327
 4678SOL     OW14920   2.927   3.219   5.066
 4678SOL    HW114921   2.854   3.182   5.115
 4678SOL    HW214922   3.004   3.174   5.100
 4679SOL     OW14923   3.469   3.488   5.377
 4679SOL    HW114924   3.464   3.522   5.288
 4679SOL    HW214925   3.552   3.440   5.381
 4680SOL     OW14926   3.492   2.961   4.801
 4680SOL    HW114927   3.489   3.022   4.875
 4680SOL    HW214928   3.411   2.979   4.752
 4681SOL     OW14929   2.842   2.982   5.419
 4681SOL    HW114930   2.754   2.985   5.456
 4681SOL    HW214931   2.858   2.889   5.405
 4682SOL     OW14932   2.573   2.931   4.093
 4682SOL    HW114933   2.569   2.927   4.189
 4682SOL    HW214934   2.644   2.872   4.070
 4683SOL     OW14935   1.936   3.457   5.074
 4683SOL    HW114936   1.904   3.531   5.023
 4683SOL    HW214937   2.031   3.467   5.074
 4684SOL     OW14938   2.210   2.966   4.211
 4684SOL    HW114939   2.216   3.041   4.152
 4684SOL    HW214940   2.206   2.890   4.152
 4685SOL     OW14941   3.109   3.210   4.114
 4685SOL    HW114942   3.165   3.282   4.144
 4685SOL    HW214943   3.022   3.232   4.148
 4686SOL     OW14944   3.137   3.315   4.874
 4686SOL    HW114945   3.196   3.318   4.949
 4686SOL    HW214946   3.060   3.267   4.907
 4687SOL     OW14947   3.445   2.484   4.207
 4687SOL    HW114948   3.399   2.545   4.265
 4687SOL    HW214949   3.491   2.540   4.144
 4688SOL     OW14950   2.213   3.388   5.036
 4688SOL    HW114951   2.196   3.348   4.951
 4688SOL    HW214952   2.308   3.400   5.039
 4689SOL     OW14953   3.466   2.643   5.409
 4689SOL    HW114954   3.374   2.668   5.395
 4689SOL    HW214955   3.513   2.685   5.337
 4690SOL     OW14956   3.221   2.720   4.754
 4690SOL    HW114957   3.150   2.710   4.690
 4690SOL    HW214958   3.259   2.633   4.761
 4691SOL     OW14959   3.071   2.392   3.990
 4691SOL    HW114960   3.075   2.311   4.042
 4691SOL    HW214961   3.028   2.455   4.048
 4692SOL     OW14962   1.886   3.192   5.076
 4692SOL    HW114963   1.954   3.145   5.029
 4692SOL    HW214964   1.908   3.284   5.065
 4693SOL     OW14965   3.597   2.822   5.576
 4693SOL    HW114966   3.551   2.761   5.519
 4693SOL    HW214967   3.537   2.837   5.649
 4694SOL     OW14968   3.480   2.236   4.091
 4694SOL    HW114969   3.505   2.170   4.156
 4694SOL    HW214970   3.456   2.313   4.143
 4695SOL     OW14971   2.842   3.428   5.439
 4695SOL    HW114972   2.829   3.472   5.355
 4695SOL    HW214973   2.887   3.347   5.417
 4696SOL     OW14974   3.717   3.369   5.330
 4696SOL    HW114975   3.735   3.395   5.239
 4696SOL    HW214976   3.798   3.388   5.377
 4697SOL     OW14977   3.391   2.136   3.851
 4697SOL    HW114978   3.327   2.070   3.877
 4697SOL    HW214979   3.424   2.170   3.934
 4698SOL     OW14980   3.156   2.689   3.756
 4698SOL    HW114981   3.197   2.603   3.759
 4698SOL    HW214982   3.186   2.728   3.674
 4699SOL     OW14983   2.919   3.211   4.567
 4699SOL    HW114984   2.931   3.129   4.519
 4699SOL    HW214985   2.990   3.267   4.537
 4700SOL     OW14986   1.867   3.184   3.919
 4700SOL    HW114987   1.780   3.198   3.881
 4700SOL    HW214988   1.864   3.094   3.953
 4701SOL     OW14989   1.952   3.647   4.659
 4701SOL    HW114990   1.924   3.566   4.616
 4701SOL    HW214991   2.041   3.661   4.630
 4702SOL     OW14992   2.362   3.435   4.634
 4702SOL    HW114993   2.431   3.497   4.658
 4702SOL    HW214994   2.407   3.370   4.580
 4703SOL     OW14995   3.230   2.805   5.383
 4703SOL    HW114996   3.255   2.897   5.380
 4703SOL    HW214997   3.241   2.774   5.293
 4704SOL     OW14998   3.507   2.466   4.910
 4704SOL    HW114999   3.497   2.410   4.987
 4704SOL    HW215000   3.594   2.445   4.876
 4705SOL     OW15001   2.111   3.420   5.450
 4705SOL    HW115002   2.083   3.481   5.518
 4705SOL    HW215003   2.110   3.334   5.492
 4706SOL     OW15004   2.790   3.540   5.190
 4706SOL    HW115005   2.766   3.506   5.103
 4706SOL    HW215006   2.786   3.635   5.180
 4707SOL     OW15007   3.212   2.912   4.943
 4707SOL    HW115008   3.228   2.844   4.877
 4707SOL    HW215009   3.129   2.952   4.916
 4708SOL     OW15010   3.173   2.718   4.030
 4708SOL    HW115011   3.093   2.691   4.077
 4708SOL    HW215012   3.152   2.705   3.938
 4709SOL     OW15013   3.633   3.607   4.874
 4709SOL    HW115014   3.693   3.633   4.804
 4709SOL    HW215015   3.609   3.517   4.852
 4710SOL     OW15016   3.104   3.594   4.838
 4710SOL    HW115017   3.186   3.615   4.793
 4710SOL    HW215018   3.109   3.500   4.856
 4711SOL     OW15019   2.538   3.534   5.451
 4711SOL    HW115020   2.488   3.615   5.446
 4711SOL    HW215021   2.606   3.543   5.383
 4712SOL     OW15022   3.581   2.007   4.235
 4712SOL    HW115023   3.654   1.992   4.174
 4712SOL    HW215024   3.565   1.922   4.275
 4713SOL     OW15025   3.252   3.429   4.207
 4713SOL    HW115026   3.313   3.463   4.141
 4713SOL    HW215027   3.204   3.507   4.236
 4714SOL     OW15028   1.996   3.654   5.570
 4714SOL    HW115029   1.947   3.589   5.620
 4714SOL    HW215030   2.044   3.705   5.636
 4715SOL     OW15031   3.142   2.789   4.399
 4715SOL    HW115032   3.216   2.729   4.403
 4715SOL    HW215033   3.172   2.862   4.346
 4716SOL     OW15034   2.533   3.481   3.879
 4716SOL    HW115035   2.544   3.493   3.785
 4716SOL    HW215036   2.479   3.403   3.888
 4717SOL     OW15037   3.490   3.588   5.115
 4717SOL    HW115038   3.539   3.596   5.033
 4717SOL    HW215039   3.476   3.679   5.143
 4718SOL     OW15040   3.701   2.034   4.690
 4718SOL    HW115041   3.732   1.947   4.664
 4718SOL    HW215042   3.615   2.043   4.650
 4719SOL     OW15043   3.069   3.468   3.755
 4719SOL    HW115044   3.059   3.377   3.782
 4719SOL    HW215045   3.004   3.480   3.686
 4720SOL     OW15046   2.785   2.781   4.021
 4720SOL    HW115047   2.842   2.810   3.949
 4720SOL    HW215048   2.828   2.703   4.056
 4721SOL     OW15049   3.355   3.486   3.766
 4721SOL    HW115050   3.260   3.481   3.753
 4721SOL    HW215051   3.391   3.493   3.678
 4722SOL     OW15052   2.247   3.198   5.236
 4722SOL    HW115053   2.230   3.273   5.179
 4722SOL    HW215054   2.178   3.136   5.214
 4723SOL     OW15055   3.474   3.146   5.005
 4723SOL    HW115056   3.531   3.133   5.081
 4723SOL    HW215057   3.413   3.215   5.032
 4724SOL     OW15058   2.916   2.962   4.447
 4724SOL    HW115059   2.829   2.929   4.426
 4724SOL    HW215060   2.976   2.904   4.401
 4725SOL     OW15061   2.463   3.349   4.203
 4725SOL    HW115062   2.507   3.300   4.134
 4725SOL    HW215063   2.396   3.401   4.158
 4726SOL     OW15064   3.582   2.256   5.102
 4726SOL    HW115065   3.655   2.317   5.102
 4726SOL    HW215066   3.612   2.183   5.047
 4727SOL     OW15067   2.121   3.207   4.013
 4727SOL    HW115068   2.028   3.205   3.990
 4727SOL    HW215069   2.123   3.245   4.101
 4728SOL     OW15070   1.879   2.232   3.775
 4728SOL    HW115071   1.806   2.186   3.733
 4728SOL    HW215072   1.920   2.281   3.705
 4729SOL     OW15073   3.304   2.737   5.135
 4729SOL    HW115074   3.253   2.786   5.071
 4729SOL    HW215075   3.390   2.726   5.094
 4730SOL     OW15076   3.041   3.202   3.841
 4730SOL    HW115077   2.950   3.172   3.844
 4730SOL    HW215078   3.069   3.202   3.933
 4731SOL     OW15079   3.346   3.637   4.701
 4731SOL    HW115080   3.369   3.697   4.631
 4731SOL    HW215081   3.429   3.620   4.747
 4732SOL     OW15082   3.331   3.067   5.356
 4732SOL    HW115083   3.320   3.076   5.451
 4732SOL    HW215084   3.426   3.077   5.342
 4733SOL     OW15085   2.241   3.602   5.286
 4733SOL    HW115086   2.157   3.645   5.274
 4733SOL    HW215087   2.221   3.521   5.332
 4734SOL     OW15088   3.536   2.744   4.979
 4734SOL    HW115089   3.528   2.658   4.937
 4734SOL    HW215090   3.525   2.806   4.907
 4735SOL     OW15091   3.081   2.184   4.181
 4735SOL    HW115092   3.142   2.111   4.168
 4735SOL    HW215093   3.112   2.228   4.260
 4736SOL     OW15094   2.417   2.699   4.368
 4736SOL    HW115095   2.481   2.757   4.326
 4736SOL    HW215096   2.365   2.664   4.296
 4737SOL     OW15097   3.627   2.223   5.372
 4737SOL    HW115098   3.606   2.239   5.280
 4737SOL    HW215099   3.556   2.166   5.402
 4738SOL     OW15100   3.614   2.795   5.235
 4738SOL    HW115101   3.603   2.889   5.249
 4738SOL    HW215102   3.594   2.783   5.142
 4739SOL     OW15103   2.724   3.230   3.756
 4739SOL    HW115104   2.686   3.256   3.840
 4739SOL    HW215105   2.743   3.312   3.711
 4740SOL     OW15106   2.521   3.655   4.672
 4740SOL    HW115107   2.503   3.746   4.646
 4740SOL    HW215108   2.616   3.646   4.662
 4741SOL     OW15109   2.943   2.852   3.813
 4741SOL    HW115110   2.920   2.901   3.734
 4741SOL    HW215111   3.017   2.797   3.787
 4742SOL     OW15112   3.717   3.417   4.569
 4742SOL    HW115113   3.639   3.406   4.515
 4742SOL    HW215114   3.709   3.350   4.637
 4743SOL     OW15115   2.084   3.183   5.579
 4743SOL    HW115116   2.019   3.114   5.564
 4743SOL    HW215117   2.095   3.186   5.674
 4744SOL     OW15118   1.946   3.093   4.387
 4744SOL    HW115119   1.984   3.053   4.465
 4744SOL    HW215120   2.004   3.066   4.316
 4745SOL     OW15121   2.495   3.259   5.403
 4745SOL    HW115122   2.422   3.251   5.341
 4745SOL    HW215123   2.511   3.354   5.408
 4746SOL     OW15124   3.678   2.048   4.962
 4746SOL    HW115125   3.681   1.953   4.977
 4746SOL    HW215126   3.686   2.056   4.867
 4747SOL     OW15127   3.563   3.352   4.821
 4747SOL    HW115128   3.481   3.328   4.776
 4747SOL    HW215129   3.575   3.283   4.886
 4748SOL     OW15130   2.689   3.444   4.399
 4748SOL    HW115131   2.668   3.486   4.315
 4748SOL    HW215132   2.616   3.383   4.413
 4749SOL     OW15133   3.299   2.094   4.832
 4749SOL    HW115134   3.317   2.002   4.852
 4749SOL    HW215135   3.226   2.117   4.890
 4750SOL     OW15136   2.635   3.197   4.035
 4750SOL    HW115137   2.603   3.107   4.041
 4750SOL    HW215138   2.715   3.198   4.086
 4751SOL     OW15139   2.480   3.424   5.009
 4751SOL    HW115140   2.488   3.506   5.058
 4751SOL    HW215141   2.566   3.410   4.971
 4752SOL     OW15142   3.214   1.916   3.888
 4752SOL    HW115143   3.242   1.852   3.822
 4752SOL    HW215144   3.127   1.886   3.915
 4753SOL     OW15145   3.160   2.314   4.410
 4753SOL    HW115146   3.115   2.398   4.408
 4753SOL    HW215147   3.152   2.285   4.501
 4754SOL     OW15148   3.447   2.065   4.601
 4754SOL    HW115149   3.390   2.086   4.674
 4754SOL    HW215150   3.448   2.144   4.548
 4755SOL     OW15151   1.907   2.934   4.031
 4755SOL    HW115152   2.000   2.925   4.010
 4755SOL    HW215153   1.879   2.845   4.052
 4756SOL     OW15154   2.746   3.513   4.067
 4756SOL    HW115155   2.673   3.497   4.006
 4756SOL    HW215156   2.717   3.589   4.118
 4757SOL     OW15157   2.071   2.508   5.694
 4757SOL    HW115158   1.990   2.484   5.739
 4757SOL    HW215159   2.091   2.433   5.638
 4758SOL     OW15160   2.431   3.149   6.759
 4758SOL    HW115161   2.343   3.147   6.722
 4758SOL    HW215162   2.441   3.238   6.792
 4759SOL     OW15163   3.422   3.374   6.293
 4759SOL    HW115164   3.379   3.354   6.376
 4759SOL    HW215165   3.351   3.378   6.229
 4760SOL     OW15166   3.631   2.468   5.814
 4760SOL    HW115167   3.610   2.460   5.721
 4760SOL    HW215168   3.595   2.388   5.854
 4761SOL     OW15169   2.637   3.021   6.626
 4761SOL    HW115170   2.559   3.035   6.680
 4761SOL    HW215171   2.657   3.108   6.591
 4762SOL     OW15172   2.735   2.641   7.410
 4762SOL    HW115173   2.719   2.713   7.470
 4762SOL    HW215174   2.755   2.684   7.326
 4763SOL     OW15175   2.572   3.014   7.395
 4763SOL    HW115176   2.620   3.092   7.423
 4763SOL    HW215177   2.489   3.047   7.361
 4764SOL     OW15178   2.192   3.289   6.655
 4764SOL    HW115179   2.118   3.251   6.608
 4764SOL    HW215180   2.240   3.339   6.589
 4765SOL     OW15181   3.323   3.361   6.939
 4765SOL    HW115182   3.372   3.443   6.949
 4765SOL    HW215183   3.262   3.360   7.013
 4766SOL     OW15184   3.486   2.311   6.329
 4766SOL    HW115185   3.397   2.323   6.298
 4766SOL    HW215186   3.506   2.391   6.377
 4767SOL     OW15187   2.080   3.580   6.057
 4767SOL    HW115188   2.103   3.656   6.111
 4767SOL    HW215189   2.153   3.572   5.996
 4768SOL     OW15190   2.998   3.203   7.278
 4768SOL    HW115191   3.038   3.199   7.365
 4768SOL    HW215192   2.946   3.123   7.272
 4769SOL     OW15193   2.103   3.309   6.112
 4769SOL    HW115194   2.080   3.402   6.118
 4769SOL    HW215195   2.050   3.267   6.180
 4770SOL     OW15196   2.109   2.986   6.464
 4770SOL    HW115197   2.117   2.894   6.488
 4770SOL    HW215198   2.059   3.026   6.535
 4771SOL     OW15199   2.475   3.653   7.017
 4771SOL    HW115200   2.393   3.635   7.062
 4771SOL    HW215201   2.497   3.743   7.041
 4772SOL     OW15202   3.458   1.985   7.055
 4772SOL    HW115203   3.462   2.065   7.003
 4772SOL    HW215204   3.445   2.015   7.144
 4773SOL     OW15205   3.704   3.622   5.921
 4773SOL    HW115206   3.767   3.593   5.988
 4773SOL    HW215207   3.728   3.712   5.902
 4774SOL     OW15208   1.890   3.445   5.712
 4774SOL    HW115209   1.821   3.378   5.707
 4774SOL    HW215210   1.868   3.496   5.790
 4775SOL     OW15211   3.554   2.783   6.227
 4775SOL    HW115212   3.638   2.741   6.206
 4775SOL    HW215213   3.531   2.832   6.148
 4776SOL     OW15214   3.507   2.969   6.017
 4776SOL    HW115215   3.592   2.976   5.974
 4776SOL    HW215216   3.512   3.030   6.090
 4777SOL     OW15217   1.991   2.605   7.166
 4777SOL    HW115218   2.042   2.614   7.247
 4777SOL    HW215219   1.933   2.681   7.166
 4778SOL     OW15220   2.466   3.248   6.321
 4778SOL    HW115221   2.428   3.160   6.324
 4778SOL    HW215222   2.451   3.278   6.232
 4779SOL     OW15223   3.152   3.101   7.010
 4779SOL    HW115224   3.184   3.033   6.950
 4779SOL    HW215225   3.208   3.094   7.086
 4780SOL     OW15226   2.042   2.841   6.851
 4780SOL    HW115227   2.127   2.798   6.841
 4780SOL    HW215228   1.979   2.776   6.819
 4781SOL     OW15229   3.401   2.859   5.781
 4781SOL    HW115230   3.331   2.799   5.807
 4781SOL    HW215231   3.437   2.891   5.864
 4782SOL     OW15232   3.048   3.668   7.208
 4782SOL    HW115233   3.059   3.726   7.133
 4782SOL    HW215234   3.063   3.580   7.173
 4783SOL     OW15235   3.327   3.280   6.537
 4783SOL    HW115236   3.260   3.295   6.604
 4783SOL    HW215237   3.314   3.189   6.511
 4784SOL     OW15238   3.521   3.600   6.164
 4784SOL    HW115239   3.501   3.571   6.075
 4784SOL    HW215240   3.496   3.526   6.220
 4785SOL     OW15241   3.128   2.200   6.522
 4785SOL    HW115242   3.047   2.149   6.519
 4785SOL    HW215243   3.183   2.154   6.585
 4786SOL     OW15244   3.443   3.531   5.895
 4786SOL    HW115245   3.533   3.564   5.889
 4786SOL    HW215246   3.417   3.514   5.805
 4787SOL     OW15247   3.256   2.336   7.264
 4787SOL    HW115248   3.258   2.380   7.348
 4787SOL    HW215249   3.317   2.263   7.274
 4788SOL     OW15250   2.820   2.746   7.164
 4788SOL    HW115251   2.872   2.676   7.125
 4788SOL    HW215252   2.774   2.785   7.089
 4789SOL     OW15253   2.856   2.270   6.817
 4789SOL    HW115254   2.784   2.304   6.869
 4789SOL    HW215255   2.814   2.220   6.747
 4790SOL     OW15256   1.990   3.709   7.164
 4790SOL    HW115257   1.989   3.688   7.257
 4790SOL    HW215258   1.898   3.700   7.136
 4791SOL     OW15259   3.572   2.437   7.414
 4791SOL    HW115260   3.534   2.511   7.367
 4791SOL    HW215261   3.598   2.376   7.345
 4792SOL     OW15262   3.235   3.005   6.124
 4792SOL    HW115263   3.316   2.988   6.075
 4792SOL    HW215264   3.188   3.069   6.070
 4793SOL     OW15265   2.871   3.311   6.060
 4793SOL    HW115266   2.831   3.380   6.006
 4793SOL    HW215267   2.855   3.340   6.150
 4794SOL     OW15268   2.216   3.670   6.446
 4794SOL    HW115269   2.258   3.585   6.456
 4794SOL    HW215270   2.285   3.734   6.465
 4795SOL     OW15271   3.660   2.922   6.454
 4795SOL    HW115272   3.607   2.901   6.378
 4795SOL    HW215273   3.598   2.927   6.527
 4796SOL     OW15274   3.090   3.401   7.099
 4796SOL    HW115275   3.076   3.328   7.160
 4796SOL    HW215276   3.027   3.386   7.029
 4797SOL     OW15277   3.341   2.607   6.307
 4797SOL    HW115278   3.334   2.558   6.389
 4797SOL    HW215279   3.416   2.665   6.319
 4798SOL     OW15280   2.327   3.125   7.323
 4798SOL    HW115281   2.300   3.130   7.232
 4798SOL    HW215282   2.245   3.126   7.373
 4799SOL     OW15283   2.983   3.639   5.817
 4799SOL    HW115284   2.910   3.598   5.862
 4799SOL    HW215285   3.006   3.579   5.747
 4800SOL     OW15286   3.492   3.243   5.674
 4800SOL    HW115287   3.449   3.327   5.658
 4800SOL    HW215288   3.424   3.178   5.655
 4801SOL     OW15289   2.329   3.600   5.906
 4801SOL    HW115290   2.370   3.657   5.971
 4801SOL    HW215291   2.401   3.569   5.852
 4802SOL     OW15292   3.286   1.926   6.017
 4802SOL    HW115293   3.268   1.930   5.923
 4802SOL    HW215294   3.372   1.968   6.027
 4803SOL     OW15295   2.119   3.654   6.818
 4803SOL    HW115296   2.169   3.587   6.864
 4803SOL    HW215297   2.104   3.618   6.730
 4804SOL     OW15298   2.799   3.563   6.484
 4804SOL    HW115299   2.876   3.510   6.509
 4804SOL    HW215300   2.755   3.511   6.417
 4805SOL     OW15301   3.398   2.087   7.311
 4805SOL    HW115302   3.407   2.108   7.404
 4805SOL    HW215303   3.330   2.020   7.309
 4806SOL     OW15304   2.503   1.997   5.694
 4806SOL    HW115305   2.551   1.923   5.731
 4806SOL    HW215306   2.434   1.957   5.641
 4807SOL     OW15307   2.626   2.122   7.321
 4807SOL    HW115308   2.700   2.068   7.347
 4807SOL    HW215309   2.582   2.145   7.403
 4808SOL     OW15310   2.740   3.387   6.782
 4808SOL    HW115311   2.722   3.351   6.695
 4808SOL    HW215312   2.808   3.330   6.818
 4809SOL     OW15313   3.198   2.456   7.021
 4809SOL    HW115314   3.231   2.422   7.104
 4809SOL    HW215315   3.240   2.542   7.012
 4810SOL     OW15316   2.678   3.274   6.529
 4810SOL    HW115317   2.760   3.260   6.481
 4810SOL    HW215318   2.611   3.272   6.461
 4811SOL     OW15319   3.292   3.062   5.626
 4811SOL    HW115320   3.323   2.984   5.674
 4811SOL    HW215321   3.205   3.078   5.661
 4812SOL     OW15322   2.932   2.524   7.038
 4812SOL    HW115323   2.895   2.448   7.082
 4812SOL    HW215324   3.025   2.505   7.031
 4813SOL     OW15325   3.086   3.431   6.381
 4813SOL    HW115326   3.102   3.498   6.314
 4813SOL    HW215327   3.155   3.446   6.446
 4814SOL     OW15328   3.131   3.656   6.194
 4814SOL    HW115329   3.177   3.716   6.136
 4814SOL    HW215330   3.066   3.710   6.238
 4815SOL     OW15331   1.934   2.428   6.963
 4815SOL    HW115332   2.022   2.391   6.959
 4815SOL    HW215333   1.938   2.492   7.034
 4816SOL     OW15334   3.294   3.024   6.440
 4816SOL    HW115335   3.234   2.949   6.433
 4816SOL    HW215336   3.325   3.037   6.351
 4817SOL     OW15337   3.328   2.470   6.571
 4817SOL    HW115338   3.286   2.384   6.572
 4817SOL    HW215339   3.391   2.467   6.643
 4818SOL     OW15340   3.708   2.679   5.969
 4818SOL    HW115341   3.764   2.627   6.026
 4818SOL    HW215342   3.680   2.617   5.901
 4819SOL     OW15343   2.358   3.273   5.743
 4819SOL    HW115344   2.280   3.250   5.795
 4819SOL    HW215345   2.332   3.256   5.652
 4820SOL     OW15346   3.531   3.127   6.233
 4820SOL    HW115347   3.626   3.129   6.247
 4820SOL    HW215348   3.502   3.215   6.254
 4821SOL     OW15349   3.258   2.435   5.669
 4821SOL    HW115350   3.212   2.424   5.752
 4821SOL    HW215351   3.347   2.404   5.687
 4822SOL     OW15352   3.615   3.100   7.160
 4822SOL    HW115353   3.702   3.061   7.157
 4822SOL    HW215354   3.630   3.190   7.189
 4823SOL     OW15355   2.921   3.216   6.921
 4823SOL    HW115356   2.846   3.185   6.971
 4823SOL    HW215357   2.997   3.174   6.962
 4824SOL     OW15358   3.469   3.488   7.239
 4824SOL    HW115359   3.464   3.521   7.150
 4824SOL    HW215360   3.552   3.440   7.242
 4825SOL     OW15361   2.990   3.066   6.693
 4825SOL    HW115362   2.932   3.098   6.762
 4825SOL    HW215363   2.951   3.099   6.612
 4826SOL     OW15364   3.490   2.961   6.664
 4826SOL    HW115365   3.487   3.023   6.737
 4826SOL    HW215366   3.409   2.975   6.616
 4827SOL     OW15367   2.794   1.950   6.980
 4827SOL    HW115368   2.817   1.933   6.889
 4827SOL    HW215369   2.871   1.993   7.017
 4828SOL     OW15370   2.846   2.975   7.307
 4828SOL    HW115371   2.754   2.991   7.327
 4828SOL    HW215372   2.845   2.897   7.251
 4829SOL     OW15373   2.260   2.684   6.847
 4829SOL    HW115374   2.339   2.709   6.895
 4829SOL    HW215375   2.234   2.600   6.884
 4830SOL     OW15376   3.129   2.242   6.861
 4830SOL    HW115377   3.159   2.320   6.908
 4830SOL    HW215378   3.039   2.263   6.836
 4831SOL     OW15379   1.932   3.435   6.939
 4831SOL    HW115380   1.900   3.505   6.882
 4831SOL    HW215381   2.027   3.440   6.932
 4832SOL     OW15382   3.108   3.211   5.975
 4832SOL    HW115383   3.166   3.281   6.003
 4832SOL    HW215384   3.022   3.237   6.008
 4833SOL     OW15385   3.142   3.318   6.732
 4833SOL    HW115386   3.197   3.321   6.810
 4833SOL    HW215387   3.086   3.242   6.745
 4834SOL     OW15388   3.438   2.487   6.057
 4834SOL    HW115389   3.399   2.536   6.129
 4834SOL    HW215390   3.487   2.552   6.007
 4835SOL     OW15391   2.209   3.389   6.902
 4835SOL    HW115392   2.196   3.347   6.817
 4835SOL    HW215393   2.304   3.401   6.909
 4836SOL     OW15394   3.462   2.640   7.267
 4836SOL    HW115395   3.376   2.681   7.261
 4836SOL    HW215396   3.515   2.682   7.199
 4837SOL     OW15397   2.863   1.981   7.348
 4837SOL    HW115398   2.912   2.055   7.312
 4837SOL    HW215399   2.911   1.903   7.319
 4838SOL     OW15400   2.356   1.897   7.340
 4838SOL    HW115401   2.320   1.846   7.267
 4838SOL    HW215402   2.289   1.961   7.360
 4839SOL     OW15403   3.224   2.722   6.619
 4839SOL    HW115404   3.155   2.723   6.552
 4839SOL    HW215405   3.262   2.634   6.612
 4840SOL     OW15406   1.901   3.172   6.869
 4840SOL    HW115407   1.940   3.119   6.939
 4840SOL    HW215408   1.913   3.263   6.899
 4841SOL     OW15409   2.643   2.538   6.679
 4841SOL    HW115410   2.661   2.483   6.603
 4841SOL    HW215411   2.604   2.617   6.644
 4842SOL     OW15412   3.596   2.822   7.438
 4842SOL    HW115413   3.550   2.761   7.380
 4842SOL    HW215414   3.537   2.834   7.512
 4843SOL     OW15415   3.486   2.236   5.954
 4843SOL    HW115416   3.514   2.172   6.020
 4843SOL    HW215417   3.463   2.314   6.004
 4844SOL     OW15418   2.844   3.428   7.302
 4844SOL    HW115419   2.829   3.472   7.219
 4844SOL    HW215420   2.887   3.346   7.279
 4845SOL     OW15421   3.717   3.369   7.192
 4845SOL    HW115422   3.735   3.395   7.101
 4845SOL    HW215423   3.798   3.388   7.239
 4846SOL     OW15424   2.225   2.763   7.380
 4846SOL    HW115425   2.294   2.796   7.438
 4846SOL    HW215426   2.272   2.734   7.302
 4847SOL     OW15427   3.394   2.140   5.714
 4847SOL    HW115428   3.332   2.071   5.739
 4847SOL    HW215429   3.430   2.172   5.797
 4848SOL     OW15430   3.163   2.694   5.625
 4848SOL    HW115431   3.193   2.604   5.614
 4848SOL    HW215432   3.177   2.734   5.539
 4849SOL     OW15433   2.935   3.205   6.440
 4849SOL    HW115434   2.964   3.134   6.383
 4849SOL    HW215435   2.991   3.279   6.418
 4850SOL     OW15436   2.995   2.246   7.261
 4850SOL    HW115437   2.949   2.295   7.329
 4850SOL    HW215438   3.084   2.280   7.263
 4851SOL     OW15439   3.025   2.069   7.054
 4851SOL    HW115440   3.013   2.130   7.127
 4851SOL    HW215441   3.068   2.120   6.986
 4852SOL     OW15442   1.952   3.651   6.525
 4852SOL    HW115443   1.918   3.572   6.482
 4852SOL    HW215444   2.041   3.660   6.491
 4853SOL     OW15445   2.357   3.437   6.492
 4853SOL    HW115446   2.427   3.498   6.515
 4853SOL    HW215447   2.398   3.373   6.435
 4854SOL     OW15448   2.847   2.679   6.819
 4854SOL    HW115449   2.887   2.626   6.889
 4854SOL    HW215450   2.779   2.622   6.784
 4855SOL     OW15451   3.239   2.801   7.244
 4855SOL    HW115452   3.259   2.895   7.244
 4855SOL    HW215453   3.238   2.777   7.151
 4856SOL     OW15454   3.506   2.463   6.775
 4856SOL    HW115455   3.496   2.403   6.848
 4856SOL    HW215456   3.593   2.444   6.739
 4857SOL     OW15457   2.107   3.414   7.314
 4857SOL    HW115458   2.083   3.478   7.381
 4857SOL    HW215459   2.107   3.330   7.361
 4858SOL     OW15460   2.791   3.541   7.053
 4858SOL    HW115461   2.765   3.507   6.968
 4858SOL    HW215462   2.786   3.636   7.043
 4859SOL     OW15463   2.009   3.004   7.061
 4859SOL    HW115464   2.011   2.949   7.140
 4859SOL    HW215465   2.023   2.943   6.989
 4860SOL     OW15466   3.190   2.910   6.810
 4860SOL    HW115467   3.211   2.845   6.743
 4860SOL    HW215468   3.118   2.961   6.772
 4861SOL     OW15469   3.187   2.720   5.888
 4861SOL    HW115470   3.117   2.672   5.933
 4861SOL    HW215471   3.166   2.711   5.795
 4862SOL     OW15472   3.633   3.607   6.736
 4862SOL    HW115473   3.693   3.633   6.666
 4862SOL    HW215474   3.609   3.517   6.714
 4863SOL     OW15475   3.102   3.594   6.699
 4863SOL    HW115476   3.185   3.615   6.654
 4863SOL    HW215477   3.108   3.501   6.718
 4864SOL     OW15478   1.944   3.149   6.605
 4864SOL    HW115479   1.926   3.150   6.699
 4864SOL    HW215480   1.883   3.083   6.570
 4865SOL     OW15481   2.539   3.527   7.314
 4865SOL    HW115482   2.486   3.606   7.310
 4865SOL    HW215483   2.604   3.538   7.244
 4866SOL     OW15484   3.581   2.007   6.096
 4866SOL    HW115485   3.655   1.992   6.037
 4866SOL    HW215486   3.565   1.922   6.137
 4867SOL     OW15487   3.252   3.429   6.070
 4867SOL    HW115488   3.313   3.461   6.003
 4867SOL    HW215489   3.204   3.508   6.098
 4868SOL     OW15490   1.998   3.658   7.429
 4868SOL    HW115491   1.947   3.593   7.477
 4868SOL    HW215492   2.045   3.707   7.496
 4869SOL     OW15493   3.147   2.804   6.291
 4869SOL    HW115494   3.202   2.728   6.275
 4869SOL    HW215495   3.167   2.865   6.220
 4870SOL     OW15496   2.678   3.138   7.015
 4870SOL    HW115497   2.649   3.176   7.097
 4870SOL    HW215498   2.606   3.155   6.954
 4871SOL     OW15499   2.533   3.480   5.741
 4871SOL    HW115500   2.543   3.493   5.647
 4871SOL    HW215501   2.481   3.400   5.749
 4872SOL     OW15502   3.490   3.588   6.977
 4872SOL    HW115503   3.539   3.596   6.896
 4872SOL    HW215504   3.476   3.679   7.005
 4873SOL     OW15505   3.702   2.034   6.553
 4873SOL    HW115506   3.732   1.948   6.526
 4873SOL    HW215507   3.616   2.044   6.513
 4874SOL     OW15508   3.068   3.468   5.617
 4874SOL    HW115509   3.060   3.377   5.643
 4874SOL    HW215510   3.003   3.480   5.548
 4875SOL     OW15511   2.686   2.869   6.963
 4875SOL    HW115512   2.733   2.855   6.881
 4875SOL    HW215513   2.688   2.964   6.976
 4876SOL     OW15514   3.354   3.488   5.628
 4876SOL    HW115515   3.260   3.481   5.615
 4876SOL    HW215516   3.391   3.493   5.540
 4877SOL     OW15517   2.231   3.165   7.078
 4877SOL    HW115518   2.217   3.242   7.023
 4877SOL    HW215519   2.155   3.110   7.062
 4878SOL     OW15520   3.473   3.145   6.867
 4878SOL    HW115521   3.532   3.134   6.942
 4878SOL    HW215522   3.413   3.214   6.894
 4879SOL     OW15523   2.465   3.356   6.071
 4879SOL    HW115524   2.508   3.306   6.002
 4879SOL    HW215525   2.393   3.401   6.026
 4880SOL     OW15526   3.583   2.255   6.966
 4880SOL    HW115527   3.655   2.317   6.965
 4880SOL    HW215528   3.613   2.183   6.910
 4881SOL     OW15529   2.116   3.222   5.859
 4881SOL    HW115530   2.021   3.227   5.852
 4881SOL    HW215531   2.134   3.248   5.950
 4882SOL     OW15532   1.977   2.883   7.309
 4882SOL    HW115533   1.898   2.860   7.359
 4882SOL    HW215534   2.048   2.839   7.356
 4883SOL     OW15535   2.552   2.036   7.074
 4883SOL    HW115536   2.640   2.013   7.044
 4883SOL    HW215537   2.566   2.070   7.163
 4884SOL     OW15538   3.293   2.720   6.986
 4884SOL    HW115539   3.244   2.781   6.930
 4884SOL    HW215540   3.382   2.723   6.952
 4885SOL     OW15541   1.910   2.064   5.913
 4885SOL    HW115542   1.913   2.142   5.858
 4885SOL    HW215543   2.002   2.042   5.929
 4886SOL     OW15544   3.041   3.201   5.700
 4886SOL    HW115545   2.947   3.185   5.700
 4886SOL    HW215546   3.066   3.201   5.793
 4887SOL     OW15547   2.476   2.703   7.008
 4887SOL    HW115548   2.542   2.771   6.994
 4887SOL    HW215549   2.526   2.627   7.038
 4888SOL     OW15550   3.346   3.637   6.563
 4888SOL    HW115551   3.370   3.698   6.493
 4888SOL    HW215552   3.428   3.620   6.609
 4889SOL     OW15553   3.333   3.063   7.218
 4889SOL    HW115554   3.320   3.076   7.312
 4889SOL    HW215555   3.426   3.077   7.204
 4890SOL     OW15556   2.242   3.601   7.150
 4890SOL    HW115557   2.157   3.643   7.136
 4890SOL    HW215558   2.222   3.518   7.192
 4891SOL     OW15559   3.532   2.744   6.842
 4891SOL    HW115560   3.526   2.658   6.799
 4891SOL    HW215561   3.523   2.807   6.770
 4892SOL     OW15562   3.625   2.223   7.236
 4892SOL    HW115563   3.607   2.238   7.143
 4892SOL    HW215564   3.554   2.166   7.265
 4893SOL     OW15565   3.606   2.796   7.098
 4893SOL    HW115566   3.605   2.891   7.111
 4893SOL    HW215567   3.592   2.784   7.005
 4894SOL     OW15568   2.745   3.232   5.632
 4894SOL    HW115569   2.686   3.259   5.702
 4894SOL    HW215570   2.747   3.307   5.572
 4895SOL     OW15571   2.523   3.654   6.530
 4895SOL    HW115572   2.502   3.745   6.508
 4895SOL    HW215573   2.618   3.650   6.524
 4896SOL     OW15574   2.706   2.782   6.523
 4896SOL    HW115575   2.801   2.776   6.532
 4896SOL    HW215576   2.684   2.870   6.554
 4897SOL     OW15577   3.717   3.417   6.431
 4897SOL    HW115578   3.639   3.405   6.376
 4897SOL    HW215579   3.710   3.349   6.498
 4898SOL     OW15580   2.087   3.165   7.442
 4898SOL    HW115581   2.018   3.106   7.412
 4898SOL    HW215582   2.068   3.179   7.535
 4899SOL     OW15583   1.961   3.142   6.271
 4899SOL    HW115584   1.992   3.093   6.347
 4899SOL    HW215585   1.976   3.083   6.197
 4900SOL     OW15586   2.542   3.265   7.212
 4900SOL    HW115587   2.462   3.221   7.243
 4900SOL    HW215588   2.538   3.352   7.251
 4901SOL     OW15589   3.675   2.047   6.824
 4901SOL    HW115590   3.684   1.953   6.839
 4901SOL    HW215591   3.685   2.057   6.730
 4902SOL     OW15592   3.562   3.352   6.684
 4902SOL    HW115593   3.481   3.328   6.638
 4902SOL    HW215594   3.575   3.283   6.748
 4903SOL     OW15595   2.689   3.436   6.262
 4903SOL    HW115596   2.681   3.494   6.186
 4903SOL    HW215597   2.608   3.385   6.263
 4904SOL     OW15598   3.295   2.089   6.703
 4904SOL    HW115599   3.314   2.005   6.745
 4904SOL    HW215600   3.245   2.137   6.770
 4905SOL     OW15601   2.631   3.204   5.902
 4905SOL    HW115602   2.597   3.115   5.896
 4905SOL    HW215603   2.713   3.195   5.951
 4906SOL     OW15604   2.481   3.420   6.870
 4906SOL    HW115605   2.484   3.501   6.921
 4906SOL    HW215606   2.569   3.412   6.834
 4907SOL     OW15607   3.228   1.915   5.740
 4907SOL    HW115608   3.266   1.849   5.683
 4907SOL    HW215609   3.138   1.886   5.754
 4908SOL     OW15610   3.217   2.343   6.316
 4908SOL    HW115611   3.156   2.416   6.307
 4908SOL    HW215612   3.181   2.290   6.388
 4909SOL     OW15613   3.449   2.064   6.463
 4909SOL    HW115614   3.389   2.086   6.534
 4909SOL    HW215615   3.452   2.144   6.409
 4910SOL     OW15616   2.746   3.515   5.928
 4910SOL    HW115617   2.674   3.496   5.868
 4910SOL    HW215618   2.716   3.589   5.979
 4911SOL     OW15619   2.055   2.534   7.560
 4911SOL    HW115620   1.980   2.505   7.613
 4911SOL    HW215621   2.070   2.461   7.500
 4912SOL     OW15622   1.846   2.254   8.083
 4912SOL    HW115623   1.764   2.278   8.126
 4912SOL    HW215624   1.833   2.163   8.056
 4913SOL     OW15625   2.429   3.148   8.623
 4913SOL    HW115626   2.341   3.152   8.584
 4913SOL    HW215627   2.444   3.237   8.656
 4914SOL     OW15628   3.422   3.374   8.155
 4914SOL    HW115629   3.379   3.354   8.238
 4914SOL    HW215630   3.351   3.378   8.091
 4915SOL     OW15631   2.994   2.560   8.152
 4915SOL    HW115632   3.043   2.641   8.136
 4915SOL    HW215633   2.950   2.573   8.236
 4916SOL     OW15634   3.630   2.468   7.677
 4916SOL    HW115635   3.609   2.459   7.584
 4916SOL    HW215636   3.592   2.389   7.717
 4917SOL     OW15637   2.616   3.004   8.487
 4917SOL    HW115638   2.548   3.039   8.544
 4917SOL    HW215639   2.652   3.081   8.443
 4918SOL     OW15640   2.731   2.641   9.268
 4918SOL    HW115641   2.720   2.712   9.331
 4918SOL    HW215642   2.754   2.684   9.186
 4919SOL     OW15643   2.564   2.907   8.095
 4919SOL    HW115644   2.622   2.882   8.166
 4919SOL    HW215645   2.487   2.944   8.138
 4920SOL     OW15646   2.573   3.015   9.256
 4920SOL    HW115647   2.621   3.093   9.283
 4920SOL    HW215648   2.490   3.049   9.221
 4921SOL     OW15649   2.193   3.288   8.516
 4921SOL    HW115650   2.120   3.251   8.466
 4921SOL    HW215651   2.243   3.339   8.452
 4922SOL     OW15652   3.323   3.361   8.801
 4922SOL    HW115653   3.372   3.443   8.811
 4922SOL    HW215654   3.262   3.360   8.876
 4923SOL     OW15655   3.474   2.311   8.188
 4923SOL    HW115656   3.399   2.334   8.134
 4923SOL    HW215657   3.490   2.388   8.242
 4924SOL     OW15658   2.082   3.576   7.921
 4924SOL    HW115659   2.103   3.652   7.974
 4924SOL    HW215660   2.153   3.569   7.858
 4925SOL     OW15661   2.998   3.204   9.141
 4925SOL    HW115662   3.038   3.199   9.227
 4925SOL    HW215663   2.946   3.124   9.134
 4926SOL     OW15664   2.093   3.303   7.983
 4926SOL    HW115665   2.075   3.397   7.987
 4926SOL    HW215666   2.032   3.264   8.046
 4927SOL     OW15667   2.118   2.953   8.339
 4927SOL    HW115668   2.113   2.867   8.380
 4927SOL    HW215669   2.060   3.008   8.391
 4928SOL     OW15670   2.475   3.653   8.878
 4928SOL    HW115671   2.392   3.635   8.924
 4928SOL    HW215672   2.497   3.743   8.903
 4929SOL     OW15673   2.444   2.847   7.577
 4929SOL    HW115674   2.491   2.896   7.509
 4929SOL    HW215675   2.483   2.876   7.659
 4930SOL     OW15676   3.458   1.985   8.916
 4930SOL    HW115677   3.462   2.065   8.865
 4930SOL    HW215678   3.444   2.014   9.006
 4931SOL     OW15679   1.969   2.506   8.010
 4931SOL    HW115680   1.934   2.420   8.034
 4931SOL    HW215681   1.965   2.557   8.091
 4932SOL     OW15682   3.704   3.622   7.783
 4932SOL    HW115683   3.766   3.593   7.850
 4932SOL    HW215684   3.728   3.712   7.764
 4933SOL     OW15685   1.894   3.457   7.572
 4933SOL    HW115686   1.875   3.365   7.592
 4933SOL    HW215687   1.870   3.504   7.652
 4934SOL     OW15688   3.551   2.781   8.089
 4934SOL    HW115689   3.635   2.740   8.069
 4934SOL    HW215690   3.530   2.831   8.010
 4935SOL     OW15691   3.508   2.969   7.877
 4935SOL    HW115692   3.594   2.976   7.835
 4935SOL    HW215693   3.512   3.030   7.951
 4936SOL     OW15694   1.996   2.607   9.027
 4936SOL    HW115695   2.037   2.608   9.113
 4936SOL    HW215696   1.939   2.683   9.026
 4937SOL     OW15697   2.475   3.248   8.184
 4937SOL    HW115698   2.428   3.164   8.193
 4937SOL    HW215699   2.459   3.274   8.093
 4938SOL     OW15700   3.151   3.100   8.872
 4938SOL    HW115701   3.183   3.033   8.811
 4938SOL    HW215702   3.208   3.093   8.948
 4939SOL     OW15703   2.672   1.864   7.955
 4939SOL    HW115704   2.713   1.948   7.936
 4939SOL    HW215705   2.578   1.884   7.962
 4940SOL     OW15706   2.040   2.838   8.716
 4940SOL    HW115707   2.127   2.803   8.700
 4940SOL    HW215708   1.981   2.777   8.673
 4941SOL     OW15709   3.394   2.854   7.646
 4941SOL    HW115710   3.323   2.798   7.677
 4941SOL    HW215711   3.434   2.889   7.726
 4942SOL     OW15712   3.047   3.668   9.070
 4942SOL    HW115713   3.059   3.726   8.995
 4942SOL    HW215714   3.063   3.580   9.034
 4943SOL     OW15715   3.328   3.282   8.400
 4943SOL    HW115716   3.260   3.296   8.465
 4943SOL    HW215717   3.316   3.191   8.373
 4944SOL     OW15718   3.521   3.599   8.026
 4944SOL    HW115719   3.500   3.570   7.937
 4944SOL    HW215720   3.496   3.526   8.082
 4945SOL     OW15721   2.494   2.620   7.740
 4945SOL    HW115722   2.486   2.684   7.669
 4945SOL    HW215723   2.403   2.600   7.764
 4946SOL     OW15724   3.141   2.213   8.380
 4946SOL    HW115725   3.052   2.180   8.389
 4946SOL    HW215726   3.192   2.160   8.442
 4947SOL     OW15727   3.443   3.532   7.757
 4947SOL    HW115728   3.533   3.564   7.750
 4947SOL    HW215729   3.417   3.515   7.667
 4948SOL     OW15730   2.669   2.461   8.907
 4948SOL    HW115731   2.671   2.464   9.003
 4948SOL    HW215732   2.594   2.404   8.888
 4949SOL     OW15733   3.256   2.336   9.126
 4949SOL    HW115734   3.257   2.380   9.211
 4949SOL    HW215735   3.317   2.263   9.136
 4950SOL     OW15736   2.817   2.749   9.028
 4950SOL    HW115737   2.874   2.681   8.992
 4950SOL    HW215738   2.772   2.786   8.952
 4951SOL     OW15739   2.863   2.274   8.687
 4951SOL    HW115740   2.785   2.309   8.728
 4951SOL    HW215741   2.831   2.233   8.606
 4952SOL     OW15742   2.935   2.573   7.878
 4952SOL    HW115743   2.943   2.563   7.973
 4952SOL    HW215744   2.854   2.528   7.855
 4953SOL     OW15745   1.951   2.682   8.224
 4953SOL    HW115746   2.033   2.678   8.274
 4953SOL    HW215747   1.906   2.759   8.257
 4954SOL     OW15748   1.989   3.708   9.025
 4954SOL    HW115749   1.989   3.687   9.119
 4954SOL    HW215750   1.897   3.702   8.999
 4955SOL     OW15751   2.756   2.211   7.645
 4955SOL    HW115752   2.798   2.269   7.580
 4955SOL    HW215753   2.759   2.124   7.604
 4956SOL     OW15754   3.572   2.437   9.276
 4956SOL    HW115755   3.534   2.511   9.229
 4956SOL    HW215756   3.598   2.376   9.207
 4957SOL     OW15757   3.239   3.005   7.990
 4957SOL    HW115758   3.317   2.991   7.937
 4957SOL    HW215759   3.185   3.066   7.939
 4958SOL     OW15760   2.869   3.307   7.920
 4958SOL    HW115761   2.830   3.380   7.872
 4958SOL    HW215762   2.852   3.328   8.012
 4959SOL     OW15763   2.216   3.670   8.309
 4959SOL    HW115764   2.260   3.585   8.317
 4959SOL    HW215765   2.285   3.734   8.327
 4960SOL     OW15766   3.660   2.922   8.316
 4960SOL    HW115767   3.605   2.902   8.240
 4960SOL    HW215768   3.598   2.926   8.389
 4961SOL     OW15769   3.090   3.401   8.961
 4961SOL    HW115770   3.076   3.328   9.021
 4961SOL    HW215771   3.028   3.385   8.890
 4962SOL     OW15772   2.185   2.810   7.698
 4962SOL    HW115773   2.266   2.828   7.651
 4962SOL    HW215774   2.147   2.735   7.652
 4963SOL     OW15775   3.340   2.602   8.174
 4963SOL    HW115776   3.330   2.560   8.259
 4963SOL    HW215777   3.417   2.659   8.185
 4964SOL     OW15778   2.327   3.126   9.185
 4964SOL    HW115779   2.300   3.131   9.094
 4964SOL    HW215780   2.245   3.126   9.235
 4965SOL     OW15781   2.983   3.640   7.679
 4965SOL    HW115782   2.911   3.597   7.725
 4965SOL    HW215783   3.006   3.579   7.609
 4966SOL     OW15784   3.491   3.242   7.535
 4966SOL    HW115785   3.450   3.327   7.520
 4966SOL    HW215786   3.422   3.178   7.517
 4967SOL     OW15787   2.328   3.600   7.769
 4967SOL    HW115788   2.370   3.657   7.833
 4967SOL    HW215789   2.400   3.569   7.713
 4968SOL     OW15790   3.263   1.970   7.880
 4968SOL    HW115791   3.252   1.945   7.788
 4968SOL    HW215792   3.358   1.976   7.892
 4969SOL     OW15793   2.117   3.654   8.680
 4969SOL    HW115794   2.169   3.588   8.726
 4969SOL    HW215795   2.107   3.618   8.592
 4970SOL     OW15796   2.800   3.560   8.348
 4970SOL    HW115797   2.877   3.508   8.368
 4970SOL    HW215798   2.755   3.511   8.278
 4971SOL     OW15799   3.398   2.087   9.173
 4971SOL    HW115800   3.407   2.108   9.266
 4971SOL    HW215801   3.329   2.021   9.170
 4972SOL     OW15802   2.501   1.982   7.559
 4972SOL    HW115803   2.572   1.918   7.567
 4972SOL    HW215804   2.452   1.954   7.482
 4973SOL     OW15805   2.633   2.116   9.199
 4973SOL    HW115806   2.712   2.063   9.204
 4973SOL    HW215807   2.589   2.103   9.282
 4974SOL     OW15808   2.738   3.383   8.642
 4974SOL    HW115809   2.723   3.347   8.554
 4974SOL    HW215810   2.808   3.329   8.678
 4975SOL     OW15811   3.203   2.451   8.881
 4975SOL    HW115812   3.234   2.420   8.965
 4975SOL    HW215813   3.239   2.539   8.873
 4976SOL     OW15814   2.676   3.258   8.387
 4976SOL    HW115815   2.761   3.246   8.343
 4976SOL    HW215816   2.612   3.258   8.316
 4977SOL     OW15817   2.788   2.369   8.356
 4977SOL    HW115818   2.765   2.364   8.263
 4977SOL    HW215819   2.825   2.283   8.377
 4978SOL     OW15820   2.402   1.934   7.951
 4978SOL    HW115821   2.343   1.943   8.026
 4978SOL    HW215822   2.385   2.012   7.898
 4979SOL     OW15823   3.290   3.060   7.489
 4979SOL    HW115824   3.321   2.984   7.539
 4979SOL    HW215825   3.204   3.080   7.527
 4980SOL     OW15826   2.798   2.110   7.906
 4980SOL    HW115827   2.776   2.148   7.821
 4980SOL    HW215828   2.893   2.120   7.914
 4981SOL     OW15829   2.942   2.543   8.904
 4981SOL    HW115830   2.876   2.474   8.909
 4981SOL    HW215831   3.026   2.496   8.898
 4982SOL     OW15832   3.086   3.432   8.242
 4982SOL    HW115833   3.103   3.499   8.176
 4982SOL    HW215834   3.154   3.445   8.307
 4983SOL     OW15835   2.328   3.012   8.183
 4983SOL    HW115836   2.259   2.993   8.245
 4983SOL    HW215837   2.289   2.994   8.097
 4984SOL     OW15838   3.132   3.656   8.055
 4984SOL    HW115839   3.177   3.717   7.997
 4984SOL    HW215840   3.066   3.710   8.100
 4985SOL     OW15841   2.887   2.405   7.468
 4985SOL    HW115842   2.836   2.484   7.449
 4985SOL    HW215843   2.948   2.431   7.536
 4986SOL     OW15844   1.945   2.425   8.827
 4986SOL    HW115845   2.034   2.393   8.843
 4986SOL    HW215846   1.931   2.492   8.894
 4987SOL     OW15847   2.736   2.316   8.093
 4987SOL    HW115848   2.699   2.382   8.034
 4987SOL    HW215849   2.755   2.241   8.036
 4988SOL     OW15850   2.875   1.914   8.201
 4988SOL    HW115851   2.819   1.905   8.124
 4988SOL    HW215852   2.854   1.839   8.255
 4989SOL     OW15853   3.298   3.025   8.305
 4989SOL    HW115854   3.230   2.958   8.305
 4989SOL    HW215855   3.321   3.036   8.213
 4990SOL     OW15856   3.329   2.467   8.426
 4990SOL    HW115857   3.278   2.385   8.430
 4990SOL    HW215858   3.389   2.461   8.500
 4991SOL     OW15859   3.709   2.679   7.830
 4991SOL    HW115860   3.764   2.627   7.889
 4991SOL    HW215861   3.680   2.616   7.764
 4992SOL     OW15862   2.353   3.279   7.606
 4992SOL    HW115863   2.278   3.250   7.658
 4992SOL    HW215864   2.337   3.243   7.519
 4993SOL     OW15865   3.532   3.127   8.093
 4993SOL    HW115866   3.627   3.130   8.108
 4993SOL    HW215867   3.501   3.215   8.116
 4994SOL     OW15868   3.256   2.434   7.519
 4994SOL    HW115869   3.194   2.415   7.590
 4994SOL    HW215870   3.340   2.401   7.551
 4995SOL     OW15871   3.615   3.100   9.022
 4995SOL    HW115872   3.702   3.061   9.019
 4995SOL    HW215873   3.630   3.190   9.051
 4996SOL     OW15874   2.921   3.217   8.783
 4996SOL    HW115875   2.847   3.186   8.834
 4996SOL    HW215876   2.997   3.175   8.823
 4997SOL     OW15877   3.469   3.488   9.101
 4997SOL    HW115878   3.464   3.522   9.012
 4997SOL    HW215879   3.552   3.440   9.104
 4998SOL     OW15880   2.992   3.067   8.554
 4998SOL    HW115881   2.930   3.102   8.619
 4998SOL    HW215882   2.957   3.096   8.470
 4999SOL     OW15883   3.491   2.960   8.526
 4999SOL    HW115884   3.486   3.023   8.599
 4999SOL    HW215885   3.411   2.977   8.476
 5000SOL     OW15886   2.786   1.956   8.845
 5000SOL    HW115887   2.807   1.939   8.753
 5000SOL    HW215888   2.865   1.997   8.881
 5001SOL     OW15889   2.846   2.976   9.169
 5001SOL    HW115890   2.754   2.992   9.190
 5001SOL    HW215891   2.845   2.898   9.113
 5002SOL     OW15892   2.570   2.926   7.815
 5002SOL    HW115893   2.562   2.920   7.910
 5002SOL    HW215894   2.643   2.870   7.793
 5003SOL     OW15895   2.276   2.706   8.699
 5003SOL    HW115896   2.345   2.716   8.764
 5003SOL    HW215897   2.245   2.616   8.710
 5004SOL     OW15898   3.132   2.239   8.723
 5004SOL    HW115899   3.163   2.317   8.769
 5004SOL    HW215900   3.042   2.259   8.699
 5005SOL     OW15901   1.932   3.435   8.800
 5005SOL    HW115902   1.901   3.508   8.746
 5005SOL    HW215903   2.027   3.440   8.795
 5006SOL     OW15904   2.213   2.968   7.937
 5006SOL    HW115905   2.218   3.046   7.881
 5006SOL    HW215906   2.209   2.895   7.875
 5007SOL     OW15907   3.110   3.210   7.837
 5007SOL    HW115908   3.166   3.282   7.868
 5007SOL    HW215909   3.023   3.231   7.871
 5008SOL     OW15910   3.142   3.319   8.594
 5008SOL    HW115911   3.197   3.321   8.672
 5008SOL    HW215912   3.087   3.241   8.605
 5009SOL     OW15913   3.444   2.485   7.926
 5009SOL    HW115914   3.397   2.538   7.991
 5009SOL    HW215915   3.487   2.550   7.870
 5010SOL     OW15916   2.209   3.389   8.764
 5010SOL    HW115917   2.196   3.346   8.679
 5010SOL    HW215918   2.304   3.401   8.770
 5011SOL     OW15919   3.463   2.641   9.130
 5011SOL    HW115920   3.376   2.681   9.122
 5011SOL    HW215921   3.515   2.682   9.061
 5012SOL     OW15922   2.867   1.979   9.207
 5012SOL    HW115923   2.918   2.053   9.175
 5012SOL    HW215924   2.915   1.902   9.178
 5013SOL     OW15925   2.358   1.904   9.202
 5013SOL    HW115926   2.318   1.852   9.133
 5013SOL    HW215927   2.309   1.986   9.203
 5014SOL     OW15928   2.434   2.739   8.473
 5014SOL    HW115929   2.481   2.822   8.469
 5014SOL    HW215930   2.386   2.743   8.556
 5015SOL     OW15931   3.220   2.721   8.478
 5015SOL    HW115932   3.135   2.711   8.434
 5015SOL    HW215933   3.259   2.634   8.473
 5016SOL     OW15934   3.069   2.391   7.716
 5016SOL    HW115935   3.074   2.312   7.770
 5016SOL    HW215936   3.033   2.458   7.773
 5017SOL     OW15937   1.909   3.173   8.724
 5017SOL    HW115938   1.941   3.119   8.797
 5017SOL    HW215939   1.915   3.263   8.757
 5018SOL     OW15940   2.640   2.552   8.533
 5018SOL    HW115941   2.666   2.493   8.463
 5018SOL    HW215942   2.569   2.604   8.497
 5019SOL     OW15943   3.596   2.822   9.300
 5019SOL    HW115944   3.550   2.761   9.242
 5019SOL    HW215945   3.536   2.834   9.374
 5020SOL     OW15946   3.478   2.236   7.815
 5020SOL    HW115947   3.505   2.172   7.881
 5020SOL    HW215948   3.455   2.314   7.865
 5021SOL     OW15949   2.902   2.621   8.408
 5021SOL    HW115950   2.895   2.646   8.500
 5021SOL    HW215951   2.863   2.534   8.404
 5022SOL     OW15952   2.844   3.428   9.164
 5022SOL    HW115953   2.829   3.472   9.081
 5022SOL    HW215954   2.887   3.346   9.141
 5023SOL     OW15955   3.717   3.369   9.054
 5023SOL    HW115956   3.734   3.395   8.963
 5023SOL    HW215957   3.798   3.388   9.100
 5024SOL     OW15958   2.224   2.770   9.246
 5024SOL    HW115959   2.294   2.801   9.302
 5024SOL    HW215960   2.268   2.719   9.178
 5025SOL     OW15961   3.392   2.135   7.575
 5025SOL    HW115962   3.327   2.070   7.601
 5025SOL    HW215963   3.425   2.171   7.658
 5026SOL     OW15964   3.154   2.689   7.479
 5026SOL    HW115965   3.197   2.603   7.483
 5026SOL    HW215966   3.186   2.727   7.398
 5027SOL     OW15967   2.926   3.198   8.301
 5027SOL    HW115968   2.930   3.125   8.239
 5027SOL    HW215969   2.989   3.261   8.266
 5028SOL     OW15970   2.175   2.673   8.391
 5028SOL    HW115971   2.266   2.701   8.390
 5028SOL    HW215972   2.176   2.590   8.439
 5029SOL     OW15973   2.996   2.240   9.127
 5029SOL    HW115974   2.949   2.293   9.192
 5029SOL    HW215975   3.084   2.278   9.125
 5030SOL     OW15976   3.025   2.066   8.918
 5030SOL    HW115977   3.013   2.128   8.989
 5030SOL    HW215978   3.064   2.117   8.847
 5031SOL     OW15979   1.867   3.183   7.642
 5031SOL    HW115980   1.780   3.197   7.605
 5031SOL    HW215981   1.864   3.093   7.676
 5032SOL     OW15982   1.952   3.649   8.386
 5032SOL    HW115983   1.922   3.570   8.342
 5032SOL    HW215984   2.042   3.661   8.354
 5033SOL     OW15985   2.359   3.436   8.354
 5033SOL    HW115986   2.428   3.498   8.378
 5033SOL    HW215987   2.403   3.372   8.298
 5034SOL     OW15988   2.854   2.670   8.674
 5034SOL    HW115989   2.891   2.630   8.753
 5034SOL    HW215990   2.773   2.621   8.659
 5035SOL     OW15991   1.900   2.415   8.560
 5035SOL    HW115992   1.965   2.355   8.522
 5035SOL    HW215993   1.922   2.418   8.653
 5036SOL     OW15994   3.238   2.802   9.106
 5036SOL    HW115995   3.259   2.895   9.105
 5036SOL    HW215996   3.236   2.776   9.014
 5037SOL     OW15997   2.715   2.453   7.795
 5037SOL    HW115998   2.707   2.377   7.739
 5037SOL    HW215999   2.640   2.508   7.773
 5038SOL     OW16000   3.504   2.464   8.635
 5038SOL    HW116001   3.494   2.404   8.709
 5038SOL    HW216002   3.591   2.443   8.600
 5039SOL     OW16003   2.107   3.414   9.176
 5039SOL    HW116004   2.083   3.478   9.243
 5039SOL    HW216005   2.107   3.330   9.223
 5040SOL     OW16006   2.790   3.541   8.916
 5040SOL    HW116007   2.765   3.507   8.830
 5040SOL    HW216008   2.786   3.636   8.905
 5041SOL     OW16009   2.007   3.004   8.924
 5041SOL    HW116010   2.010   2.950   9.003
 5041SOL    HW216011   2.020   2.943   8.852
 5042SOL     OW16012   3.189   2.910   8.671
 5042SOL    HW116013   3.212   2.846   8.604
 5042SOL    HW216014   3.118   2.961   8.633
 5043SOL     OW16015   3.172   2.719   7.755
 5043SOL    HW116016   3.098   2.686   7.806
 5043SOL    HW216017   3.147   2.705   7.664
 5044SOL     OW16018   3.634   3.607   8.598
 5044SOL    HW116019   3.693   3.633   8.528
 5044SOL    HW216020   3.609   3.517   8.577
 5045SOL     OW16021   3.103   3.595   8.562
 5045SOL    HW116022   3.185   3.615   8.517
 5045SOL    HW216023   3.108   3.501   8.580
 5046SOL     OW16024   1.946   3.128   8.461
 5046SOL    HW116025   1.932   3.141   8.554
 5046SOL    HW216026   1.872   3.075   8.432
 5047SOL     OW16027   2.539   3.527   9.176
 5047SOL    HW116028   2.486   3.607   9.171
 5047SOL    HW216029   2.604   3.538   9.106
 5048SOL     OW16030   3.581   2.007   7.958
 5048SOL    HW116031   3.654   1.993   7.898
 5048SOL    HW216032   3.565   1.922   7.998
 5049SOL     OW16033   3.252   3.430   7.932
 5049SOL    HW116034   3.313   3.462   7.865
 5049SOL    HW216035   3.204   3.507   7.960
 5050SOL     OW16036   1.999   3.658   9.291
 5050SOL    HW116037   1.947   3.593   9.339
 5050SOL    HW216038   2.045   3.707   9.358
 5051SOL     OW16039   3.140   2.787   8.119
 5051SOL    HW116040   3.213   2.726   8.125
 5051SOL    HW216041   3.173   2.860   8.067
 5052SOL     OW16042   2.678   3.137   8.878
 5052SOL    HW116043   2.650   3.175   8.961
 5052SOL    HW216044   2.607   3.158   8.817
 5053SOL     OW16045   2.533   3.481   7.604
 5053SOL    HW116046   2.544   3.493   7.509
 5053SOL    HW216047   2.479   3.403   7.612
 5054SOL     OW16048   3.490   3.588   8.840
 5054SOL    HW116049   3.539   3.596   8.758
 5054SOL    HW216050   3.477   3.679   8.867
 5055SOL     OW16051   3.702   2.035   8.416
 5055SOL    HW116052   3.732   1.948   8.387
 5055SOL    HW216053   3.616   2.045   8.375
 5056SOL     OW16054   3.069   3.468   7.479
 5056SOL    HW116055   3.059   3.377   7.507
 5056SOL    HW216056   3.004   3.480   7.410
 5057SOL     OW16057   2.689   2.871   8.821
 5057SOL    HW116058   2.735   2.861   8.738
 5057SOL    HW216059   2.691   2.965   8.839
 5058SOL     OW16060   2.780   2.777   7.737
 5058SOL    HW116061   2.842   2.808   7.671
 5058SOL    HW216062   2.827   2.708   7.783
 5059SOL     OW16063   3.354   3.487   7.490
 5059SOL    HW116064   3.260   3.481   7.477
 5059SOL    HW216065   3.391   3.493   7.402
 5060SOL     OW16066   2.231   3.164   8.940
 5060SOL    HW116067   2.218   3.242   8.885
 5060SOL    HW216068   2.154   3.110   8.925
 5061SOL     OW16069   3.473   3.145   8.729
 5061SOL    HW116070   3.532   3.134   8.804
 5061SOL    HW216071   3.413   3.214   8.755
 5062SOL     OW16072   2.915   2.969   8.155
 5062SOL    HW116073   2.844   2.918   8.194
 5062SOL    HW216074   2.976   2.903   8.122
 5063SOL     OW16075   2.881   2.101   8.414
 5063SOL    HW116076   2.878   2.053   8.331
 5063SOL    HW216077   2.879   2.033   8.481
 5064SOL     OW16078   2.465   3.351   7.929
 5064SOL    HW116079   2.508   3.300   7.861
 5064SOL    HW216080   2.396   3.399   7.884
 5065SOL     OW16081   3.583   2.254   8.828
 5065SOL    HW116082   3.655   2.317   8.827
 5065SOL    HW216083   3.613   2.183   8.772
 5066SOL     OW16084   2.121   3.207   7.736
 5066SOL    HW116085   2.028   3.205   7.713
 5066SOL    HW216086   2.123   3.244   7.824
 5067SOL     OW16087   1.976   2.882   9.169
 5067SOL    HW116088   1.898   2.859   9.221
 5067SOL    HW216089   2.049   2.841   9.216
 5068SOL     OW16090   2.545   2.045   8.944
 5068SOL    HW116091   2.631   2.024   8.907
 5068SOL    HW216092   2.564   2.078   9.032
 5069SOL     OW16093   1.881   2.235   7.490
 5069SOL    HW116094   1.805   2.191   7.451
 5069SOL    HW216095   1.923   2.280   7.417
 5070SOL     OW16096   3.293   2.721   8.849
 5070SOL    HW116097   3.243   2.780   8.793
 5070SOL    HW216098   3.382   2.723   8.814
 5071SOL     OW16099   3.041   3.203   7.565
 5071SOL    HW116100   2.951   3.170   7.568
 5071SOL    HW216101   3.070   3.202   7.656
 5072SOL     OW16102   2.487   2.700   8.872
 5072SOL    HW116103   2.542   2.777   8.860
 5072SOL    HW216104   2.548   2.627   8.881
 5073SOL     OW16105   3.346   3.638   8.426
 5073SOL    HW116106   3.370   3.697   8.354
 5073SOL    HW216107   3.428   3.620   8.470
 5074SOL     OW16108   3.333   3.063   9.080
 5074SOL    HW116109   3.321   3.076   9.174
 5074SOL    HW216110   3.426   3.077   9.066
 5075SOL     OW16111   2.242   3.601   9.012
 5075SOL    HW116112   2.157   3.642   8.998
 5075SOL    HW216113   2.222   3.518   9.054
 5076SOL     OW16114   3.532   2.743   8.704
 5076SOL    HW116115   3.525   2.658   8.661
 5076SOL    HW216116   3.523   2.807   8.632
 5077SOL     OW16117   3.078   2.180   7.907
 5077SOL    HW116118   3.142   2.110   7.898
 5077SOL    HW216119   3.108   2.230   7.983
 5078SOL     OW16120   2.511   2.647   8.111
 5078SOL    HW116121   2.535   2.738   8.093
 5078SOL    HW216122   2.425   2.637   8.073
 5079SOL     OW16123   3.625   2.223   9.098
 5079SOL    HW116124   3.608   2.238   9.005
 5079SOL    HW216125   3.553   2.166   9.127
 5080SOL     OW16126   3.607   2.796   8.960
 5080SOL    HW116127   3.604   2.890   8.973
 5080SOL    HW216128   3.592   2.783   8.867
 5081SOL     OW16129   2.723   3.229   7.480
 5081SOL    HW116130   2.686   3.256   7.565
 5081SOL    HW216131   2.743   3.312   7.436
 5082SOL     OW16132   2.522   3.654   8.394
 5082SOL    HW116133   2.502   3.745   8.370
 5082SOL    HW216134   2.617   3.648   8.386
 5083SOL     OW16135   2.730   2.830   8.304
 5083SOL    HW116136   2.776   2.755   8.342
 5083SOL    HW216137   2.697   2.878   8.380
 5084SOL     OW16138   2.944   2.854   7.537
 5084SOL    HW116139   2.921   2.901   7.457
 5084SOL    HW216140   3.017   2.798   7.511
 5085SOL     OW16141   3.717   3.417   8.293
 5085SOL    HW116142   3.639   3.405   8.238
 5085SOL    HW216143   3.710   3.349   8.360
 5086SOL     OW16144   2.087   3.165   9.304
 5086SOL    HW116145   2.017   3.107   9.274
 5086SOL    HW216146   2.068   3.179   9.397
 5087SOL     OW16147   1.945   3.097   8.113
 5087SOL    HW116148   1.947   3.047   8.195
 5087SOL    HW216149   2.013   3.056   8.059
 5088SOL     OW16150   2.542   3.265   9.074
 5088SOL    HW116151   2.462   3.222   9.105
 5088SOL    HW216152   2.538   3.353   9.112
 5089SOL     OW16153   3.675   2.046   8.686
 5089SOL    HW116154   3.684   1.952   8.700
 5089SOL    HW216155   3.685   2.058   8.592
 5090SOL     OW16156   3.562   3.352   8.546
 5090SOL    HW116157   3.481   3.328   8.500
 5090SOL    HW216158   3.574   3.282   8.610
 5091SOL     OW16159   2.688   3.440   8.126
 5091SOL    HW116160   2.677   3.490   8.045
 5091SOL    HW216161   2.612   3.383   8.130
 5092SOL     OW16162   3.294   2.086   8.566
 5092SOL    HW116163   3.320   2.007   8.612
 5092SOL    HW216164   3.243   2.136   8.629
 5093SOL     OW16165   2.871   1.881   8.590
 5093SOL    HW116166   2.818   1.810   8.553
 5093SOL    HW216167   2.960   1.844   8.593
 5094SOL     OW16168   2.634   3.195   7.761
 5094SOL    HW116169   2.602   3.105   7.766
 5094SOL    HW216170   2.716   3.195   7.811
 5095SOL     OW16171   2.482   3.419   8.733
 5095SOL    HW116172   2.485   3.501   8.783
 5095SOL    HW216173   2.569   3.411   8.695
 5096SOL     OW16174   3.214   1.915   7.613
 5096SOL    HW116175   3.241   1.852   7.546
 5096SOL    HW216176   3.127   1.886   7.639
 5097SOL     OW16177   3.159   2.322   8.130
 5097SOL    HW116178   3.106   2.402   8.137
 5097SOL    HW216179   3.155   2.283   8.217
 5098SOL     OW16180   3.449   2.065   8.325
 5098SOL    HW116181   3.387   2.084   8.396
 5098SOL    HW216182   3.448   2.143   8.270
 5099SOL     OW16183   1.905   2.933   7.755
 5099SOL    HW116184   1.999   2.925   7.738
 5099SOL    HW216185   1.876   2.844   7.777
 5100SOL     OW16186   2.745   3.514   7.791
 5100SOL    HW116187   2.673   3.496   7.731
 5100SOL    HW216188   2.716   3.590   7.842
 5101SOL     OW16189   2.063   2.525   9.418
 5101SOL    HW116190   1.978   2.500   9.455
 5101SOL    HW216191   2.081   2.457   9.352
 5102SOL     OW16192   1.838   2.268   9.936
 5102SOL    HW116193   1.757   2.290   9.983
 5102SOL    HW216194   1.829   2.175   9.914
 5103SOL     OW16195   2.429   3.148  10.485
 5103SOL    HW116196   2.341   3.151  10.446
 5103SOL    HW216197   2.443   3.237  10.518
 5104SOL     OW16198   3.422   3.374  10.016
 5104SOL    HW116199   3.379   3.354  10.100
 5104SOL    HW216200   3.351   3.378   9.953
 5105SOL     OW16201   2.992   2.560  10.011
 5105SOL    HW116202   3.041   2.641   9.996
 5105SOL    HW216203   2.949   2.574  10.096
 5106SOL     OW16204   3.629   2.468   9.539
 5106SOL    HW116205   3.608   2.460   9.446
 5106SOL    HW216206   3.593   2.389   9.579
 5107SOL     OW16207   2.618   3.005  10.350
 5107SOL    HW116208   2.549   3.039  10.406
 5107SOL    HW216209   2.653   3.082  10.305
 5108SOL     OW16210   2.691   2.673   0.030
 5108SOL    HW116211   2.719   2.718   0.109
 5108SOL    HW216212   2.743   2.714  11.060
 5109SOL     OW16213   2.554   2.884   9.956
 5109SOL    HW116214   2.616   2.863  10.026
 5109SOL    HW216215   2.482   2.930  10.000
 5110SOL     OW16216   2.194   3.287  10.377
 5110SOL    HW116217   2.120   3.251  10.328
 5110SOL    HW216218   2.243   3.338  10.312
 5111SOL     OW16219   3.326   3.361  10.659
 5111SOL    HW116220   3.380   3.440  10.668
 5111SOL    HW216221   3.272   3.361  10.739
 5112SOL     OW16222   3.474   2.310  10.050
 5112SOL    HW116223   3.399   2.334   9.996
 5112SOL    HW216224   3.491   2.389  10.103
 5113SOL     OW16225   2.082   3.575   9.783
 5113SOL    HW116226   2.103   3.652   9.836
 5113SOL    HW216227   2.154   3.569   9.720
 5114SOL     OW16228   2.093   3.302   9.845
 5114SOL    HW116229   2.076   3.397   9.849
 5114SOL    HW216230   2.031   3.265   9.908
 5115SOL     OW16231   2.118   2.956  10.200
 5115SOL    HW116232   2.114   2.869  10.239
 5115SOL    HW216233   2.059   3.010  10.254
 5116SOL     OW16234   2.474   3.651  10.739
 5116SOL    HW116235   2.393   3.632  10.788
 5116SOL    HW216236   2.496   3.741  10.764
 5117SOL     OW16237   2.443   2.853   9.436
 5117SOL    HW116238   2.491   2.901   9.368
 5117SOL    HW216239   2.482   2.882   9.518
 5118SOL     OW16240   3.450   1.979  10.778
 5118SOL    HW116241   3.464   2.059  10.728
 5118SOL    HW216242   3.455   2.007  10.870
 5119SOL     OW16243   1.969   2.509   9.868
 5119SOL    HW116244   1.933   2.423   9.893
 5119SOL    HW216245   1.969   2.559   9.950
 5120SOL     OW16246   3.704   3.622   9.645
 5120SOL    HW116247   3.766   3.593   9.712
 5120SOL    HW216248   3.728   3.712   9.626
 5121SOL     OW16249   1.894   3.457   9.434
 5121SOL    HW116250   1.875   3.365   9.454
 5121SOL    HW216251   1.870   3.505   9.514
 5122SOL     OW16252   3.551   2.781   9.951
 5122SOL    HW116253   3.635   2.740   9.931
 5122SOL    HW216254   3.530   2.831   9.871
 5123SOL     OW16255   3.508   2.969   9.739
 5123SOL    HW116256   3.593   2.976   9.697
 5123SOL    HW216257   3.512   3.030   9.813
 5124SOL     OW16258   1.995   2.603  10.891
 5124SOL    HW116259   2.026   2.602  10.981
 5124SOL    HW216260   1.937   2.679  10.886
 5125SOL     OW16261   2.475   3.247  10.046
 5125SOL    HW116262   2.429   3.164  10.055
 5125SOL    HW216263   2.459   3.274   9.955
 5126SOL     OW16264   3.157   3.099  10.752
 5126SOL    HW116265   3.181   3.039  10.681
 5126SOL    HW216266   3.213   3.075  10.825
 5127SOL     OW16267   2.674   1.862   9.818
 5127SOL    HW116268   2.714   1.947   9.797
 5127SOL    HW216269   2.580   1.881   9.825
 5128SOL     OW16270   2.042   2.838  10.572
 5128SOL    HW116271   2.127   2.794  10.565
 5128SOL    HW216272   1.980   2.775  10.537
 5129SOL     OW16273   3.394   2.855   9.508
 5129SOL    HW116274   3.324   2.797   9.539
 5129SOL    HW216275   3.434   2.889   9.588
 5130SOL     OW16276   3.058   3.668  10.927
 5130SOL    HW116277   3.057   3.731  10.855
 5130SOL    HW216278   3.066   3.583  10.884
 5131SOL     OW16279   3.329   3.282  10.261
 5131SOL    HW116280   3.260   3.297  10.326
 5131SOL    HW216281   3.316   3.191  10.234
 5132SOL     OW16282   3.521   3.600   9.888
 5132SOL    HW116283   3.500   3.571   9.799
 5132SOL    HW216284   3.496   3.526   9.944
 5133SOL     OW16285   2.518   2.640   9.606
 5133SOL    HW116286   2.513   2.692   9.526
 5133SOL    HW216287   2.431   2.648   9.645
 5134SOL     OW16288   3.141   2.213  10.243
 5134SOL    HW116289   3.052   2.180  10.250
 5134SOL    HW216290   3.192   2.160  10.304
 5135SOL     OW16291   3.443   3.532   9.619
 5135SOL    HW116292   3.533   3.564   9.612
 5135SOL    HW216293   3.417   3.515   9.529
 5136SOL     OW16294   2.830   2.756  10.902
 5136SOL    HW116295   2.873   2.682  10.860
 5136SOL    HW216296   2.781   2.799  10.832
 5137SOL     OW16297   2.860   2.270  10.547
 5137SOL    HW116298   2.778   2.303  10.584
 5137SOL    HW216299   2.834   2.230  10.464
 5138SOL     OW16300   2.919   2.565   9.736
 5138SOL    HW116301   2.932   2.558   9.831
 5138SOL    HW216302   2.838   2.517   9.719
 5139SOL     OW16303   1.951   2.685  10.083
 5139SOL    HW116304   2.032   2.680  10.133
 5139SOL    HW216305   1.905   2.761  10.119
 5140SOL     OW16306   1.990   3.705  10.897
 5140SOL    HW116307   1.972   3.670  10.984
 5140SOL    HW216308   1.905   3.706  10.852
 5141SOL     OW16309   2.755   2.208   9.504
 5141SOL    HW116310   2.795   2.270   9.443
 5141SOL    HW216311   2.764   2.123   9.462
 5142SOL     OW16312   3.238   3.004   9.852
 5142SOL    HW116313   3.317   2.991   9.799
 5142SOL    HW216314   3.186   3.066   9.801
 5143SOL     OW16315   2.869   3.307   9.783
 5143SOL    HW116316   2.830   3.380   9.733
 5143SOL    HW216317   2.852   3.328   9.874
 5144SOL     OW16318   2.216   3.670  10.171
 5144SOL    HW116319   2.260   3.585  10.179
 5144SOL    HW216320   2.285   3.734  10.189
 5145SOL     OW16321   3.660   2.921  10.178
 5145SOL    HW116322   3.605   2.902  10.102
 5145SOL    HW216323   3.599   2.926  10.251
 5146SOL     OW16324   3.089   3.400  10.824
 5146SOL    HW116325   3.098   3.312  10.861
 5146SOL    HW216326   3.028   3.390  10.752
 5147SOL     OW16327   2.189   2.807   9.562
 5147SOL    HW116328   2.267   2.830   9.511
 5147SOL    HW216329   2.150   2.734   9.514
 5148SOL     OW16330   3.340   2.603  10.037
 5148SOL    HW116331   3.330   2.560  10.122
 5148SOL    HW216332   3.417   2.659  10.047
 5149SOL     OW16333   2.314   3.130  11.053
 5149SOL    HW116334   2.286   3.140  10.962
 5149SOL    HW216335   2.249   3.071  11.091
 5150SOL     OW16336   2.983   3.640   9.541
 5150SOL    HW116337   2.911   3.597   9.587
 5150SOL    HW216338   3.006   3.579   9.471
 5151SOL     OW16339   3.491   3.242   9.397
 5151SOL    HW116340   3.450   3.327   9.382
 5151SOL    HW216341   3.422   3.178   9.379
 5152SOL     OW16342   2.328   3.599   9.631
 5152SOL    HW116343   2.370   3.657   9.695
 5152SOL    HW216344   2.400   3.569   9.575
 5153SOL     OW16345   3.263   1.970   9.742
 5153SOL    HW116346   3.252   1.945   9.650
 5153SOL    HW216347   3.358   1.976   9.754
 5154SOL     OW16348   2.116   3.654  10.543
 5154SOL    HW116349   2.168   3.591  10.593
 5154SOL    HW216350   2.108   3.616  10.456
 5155SOL     OW16351   2.800   3.560  10.210
 5155SOL    HW116352   2.878   3.509  10.229
 5155SOL    HW216353   2.756   3.511  10.141
 5156SOL     OW16354   2.505   1.986   9.417
 5156SOL    HW116355   2.567   1.916   9.436
 5156SOL    HW216356   2.449   1.951   9.347
 5157SOL     OW16357   2.625   2.144  11.048
 5157SOL    HW116358   2.690   2.086  11.089
 5157SOL    HW216359   2.559   2.158   0.015
 5158SOL     OW16360   2.737   3.383  10.504
 5158SOL    HW116361   2.722   3.348  10.416
 5158SOL    HW216362   2.810   3.331  10.538
 5159SOL     OW16363   3.200   2.457  10.756
 5159SOL    HW116364   3.253   2.433  10.831
 5159SOL    HW216365   3.231   2.543  10.731
 5160SOL     OW16366   2.677   3.257  10.249
 5160SOL    HW116367   2.761   3.246  10.204
 5160SOL    HW216368   2.612   3.258  10.178
 5161SOL     OW16369   2.785   2.366  10.219
 5161SOL    HW116370   2.770   2.362  10.124
 5161SOL    HW216371   2.822   2.281  10.241
 5162SOL     OW16372   2.405   1.932   9.817
 5162SOL    HW116373   2.352   1.948   9.894
 5162SOL    HW216374   2.401   2.013   9.767
 5163SOL     OW16375   3.290   3.060   9.351
 5163SOL    HW116376   3.321   2.984   9.401
 5163SOL    HW216377   3.205   3.080   9.388
 5164SOL     OW16378   2.798   2.107   9.767
 5164SOL    HW116379   2.773   2.148   9.684
 5164SOL    HW216380   2.893   2.118   9.772
 5165SOL     OW16381   2.929   2.534  10.766
 5165SOL    HW116382   2.880   2.465  10.811
 5165SOL    HW216383   3.019   2.501  10.763
 5166SOL     OW16384   3.085   3.432  10.104
 5166SOL    HW116385   3.102   3.499  10.037
 5166SOL    HW216386   3.154   3.446  10.169
 5167SOL     OW16387   2.329   3.012  10.044
 5167SOL    HW116388   2.259   2.994  10.107
 5167SOL    HW216389   2.290   2.995   9.959
 5168SOL     OW16390   3.132   3.656   9.917
 5168SOL    HW116391   3.177   3.717   9.859
 5168SOL    HW216392   3.066   3.710   9.962
 5169SOL     OW16393   2.886   2.405   9.330
 5169SOL    HW116394   2.837   2.485   9.311
 5169SOL    HW216395   2.949   2.430   9.397
 5170SOL     OW16396   1.958   2.415  10.692
 5170SOL    HW116397   2.043   2.377  10.714
 5170SOL    HW216398   1.946   2.486  10.755
 5171SOL     OW16399   2.751   2.313   9.952
 5171SOL    HW116400   2.716   2.377   9.890
 5171SOL    HW216401   2.769   2.235   9.899
 5172SOL     OW16402   2.874   1.915  10.063
 5172SOL    HW116403   2.819   1.905   9.985
 5172SOL    HW216404   2.854   1.839  10.117
 5173SOL     OW16405   3.298   3.025  10.167
 5173SOL    HW116406   3.230   2.957  10.166
 5173SOL    HW216407   3.322   3.036  10.075
 5174SOL     OW16408   3.328   2.468  10.288
 5174SOL    HW116409   3.279   2.385  10.290
 5174SOL    HW216410   3.389   2.462  10.362
 5175SOL     OW16411   3.709   2.679   9.692
 5175SOL    HW116412   3.764   2.627   9.750
 5175SOL    HW216413   3.680   2.616   9.625
 5176SOL     OW16414   2.353   3.279   9.468
 5176SOL    HW116415   2.278   3.250   9.520
 5176SOL    HW216416   2.337   3.243   9.381
 5177SOL     OW16417   3.532   3.127   9.956
 5177SOL    HW116418   3.626   3.130   9.970
 5177SOL    HW216419   3.501   3.215   9.977
 5178SOL     OW16420   3.256   2.434   9.381
 5178SOL    HW116421   3.195   2.415   9.452
 5178SOL    HW216422   3.340   2.401   9.413
 5179SOL     OW16423   3.621   3.091  10.869
 5179SOL    HW116424   3.712   3.062  10.872
 5179SOL    HW216425   3.622   3.178  10.909
 5180SOL     OW16426   2.926   3.217  10.650
 5180SOL    HW116427   2.848   3.183  10.694
 5180SOL    HW216428   2.998   3.168  10.690
 5181SOL     OW16429   2.991   3.069  10.416
 5181SOL    HW116430   2.925   3.102  10.477
 5181SOL    HW216431   2.960   3.096  10.330
 5182SOL     OW16432   3.491   2.961  10.388
 5182SOL    HW116433   3.487   3.022  10.461
 5182SOL    HW216434   3.411   2.978  10.338
 5183SOL     OW16435   2.792   1.955  10.707
 5183SOL    HW116436   2.812   1.939  10.615
 5183SOL    HW216437   2.871   1.998  10.741
 5184SOL     OW16438   2.570   2.929   9.679
 5184SOL    HW116439   2.559   2.916   9.773
 5184SOL    HW216440   2.644   2.873   9.655
 5185SOL     OW16441   2.267   2.688  10.579
 5185SOL    HW116442   2.342   2.707  10.635
 5185SOL    HW216443   2.231   2.607  10.613
 5186SOL     OW16444   3.131   2.242  10.589
 5186SOL    HW116445   3.160   2.322  10.633
 5186SOL    HW216446   3.041   2.261  10.561
 5187SOL     OW16447   1.932   3.438  10.661
 5187SOL    HW116448   1.902   3.510  10.605
 5187SOL    HW216449   2.027   3.441  10.655
 5188SOL     OW16450   2.214   2.968   9.799
 5188SOL    HW116451   2.219   3.046   9.743
 5188SOL    HW216452   2.209   2.895   9.737
 5189SOL     OW16453   3.110   3.210   9.699
 5189SOL    HW116454   3.166   3.282   9.730
 5189SOL    HW216455   3.023   3.231   9.733
 5190SOL     OW16456   3.141   3.320  10.455
 5190SOL    HW116457   3.197   3.323  10.532
 5190SOL    HW216458   3.088   3.241  10.466
 5191SOL     OW16459   3.444   2.485   9.788
 5191SOL    HW116460   3.397   2.539   9.852
 5191SOL    HW216461   3.488   2.549   9.732
 5192SOL     OW16462   2.208   3.386  10.625
 5192SOL    HW116463   2.196   3.344  10.540
 5192SOL    HW216464   2.302   3.401  10.631
 5193SOL     OW16465   3.456   2.623  10.969
 5193SOL    HW116466   3.379   2.679  10.962
 5193SOL    HW216467   3.526   2.672  10.926
 5194SOL     OW16468   2.432   2.738  10.344
 5194SOL    HW116469   2.479   2.821  10.336
 5194SOL    HW216470   2.386   2.745  10.428
 5195SOL     OW16471   3.219   2.723  10.344
 5195SOL    HW116472   3.137   2.713  10.297
 5195SOL    HW216473   3.260   2.636  10.338
 5196SOL     OW16474   3.069   2.391   9.578
 5196SOL    HW116475   3.075   2.312   9.632
 5196SOL    HW216476   3.027   2.456   9.634
 5197SOL     OW16477   1.913   3.174  10.585
 5197SOL    HW116478   1.939   3.119  10.659
 5197SOL    HW216479   1.914   3.264  10.620
 5198SOL     OW16480   2.642   2.540  10.399
 5198SOL    HW116481   2.663   2.475  10.332
 5198SOL    HW216482   2.571   2.592  10.361
 5199SOL     OW16483   3.478   2.236   9.677
 5199SOL    HW116484   3.505   2.172   9.744
 5199SOL    HW216485   3.455   2.314   9.728
 5200SOL     OW16486   2.898   2.621  10.268
 5200SOL    HW116487   2.894   2.645  10.361
 5200SOL    HW216488   2.858   2.534  10.264
 5201SOL     OW16489   2.835   3.434  11.004
 5201SOL    HW116490   2.821   3.484  10.924
 5201SOL    HW216491   2.867   3.349  10.974
 5202SOL     OW16492   3.719   3.356  10.912
 5202SOL    HW116493   3.734   3.391  10.824
 5202SOL    HW216494   3.785   3.399  10.966
 5203SOL     OW16495   2.230   2.768  11.082
 5203SOL    HW116496   2.309   2.797   0.027
 5203SOL    HW216497   2.262   2.720  11.006
 5204SOL     OW16498   3.392   2.135   9.437
 5204SOL    HW116499   3.327   2.070   9.463
 5204SOL    HW216500   3.424   2.171   9.520
 5205SOL     OW16501   3.155   2.688   9.341
 5205SOL    HW116502   3.197   2.603   9.345
 5205SOL    HW216503   3.186   2.727   9.260
 5206SOL     OW16504   2.928   3.197  10.164
 5206SOL    HW116505   2.930   3.124  10.101
 5206SOL    HW216506   2.989   3.261  10.129
 5207SOL     OW16507   2.171   2.682  10.253
 5207SOL    HW116508   2.264   2.703  10.255
 5207SOL    HW216509   2.163   2.603  10.306
 5208SOL     OW16510   3.024   2.072  10.783
 5208SOL    HW116511   3.034   2.128  10.859
 5208SOL    HW216512   3.063   2.121  10.711
 5209SOL     OW16513   1.867   3.183   9.504
 5209SOL    HW116514   1.780   3.198   9.466
 5209SOL    HW216515   1.863   3.093   9.538
 5210SOL     OW16516   1.951   3.650  10.247
 5210SOL    HW116517   1.922   3.570  10.204
 5210SOL    HW216518   2.041   3.662  10.217
 5211SOL     OW16519   2.359   3.436  10.215
 5211SOL    HW116520   2.428   3.498  10.239
 5211SOL    HW216521   2.403   3.372  10.159
 5212SOL     OW16522   2.850   2.668  10.535
 5212SOL    HW116523   2.886   2.626  10.614
 5212SOL    HW216524   2.771   2.618  10.515
 5213SOL     OW16525   1.902   2.421  10.425
 5213SOL    HW116526   1.946   2.346  10.385
 5213SOL    HW216527   1.928   2.418  10.517
 5214SOL     OW16528   2.693   2.431   9.674
 5214SOL    HW116529   2.683   2.358   9.613
 5214SOL    HW216530   2.626   2.494   9.649
 5215SOL     OW16531   3.504   2.463  10.496
 5215SOL    HW116532   3.496   2.404  10.571
 5215SOL    HW216533   3.591   2.445  10.461
 5216SOL     OW16534   2.117   3.427  11.053
 5216SOL    HW116535   2.061   3.462   0.022
 5216SOL    HW216536   2.122   3.333  11.071
 5217SOL     OW16537   2.801   3.544  10.759
 5217SOL    HW116538   2.765   3.511  10.677
 5217SOL    HW216539   2.787   3.639  10.755
 5218SOL     OW16540   2.015   3.001  10.783
 5218SOL    HW116541   2.009   2.945  10.860
 5218SOL    HW216542   2.024   2.941  10.709
 5219SOL     OW16543   3.187   2.915  10.538
 5219SOL    HW116544   3.213   2.850  10.473
 5219SOL    HW216545   3.116   2.964  10.496
 5220SOL     OW16546   3.172   2.719   9.617
 5220SOL    HW116547   3.096   2.688   9.667
 5220SOL    HW216548   3.148   2.705   9.525
 5221SOL     OW16549   3.636   3.607  10.462
 5221SOL    HW116550   3.694   3.633  10.390
 5221SOL    HW216551   3.610   3.518  10.441
 5222SOL     OW16552   3.103   3.596  10.424
 5222SOL    HW116553   3.185   3.617  10.379
 5222SOL    HW216554   3.108   3.502  10.441
 5223SOL     OW16555   1.945   3.130  10.322
 5223SOL    HW116556   1.934   3.142  10.416
 5223SOL    HW216557   1.871   3.075  10.296
 5224SOL     OW16558   3.581   2.007   9.820
 5224SOL    HW116559   3.654   1.993   9.760
 5224SOL    HW216560   3.565   1.922   9.860
 5225SOL     OW16561   3.252   3.430   9.794
 5225SOL    HW116562   3.313   3.461   9.727
 5225SOL    HW216563   3.204   3.507   9.822
 5226SOL     OW16564   3.140   2.787   9.981
 5226SOL    HW116565   3.213   2.726   9.987
 5226SOL    HW216566   3.173   2.860   9.929
 5227SOL     OW16567   2.681   3.136  10.737
 5227SOL    HW116568   2.650   3.169  10.821
 5227SOL    HW216569   2.611   3.157  10.676
 5228SOL     OW16570   2.533   3.481   9.466
 5228SOL    HW116571   2.544   3.493   9.371
 5228SOL    HW216572   2.479   3.403   9.474
 5229SOL     OW16573   3.485   3.582  10.697
 5229SOL    HW116574   3.540   3.596  10.620
 5229SOL    HW216575   3.470   3.669  10.732
 5230SOL     OW16576   3.702   2.035  10.278
 5230SOL    HW116577   3.732   1.948  10.250
 5230SOL    HW216578   3.616   2.045  10.238
 5231SOL     OW16579   3.069   3.469   9.342
 5231SOL    HW116580   3.059   3.377   9.368
 5231SOL    HW216581   3.004   3.480   9.272
 5232SOL     OW16582   2.690   2.867  10.689
 5232SOL    HW116583   2.735   2.855  10.605
 5232SOL    HW216584   2.690   2.961  10.704
 5233SOL     OW16585   2.784   2.783   9.601
 5233SOL    HW116586   2.845   2.809   9.533
 5233SOL    HW216587   2.826   2.708   9.644
 5234SOL     OW16588   3.354   3.487   9.352
 5234SOL    HW116589   3.260   3.481   9.339
 5234SOL    HW216590   3.391   3.493   9.264
 5235SOL     OW16591   2.228   3.169  10.806
 5235SOL    HW116592   2.216   3.243  10.746
 5235SOL    HW216593   2.155   3.110  10.787
 5236SOL     OW16594   3.475   3.144  10.593
 5236SOL    HW116595   3.531   3.131  10.670
 5236SOL    HW216596   3.418   3.217  10.617
 5237SOL     OW16597   2.913   2.968  10.018
 5237SOL    HW116598   2.842   2.917  10.055
 5237SOL    HW216599   2.975   2.903   9.983
 5238SOL     OW16600   2.882   2.101  10.276
 5238SOL    HW116601   2.878   2.054  10.193
 5238SOL    HW216602   2.879   2.033  10.343
 5239SOL     OW16603   2.465   3.350   9.792
 5239SOL    HW116604   2.508   3.300   9.723
 5239SOL    HW216605   2.396   3.399   9.746
 5240SOL     OW16606   3.579   2.256  10.689
 5240SOL    HW116607   3.651   2.318  10.690
 5240SOL    HW216608   3.610   2.185  10.633
 5241SOL     OW16609   2.121   3.206   9.599
 5241SOL    HW116610   2.028   3.205   9.575
 5241SOL    HW216611   2.123   3.244   9.686
 5242SOL     OW16612   1.980   2.875  11.023
 5242SOL    HW116613   1.909   2.858  11.085
 5242SOL    HW216614   2.057   2.835  11.064
 5243SOL     OW16615   2.552   2.037  10.804
 5243SOL    HW116616   2.637   2.014  10.766
 5243SOL    HW216617   2.574   2.081  10.886
 5244SOL     OW16618   3.291   2.712  10.710
 5244SOL    HW116619   3.243   2.779  10.662
 5244SOL    HW216620   3.382   2.720  10.679
 5245SOL     OW16621   1.873   2.006   9.615
 5245SOL    HW116622   1.840   2.089   9.581
 5245SOL    HW216623   1.968   2.018   9.620
 5246SOL     OW16624   3.041   3.202   9.427
 5246SOL    HW116625   2.951   3.170   9.430
 5246SOL    HW216626   3.070   3.202   9.518
 5247SOL     OW16627   2.482   2.701  10.738
 5247SOL    HW116628   2.548   2.768  10.724
 5247SOL    HW216629   2.531   2.625  10.769
 5248SOL     OW16630   3.345   3.638  10.288
 5248SOL    HW116631   3.370   3.697  10.217
 5248SOL    HW216632   3.427   3.619  10.333
 5249SOL     OW16633   2.703   2.446  10.976
 5249SOL    HW116634   2.679   2.513  11.039
 5249SOL    HW216635   2.680   2.363  11.019
 5250SOL     OW16636   2.245   3.594  10.871
 5250SOL    HW116637   2.166   3.648  10.864
 5250SOL    HW216638   2.219   3.522  10.929
 5251SOL     OW16639   3.533   2.744  10.567
 5251SOL    HW116640   3.525   2.659  10.525
 5251SOL    HW216641   3.524   2.808  10.496
 5252SOL     OW16642   3.078   2.180   9.769
 5252SOL    HW116643   3.142   2.110   9.759
 5252SOL    HW216644   3.107   2.230   9.845
 5253SOL     OW16645   2.475   2.626   9.968
 5253SOL    HW116646   2.505   2.715   9.951
 5253SOL    HW216647   2.383   2.627   9.944
 5254SOL     OW16648   3.612   2.181  10.953
 5254SOL    HW116649   3.594   2.218  10.867
 5254SOL    HW216650   3.533   2.198  11.004
 5255SOL     OW16651   3.611   2.798  10.825
 5255SOL    HW116652   3.604   2.892  10.839
 5255SOL    HW216653   3.594   2.785  10.732
 5256SOL     OW16654   2.723   3.230   9.342
 5256SOL    HW116655   2.686   3.257   9.426
 5256SOL    HW216656   2.743   3.312   9.298
 5257SOL     OW16657   2.522   3.654  10.256
 5257SOL    HW116658   2.502   3.744  10.232
 5257SOL    HW216659   2.617   3.648  10.247
 5258SOL     OW16660   2.728   2.828  10.166
 5258SOL    HW116661   2.777   2.755  10.204
 5258SOL    HW216662   2.696   2.878  10.242
 5259SOL     OW16663   2.944   2.852   9.397
 5259SOL    HW116664   2.922   2.901   9.318
 5259SOL    HW216665   3.018   2.797   9.371
 5260SOL     OW16666   3.717   3.417  10.155
 5260SOL    HW116667   3.639   3.405  10.100
 5260SOL    HW216668   3.710   3.349  10.222
 5261SOL     OW16669   1.945   3.096   9.975
 5261SOL    HW116670   1.948   3.048  10.057
 5261SOL    HW216671   2.014   3.056   9.921
 5262SOL     OW16672   2.541   3.256  10.938
 5262SOL    HW116673   2.468   3.207  10.975
 5262SOL    HW216674   2.509   3.346  10.934
 5263SOL     OW16675   3.672   2.046  10.549
 5263SOL    HW116676   3.682   1.951  10.562
 5263SOL    HW216677   3.684   2.059  10.455
 5264SOL     OW16678   3.563   3.353  10.408
 5264SOL    HW116679   3.482   3.328  10.363
 5264SOL    HW216680   3.577   3.283  10.472
 5265SOL     OW16681   2.689   3.440   9.988
 5265SOL    HW116682   2.678   3.491   9.908
 5265SOL    HW216683   2.612   3.383   9.991
 5266SOL     OW16684   3.293   2.086  10.428
 5266SOL    HW116685   3.320   2.007  10.474
 5266SOL    HW216686   3.243   2.135  10.493
 5267SOL     OW16687   2.872   1.881  10.451
 5267SOL    HW116688   2.818   1.811  10.415
 5267SOL    HW216689   2.960   1.844  10.454
 5268SOL     OW16690   2.635   3.196   9.623
 5268SOL    HW116691   2.603   3.106   9.629
 5268SOL    HW216692   2.717   3.196   9.672
 5269SOL     OW16693   2.481   3.418  10.596
 5269SOL    HW116694   2.482   3.501  10.644
 5269SOL    HW216695   2.568   3.411  10.557
 5270SOL     OW16696   3.214   1.915   9.475
 5270SOL    HW116697   3.241   1.853   9.408
 5270SOL    HW216698   3.127   1.886   9.502
 5271SOL     OW16699   3.159   2.322   9.992
 5271SOL    HW116700   3.105   2.402   9.998
 5271SOL    HW216701   3.155   2.283  10.079
 5272SOL     OW16702   3.449   2.065  10.187
 5272SOL    HW116703   3.387   2.085  10.258
 5272SOL    HW216704   3.448   2.143  10.132
 5273SOL     OW16705   1.904   2.933   9.617
 5273SOL    HW116706   1.998   2.925   9.601
 5273SOL    HW216707   1.876   2.844   9.639
 5274SOL     OW16708   2.745   3.514   9.653
 5274SOL    HW116709   2.673   3.497   9.593
 5274SOL    HW216710   2.716   3.590   9.704
 5275SOL     OW16711   2.063   4.296   0.088
 5275SOL    HW116712   2.041   4.354   0.161
 5275SOL    HW216713   2.079   4.355   0.014
 5276SOL     OW16714   2.086   4.001   0.991
 5276SOL    HW116715   2.114   3.968   1.076
 5276SOL    HW216716   1.996   3.970   0.981
 5277SOL     OW16717   1.867   4.102   0.643
 5277SOL    HW116718   1.784   4.130   0.682
 5277SOL    HW216719   1.844   4.025   0.591
 5278SOL     OW16720   3.597   4.332   0.230
 5278SOL    HW116721   3.608   4.305   0.138
 5278SOL    HW216722   3.589   4.249   0.278
 5279SOL     OW16723   2.597   0.270   0.686
 5279SOL    HW116724   2.585   0.204   0.755
 5279SOL    HW216725   2.508   0.286   0.653
 5280SOL     OW16726   2.310   4.117   1.486
 5280SOL    HW116727   2.387   4.060   1.492
 5280SOL    HW216728   2.236   4.059   1.502
 5281SOL     OW16729   3.477   4.172   0.741
 5281SOL    HW116730   3.409   4.198   0.679
 5281SOL    HW216731   3.479   4.243   0.805
 5282SOL     OW16732   3.458   3.846   1.469
 5282SOL    HW116733   3.462   3.926   1.417
 5282SOL    HW216734   3.444   3.877   1.559
 5283SOL     OW16735   1.948   4.368   0.562
 5283SOL    HW116736   1.931   4.277   0.589
 5283SOL    HW216737   2.003   4.404   0.631
 5284SOL     OW16738   1.981   4.475   1.584
 5284SOL    HW116739   2.050   4.492   1.648
 5284SOL    HW216740   1.948   0.061   1.560
 5285SOL     OW16741   2.676   3.726   0.507
 5285SOL    HW116742   2.715   3.812   0.491
 5285SOL    HW216743   2.583   3.743   0.517
 5286SOL     OW16744   2.195   3.974   1.810
 5286SOL    HW116745   2.235   4.060   1.825
 5286SOL    HW216746   2.104   3.985   1.839
 5287SOL     OW16747   3.139   4.073   0.932
 5287SOL    HW116748   3.050   4.039   0.942
 5287SOL    HW216749   3.191   4.021   0.994
 5288SOL     OW16750   2.689   4.306   1.449
 5288SOL    HW116751   2.648   4.311   1.535
 5288SOL    HW216752   2.622   4.266   1.393
 5289SOL     OW16753   3.257   4.199   1.676
 5289SOL    HW116754   3.259   4.243   1.761
 5289SOL    HW216755   3.316   4.125   1.687
 5290SOL     OW16756   2.859   4.149   1.234
 5290SOL    HW116757   2.786   4.171   1.292
 5290SOL    HW216758   2.821   4.091   1.168
 5291SOL     OW16759   2.921   4.403   0.423
 5291SOL    HW116760   2.919   4.457   0.501
 5291SOL    HW216761   2.829   4.382   0.405
 5292SOL     OW16762   2.749   4.073   0.209
 5292SOL    HW116763   2.794   4.131   0.148
 5292SOL    HW216764   2.763   3.985   0.174
 5293SOL     OW16765   3.570   4.298   1.829
 5293SOL    HW116766   3.581   4.387   1.794
 5293SOL    HW216767   3.592   4.240   1.756
 5294SOL     OW16768   2.412   3.905   0.892
 5294SOL    HW116769   2.414   3.933   0.984
 5294SOL    HW216770   2.410   3.986   0.842
 5295SOL     OW16771   3.349   4.464   0.739
 5295SOL    HW116772   3.334   4.409   0.816
 5295SOL    HW216773   3.390   0.043   0.773
 5296SOL     OW16774   2.060   4.005   1.503
 5296SOL    HW116775   1.976   4.049   1.495
 5296SOL    HW216776   2.045   3.936   1.567
 5297SOL     OW16777   3.264   3.830   0.431
 5297SOL    HW116778   3.256   3.808   0.338
 5297SOL    HW216779   3.358   3.840   0.445
 5298SOL     OW16780   2.216   4.382   0.406
 5298SOL    HW116781   2.256   4.309   0.453
 5298SOL    HW216782   2.145   4.411   0.463
 5299SOL     OW16783   3.398   3.950   1.725
 5299SOL    HW116784   3.406   3.971   1.818
 5299SOL    HW216785   3.330   3.883   1.722
 5300SOL     OW16786   2.478   3.830   0.126
 5300SOL    HW116787   2.568   3.797   0.120
 5300SOL    HW216788   2.441   3.817   0.039
 5301SOL     OW16789   2.628   4.002   1.754
 5301SOL    HW116790   2.703   3.943   1.755
 5301SOL    HW216791   2.579   3.981   1.833
 5302SOL     OW16792   3.205   4.311   1.429
 5302SOL    HW116793   3.228   4.275   1.514
 5302SOL    HW216794   3.247   4.398   1.428
 5303SOL     OW16795   2.785   4.236   0.899
 5303SOL    HW116796   2.763   4.220   0.807
 5303SOL    HW216797   2.825   4.154   0.929
 5304SOL     OW16798   2.411   3.787   0.505
 5304SOL    HW116799   2.329   3.786   0.554
 5304SOL    HW216800   2.405   3.866   0.450
 5305SOL     OW16801   2.148   3.771   0.200
 5305SOL    HW116802   2.188   3.825   0.133
 5305SOL    HW216803   2.216   3.708   0.225
 5306SOL     OW16804   2.801   3.972   0.464
 5306SOL    HW116805   2.774   4.013   0.381
 5306SOL    HW216806   2.895   3.985   0.467
 5307SOL     OW16807   2.938   4.396   1.521
 5307SOL    HW116808   2.854   4.366   1.485
 5307SOL    HW216809   3.004   4.356   1.465
 5308SOL     OW16810   2.870   4.265   0.041
 5308SOL    HW116811   2.883   4.321  11.065
 5308SOL    HW216812   2.951   4.274   0.091
 5309SOL     OW16813   1.937   4.280   1.393
 5309SOL    HW116814   2.029   4.272   1.365
 5309SOL    HW216815   1.937   4.353   1.454
 5310SOL     OW16816   2.421   3.950   1.164
 5310SOL    HW116817   2.462   3.873   1.203
 5310SOL    HW216818   2.331   3.948   1.195
 5311SOL     OW16819   2.730   4.188   0.639
 5311SOL    HW116820   2.700   4.251   0.573
 5311SOL    HW216821   2.749   4.109   0.590
 5312SOL     OW16822   2.876   3.777   0.752
 5312SOL    HW116823   2.818   3.769   0.677
 5312SOL    HW216824   2.855   3.701   0.807
 5313SOL     OW16825   3.339   4.312   0.967
 5313SOL    HW116826   3.280   4.239   0.986
 5313SOL    HW216827   3.390   4.324   1.047
 5314SOL     OW16828   3.263   4.293   0.073
 5314SOL    HW116829   3.197   4.277   0.141
 5314SOL    HW216830   3.329   4.224   0.086
 5315SOL     OW16831   2.390   3.991   0.327
 5315SOL    HW116832   2.416   3.930   0.258
 5315SOL    HW216833   2.371   4.073   0.280
 5316SOL     OW16834   2.780   3.821   1.397
 5316SOL    HW116835   2.804   3.801   1.306
 5316SOL    HW216836   2.859   3.860   1.434
 5317SOL     OW16837   2.296   0.009   1.274
 5317SOL    HW116838   2.363   0.003   1.342
 5317SOL    HW216839   2.253   4.423   1.275
 5318SOL     OW16840   3.127   4.100   1.275
 5318SOL    HW116841   3.161   4.177   1.320
 5318SOL    HW216842   3.038   4.123   1.250
 5319SOL     OW16843   2.415   4.254   0.865
 5319SOL    HW116844   2.436   4.296   0.782
 5319SOL    HW216845   2.480   4.289   0.926
 5320SOL     OW16846   3.440   4.339   0.480
 5320SOL    HW116847   3.398   4.404   0.537
 5320SOL    HW216848   3.486   4.392   0.414
 5321SOL     OW16849   2.858   3.846   1.756
 5321SOL    HW116850   2.913   3.919   1.728
 5321SOL    HW216851   2.906   3.768   1.730
 5322SOL     OW16852   2.360   3.765   1.747
 5322SOL    HW116853   2.317   3.711   1.681
 5322SOL    HW216854   2.301   3.840   1.759
 5323SOL     OW16855   3.073   4.251   0.264
 5323SOL    HW116856   3.084   4.172   0.317
 5323SOL    HW216857   3.024   4.311   0.321
 5324SOL     OW16858   2.161   3.923   1.246
 5324SOL    HW116859   2.124   3.955   1.328
 5324SOL    HW216860   2.142   3.829   1.247
 5325SOL     OW16861   2.594   4.360   1.045
 5325SOL    HW116862   2.667   4.324   0.996
 5325SOL    HW216863   2.602   4.455   1.033
 5326SOL     OW16864   3.613   0.134   1.854
 5326SOL    HW116865   3.548   0.148   1.786
 5326SOL    HW216866   3.569   0.160   1.935
 5327SOL     OW16867   2.165   3.789   0.623
 5327SOL    HW116868   2.145   3.880   0.647
 5327SOL    HW216869   2.171   3.743   0.707
 5328SOL     OW16870   3.477   4.092   0.367
 5328SOL    HW116871   3.506   4.029   0.434
 5328SOL    HW216872   3.454   4.171   0.417
 5329SOL     OW16873   3.396   4.014   0.116
 5329SOL    HW116874   3.337   3.940   0.132
 5329SOL    HW216875   3.429   4.037   0.203
 5330SOL     OW16876   2.180   0.012   0.919
 5330SOL    HW116877   2.257   0.068   0.932
 5330SOL    HW216878   2.193   4.440   0.980
 5331SOL     OW16879   2.199   4.240   1.021
 5331SOL    HW116880   2.159   4.155   1.002
 5331SOL    HW216881   2.272   4.247   0.961
 5332SOL     OW16882   2.999   4.093   1.686
 5332SOL    HW116883   2.947   4.153   1.739
 5332SOL    HW216884   3.084   4.138   1.677
 5333SOL     OW16885   3.022   3.927   1.469
 5333SOL    HW116886   3.013   3.988   1.542
 5333SOL    HW216887   3.062   3.979   1.399
 5334SOL     OW16888   1.898   4.272   1.115
 5334SOL    HW116889   1.979   4.255   1.067
 5334SOL    HW216890   1.925   4.274   1.207
 5335SOL     OW16891   2.055   4.243   1.717
 5335SOL    HW116892   2.111   4.198   1.654
 5335SOL    HW216893   2.001   4.302   1.664
 5336SOL     OW16894   2.676   4.308   0.329
 5336SOL    HW116895   2.687   4.222   0.288
 5336SOL    HW216896   2.582   4.316   0.343
 5337SOL     OW16897   3.499   4.318   1.187
 5337SOL    HW116898   3.494   4.260   1.263
 5337SOL    HW216899   3.587   4.304   1.152
 5338SOL     OW16900   2.547   4.182   1.255
 5338SOL    HW116901   2.501   4.104   1.223
 5338SOL    HW216902   2.549   4.241   1.180
 5339SOL     OW16903   2.334   4.218   0.184
 5339SOL    HW116904   2.375   4.304   0.199
 5339SOL    HW216905   2.240   4.236   0.183
 5340SOL     OW16906   2.780   3.814   0.106
 5340SOL    HW116907   2.830   3.778   0.033
 5340SOL    HW216908   2.816   3.772   0.183
 5341SOL     OW16909   3.581   3.869   0.511
 5341SOL    HW116910   3.654   3.856   0.450
 5341SOL    HW216911   3.566   3.783   0.550
 5342SOL     OW16912   3.140   0.137   0.682
 5342SOL    HW116913   3.197   0.060   0.691
 5342SOL    HW216914   3.189   0.196   0.625
 5343SOL     OW16915   3.701   3.896   0.968
 5343SOL    HW116916   3.731   3.810   0.939
 5343SOL    HW216917   3.616   3.907   0.927
 5344SOL     OW16918   2.124   4.042   0.718
 5344SOL    HW116919   2.037   4.072   0.693
 5344SOL    HW216920   2.120   4.030   0.813
 5345SOL     OW16921   2.924   0.301   0.726
 5345SOL    HW116922   2.842   0.265   0.693
 5345SOL    HW216923   2.990   0.236   0.702
 5346SOL     OW16924   2.882   3.964   0.965
 5346SOL    HW116925   2.877   3.916   0.883
 5346SOL    HW216926   2.877   3.897   1.033
 5347SOL     OW16927   3.583   4.114   1.380
 5347SOL    HW116928   3.654   4.178   1.377
 5347SOL    HW216929   3.613   4.043   1.323
 5348SOL     OW16930   2.536   3.919   1.500
 5348SOL    HW116931   2.620   3.901   1.458
 5348SOL    HW216932   2.559   3.952   1.587
 5349SOL     OW16933   1.941   4.050   0.055
 5349SOL    HW116934   1.874   4.047  11.087
 5349SOL    HW216935   1.970   4.142   0.057
 5350SOL     OW16936   1.929   3.883   0.314
 5350SOL    HW116937   1.915   3.957   0.255
 5350SOL    HW216938   2.012   3.845   0.285
 5351SOL     OW16939   2.591   4.286   1.702
 5351SOL    HW116940   2.592   4.332   1.786
 5351SOL    HW216941   2.611   4.195   1.724
 5352SOL     OW16942   3.079   4.039   0.456
 5352SOL    HW116943   3.143   3.969   0.447
 5352SOL    HW216944   3.108   4.089   0.533
 5353SOL     OW16945   3.622   4.090   1.648
 5353SOL    HW116946   3.606   4.101   1.555
 5353SOL    HW216947   3.553   4.031   1.679
 5354SOL     OW16948   2.961   0.205   0.051
 5354SOL    HW116949   2.960   0.291   0.009
 5354SOL    HW216950   3.052   0.175   0.043
 5355SOL     OW16951   3.676   3.908   1.238
 5355SOL    HW116952   3.685   3.813   1.252
 5355SOL    HW216953   3.684   3.919   1.144
 5356SOL     OW16954   2.305   4.157   0.538
 5356SOL    HW116955   2.328   4.087   0.477
 5356SOL    HW216956   2.249   4.114   0.603
 5357SOL     OW16957   2.186   4.264   1.294
 5357SOL    HW116958   2.243   4.210   1.348
 5357SOL    HW216959   2.205   4.238   1.204
 5358SOL     OW16960   3.294   3.949   1.118
 5358SOL    HW116961   3.320   3.869   1.164
 5358SOL    HW216962   3.242   3.997   1.181
 5359SOL     OW16963   2.871   3.743   1.143
 5359SOL    HW116964   2.817   3.675   1.103
 5359SOL    HW216965   2.959   3.706   1.145
 5360SOL     OW16966   3.213   3.778   0.164
 5360SOL    HW116967   3.235   3.727   0.086
 5360SOL    HW216968   3.126   3.747   0.190
 5361SOL     OW16969   3.161   4.175   0.681
 5361SOL    HW116970   3.124   4.262   0.694
 5361SOL    HW216971   3.161   4.135   0.768
 5362SOL     OW16972   3.448   3.927   0.877
 5362SOL    HW116973   3.388   3.948   0.948
 5362SOL    HW216974   3.449   4.005   0.822
 5363SOL     OW16975   2.086   4.287   1.986
 5363SOL    HW116976   2.033   4.357   2.023
 5363SOL    HW216977   2.078   4.297   1.891
 5364SOL     OW16978   2.086   4.000   2.852
 5364SOL    HW116979   2.114   3.968   2.938
 5364SOL    HW216980   1.996   3.970   2.843
 5365SOL     OW16981   1.867   4.101   2.505
 5365SOL    HW116982   1.785   4.131   2.544
 5365SOL    HW216983   1.842   4.024   2.453
 5366SOL     OW16984   3.594   4.335   2.099
 5366SOL    HW116985   3.593   4.321   2.004
 5366SOL    HW216986   3.594   4.246   2.136
 5367SOL     OW16987   2.592   0.270   2.549
 5367SOL    HW116988   2.583   0.208   2.620
 5367SOL    HW216989   2.502   0.285   2.518
 5368SOL     OW16990   2.310   4.116   3.347
 5368SOL    HW116991   2.387   4.060   3.355
 5368SOL    HW216992   2.236   4.059   3.364
 5369SOL     OW16993   3.477   4.172   2.601
 5369SOL    HW116994   3.407   4.198   2.541
 5369SOL    HW216995   3.479   4.242   2.667
 5370SOL     OW16996   3.458   3.846   3.331
 5370SOL    HW116997   3.463   3.927   3.279
 5370SOL    HW216998   3.444   3.877   3.421
 5371SOL     OW16999   1.938   4.373   2.432
 5371SOL    HW117000   1.932   4.280   2.452
 5371SOL    HW217001   2.005   4.406   2.492
 5372SOL     OW17002   1.981   4.475   3.446
 5372SOL    HW117003   2.050   4.492   3.510
 5372SOL    HW217004   1.949   0.062   3.422
 5373SOL     OW17005   2.676   3.724   2.369
 5373SOL    HW117006   2.716   3.809   2.352
 5373SOL    HW217007   2.583   3.743   2.379
 5374SOL     OW17008   2.195   3.974   3.671
 5374SOL    HW117009   2.236   4.060   3.688
 5374SOL    HW217010   2.104   3.985   3.701
 5375SOL     OW17011   3.139   4.072   2.794
 5375SOL    HW117012   3.050   4.039   2.805
 5375SOL    HW217013   3.191   4.020   2.856
 5376SOL     OW17014   2.689   4.306   3.311
 5376SOL    HW117015   2.648   4.311   3.397
 5376SOL    HW217016   2.622   4.265   3.255
 5377SOL     OW17017   3.257   4.199   3.538
 5377SOL    HW117018   3.259   4.244   3.623
 5377SOL    HW217019   3.316   4.125   3.549
 5378SOL     OW17020   2.859   4.149   3.096
 5378SOL    HW117021   2.786   4.172   3.154
 5378SOL    HW217022   2.820   4.091   3.030
 5379SOL     OW17023   2.918   4.410   2.280
 5379SOL    HW117024   2.917   4.450   2.367
 5379SOL    HW217025   2.831   4.372   2.270
 5380SOL     OW17026   2.752   4.064   2.051
 5380SOL    HW117027   2.794   4.127   1.993
 5380SOL    HW217028   2.772   3.979   2.013
 5381SOL     OW17029   3.570   4.298   3.691
 5381SOL    HW117030   3.581   4.387   3.657
 5381SOL    HW217031   3.592   4.241   3.617
 5382SOL     OW17032   2.412   3.905   2.754
 5382SOL    HW117033   2.413   3.933   2.846
 5382SOL    HW217034   2.411   3.987   2.704
 5383SOL     OW17035   3.352   4.465   2.600
 5383SOL    HW117036   3.334   4.410   2.676
 5383SOL    HW217037   3.392   0.044   2.636
 5384SOL     OW17038   2.060   4.004   3.365
 5384SOL    HW117039   1.976   4.050   3.357
 5384SOL    HW217040   2.045   3.936   3.430
 5385SOL     OW17041   3.263   3.830   2.294
 5385SOL    HW117042   3.253   3.806   2.202
 5385SOL    HW217043   3.357   3.840   2.307
 5386SOL     OW17044   2.217   4.387   2.270
 5386SOL    HW117045   2.255   4.311   2.314
 5386SOL    HW217046   2.146   4.416   2.328
 5387SOL     OW17047   3.398   3.950   3.587
 5387SOL    HW117048   3.407   3.971   3.680
 5387SOL    HW217049   3.329   3.883   3.584
 5388SOL     OW17050   2.495   3.847   1.968
 5388SOL    HW117051   2.566   3.784   1.979
 5388SOL    HW217052   2.446   3.815   1.892
 5389SOL     OW17053   2.628   4.001   3.616
 5389SOL    HW117054   2.703   3.943   3.617
 5389SOL    HW217055   2.579   3.981   3.696
 5390SOL     OW17056   3.205   4.311   3.291
 5390SOL    HW117057   3.228   4.275   3.376
 5390SOL    HW217058   3.246   4.398   3.290
 5391SOL     OW17059   2.785   4.236   2.760
 5391SOL    HW117060   2.762   4.220   2.668
 5391SOL    HW217061   2.824   4.154   2.790
 5392SOL     OW17062   2.411   3.787   2.364
 5392SOL    HW117063   2.330   3.787   2.416
 5392SOL    HW217064   2.404   3.866   2.310
 5393SOL     OW17065   2.154   3.771   2.047
 5393SOL    HW117066   2.212   3.836   2.007
 5393SOL    HW217067   2.213   3.708   2.088
 5394SOL     OW17068   2.799   3.971   2.324
 5394SOL    HW117069   2.773   4.010   2.240
 5394SOL    HW217070   2.894   3.984   2.327
 5395SOL     OW17071   2.938   4.395   3.383
 5395SOL    HW117072   2.854   4.366   3.347
 5395SOL    HW217073   3.004   4.356   3.326
 5396SOL     OW17074   2.886   4.267   1.888
 5396SOL    HW117075   2.870   4.354   1.853
 5396SOL    HW217076   2.950   4.281   1.958
 5397SOL     OW17077   1.937   4.280   3.255
 5397SOL    HW117078   2.029   4.272   3.227
 5397SOL    HW217079   1.937   4.353   3.316
 5398SOL     OW17080   2.421   3.950   3.025
 5398SOL    HW117081   2.462   3.874   3.067
 5398SOL    HW217082   2.331   3.948   3.056
 5399SOL     OW17083   2.731   4.189   2.499
 5399SOL    HW117084   2.697   4.248   2.432
 5399SOL    HW217085   2.750   4.108   2.452
 5400SOL     OW17086   2.876   3.777   2.614
 5400SOL    HW117087   2.818   3.769   2.538
 5400SOL    HW217088   2.855   3.701   2.669
 5401SOL     OW17089   3.339   4.311   2.828
 5401SOL    HW117090   3.280   4.239   2.848
 5401SOL    HW217091   3.390   4.324   2.908
 5402SOL     OW17092   3.264   4.296   1.935
 5402SOL    HW117093   3.202   4.269   2.002
 5402SOL    HW217094   3.347   4.255   1.961
 5403SOL     OW17095   2.387   3.988   2.181
 5403SOL    HW117096   2.429   3.938   2.111
 5403SOL    HW217097   2.370   4.074   2.143
 5404SOL     OW17098   2.780   3.821   3.259
 5404SOL    HW117099   2.804   3.801   3.168
 5404SOL    HW217100   2.859   3.860   3.296
 5405SOL     OW17101   2.296   0.009   3.136
 5405SOL    HW117102   2.363   0.003   3.204
 5405SOL    HW217103   2.253   4.423   3.137
 5406SOL     OW17104   3.127   4.100   3.136
 5406SOL    HW117105   3.161   4.177   3.181
 5406SOL    HW217106   3.038   4.124   3.112
 5407SOL     OW17107   2.415   4.254   2.727
 5407SOL    HW117108   2.435   4.297   2.644
 5407SOL    HW217109   2.480   4.289   2.788
 5408SOL     OW17110   3.431   4.339   2.339
 5408SOL    HW117111   3.404   4.405   2.403
 5408SOL    HW217112   3.492   4.386   2.281
 5409SOL     OW17113   2.858   3.846   3.618
 5409SOL    HW117114   2.913   3.919   3.591
 5409SOL    HW217115   2.907   3.768   3.592
 5410SOL     OW17116   2.360   3.765   3.609
 5410SOL    HW117117   2.317   3.711   3.543
 5410SOL    HW217118   2.301   3.839   3.621
 5411SOL     OW17119   3.072   4.254   2.126
 5411SOL    HW117120   3.082   4.175   2.179
 5411SOL    HW217121   3.023   4.314   2.183
 5412SOL     OW17122   2.161   3.923   3.108
 5412SOL    HW117123   2.124   3.956   3.190
 5412SOL    HW217124   2.142   3.829   3.109
 5413SOL     OW17125   2.593   4.360   2.907
 5413SOL    HW117126   2.667   4.324   2.857
 5413SOL    HW217127   2.602   4.455   2.896
 5414SOL     OW17128   3.613   0.134   3.716
 5414SOL    HW117129   3.548   0.148   3.648
 5414SOL    HW217130   3.569   0.160   3.797
 5415SOL     OW17131   2.165   3.789   2.485
 5415SOL    HW117132   2.145   3.880   2.508
 5415SOL    HW217133   2.171   3.743   2.569
 5416SOL     OW17134   3.475   4.091   2.230
 5416SOL    HW117135   3.505   4.030   2.298
 5416SOL    HW217136   3.452   4.171   2.278
 5417SOL     OW17137   3.389   3.999   1.989
 5417SOL    HW117138   3.326   3.932   2.015
 5417SOL    HW217139   3.424   4.032   2.072
 5418SOL     OW17140   2.180   0.012   2.782
 5418SOL    HW117141   2.257   0.069   2.794
 5418SOL    HW217142   2.194   4.440   2.844
 5419SOL     OW17143   2.199   4.240   2.883
 5419SOL    HW117144   2.159   4.155   2.864
 5419SOL    HW217145   2.272   4.247   2.823
 5420SOL     OW17146   2.999   4.093   3.548
 5420SOL    HW117147   2.947   4.153   3.601
 5420SOL    HW217148   3.084   4.138   3.539
 5421SOL     OW17149   3.022   3.927   3.331
 5421SOL    HW117150   3.013   3.988   3.404
 5421SOL    HW217151   3.062   3.979   3.261
 5422SOL     OW17152   1.898   4.271   2.977
 5422SOL    HW117153   1.979   4.256   2.929
 5422SOL    HW217154   1.925   4.274   3.069
 5423SOL     OW17155   2.055   4.243   3.579
 5423SOL    HW117156   2.111   4.199   3.516
 5423SOL    HW217157   2.002   4.303   3.526
 5424SOL     OW17158   2.681   4.281   2.212
 5424SOL    HW117159   2.682   4.208   2.151
 5424SOL    HW217160   2.594   4.321   2.201
 5425SOL     OW17161   3.499   4.318   3.049
 5425SOL    HW117162   3.494   4.260   3.125
 5425SOL    HW217163   3.587   4.304   3.014
 5426SOL     OW17164   2.547   4.182   3.117
 5426SOL    HW117165   2.501   4.104   3.085
 5426SOL    HW217166   2.549   4.241   3.042
 5427SOL     OW17167   2.343   4.223   2.052
 5427SOL    HW117168   2.375   4.310   2.073
 5427SOL    HW217169   2.248   4.234   2.040
 5428SOL     OW17170   3.581   3.869   2.373
 5428SOL    HW117171   3.654   3.855   2.313
 5428SOL    HW217172   3.566   3.783   2.412
 5429SOL     OW17173   3.141   0.136   2.541
 5429SOL    HW117174   3.199   0.061   2.551
 5429SOL    HW217175   3.192   0.199   2.489
 5430SOL     OW17176   3.701   3.896   2.830
 5430SOL    HW117177   3.731   3.810   2.801
 5430SOL    HW217178   3.615   3.907   2.789
 5431SOL     OW17179   2.124   4.041   2.580
 5431SOL    HW117180   2.037   4.072   2.555
 5431SOL    HW217181   2.120   4.030   2.675
 5432SOL     OW17182   2.770   0.090   2.080
 5432SOL    HW117183   2.851   0.131   2.050
 5432SOL    HW217184   2.792   0.053   2.166
 5433SOL     OW17185   2.928   0.300   2.603
 5433SOL    HW117186   2.850   0.285   2.549
 5433SOL    HW217187   2.991   0.235   2.571
 5434SOL     OW17188   2.882   3.964   2.827
 5434SOL    HW117189   2.877   3.915   2.745
 5434SOL    HW217190   2.877   3.897   2.895
 5435SOL     OW17191   3.583   4.114   3.242
 5435SOL    HW117192   3.654   4.178   3.239
 5435SOL    HW217193   3.613   4.043   3.185
 5436SOL     OW17194   2.536   3.919   3.361
 5436SOL    HW117195   2.620   3.901   3.320
 5436SOL    HW217196   2.559   3.951   3.449
 5437SOL     OW17197   1.937   4.043   1.891
 5437SOL    HW117198   1.850   4.037   1.852
 5437SOL    HW217199   1.969   4.129   1.865
 5438SOL     OW17200   1.931   3.880   2.174
 5438SOL    HW117201   1.916   3.960   2.123
 5438SOL    HW217202   2.016   3.848   2.142
 5439SOL     OW17203   2.590   4.286   3.564
 5439SOL    HW117204   2.592   4.333   3.647
 5439SOL    HW217205   2.611   4.195   3.586
 5440SOL     OW17206   3.080   4.042   2.317
 5440SOL    HW117207   3.143   3.970   2.308
 5440SOL    HW217208   3.109   4.090   2.394
 5441SOL     OW17209   3.623   4.090   3.510
 5441SOL    HW117210   3.606   4.101   3.417
 5441SOL    HW217211   3.553   4.031   3.541
 5442SOL     OW17212   2.973   0.228   1.965
 5442SOL    HW117213   2.957   0.270   1.880
 5442SOL    HW217214   3.056   0.182   1.954
 5443SOL     OW17215   3.676   3.908   3.100
 5443SOL    HW117216   3.685   3.813   3.114
 5443SOL    HW217217   3.684   3.919   3.006
 5444SOL     OW17218   2.304   4.156   2.399
 5444SOL    HW117219   2.325   4.086   2.337
 5444SOL    HW217220   2.249   4.114   2.465
 5445SOL     OW17221   2.185   4.264   3.156
 5445SOL    HW117222   2.242   4.210   3.211
 5445SOL    HW217223   2.206   4.238   3.066
 5446SOL     OW17224   3.294   3.948   2.980
 5446SOL    HW117225   3.320   3.869   3.027
 5446SOL    HW217226   3.242   3.998   3.043
 5447SOL     OW17227   2.871   3.743   3.005
 5447SOL    HW117228   2.817   3.675   2.965
 5447SOL    HW217229   2.959   3.706   3.007
 5448SOL     OW17230   3.214   3.778   2.026
 5448SOL    HW117231   3.242   3.714   1.960
 5448SOL    HW217232   3.127   3.748   2.053
 5449SOL     OW17233   3.161   4.175   2.543
 5449SOL    HW117234   3.124   4.263   2.558
 5449SOL    HW217235   3.160   4.134   2.630
 5450SOL     OW17236   3.448   3.927   2.739
 5450SOL    HW117237   3.388   3.948   2.810
 5450SOL    HW217238   3.449   4.005   2.684
 5451SOL     OW17239   2.086   4.287   3.848
 5451SOL    HW117240   2.033   4.358   3.885
 5451SOL    HW217241   2.078   4.298   3.753
 5452SOL     OW17242   2.086   4.000   4.714
 5452SOL    HW117243   2.114   3.968   4.800
 5452SOL    HW217244   1.996   3.970   4.705
 5453SOL     OW17245   1.867   4.101   4.367
 5453SOL    HW117246   1.785   4.131   4.406
 5453SOL    HW217247   1.842   4.024   4.315
 5454SOL     OW17248   3.594   4.335   3.961
 5454SOL    HW117249   3.593   4.321   3.866
 5454SOL    HW217250   3.594   4.246   3.998
 5455SOL     OW17251   2.592   0.270   4.410
 5455SOL    HW117252   2.583   0.208   4.483
 5455SOL    HW217253   2.502   0.286   4.381
 5456SOL     OW17254   2.310   4.116   5.209
 5456SOL    HW117255   2.387   4.060   5.217
 5456SOL    HW217256   2.236   4.059   5.226
 5457SOL     OW17257   3.477   4.172   4.463
 5457SOL    HW117258   3.407   4.198   4.403
 5457SOL    HW217259   3.478   4.242   4.529
 5458SOL     OW17260   3.458   3.846   5.193
 5458SOL    HW117261   3.462   3.927   5.141
 5458SOL    HW217262   3.444   3.877   5.283
 5459SOL     OW17263   1.937   4.374   4.295
 5459SOL    HW117264   1.932   4.280   4.314
 5459SOL    HW217265   2.005   4.407   4.353
 5460SOL     OW17266   1.981   4.475   5.308
 5460SOL    HW117267   2.050   4.492   5.372
 5460SOL    HW217268   1.949   0.062   5.284
 5461SOL     OW17269   2.675   3.725   4.227
 5461SOL    HW117270   2.716   3.810   4.212
 5461SOL    HW217271   2.582   3.744   4.240
 5462SOL     OW17272   2.195   3.975   5.533
 5462SOL    HW117273   2.236   4.060   5.550
 5462SOL    HW217274   2.105   3.985   5.563
 5463SOL     OW17275   3.139   4.072   4.656
 5463SOL    HW117276   3.050   4.039   4.666
 5463SOL    HW217277   3.191   4.020   4.718
 5464SOL     OW17278   2.689   4.306   5.173
 5464SOL    HW117279   2.648   4.311   5.259
 5464SOL    HW217280   2.622   4.266   5.117
 5465SOL     OW17281   3.257   4.199   5.400
 5465SOL    HW117282   3.259   4.243   5.485
 5465SOL    HW217283   3.316   4.124   5.411
 5466SOL     OW17284   2.859   4.149   4.958
 5466SOL    HW117285   2.786   4.171   5.016
 5466SOL    HW217286   2.821   4.091   4.892
 5467SOL     OW17287   2.918   4.410   4.142
 5467SOL    HW117288   2.917   4.451   4.229
 5467SOL    HW217289   2.831   4.372   4.132
 5468SOL     OW17290   2.752   4.064   3.913
 5468SOL    HW117291   2.794   4.127   3.855
 5468SOL    HW217292   2.773   3.979   3.875
 5469SOL     OW17293   3.570   4.298   5.553
 5469SOL    HW117294   3.581   4.387   5.518
 5469SOL    HW217295   3.592   4.240   5.480
 5470SOL     OW17296   2.410   3.907   4.615
 5470SOL    HW117297   2.413   3.933   4.707
 5470SOL    HW217298   2.411   3.989   4.566
 5471SOL     OW17299   3.352   4.465   4.462
 5471SOL    HW117300   3.334   4.410   4.538
 5471SOL    HW217301   3.392   0.044   4.498
 5472SOL     OW17302   2.060   4.004   5.226
 5472SOL    HW117303   1.976   4.050   5.220
 5472SOL    HW217304   2.045   3.936   5.292
 5473SOL     OW17305   3.263   3.831   4.156
 5473SOL    HW117306   3.254   3.806   4.064
 5473SOL    HW217307   3.357   3.840   4.169
 5474SOL     OW17308   2.216   4.387   4.131
 5474SOL    HW117309   2.255   4.311   4.176
 5474SOL    HW217310   2.147   4.416   4.190
 5475SOL     OW17311   3.398   3.950   5.449
 5475SOL    HW117312   3.406   3.971   5.542
 5475SOL    HW217313   3.330   3.883   5.446
 5476SOL     OW17314   2.494   3.847   3.830
 5476SOL    HW117315   2.566   3.784   3.842
 5476SOL    HW217316   2.447   3.815   3.754
 5477SOL     OW17317   2.628   4.002   5.478
 5477SOL    HW117318   2.704   3.943   5.479
 5477SOL    HW217319   2.579   3.981   5.557
 5478SOL     OW17320   3.205   4.311   5.153
 5478SOL    HW117321   3.228   4.275   5.238
 5478SOL    HW217322   3.246   4.398   5.152
 5479SOL     OW17323   2.785   4.236   4.622
 5479SOL    HW117324   2.762   4.220   4.530
 5479SOL    HW217325   2.824   4.154   4.652
 5480SOL     OW17326   2.410   3.787   4.227
 5480SOL    HW117327   2.330   3.788   4.279
 5480SOL    HW217328   2.404   3.866   4.172
 5481SOL     OW17329   2.154   3.771   3.909
 5481SOL    HW117330   2.212   3.836   3.870
 5481SOL    HW217331   2.213   3.708   3.950
 5482SOL     OW17332   2.799   3.972   4.186
 5482SOL    HW117333   2.773   4.011   4.102
 5482SOL    HW217334   2.894   3.984   4.189
 5483SOL     OW17335   2.938   4.395   5.246
 5483SOL    HW117336   2.854   4.366   5.209
 5483SOL    HW217337   3.004   4.356   5.189
 5484SOL     OW17338   2.886   4.267   3.750
 5484SOL    HW117339   2.870   4.354   3.715
 5484SOL    HW217340   2.950   4.281   3.820
 5485SOL     OW17341   1.937   4.280   5.117
 5485SOL    HW117342   2.029   4.272   5.089
 5485SOL    HW217343   1.937   4.353   5.178
 5486SOL     OW17344   2.421   3.950   4.887
 5486SOL    HW117345   2.463   3.874   4.928
 5486SOL    HW217346   2.331   3.948   4.919
 5487SOL     OW17347   2.731   4.189   4.361
 5487SOL    HW117348   2.697   4.248   4.293
 5487SOL    HW217349   2.750   4.108   4.314
 5488SOL     OW17350   2.877   3.777   4.475
 5488SOL    HW117351   2.819   3.768   4.400
 5488SOL    HW217352   2.857   3.701   4.530
 5489SOL     OW17353   3.339   4.311   4.689
 5489SOL    HW117354   3.280   4.239   4.710
 5489SOL    HW217355   3.390   4.324   4.770
 5490SOL     OW17356   3.264   4.295   3.797
 5490SOL    HW117357   3.202   4.269   3.864
 5490SOL    HW217358   3.347   4.255   3.823
 5491SOL     OW17359   2.387   3.988   4.043
 5491SOL    HW117360   2.429   3.938   3.973
 5491SOL    HW217361   2.370   4.074   4.005
 5492SOL     OW17362   2.780   3.821   5.120
 5492SOL    HW117363   2.804   3.801   5.030
 5492SOL    HW217364   2.859   3.860   5.158
 5493SOL     OW17365   2.296   0.009   4.998
 5493SOL    HW117366   2.364   0.003   5.066
 5493SOL    HW217367   2.253   4.423   5.000
 5494SOL     OW17368   3.128   4.100   4.998
 5494SOL    HW117369   3.161   4.177   5.043
 5494SOL    HW217370   3.038   4.124   4.973
 5495SOL     OW17371   2.415   4.254   4.589
 5495SOL    HW117372   2.435   4.297   4.506
 5495SOL    HW217373   2.480   4.289   4.650
 5496SOL     OW17374   3.431   4.339   4.201
 5496SOL    HW117375   3.403   4.404   4.265
 5496SOL    HW217376   3.492   4.386   4.143
 5497SOL     OW17377   2.858   3.846   5.480
 5497SOL    HW117378   2.913   3.919   5.452
 5497SOL    HW217379   2.906   3.768   5.454
 5498SOL     OW17380   2.360   3.766   5.470
 5498SOL    HW117381   2.316   3.711   5.405
 5498SOL    HW217382   2.301   3.840   5.483
 5499SOL     OW17383   3.072   4.254   3.988
 5499SOL    HW117384   3.083   4.175   4.041
 5499SOL    HW217385   3.023   4.314   4.044
 5500SOL     OW17386   2.161   3.924   4.970
 5500SOL    HW117387   2.124   3.957   5.052
 5500SOL    HW217388   2.142   3.830   4.971
 5501SOL     OW17389   2.593   4.360   4.768
 5501SOL    HW117390   2.667   4.324   4.719
 5501SOL    HW217391   2.602   4.455   4.758
 5502SOL     OW17392   3.613   0.134   5.578
 5502SOL    HW117393   3.548   0.148   5.510
 5502SOL    HW217394   3.569   0.160   5.659
 5503SOL     OW17395   2.164   3.788   4.348
 5503SOL    HW117396   2.145   3.879   4.371
 5503SOL    HW217397   2.172   3.743   4.432
 5504SOL     OW17398   3.475   4.091   4.092
 5504SOL    HW117399   3.505   4.031   4.160
 5504SOL    HW217400   3.452   4.171   4.140
 5505SOL     OW17401   3.389   3.999   3.851
 5505SOL    HW117402   3.326   3.932   3.877
 5505SOL    HW217403   3.424   4.033   3.933
 5506SOL     OW17404   2.180   0.012   4.644
 5506SOL    HW117405   2.257   0.069   4.656
 5506SOL    HW217406   2.194   4.440   4.706
 5507SOL     OW17407   2.198   4.240   4.745
 5507SOL    HW117408   2.159   4.155   4.725
 5507SOL    HW217409   2.272   4.247   4.685
 5508SOL     OW17410   2.999   4.093   5.410
 5508SOL    HW117411   2.947   4.153   5.463
 5508SOL    HW217412   3.084   4.138   5.401
 5509SOL     OW17413   3.022   3.927   5.193
 5509SOL    HW117414   3.013   3.988   5.266
 5509SOL    HW217415   3.062   3.979   5.123
 5510SOL     OW17416   1.898   4.271   4.839
 5510SOL    HW117417   1.980   4.256   4.792
 5510SOL    HW217418   1.924   4.274   4.931
 5511SOL     OW17419   2.055   4.244   5.441
 5511SOL    HW117420   2.111   4.199   5.378
 5511SOL    HW217421   2.001   4.302   5.388
 5512SOL     OW17422   2.681   4.281   4.074
 5512SOL    HW117423   2.681   4.208   4.013
 5512SOL    HW217424   2.595   4.321   4.063
 5513SOL     OW17425   3.499   4.318   4.911
 5513SOL    HW117426   3.494   4.260   4.987
 5513SOL    HW217427   3.587   4.304   4.876
 5514SOL     OW17428   2.546   4.182   4.979
 5514SOL    HW117429   2.501   4.104   4.947
 5514SOL    HW217430   2.549   4.241   4.904
 5515SOL     OW17431   2.342   4.223   3.914
 5515SOL    HW117432   2.375   4.310   3.935
 5515SOL    HW217433   2.248   4.234   3.902
 5516SOL     OW17434   3.581   3.869   4.235
 5516SOL    HW117435   3.654   3.854   4.175
 5516SOL    HW217436   3.566   3.783   4.275
 5517SOL     OW17437   3.141   0.136   4.403
 5517SOL    HW117438   3.200   0.061   4.412
 5517SOL    HW217439   3.192   0.200   4.353
 5518SOL     OW17440   3.701   3.896   4.692
 5518SOL    HW117441   3.731   3.810   4.663
 5518SOL    HW217442   3.615   3.907   4.651
 5519SOL     OW17443   2.124   4.041   4.442
 5519SOL    HW117444   2.037   4.072   4.417
 5519SOL    HW217445   2.121   4.030   4.537
 5520SOL     OW17446   2.770   0.090   3.942
 5520SOL    HW117447   2.851   0.131   3.912
 5520SOL    HW217448   2.791   0.054   4.028
 5521SOL     OW17449   2.928   0.299   4.465
 5521SOL    HW117450   2.850   0.286   4.411
 5521SOL    HW217451   2.991   0.235   4.433
 5522SOL     OW17452   2.882   3.964   4.689
 5522SOL    HW117453   2.877   3.915   4.606
 5522SOL    HW217454   2.877   3.896   4.757
 5523SOL     OW17455   3.583   4.114   5.104
 5523SOL    HW117456   3.654   4.179   5.101
 5523SOL    HW217457   3.613   4.043   5.048
 5524SOL     OW17458   2.536   3.920   5.224
 5524SOL    HW117459   2.620   3.901   5.182
 5524SOL    HW217460   2.559   3.952   5.311
 5525SOL     OW17461   1.937   4.043   3.753
 5525SOL    HW117462   1.850   4.037   3.714
 5525SOL    HW217463   1.969   4.129   3.727
 5526SOL     OW17464   1.931   3.880   4.036
 5526SOL    HW117465   1.916   3.960   3.985
 5526SOL    HW217466   2.016   3.848   4.004
 5527SOL     OW17467   2.590   4.286   5.426
 5527SOL    HW117468   2.592   4.332   5.510
 5527SOL    HW217469   2.611   4.195   5.448
 5528SOL     OW17470   3.080   4.042   4.178
 5528SOL    HW117471   3.143   3.970   4.170
 5528SOL    HW217472   3.109   4.090   4.256
 5529SOL     OW17473   3.622   4.090   5.372
 5529SOL    HW117474   3.606   4.101   5.279
 5529SOL    HW217475   3.553   4.031   5.403
 5530SOL     OW17476   2.973   0.228   3.827
 5530SOL    HW117477   2.958   0.271   3.743
 5530SOL    HW217478   3.056   0.182   3.816
 5531SOL     OW17479   3.676   3.908   4.962
 5531SOL    HW117480   3.685   3.813   4.976
 5531SOL    HW217481   3.684   3.919   4.868
 5532SOL     OW17482   2.304   4.156   4.261
 5532SOL    HW117483   2.326   4.087   4.199
 5532SOL    HW217484   2.249   4.113   4.327
 5533SOL     OW17485   2.186   4.264   5.018
 5533SOL    HW117486   2.242   4.210   5.073
 5533SOL    HW217487   2.206   4.238   4.928
 5534SOL     OW17488   3.294   3.948   4.842
 5534SOL    HW117489   3.320   3.869   4.889
 5534SOL    HW217490   3.242   3.998   4.905
 5535SOL     OW17491   2.871   3.743   4.868
 5535SOL    HW117492   2.816   3.676   4.827
 5535SOL    HW217493   2.959   3.705   4.869
 5536SOL     OW17494   3.214   3.778   3.888
 5536SOL    HW117495   3.241   3.714   3.822
 5536SOL    HW217496   3.127   3.748   3.915
 5537SOL     OW17497   3.161   4.175   4.405
 5537SOL    HW117498   3.124   4.263   4.420
 5537SOL    HW217499   3.160   4.134   4.492
 5538SOL     OW17500   3.448   3.927   4.601
 5538SOL    HW117501   3.388   3.948   4.672
 5538SOL    HW217502   3.449   4.005   4.546
 5539SOL     OW17503   2.086   4.287   5.710
 5539SOL    HW117504   2.032   4.357   5.747
 5539SOL    HW217505   2.077   4.298   5.615
 5540SOL     OW17506   2.086   4.001   6.576
 5540SOL    HW117507   2.114   3.967   6.662
 5540SOL    HW217508   1.996   3.970   6.567
 5541SOL     OW17509   1.867   4.101   6.228
 5541SOL    HW117510   1.785   4.130   6.268
 5541SOL    HW217511   1.843   4.023   6.178
 5542SOL     OW17512   3.594   4.335   5.823
 5542SOL    HW117513   3.593   4.321   5.728
 5542SOL    HW217514   3.594   4.246   5.860
 5543SOL     OW17515   2.592   0.270   6.272
 5543SOL    HW117516   2.582   0.208   6.344
 5543SOL    HW217517   2.502   0.285   6.242
 5544SOL     OW17518   2.311   4.116   7.071
 5544SOL    HW117519   2.387   4.059   7.079
 5544SOL    HW217520   2.236   4.059   7.088
 5545SOL     OW17521   3.477   4.172   6.325
 5545SOL    HW117522   3.407   4.198   6.265
 5545SOL    HW217523   3.479   4.242   6.391
 5546SOL     OW17524   3.458   3.847   7.055
 5546SOL    HW117525   3.462   3.927   7.003
 5546SOL    HW217526   3.444   3.877   7.145
 5547SOL     OW17527   1.938   4.373   6.156
 5547SOL    HW117528   1.931   4.280   6.176
 5547SOL    HW217529   2.005   4.406   6.216
 5548SOL     OW17530   1.981   4.475   7.170
 5548SOL    HW117531   2.050   4.492   7.234
 5548SOL    HW217532   1.949   0.062   7.146
 5549SOL     OW17533   2.676   3.723   6.095
 5549SOL    HW117534   2.716   3.808   6.076
 5549SOL    HW217535   2.583   3.743   6.104
 5550SOL     OW17536   2.195   3.975   7.396
 5550SOL    HW117537   2.235   4.060   7.412
 5550SOL    HW217538   2.104   3.985   7.425
 5551SOL     OW17539   3.139   4.072   6.518
 5551SOL    HW117540   3.050   4.039   6.529
 5551SOL    HW217541   3.191   4.020   6.580
 5552SOL     OW17542   2.689   4.306   7.035
 5552SOL    HW117543   2.648   4.311   7.121
 5552SOL    HW217544   2.623   4.265   6.979
 5553SOL     OW17545   3.257   4.199   7.262
 5553SOL    HW117546   3.259   4.243   7.347
 5553SOL    HW217547   3.316   4.124   7.273
 5554SOL     OW17548   2.859   4.149   6.820
 5554SOL    HW117549   2.786   4.172   6.878
 5554SOL    HW217550   2.820   4.091   6.754
 5555SOL     OW17551   2.918   4.410   6.004
 5555SOL    HW117552   2.917   4.450   6.091
 5555SOL    HW217553   2.831   4.372   5.994
 5556SOL     OW17554   2.752   4.064   5.775
 5556SOL    HW117555   2.794   4.127   5.717
 5556SOL    HW217556   2.772   3.979   5.737
 5557SOL     OW17557   3.570   4.298   7.415
 5557SOL    HW117558   3.581   4.386   7.380
 5557SOL    HW217559   3.592   4.241   7.342
 5558SOL     OW17560   2.413   3.906   6.478
 5558SOL    HW117561   2.414   3.933   6.570
 5558SOL    HW217562   2.411   3.987   6.429
 5559SOL     OW17563   3.352   4.465   6.324
 5559SOL    HW117564   3.334   4.410   6.400
 5559SOL    HW217565   3.392   0.044   6.360
 5560SOL     OW17566   2.061   4.005   7.089
 5560SOL    HW117567   1.976   4.049   7.081
 5560SOL    HW217568   2.045   3.934   7.152
 5561SOL     OW17569   3.263   3.830   6.018
 5561SOL    HW117570   3.253   3.806   5.926
 5561SOL    HW217571   3.357   3.840   6.031
 5562SOL     OW17572   2.217   4.387   5.994
 5562SOL    HW117573   2.255   4.311   6.038
 5562SOL    HW217574   2.146   4.416   6.052
 5563SOL     OW17575   3.398   3.950   7.311
 5563SOL    HW117576   3.406   3.971   7.404
 5563SOL    HW217577   3.329   3.883   7.308
 5564SOL     OW17578   2.495   3.847   5.691
 5564SOL    HW117579   2.565   3.784   5.703
 5564SOL    HW217580   2.446   3.815   5.615
 5565SOL     OW17581   2.628   4.002   7.340
 5565SOL    HW117582   2.703   3.943   7.341
 5565SOL    HW217583   2.579   3.980   7.419
 5566SOL     OW17584   3.206   4.311   7.015
 5566SOL    HW117585   3.228   4.274   7.100
 5566SOL    HW217586   3.246   4.398   7.015
 5567SOL     OW17587   2.785   4.236   6.484
 5567SOL    HW117588   2.763   4.220   6.392
 5567SOL    HW217589   2.824   4.155   6.514
 5568SOL     OW17590   2.411   3.787   6.088
 5568SOL    HW117591   2.331   3.787   6.141
 5568SOL    HW217592   2.404   3.866   6.034
 5569SOL     OW17593   2.154   3.771   5.770
 5569SOL    HW117594   2.213   3.837   5.732
 5569SOL    HW217595   2.212   3.708   5.811
 5570SOL     OW17596   2.799   3.971   6.048
 5570SOL    HW117597   2.772   4.010   5.964
 5570SOL    HW217598   2.894   3.984   6.051
 5571SOL     OW17599   2.938   4.396   7.107
 5571SOL    HW117600   2.854   4.366   7.071
 5571SOL    HW217601   3.003   4.355   7.050
 5572SOL     OW17602   2.886   4.267   5.612
 5572SOL    HW117603   2.870   4.354   5.577
 5572SOL    HW217604   2.950   4.281   5.682
 5573SOL     OW17605   1.937   4.280   6.979
 5573SOL    HW117606   2.029   4.272   6.951
 5573SOL    HW217607   1.937   4.353   7.040
 5574SOL     OW17608   2.421   3.950   6.750
 5574SOL    HW117609   2.462   3.874   6.791
 5574SOL    HW217610   2.331   3.948   6.780
 5575SOL     OW17611   2.731   4.189   6.223
 5575SOL    HW117612   2.697   4.248   6.156
 5575SOL    HW217613   2.750   4.108   6.176
 5576SOL     OW17614   2.878   3.778   6.337
 5576SOL    HW117615   2.818   3.771   6.262
 5576SOL    HW217616   2.855   3.703   6.392
 5577SOL     OW17617   3.339   4.311   6.551
 5577SOL    HW117618   3.280   4.239   6.572
 5577SOL    HW217619   3.390   4.324   6.632
 5578SOL     OW17620   3.264   4.295   5.659
 5578SOL    HW117621   3.202   4.269   5.726
 5578SOL    HW217622   3.347   4.255   5.685
 5579SOL     OW17623   2.387   3.987   5.905
 5579SOL    HW117624   2.429   3.938   5.835
 5579SOL    HW217625   2.370   4.074   5.867
 5580SOL     OW17626   2.780   3.821   6.983
 5580SOL    HW117627   2.804   3.802   6.892
 5580SOL    HW217628   2.859   3.860   7.020
 5581SOL     OW17629   2.296   0.009   6.860
 5581SOL    HW117630   2.363   0.003   6.928
 5581SOL    HW217631   2.253   4.423   6.861
 5582SOL     OW17632   3.127   4.100   6.860
 5582SOL    HW117633   3.161   4.177   6.905
 5582SOL    HW217634   3.038   4.124   6.836
 5583SOL     OW17635   2.416   4.253   6.451
 5583SOL    HW117636   2.435   4.297   6.368
 5583SOL    HW217637   2.480   4.289   6.512
 5584SOL     OW17638   3.431   4.339   6.063
 5584SOL    HW117639   3.404   4.404   6.127
 5584SOL    HW217640   3.492   4.386   6.005
 5585SOL     OW17641   2.858   3.846   7.342
 5585SOL    HW117642   2.914   3.919   7.314
 5585SOL    HW217643   2.906   3.768   7.316
 5586SOL     OW17644   2.360   3.765   7.333
 5586SOL    HW117645   2.317   3.711   7.267
 5586SOL    HW217646   2.301   3.840   7.345
 5587SOL     OW17647   3.072   4.254   5.850
 5587SOL    HW117648   3.082   4.175   5.903
 5587SOL    HW217649   3.023   4.314   5.907
 5588SOL     OW17650   2.161   3.923   6.832
 5588SOL    HW117651   2.124   3.955   6.914
 5588SOL    HW217652   2.143   3.829   6.833
 5589SOL     OW17653   2.593   4.360   6.630
 5589SOL    HW117654   2.667   4.324   6.581
 5589SOL    HW217655   2.602   4.455   6.620
 5590SOL     OW17656   3.613   0.134   7.440
 5590SOL    HW117657   3.548   0.148   7.372
 5590SOL    HW217658   3.569   0.160   7.521
 5591SOL     OW17659   2.166   3.790   6.209
 5591SOL    HW117660   2.145   3.881   6.233
 5591SOL    HW217661   2.172   3.744   6.292
 5592SOL     OW17662   3.475   4.091   5.954
 5592SOL    HW117663   3.505   4.030   6.022
 5592SOL    HW217664   3.452   4.171   6.002
 5593SOL     OW17665   3.389   3.999   5.713
 5593SOL    HW117666   3.326   3.932   5.739
 5593SOL    HW217667   3.424   4.033   5.795
 5594SOL     OW17668   2.180   0.012   6.506
 5594SOL    HW117669   2.257   0.069   6.518
 5594SOL    HW217670   2.194   4.440   6.567
 5595SOL     OW17671   2.199   4.240   6.607
 5595SOL    HW117672   2.159   4.155   6.588
 5595SOL    HW217673   2.272   4.247   6.547
 5596SOL     OW17674   2.999   4.093   7.271
 5596SOL    HW117675   2.947   4.153   7.325
 5596SOL    HW217676   3.084   4.138   7.263
 5597SOL     OW17677   3.022   3.927   7.055
 5597SOL    HW117678   3.013   3.988   7.128
 5597SOL    HW217679   3.062   3.979   6.985
 5598SOL     OW17680   1.898   4.272   6.701
 5598SOL    HW117681   1.979   4.255   6.653
 5598SOL    HW217682   1.924   4.274   6.793
 5599SOL     OW17683   2.055   4.243   7.303
 5599SOL    HW117684   2.110   4.198   7.240
 5599SOL    HW217685   2.001   4.302   7.250
 5600SOL     OW17686   2.681   4.281   5.936
 5600SOL    HW117687   2.682   4.208   5.875
 5600SOL    HW217688   2.594   4.321   5.925
 5601SOL     OW17689   3.499   4.318   6.773
 5601SOL    HW117690   3.494   4.260   6.849
 5601SOL    HW217691   3.587   4.304   6.738
 5602SOL     OW17692   2.547   4.182   6.841
 5602SOL    HW117693   2.501   4.104   6.809
 5602SOL    HW217694   2.549   4.241   6.765
 5603SOL     OW17695   2.343   4.223   5.776
 5603SOL    HW117696   2.375   4.310   5.798
 5603SOL    HW217697   2.248   4.234   5.764
 5604SOL     OW17698   3.581   3.869   6.097
 5604SOL    HW117699   3.654   3.855   6.037
 5604SOL    HW217700   3.566   3.783   6.136
 5605SOL     OW17701   3.141   0.136   6.265
 5605SOL    HW117702   3.199   0.061   6.275
 5605SOL    HW217703   3.192   0.199   6.213
 5606SOL     OW17704   3.701   3.896   6.554
 5606SOL    HW117705   3.731   3.810   6.525
 5606SOL    HW217706   3.615   3.907   6.513
 5607SOL     OW17707   2.124   4.042   6.304
 5607SOL    HW117708   2.037   4.072   6.279
 5607SOL    HW217709   2.120   4.031   6.399
 5608SOL     OW17710   2.770   0.090   5.804
 5608SOL    HW117711   2.851   0.131   5.774
 5608SOL    HW217712   2.792   0.054   5.890
 5609SOL     OW17713   2.928   0.300   6.326
 5609SOL    HW117714   2.850   0.285   6.273
 5609SOL    HW217715   2.991   0.235   6.295
 5610SOL     OW17716   2.882   3.964   6.551
 5610SOL    HW117717   2.878   3.916   6.469
 5610SOL    HW217718   2.877   3.897   6.619
 5611SOL     OW17719   3.583   4.114   6.966
 5611SOL    HW117720   3.654   4.178   6.963
 5611SOL    HW217721   3.613   4.043   6.909
 5612SOL     OW17722   2.536   3.919   7.085
 5612SOL    HW117723   2.620   3.901   7.044
 5612SOL    HW217724   2.559   3.951   7.173
 5613SOL     OW17725   1.937   4.043   5.615
 5613SOL    HW117726   1.849   4.037   5.577
 5613SOL    HW217727   1.969   4.129   5.588
 5614SOL     OW17728   1.931   3.880   5.898
 5614SOL    HW117729   1.916   3.960   5.847
 5614SOL    HW217730   2.015   3.848   5.867
 5615SOL     OW17731   2.591   4.286   7.288
 5615SOL    HW117732   2.592   4.332   7.372
 5615SOL    HW217733   2.611   4.195   7.310
 5616SOL     OW17734   3.080   4.042   6.041
 5616SOL    HW117735   3.143   3.970   6.032
 5616SOL    HW217736   3.109   4.090   6.118
 5617SOL     OW17737   3.622   4.090   7.234
 5617SOL    HW117738   3.606   4.101   7.141
 5617SOL    HW217739   3.553   4.031   7.265
 5618SOL     OW17740   2.973   0.228   5.689
 5618SOL    HW117741   2.957   0.270   5.604
 5618SOL    HW217742   3.056   0.182   5.678
 5619SOL     OW17743   3.676   3.908   6.824
 5619SOL    HW117744   3.685   3.813   6.838
 5619SOL    HW217745   3.684   3.919   6.730
 5620SOL     OW17746   2.304   4.156   6.123
 5620SOL    HW117747   2.325   4.086   6.061
 5620SOL    HW217748   2.249   4.114   6.189
 5621SOL     OW17749   2.186   4.264   6.880
 5621SOL    HW117750   2.242   4.209   6.935
 5621SOL    HW217751   2.205   4.238   6.791
 5622SOL     OW17752   3.294   3.948   6.704
 5622SOL    HW117753   3.321   3.869   6.751
 5622SOL    HW217754   3.242   3.998   6.767
 5623SOL     OW17755   2.871   3.744   6.729
 5623SOL    HW117756   2.816   3.675   6.692
 5623SOL    HW217757   2.959   3.706   6.731
 5624SOL     OW17758   3.214   3.778   5.750
 5624SOL    HW117759   3.242   3.714   5.684
 5624SOL    HW217760   3.127   3.748   5.777
 5625SOL     OW17761   3.161   4.176   6.267
 5625SOL    HW117762   3.123   4.262   6.282
 5625SOL    HW217763   3.160   4.134   6.354
 5626SOL     OW17764   3.448   3.927   6.463
 5626SOL    HW117765   3.388   3.948   6.534
 5626SOL    HW217766   3.449   4.005   6.408
 5627SOL     OW17767   2.087   4.287   7.572
 5627SOL    HW117768   2.032   4.357   7.609
 5627SOL    HW217769   2.078   4.297   7.477
 5628SOL     OW17770   2.086   4.001   8.438
 5628SOL    HW117771   2.114   3.968   8.524
 5628SOL    HW217772   1.996   3.970   8.429
 5629SOL     OW17773   1.867   4.101   8.091
 5629SOL    HW117774   1.785   4.130   8.130
 5629SOL    HW217775   1.843   4.024   8.039
 5630SOL     OW17776   3.594   4.335   7.685
 5630SOL    HW117777   3.593   4.321   7.590
 5630SOL    HW217778   3.594   4.246   7.722
 5631SOL     OW17779   2.592   0.270   8.135
 5631SOL    HW117780   2.583   0.207   8.206
 5631SOL    HW217781   2.502   0.284   8.103
 5632SOL     OW17782   2.310   4.117   8.933
 5632SOL    HW117783   2.387   4.060   8.941
 5632SOL    HW217784   2.236   4.059   8.950
 5633SOL     OW17785   3.477   4.172   8.187
 5633SOL    HW117786   3.407   4.198   8.127
 5633SOL    HW217787   3.479   4.242   8.253
 5634SOL     OW17788   3.458   3.847   8.917
 5634SOL    HW117789   3.462   3.927   8.865
 5634SOL    HW217790   3.444   3.877   9.007
 5635SOL     OW17791   1.938   4.373   8.018
 5635SOL    HW117792   1.932   4.280   8.038
 5635SOL    HW217793   2.005   4.406   8.078
 5636SOL     OW17794   1.981   4.475   9.032
 5636SOL    HW117795   2.050   4.492   9.096
 5636SOL    HW217796   1.949   0.062   9.008
 5637SOL     OW17797   2.676   3.724   7.955
 5637SOL    HW117798   2.716   3.810   7.938
 5637SOL    HW217799   2.583   3.743   7.965
 5638SOL     OW17800   2.195   3.975   9.257
 5638SOL    HW117801   2.235   4.060   9.274
 5638SOL    HW217802   2.104   3.985   9.287
 5639SOL     OW17803   3.139   4.072   8.380
 5639SOL    HW117804   3.050   4.039   8.391
 5639SOL    HW217805   3.191   4.020   8.442
 5640SOL     OW17806   2.689   4.306   8.897
 5640SOL    HW117807   2.648   4.311   8.983
 5640SOL    HW217808   2.622   4.266   8.841
 5641SOL     OW17809   3.257   4.199   9.124
 5641SOL    HW117810   3.259   4.243   9.209
 5641SOL    HW217811   3.316   4.124   9.135
 5642SOL     OW17812   2.859   4.149   8.682
 5642SOL    HW117813   2.786   4.171   8.740
 5642SOL    HW217814   2.821   4.091   8.616
 5643SOL     OW17815   2.918   4.410   7.866
 5643SOL    HW117816   2.916   4.450   7.953
 5643SOL    HW217817   2.831   4.372   7.856
 5644SOL     OW17818   2.752   4.064   7.638
 5644SOL    HW117819   2.794   4.127   7.579
 5644SOL    HW217820   2.771   3.979   7.599
 5645SOL     OW17821   3.570   4.298   9.277
 5645SOL    HW117822   3.581   4.387   9.242
 5645SOL    HW217823   3.592   4.240   9.204
 5646SOL     OW17824   2.412   3.906   8.340
 5646SOL    HW117825   2.414   3.933   8.432
 5646SOL    HW217826   2.411   3.987   8.290
 5647SOL     OW17827   3.352   4.465   8.186
 5647SOL    HW117828   3.334   4.410   8.262
 5647SOL    HW217829   3.392   0.044   8.222
 5648SOL     OW17830   2.060   4.004   8.951
 5648SOL    HW117831   1.976   4.049   8.943
 5648SOL    HW217832   2.045   3.936   9.016
 5649SOL     OW17833   3.263   3.831   7.880
 5649SOL    HW117834   3.253   3.806   7.788
 5649SOL    HW217835   3.357   3.840   7.892
 5650SOL     OW17836   2.217   4.387   7.856
 5650SOL    HW117837   2.255   4.311   7.900
 5650SOL    HW217838   2.146   4.416   7.914
 5651SOL     OW17839   3.398   3.950   9.173
 5651SOL    HW117840   3.406   3.971   9.266
 5651SOL    HW217841   3.330   3.883   9.170
 5652SOL     OW17842   2.495   3.847   7.554
 5652SOL    HW117843   2.565   3.784   7.566
 5652SOL    HW217844   2.447   3.815   7.477
 5653SOL     OW17845   2.628   4.002   9.202
 5653SOL    HW117846   2.703   3.943   9.203
 5653SOL    HW217847   2.579   3.980   9.281
 5654SOL     OW17848   3.205   4.311   8.877
 5654SOL    HW117849   3.228   4.275   8.962
 5654SOL    HW217850   3.246   4.398   8.876
 5655SOL     OW17851   2.785   4.236   8.346
 5655SOL    HW117852   2.763   4.220   8.254
 5655SOL    HW217853   2.824   4.154   8.376
 5656SOL     OW17854   2.411   3.787   7.951
 5656SOL    HW117855   2.330   3.787   8.002
 5656SOL    HW217856   2.404   3.866   7.896
 5657SOL     OW17857   2.154   3.771   7.633
 5657SOL    HW117858   2.212   3.836   7.593
 5657SOL    HW217859   2.212   3.708   7.674
 5658SOL     OW17860   2.799   3.972   7.910
 5658SOL    HW117861   2.773   4.010   7.826
 5658SOL    HW217862   2.894   3.984   7.913
 5659SOL     OW17863   2.938   4.395   8.969
 5659SOL    HW117864   2.854   4.366   8.933
 5659SOL    HW217865   3.004   4.356   8.913
 5660SOL     OW17866   2.887   4.267   7.474
 5660SOL    HW117867   2.870   4.354   7.439
 5660SOL    HW217868   2.950   4.281   7.544
 5661SOL     OW17869   1.937   4.280   8.841
 5661SOL    HW117870   2.029   4.272   8.813
 5661SOL    HW217871   1.937   4.353   8.902
 5662SOL     OW17872   2.421   3.950   8.612
 5662SOL    HW117873   2.462   3.874   8.652
 5662SOL    HW217874   2.331   3.948   8.642
 5663SOL     OW17875   2.731   4.189   8.085
 5663SOL    HW117876   2.697   4.248   8.017
 5663SOL    HW217877   2.750   4.108   8.038
 5664SOL     OW17878   2.876   3.777   8.200
 5664SOL    HW117879   2.818   3.769   8.124
 5664SOL    HW217880   2.855   3.701   8.255
 5665SOL     OW17881   3.339   4.311   8.414
 5665SOL    HW117882   3.280   4.239   8.434
 5665SOL    HW217883   3.390   4.324   8.494
 5666SOL     OW17884   3.264   4.295   7.521
 5666SOL    HW117885   3.202   4.269   7.588
 5666SOL    HW217886   3.347   4.254   7.547
 5667SOL     OW17887   2.387   3.988   7.767
 5667SOL    HW117888   2.429   3.938   7.697
 5667SOL    HW217889   2.370   4.074   7.729
 5668SOL     OW17890   2.780   3.821   8.844
 5668SOL    HW117891   2.804   3.801   8.754
 5668SOL    HW217892   2.859   3.860   8.882
 5669SOL     OW17893   2.296   0.009   8.722
 5669SOL    HW117894   2.363   0.003   8.790
 5669SOL    HW217895   2.253   4.423   8.723
 5670SOL     OW17896   3.127   4.100   8.722
 5670SOL    HW117897   3.161   4.177   8.767
 5670SOL    HW217898   3.038   4.124   8.698
 5671SOL     OW17899   2.415   4.254   8.313
 5671SOL    HW117900   2.435   4.297   8.230
 5671SOL    HW217901   2.480   4.289   8.374
 5672SOL     OW17902   3.431   4.339   7.925
 5672SOL    HW117903   3.404   4.404   7.989
 5672SOL    HW217904   3.492   4.386   7.867
 5673SOL     OW17905   2.858   3.846   9.204
 5673SOL    HW117906   2.913   3.919   9.176
 5673SOL    HW217907   2.906   3.768   9.178
 5674SOL     OW17908   2.360   3.765   9.195
 5674SOL    HW117909   2.317   3.711   9.129
 5674SOL    HW217910   2.301   3.840   9.207
 5675SOL     OW17911   3.072   4.254   7.712
 5675SOL    HW117912   3.082   4.175   7.765
 5675SOL    HW217913   3.023   4.314   7.769
 5676SOL     OW17914   2.161   3.923   8.694
 5676SOL    HW117915   2.124   3.956   8.776
 5676SOL    HW217916   2.142   3.829   8.695
 5677SOL     OW17917   2.594   4.360   8.493
 5677SOL    HW117918   2.667   4.324   8.443
 5677SOL    HW217919   2.602   4.455   8.482
 5678SOL     OW17920   3.613   0.134   9.302
 5678SOL    HW117921   3.548   0.148   9.234
 5678SOL    HW217922   3.569   0.160   9.383
 5679SOL     OW17923   2.165   3.789   8.071
 5679SOL    HW117924   2.145   3.880   8.095
 5679SOL    HW217925   2.172   3.743   8.155
 5680SOL     OW17926   3.476   4.091   7.816
 5680SOL    HW117927   3.505   4.030   7.884
 5680SOL    HW217928   3.452   4.171   7.864
 5681SOL     OW17929   3.389   3.999   7.575
 5681SOL    HW117930   3.326   3.932   7.601
 5681SOL    HW217931   3.424   4.032   7.658
 5682SOL     OW17932   2.180   0.012   8.368
 5682SOL    HW117933   2.257   0.069   8.380
 5682SOL    HW217934   2.194   4.440   8.429
 5683SOL     OW17935   2.199   4.240   8.469
 5683SOL    HW117936   2.159   4.155   8.450
 5683SOL    HW217937   2.272   4.247   8.409
 5684SOL     OW17938   2.999   4.093   9.134
 5684SOL    HW117939   2.947   4.153   9.187
 5684SOL    HW217940   3.084   4.138   9.125
 5685SOL     OW17941   3.022   3.927   8.917
 5685SOL    HW117942   3.013   3.988   8.990
 5685SOL    HW217943   3.062   3.979   8.847
 5686SOL     OW17944   1.898   4.271   8.563
 5686SOL    HW117945   1.979   4.255   8.515
 5686SOL    HW217946   1.925   4.274   8.655
 5687SOL     OW17947   2.055   4.243   9.165
 5687SOL    HW117948   2.111   4.198   9.102
 5687SOL    HW217949   2.001   4.302   9.112
 5688SOL     OW17950   2.681   4.282   7.798
 5688SOL    HW117951   2.682   4.208   7.737
 5688SOL    HW217952   2.594   4.320   7.787
 5689SOL     OW17953   3.499   4.318   8.635
 5689SOL    HW117954   3.494   4.260   8.711
 5689SOL    HW217955   3.587   4.304   8.600
 5690SOL     OW17956   2.547   4.182   8.703
 5690SOL    HW117957   2.501   4.104   8.671
 5690SOL    HW217958   2.549   4.241   8.628
 5691SOL     OW17959   2.343   4.223   7.638
 5691SOL    HW117960   2.375   4.311   7.659
 5691SOL    HW217961   2.248   4.234   7.626
 5692SOL     OW17962   3.581   3.869   7.959
 5692SOL    HW117963   3.654   3.854   7.899
 5692SOL    HW217964   3.566   3.783   7.999
 5693SOL     OW17965   3.141   0.136   8.127
 5693SOL    HW117966   3.199   0.061   8.137
 5693SOL    HW217967   3.192   0.199   8.075
 5694SOL     OW17968   3.701   3.896   8.416
 5694SOL    HW117969   3.731   3.810   8.387
 5694SOL    HW217970   3.616   3.907   8.375
 5695SOL     OW17971   2.124   4.041   8.166
 5695SOL    HW117972   2.037   4.072   8.141
 5695SOL    HW217973   2.120   4.030   8.261
 5696SOL     OW17974   2.770   0.090   7.666
 5696SOL    HW117975   2.851   0.131   7.636
 5696SOL    HW217976   2.792   0.053   7.752
 5697SOL     OW17977   2.928   0.300   8.189
 5697SOL    HW117978   2.850   0.286   8.135
 5697SOL    HW217979   2.991   0.235   8.157
 5698SOL     OW17980   2.882   3.964   8.413
 5698SOL    HW117981   2.877   3.915   8.331
 5698SOL    HW217982   2.877   3.897   8.481
 5699SOL     OW17983   3.583   4.114   8.828
 5699SOL    HW117984   3.654   4.178   8.825
 5699SOL    HW217985   3.613   4.043   8.772
 5700SOL     OW17986   2.536   3.919   8.947
 5700SOL    HW117987   2.620   3.901   8.906
 5700SOL    HW217988   2.559   3.951   9.035
 5701SOL     OW17989   1.937   4.043   7.477
 5701SOL    HW117990   1.850   4.037   7.438
 5701SOL    HW217991   1.969   4.129   7.450
 5702SOL     OW17992   1.931   3.881   7.760
 5702SOL    HW117993   1.916   3.960   7.708
 5702SOL    HW217994   2.016   3.848   7.728
 5703SOL     OW17995   2.591   4.286   9.150
 5703SOL    HW117996   2.592   4.332   9.234
 5703SOL    HW217997   2.611   4.195   9.172
 5704SOL     OW17998   3.080   4.042   7.903
 5704SOL    HW117999   3.143   3.970   7.894
 5704SOL    HW218000   3.109   4.090   7.980
 5705SOL     OW18001   3.622   4.090   9.096
 5705SOL    HW118002   3.606   4.101   9.003
 5705SOL    HW218003   3.553   4.031   9.127
 5706SOL     OW18004   2.973   0.228   7.551
 5706SOL    HW118005   2.957   0.270   7.466
 5706SOL    HW218006   3.056   0.182   7.540
 5707SOL     OW18007   3.676   3.908   8.686
 5707SOL    HW118008   3.685   3.813   8.700
 5707SOL    HW218009   3.684   3.919   8.592
 5708SOL     OW18010   2.304   4.156   7.985
 5708SOL    HW118011   2.325   4.086   7.923
 5708SOL    HW218012   2.249   4.114   8.051
 5709SOL     OW18013   2.186   4.264   8.742
 5709SOL    HW118014   2.242   4.210   8.797
 5709SOL    HW218015   2.206   4.238   8.652
 5710SOL     OW18016   3.294   3.948   8.566
 5710SOL    HW118017   3.320   3.869   8.612
 5710SOL    HW218018   3.242   3.998   8.629
 5711SOL     OW18019   2.871   3.743   8.591
 5711SOL    HW118020   2.817   3.675   8.551
 5711SOL    HW218021   2.959   3.706   8.593
 5712SOL     OW18022   3.214   3.778   7.612
 5712SOL    HW118023   3.242   3.714   7.546
 5712SOL    HW218024   3.127   3.748   7.639
 5713SOL     OW18025   3.161   4.176   8.129
 5713SOL    HW118026   3.123   4.262   8.144
 5713SOL    HW218027   3.161   4.134   8.216
 5714SOL     OW18028   3.448   3.927   8.325
 5714SOL    HW118029   3.388   3.948   8.396
 5714SOL    HW218030   3.449   4.005   8.270
 5715SOL     OW18031   2.086   4.287   9.434
 5715SOL    HW118032   2.033   4.357   9.471
 5715SOL    HW218033   2.078   4.298   9.339
 5716SOL     OW18034   2.086   4.000  10.300
 5716SOL    HW118035   2.114   3.968  10.386
 5716SOL    HW218036   1.996   3.970  10.291
 5717SOL     OW18037   1.867   4.101   9.953
 5717SOL    HW118038   1.785   4.130   9.992
 5717SOL    HW218039   1.843   4.024   9.902
 5718SOL     OW18040   3.594   4.335   9.547
 5718SOL    HW118041   3.593   4.322   9.452
 5718SOL    HW218042   3.594   4.246   9.584
 5719SOL     OW18043   2.592   0.270   9.997
 5719SOL    HW118044   2.582   0.208  10.068
 5719SOL    HW218045   2.502   0.284   9.965
 5720SOL     OW18046   2.316   4.118  10.792
 5720SOL    HW118047   2.386   4.053  10.799
 5720SOL    HW218048   2.236   4.070  10.816
 5721SOL     OW18049   3.477   4.172  10.049
 5721SOL    HW118050   3.407   4.198   9.989
 5721SOL    HW218051   3.479   4.243  10.114
 5722SOL     OW18052   3.451   3.840  10.778
 5722SOL    HW118053   3.464   3.921  10.728
 5722SOL    HW218054   3.451   3.869  10.870
 5723SOL     OW18055   1.938   4.373   9.880
 5723SOL    HW118056   1.932   4.280   9.900
 5723SOL    HW218057   2.005   4.406   9.940
 5724SOL     OW18058   1.991   4.459  10.905
 5724SOL    HW118059   2.087   4.464  10.907
 5724SOL    HW218060   1.963   0.050  10.894
 5725SOL     OW18061   2.676   3.724   9.817
 5725SOL    HW118062   2.716   3.809   9.800
 5725SOL    HW218063   2.583   3.743   9.827
 5726SOL     OW18064   2.205   3.978   0.018
 5726SOL    HW118065   2.247   4.062   0.034
 5726SOL    HW218066   2.112   3.995   0.033
 5727SOL     OW18067   3.139   4.073  10.243
 5727SOL    HW118068   3.050   4.039  10.252
 5727SOL    HW218069   3.191   4.020  10.304
 5728SOL     OW18070   2.686   4.302  10.765
 5728SOL    HW118071   2.638   4.316  10.846
 5728SOL    HW218072   2.622   4.263  10.706
 5729SOL     OW18073   2.859   4.148  10.545
 5729SOL    HW118074   2.783   4.170  10.599
 5729SOL    HW218075   2.823   4.092  10.476
 5730SOL     OW18076   2.918   4.410   9.728
 5730SOL    HW118077   2.916   4.450   9.815
 5730SOL    HW218078   2.831   4.372   9.718
 5731SOL     OW18079   2.752   4.064   9.500
 5731SOL    HW118080   2.794   4.127   9.441
 5731SOL    HW218081   2.771   3.979   9.461
 5732SOL     OW18082   2.413   3.906  10.203
 5732SOL    HW118083   2.413   3.933  10.294
 5732SOL    HW218084   2.411   3.987  10.153
 5733SOL     OW18085   3.352   4.464  10.048
 5733SOL    HW118086   3.334   4.410  10.124
 5733SOL    HW218087   3.392   0.044  10.084
 5734SOL     OW18088   2.064   4.003  10.807
 5734SOL    HW118089   1.984   4.056  10.808
 5734SOL    HW218090   2.052   3.940  10.878
 5735SOL     OW18091   3.263   3.830   9.742
 5735SOL    HW118092   3.253   3.806   9.650
 5735SOL    HW218093   3.357   3.840   9.754
 5736SOL     OW18094   2.217   4.387   9.718
 5736SOL    HW118095   2.255   4.311   9.762
 5736SOL    HW218096   2.146   4.416   9.776
 5737SOL     OW18097   2.495   3.847   9.416
 5737SOL    HW118098   2.566   3.784   9.428
 5737SOL    HW218099   2.447   3.815   9.339
 5738SOL     OW18100   2.628   4.002  11.046
 5738SOL    HW118101   2.695   3.943  11.082
 5738SOL    HW218102   2.568   4.018   0.019
 5739SOL     OW18103   3.214   4.308  10.743
 5739SOL    HW118104   3.233   4.289  10.835
 5739SOL    HW218105   3.240   4.400  10.732
 5740SOL     OW18106   2.785   4.236  10.208
 5740SOL    HW118107   2.762   4.220  10.116
 5740SOL    HW218108   2.824   4.154  10.238
 5741SOL     OW18109   2.411   3.787   9.813
 5741SOL    HW118110   2.330   3.787   9.865
 5741SOL    HW218111   2.404   3.866   9.758
 5742SOL     OW18112   2.154   3.771   9.495
 5742SOL    HW118113   2.212   3.836   9.456
 5742SOL    HW218114   2.212   3.708   9.536
 5743SOL     OW18115   2.799   3.971   9.772
 5743SOL    HW118116   2.773   4.010   9.688
 5743SOL    HW218117   2.894   3.984   9.775
 5744SOL     OW18118   2.941   4.379  10.825
 5744SOL    HW118119   2.854   4.363  10.789
 5744SOL    HW218120   3.001   4.346  10.758
 5745SOL     OW18121   2.886   4.267   9.336
 5745SOL    HW118122   2.870   4.354   9.301
 5745SOL    HW218123   2.950   4.281   9.406
 5746SOL     OW18124   1.935   4.280  10.706
 5746SOL    HW118125   2.026   4.273  10.677
 5746SOL    HW218126   1.938   4.340  10.780
 5747SOL     OW18127   2.421   3.950  10.474
 5747SOL    HW118128   2.461   3.873  10.515
 5747SOL    HW218129   2.330   3.949  10.505
 5748SOL     OW18130   2.731   4.189   9.947
 5748SOL    HW118131   2.697   4.248   9.880
 5748SOL    HW218132   2.750   4.108   9.900
 5749SOL     OW18133   2.876   3.778  10.063
 5749SOL    HW118134   2.818   3.769   9.986
 5749SOL    HW218135   2.855   3.701  10.117
 5750SOL     OW18136   3.339   4.312  10.276
 5750SOL    HW118137   3.281   4.238  10.295
 5750SOL    HW218138   3.390   4.324  10.356
 5751SOL     OW18139   3.264   4.296   9.383
 5751SOL    HW118140   3.202   4.269   9.450
 5751SOL    HW218141   3.347   4.255   9.409
 5752SOL     OW18142   2.387   3.987   9.629
 5752SOL    HW118143   2.429   3.938   9.559
 5752SOL    HW218144   2.370   4.074   9.591
 5753SOL     OW18145   2.781   3.823  10.706
 5753SOL    HW118146   2.804   3.802  10.615
 5753SOL    HW218147   2.859   3.863  10.743
 5754SOL     OW18148   2.298   0.006  10.576
 5754SOL    HW118149   2.356   0.006  10.652
 5754SOL    HW218150   2.251   4.423  10.582
 5755SOL     OW18151   3.128   4.099  10.587
 5755SOL    HW118152   3.163   4.176  10.630
 5755SOL    HW218153   3.039   4.125  10.560
 5756SOL     OW18154   2.416   4.253  10.175
 5756SOL    HW118155   2.435   4.297  10.092
 5756SOL    HW218156   2.480   4.289  10.237
 5757SOL     OW18157   3.431   4.339   9.787
 5757SOL    HW118158   3.404   4.405   9.851
 5757SOL    HW218159   3.492   4.386   9.729
 5758SOL     OW18160   2.267   4.462  10.905
 5758SOL    HW118161   2.333   0.031  10.889
 5758SOL    HW218162   2.318   4.383  10.919
 5759SOL     OW18163   3.072   4.254   9.574
 5759SOL    HW118164   3.082   4.175   9.627
 5759SOL    HW218165   3.023   4.314   9.631
 5760SOL     OW18166   2.161   3.923  10.555
 5760SOL    HW118167   2.126   3.957  10.638
 5760SOL    HW218168   2.142   3.830  10.557
 5761SOL     OW18169   2.594   4.360  10.354
 5761SOL    HW118170   2.667   4.325  10.305
 5761SOL    HW218171   2.601   4.455  10.343
 5762SOL     OW18172   2.165   3.789   9.933
 5762SOL    HW118173   2.145   3.880   9.956
 5762SOL    HW218174   2.171   3.743  10.017
 5763SOL     OW18175   3.476   4.091   9.678
 5763SOL    HW118176   3.505   4.030   9.746
 5763SOL    HW218177   3.452   4.171   9.726
 5764SOL     OW18178   3.389   3.999   9.437
 5764SOL    HW118179   3.326   3.932   9.463
 5764SOL    HW218180   3.424   4.032   9.520
 5765SOL     OW18181   2.181   0.012  10.229
 5765SOL    HW118182   2.257   0.069  10.243
 5765SOL    HW218183   2.193   4.440  10.292
 5766SOL     OW18184   2.199   4.239  10.331
 5766SOL    HW118185   2.159   4.154  10.311
 5766SOL    HW218186   2.272   4.246  10.270
 5767SOL     OW18187   3.019   3.932  10.782
 5767SOL    HW118188   3.027   3.992  10.856
 5767SOL    HW218189   3.060   3.979  10.709
 5768SOL     OW18190   1.899   4.273  10.427
 5768SOL    HW118191   1.980   4.256  10.380
 5768SOL    HW218192   1.924   4.276  10.519
 5769SOL     OW18193   3.211   0.189  10.990
 5769SOL    HW118194   3.278   0.256  11.003
 5769SOL    HW218195   3.229   0.154  10.902
 5770SOL     OW18196   2.681   4.282   9.660
 5770SOL    HW118197   2.682   4.208   9.599
 5770SOL    HW218198   2.594   4.320   9.649
 5771SOL     OW18199   3.499   4.318  10.497
 5771SOL    HW118200   3.495   4.259  10.572
 5771SOL    HW218201   3.587   4.306  10.461
 5772SOL     OW18202   2.553   4.181  10.564
 5772SOL    HW118203   2.502   4.105  10.535
 5772SOL    HW218204   2.550   4.241  10.490
 5773SOL     OW18205   2.343   4.223   9.500
 5773SOL    HW118206   2.375   4.310   9.521
 5773SOL    HW218207   2.248   4.234   9.488
 5774SOL     OW18208   3.581   3.869   9.821
 5774SOL    HW118209   3.654   3.855   9.761
 5774SOL    HW218210   3.566   3.783   9.860
 5775SOL     OW18211   3.142   0.137   9.989
 5775SOL    HW118212   3.199   0.061  10.000
 5775SOL    HW218213   3.192   0.199   9.936
 5776SOL     OW18214   3.701   3.896  10.278
 5776SOL    HW118215   3.731   3.810  10.250
 5776SOL    HW218216   3.616   3.907  10.237
 5777SOL     OW18217   2.124   4.041  10.028
 5777SOL    HW118218   2.037   4.072  10.003
 5777SOL    HW218219   2.120   4.030  10.123
 5778SOL     OW18220   2.770   0.091   9.529
 5778SOL    HW118221   2.851   0.131   9.498
 5778SOL    HW218222   2.792   0.053   9.614
 5779SOL     OW18223   2.928   0.300  10.051
 5779SOL    HW118224   2.850   0.286   9.997
 5779SOL    HW218225   2.991   0.236  10.019
 5780SOL     OW18226   2.882   3.964  10.275
 5780SOL    HW118227   2.877   3.916  10.193
 5780SOL    HW218228   2.877   3.897  10.343
 5781SOL     OW18229   3.579   4.116  10.690
 5781SOL    HW118230   3.651   4.179  10.691
 5781SOL    HW218231   3.610   4.045  10.633
 5782SOL     OW18232   2.536   3.917  10.804
 5782SOL    HW118233   2.618   3.898  10.759
 5782SOL    HW218234   2.562   3.955  10.888
 5783SOL     OW18235   1.937   4.043   9.339
 5783SOL    HW118236   1.850   4.037   9.300
 5783SOL    HW218237   1.969   4.129   9.312
 5784SOL     OW18238   1.931   3.880   9.622
 5784SOL    HW118239   1.916   3.960   9.571
 5784SOL    HW218240   2.016   3.848   9.590
 5785SOL     OW18241   2.581   4.299  11.024
 5785SOL    HW118242   2.622   4.344  11.098
 5785SOL    HW218243   2.619   4.211  11.026
 5786SOL     OW18244   3.080   4.042   9.765
 5786SOL    HW118245   3.143   3.970   9.756
 5786SOL    HW218246   3.109   4.090   9.842
 5787SOL     OW18247   3.615   4.051  10.956
 5787SOL    HW118248   3.594   4.081  10.867
 5787SOL    HW218249   3.533   4.057  11.003
 5788SOL     OW18250   2.973   0.228   9.413
 5788SOL    HW118251   2.957   0.270   9.328
 5788SOL    HW218252   3.056   0.182   9.402
 5789SOL     OW18253   3.672   3.907  10.549
 5789SOL    HW118254   3.683   3.813  10.562
 5789SOL    HW218255   3.683   3.920  10.454
 5790SOL     OW18256   2.304   4.156   9.847
 5790SOL    HW118257   2.325   4.086   9.785
 5790SOL    HW218258   2.249   4.114   9.913
 5791SOL     OW18259   2.183   4.264  10.604
 5791SOL    HW118260   2.240   4.210  10.659
 5791SOL    HW218261   2.205   4.237  10.514
 5792SOL     OW18262   3.293   3.948  10.427
 5792SOL    HW118263   3.322   3.869  10.474
 5792SOL    HW218264   3.242   3.996  10.492
 5793SOL     OW18265   2.871   3.743  10.454
 5793SOL    HW118266   2.816   3.676  10.412
 5793SOL    HW218267   2.959   3.706  10.455
 5794SOL     OW18268   3.214   3.778   9.474
 5794SOL    HW118269   3.242   3.714   9.408
 5794SOL    HW218270   3.127   3.748   9.501
 5795SOL     OW18271   3.161   4.175   9.991
 5795SOL    HW118272   3.124   4.262  10.006
 5795SOL    HW218273   3.160   4.135  10.078
 5796SOL     OW18274   3.448   3.927  10.187
 5796SOL    HW118275   3.388   3.948  10.258
 5796SOL    HW218276   3.449   4.005  10.132
 5797SOL     OW18277   3.947   0.611   0.115
 5797SOL    HW118278   3.864   0.619   0.161
 5797SOL    HW218279   3.929   0.642   0.026
 5798SOL     OW18280   3.930   0.302   0.989
 5798SOL    HW118281   3.965   0.272   1.073
 5798SOL    HW218282   3.850   0.252   0.976
 5799SOL     OW18283   3.730   0.386   0.638
 5799SOL    HW118284   3.645   0.405   0.675
 5799SOL    HW218285   3.715   0.310   0.581
 5800SOL     OW18286   4.266   1.246   1.148
 5800SOL    HW118287   4.196   1.307   1.123
 5800SOL    HW218288   4.333   1.301   1.188
 5801SOL     OW18289   0.022   0.778   1.857
 5801SOL    HW118290   0.069   0.825   1.925
 5801SOL    HW218291   0.063   0.806   1.775
 5802SOL     OW18292   4.396   0.990   0.638
 5802SOL    HW118293   4.474   0.992   0.695
 5802SOL    HW218294   4.335   1.050   0.680
 5803SOL     OW18295   4.419   1.161   1.813
 5803SOL    HW118296   4.460   1.242   1.781
 5803SOL    HW218297   4.327   1.169   1.788
 5804SOL     OW18298   4.060   1.432   1.069
 5804SOL    HW118299   3.988   1.390   1.023
 5804SOL    HW218300   4.106   1.481   1.000
 5805SOL     OW18301   4.163   0.396   1.487
 5805SOL    HW118302   4.242   0.342   1.488
 5805SOL    HW218303   4.092   0.333   1.500
 5806SOL     OW18304   3.942   1.713   0.475
 5806SOL    HW118305   3.963   1.791   0.527
 5806SOL    HW218306   4.012   1.708   0.410
 5807SOL     OW18307   3.951   1.440   0.532
 5807SOL    HW118308   3.936   1.535   0.537
 5807SOL    HW218309   3.891   1.403   0.597
 5808SOL     OW18310   3.975   1.088   0.887
 5808SOL    HW118311   3.979   1.004   0.931
 5808SOL    HW218312   3.923   1.144   0.945
 5809SOL     OW18313   4.361   1.798   1.454
 5809SOL    HW118314   4.274   1.764   1.478
 5809SOL    HW218315   4.350   1.893   1.454
 5810SOL     OW18316   4.299   1.004   0.138
 5810SOL    HW118317   4.313   1.071   0.071
 5810SOL    HW218318   4.380   1.004   0.190
 5811SOL     OW18319   3.838   0.651   0.560
 5811SOL    HW118320   3.808   0.563   0.582
 5811SOL    HW218321   3.830   0.701   0.641
 5812SOL     OW18322   3.770   1.602   0.120
 5812SOL    HW118323   3.741   1.513   0.143
 5812SOL    HW218324   3.742   1.656   0.194
 5813SOL     OW18325   3.845   0.744   1.585
 5813SOL    HW118326   3.937   0.770   1.595
 5813SOL    HW218327   3.796   0.826   1.591
 5814SOL     OW18328   4.310   1.387   0.738
 5814SOL    HW118329   4.275   1.298   0.741
 5814SOL    HW218330   4.311   1.409   0.645
 5815SOL     OW18331   0.016   0.008   0.502
 5815SOL    HW118332   0.047   0.075   0.442
 5815SOL    HW218333   4.428   0.036   0.526
 5816SOL     OW18334   3.912   0.965   1.272
 5816SOL    HW118335   3.998   0.926   1.254
 5816SOL    HW218336   3.850   0.913   1.222
 5817SOL     OW18337   4.039   0.252   1.784
 5817SOL    HW118338   4.101   0.319   1.814
 5817SOL    HW218339   3.964   0.260   1.844
 5818SOL     OW18340   4.308   0.717   0.269
 5818SOL    HW118341   4.330   0.794   0.216
 5818SOL    HW218342   4.245   0.750   0.334
 5819SOL     OW18343   3.813   0.821   0.775
 5819SOL    HW118344   3.894   0.813   0.826
 5819SOL    HW218345   3.770   0.899   0.810
 5820SOL     OW18346   3.853   1.845   1.577
 5820SOL    HW118347   3.852   1.825   1.671
 5820SOL    HW218348   3.761   1.839   1.550
 5821SOL     OW18349   4.246   0.203   0.895
 5821SOL    HW118350   4.284   0.219   0.981
 5821SOL    HW218351   4.262   0.284   0.846
 5822SOL     OW18352   4.082   1.812   0.863
 5822SOL    HW118353   4.131   1.730   0.870
 5822SOL    HW218354   4.148   1.880   0.873
 5823SOL     OW18355   4.041   0.959   0.275
 5823SOL    HW118356   4.120   0.983   0.227
 5823SOL    HW218357   4.014   0.876   0.236
 5824SOL     OW18358   4.178   1.252   1.735
 5824SOL    HW118359   4.151   1.264   1.644
 5824SOL    HW218360   4.097   1.262   1.785
 5825SOL     OW18361   3.912   0.269   1.512
 5825SOL    HW118362   3.845   0.335   1.494
 5825SOL    HW218363   3.923   0.270   1.607
 5826SOL     OW18364   4.191   1.733   0.326
 5826SOL    HW118365   4.223   1.795   0.392
 5826SOL    HW218366   4.265   1.721   0.266
 5827SOL     OW18367   3.980   1.793   1.232
 5827SOL    HW118368   4.027   1.723   1.277
 5827SOL    HW218369   3.966   1.759   1.144
 5828SOL     OW18370   4.108   0.694   0.475
 5828SOL    HW118371   4.135   0.603   0.488
 5828SOL    HW218372   4.015   0.695   0.498
 5829SOL     OW18373   4.344   0.130   0.104
 5829SOL    HW118374   4.428   0.096   0.134
 5829SOL    HW218375   4.322   0.076   0.028
 5830SOL     OW18376   0.021   1.420   0.911
 5830SOL    HW118377   0.082   1.467   0.855
 5830SOL    HW218378   4.445   1.403   0.856
 5831SOL     OW18379   4.272   0.109   0.538
 5831SOL    HW118380   4.188   0.074   0.566
 5831SOL    HW218381   4.253   0.158   0.458
 5832SOL     OW18382   4.011   0.055   0.200
 5832SOL    HW118383   4.076   0.108   0.155
 5832SOL    HW218384   4.060   0.008   0.267
 5833SOL     OW18385   0.323   0.677   1.459
 5833SOL    HW118386   0.253   0.615   1.442
 5833SOL    HW218387   0.404   0.628   1.444
 5834SOL     OW18388   4.191   1.145   0.736
 5834SOL    HW118389   4.122   1.126   0.799
 5834SOL    HW218390   4.150   1.130   0.651
 5835SOL     OW18391   3.806   0.550   1.395
 5835SOL    HW118392   3.897   0.554   1.364
 5835SOL    HW218393   3.799   0.622   1.457
 5836SOL     OW18394   4.296   0.236   1.159
 5836SOL    HW118395   4.304   0.143   1.181
 5836SOL    HW218396   4.208   0.260   1.189
 5837SOL     OW18397   4.236   1.400   0.190
 5837SOL    HW118398   4.151   1.386   0.232
 5837SOL    HW218399   4.221   1.382   0.098
 5838SOL     OW18400   4.243   0.266   0.318
 5838SOL    HW118401   4.285   0.214   0.249
 5838SOL    HW218402   4.224   0.349   0.275
 5839SOL     OW18403   4.140   0.814   1.250
 5839SOL    HW118404   4.207   0.824   1.317
 5839SOL    HW218405   4.106   0.726   1.263
 5840SOL     OW18406   3.793   1.573   1.353
 5840SOL    HW118407   3.761   1.644   1.297
 5840SOL    HW218408   3.889   1.579   1.346
 5841SOL     OW18409   4.070   1.117   0.496
 5841SOL    HW118410   4.071   1.190   0.435
 5841SOL    HW218411   4.066   1.039   0.441
 5842SOL     OW18412   4.303   0.538   0.862
 5842SOL    HW118413   4.302   0.604   0.793
 5842SOL    HW218414   4.365   0.572   0.927
 5843SOL     OW18415   4.072   1.533   1.316
 5843SOL    HW118416   4.066   1.490   1.231
 5843SOL    HW218417   4.166   1.535   1.336
 5844SOL     OW18418   4.137   0.741   1.605
 5844SOL    HW118419   4.194   0.787   1.544
 5844SOL    HW218420   4.184   0.659   1.624
 5845SOL     OW18421   4.238   0.070   1.726
 5845SOL    HW118422   4.205   4.486   1.695
 5845SOL    HW218423   4.160   0.122   1.743
 5846SOL     OW18424   4.290   0.889   1.026
 5846SOL    HW118425   4.320   0.979   1.040
 5846SOL    HW218426   4.243   0.867   1.106
 5847SOL     OW18427   4.014   0.237   1.240
 5847SOL    HW118428   3.971   0.249   1.325
 5847SOL    HW218429   4.051   0.149   1.244
 5848SOL     OW18430   3.770   1.311   1.277
 5848SOL    HW118431   3.803   1.256   1.349
 5848SOL    HW218432   3.776   1.400   1.310
 5849SOL     OW18433   4.018   0.058   0.656
 5849SOL    HW118434   4.008   0.153   0.659
 5849SOL    HW218435   4.030   0.032   0.747
 5850SOL     OW18436   4.077   0.916   1.808
 5850SOL    HW118437   4.158   0.931   1.855
 5850SOL    HW218438   4.099   0.851   1.741
 5851SOL     OW18439   4.031   0.809   0.946
 5851SOL    HW118440   4.123   0.837   0.946
 5851SOL    HW218441   4.034   0.719   0.978
 5852SOL     OW18442   4.068   0.532   1.010
 5852SOL    HW118443   4.024   0.449   0.991
 5852SOL    HW218444   4.146   0.531   0.955
 5853SOL     OW18445   3.732   1.327   0.194
 5853SOL    HW118446   3.645   1.339   0.156
 5853SOL    HW218447   3.732   1.237   0.225
 5854SOL     OW18448   3.816   1.788   0.939
 5854SOL    HW118449   3.786   1.709   0.895
 5854SOL    HW218450   3.905   1.800   0.907
 5855SOL     OW18451   4.232   1.583   0.906
 5855SOL    HW118452   4.318   1.615   0.934
 5855SOL    HW218453   4.252   1.513   0.844
 5856SOL     OW18454   3.757   0.543   1.118
 5856SOL    HW118455   3.833   0.519   1.065
 5856SOL    HW218456   3.791   0.547   1.207
 5857SOL     OW18457   3.909   0.519   1.721
 5857SOL    HW118458   3.984   0.499   1.664
 5857SOL    HW218459   3.867   0.594   1.680
 5858SOL     OW18460   0.027   0.544   0.266
 5858SOL    HW118461   0.017   0.487   0.342
 5858SOL    HW218462   4.464   0.615   0.281
 5859SOL     OW18463   3.970   1.553   1.728
 5859SOL    HW118464   3.943   1.617   1.795
 5859SOL    HW218465   3.967   1.469   1.773
 5860SOL     OW18466   4.189   0.489   0.175
 5860SOL    HW118467   4.245   0.561   0.204
 5860SOL    HW218468   4.102   0.529   0.167
 5861SOL     OW18469   3.871   1.140   1.472
 5861SOL    HW118470   3.872   1.088   1.553
 5861SOL    HW218471   3.886   1.077   1.402
 5862SOL     OW18472   3.808   1.269   1.013
 5862SOL    HW118473   3.793   1.279   1.107
 5862SOL    HW218474   3.737   1.213   0.983
 5863SOL     OW18475   4.389   1.651   1.701
 5863SOL    HW118476   4.355   1.737   1.727
 5863SOL    HW218477   4.432   1.667   1.617
 5864SOL     OW18478   3.860   1.797   1.843
 5864SOL    HW118479   3.809   1.732   1.892
 5864SOL    HW218480   3.908   1.845   1.911
 5865SOL     OW18481   3.988   0.326   0.716
 5865SOL    HW118482   3.901   0.358   0.692
 5865SOL    HW218483   3.984   0.315   0.811
 5866SOL     OW18484   4.088   1.307   1.491
 5866SOL    HW118485   4.069   1.382   1.435
 5866SOL    HW218486   4.016   1.246   1.474
 5867SOL     OW18487   4.325   1.490   0.481
 5867SOL    HW118488   4.344   1.434   0.406
 5867SOL    HW218489   4.257   1.550   0.450
 5868SOL     OW18490   3.990   1.342   0.288
 5868SOL    HW118491   3.902   1.342   0.250
 5868SOL    HW218492   3.979   1.380   0.375
 5869SOL     OW18493   3.836   1.022   1.720
 5869SOL    HW118494   3.760   0.998   1.772
 5869SOL    HW218495   3.910   0.984   1.767
 5870SOL     OW18496   4.370   0.205   1.489
 5870SOL    HW118497   4.460   0.223   1.463
 5870SOL    HW218498   4.376   0.176   1.580
 5871SOL     OW18499   3.801   0.342   0.053
 5871SOL    HW118500   3.725   0.310   0.004
 5871SOL    HW218501   3.818   0.429   0.017
 5872SOL     OW18502   3.790   0.181   0.325
 5872SOL    HW118503   3.784   0.247   0.256
 5872SOL    HW218504   3.861   0.124   0.297
 5873SOL     OW18505   4.338   0.840   1.435
 5873SOL    HW118506   4.378   0.925   1.419
 5873SOL    HW218507   4.411   0.781   1.453
 5874SOL     OW18508   4.398   0.559   1.733
 5874SOL    HW118509   4.421   0.634   1.788
 5874SOL    HW218510   4.481   0.520   1.708
 5875SOL     OW18511   4.108   1.739   1.561
 5875SOL    HW118512   4.022   1.780   1.547
 5875SOL    HW218513   4.088   1.657   1.607
 5876SOL     OW18514   4.310   0.729   0.665
 5876SOL    HW118515   4.351   0.815   0.656
 5876SOL    HW218516   4.239   0.729   0.600
 5877SOL     OW18517   3.943   1.307   1.855
 5877SOL    HW118518   3.878   1.243   1.826
 5877SOL    HW218519   3.928   1.317   1.948
 5878SOL     OW18520   3.808   1.233   0.666
 5878SOL    HW118521   3.812   1.184   0.748
 5878SOL    HW218522   3.878   1.197   0.612
 5879SOL     OW18523   4.416   1.386   1.659
 5879SOL    HW118524   4.326   1.353   1.654
 5879SOL    HW218525   4.407   1.480   1.674
 5880SOL     OW18526   4.163   0.433   0.530
 5880SOL    HW118527   4.182   0.361   0.469
 5880SOL    HW218528   4.108   0.394   0.598
 5881SOL     OW18529   4.053   0.556   1.289
 5881SOL    HW118530   4.106   0.497   1.343
 5881SOL    HW218531   4.072   0.529   1.199
 5882SOL     OW18532   0.035   1.598   0.687
 5882SOL    HW118533   0.063   1.658   0.618
 5882SOL    HW218534   4.465   1.547   0.647
 5883SOL     OW18535   3.766   1.071   0.300
 5883SOL    HW118536   3.862   1.065   0.297
 5883SOL    HW218537   3.738   0.983   0.326
 5884SOL     OW18538   3.954   0.626   1.982
 5884SOL    HW118539   3.867   0.619   2.021
 5884SOL    HW218540   3.943   0.595   1.892
 5885SOL     OW18541   3.930   0.303   2.851
 5885SOL    HW118542   3.964   0.272   2.935
 5885SOL    HW218543   3.850   0.252   2.838
 5886SOL     OW18544   3.731   0.387   2.500
 5886SOL    HW118545   3.645   0.405   2.537
 5886SOL    HW218546   3.717   0.312   2.442
 5887SOL     OW18547   4.267   1.246   3.007
 5887SOL    HW118548   4.196   1.307   2.985
 5887SOL    HW218549   4.332   1.301   3.051
 5888SOL     OW18550   0.022   0.778   3.719
 5888SOL    HW118551   0.069   0.825   3.787
 5888SOL    HW218552   0.063   0.806   3.637
 5889SOL     OW18553   4.398   0.992   2.499
 5889SOL    HW118554   4.472   0.987   2.560
 5889SOL    HW218555   4.336   1.051   2.542
 5890SOL     OW18556   4.419   1.161   3.675
 5890SOL    HW118557   4.459   1.242   3.644
 5890SOL    HW218558   4.327   1.169   3.650
 5891SOL     OW18559   4.060   1.433   2.931
 5891SOL    HW118560   3.988   1.389   2.886
 5891SOL    HW218561   4.106   1.481   2.862
 5892SOL     OW18562   4.163   0.396   3.349
 5892SOL    HW118563   4.242   0.342   3.350
 5892SOL    HW218564   4.091   0.333   3.362
 5893SOL     OW18565   3.942   1.714   2.336
 5893SOL    HW118566   3.963   1.790   2.389
 5893SOL    HW218567   4.016   1.706   2.275
 5894SOL     OW18568   3.954   1.441   2.396
 5894SOL    HW118569   3.935   1.534   2.402
 5894SOL    HW218570   3.895   1.400   2.459
 5895SOL     OW18571   3.975   1.088   2.749
 5895SOL    HW118572   3.979   1.004   2.793
 5895SOL    HW218573   3.923   1.143   2.807
 5896SOL     OW18574   4.361   1.798   3.316
 5896SOL    HW118575   4.274   1.764   3.340
 5896SOL    HW218576   4.350   1.893   3.316
 5897SOL     OW18577   4.310   0.985   2.000
 5897SOL    HW118578   4.339   1.038   1.926
 5897SOL    HW218579   4.377   0.997   2.066
 5898SOL     OW18580   3.839   0.652   2.422
 5898SOL    HW118581   3.810   0.564   2.444
 5898SOL    HW218582   3.831   0.701   2.503
 5899SOL     OW18583   3.756   1.595   1.986
 5899SOL    HW118584   3.738   1.503   2.005
 5899SOL    HW218585   3.732   1.642   2.066
 5900SOL     OW18586   3.845   0.744   3.447
 5900SOL    HW118587   3.936   0.770   3.457
 5900SOL    HW218588   3.796   0.826   3.453
 5901SOL     OW18589   4.311   1.387   2.599
 5901SOL    HW118590   4.275   1.298   2.603
 5901SOL    HW218591   4.312   1.409   2.506
 5902SOL     OW18592   0.019   0.017   2.374
 5902SOL    HW118593   0.048   0.079   2.307
 5902SOL    HW218594   4.428   0.042   2.392
 5903SOL     OW18595   3.912   0.966   3.134
 5903SOL    HW118596   3.998   0.926   3.116
 5903SOL    HW218597   3.850   0.912   3.084
 5904SOL     OW18598   4.039   0.252   3.646
 5904SOL    HW118599   4.101   0.319   3.676
 5904SOL    HW218600   3.964   0.260   3.706
 5905SOL     OW18601   4.312   0.728   2.132
 5905SOL    HW118602   4.309   0.806   2.076
 5905SOL    HW218603   4.245   0.743   2.198
 5906SOL     OW18604   3.812   0.821   2.638
 5906SOL    HW118605   3.893   0.813   2.688
 5906SOL    HW218606   3.770   0.900   2.672
 5907SOL     OW18607   3.853   1.846   3.439
 5907SOL    HW118608   3.852   1.825   3.533
 5907SOL    HW218609   3.761   1.839   3.412
 5908SOL     OW18610   4.244   0.202   2.759
 5908SOL    HW118611   4.284   0.220   2.844
 5908SOL    HW218612   4.262   0.281   2.707
 5909SOL     OW18613   4.082   1.812   2.724
 5909SOL    HW118614   4.131   1.730   2.732
 5909SOL    HW218615   4.148   1.880   2.735
 5910SOL     OW18616   4.043   0.958   2.112
 5910SOL    HW118617   4.126   0.976   2.067
 5910SOL    HW218618   4.013   0.875   2.074
 5911SOL     OW18619   4.178   1.252   3.597
 5911SOL    HW118620   4.151   1.264   3.506
 5911SOL    HW218621   4.097   1.262   3.647
 5912SOL     OW18622   3.912   0.269   3.374
 5912SOL    HW118623   3.845   0.335   3.356
 5912SOL    HW218624   3.923   0.270   3.469
 5913SOL     OW18625   4.192   1.735   2.187
 5913SOL    HW118626   4.224   1.795   2.254
 5913SOL    HW218627   4.261   1.732   2.121
 5914SOL     OW18628   3.980   1.793   3.094
 5914SOL    HW118629   4.027   1.723   3.140
 5914SOL    HW218630   3.966   1.759   3.006
 5915SOL     OW18631   4.111   0.694   2.335
 5915SOL    HW118632   4.136   0.603   2.349
 5915SOL    HW218633   4.018   0.697   2.356
 5916SOL     OW18634   4.327   0.121   1.979
 5916SOL    HW118635   4.413   0.080   1.991
 5916SOL    HW218636   4.303   0.100   1.889
 5917SOL     OW18637   0.020   1.422   2.774
 5917SOL    HW118638   0.083   1.464   2.717
 5917SOL    HW218639   4.444   1.404   2.718
 5918SOL     OW18640   4.271   0.109   2.401
 5918SOL    HW118641   4.187   0.068   2.422
 5918SOL    HW218642   4.254   0.160   2.322
 5919SOL     OW18643   4.023   0.072   2.059
 5919SOL    HW118644   4.103   0.121   2.041
 5919SOL    HW218645   4.052   4.500   2.116
 5920SOL     OW18646   0.324   0.677   3.322
 5920SOL    HW118647   0.252   0.616   3.303
 5920SOL    HW218648   0.403   0.627   3.306
 5921SOL     OW18649   4.190   1.145   2.595
 5921SOL    HW118650   4.121   1.126   2.659
 5921SOL    HW218651   4.149   1.128   2.510
 5922SOL     OW18652   3.806   0.550   3.257
 5922SOL    HW118653   3.897   0.554   3.226
 5922SOL    HW218654   3.799   0.622   3.319
 5923SOL     OW18655   4.297   0.237   3.022
 5923SOL    HW118656   4.304   0.143   3.042
 5923SOL    HW218657   4.208   0.260   3.051
 5924SOL     OW18658   4.230   1.386   2.035
 5924SOL    HW118659   4.146   1.372   2.077
 5924SOL    HW218660   4.209   1.402   1.942
 5925SOL     OW18661   4.244   0.271   2.185
 5925SOL    HW118662   4.284   0.215   2.119
 5925SOL    HW218663   4.224   0.352   2.139
 5926SOL     OW18664   4.140   0.814   3.111
 5926SOL    HW118665   4.207   0.824   3.179
 5926SOL    HW218666   4.106   0.726   3.125
 5927SOL     OW18667   3.793   1.573   3.215
 5927SOL    HW118668   3.761   1.644   3.160
 5927SOL    HW218669   3.889   1.579   3.208
 5928SOL     OW18670   4.071   1.109   2.352
 5928SOL    HW118671   4.073   1.181   2.289
 5928SOL    HW218672   4.070   1.030   2.297
 5929SOL     OW18673   4.302   0.539   2.725
 5929SOL    HW118674   4.301   0.605   2.655
 5929SOL    HW218675   4.365   0.572   2.789
 5930SOL     OW18676   4.072   1.534   3.178
 5930SOL    HW118677   4.066   1.490   3.093
 5930SOL    HW218678   4.166   1.534   3.198
 5931SOL     OW18679   4.137   0.741   3.467
 5931SOL    HW118680   4.195   0.787   3.406
 5931SOL    HW218681   4.184   0.659   3.486
 5932SOL     OW18682   4.238   0.070   3.588
 5932SOL    HW118683   4.205   4.486   3.557
 5932SOL    HW218684   4.160   0.123   3.605
 5933SOL     OW18685   4.291   0.890   2.888
 5933SOL    HW118686   4.320   0.980   2.903
 5933SOL    HW218687   4.243   0.866   2.968
 5934SOL     OW18688   4.014   0.237   3.102
 5934SOL    HW118689   3.971   0.249   3.187
 5934SOL    HW218690   4.051   0.149   3.106
 5935SOL     OW18691   3.772   1.311   3.139
 5935SOL    HW118692   3.803   1.256   3.211
 5935SOL    HW218693   3.776   1.400   3.172
 5936SOL     OW18694   4.013   0.055   2.520
 5936SOL    HW118695   4.007   0.151   2.520
 5936SOL    HW218696   4.027   0.031   2.611
 5937SOL     OW18697   4.077   0.916   3.669
 5937SOL    HW118698   4.158   0.930   3.718
 5937SOL    HW218699   4.099   0.851   3.603
 5938SOL     OW18700   4.031   0.809   2.808
 5938SOL    HW118701   4.123   0.837   2.808
 5938SOL    HW218702   4.034   0.719   2.840
 5939SOL     OW18703   4.068   0.532   2.872
 5939SOL    HW118704   4.024   0.449   2.853
 5939SOL    HW218705   4.146   0.531   2.817
 5940SOL     OW18706   3.729   1.321   2.057
 5940SOL    HW118707   3.642   1.335   2.019
 5940SOL    HW218708   3.727   1.232   2.091
 5941SOL     OW18709   3.816   1.788   2.800
 5941SOL    HW118710   3.786   1.708   2.756
 5941SOL    HW218711   3.905   1.800   2.769
 5942SOL     OW18712   4.232   1.583   2.767
 5942SOL    HW118713   4.318   1.614   2.797
 5942SOL    HW218714   4.252   1.512   2.706
 5943SOL     OW18715   3.757   0.544   2.980
 5943SOL    HW118716   3.832   0.519   2.926
 5943SOL    HW218717   3.791   0.547   3.069
 5944SOL     OW18718   3.909   0.519   3.583
 5944SOL    HW118719   3.984   0.499   3.526
 5944SOL    HW218720   3.867   0.594   3.542
 5945SOL     OW18721   0.029   0.550   2.125
 5945SOL    HW118722   0.020   0.487   2.196
 5945SOL    HW218723   4.463   0.617   2.143
 5946SOL     OW18724   3.970   1.553   3.591
 5946SOL    HW118725   3.943   1.616   3.657
 5946SOL    HW218726   3.967   1.469   3.635
 5947SOL     OW18727   4.191   0.495   2.046
 5947SOL    HW118728   4.248   0.568   2.068
 5947SOL    HW218729   4.105   0.535   2.034
 5948SOL     OW18730   3.871   1.140   3.335
 5948SOL    HW118731   3.872   1.088   3.415
 5948SOL    HW218732   3.887   1.077   3.264
 5949SOL     OW18733   3.808   1.269   2.875
 5949SOL    HW118734   3.794   1.279   2.969
 5949SOL    HW218735   3.737   1.213   2.845
 5950SOL     OW18736   4.389   1.651   3.563
 5950SOL    HW118737   4.355   1.737   3.589
 5950SOL    HW218738   4.432   1.667   3.479
 5951SOL     OW18739   3.860   1.797   3.705
 5951SOL    HW118740   3.809   1.732   3.754
 5951SOL    HW218741   3.908   1.845   3.773
 5952SOL     OW18742   3.989   0.326   2.578
 5952SOL    HW118743   3.902   0.358   2.554
 5952SOL    HW218744   3.985   0.315   2.674
 5953SOL     OW18745   4.088   1.306   3.352
 5953SOL    HW118746   4.069   1.382   3.297
 5953SOL    HW218747   4.016   1.246   3.337
 5954SOL     OW18748   4.326   1.490   2.342
 5954SOL    HW118749   4.343   1.431   2.269
 5954SOL    HW218750   4.259   1.550   2.309
 5955SOL     OW18751   3.984   1.350   2.148
 5955SOL    HW118752   3.891   1.345   2.126
 5955SOL    HW218753   3.986   1.385   2.237
 5956SOL     OW18754   3.836   1.022   3.582
 5956SOL    HW118755   3.759   0.998   3.634
 5956SOL    HW218756   3.910   0.985   3.629
 5957SOL     OW18757   4.369   0.205   3.351
 5957SOL    HW118758   4.460   0.223   3.325
 5957SOL    HW218759   4.376   0.176   3.442
 5958SOL     OW18760   3.805   0.340   1.910
 5958SOL    HW118761   3.734   0.286   1.874
 5958SOL    HW218762   3.818   0.408   1.844
 5959SOL     OW18763   3.788   0.182   2.181
 5959SOL    HW118764   3.787   0.249   2.113
 5959SOL    HW218765   3.864   0.128   2.160
 5960SOL     OW18766   4.338   0.840   3.297
 5960SOL    HW118767   4.378   0.925   3.282
 5960SOL    HW218768   4.411   0.781   3.315
 5961SOL     OW18769   4.398   0.559   3.594
 5961SOL    HW118770   4.421   0.634   3.650
 5961SOL    HW218771   4.481   0.520   3.570
 5962SOL     OW18772   4.107   1.739   3.423
 5962SOL    HW118773   4.022   1.780   3.410
 5962SOL    HW218774   4.088   1.657   3.469
 5963SOL     OW18775   4.309   0.731   2.528
 5963SOL    HW118776   4.351   0.816   2.516
 5963SOL    HW218777   4.240   0.728   2.462
 5964SOL     OW18778   3.943   1.307   3.716
 5964SOL    HW118779   3.878   1.243   3.688
 5964SOL    HW218780   3.928   1.318   3.810
 5965SOL     OW18781   3.809   1.234   2.527
 5965SOL    HW118782   3.811   1.186   2.609
 5965SOL    HW218783   3.877   1.194   2.473
 5966SOL     OW18784   4.416   1.386   3.520
 5966SOL    HW118785   4.326   1.353   3.516
 5966SOL    HW218786   4.406   1.480   3.536
 5967SOL     OW18787   4.165   0.435   2.395
 5967SOL    HW118788   4.183   0.366   2.331
 5967SOL    HW218789   4.109   0.393   2.460
 5968SOL     OW18790   4.053   0.556   3.151
 5968SOL    HW118791   4.106   0.497   3.205
 5968SOL    HW218792   4.072   0.529   3.061
 5969SOL     OW18793   0.036   1.599   2.548
 5969SOL    HW118794   0.059   1.660   2.478
 5969SOL    HW218795   4.466   1.545   2.511
 5970SOL     OW18796   3.768   1.071   2.167
 5970SOL    HW118797   3.862   1.061   2.150
 5970SOL    HW218798   3.739   0.983   2.191
 5971SOL     OW18799   3.954   0.626   3.844
 5971SOL    HW118800   3.867   0.620   3.884
 5971SOL    HW218801   3.942   0.595   3.754
 5972SOL     OW18802   3.930   0.303   4.713
 5972SOL    HW118803   3.964   0.272   4.797
 5972SOL    HW218804   3.850   0.252   4.700
 5973SOL     OW18805   3.731   0.386   4.362
 5973SOL    HW118806   3.645   0.405   4.399
 5973SOL    HW218807   3.717   0.312   4.304
 5974SOL     OW18808   4.268   1.246   4.868
 5974SOL    HW118809   4.196   1.306   4.847
 5974SOL    HW218810   4.332   1.302   4.913
 5975SOL     OW18811   0.021   0.778   5.581
 5975SOL    HW118812   0.070   0.825   5.649
 5975SOL    HW218813   0.063   0.805   5.499
 5976SOL     OW18814   4.399   0.992   4.361
 5976SOL    HW118815   4.471   0.985   4.423
 5976SOL    HW218816   4.336   1.051   4.404
 5977SOL     OW18817   4.419   1.161   5.537
 5977SOL    HW118818   4.459   1.242   5.506
 5977SOL    HW218819   4.327   1.169   5.512
 5978SOL     OW18820   4.060   1.432   4.793
 5978SOL    HW118821   3.987   1.389   4.748
 5978SOL    HW218822   4.105   1.480   4.724
 5979SOL     OW18823   4.163   0.396   5.211
 5979SOL    HW118824   4.242   0.342   5.212
 5979SOL    HW218825   4.091   0.333   5.224
 5980SOL     OW18826   3.942   1.714   4.198
 5980SOL    HW118827   3.964   1.791   4.251
 5980SOL    HW218828   4.016   1.706   4.137
 5981SOL     OW18829   3.955   1.441   4.258
 5981SOL    HW118830   3.935   1.534   4.265
 5981SOL    HW218831   3.895   1.400   4.321
 5982SOL     OW18832   3.976   1.089   4.611
 5982SOL    HW118833   3.979   1.004   4.655
 5982SOL    HW218834   3.923   1.144   4.668
 5983SOL     OW18835   4.361   1.798   5.179
 5983SOL    HW118836   4.274   1.764   5.202
 5983SOL    HW218837   4.350   1.893   5.178
 5984SOL     OW18838   4.310   0.985   3.862
 5984SOL    HW118839   4.340   1.038   3.787
 5984SOL    HW218840   4.377   0.997   3.928
 5985SOL     OW18841   3.840   0.652   4.284
 5985SOL    HW118842   3.810   0.564   4.306
 5985SOL    HW218843   3.831   0.702   4.365
 5986SOL     OW18844   3.757   1.595   3.848
 5986SOL    HW118845   3.738   1.503   3.867
 5986SOL    HW218846   3.732   1.642   3.927
 5987SOL     OW18847   3.845   0.744   5.309
 5987SOL    HW118848   3.936   0.770   5.319
 5987SOL    HW218849   3.796   0.826   5.314
 5988SOL     OW18850   4.311   1.387   4.461
 5988SOL    HW118851   4.275   1.299   4.465
 5988SOL    HW218852   4.312   1.409   4.368
 5989SOL     OW18853   0.019   0.017   4.236
 5989SOL    HW118854   0.048   0.079   4.169
 5989SOL    HW218855   4.428   0.042   4.254
 5990SOL     OW18856   3.912   0.965   4.997
 5990SOL    HW118857   3.997   0.926   4.978
 5990SOL    HW218858   3.850   0.914   4.946
 5991SOL     OW18859   4.039   0.252   5.508
 5991SOL    HW118860   4.101   0.319   5.538
 5991SOL    HW218861   3.965   0.260   5.568
 5992SOL     OW18862   4.312   0.728   3.994
 5992SOL    HW118863   4.309   0.806   3.938
 5992SOL    HW218864   4.245   0.743   4.060
 5993SOL     OW18865   3.813   0.821   4.499
 5993SOL    HW118866   3.893   0.814   4.550
 5993SOL    HW218867   3.769   0.899   4.534
 5994SOL     OW18868   3.853   1.845   5.301
 5994SOL    HW118869   3.851   1.826   5.394
 5994SOL    HW218870   3.762   1.839   5.273
 5995SOL     OW18871   4.244   0.202   4.621
 5995SOL    HW118872   4.284   0.220   4.706
 5995SOL    HW218873   4.262   0.281   4.569
 5996SOL     OW18874   4.082   1.811   4.586
 5996SOL    HW118875   4.131   1.730   4.594
 5996SOL    HW218876   4.148   1.880   4.598
 5997SOL     OW18877   4.043   0.958   3.974
 5997SOL    HW118878   4.125   0.976   3.929
 5997SOL    HW218879   4.012   0.875   3.936
 5998SOL     OW18880   4.178   1.252   5.458
 5998SOL    HW118881   4.151   1.264   5.367
 5998SOL    HW218882   4.097   1.262   5.509
 5999SOL     OW18883   3.912   0.269   5.236
 5999SOL    HW118884   3.845   0.336   5.218
 5999SOL    HW218885   3.923   0.271   5.331
 6000SOL     OW18886   4.191   1.735   4.049
 6000SOL    HW118887   4.224   1.795   4.116
 6000SOL    HW218888   4.261   1.732   3.984
 6001SOL     OW18889   3.981   1.793   4.956
 6001SOL    HW118890   4.027   1.723   5.002
 6001SOL    HW218891   3.965   1.758   4.869
 6002SOL     OW18892   4.111   0.694   4.197
 6002SOL    HW118893   4.136   0.602   4.211
 6002SOL    HW218894   4.018   0.697   4.218
 6003SOL     OW18895   4.327   0.121   3.841
 6003SOL    HW118896   4.413   0.080   3.853
 6003SOL    HW218897   4.303   0.100   3.751
 6004SOL     OW18898   0.020   1.422   4.636
 6004SOL    HW118899   0.083   1.464   4.578
 6004SOL    HW218900   4.444   1.404   4.580
 6005SOL     OW18901   4.271   0.109   4.263
 6005SOL    HW118902   4.187   0.068   4.284
 6005SOL    HW218903   4.254   0.160   4.184
 6006SOL     OW18904   4.023   0.071   3.921
 6006SOL    HW118905   4.103   0.121   3.903
 6006SOL    HW218906   4.053   0.000   3.978
 6007SOL     OW18907   0.324   0.677   5.185
 6007SOL    HW118908   0.252   0.617   5.166
 6007SOL    HW218909   0.403   0.626   5.168
 6008SOL     OW18910   4.190   1.145   4.457
 6008SOL    HW118911   4.122   1.126   4.521
 6008SOL    HW218912   4.149   1.128   4.372
 6009SOL     OW18913   3.806   0.550   5.119
 6009SOL    HW118914   3.897   0.554   5.088
 6009SOL    HW218915   3.799   0.622   5.181
 6010SOL     OW18916   4.297   0.237   4.884
 6010SOL    HW118917   4.304   0.143   4.904
 6010SOL    HW218918   4.209   0.260   4.913
 6011SOL     OW18919   4.230   1.387   3.897
 6011SOL    HW118920   4.146   1.372   3.939
 6011SOL    HW218921   4.209   1.402   3.805
 6012SOL     OW18922   4.244   0.271   4.047
 6012SOL    HW118923   4.284   0.215   3.980
 6012SOL    HW218924   4.224   0.352   4.001
 6013SOL     OW18925   4.140   0.814   4.973
 6013SOL    HW118926   4.207   0.824   5.041
 6013SOL    HW218927   4.106   0.726   4.986
 6014SOL     OW18928   3.793   1.572   5.077
 6014SOL    HW118929   3.758   1.643   5.023
 6014SOL    HW218930   3.888   1.581   5.069
 6015SOL     OW18931   4.072   1.109   4.214
 6015SOL    HW118932   4.072   1.181   4.151
 6015SOL    HW218933   4.070   1.030   4.159
 6016SOL     OW18934   4.302   0.539   4.587
 6016SOL    HW118935   4.301   0.605   4.517
 6016SOL    HW218936   4.365   0.573   4.651
 6017SOL     OW18937   4.072   1.534   5.040
 6017SOL    HW118938   4.066   1.490   4.955
 6017SOL    HW218939   4.166   1.534   5.060
 6018SOL     OW18940   4.137   0.741   5.329
 6018SOL    HW118941   4.194   0.787   5.268
 6018SOL    HW218942   4.183   0.659   5.348
 6019SOL     OW18943   4.238   0.070   5.450
 6019SOL    HW118944   4.205   4.486   5.419
 6019SOL    HW218945   4.160   0.123   5.467
 6020SOL     OW18946   4.291   0.890   4.750
 6020SOL    HW118947   4.319   0.980   4.765
 6020SOL    HW218948   4.243   0.866   4.830
 6021SOL     OW18949   4.014   0.237   4.964
 6021SOL    HW118950   3.971   0.249   5.049
 6021SOL    HW218951   4.051   0.149   4.968
 6022SOL     OW18952   3.772   1.310   5.001
 6022SOL    HW118953   3.804   1.256   5.073
 6022SOL    HW218954   3.776   1.400   5.034
 6023SOL     OW18955   4.013   0.055   4.382
 6023SOL    HW118956   4.007   0.151   4.382
 6023SOL    HW218957   4.028   0.032   4.473
 6024SOL     OW18958   4.077   0.916   5.532
 6024SOL    HW118959   4.158   0.930   5.579
 6024SOL    HW218960   4.099   0.851   5.465
 6025SOL     OW18961   4.031   0.809   4.670
 6025SOL    HW118962   4.123   0.837   4.670
 6025SOL    HW218963   4.034   0.719   4.702
 6026SOL     OW18964   4.068   0.531   4.734
 6026SOL    HW118965   4.024   0.449   4.715
 6026SOL    HW218966   4.146   0.531   4.679
 6027SOL     OW18967   3.729   1.321   3.919
 6027SOL    HW118968   3.642   1.335   3.881
 6027SOL    HW218969   3.727   1.232   3.953
 6028SOL     OW18970   3.816   1.788   4.662
 6028SOL    HW118971   3.785   1.709   4.618
 6028SOL    HW218972   3.905   1.800   4.630
 6029SOL     OW18973   4.232   1.583   4.629
 6029SOL    HW118974   4.318   1.614   4.659
 6029SOL    HW218975   4.252   1.512   4.568
 6030SOL     OW18976   3.757   0.543   4.842
 6030SOL    HW118977   3.832   0.519   4.788
 6030SOL    HW218978   3.791   0.547   4.931
 6031SOL     OW18979   3.909   0.519   5.445
 6031SOL    HW118980   3.984   0.499   5.388
 6031SOL    HW218981   3.867   0.594   5.404
 6032SOL     OW18982   0.029   0.550   3.987
 6032SOL    HW118983   0.020   0.487   4.058
 6032SOL    HW218984   4.463   0.617   4.005
 6033SOL     OW18985   3.971   1.553   5.452
 6033SOL    HW118986   3.943   1.617   5.518
 6033SOL    HW218987   3.967   1.469   5.498
 6034SOL     OW18988   4.191   0.495   3.908
 6034SOL    HW118989   4.248   0.568   3.930
 6034SOL    HW218990   4.105   0.535   3.896
 6035SOL     OW18991   3.871   1.140   5.197
 6035SOL    HW118992   3.872   1.088   5.277
 6035SOL    HW218993   3.886   1.077   5.127
 6036SOL     OW18994   3.809   1.268   4.737
 6036SOL    HW118995   3.794   1.279   4.831
 6036SOL    HW218996   3.736   1.214   4.707
 6037SOL     OW18997   4.390   1.652   5.425
 6037SOL    HW118998   4.354   1.737   5.451
 6037SOL    HW218999   4.430   1.668   5.340
 6038SOL     OW19000   3.861   1.796   5.567
 6038SOL    HW119001   3.809   1.732   5.616
 6038SOL    HW219002   3.908   1.845   5.635
 6039SOL     OW19003   3.989   0.326   4.440
 6039SOL    HW119004   3.902   0.358   4.416
 6039SOL    HW219005   3.984   0.315   4.536
 6040SOL     OW19006   4.089   1.307   5.214
 6040SOL    HW119007   4.069   1.383   5.160
 6040SOL    HW219008   4.016   1.246   5.199
 6041SOL     OW19009   4.326   1.490   4.204
 6041SOL    HW119010   4.342   1.430   4.131
 6041SOL    HW219011   4.259   1.550   4.172
 6042SOL     OW19012   3.984   1.350   4.010
 6042SOL    HW119013   3.891   1.345   3.988
 6042SOL    HW219014   3.985   1.385   4.099
 6043SOL     OW19015   3.836   1.023   5.444
 6043SOL    HW119016   3.760   0.998   5.496
 6043SOL    HW219017   3.910   0.984   5.491
 6044SOL     OW19018   4.369   0.206   5.213
 6044SOL    HW119019   4.460   0.222   5.187
 6044SOL    HW219020   4.376   0.176   5.304
 6045SOL     OW19021   3.805   0.339   3.771
 6045SOL    HW119022   3.734   0.286   3.736
 6045SOL    HW219023   3.818   0.408   3.707
 6046SOL     OW19024   3.788   0.182   4.043
 6046SOL    HW119025   3.787   0.249   3.975
 6046SOL    HW219026   3.864   0.127   4.022
 6047SOL     OW19027   4.338   0.840   5.159
 6047SOL    HW119028   4.378   0.925   5.143
 6047SOL    HW219029   4.411   0.781   5.177
 6048SOL     OW19030   4.397   0.559   5.457
 6048SOL    HW119031   4.421   0.634   5.512
 6048SOL    HW219032   4.481   0.520   5.433
 6049SOL     OW19033   4.108   1.739   5.285
 6049SOL    HW119034   4.022   1.780   5.271
 6049SOL    HW219035   4.088   1.657   5.331
 6050SOL     OW19036   4.310   0.731   4.390
 6050SOL    HW119037   4.351   0.817   4.378
 6050SOL    HW219038   4.240   0.728   4.325
 6051SOL     OW19039   3.944   1.307   5.578
 6051SOL    HW119040   3.878   1.243   5.550
 6051SOL    HW219041   3.928   1.317   5.672
 6052SOL     OW19042   3.810   1.235   4.389
 6052SOL    HW119043   3.810   1.186   4.472
 6052SOL    HW219044   3.878   1.193   4.336
 6053SOL     OW19045   4.416   1.386   5.383
 6053SOL    HW119046   4.326   1.354   5.378
 6053SOL    HW219047   4.407   1.480   5.398
 6054SOL     OW19048   4.165   0.435   4.257
 6054SOL    HW119049   4.183   0.366   4.193
 6054SOL    HW219050   4.109   0.393   4.322
 6055SOL     OW19051   4.053   0.556   5.013
 6055SOL    HW119052   4.106   0.497   5.067
 6055SOL    HW219053   4.072   0.529   4.923
 6056SOL     OW19054   0.037   1.599   4.410
 6056SOL    HW119055   0.059   1.660   4.340
 6056SOL    HW219056   4.466   1.545   4.374
 6057SOL     OW19057   3.769   1.071   4.029
 6057SOL    HW119058   3.862   1.061   4.012
 6057SOL    HW219059   3.739   0.984   4.053
 6058SOL     OW19060   3.954   0.627   5.706
 6058SOL    HW119061   3.867   0.619   5.745
 6058SOL    HW219062   3.943   0.595   5.616
 6059SOL     OW19063   3.930   0.303   6.575
 6059SOL    HW119064   3.964   0.272   6.659
 6059SOL    HW219065   3.850   0.252   6.562
 6060SOL     OW19066   3.731   0.387   6.224
 6060SOL    HW119067   3.645   0.405   6.261
 6060SOL    HW219068   3.717   0.312   6.166
 6061SOL     OW19069   4.268   1.246   6.730
 6061SOL    HW119070   4.196   1.307   6.709
 6061SOL    HW219071   4.332   1.301   6.775
 6062SOL     OW19072   0.022   0.778   7.443
 6062SOL    HW119073   0.070   0.825   7.511
 6062SOL    HW219074   0.063   0.806   7.361
 6063SOL     OW19075   4.398   0.992   6.223
 6063SOL    HW119076   4.472   0.986   6.285
 6063SOL    HW219077   4.336   1.051   6.266
 6064SOL     OW19078   4.419   1.161   7.399
 6064SOL    HW119079   4.460   1.242   7.368
 6064SOL    HW219080   4.327   1.169   7.374
 6065SOL     OW19081   4.060   1.432   6.655
 6065SOL    HW119082   3.988   1.389   6.610
 6065SOL    HW219083   4.106   1.481   6.586
 6066SOL     OW19084   4.163   0.396   7.073
 6066SOL    HW119085   4.242   0.342   7.074
 6066SOL    HW219086   4.092   0.333   7.086
 6067SOL     OW19087   3.942   1.714   6.060
 6067SOL    HW119088   3.963   1.790   6.113
 6067SOL    HW219089   4.016   1.706   5.999
 6068SOL     OW19090   3.954   1.441   6.120
 6068SOL    HW119091   3.935   1.535   6.126
 6068SOL    HW219092   3.894   1.401   6.184
 6069SOL     OW19093   3.975   1.088   6.472
 6069SOL    HW119094   3.979   1.004   6.517
 6069SOL    HW219095   3.923   1.144   6.530
 6070SOL     OW19096   4.361   1.798   7.040
 6070SOL    HW119097   4.274   1.764   7.064
 6070SOL    HW219098   4.350   1.893   7.040
 6071SOL     OW19099   4.310   0.985   5.724
 6071SOL    HW119100   4.339   1.038   5.650
 6071SOL    HW219101   4.377   0.997   5.791
 6072SOL     OW19102   3.839   0.652   6.146
 6072SOL    HW119103   3.810   0.564   6.168
 6072SOL    HW219104   3.831   0.701   6.228
 6073SOL     OW19105   3.756   1.595   5.710
 6073SOL    HW119106   3.738   1.503   5.730
 6073SOL    HW219107   3.731   1.642   5.790
 6074SOL     OW19108   3.845   0.744   7.171
 6074SOL    HW119109   3.937   0.770   7.181
 6074SOL    HW219110   3.796   0.826   7.177
 6075SOL     OW19111   4.311   1.387   6.323
 6075SOL    HW119112   4.275   1.299   6.327
 6075SOL    HW219113   4.312   1.409   6.230
 6076SOL     OW19114   0.019   0.017   6.098
 6076SOL    HW119115   0.048   0.079   6.031
 6076SOL    HW219116   4.428   0.042   6.116
 6077SOL     OW19117   3.912   0.966   6.858
 6077SOL    HW119118   3.998   0.926   6.840
 6077SOL    HW219119   3.850   0.912   6.808
 6078SOL     OW19120   4.039   0.252   7.370
 6078SOL    HW119121   4.101   0.319   7.400
 6078SOL    HW219122   3.964   0.260   7.430
 6079SOL     OW19123   4.312   0.728   5.856
 6079SOL    HW119124   4.309   0.806   5.800
 6079SOL    HW219125   4.245   0.743   5.922
 6080SOL     OW19126   3.812   0.821   6.362
 6080SOL    HW119127   3.893   0.813   6.412
 6080SOL    HW219128   3.770   0.900   6.396
 6081SOL     OW19129   3.853   1.845   7.163
 6081SOL    HW119130   3.852   1.825   7.257
 6081SOL    HW219131   3.761   1.839   7.136
 6082SOL     OW19132   4.244   0.202   6.483
 6082SOL    HW119133   4.284   0.220   6.568
 6082SOL    HW219134   4.262   0.281   6.431
 6083SOL     OW19135   4.082   1.812   6.448
 6083SOL    HW119136   4.131   1.730   6.456
 6083SOL    HW219137   4.148   1.880   6.459
 6084SOL     OW19138   4.043   0.958   5.836
 6084SOL    HW119139   4.125   0.976   5.791
 6084SOL    HW219140   4.013   0.875   5.798
 6085SOL     OW19141   4.178   1.252   7.321
 6085SOL    HW119142   4.151   1.264   7.229
 6085SOL    HW219143   4.097   1.262   7.371
 6086SOL     OW19144   3.912   0.269   7.098
 6086SOL    HW119145   3.845   0.335   7.081
 6086SOL    HW219146   3.923   0.270   7.193
 6087SOL     OW19147   4.192   1.735   5.911
 6087SOL    HW119148   4.224   1.795   5.978
 6087SOL    HW219149   4.261   1.733   5.845
 6088SOL     OW19150   3.980   1.793   6.818
 6088SOL    HW119151   4.027   1.723   6.864
 6088SOL    HW219152   3.966   1.759   6.730
 6089SOL     OW19153   4.111   0.694   6.059
 6089SOL    HW119154   4.136   0.603   6.073
 6089SOL    HW219155   4.018   0.697   6.080
 6090SOL     OW19156   4.327   0.121   5.703
 6090SOL    HW119157   4.413   0.080   5.715
 6090SOL    HW219158   4.303   0.100   5.613
 6091SOL     OW19159   0.020   1.422   6.498
 6091SOL    HW119160   0.083   1.464   6.440
 6091SOL    HW219161   4.444   1.404   6.442
 6092SOL     OW19162   4.271   0.109   6.125
 6092SOL    HW119163   4.187   0.068   6.146
 6092SOL    HW219164   4.254   0.160   6.046
 6093SOL     OW19165   4.023   0.072   5.783
 6093SOL    HW119166   4.103   0.121   5.765
 6093SOL    HW219167   4.052   0.000   5.840
 6094SOL     OW19168   0.323   0.677   7.046
 6094SOL    HW119169   0.253   0.616   7.027
 6094SOL    HW219170   0.403   0.628   7.030
 6095SOL     OW19171   4.190   1.145   6.319
 6095SOL    HW119172   4.121   1.126   6.383
 6095SOL    HW219173   4.149   1.128   6.234
 6096SOL     OW19174   3.806   0.550   6.981
 6096SOL    HW119175   3.897   0.554   6.950
 6096SOL    HW219176   3.799   0.622   7.043
 6097SOL     OW19177   4.297   0.237   6.746
 6097SOL    HW119178   4.304   0.144   6.766
 6097SOL    HW219179   4.208   0.260   6.775
 6098SOL     OW19180   4.230   1.386   5.759
 6098SOL    HW119181   4.146   1.372   5.801
 6098SOL    HW219182   4.209   1.402   5.666
 6099SOL     OW19183   4.244   0.271   5.909
 6099SOL    HW119184   4.284   0.215   5.843
 6099SOL    HW219185   4.224   0.352   5.863
 6100SOL     OW19186   4.140   0.814   6.835
 6100SOL    HW119187   4.207   0.824   6.903
 6100SOL    HW219188   4.106   0.726   6.849
 6101SOL     OW19189   3.793   1.573   6.939
 6101SOL    HW119190   3.760   1.644   6.884
 6101SOL    HW219191   3.888   1.579   6.932
 6102SOL     OW19192   4.071   1.109   6.076
 6102SOL    HW119193   4.073   1.181   6.013
 6102SOL    HW219194   4.070   1.030   6.021
 6103SOL     OW19195   4.302   0.539   6.449
 6103SOL    HW119196   4.301   0.605   6.379
 6103SOL    HW219197   4.365   0.572   6.513
 6104SOL     OW19198   4.072   1.534   6.902
 6104SOL    HW119199   4.066   1.490   6.818
 6104SOL    HW219200   4.166   1.535   6.922
 6105SOL     OW19201   4.137   0.741   7.191
 6105SOL    HW119202   4.195   0.787   7.130
 6105SOL    HW219203   4.184   0.659   7.211
 6106SOL     OW19204   4.238   0.070   7.312
 6106SOL    HW119205   4.205   4.486   7.281
 6106SOL    HW219206   4.160   0.123   7.329
 6107SOL     OW19207   4.291   0.890   6.612
 6107SOL    HW119208   4.320   0.980   6.627
 6107SOL    HW219209   4.243   0.866   6.692
 6108SOL     OW19210   4.014   0.237   6.826
 6108SOL    HW119211   3.971   0.249   6.911
 6108SOL    HW219212   4.051   0.149   6.830
 6109SOL     OW19213   3.772   1.311   6.863
 6109SOL    HW119214   3.803   1.256   6.935
 6109SOL    HW219215   3.776   1.400   6.896
 6110SOL     OW19216   4.013   0.055   6.244
 6110SOL    HW119217   4.007   0.151   6.244
 6110SOL    HW219218   4.027   0.031   6.335
 6111SOL     OW19219   4.077   0.916   7.393
 6111SOL    HW119220   4.158   0.931   7.442
 6111SOL    HW219221   4.099   0.851   7.327
 6112SOL     OW19222   4.031   0.809   6.532
 6112SOL    HW119223   4.123   0.837   6.532
 6112SOL    HW219224   4.034   0.719   6.564
 6113SOL     OW19225   4.068   0.532   6.596
 6113SOL    HW119226   4.024   0.449   6.577
 6113SOL    HW219227   4.146   0.531   6.541
 6114SOL     OW19228   3.730   1.321   5.781
 6114SOL    HW119229   3.643   1.335   5.744
 6114SOL    HW219230   3.727   1.232   5.815
 6115SOL     OW19231   3.816   1.788   6.524
 6115SOL    HW119232   3.786   1.708   6.480
 6115SOL    HW219233   3.906   1.800   6.493
 6116SOL     OW19234   4.232   1.583   6.491
 6116SOL    HW119235   4.318   1.614   6.521
 6116SOL    HW219236   4.252   1.512   6.430
 6117SOL     OW19237   3.757   0.544   6.704
 6117SOL    HW119238   3.832   0.519   6.650
 6117SOL    HW219239   3.791   0.547   6.793
 6118SOL     OW19240   3.909   0.519   7.307
 6118SOL    HW119241   3.984   0.499   7.250
 6118SOL    HW219242   3.867   0.594   7.266
 6119SOL     OW19243   0.029   0.550   5.849
 6119SOL    HW119244   0.020   0.487   5.920
 6119SOL    HW219245   4.463   0.617   5.867
 6120SOL     OW19246   3.970   1.553   7.314
 6120SOL    HW119247   3.943   1.617   7.381
 6120SOL    HW219248   3.967   1.469   7.359
 6121SOL     OW19249   4.191   0.495   5.770
 6121SOL    HW119250   4.248   0.568   5.792
 6121SOL    HW219251   4.105   0.535   5.758
 6122SOL     OW19252   3.871   1.140   7.059
 6122SOL    HW119253   3.872   1.088   7.139
 6122SOL    HW219254   3.887   1.077   6.988
 6123SOL     OW19255   3.809   1.269   6.599
 6123SOL    HW119256   3.794   1.279   6.693
 6123SOL    HW219257   3.737   1.213   6.569
 6124SOL     OW19258   4.389   1.651   7.287
 6124SOL    HW119259   4.355   1.737   7.313
 6124SOL    HW219260   4.432   1.667   7.203
 6125SOL     OW19261   3.861   1.797   7.429
 6125SOL    HW119262   3.809   1.732   7.478
 6125SOL    HW219263   3.908   1.845   7.497
 6126SOL     OW19264   3.989   0.326   6.303
 6126SOL    HW119265   3.902   0.358   6.278
 6126SOL    HW219266   3.985   0.315   6.398
 6127SOL     OW19267   4.088   1.306   7.076
 6127SOL    HW119268   4.069   1.383   7.022
 6127SOL    HW219269   4.016   1.246   7.061
 6128SOL     OW19270   4.325   1.490   6.066
 6128SOL    HW119271   4.342   1.431   5.993
 6128SOL    HW219272   4.259   1.551   6.033
 6129SOL     OW19273   3.984   1.349   5.872
 6129SOL    HW119274   3.891   1.345   5.850
 6129SOL    HW219275   3.986   1.385   5.961
 6130SOL     OW19276   3.836   1.022   7.306
 6130SOL    HW119277   3.759   0.998   7.358
 6130SOL    HW219278   3.910   0.984   7.353
 6131SOL     OW19279   4.369   0.205   7.075
 6131SOL    HW119280   4.460   0.223   7.049
 6131SOL    HW219281   4.376   0.176   7.166
 6132SOL     OW19282   3.805   0.340   5.634
 6132SOL    HW119283   3.734   0.286   5.598
 6132SOL    HW219284   3.818   0.409   5.568
 6133SOL     OW19285   3.788   0.182   5.905
 6133SOL    HW119286   3.787   0.249   5.837
 6133SOL    HW219287   3.864   0.128   5.884
 6134SOL     OW19288   4.338   0.840   7.021
 6134SOL    HW119289   4.378   0.925   7.006
 6134SOL    HW219290   4.411   0.781   7.039
 6135SOL     OW19291   4.397   0.559   7.319
 6135SOL    HW119292   4.421   0.634   7.374
 6135SOL    HW219293   4.481   0.520   7.294
 6136SOL     OW19294   4.108   1.739   7.146
 6136SOL    HW119295   4.022   1.780   7.134
 6136SOL    HW219296   4.088   1.657   7.193
 6137SOL     OW19297   4.309   0.731   6.252
 6137SOL    HW119298   4.351   0.816   6.240
 6137SOL    HW219299   4.240   0.728   6.186
 6138SOL     OW19300   3.944   1.307   7.440
 6138SOL    HW119301   3.878   1.243   7.413
 6138SOL    HW219302   3.928   1.317   7.534
 6139SOL     OW19303   3.808   1.234   6.251
 6139SOL    HW119304   3.811   1.186   6.334
 6139SOL    HW219305   3.877   1.194   6.197
 6140SOL     OW19306   4.416   1.386   7.244
 6140SOL    HW119307   4.326   1.353   7.240
 6140SOL    HW219308   4.406   1.480   7.260
 6141SOL     OW19309   4.164   0.435   6.119
 6141SOL    HW119310   4.183   0.366   6.055
 6141SOL    HW219311   4.109   0.393   6.184
 6142SOL     OW19312   4.053   0.556   6.875
 6142SOL    HW119313   4.106   0.497   6.929
 6142SOL    HW219314   4.072   0.529   6.785
 6143SOL     OW19315   0.037   1.598   6.272
 6143SOL    HW119316   0.059   1.660   6.202
 6143SOL    HW219317   4.466   1.545   6.235
 6144SOL     OW19318   3.768   1.071   5.891
 6144SOL    HW119319   3.861   1.062   5.874
 6144SOL    HW219320   3.739   0.983   5.915
 6145SOL     OW19321   3.954   0.627   7.568
 6145SOL    HW119322   3.867   0.619   7.607
 6145SOL    HW219323   3.943   0.595   7.478
 6146SOL     OW19324   3.930   0.303   8.437
 6146SOL    HW119325   3.964   0.272   8.521
 6146SOL    HW219326   3.850   0.252   8.424
 6147SOL     OW19327   3.731   0.387   8.086
 6147SOL    HW119328   3.645   0.405   8.123
 6147SOL    HW219329   3.717   0.312   8.028
 6148SOL     OW19330   4.267   1.246   8.593
 6148SOL    HW119331   4.196   1.307   8.571
 6148SOL    HW219332   4.332   1.301   8.637
 6149SOL     OW19333   0.021   0.778   9.305
 6149SOL    HW119334   0.070   0.825   9.373
 6149SOL    HW219335   0.063   0.805   9.223
 6150SOL     OW19336   4.398   0.992   8.085
 6150SOL    HW119337   4.472   0.987   8.146
 6150SOL    HW219338   4.336   1.051   8.128
 6151SOL     OW19339   4.419   1.161   9.261
 6151SOL    HW119340   4.460   1.242   9.230
 6151SOL    HW219341   4.327   1.169   9.236
 6152SOL     OW19342   4.060   1.432   8.517
 6152SOL    HW119343   3.988   1.389   8.472
 6152SOL    HW219344   4.106   1.481   8.448
 6153SOL     OW19345   4.163   0.396   8.935
 6153SOL    HW119346   4.242   0.342   8.936
 6153SOL    HW219347   4.092   0.333   8.948
 6154SOL     OW19348   3.942   1.714   7.922
 6154SOL    HW119349   3.963   1.790   7.975
 6154SOL    HW219350   4.016   1.706   7.861
 6155SOL     OW19351   3.954   1.441   7.982
 6155SOL    HW119352   3.935   1.534   7.988
 6155SOL    HW219353   3.895   1.401   8.045
 6156SOL     OW19354   3.975   1.088   8.334
 6156SOL    HW119355   3.979   1.004   8.379
 6156SOL    HW219356   3.923   1.143   8.393
 6157SOL     OW19357   4.361   1.798   8.902
 6157SOL    HW119358   4.274   1.764   8.926
 6157SOL    HW219359   4.350   1.893   8.902
 6158SOL     OW19360   4.310   0.985   7.586
 6158SOL    HW119361   4.339   1.038   7.512
 6158SOL    HW219362   4.377   0.997   7.652
 6159SOL     OW19363   3.839   0.652   8.008
 6159SOL    HW119364   3.810   0.564   8.030
 6159SOL    HW219365   3.831   0.701   8.089
 6160SOL     OW19366   3.757   1.595   7.572
 6160SOL    HW119367   3.738   1.503   7.591
 6160SOL    HW219368   3.732   1.642   7.651
 6161SOL     OW19369   3.845   0.744   9.033
 6161SOL    HW119370   3.937   0.770   9.043
 6161SOL    HW219371   3.796   0.826   9.039
 6162SOL     OW19372   4.311   1.387   8.185
 6162SOL    HW119373   4.275   1.298   8.189
 6162SOL    HW219374   4.312   1.409   8.092
 6163SOL     OW19375   0.019   0.017   7.960
 6163SOL    HW119376   0.048   0.079   7.893
 6163SOL    HW219377   4.428   0.042   7.978
 6164SOL     OW19378   3.912   0.966   8.720
 6164SOL    HW119379   3.998   0.926   8.702
 6164SOL    HW219380   3.850   0.912   8.670
 6165SOL     OW19381   4.039   0.252   9.232
 6165SOL    HW119382   4.101   0.319   9.261
 6165SOL    HW219383   3.964   0.260   9.292
 6166SOL     OW19384   4.312   0.728   7.718
 6166SOL    HW119385   4.309   0.806   7.662
 6166SOL    HW219386   4.245   0.743   7.784
 6167SOL     OW19387   3.812   0.821   8.224
 6167SOL    HW119388   3.893   0.813   8.274
 6167SOL    HW219389   3.770   0.900   8.258
 6168SOL     OW19390   3.853   1.845   9.025
 6168SOL    HW119391   3.852   1.825   9.119
 6168SOL    HW219392   3.761   1.840   8.998
 6169SOL     OW19393   4.244   0.202   8.345
 6169SOL    HW119394   4.284   0.220   8.430
 6169SOL    HW219395   4.262   0.281   8.293
 6170SOL     OW19396   4.082   1.812   8.310
 6170SOL    HW119397   4.131   1.730   8.318
 6170SOL    HW219398   4.148   1.880   8.321
 6171SOL     OW19399   4.043   0.958   7.698
 6171SOL    HW119400   4.125   0.976   7.653
 6171SOL    HW219401   4.013   0.875   7.660
 6172SOL     OW19402   4.178   1.252   9.183
 6172SOL    HW119403   4.151   1.264   9.092
 6172SOL    HW219404   4.097   1.262   9.233
 6173SOL     OW19405   3.912   0.269   8.960
 6173SOL    HW119406   3.845   0.335   8.942
 6173SOL    HW219407   3.923   0.270   9.055
 6174SOL     OW19408   4.192   1.735   7.773
 6174SOL    HW119409   4.224   1.795   7.840
 6174SOL    HW219410   4.261   1.732   7.707
 6175SOL     OW19411   3.980   1.793   8.680
 6175SOL    HW119412   4.027   1.723   8.726
 6175SOL    HW219413   3.966   1.759   8.592
 6176SOL     OW19414   4.111   0.694   7.921
 6176SOL    HW119415   4.136   0.603   7.935
 6176SOL    HW219416   4.018   0.697   7.942
 6177SOL     OW19417   4.327   0.121   7.565
 6177SOL    HW119418   4.413   0.080   7.577
 6177SOL    HW219419   4.303   0.100   7.475
 6178SOL     OW19420   0.020   1.422   8.360
 6178SOL    HW119421   0.083   1.465   8.303
 6178SOL    HW219422   4.444   1.404   8.304
 6179SOL     OW19423   4.271   0.109   7.987
 6179SOL    HW119424   4.187   0.068   8.008
 6179SOL    HW219425   4.254   0.160   7.908
 6180SOL     OW19426   4.023   0.072   7.645
 6180SOL    HW119427   4.103   0.121   7.627
 6180SOL    HW219428   4.052   4.500   7.702
 6181SOL     OW19429   0.323   0.677   8.908
 6181SOL    HW119430   0.253   0.616   8.889
 6181SOL    HW219431   0.404   0.628   8.892
 6182SOL     OW19432   4.190   1.145   8.181
 6182SOL    HW119433   4.121   1.126   8.245
 6182SOL    HW219434   4.149   1.128   8.096
 6183SOL     OW19435   3.806   0.550   8.843
 6183SOL    HW119436   3.897   0.554   8.812
 6183SOL    HW219437   3.799   0.622   8.905
 6184SOL     OW19438   4.297   0.237   8.608
 6184SOL    HW119439   4.304   0.144   8.628
 6184SOL    HW219440   4.208   0.260   8.637
 6185SOL     OW19441   4.230   1.386   7.621
 6185SOL    HW119442   4.146   1.372   7.663
 6185SOL    HW219443   4.209   1.402   7.529
 6186SOL     OW19444   4.244   0.271   7.771
 6186SOL    HW119445   4.284   0.215   7.705
 6186SOL    HW219446   4.224   0.352   7.725
 6187SOL     OW19447   4.140   0.814   8.698
 6187SOL    HW119448   4.207   0.824   8.765
 6187SOL    HW219449   4.106   0.726   8.711
 6188SOL     OW19450   3.793   1.573   8.800
 6188SOL    HW119451   3.760   1.644   8.746
 6188SOL    HW219452   3.888   1.579   8.794
 6189SOL     OW19453   4.071   1.109   7.938
 6189SOL    HW119454   4.073   1.181   7.875
 6189SOL    HW219455   4.070   1.030   7.883
 6190SOL     OW19456   4.302   0.539   8.311
 6190SOL    HW119457   4.301   0.605   8.241
 6190SOL    HW219458   4.365   0.572   8.375
 6191SOL     OW19459   4.072   1.534   8.764
 6191SOL    HW119460   4.066   1.490   8.680
 6191SOL    HW219461   4.166   1.535   8.784
 6192SOL     OW19462   4.137   0.741   9.053
 6192SOL    HW119463   4.195   0.787   8.992
 6192SOL    HW219464   4.183   0.659   9.072
 6193SOL     OW19465   4.238   0.070   9.174
 6193SOL    HW119466   4.205   4.486   9.143
 6193SOL    HW219467   4.160   0.122   9.191
 6194SOL     OW19468   4.291   0.890   8.474
 6194SOL    HW119469   4.320   0.980   8.489
 6194SOL    HW219470   4.243   0.867   8.554
 6195SOL     OW19471   4.014   0.237   8.689
 6195SOL    HW119472   3.971   0.249   8.773
 6195SOL    HW219473   4.051   0.149   8.692
 6196SOL     OW19474   3.771   1.311   8.725
 6196SOL    HW119475   3.803   1.256   8.797
 6196SOL    HW219476   3.776   1.400   8.758
 6197SOL     OW19477   4.013   0.055   8.106
 6197SOL    HW119478   4.007   0.151   8.106
 6197SOL    HW219479   4.027   0.031   8.197
 6198SOL     OW19480   4.077   0.916   9.256
 6198SOL    HW119481   4.158   0.931   9.303
 6198SOL    HW219482   4.099   0.851   9.189
 6199SOL     OW19483   4.031   0.809   8.394
 6199SOL    HW119484   4.123   0.837   8.394
 6199SOL    HW219485   4.034   0.719   8.426
 6200SOL     OW19486   4.068   0.532   8.458
 6200SOL    HW119487   4.024   0.449   8.439
 6200SOL    HW219488   4.146   0.531   8.403
 6201SOL     OW19489   3.729   1.321   7.643
 6201SOL    HW119490   3.642   1.335   7.605
 6201SOL    HW219491   3.727   1.232   7.677
 6202SOL     OW19492   3.816   1.788   8.386
 6202SOL    HW119493   3.786   1.708   8.342
 6202SOL    HW219494   3.905   1.800   8.355
 6203SOL     OW19495   4.232   1.583   8.353
 6203SOL    HW119496   4.318   1.614   8.383
 6203SOL    HW219497   4.252   1.512   8.292
 6204SOL     OW19498   3.757   0.544   8.566
 6204SOL    HW119499   3.832   0.519   8.512
 6204SOL    HW219500   3.791   0.547   8.655
 6205SOL     OW19501   3.909   0.519   9.169
 6205SOL    HW119502   3.984   0.499   9.112
 6205SOL    HW219503   3.867   0.594   9.128
 6206SOL     OW19504   0.029   0.550   7.711
 6206SOL    HW119505   0.020   0.487   7.782
 6206SOL    HW219506   4.463   0.617   7.729
 6207SOL     OW19507   3.970   1.553   9.176
 6207SOL    HW119508   3.943   1.617   9.243
 6207SOL    HW219509   3.967   1.469   9.221
 6208SOL     OW19510   4.191   0.495   7.632
 6208SOL    HW119511   4.248   0.568   7.654
 6208SOL    HW219512   4.105   0.535   7.620
 6209SOL     OW19513   3.871   1.140   8.920
 6209SOL    HW119514   3.872   1.088   9.001
 6209SOL    HW219515   3.887   1.077   8.850
 6210SOL     OW19516   3.809   1.269   8.461
 6210SOL    HW119517   3.793   1.279   8.555
 6210SOL    HW219518   3.737   1.213   8.431
 6211SOL     OW19519   4.389   1.651   9.149
 6211SOL    HW119520   4.355   1.737   9.175
 6211SOL    HW219521   4.432   1.667   9.065
 6212SOL     OW19522   3.861   1.797   9.291
 6212SOL    HW119523   3.809   1.732   9.340
 6212SOL    HW219524   3.908   1.845   9.359
 6213SOL     OW19525   3.989   0.326   8.165
 6213SOL    HW119526   3.902   0.358   8.140
 6213SOL    HW219527   3.985   0.315   8.260
 6214SOL     OW19528   4.088   1.306   8.938
 6214SOL    HW119529   4.069   1.382   8.883
 6214SOL    HW219530   4.016   1.246   8.922
 6215SOL     OW19531   4.326   1.490   7.928
 6215SOL    HW119532   4.343   1.431   7.855
 6215SOL    HW219533   4.259   1.551   7.895
 6216SOL     OW19534   3.984   1.350   7.734
 6216SOL    HW119535   3.891   1.345   7.712
 6216SOL    HW219536   3.986   1.385   7.823
 6217SOL     OW19537   3.836   1.022   9.168
 6217SOL    HW119538   3.760   0.998   9.220
 6217SOL    HW219539   3.910   0.984   9.215
 6218SOL     OW19540   4.369   0.205   8.937
 6218SOL    HW119541   4.460   0.223   8.911
 6218SOL    HW219542   4.376   0.176   9.028
 6219SOL     OW19543   3.805   0.340   7.496
 6219SOL    HW119544   3.734   0.286   7.460
 6219SOL    HW219545   3.818   0.408   7.430
 6220SOL     OW19546   3.788   0.182   7.767
 6220SOL    HW119547   3.787   0.249   7.699
 6220SOL    HW219548   3.864   0.127   7.746
 6221SOL     OW19549   4.338   0.840   8.883
 6221SOL    HW119550   4.378   0.925   8.868
 6221SOL    HW219551   4.411   0.781   8.901
 6222SOL     OW19552   4.397   0.559   9.181
 6222SOL    HW119553   4.421   0.634   9.236
 6222SOL    HW219554   4.481   0.520   9.156
 6223SOL     OW19555   4.108   1.739   9.008
 6223SOL    HW119556   4.022   1.780   8.995
 6223SOL    HW219557   4.088   1.657   9.055
 6224SOL     OW19558   4.309   0.731   8.114
 6224SOL    HW119559   4.351   0.816   8.102
 6224SOL    HW219560   4.240   0.728   8.048
 6225SOL     OW19561   3.943   1.307   9.303
 6225SOL    HW119562   3.878   1.243   9.275
 6225SOL    HW219563   3.928   1.317   9.396
 6226SOL     OW19564   3.809   1.234   8.113
 6226SOL    HW119565   3.811   1.186   8.195
 6226SOL    HW219566   3.877   1.194   8.059
 6227SOL     OW19567   4.416   1.386   9.107
 6227SOL    HW119568   4.326   1.353   9.102
 6227SOL    HW219569   4.406   1.480   9.122
 6228SOL     OW19570   4.165   0.435   7.981
 6228SOL    HW119571   4.183   0.366   7.917
 6228SOL    HW219572   4.109   0.393   8.046
 6229SOL     OW19573   4.053   0.556   8.737
 6229SOL    HW119574   4.106   0.497   8.791
 6229SOL    HW219575   4.072   0.529   8.647
 6230SOL     OW19576   0.037   1.598   8.134
 6230SOL    HW119577   0.059   1.660   8.064
 6230SOL    HW219578   4.466   1.545   8.097
 6231SOL     OW19579   3.768   1.071   7.753
 6231SOL    HW119580   3.862   1.061   7.736
 6231SOL    HW219581   3.739   0.983   7.777
 6232SOL     OW19582   3.954   0.627   9.430
 6232SOL    HW119583   3.867   0.619   9.469
 6232SOL    HW219584   3.943   0.595   9.340
 6233SOL     OW19585   3.930   0.303  10.299
 6233SOL    HW119586   3.964   0.272  10.382
 6233SOL    HW219587   3.850   0.252  10.286
 6234SOL     OW19588   3.731   0.386   9.948
 6234SOL    HW119589   3.645   0.405   9.985
 6234SOL    HW219590   3.718   0.312   9.890
 6235SOL     OW19591   4.267   1.246  10.457
 6235SOL    HW119592   4.197   1.306  10.433
 6235SOL    HW219593   4.332   1.301  10.499
 6236SOL     OW19594   0.024   0.811   0.079
 6236SOL    HW119595   0.102   0.848   0.121
 6236SOL    HW219596   0.052   0.792  11.090
 6237SOL     OW19597   4.398   0.992   9.947
 6237SOL    HW119598   4.472   0.986  10.008
 6237SOL    HW219599   4.336   1.051   9.990
 6238SOL     OW19600   4.061   1.432  10.379
 6238SOL    HW119601   3.988   1.389  10.334
 6238SOL    HW219602   4.106   1.481  10.310
 6239SOL     OW19603   4.175   0.397  10.794
 6239SOL    HW119604   4.244   0.331  10.796
 6239SOL    HW219605   4.095   0.350  10.818
 6240SOL     OW19606   3.942   1.714   9.784
 6240SOL    HW119607   3.963   1.790   9.837
 6240SOL    HW219608   4.016   1.706   9.723
 6241SOL     OW19609   3.954   1.441   9.844
 6241SOL    HW119610   3.935   1.534   9.850
 6241SOL    HW219611   3.894   1.401   9.907
 6242SOL     OW19612   3.975   1.088  10.197
 6242SOL    HW119613   3.979   1.004  10.241
 6242SOL    HW219614   3.923   1.144  10.254
 6243SOL     OW19615   4.355   1.800  10.755
 6243SOL    HW119616   4.268   1.770  10.781
 6243SOL    HW219617   4.352   1.895  10.766
 6244SOL     OW19618   4.310   0.985   9.448
 6244SOL    HW119619   4.339   1.038   9.374
 6244SOL    HW219620   4.377   0.997   9.515
 6245SOL     OW19621   3.839   0.652   9.870
 6245SOL    HW119622   3.810   0.564   9.892
 6245SOL    HW219623   3.831   0.701   9.952
 6246SOL     OW19624   3.756   1.595   9.434
 6246SOL    HW119625   3.738   1.503   9.453
 6246SOL    HW219626   3.732   1.642   9.514
 6247SOL     OW19627   3.849   0.726  10.915
 6247SOL    HW119628   3.941   0.750  10.907
 6247SOL    HW219629   3.802   0.810  10.908
 6248SOL     OW19630   4.311   1.387  10.047
 6248SOL    HW119631   4.275   1.298  10.051
 6248SOL    HW219632   4.312   1.409   9.954
 6249SOL     OW19633   0.018   0.016   9.821
 6249SOL    HW119634   0.048   0.079   9.755
 6249SOL    HW219635   4.428   0.042   9.840
 6250SOL     OW19636   3.912   0.964  10.580
 6250SOL    HW119637   3.997   0.924  10.561
 6250SOL    HW219638   3.849   0.910  10.531
 6251SOL     OW19639   4.057   0.277  11.088
 6251SOL    HW119640   4.115   0.337   0.036
 6251SOL    HW219641   3.973   0.284   0.033
 6252SOL     OW19642   4.312   0.728   9.580
 6252SOL    HW119643   4.309   0.805   9.524
 6252SOL    HW219644   4.245   0.743   9.646
 6253SOL     OW19645   3.812   0.821  10.086
 6253SOL    HW119646   3.893   0.813  10.136
 6253SOL    HW219647   3.770   0.900  10.120
 6254SOL     OW19648   3.854   1.844  10.897
 6254SOL    HW119649   3.836   1.805  10.982
 6254SOL    HW219650   3.770   1.841  10.850
 6255SOL     OW19651   4.243   0.203  10.211
 6255SOL    HW119652   4.288   0.223  10.293
 6255SOL    HW219653   4.261   0.279  10.155
 6256SOL     OW19654   4.082   1.812  10.172
 6256SOL    HW119655   4.131   1.730  10.180
 6256SOL    HW219656   4.148   1.880  10.183
 6257SOL     OW19657   4.043   0.958   9.560
 6257SOL    HW119658   4.125   0.976   9.515
 6257SOL    HW219659   4.013   0.875   9.522
 6258SOL     OW19660   4.178   1.262  11.054
 6258SOL    HW119661   4.152   1.275  10.963
 6258SOL    HW219662   4.107   1.211  11.092
 6259SOL     OW19663   3.922   0.272  10.815
 6259SOL    HW119664   3.848   0.333  10.807
 6259SOL    HW219665   3.935   0.262  10.909
 6260SOL     OW19666   4.192   1.735   9.635
 6260SOL    HW119667   4.224   1.795   9.702
 6260SOL    HW219668   4.261   1.733   9.569
 6261SOL     OW19669   3.980   1.793  10.543
 6261SOL    HW119670   4.027   1.723  10.589
 6261SOL    HW219671   3.966   1.759  10.455
 6262SOL     OW19672   4.111   0.694   9.783
 6262SOL    HW119673   4.136   0.603   9.797
 6262SOL    HW219674   4.018   0.697   9.804
 6263SOL     OW19675   4.327   0.121   9.427
 6263SOL    HW119676   4.413   0.080   9.439
 6263SOL    HW219677   4.303   0.100   9.337
 6264SOL     OW19678   0.020   1.422  10.222
 6264SOL    HW119679   0.083   1.464  10.165
 6264SOL    HW219680   4.444   1.404  10.166
 6265SOL     OW19681   4.271   0.109   9.850
 6265SOL    HW119682   4.187   0.068   9.869
 6265SOL    HW219683   4.255   0.160   9.770
 6266SOL     OW19684   4.023   0.072   9.507
 6266SOL    HW119685   4.103   0.121   9.489
 6266SOL    HW219686   4.052   4.500   9.564
 6267SOL     OW19687   0.310   0.680  10.773
 6267SOL    HW119688   0.249   0.607  10.770
 6267SOL    HW219689   0.396   0.640  10.756
 6268SOL     OW19690   4.190   1.145  10.043
 6268SOL    HW119691   4.121   1.126  10.107
 6268SOL    HW219692   4.149   1.128   9.958
 6269SOL     OW19693   3.805   0.549  10.707
 6269SOL    HW119694   3.895   0.554  10.677
 6269SOL    HW219695   3.800   0.614  10.778
 6270SOL     OW19696   4.298   0.235  10.478
 6270SOL    HW119697   4.300   0.140  10.483
 6270SOL    HW219698   4.208   0.259  10.499
 6271SOL     OW19699   4.230   1.386   9.483
 6271SOL    HW119700   4.146   1.372   9.525
 6271SOL    HW219701   4.209   1.402   9.391
 6272SOL     OW19702   4.244   0.271   9.633
 6272SOL    HW119703   4.284   0.215   9.567
 6272SOL    HW219704   4.224   0.352   9.587
 6273SOL     OW19705   4.141   0.813  10.559
 6273SOL    HW119706   4.208   0.823  10.626
 6273SOL    HW219707   4.106   0.725  10.572
 6274SOL     OW19708   3.793   1.576  10.662
 6274SOL    HW119709   3.762   1.645  10.604
 6274SOL    HW219710   3.889   1.579  10.653
 6275SOL     OW19711   4.071   1.109   9.800
 6275SOL    HW119712   4.073   1.181   9.737
 6275SOL    HW219713   4.070   1.030   9.745
 6276SOL     OW19714   4.301   0.539  10.174
 6276SOL    HW119715   4.302   0.605  10.104
 6276SOL    HW219716   4.366   0.570  10.237
 6277SOL     OW19717   4.072   1.532  10.627
 6277SOL    HW119718   4.067   1.488  10.542
 6277SOL    HW219719   4.166   1.534  10.647
 6278SOL     OW19720   4.134   0.736  10.904
 6278SOL    HW119721   4.198   0.781  10.848
 6278SOL    HW219722   4.164   0.644  10.905
 6279SOL     OW19723   4.291   0.890  10.336
 6279SOL    HW119724   4.319   0.980  10.351
 6279SOL    HW219725   4.243   0.867  10.415
 6280SOL     OW19726   4.015   0.237  10.549
 6280SOL    HW119727   3.975   0.251  10.635
 6280SOL    HW219728   4.049   0.148  10.553
 6281SOL     OW19729   3.774   1.312  10.586
 6281SOL    HW119730   3.801   1.256  10.658
 6281SOL    HW219731   3.775   1.401  10.622
 6282SOL     OW19732   4.012   0.055   9.968
 6282SOL    HW119733   4.007   0.150   9.968
 6282SOL    HW219734   4.027   0.031  10.059
 6283SOL     OW19735   4.081   0.917  11.095
 6283SOL    HW119736   4.164   0.934   0.038
 6283SOL    HW219737   4.100   0.851  11.029
 6284SOL     OW19738   4.031   0.809  10.256
 6284SOL    HW119739   4.123   0.837  10.255
 6284SOL    HW219740   4.034   0.718  10.287
 6285SOL     OW19741   4.068   0.532  10.321
 6285SOL    HW119742   4.024   0.449  10.301
 6285SOL    HW219743   4.146   0.532  10.266
 6286SOL     OW19744   3.729   1.321   9.505
 6286SOL    HW119745   3.642   1.335   9.467
 6286SOL    HW219746   3.727   1.232   9.539
 6287SOL     OW19747   3.816   1.788  10.248
 6287SOL    HW119748   3.785   1.708  10.204
 6287SOL    HW219749   3.905   1.800  10.217
 6288SOL     OW19750   4.232   1.583  10.215
 6288SOL    HW119751   4.318   1.614  10.244
 6288SOL    HW219752   4.252   1.513  10.154
 6289SOL     OW19753   3.757   0.544  10.428
 6289SOL    HW119754   3.833   0.519  10.375
 6289SOL    HW219755   3.790   0.547  10.518
 6290SOL     OW19756   0.029   0.550   9.573
 6290SOL    HW119757   0.020   0.487   9.644
 6290SOL    HW219758   4.463   0.617   9.591
 6291SOL     OW19759   3.978   1.567  11.052
 6291SOL    HW119760   3.920   1.599   0.022
 6291SOL    HW219761   3.983   1.472  11.067
 6292SOL     OW19762   4.190   0.495   9.494
 6292SOL    HW119763   4.248   0.568   9.516
 6292SOL    HW219764   4.105   0.535   9.482
 6293SOL     OW19765   3.877   1.138  10.780
 6293SOL    HW119766   3.869   1.083  10.858
 6293SOL    HW219767   3.889   1.076  10.708
 6294SOL     OW19768   3.809   1.270  10.322
 6294SOL    HW119769   3.795   1.280  10.416
 6294SOL    HW219770   3.737   1.213  10.293
 6295SOL     OW19771   4.392   1.667  11.004
 6295SOL    HW119772   4.312   1.716  10.986
 6295SOL    HW219773   4.430   1.651  10.917
 6296SOL     OW19774   3.989   0.325  10.027
 6296SOL    HW119775   3.902   0.358  10.002
 6296SOL    HW219776   3.985   0.315  10.122
 6297SOL     OW19777   4.084   1.310  10.810
 6297SOL    HW119778   4.071   1.382  10.748
 6297SOL    HW219779   4.015   1.247  10.789
 6298SOL     OW19780   4.326   1.490   9.790
 6298SOL    HW119781   4.343   1.431   9.717
 6298SOL    HW219782   4.259   1.551   9.757
 6299SOL     OW19783   3.984   1.350   9.596
 6299SOL    HW119784   3.891   1.345   9.574
 6299SOL    HW219785   3.986   1.385   9.685
 6300SOL     OW19786   3.838   1.013  11.019
 6300SOL    HW119787   3.768   0.999  11.083
 6300SOL    HW219788   3.917   0.982  11.063
 6301SOL     OW19789   4.376   0.186  10.816
 6301SOL    HW119790   4.443   0.207  10.750
 6301SOL    HW219791   4.416   0.211  10.899
 6302SOL     OW19792   3.805   0.340   9.358
 6302SOL    HW119793   3.734   0.286   9.322
 6302SOL    HW219794   3.818   0.409   9.292
 6303SOL     OW19795   3.788   0.182   9.629
 6303SOL    HW119796   3.787   0.249   9.561
 6303SOL    HW219797   3.864   0.128   9.608
 6304SOL     OW19798   4.338   0.839  10.745
 6304SOL    HW119799   4.375   0.926  10.729
 6304SOL    HW219800   4.414   0.781  10.754
 6305SOL     OW19801   4.115   1.734  10.873
 6305SOL    HW119802   4.036   1.788  10.864
 6305SOL    HW219803   4.087   1.660  10.926
 6306SOL     OW19804   4.309   0.731   9.976
 6306SOL    HW119805   4.351   0.816   9.964
 6306SOL    HW219806   4.240   0.728   9.911
 6307SOL     OW19807   3.808   1.234   9.975
 6307SOL    HW119808   3.811   1.186  10.058
 6307SOL    HW219809   3.877   1.194   9.921
 6308SOL     OW19810   4.407   1.392  10.944
 6308SOL    HW119811   4.331   1.343  10.975
 6308SOL    HW219812   4.399   1.478  10.985
 6309SOL     OW19813   4.164   0.435   9.843
 6309SOL    HW119814   4.183   0.366   9.779
 6309SOL    HW219815   4.109   0.393   9.908
 6310SOL     OW19816   4.053   0.556  10.600
 6310SOL    HW119817   4.107   0.496  10.652
 6310SOL    HW219818   4.071   0.530  10.509
 6311SOL     OW19819   0.037   1.599   9.996
 6311SOL    HW119820   0.059   1.660   9.926
 6311SOL    HW219821   4.466   1.545   9.959
 6312SOL     OW19822   3.768   1.071   9.615
 6312SOL    HW119823   3.862   1.062   9.598
 6312SOL    HW219824   3.739   0.983   9.639
 6313SOL     OW19825   3.948   2.476   0.116
 6313SOL    HW119826   3.864   2.480   0.160
 6313SOL    HW219827   3.930   2.503   0.026
 6314SOL     OW19828   3.947   2.147   0.991
 6314SOL    HW119829   3.979   2.111   1.074
 6314SOL    HW219830   3.858   2.112   0.982
 6315SOL     OW19831   3.728   2.245   0.638
 6315SOL    HW119832   3.645   2.269   0.679
 6315SOL    HW219833   3.708   2.165   0.589
 6316SOL     OW19834   4.266   3.108   1.148
 6316SOL    HW119835   4.196   3.169   1.123
 6316SOL    HW219836   4.333   3.163   1.188
 6317SOL     OW19837   0.020   2.642   1.857
 6317SOL    HW119838   0.071   2.686   1.925
 6317SOL    HW219839   0.064   2.665   1.775
 6318SOL     OW19840   4.397   2.853   0.637
 6318SOL    HW119841   4.473   2.850   0.696
 6318SOL    HW219842   4.336   2.912   0.680
 6319SOL     OW19843   4.419   3.023   1.813
 6319SOL    HW119844   4.460   3.104   1.781
 6319SOL    HW219845   4.327   3.031   1.789
 6320SOL     OW19846   4.060   3.294   1.069
 6320SOL    HW119847   3.988   3.252   1.023
 6320SOL    HW219848   4.107   3.343   1.000
 6321SOL     OW19849   4.171   2.261   1.485
 6321SOL    HW119850   4.245   2.201   1.489
 6321SOL    HW219851   4.094   2.206   1.499
 6322SOL     OW19852   3.942   3.575   0.475
 6322SOL    HW119853   3.963   3.653   0.527
 6322SOL    HW219854   4.012   3.569   0.410
 6323SOL     OW19855   3.951   3.302   0.532
 6323SOL    HW119856   3.936   3.397   0.536
 6323SOL    HW219857   3.891   3.265   0.597
 6324SOL     OW19858   3.974   2.950   0.886
 6324SOL    HW119859   3.979   2.866   0.931
 6324SOL    HW219860   3.923   3.006   0.945
 6325SOL     OW19861   4.361   3.659   1.454
 6325SOL    HW119862   4.274   3.626   1.478
 6325SOL    HW219863   4.351   3.755   1.455
 6326SOL     OW19864   4.299   2.866   0.139
 6326SOL    HW119865   4.313   2.933   0.071
 6326SOL    HW219866   4.379   2.866   0.190
 6327SOL     OW19867   3.838   2.513   0.560
 6327SOL    HW119868   3.808   2.425   0.582
 6327SOL    HW219869   3.830   2.562   0.641
 6328SOL     OW19870   3.769   3.463   0.120
 6328SOL    HW119871   3.741   3.375   0.144
 6328SOL    HW219872   3.742   3.518   0.193
 6329SOL     OW19873   3.846   2.604   1.586
 6329SOL    HW119874   3.938   2.628   1.596
 6329SOL    HW219875   3.798   2.687   1.593
 6330SOL     OW19876   4.310   3.249   0.738
 6330SOL    HW119877   4.275   3.160   0.741
 6330SOL    HW219878   4.311   3.271   0.644
 6331SOL     OW19879   0.022   1.873   0.531
 6331SOL    HW119880   0.053   1.929   0.461
 6331SOL    HW219881   4.427   1.885   0.531
 6332SOL     OW19882   3.912   2.828   1.272
 6332SOL    HW119883   3.998   2.788   1.254
 6332SOL    HW219884   3.850   2.774   1.223
 6333SOL     OW19885   4.057   2.112   1.810
 6333SOL    HW119886   4.101   2.196   1.826
 6333SOL    HW219887   3.968   2.125   1.842
 6334SOL     OW19888   4.309   2.580   0.270
 6334SOL    HW119889   4.329   2.656   0.216
 6334SOL    HW219890   4.245   2.612   0.333
 6335SOL     OW19891   3.812   2.683   0.775
 6335SOL    HW119892   3.893   2.675   0.825
 6335SOL    HW219893   3.770   2.762   0.810
 6336SOL     OW19894   3.853   3.708   1.577
 6336SOL    HW119895   3.852   3.688   1.671
 6336SOL    HW219896   3.761   3.701   1.550
 6337SOL     OW19897   4.252   2.053   0.881
 6337SOL    HW119898   4.271   2.059   0.974
 6337SOL    HW219899   4.262   2.142   0.848
 6338SOL     OW19900   4.082   3.674   0.863
 6338SOL    HW119901   4.131   3.592   0.870
 6338SOL    HW219902   4.148   3.742   0.873
 6339SOL     OW19903   4.041   2.821   0.275
 6339SOL    HW119904   4.120   2.845   0.227
 6339SOL    HW219905   4.014   2.738   0.236
 6340SOL     OW19906   4.178   3.114   1.735
 6340SOL    HW119907   4.151   3.126   1.644
 6340SOL    HW219908   4.097   3.124   1.785
 6341SOL     OW19909   3.924   2.144   1.502
 6341SOL    HW119910   3.842   2.193   1.495
 6341SOL    HW219911   3.906   2.076   1.566
 6342SOL     OW19912   4.193   3.594   0.328
 6342SOL    HW119913   4.224   3.657   0.393
 6342SOL    HW219914   4.265   3.586   0.265
 6343SOL     OW19915   3.979   3.655   1.232
 6343SOL    HW119916   4.027   3.585   1.277
 6343SOL    HW219917   3.966   3.622   1.144
 6344SOL     OW19918   4.108   2.556   0.475
 6344SOL    HW119919   4.135   2.465   0.489
 6344SOL    HW219920   4.015   2.557   0.498
 6345SOL     OW19921   4.347   1.990   0.111
 6345SOL    HW119922   4.434   1.953   0.125
 6345SOL    HW219923   4.317   1.950   0.030
 6346SOL     OW19924   0.020   3.283   0.912
 6346SOL    HW119925   0.082   3.328   0.854
 6346SOL    HW219926   4.444   3.265   0.856
 6347SOL     OW19927   4.260   1.927   0.500
 6347SOL    HW119928   4.181   1.930   0.553
 6347SOL    HW219929   4.256   2.005   0.446
 6348SOL     OW19930   4.009   1.911   0.200
 6348SOL    HW119931   4.052   1.965   0.133
 6348SOL    HW219932   4.075   1.847   0.225
 6349SOL     OW19933   0.325   2.536   1.451
 6349SOL    HW119934   0.254   2.472   1.440
 6349SOL    HW219935   0.405   2.483   1.448
 6350SOL     OW19936   4.191   3.007   0.736
 6350SOL    HW119937   4.122   2.988   0.799
 6350SOL    HW219938   4.150   2.992   0.651
 6351SOL     OW19939   3.803   2.416   1.392
 6351SOL    HW119940   3.894   2.415   1.364
 6351SOL    HW219941   3.798   2.487   1.457
 6352SOL     OW19942   4.284   2.074   1.149
 6352SOL    HW119943   4.326   2.006   1.202
 6352SOL    HW219944   4.197   2.084   1.188
 6353SOL     OW19945   4.236   3.262   0.190
 6353SOL    HW119946   4.151   3.248   0.232
 6353SOL    HW219947   4.221   3.244   0.097
 6354SOL     OW19948   4.249   2.132   0.324
 6354SOL    HW119949   4.285   2.075   0.255
 6354SOL    HW219950   4.226   2.213   0.279
 6355SOL     OW19951   4.139   2.675   1.250
 6355SOL    HW119952   4.206   2.685   1.317
 6355SOL    HW219953   4.105   2.586   1.264
 6356SOL     OW19954   3.793   3.435   1.352
 6356SOL    HW119955   3.761   3.506   1.297
 6356SOL    HW219956   3.889   3.441   1.346
 6357SOL     OW19957   4.070   2.979   0.496
 6357SOL    HW119958   4.072   3.052   0.435
 6357SOL    HW219959   4.066   2.901   0.441
 6358SOL     OW19960   4.299   2.400   0.864
 6358SOL    HW119961   4.300   2.466   0.795
 6358SOL    HW219962   4.364   2.431   0.927
 6359SOL     OW19963   4.072   3.395   1.316
 6359SOL    HW119964   4.066   3.352   1.231
 6359SOL    HW219965   4.166   3.397   1.336
 6360SOL     OW19966   4.136   2.605   1.604
 6360SOL    HW119967   4.196   2.649   1.544
 6360SOL    HW219968   4.178   2.520   1.622
 6361SOL     OW19969   4.232   1.914   1.734
 6361SOL    HW119970   4.186   1.854   1.675
 6361SOL    HW219971   4.166   1.981   1.754
 6362SOL     OW19972   4.290   2.752   1.026
 6362SOL    HW119973   4.319   2.842   1.041
 6362SOL    HW219974   4.243   2.729   1.106
 6363SOL     OW19975   4.024   2.062   1.247
 6363SOL    HW119976   3.986   2.094   1.329
 6363SOL    HW219977   4.005   1.969   1.247
 6364SOL     OW19978   3.769   3.173   1.277
 6364SOL    HW119979   3.803   3.118   1.348
 6364SOL    HW219980   3.776   3.262   1.310
 6365SOL     OW19981   4.020   1.928   0.626
 6365SOL    HW119982   4.005   2.019   0.650
 6365SOL    HW219983   4.032   1.883   0.709
 6366SOL     OW19984   4.076   2.777   1.809
 6366SOL    HW119985   4.158   2.793   1.855
 6366SOL    HW219986   4.099   2.713   1.741
 6367SOL     OW19987   4.031   2.670   0.946
 6367SOL    HW119988   4.122   2.698   0.946
 6367SOL    HW219989   4.033   2.580   0.978
 6368SOL     OW19990   4.063   2.389   1.009
 6368SOL    HW119991   4.027   2.302   0.993
 6368SOL    HW219992   4.142   2.391   0.955
 6369SOL     OW19993   3.732   3.189   0.195
 6369SOL    HW119994   3.645   3.201   0.156
 6369SOL    HW219995   3.732   3.099   0.225
 6370SOL     OW19996   3.816   3.650   0.939
 6370SOL    HW119997   3.786   3.571   0.895
 6370SOL    HW219998   3.905   3.662   0.907
 6371SOL     OW19999   4.232   3.445   0.906
 6371SOL    HW120000   4.318   3.477   0.934
 6371SOL    HW220001   4.252   3.375   0.844
 6372SOL     OW20002   3.759   2.406   1.116
 6372SOL    HW120003   3.839   2.390   1.066
 6372SOL    HW220004   3.789   2.410   1.207
 6373SOL     OW20005   3.915   2.381   1.727
 6373SOL    HW120006   3.972   2.343   1.660
 6373SOL    HW220007   3.871   2.454   1.684
 6374SOL     OW20008   0.028   2.408   0.266
 6374SOL    HW120009   0.019   2.350   0.341
 6374SOL    HW220010   4.464   2.478   0.282
 6375SOL     OW20011   3.970   3.415   1.728
 6375SOL    HW120012   3.943   3.479   1.794
 6375SOL    HW220013   3.967   3.331   1.773
 6376SOL     OW20014   4.188   2.352   0.177
 6376SOL    HW120015   4.245   2.423   0.206
 6376SOL    HW220016   4.101   2.392   0.168
 6377SOL     OW20017   3.870   3.002   1.472
 6377SOL    HW120018   3.872   2.950   1.552
 6377SOL    HW220019   3.887   2.939   1.402
 6378SOL     OW20020   3.808   3.131   1.013
 6378SOL    HW120021   3.793   3.141   1.107
 6378SOL    HW220022   3.737   3.074   0.983
 6379SOL     OW20023   4.389   3.513   1.701
 6379SOL    HW120024   4.355   3.599   1.727
 6379SOL    HW220025   4.433   3.529   1.618
 6380SOL     OW20026   3.861   3.658   1.843
 6380SOL    HW120027   3.810   3.594   1.892
 6380SOL    HW220028   3.907   3.708   1.910
 6381SOL     OW20029   3.986   2.182   0.716
 6381SOL    HW120030   3.899   2.215   0.694
 6381SOL    HW220031   3.984   2.171   0.811
 6382SOL     OW20032   4.088   3.169   1.491
 6382SOL    HW120033   4.069   3.244   1.435
 6382SOL    HW220034   4.015   3.108   1.474
 6383SOL     OW20035   4.324   3.352   0.481
 6383SOL    HW120036   4.343   3.296   0.406
 6383SOL    HW220037   4.258   3.413   0.450
 6384SOL     OW20038   3.990   3.204   0.288
 6384SOL    HW120039   3.902   3.204   0.250
 6384SOL    HW220040   3.980   3.243   0.375
 6385SOL     OW20041   3.836   2.884   1.720
 6385SOL    HW120042   3.760   2.860   1.772
 6385SOL    HW220043   3.910   2.846   1.767
 6386SOL     OW20044   4.390   2.068   1.494
 6386SOL    HW120045   4.478   2.065   1.457
 6386SOL    HW220046   4.403   2.056   1.588
 6387SOL     OW20047   3.808   2.206   0.048
 6387SOL    HW120048   3.731   2.171   0.002
 6387SOL    HW220049   3.824   2.291   0.006
 6388SOL     OW20050   3.790   2.021   0.314
 6388SOL    HW120051   3.781   2.102   0.264
 6388SOL    HW220052   3.873   1.983   0.284
 6389SOL     OW20053   4.337   2.701   1.435
 6389SOL    HW120054   4.380   2.785   1.420
 6389SOL    HW220055   4.409   2.639   1.449
 6390SOL     OW20056   4.398   2.418   1.738
 6390SOL    HW120057   4.421   2.495   1.790
 6390SOL    HW220058   4.483   2.384   1.708
 6391SOL     OW20059   4.108   3.601   1.560
 6391SOL    HW120060   4.022   3.642   1.547
 6391SOL    HW220061   4.088   3.519   1.606
 6392SOL     OW20062   4.309   2.592   0.666
 6392SOL    HW120063   4.351   2.678   0.656
 6392SOL    HW220064   4.239   2.591   0.601
 6393SOL     OW20065   3.943   3.169   1.855
 6393SOL    HW120066   3.878   3.105   1.827
 6393SOL    HW220067   3.928   3.179   1.948
 6394SOL     OW20068   3.808   3.095   0.666
 6394SOL    HW120069   3.813   3.046   0.748
 6394SOL    HW220070   3.878   3.060   0.612
 6395SOL     OW20071   4.416   3.248   1.659
 6395SOL    HW120072   4.327   3.215   1.654
 6395SOL    HW220073   4.406   3.342   1.674
 6396SOL     OW20074   4.161   2.295   0.532
 6396SOL    HW120075   4.181   2.226   0.469
 6396SOL    HW220076   4.105   2.253   0.597
 6397SOL     OW20077   4.053   2.415   1.289
 6397SOL    HW120078   4.107   2.359   1.344
 6397SOL    HW220079   4.074   2.388   1.199
 6398SOL     OW20080   0.035   3.460   0.687
 6398SOL    HW120081   0.062   3.520   0.617
 6398SOL    HW220082   4.465   3.408   0.648
 6399SOL     OW20083   3.766   2.933   0.301
 6399SOL    HW120084   3.862   2.927   0.297
 6399SOL    HW220085   3.738   2.845   0.326
 6400SOL     OW20086   3.955   2.485   1.985
 6400SOL    HW120087   3.865   2.484   2.019
 6400SOL    HW220088   3.945   2.459   1.893
 6401SOL     OW20089   3.947   2.147   2.853
 6401SOL    HW120090   3.979   2.111   2.936
 6401SOL    HW220091   3.858   2.112   2.844
 6402SOL     OW20092   3.728   2.245   2.500
 6402SOL    HW120093   3.645   2.269   2.541
 6402SOL    HW220094   3.707   2.165   2.451
 6403SOL     OW20095   4.267   3.108   3.008
 6403SOL    HW120096   4.196   3.169   2.985
 6403SOL    HW220097   4.333   3.163   3.051
 6404SOL     OW20098   0.020   2.642   3.719
 6404SOL    HW120099   0.071   2.686   3.787
 6404SOL    HW220100   0.064   2.666   3.637
 6405SOL     OW20101   4.398   2.854   2.499
 6405SOL    HW120102   4.472   2.848   2.560
 6405SOL    HW220103   4.336   2.913   2.542
 6406SOL     OW20104   4.419   3.023   3.675
 6406SOL    HW120105   4.460   3.104   3.644
 6406SOL    HW220106   4.327   3.031   3.650
 6407SOL     OW20107   4.060   3.295   2.931
 6407SOL    HW120108   3.988   3.252   2.885
 6407SOL    HW220109   4.106   3.343   2.862
 6408SOL     OW20110   4.171   2.261   3.346
 6408SOL    HW120111   4.245   2.201   3.351
 6408SOL    HW220112   4.094   2.206   3.361
 6409SOL     OW20113   3.942   3.576   2.336
 6409SOL    HW120114   3.963   3.652   2.389
 6409SOL    HW220115   4.016   3.568   2.275
 6410SOL     OW20116   3.954   3.303   2.396
 6410SOL    HW120117   3.936   3.397   2.402
 6410SOL    HW220118   3.894   3.263   2.460
 6411SOL     OW20119   3.975   2.950   2.748
 6411SOL    HW120120   3.979   2.866   2.793
 6411SOL    HW220121   3.923   3.005   2.807
 6412SOL     OW20122   4.361   3.659   3.315
 6412SOL    HW120123   4.275   3.626   3.340
 6412SOL    HW220124   4.352   3.755   3.317
 6413SOL     OW20125   4.309   2.848   2.001
 6413SOL    HW120126   4.340   2.899   1.926
 6413SOL    HW220127   4.377   2.860   2.067
 6414SOL     OW20128   3.839   2.513   2.422
 6414SOL    HW120129   3.808   2.425   2.443
 6414SOL    HW220130   3.831   2.562   2.504
 6415SOL     OW20131   3.756   3.457   1.986
 6415SOL    HW120132   3.738   3.365   2.006
 6415SOL    HW220133   3.731   3.504   2.066
 6416SOL     OW20134   3.846   2.604   3.448
 6416SOL    HW120135   3.938   2.628   3.458
 6416SOL    HW220136   3.798   2.687   3.455
 6417SOL     OW20137   4.310   3.249   2.599
 6417SOL    HW120138   4.275   3.160   2.603
 6417SOL    HW220139   4.312   3.271   2.506
 6418SOL     OW20140   0.022   1.870   2.388
 6418SOL    HW120141   0.053   1.932   2.322
 6418SOL    HW220142   4.427   1.884   2.391
 6419SOL     OW20143   3.912   2.828   3.133
 6419SOL    HW120144   3.998   2.788   3.116
 6419SOL    HW220145   3.851   2.773   3.085
 6420SOL     OW20146   4.057   2.112   3.672
 6420SOL    HW120147   4.101   2.196   3.688
 6420SOL    HW220148   3.968   2.125   3.704
 6421SOL     OW20149   4.312   2.590   2.132
 6421SOL    HW120150   4.310   2.667   2.075
 6421SOL    HW220151   4.244   2.607   2.197
 6422SOL     OW20152   3.812   2.683   2.638
 6422SOL    HW120153   3.893   2.675   2.687
 6422SOL    HW220154   3.770   2.762   2.672
 6423SOL     OW20155   3.853   3.707   3.439
 6423SOL    HW120156   3.852   3.687   3.533
 6423SOL    HW220157   3.761   3.702   3.413
 6424SOL     OW20158   4.252   2.053   2.742
 6424SOL    HW120159   4.271   2.059   2.836
 6424SOL    HW220160   4.262   2.142   2.710
 6425SOL     OW20161   4.082   3.674   2.724
 6425SOL    HW120162   4.131   3.592   2.732
 6425SOL    HW220163   4.147   3.743   2.736
 6426SOL     OW20164   4.043   2.820   2.112
 6426SOL    HW120165   4.126   2.839   2.067
 6426SOL    HW220166   4.013   2.738   2.073
 6427SOL     OW20167   4.178   3.114   3.597
 6427SOL    HW120168   4.151   3.126   3.505
 6427SOL    HW220169   4.097   3.124   3.647
 6428SOL     OW20170   3.924   2.144   3.364
 6428SOL    HW120171   3.842   2.193   3.357
 6428SOL    HW220172   3.906   2.075   3.428
 6429SOL     OW20173   4.193   3.597   2.188
 6429SOL    HW120174   4.225   3.657   2.255
 6429SOL    HW220175   4.261   3.597   2.121
 6430SOL     OW20176   3.979   3.655   3.094
 6430SOL    HW120177   4.027   3.586   3.140
 6430SOL    HW220178   3.966   3.621   3.006
 6431SOL     OW20179   4.111   2.556   2.335
 6431SOL    HW120180   4.137   2.465   2.349
 6431SOL    HW220181   4.018   2.558   2.356
 6432SOL     OW20182   4.340   1.971   1.980
 6432SOL    HW120183   4.435   1.957   1.979
 6432SOL    HW220184   4.312   1.949   1.891
 6433SOL     OW20185   0.020   3.284   2.774
 6433SOL    HW120186   0.083   3.327   2.716
 6433SOL    HW220187   4.444   3.266   2.718
 6434SOL     OW20188   4.260   1.927   2.363
 6434SOL    HW120189   4.181   1.931   2.417
 6434SOL    HW220190   4.256   2.005   2.308
 6435SOL     OW20191   4.017   1.910   2.047
 6435SOL    HW120192   4.078   1.973   2.008
 6435SOL    HW220193   4.074   1.846   2.090
 6436SOL     OW20194   0.325   2.536   3.312
 6436SOL    HW120195   0.254   2.472   3.303
 6436SOL    HW220196   0.405   2.483   3.310
 6437SOL     OW20197   4.190   3.007   2.595
 6437SOL    HW120198   4.121   2.988   2.659
 6437SOL    HW220199   4.149   2.990   2.510
 6438SOL     OW20200   3.803   2.416   3.254
 6438SOL    HW120201   3.894   2.415   3.226
 6438SOL    HW220202   3.798   2.487   3.319
 6439SOL     OW20203   4.283   2.073   3.011
 6439SOL    HW120204   4.326   2.007   3.065
 6439SOL    HW220205   4.197   2.084   3.050
 6440SOL     OW20206   4.231   3.248   2.035
 6440SOL    HW120207   4.146   3.234   2.076
 6440SOL    HW220208   4.209   3.264   1.943
 6441SOL     OW20209   4.246   2.128   2.184
 6441SOL    HW120210   4.287   2.073   2.117
 6441SOL    HW220211   4.226   2.210   2.139
 6442SOL     OW20212   4.140   2.675   3.112
 6442SOL    HW120213   4.207   2.685   3.179
 6442SOL    HW220214   4.105   2.586   3.126
 6443SOL     OW20215   3.793   3.435   3.214
 6443SOL    HW120216   3.761   3.507   3.160
 6443SOL    HW220217   3.889   3.441   3.208
 6444SOL     OW20218   4.071   2.971   2.352
 6444SOL    HW120219   4.074   3.044   2.290
 6444SOL    HW220220   4.070   2.892   2.297
 6445SOL     OW20221   4.299   2.401   2.726
 6445SOL    HW120222   4.300   2.467   2.657
 6445SOL    HW220223   4.365   2.431   2.789
 6446SOL     OW20224   4.072   3.395   3.179
 6446SOL    HW120225   4.066   3.352   3.094
 6446SOL    HW220226   4.166   3.397   3.198
 6447SOL     OW20227   4.136   2.605   3.466
 6447SOL    HW120228   4.196   2.649   3.406
 6447SOL    HW220229   4.178   2.520   3.484
 6448SOL     OW20230   4.232   1.914   3.596
 6448SOL    HW120231   4.186   1.853   3.537
 6448SOL    HW220232   4.166   1.981   3.616
 6449SOL     OW20233   4.290   2.752   2.888
 6449SOL    HW120234   4.320   2.842   2.903
 6449SOL    HW220235   4.243   2.729   2.968
 6450SOL     OW20236   4.024   2.062   3.109
 6450SOL    HW120237   3.986   2.094   3.191
 6450SOL    HW220238   4.005   1.969   3.109
 6451SOL     OW20239   3.769   3.173   3.139
 6451SOL    HW120240   3.803   3.118   3.210
 6451SOL    HW220241   3.776   3.262   3.172
 6452SOL     OW20242   4.020   1.928   2.487
 6452SOL    HW120243   4.004   2.019   2.511
 6452SOL    HW220244   4.032   1.883   2.571
 6453SOL     OW20245   4.076   2.777   3.670
 6453SOL    HW120246   4.158   2.793   3.717
 6453SOL    HW220247   4.099   2.713   3.603
 6454SOL     OW20248   4.031   2.671   2.808
 6454SOL    HW120249   4.123   2.698   2.808
 6454SOL    HW220250   4.033   2.580   2.840
 6455SOL     OW20251   4.063   2.389   2.871
 6455SOL    HW120252   4.027   2.302   2.855
 6455SOL    HW220253   4.142   2.392   2.817
 6456SOL     OW20254   3.729   3.183   2.058
 6456SOL    HW120255   3.642   3.197   2.020
 6456SOL    HW220256   3.727   3.094   2.091
 6457SOL     OW20257   3.816   3.650   2.800
 6457SOL    HW120258   3.786   3.570   2.756
 6457SOL    HW220259   3.905   3.662   2.769
 6458SOL     OW20260   4.232   3.445   2.767
 6458SOL    HW120261   4.318   3.476   2.797
 6458SOL    HW220262   4.252   3.375   2.706
 6459SOL     OW20263   3.759   2.407   2.978
 6459SOL    HW120264   3.839   2.390   2.928
 6459SOL    HW220265   3.789   2.410   3.069
 6460SOL     OW20266   3.915   2.381   3.589
 6460SOL    HW120267   3.972   2.343   3.522
 6460SOL    HW220268   3.871   2.454   3.545
 6461SOL     OW20269   0.032   2.418   2.125
 6461SOL    HW120270   0.020   2.349   2.190
 6461SOL    HW220271   4.464   2.482   2.145
 6462SOL     OW20272   3.970   3.415   3.590
 6462SOL    HW120273   3.944   3.479   3.656
 6462SOL    HW220274   3.967   3.331   3.636
 6463SOL     OW20275   4.190   2.355   2.051
 6463SOL    HW120276   4.248   2.428   2.070
 6463SOL    HW220277   4.104   2.395   2.036
 6464SOL     OW20278   3.870   3.002   3.334
 6464SOL    HW120279   3.872   2.950   3.414
 6464SOL    HW220280   3.887   2.939   3.264
 6465SOL     OW20281   3.808   3.131   2.875
 6465SOL    HW120282   3.793   3.141   2.969
 6465SOL    HW220283   3.737   3.074   2.845
 6466SOL     OW20284   4.389   3.513   3.563
 6466SOL    HW120285   4.355   3.599   3.590
 6466SOL    HW220286   4.433   3.530   3.480
 6467SOL     OW20287   3.861   3.658   3.705
 6467SOL    HW120288   3.810   3.594   3.754
 6467SOL    HW220289   3.907   3.708   3.772
 6468SOL     OW20290   3.986   2.182   2.578
 6468SOL    HW120291   3.899   2.215   2.556
 6468SOL    HW220292   3.985   2.171   2.673
 6469SOL     OW20293   4.088   3.168   3.352
 6469SOL    HW120294   4.069   3.244   3.297
 6469SOL    HW220295   4.015   3.108   3.336
 6470SOL     OW20296   4.325   3.352   2.342
 6470SOL    HW120297   4.343   3.293   2.269
 6470SOL    HW220298   4.260   3.413   2.309
 6471SOL     OW20299   3.984   3.211   2.148
 6471SOL    HW120300   3.891   3.208   2.126
 6471SOL    HW220301   3.986   3.247   2.237
 6472SOL     OW20302   3.836   2.884   3.581
 6472SOL    HW120303   3.760   2.860   3.634
 6472SOL    HW220304   3.910   2.846   3.628
 6473SOL     OW20305   4.390   2.068   3.356
 6473SOL    HW120306   4.479   2.065   3.319
 6473SOL    HW220307   4.402   2.056   3.450
 6474SOL     OW20308   3.802   2.196   1.897
 6474SOL    HW120309   3.715   2.176   1.864
 6474SOL    HW220310   3.832   2.271   1.845
 6475SOL     OW20311   3.793   2.019   2.173
 6475SOL    HW120312   3.778   2.098   2.122
 6475SOL    HW220313   3.878   1.987   2.143
 6476SOL     OW20314   4.337   2.701   3.297
 6476SOL    HW120315   4.381   2.785   3.282
 6476SOL    HW220316   4.408   2.639   3.312
 6477SOL     OW20317   4.398   2.419   3.599
 6477SOL    HW120318   4.421   2.496   3.652
 6477SOL    HW220319   4.482   2.383   3.571
 6478SOL     OW20320   4.108   3.601   3.422
 6478SOL    HW120321   4.022   3.642   3.409
 6478SOL    HW220322   4.089   3.519   3.468
 6479SOL     OW20323   4.309   2.593   2.529
 6479SOL    HW120324   4.351   2.678   2.517
 6479SOL    HW220325   4.240   2.591   2.463
 6480SOL     OW20326   3.944   3.169   3.717
 6480SOL    HW120327   3.878   3.105   3.689
 6480SOL    HW220328   3.929   3.179   3.811
 6481SOL     OW20329   3.808   3.096   2.527
 6481SOL    HW120330   3.813   3.047   2.609
 6481SOL    HW220331   3.877   3.057   2.473
 6482SOL     OW20332   4.416   3.248   3.520
 6482SOL    HW120333   4.326   3.215   3.516
 6482SOL    HW220334   4.406   3.342   3.536
 6483SOL     OW20335   4.163   2.295   2.395
 6483SOL    HW120336   4.180   2.227   2.330
 6483SOL    HW220337   4.106   2.253   2.459
 6484SOL     OW20338   4.053   2.415   3.151
 6484SOL    HW120339   4.107   2.359   3.206
 6484SOL    HW220340   4.074   2.388   3.062
 6485SOL     OW20341   0.036   3.460   2.548
 6485SOL    HW120342   0.059   3.522   2.478
 6485SOL    HW220343   4.466   3.407   2.511
 6486SOL     OW20344   3.768   2.933   2.167
 6486SOL    HW120345   3.861   2.924   2.150
 6486SOL    HW220346   3.739   2.845   2.191
 6487SOL     OW20347   3.955   2.485   3.846
 6487SOL    HW120348   3.865   2.484   3.880
 6487SOL    HW220349   3.946   2.459   3.755
 6488SOL     OW20350   3.947   2.146   4.715
 6488SOL    HW120351   3.978   2.111   4.798
 6488SOL    HW220352   3.858   2.112   4.706
 6489SOL     OW20353   3.727   2.244   4.362
 6489SOL    HW120354   3.645   2.265   4.406
 6489SOL    HW220355   3.709   2.165   4.312
 6490SOL     OW20356   4.268   3.108   4.868
 6490SOL    HW120357   4.196   3.169   4.848
 6490SOL    HW220358   4.333   3.162   4.913
 6491SOL     OW20359   0.021   2.641   5.581
 6491SOL    HW120360   0.069   2.687   5.649
 6491SOL    HW220361   0.064   2.667   5.499
 6492SOL     OW20362   4.398   2.854   4.361
 6492SOL    HW120363   4.472   2.849   4.421
 6492SOL    HW220364   4.336   2.913   4.405
 6493SOL     OW20365   4.419   3.023   5.537
 6493SOL    HW120366   4.459   3.104   5.505
 6493SOL    HW220367   4.327   3.031   5.512
 6494SOL     OW20368   4.060   3.295   4.793
 6494SOL    HW120369   3.988   3.252   4.748
 6494SOL    HW220370   4.106   3.343   4.724
 6495SOL     OW20371   4.171   2.261   5.208
 6495SOL    HW120372   4.245   2.200   5.213
 6495SOL    HW220373   4.094   2.206   5.223
 6496SOL     OW20374   3.943   3.576   4.198
 6496SOL    HW120375   3.963   3.652   4.251
 6496SOL    HW220376   4.016   3.568   4.137
 6497SOL     OW20377   3.953   3.303   4.258
 6497SOL    HW120378   3.936   3.397   4.263
 6497SOL    HW220379   3.894   3.264   4.322
 6498SOL     OW20380   3.974   2.950   4.609
 6498SOL    HW120381   3.980   2.866   4.655
 6498SOL    HW220382   3.923   3.006   4.669
 6499SOL     OW20383   4.361   3.659   5.177
 6499SOL    HW120384   4.275   3.626   5.202
 6499SOL    HW220385   4.352   3.755   5.179
 6500SOL     OW20386   4.309   2.848   3.863
 6500SOL    HW120387   4.340   2.900   3.788
 6500SOL    HW220388   4.377   2.860   3.929
 6501SOL     OW20389   3.839   2.514   4.284
 6501SOL    HW120390   3.809   2.425   4.305
 6501SOL    HW220391   3.831   2.562   4.366
 6502SOL     OW20392   3.756   3.457   3.848
 6502SOL    HW120393   3.738   3.365   3.868
 6502SOL    HW220394   3.732   3.505   3.928
 6503SOL     OW20395   3.845   2.603   5.310
 6503SOL    HW120396   3.936   2.631   5.321
 6503SOL    HW220397   3.794   2.684   5.314
 6504SOL     OW20398   4.311   3.249   4.461
 6504SOL    HW120399   4.275   3.160   4.465
 6504SOL    HW220400   4.312   3.271   4.368
 6505SOL     OW20401   0.022   1.870   4.250
 6505SOL    HW120402   0.053   1.932   4.183
 6505SOL    HW220403   4.427   1.884   4.253
 6506SOL     OW20404   3.913   2.829   4.994
 6506SOL    HW120405   3.998   2.788   4.977
 6506SOL    HW220406   3.850   2.772   4.950
 6507SOL     OW20407   4.057   2.112   5.535
 6507SOL    HW120408   4.100   2.196   5.550
 6507SOL    HW220409   3.968   2.125   5.565
 6508SOL     OW20410   4.312   2.590   3.994
 6508SOL    HW120411   4.310   2.667   3.937
 6508SOL    HW220412   4.244   2.607   4.059
 6509SOL     OW20413   3.811   2.683   4.500
 6509SOL    HW120414   3.892   2.674   4.549
 6509SOL    HW220415   3.770   2.763   4.535
 6510SOL     OW20416   3.853   3.707   5.301
 6510SOL    HW120417   3.852   3.687   5.395
 6510SOL    HW220418   3.761   3.701   5.275
 6511SOL     OW20419   4.252   2.053   4.604
 6511SOL    HW120420   4.271   2.059   4.698
 6511SOL    HW220421   4.262   2.143   4.572
 6512SOL     OW20422   4.082   3.674   4.586
 6512SOL    HW120423   4.131   3.592   4.594
 6512SOL    HW220424   4.147   3.742   4.598
 6513SOL     OW20425   4.043   2.820   3.974
 6513SOL    HW120426   4.126   2.839   3.930
 6513SOL    HW220427   4.014   2.738   3.935
 6514SOL     OW20428   4.178   3.114   5.459
 6514SOL    HW120429   4.151   3.126   5.367
 6514SOL    HW220430   4.097   3.124   5.509
 6515SOL     OW20431   3.924   2.145   5.227
 6515SOL    HW120432   3.842   2.193   5.219
 6515SOL    HW220433   3.905   2.075   5.289
 6516SOL     OW20434   4.193   3.597   4.050
 6516SOL    HW120435   4.225   3.657   4.117
 6516SOL    HW220436   4.261   3.597   3.983
 6517SOL     OW20437   3.979   3.655   4.956
 6517SOL    HW120438   4.026   3.586   5.002
 6517SOL    HW220439   3.966   3.621   4.868
 6518SOL     OW20440   4.111   2.556   4.197
 6518SOL    HW120441   4.137   2.465   4.211
 6518SOL    HW220442   4.018   2.558   4.218
 6519SOL     OW20443   4.340   1.972   3.841
 6519SOL    HW120444   4.435   1.956   3.841
 6519SOL    HW220445   4.312   1.949   3.753
 6520SOL     OW20446   0.020   3.284   4.636
 6520SOL    HW120447   0.083   3.327   4.578
 6520SOL    HW220448   4.444   3.266   4.580
 6521SOL     OW20449   4.261   1.927   4.225
 6521SOL    HW120450   4.182   1.931   4.279
 6521SOL    HW220451   4.256   2.005   4.170
 6522SOL     OW20452   4.017   1.910   3.909
 6522SOL    HW120453   4.079   1.973   3.871
 6522SOL    HW220454   4.073   1.845   3.952
 6523SOL     OW20455   0.325   2.536   5.174
 6523SOL    HW120456   0.254   2.472   5.165
 6523SOL    HW220457   0.405   2.483   5.171
 6524SOL     OW20458   4.189   3.007   4.457
 6524SOL    HW120459   4.121   2.988   4.521
 6524SOL    HW220460   4.149   2.990   4.372
 6525SOL     OW20461   3.802   2.417   5.114
 6525SOL    HW120462   3.894   2.415   5.088
 6525SOL    HW220463   3.797   2.486   5.180
 6526SOL     OW20464   4.283   2.073   4.873
 6526SOL    HW120465   4.326   2.006   4.927
 6526SOL    HW220466   4.197   2.084   4.912
 6527SOL     OW20467   4.231   3.248   3.897
 6527SOL    HW120468   4.146   3.234   3.939
 6527SOL    HW220469   4.209   3.264   3.805
 6528SOL     OW20470   4.246   2.128   4.046
 6528SOL    HW120471   4.287   2.073   3.979
 6528SOL    HW220472   4.226   2.210   4.001
 6529SOL     OW20473   4.139   2.674   4.973
 6529SOL    HW120474   4.206   2.685   5.041
 6529SOL    HW220475   4.105   2.586   4.988
 6530SOL     OW20476   3.793   3.435   5.077
 6530SOL    HW120477   3.761   3.507   5.022
 6530SOL    HW220478   3.889   3.441   5.070
 6531SOL     OW20479   4.070   2.971   4.214
 6531SOL    HW120480   4.074   3.044   4.152
 6531SOL    HW220481   4.069   2.892   4.159
 6532SOL     OW20482   4.299   2.400   4.588
 6532SOL    HW120483   4.300   2.467   4.519
 6532SOL    HW220484   4.364   2.431   4.651
 6533SOL     OW20485   4.072   3.396   5.040
 6533SOL    HW120486   4.066   3.352   4.956
 6533SOL    HW220487   4.165   3.397   5.061
 6534SOL     OW20488   4.137   2.605   5.329
 6534SOL    HW120489   4.197   2.649   5.268
 6534SOL    HW220490   4.178   2.521   5.346
 6535SOL     OW20491   4.232   1.914   5.458
 6535SOL    HW120492   4.186   1.854   5.399
 6535SOL    HW220493   4.167   1.981   5.479
 6536SOL     OW20494   4.290   2.752   4.750
 6536SOL    HW120495   4.320   2.842   4.766
 6536SOL    HW220496   4.243   2.728   4.830
 6537SOL     OW20497   4.024   2.063   4.971
 6537SOL    HW120498   3.985   2.095   5.052
 6537SOL    HW220499   4.005   1.969   4.971
 6538SOL     OW20500   3.772   3.173   5.000
 6538SOL    HW120501   3.803   3.118   5.072
 6538SOL    HW220502   3.776   3.262   5.035
 6539SOL     OW20503   4.020   1.928   4.349
 6539SOL    HW120504   4.005   2.019   4.374
 6539SOL    HW220505   4.032   1.883   4.433
 6540SOL     OW20506   4.076   2.777   5.533
 6540SOL    HW120507   4.158   2.792   5.579
 6540SOL    HW220508   4.098   2.713   5.465
 6541SOL     OW20509   4.031   2.670   4.669
 6541SOL    HW120510   4.123   2.698   4.670
 6541SOL    HW220511   4.033   2.580   4.702
 6542SOL     OW20512   4.063   2.388   4.732
 6542SOL    HW120513   4.027   2.301   4.717
 6542SOL    HW220514   4.142   2.391   4.679
 6543SOL     OW20515   3.729   3.183   3.920
 6543SOL    HW120516   3.642   3.197   3.882
 6543SOL    HW220517   3.727   3.094   3.953
 6544SOL     OW20518   3.816   3.649   4.662
 6544SOL    HW120519   3.786   3.570   4.618
 6544SOL    HW220520   3.905   3.662   4.631
 6545SOL     OW20521   4.232   3.445   4.629
 6545SOL    HW120522   4.318   3.476   4.659
 6545SOL    HW220523   4.252   3.374   4.568
 6546SOL     OW20524   3.760   2.407   4.839
 6546SOL    HW120525   3.841   2.390   4.790
 6546SOL    HW220526   3.788   2.410   4.931
 6547SOL     OW20527   3.915   2.381   5.452
 6547SOL    HW120528   3.971   2.343   5.384
 6547SOL    HW220529   3.871   2.454   5.408
 6548SOL     OW20530   0.032   2.417   3.987
 6548SOL    HW120531   0.020   2.349   4.053
 6548SOL    HW220532   4.464   2.482   4.007
 6549SOL     OW20533   3.970   3.415   5.452
 6549SOL    HW120534   3.943   3.479   5.518
 6549SOL    HW220535   3.967   3.331   5.497
 6550SOL     OW20536   4.190   2.355   3.912
 6550SOL    HW120537   4.248   2.428   3.932
 6550SOL    HW220538   4.104   2.395   3.898
 6551SOL     OW20539   3.872   3.002   5.196
 6551SOL    HW120540   3.872   2.950   5.276
 6551SOL    HW220541   3.887   2.939   5.126
 6552SOL     OW20542   3.809   3.131   4.737
 6552SOL    HW120543   3.795   3.142   4.831
 6552SOL    HW220544   3.737   3.074   4.708
 6553SOL     OW20545   4.389   3.513   5.425
 6553SOL    HW120546   4.355   3.599   5.452
 6553SOL    HW220547   4.433   3.530   5.342
 6554SOL     OW20548   3.861   3.658   5.567
 6554SOL    HW120549   3.810   3.594   5.616
 6554SOL    HW220550   3.908   3.708   5.634
 6555SOL     OW20551   3.986   2.182   4.440
 6555SOL    HW120552   3.899   2.215   4.419
 6555SOL    HW220553   3.985   2.171   4.535
 6556SOL     OW20554   4.089   3.168   5.214
 6556SOL    HW120555   4.069   3.245   5.160
 6556SOL    HW220556   4.016   3.108   5.199
 6557SOL     OW20557   4.325   3.352   4.204
 6557SOL    HW120558   4.343   3.293   4.131
 6557SOL    HW220559   4.260   3.414   4.171
 6558SOL     OW20560   3.984   3.212   4.010
 6558SOL    HW120561   3.890   3.208   3.988
 6558SOL    HW220562   3.986   3.247   4.099
 6559SOL     OW20563   3.836   2.887   5.445
 6559SOL    HW120564   3.759   2.861   5.495
 6559SOL    HW220565   3.910   2.847   5.491
 6560SOL     OW20566   4.390   2.068   5.218
 6560SOL    HW120567   4.479   2.065   5.182
 6560SOL    HW220568   4.402   2.056   5.312
 6561SOL     OW20569   3.802   2.196   3.760
 6561SOL    HW120570   3.715   2.176   3.726
 6561SOL    HW220571   3.832   2.271   3.707
 6562SOL     OW20572   3.793   2.019   4.035
 6562SOL    HW120573   3.778   2.098   3.983
 6562SOL    HW220574   3.878   1.987   4.005
 6563SOL     OW20575   4.337   2.701   5.158
 6563SOL    HW120576   4.381   2.785   5.144
 6563SOL    HW220577   4.409   2.640   5.174
 6564SOL     OW20578   4.399   2.418   5.461
 6564SOL    HW120579   4.421   2.495   5.514
 6564SOL    HW220580   4.483   2.383   5.433
 6565SOL     OW20581   4.107   3.601   5.284
 6565SOL    HW120582   4.022   3.642   5.272
 6565SOL    HW220583   4.089   3.519   5.331
 6566SOL     OW20584   4.309   2.593   4.391
 6566SOL    HW120585   4.351   2.678   4.379
 6566SOL    HW220586   4.240   2.591   4.325
 6567SOL     OW20587   3.943   3.169   5.578
 6567SOL    HW120588   3.879   3.104   5.550
 6567SOL    HW220589   3.927   3.179   5.672
 6568SOL     OW20590   3.808   3.094   4.388
 6568SOL    HW120591   3.814   3.048   4.472
 6568SOL    HW220592   3.877   3.057   4.334
 6569SOL     OW20593   4.416   3.248   5.382
 6569SOL    HW120594   4.326   3.215   5.378
 6569SOL    HW220595   4.406   3.342   5.398
 6570SOL     OW20596   4.162   2.295   4.256
 6570SOL    HW120597   4.180   2.227   4.192
 6570SOL    HW220598   4.106   2.253   4.321
 6571SOL     OW20599   4.053   2.415   5.013
 6571SOL    HW120600   4.107   2.359   5.069
 6571SOL    HW220601   4.074   2.388   4.924
 6572SOL     OW20602   0.037   3.460   4.410
 6572SOL    HW120603   0.059   3.522   4.340
 6572SOL    HW220604   4.466   3.407   4.373
 6573SOL     OW20605   3.767   2.933   4.029
 6573SOL    HW120606   3.861   2.925   4.012
 6573SOL    HW220607   3.739   2.845   4.052
 6574SOL     OW20608   3.954   2.485   5.709
 6574SOL    HW120609   3.865   2.485   5.743
 6574SOL    HW220610   3.945   2.459   5.617
 6575SOL     OW20611   3.947   2.146   6.577
 6575SOL    HW120612   3.979   2.111   6.660
 6575SOL    HW220613   3.858   2.112   6.568
 6576SOL     OW20614   3.730   2.244   6.222
 6576SOL    HW120615   3.648   2.270   6.263
 6576SOL    HW220616   3.709   2.163   6.175
 6577SOL     OW20617   4.267   3.108   6.731
 6577SOL    HW120618   4.196   3.169   6.709
 6577SOL    HW220619   4.333   3.163   6.775
 6578SOL     OW20620   0.020   2.642   7.443
 6578SOL    HW120621   0.071   2.685   7.511
 6578SOL    HW220622   0.064   2.666   7.361
 6579SOL     OW20623   4.398   2.854   6.223
 6579SOL    HW120624   4.472   2.848   6.284
 6579SOL    HW220625   4.336   2.913   6.266
 6580SOL     OW20626   4.419   3.023   7.399
 6580SOL    HW120627   4.460   3.104   7.368
 6580SOL    HW220628   4.327   3.031   7.374
 6581SOL     OW20629   4.060   3.295   6.655
 6581SOL    HW120630   3.988   3.252   6.609
 6581SOL    HW220631   4.106   3.343   6.586
 6582SOL     OW20632   4.171   2.261   7.070
 6582SOL    HW120633   4.245   2.201   7.075
 6582SOL    HW220634   4.094   2.206   7.085
 6583SOL     OW20635   3.942   3.576   6.060
 6583SOL    HW120636   3.963   3.652   6.113
 6583SOL    HW220637   4.016   3.568   5.999
 6584SOL     OW20638   3.954   3.303   6.120
 6584SOL    HW120639   3.936   3.397   6.126
 6584SOL    HW220640   3.894   3.263   6.184
 6585SOL     OW20641   3.975   2.950   6.472
 6585SOL    HW120642   3.979   2.866   6.517
 6585SOL    HW220643   3.923   3.006   6.531
 6586SOL     OW20644   4.361   3.659   7.039
 6586SOL    HW120645   4.275   3.626   7.064
 6586SOL    HW220646   4.352   3.755   7.041
 6587SOL     OW20647   4.310   2.848   5.724
 6587SOL    HW120648   4.340   2.900   5.650
 6587SOL    HW220649   4.378   2.860   5.791
 6588SOL     OW20650   3.839   2.513   6.146
 6588SOL    HW120651   3.809   2.425   6.167
 6588SOL    HW220652   3.831   2.562   6.228
 6589SOL     OW20653   3.756   3.457   5.710
 6589SOL    HW120654   3.737   3.366   5.729
 6589SOL    HW220655   3.731   3.504   5.790
 6590SOL     OW20656   3.846   2.604   7.172
 6590SOL    HW120657   3.938   2.628   7.182
 6590SOL    HW220658   3.798   2.687   7.179
 6591SOL     OW20659   4.311   3.249   6.323
 6591SOL    HW120660   4.275   3.160   6.327
 6591SOL    HW220661   4.312   3.271   6.230
 6592SOL     OW20662   0.022   1.869   6.111
 6592SOL    HW120663   0.053   1.932   6.046
 6592SOL    HW220664   4.427   1.883   6.115
 6593SOL     OW20665   3.913   2.828   6.857
 6593SOL    HW120666   3.998   2.788   6.840
 6593SOL    HW220667   3.850   2.773   6.809
 6594SOL     OW20668   4.057   2.112   7.396
 6594SOL    HW120669   4.101   2.196   7.412
 6594SOL    HW220670   3.968   2.125   7.428
 6595SOL     OW20671   4.312   2.590   5.856
 6595SOL    HW120672   4.309   2.667   5.799
 6595SOL    HW220673   4.244   2.606   5.922
 6596SOL     OW20674   3.812   2.682   6.362
 6596SOL    HW120675   3.894   2.675   6.412
 6596SOL    HW220676   3.771   2.761   6.396
 6597SOL     OW20677   3.853   3.707   7.163
 6597SOL    HW120678   3.852   3.687   7.257
 6597SOL    HW220679   3.761   3.701   7.137
 6598SOL     OW20680   4.252   2.053   6.466
 6598SOL    HW120681   4.271   2.059   6.560
 6598SOL    HW220682   4.262   2.142   6.434
 6599SOL     OW20683   4.082   3.674   6.448
 6599SOL    HW120684   4.131   3.592   6.456
 6599SOL    HW220685   4.147   3.742   6.460
 6600SOL     OW20686   4.044   2.820   5.836
 6600SOL    HW120687   4.126   2.839   5.791
 6600SOL    HW220688   4.013   2.738   5.797
 6601SOL     OW20689   4.178   3.114   7.321
 6601SOL    HW120690   4.151   3.126   7.229
 6601SOL    HW220691   4.097   3.124   7.371
 6602SOL     OW20692   3.924   2.144   7.088
 6602SOL    HW120693   3.842   2.193   7.082
 6602SOL    HW220694   3.906   2.076   7.152
 6603SOL     OW20695   4.192   3.597   5.912
 6603SOL    HW120696   4.225   3.657   5.979
 6603SOL    HW220697   4.261   3.597   5.845
 6604SOL     OW20698   3.979   3.655   6.818
 6604SOL    HW120699   4.027   3.586   6.864
 6604SOL    HW220700   3.966   3.621   6.730
 6605SOL     OW20701   4.111   2.556   6.059
 6605SOL    HW120702   4.137   2.464   6.074
 6605SOL    HW220703   4.018   2.558   6.080
 6606SOL     OW20704   4.340   1.971   5.703
 6606SOL    HW120705   4.435   1.956   5.702
 6606SOL    HW220706   4.311   1.949   5.615
 6607SOL     OW20707   0.020   3.284   6.498
 6607SOL    HW120708   0.083   3.327   6.440
 6607SOL    HW220709   4.444   3.266   6.442
 6608SOL     OW20710   4.260   1.927   6.087
 6608SOL    HW120711   4.182   1.931   6.141
 6608SOL    HW220712   4.256   2.005   6.032
 6609SOL     OW20713   4.017   1.910   5.771
 6609SOL    HW120714   4.077   1.973   5.732
 6609SOL    HW220715   4.074   1.846   5.814
 6610SOL     OW20716   0.325   2.536   7.035
 6610SOL    HW120717   0.254   2.472   7.027
 6610SOL    HW220718   0.405   2.483   7.034
 6611SOL     OW20719   4.190   3.007   6.319
 6611SOL    HW120720   4.121   2.988   6.383
 6611SOL    HW220721   4.149   2.990   6.234
 6612SOL     OW20722   3.802   2.416   6.978
 6612SOL    HW120723   3.894   2.415   6.950
 6612SOL    HW220724   3.798   2.486   7.043
 6613SOL     OW20725   4.283   2.073   6.735
 6613SOL    HW120726   4.326   2.007   6.789
 6613SOL    HW220727   4.197   2.084   6.774
 6614SOL     OW20728   4.230   3.248   5.759
 6614SOL    HW120729   4.146   3.234   5.801
 6614SOL    HW220730   4.209   3.264   5.667
 6615SOL     OW20731   4.246   2.128   5.908
 6615SOL    HW120732   4.286   2.073   5.840
 6615SOL    HW220733   4.226   2.210   5.863
 6616SOL     OW20734   4.140   2.674   6.836
 6616SOL    HW120735   4.206   2.685   6.903
 6616SOL    HW220736   4.105   2.586   6.850
 6617SOL     OW20737   3.793   3.435   6.938
 6617SOL    HW120738   3.761   3.507   6.884
 6617SOL    HW220739   3.889   3.441   6.932
 6618SOL     OW20740   4.071   2.971   6.076
 6618SOL    HW120741   4.073   3.044   6.013
 6618SOL    HW220742   4.070   2.892   6.021
 6619SOL     OW20743   4.299   2.400   6.450
 6619SOL    HW120744   4.300   2.467   6.381
 6619SOL    HW220745   4.364   2.431   6.513
 6620SOL     OW20746   4.072   3.395   6.903
 6620SOL    HW120747   4.066   3.352   6.818
 6620SOL    HW220748   4.166   3.397   6.923
 6621SOL     OW20749   4.136   2.605   7.190
 6621SOL    HW120750   4.196   2.649   7.130
 6621SOL    HW220751   4.179   2.521   7.208
 6622SOL     OW20752   4.232   1.914   7.320
 6622SOL    HW120753   4.186   1.854   7.261
 6622SOL    HW220754   4.167   1.981   7.340
 6623SOL     OW20755   4.290   2.752   6.612
 6623SOL    HW120756   4.319   2.842   6.627
 6623SOL    HW220757   4.243   2.728   6.692
 6624SOL     OW20758   4.024   2.062   6.833
 6624SOL    HW120759   3.985   2.095   6.915
 6624SOL    HW220760   4.005   1.969   6.833
 6625SOL     OW20761   3.770   3.173   6.863
 6625SOL    HW120762   3.803   3.118   6.934
 6625SOL    HW220763   3.776   3.262   6.896
 6626SOL     OW20764   4.020   1.928   6.211
 6626SOL    HW120765   4.004   2.019   6.235
 6626SOL    HW220766   4.032   1.883   6.295
 6627SOL     OW20767   4.076   2.777   7.394
 6627SOL    HW120768   4.158   2.793   7.441
 6627SOL    HW220769   4.099   2.713   7.327
 6628SOL     OW20770   4.031   2.671   6.532
 6628SOL    HW120771   4.123   2.698   6.532
 6628SOL    HW220772   4.033   2.580   6.564
 6629SOL     OW20773   4.063   2.389   6.595
 6629SOL    HW120774   4.027   2.301   6.579
 6629SOL    HW220775   4.142   2.391   6.541
 6630SOL     OW20776   3.729   3.183   5.782
 6630SOL    HW120777   3.643   3.197   5.744
 6630SOL    HW220778   3.727   3.094   5.815
 6631SOL     OW20779   3.816   3.650   6.524
 6631SOL    HW120780   3.786   3.570   6.480
 6631SOL    HW220781   3.905   3.662   6.493
 6632SOL     OW20782   4.232   3.445   6.491
 6632SOL    HW120783   4.318   3.476   6.521
 6632SOL    HW220784   4.252   3.374   6.430
 6633SOL     OW20785   3.760   2.406   6.702
 6633SOL    HW120786   3.839   2.390   6.652
 6633SOL    HW220787   3.789   2.410   6.793
 6634SOL     OW20788   3.915   2.381   7.313
 6634SOL    HW120789   3.972   2.344   7.246
 6634SOL    HW220790   3.871   2.454   7.270
 6635SOL     OW20791   0.032   2.417   5.849
 6635SOL    HW120792   0.019   2.349   5.915
 6635SOL    HW220793   4.464   2.482   5.869
 6636SOL     OW20794   3.970   3.415   7.314
 6636SOL    HW120795   3.943   3.479   7.380
 6636SOL    HW220796   3.967   3.331   7.360
 6637SOL     OW20797   4.190   2.355   5.775
 6637SOL    HW120798   4.248   2.428   5.794
 6637SOL    HW220799   4.104   2.395   5.760
 6638SOL     OW20800   3.871   3.002   7.058
 6638SOL    HW120801   3.872   2.950   7.138
 6638SOL    HW220802   3.887   2.939   6.988
 6639SOL     OW20803   3.808   3.131   6.599
 6639SOL    HW120804   3.793   3.141   6.693
 6639SOL    HW220805   3.738   3.074   6.569
 6640SOL     OW20806   4.389   3.513   7.287
 6640SOL    HW120807   4.355   3.599   7.314
 6640SOL    HW220808   4.433   3.530   7.204
 6641SOL     OW20809   3.861   3.658   7.429
 6641SOL    HW120810   3.810   3.594   7.478
 6641SOL    HW220811   3.907   3.708   7.496
 6642SOL     OW20812   3.987   2.182   6.302
 6642SOL    HW120813   3.900   2.215   6.280
 6642SOL    HW220814   3.985   2.171   6.397
 6643SOL     OW20815   4.088   3.168   7.076
 6643SOL    HW120816   4.069   3.244   7.022
 6643SOL    HW220817   4.015   3.108   7.060
 6644SOL     OW20818   4.325   3.352   6.066
 6644SOL    HW120819   4.342   3.293   5.993
 6644SOL    HW220820   4.260   3.413   6.033
 6645SOL     OW20821   3.984   3.211   5.872
 6645SOL    HW120822   3.891   3.207   5.850
 6645SOL    HW220823   3.986   3.247   5.961
 6646SOL     OW20824   3.836   2.884   7.305
 6646SOL    HW120825   3.759   2.860   7.358
 6646SOL    HW220826   3.910   2.846   7.352
 6647SOL     OW20827   4.390   2.068   7.080
 6647SOL    HW120828   4.479   2.065   7.043
 6647SOL    HW220829   4.402   2.056   7.174
 6648SOL     OW20830   3.802   2.195   5.621
 6648SOL    HW120831   3.715   2.176   5.586
 6648SOL    HW220832   3.832   2.271   5.570
 6649SOL     OW20833   3.793   2.019   5.897
 6649SOL    HW120834   3.778   2.099   5.846
 6649SOL    HW220835   3.878   1.987   5.866
 6650SOL     OW20836   4.337   2.701   7.021
 6650SOL    HW120837   4.381   2.785   7.006
 6650SOL    HW220838   4.408   2.639   7.036
 6651SOL     OW20839   4.398   2.419   7.323
 6651SOL    HW120840   4.421   2.496   7.376
 6651SOL    HW220841   4.483   2.383   7.295
 6652SOL     OW20842   4.107   3.601   7.146
 6652SOL    HW120843   4.022   3.642   7.134
 6652SOL    HW220844   4.089   3.519   7.192
 6653SOL     OW20845   4.309   2.593   6.253
 6653SOL    HW120846   4.351   2.678   6.241
 6653SOL    HW220847   4.240   2.591   6.187
 6654SOL     OW20848   3.944   3.169   7.441
 6654SOL    HW120849   3.878   3.105   7.413
 6654SOL    HW220850   3.929   3.179   7.534
 6655SOL     OW20851   3.808   3.096   6.251
 6655SOL    HW120852   3.812   3.048   6.333
 6655SOL    HW220853   3.876   3.057   6.197
 6656SOL     OW20854   4.416   3.248   7.244
 6656SOL    HW120855   4.326   3.215   7.240
 6656SOL    HW220856   4.406   3.342   7.260
 6657SOL     OW20857   4.163   2.295   6.119
 6657SOL    HW120858   4.180   2.227   6.054
 6657SOL    HW220859   4.106   2.253   6.183
 6658SOL     OW20860   4.052   2.415   6.875
 6658SOL    HW120861   4.107   2.359   6.931
 6658SOL    HW220862   4.074   2.388   6.786
 6659SOL     OW20863   0.037   3.460   6.272
 6659SOL    HW120864   0.059   3.522   6.202
 6659SOL    HW220865   4.466   3.407   6.235
 6660SOL     OW20866   3.768   2.933   5.892
 6660SOL    HW120867   3.861   2.923   5.874
 6660SOL    HW220868   3.738   2.845   5.915
 6661SOL     OW20869   3.954   2.485   7.571
 6661SOL    HW120870   3.865   2.484   7.605
 6661SOL    HW220871   3.945   2.459   7.479
 6662SOL     OW20872   3.947   2.146   8.439
 6662SOL    HW120873   3.979   2.111   8.522
 6662SOL    HW220874   3.858   2.112   8.430
 6663SOL     OW20875   3.728   2.245   8.086
 6663SOL    HW120876   3.645   2.270   8.127
 6663SOL    HW220877   3.707   2.165   8.038
 6664SOL     OW20878   4.267   3.108   8.593
 6664SOL    HW120879   4.196   3.169   8.571
 6664SOL    HW220880   4.332   3.163   8.637
 6665SOL     OW20881   0.020   2.642   9.305
 6665SOL    HW120882   0.071   2.686   9.373
 6665SOL    HW220883   0.064   2.666   9.223
 6666SOL     OW20884   4.398   2.854   8.085
 6666SOL    HW120885   4.472   2.848   8.146
 6666SOL    HW220886   4.336   2.913   8.128
 6667SOL     OW20887   4.419   3.023   9.261
 6667SOL    HW120888   4.460   3.104   9.229
 6667SOL    HW220889   4.327   3.031   9.236
 6668SOL     OW20890   4.060   3.295   8.517
 6668SOL    HW120891   3.988   3.251   8.472
 6668SOL    HW220892   4.106   3.343   8.448
 6669SOL     OW20893   4.171   2.261   8.932
 6669SOL    HW120894   4.245   2.201   8.937
 6669SOL    HW220895   4.094   2.206   8.947
 6670SOL     OW20896   3.942   3.576   7.922
 6670SOL    HW120897   3.963   3.652   7.975
 6670SOL    HW220898   4.016   3.568   7.861
 6671SOL     OW20899   3.954   3.303   7.982
 6671SOL    HW120900   3.936   3.396   7.988
 6671SOL    HW220901   3.894   3.263   8.045
 6672SOL     OW20902   3.975   2.950   8.334
 6672SOL    HW120903   3.979   2.866   8.379
 6672SOL    HW220904   3.923   3.006   8.393
 6673SOL     OW20905   4.361   3.659   8.902
 6673SOL    HW120906   4.275   3.626   8.926
 6673SOL    HW220907   4.352   3.755   8.903
 6674SOL     OW20908   4.309   2.848   7.586
 6674SOL    HW120909   4.340   2.899   7.512
 6674SOL    HW220910   4.377   2.860   7.653
 6675SOL     OW20911   3.839   2.513   8.008
 6675SOL    HW120912   3.808   2.426   8.029
 6675SOL    HW220913   3.831   2.562   8.089
 6676SOL     OW20914   3.756   3.457   7.572
 6676SOL    HW120915   3.737   3.365   7.592
 6676SOL    HW220916   3.731   3.504   7.652
 6677SOL     OW20917   3.845   2.604   9.034
 6677SOL    HW120918   3.937   2.629   9.044
 6677SOL    HW220919   3.797   2.686   9.040
 6678SOL     OW20920   4.311   3.249   8.185
 6678SOL    HW120921   4.275   3.161   8.189
 6678SOL    HW220922   4.312   3.271   8.092
 6679SOL     OW20923   0.022   1.870   7.974
 6679SOL    HW120924   0.053   1.932   7.908
 6679SOL    HW220925   4.427   1.883   7.977
 6680SOL     OW20926   3.913   2.828   8.720
 6680SOL    HW120927   3.998   2.788   8.702
 6680SOL    HW220928   3.850   2.774   8.671
 6681SOL     OW20929   4.057   2.112   9.258
 6681SOL    HW120930   4.101   2.196   9.274
 6681SOL    HW220931   3.968   2.125   9.290
 6682SOL     OW20932   4.312   2.590   7.718
 6682SOL    HW120933   4.309   2.667   7.661
 6682SOL    HW220934   4.244   2.606   7.783
 6683SOL     OW20935   3.812   2.683   8.223
 6683SOL    HW120936   3.893   2.675   8.274
 6683SOL    HW220937   3.770   2.762   8.258
 6684SOL     OW20938   3.853   3.708   9.025
 6684SOL    HW120939   3.852   3.687   9.119
 6684SOL    HW220940   3.761   3.701   8.999
 6685SOL     OW20941   4.252   2.053   8.328
 6685SOL    HW120942   4.271   2.059   8.422
 6685SOL    HW220943   4.262   2.142   8.296
 6686SOL     OW20944   4.082   3.674   8.310
 6686SOL    HW120945   4.131   3.592   8.318
 6686SOL    HW220946   4.147   3.742   8.322
 6687SOL     OW20947   4.043   2.820   7.698
 6687SOL    HW120948   4.126   2.839   7.653
 6687SOL    HW220949   4.013   2.738   7.660
 6688SOL     OW20950   4.178   3.114   9.183
 6688SOL    HW120951   4.151   3.126   9.092
 6688SOL    HW220952   4.097   3.124   9.233
 6689SOL     OW20953   3.924   2.144   8.950
 6689SOL    HW120954   3.842   2.194   8.943
 6689SOL    HW220955   3.906   2.076   9.014
 6690SOL     OW20956   4.192   3.597   7.773
 6690SOL    HW120957   4.225   3.657   7.841
 6690SOL    HW220958   4.261   3.597   7.707
 6691SOL     OW20959   3.979   3.655   8.680
 6691SOL    HW120960   4.027   3.585   8.726
 6691SOL    HW220961   3.966   3.621   8.592
 6692SOL     OW20962   4.111   2.556   7.921
 6692SOL    HW120963   4.137   2.464   7.935
 6692SOL    HW220964   4.018   2.558   7.942
 6693SOL     OW20965   4.340   1.972   7.565
 6693SOL    HW120966   4.435   1.957   7.565
 6693SOL    HW220967   4.312   1.949   7.477
 6694SOL     OW20968   0.020   3.284   8.360
 6694SOL    HW120969   0.083   3.327   8.302
 6694SOL    HW220970   4.444   3.266   8.304
 6695SOL     OW20971   4.260   1.927   7.949
 6695SOL    HW120972   4.181   1.931   8.003
 6695SOL    HW220973   4.256   2.005   7.894
 6696SOL     OW20974   4.017   1.910   7.633
 6696SOL    HW120975   4.078   1.973   7.595
 6696SOL    HW220976   4.073   1.845   7.676
 6697SOL     OW20977   0.325   2.536   8.898
 6697SOL    HW120978   0.254   2.472   8.889
 6697SOL    HW220979   0.405   2.483   8.896
 6698SOL     OW20980   4.190   3.007   8.181
 6698SOL    HW120981   4.121   2.988   8.245
 6698SOL    HW220982   4.149   2.990   8.096
 6699SOL     OW20983   3.803   2.416   8.840
 6699SOL    HW120984   3.894   2.415   8.812
 6699SOL    HW220985   3.798   2.486   8.905
 6700SOL     OW20986   4.283   2.073   8.597
 6700SOL    HW120987   4.326   2.007   8.651
 6700SOL    HW220988   4.197   2.084   8.636
 6701SOL     OW20989   4.231   3.248   7.621
 6701SOL    HW120990   4.146   3.234   7.663
 6701SOL    HW220991   4.209   3.264   7.529
 6702SOL     OW20992   4.245   2.128   7.770
 6702SOL    HW120993   4.287   2.073   7.703
 6702SOL    HW220994   4.226   2.210   7.725
 6703SOL     OW20995   4.140   2.674   8.697
 6703SOL    HW120996   4.206   2.685   8.765
 6703SOL    HW220997   4.105   2.586   8.712
 6704SOL     OW20998   3.793   3.435   8.801
 6704SOL    HW120999   3.761   3.506   8.746
 6704SOL    HW221000   3.889   3.441   8.794
 6705SOL     OW21001   4.071   2.971   7.938
 6705SOL    HW121002   4.073   3.044   7.876
 6705SOL    HW221003   4.070   2.892   7.883
 6706SOL     OW21004   4.299   2.400   8.312
 6706SOL    HW121005   4.300   2.467   8.243
 6706SOL    HW221006   4.364   2.431   8.375
 6707SOL     OW21007   4.072   3.396   8.764
 6707SOL    HW121008   4.066   3.352   8.680
 6707SOL    HW221009   4.166   3.397   8.784
 6708SOL     OW21010   4.136   2.605   9.052
 6708SOL    HW121011   4.196   2.649   8.992
 6708SOL    HW221012   4.178   2.521   9.070
 6709SOL     OW21013   4.232   1.914   9.182
 6709SOL    HW121014   4.186   1.854   9.123
 6709SOL    HW221015   4.167   1.981   9.202
 6710SOL     OW21016   4.290   2.752   8.474
 6710SOL    HW121017   4.319   2.842   8.489
 6710SOL    HW221018   4.243   2.728   8.554
 6711SOL     OW21019   4.024   2.062   8.695
 6711SOL    HW121020   3.985   2.095   8.777
 6711SOL    HW221021   4.005   1.969   8.695
 6712SOL     OW21022   3.771   3.173   8.725
 6712SOL    HW121023   3.803   3.118   8.796
 6712SOL    HW221024   3.776   3.262   8.758
 6713SOL     OW21025   4.020   1.928   8.073
 6713SOL    HW121026   4.004   2.019   8.097
 6713SOL    HW221027   4.032   1.883   8.157
 6714SOL     OW21028   4.076   2.777   9.257
 6714SOL    HW121029   4.158   2.793   9.303
 6714SOL    HW221030   4.099   2.713   9.189
 6715SOL     OW21031   4.031   2.671   8.394
 6715SOL    HW121032   4.123   2.698   8.394
 6715SOL    HW221033   4.033   2.580   8.426
 6716SOL     OW21034   4.063   2.389   8.457
 6716SOL    HW121035   4.027   2.302   8.441
 6716SOL    HW221036   4.142   2.391   8.403
 6717SOL     OW21037   3.729   3.183   7.643
 6717SOL    HW121038   3.642   3.197   7.605
 6717SOL    HW221039   3.727   3.094   7.677
 6718SOL     OW21040   3.816   3.650   8.386
 6718SOL    HW121041   3.786   3.570   8.342
 6718SOL    HW221042   3.905   3.662   8.355
 6719SOL     OW21043   4.232   3.445   8.353
 6719SOL    HW121044   4.318   3.476   8.383
 6719SOL    HW221045   4.252   3.374   8.292
 6720SOL     OW21046   3.759   2.406   8.564
 6720SOL    HW121047   3.839   2.390   8.514
 6720SOL    HW221048   3.788   2.410   8.655
 6721SOL     OW21049   3.915   2.381   9.175
 6721SOL    HW121050   3.972   2.343   9.108
 6721SOL    HW221051   3.871   2.454   9.132
 6722SOL     OW21052   0.032   2.417   7.711
 6722SOL    HW121053   0.020   2.349   7.777
 6722SOL    HW221054   4.464   2.482   7.731
 6723SOL     OW21055   3.970   3.415   9.176
 6723SOL    HW121056   3.943   3.479   9.242
 6723SOL    HW221057   3.967   3.331   9.222
 6724SOL     OW21058   4.190   2.355   7.636
 6724SOL    HW121059   4.248   2.428   7.656
 6724SOL    HW221060   4.104   2.395   7.622
 6725SOL     OW21061   3.871   3.002   8.920
 6725SOL    HW121062   3.872   2.950   9.000
 6725SOL    HW221063   3.887   2.939   8.850
 6726SOL     OW21064   3.808   3.131   8.461
 6726SOL    HW121065   3.793   3.141   8.555
 6726SOL    HW221066   3.737   3.074   8.431
 6727SOL     OW21067   4.389   3.513   9.149
 6727SOL    HW121068   4.355   3.599   9.176
 6727SOL    HW221069   4.433   3.530   9.066
 6728SOL     OW21070   3.861   3.658   9.291
 6728SOL    HW121071   3.810   3.594   9.340
 6728SOL    HW221072   3.907   3.708   9.358
 6729SOL     OW21073   3.986   2.182   8.164
 6729SOL    HW121074   3.899   2.215   8.142
 6729SOL    HW221075   3.985   2.171   8.259
 6730SOL     OW21076   4.088   3.168   8.938
 6730SOL    HW121077   4.069   3.244   8.883
 6730SOL    HW221078   4.016   3.108   8.922
 6731SOL     OW21079   4.325   3.352   7.928
 6731SOL    HW121080   4.342   3.293   7.855
 6731SOL    HW221081   4.260   3.413   7.895
 6732SOL     OW21082   3.984   3.212   7.734
 6732SOL    HW121083   3.891   3.207   7.712
 6732SOL    HW221084   3.986   3.247   7.823
 6733SOL     OW21085   3.836   2.885   9.168
 6733SOL    HW121086   3.760   2.860   9.220
 6733SOL    HW221087   3.910   2.846   9.215
 6734SOL     OW21088   4.390   2.068   8.942
 6734SOL    HW121089   4.479   2.065   8.905
 6734SOL    HW221090   4.402   2.056   9.036
 6735SOL     OW21091   3.803   2.195   7.483
 6735SOL    HW121092   3.714   2.177   7.451
 6735SOL    HW221093   3.832   2.270   7.431
 6736SOL     OW21094   3.793   2.018   7.759
 6736SOL    HW121095   3.778   2.098   7.709
 6736SOL    HW221096   3.878   1.987   7.728
 6737SOL     OW21097   4.337   2.701   8.883
 6737SOL    HW121098   4.381   2.785   8.868
 6737SOL    HW221099   4.408   2.639   8.897
 6738SOL     OW21100   4.398   2.418   9.186
 6738SOL    HW121101   4.421   2.495   9.238
 6738SOL    HW221102   4.483   2.383   9.157
 6739SOL     OW21103   4.108   3.601   9.008
 6739SOL    HW121104   4.022   3.642   8.995
 6739SOL    HW221105   4.088   3.519   9.054
 6740SOL     OW21106   4.309   2.593   8.115
 6740SOL    HW121107   4.351   2.678   8.103
 6740SOL    HW221108   4.240   2.591   8.049
 6741SOL     OW21109   3.944   3.169   9.303
 6741SOL    HW121110   3.878   3.105   9.275
 6741SOL    HW221111   3.928   3.179   9.396
 6742SOL     OW21112   3.809   3.096   8.113
 6742SOL    HW121113   3.812   3.047   8.196
 6742SOL    HW221114   3.877   3.056   8.059
 6743SOL     OW21115   4.416   3.248   9.106
 6743SOL    HW121116   4.326   3.215   9.102
 6743SOL    HW221117   4.406   3.342   9.122
 6744SOL     OW21118   4.163   2.295   7.981
 6744SOL    HW121119   4.180   2.227   7.916
 6744SOL    HW221120   4.106   2.253   8.045
 6745SOL     OW21121   4.053   2.415   8.737
 6745SOL    HW121122   4.107   2.359   8.792
 6745SOL    HW221123   4.074   2.388   8.648
 6746SOL     OW21124   0.037   3.460   8.134
 6746SOL    HW121125   0.059   3.522   8.064
 6746SOL    HW221126   4.466   3.407   8.097
 6747SOL     OW21127   3.768   2.933   7.753
 6747SOL    HW121128   3.862   2.924   7.736
 6747SOL    HW221129   3.739   2.845   7.777
 6748SOL     OW21130   3.954   2.485   9.433
 6748SOL    HW121131   3.865   2.485   9.467
 6748SOL    HW221132   3.945   2.459   9.341
 6749SOL     OW21133   3.947   2.146  10.301
 6749SOL    HW121134   3.979   2.111  10.384
 6749SOL    HW221135   3.858   2.112  10.292
 6750SOL     OW21136   3.728   2.245   9.948
 6750SOL    HW121137   3.645   2.269   9.989
 6750SOL    HW221138   3.707   2.165   9.900
 6751SOL     OW21139   4.267   3.108  10.456
 6751SOL    HW121140   4.196   3.168  10.433
 6751SOL    HW221141   4.332   3.163  10.500
 6752SOL     OW21142   0.024   2.674   0.078
 6752SOL    HW121143   0.102   2.709   0.121
 6752SOL    HW221144   0.052   2.654  11.089
 6753SOL     OW21145   4.399   2.854   9.947
 6753SOL    HW121146   4.472   2.847  10.008
 6753SOL    HW221147   4.336   2.913   9.990
 6754SOL     OW21148   4.061   3.294  10.379
 6754SOL    HW121149   3.988   3.252  10.334
 6754SOL    HW221150   4.106   3.343  10.310
 6755SOL     OW21151   4.177   2.263  10.797
 6755SOL    HW121152   4.245   2.196  10.798
 6755SOL    HW221153   4.096   2.216  10.817
 6756SOL     OW21154   3.942   3.576   9.784
 6756SOL    HW121155   3.963   3.652   9.837
 6756SOL    HW221156   4.016   3.568   9.723
 6757SOL     OW21157   3.954   3.303   9.844
 6757SOL    HW121158   3.936   3.397   9.850
 6757SOL    HW221159   3.894   3.263   9.908
 6758SOL     OW21160   3.975   2.950  10.196
 6758SOL    HW121161   3.979   2.866  10.241
 6758SOL    HW221162   3.923   3.006  10.254
 6759SOL     OW21163   4.356   3.662  10.755
 6759SOL    HW121164   4.269   3.632  10.781
 6759SOL    HW221165   4.353   3.757  10.767
 6760SOL     OW21166   4.309   2.848   9.448
 6760SOL    HW121167   4.340   2.899   9.374
 6760SOL    HW221168   4.377   2.860   9.515
 6761SOL     OW21169   3.839   2.513   9.870
 6761SOL    HW121170   3.808   2.426   9.891
 6761SOL    HW221171   3.831   2.562   9.952
 6762SOL     OW21172   3.756   3.457   9.434
 6762SOL    HW121173   3.737   3.365   9.454
 6762SOL    HW221174   3.731   3.504   9.514
 6763SOL     OW21175   3.849   2.588  10.915
 6763SOL    HW121176   3.942   2.611  10.907
 6763SOL    HW221177   3.803   2.672  10.908
 6764SOL     OW21178   4.311   3.249  10.048
 6764SOL    HW121179   4.275   3.160  10.051
 6764SOL    HW221180   4.312   3.271   9.954
 6765SOL     OW21181   0.022   1.870   9.836
 6765SOL    HW121182   0.053   1.932   9.770
 6765SOL    HW221183   4.427   1.884   9.839
 6766SOL     OW21184   3.913   2.826  10.579
 6766SOL    HW121185   3.997   2.786  10.561
 6766SOL    HW221186   3.849   2.771  10.532
 6767SOL     OW21187   4.066   2.119   0.016
 6767SOL    HW121188   4.116   2.194   0.047
 6767SOL    HW221189   3.975   2.142   0.034
 6768SOL     OW21190   4.312   2.590   9.580
 6768SOL    HW121191   4.309   2.667   9.523
 6768SOL    HW221192   4.244   2.606   9.645
 6769SOL     OW21193   3.812   2.683  10.086
 6769SOL    HW121194   3.893   2.675  10.136
 6769SOL    HW221195   3.770   2.762  10.120
 6770SOL     OW21196   3.855   3.704  10.896
 6770SOL    HW121197   3.836   3.669  10.983
 6770SOL    HW221198   3.770   3.704  10.851
 6771SOL     OW21199   4.252   2.053  10.191
 6771SOL    HW121200   4.272   2.060  10.284
 6771SOL    HW221201   4.262   2.142  10.158
 6772SOL     OW21202   4.082   3.674  10.172
 6772SOL    HW121203   4.131   3.592  10.180
 6772SOL    HW221204   4.147   3.742  10.184
 6773SOL     OW21205   4.043   2.820   9.560
 6773SOL    HW121206   4.126   2.839   9.515
 6773SOL    HW221207   4.013   2.738   9.522
 6774SOL     OW21208   4.178   3.125  11.054
 6774SOL    HW121209   4.152   3.137  10.963
 6774SOL    HW221210   4.107   3.073  11.092
 6775SOL     OW21211   3.927   2.143  10.807
 6775SOL    HW121212   3.845   2.193  10.803
 6775SOL    HW221213   3.912   2.077  10.874
 6776SOL     OW21214   4.193   3.597   9.636
 6776SOL    HW121215   4.225   3.657   9.703
 6776SOL    HW221216   4.261   3.597   9.569
 6777SOL     OW21217   3.980   3.655  10.543
 6777SOL    HW121218   4.027   3.586  10.589
 6777SOL    HW221219   3.966   3.620  10.455
 6778SOL     OW21220   4.111   2.556   9.783
 6778SOL    HW121221   4.137   2.464   9.798
 6778SOL    HW221222   4.018   2.558   9.804
 6779SOL     OW21223   4.340   1.972   9.428
 6779SOL    HW121224   4.435   1.957   9.427
 6779SOL    HW221225   4.312   1.949   9.339
 6780SOL     OW21226   0.020   3.284  10.222
 6780SOL    HW121227   0.083   3.327  10.164
 6780SOL    HW221228   4.444   3.266  10.166
 6781SOL     OW21229   4.260   1.927   9.811
 6781SOL    HW121230   4.181   1.931   9.865
 6781SOL    HW221231   4.256   2.005   9.756
 6782SOL     OW21232   4.017   1.910   9.495
 6782SOL    HW121233   4.078   1.973   9.456
 6782SOL    HW221234   4.074   1.846   9.538
 6783SOL     OW21235   0.311   2.538  10.764
 6783SOL    HW121236   0.250   2.465  10.770
 6783SOL    HW221237   0.398   2.496  10.758
 6784SOL     OW21238   4.190   3.007  10.043
 6784SOL    HW121239   4.121   2.988  10.107
 6784SOL    HW221240   4.149   2.990   9.958
 6785SOL     OW21241   3.802   2.415  10.704
 6785SOL    HW121242   3.893   2.415  10.677
 6785SOL    HW221243   3.798   2.477  10.777
 6786SOL     OW21244   4.284   2.074  10.460
 6786SOL    HW121245   4.324   2.003  10.510
 6786SOL    HW221246   4.197   2.083  10.498
 6787SOL     OW21247   4.231   3.248   9.483
 6787SOL    HW121248   4.146   3.234   9.525
 6787SOL    HW221249   4.209   3.264   9.391
 6788SOL     OW21250   4.246   2.128   9.632
 6788SOL    HW121251   4.287   2.073   9.565
 6788SOL    HW221252   4.226   2.210   9.587
 6789SOL     OW21253   4.140   2.674  10.559
 6789SOL    HW121254   4.207   2.684  10.627
 6789SOL    HW221255   4.105   2.586  10.573
 6790SOL     OW21256   3.793   3.438  10.661
 6790SOL    HW121257   3.762   3.508  10.604
 6790SOL    HW221258   3.889   3.441  10.654
 6791SOL     OW21259   4.071   2.971   9.800
 6791SOL    HW121260   4.073   3.044   9.738
 6791SOL    HW221261   4.070   2.892   9.745
 6792SOL     OW21262   4.299   2.400  10.174
 6792SOL    HW121263   4.300   2.467  10.105
 6792SOL    HW221264   4.365   2.430  10.237
 6793SOL     OW21265   4.072   3.394  10.627
 6793SOL    HW121266   4.067   3.350  10.542
 6793SOL    HW221267   4.165   3.396  10.647
 6794SOL     OW21268   4.135   2.597  10.904
 6794SOL    HW121269   4.198   2.642  10.848
 6794SOL    HW221270   4.163   2.505  10.904
 6795SOL     OW21271   4.291   2.752  10.336
 6795SOL    HW121272   4.319   2.842  10.351
 6795SOL    HW221273   4.242   2.729  10.416
 6796SOL     OW21274   4.025   2.062  10.556
 6796SOL    HW121275   3.989   2.095  10.638
 6796SOL    HW221276   4.005   1.969  10.557
 6797SOL     OW21277   3.773   3.174  10.586
 6797SOL    HW121278   3.801   3.118  10.658
 6797SOL    HW221279   3.775   3.263  10.622
 6798SOL     OW21280   4.020   1.928   9.935
 6798SOL    HW121281   4.004   2.019   9.959
 6798SOL    HW221282   4.032   1.883  10.019
 6799SOL     OW21283   4.081   2.780  11.094
 6799SOL    HW121284   4.164   2.796   0.038
 6799SOL    HW221285   4.100   2.712  11.029
 6800SOL     OW21286   4.031   2.670  10.256
 6800SOL    HW121287   4.123   2.698  10.255
 6800SOL    HW221288   4.033   2.580  10.287
 6801SOL     OW21289   4.063   2.389  10.319
 6801SOL    HW121290   4.026   2.302  10.304
 6801SOL    HW221291   4.142   2.392  10.266
 6802SOL     OW21292   3.729   3.183   9.505
 6802SOL    HW121293   3.642   3.197   9.468
 6802SOL    HW221294   3.727   3.094   9.539
 6803SOL     OW21295   3.816   3.650  10.248
 6803SOL    HW121296   3.786   3.570  10.204
 6803SOL    HW221297   3.905   3.662  10.217
 6804SOL     OW21298   4.232   3.445  10.215
 6804SOL    HW121299   4.318   3.476  10.245
 6804SOL    HW221300   4.252   3.375  10.154
 6805SOL     OW21301   3.759   2.407  10.427
 6805SOL    HW121302   3.840   2.390  10.377
 6805SOL    HW221303   3.788   2.411  10.518
 6806SOL     OW21304   0.032   2.417   9.573
 6806SOL    HW121305   0.020   2.349   9.639
 6806SOL    HW221306   4.464   2.482   9.593
 6807SOL     OW21307   3.979   3.428  11.053
 6807SOL    HW121308   3.921   3.461   0.022
 6807SOL    HW221309   3.982   3.334  11.067
 6808SOL     OW21310   4.190   2.355   9.499
 6808SOL    HW121311   4.248   2.428   9.518
 6808SOL    HW221312   4.104   2.395   9.484
 6809SOL     OW21313   3.876   3.000  10.780
 6809SOL    HW121314   3.869   2.945  10.858
 6809SOL    HW221315   3.889   2.938  10.708
 6810SOL     OW21316   3.809   3.131  10.322
 6810SOL    HW121317   3.795   3.142  10.416
 6810SOL    HW221318   3.737   3.074  10.294
 6811SOL     OW21319   4.394   3.529  11.004
 6811SOL    HW121320   4.313   3.578  10.989
 6811SOL    HW221321   4.429   3.513  10.916
 6812SOL     OW21322   3.986   2.182  10.026
 6812SOL    HW121323   3.899   2.215  10.004
 6812SOL    HW221324   3.985   2.171  10.121
 6813SOL     OW21325   4.084   3.172  10.810
 6813SOL    HW121326   4.071   3.244  10.748
 6813SOL    HW221327   4.015   3.109  10.789
 6814SOL     OW21328   4.325   3.352   9.790
 6814SOL    HW121329   4.342   3.293   9.717
 6814SOL    HW221330   4.260   3.413   9.757
 6815SOL     OW21331   3.984   3.212   9.596
 6815SOL    HW121332   3.891   3.207   9.574
 6815SOL    HW221333   3.986   3.247   9.685
 6816SOL     OW21334   3.838   2.875  11.019
 6816SOL    HW121335   3.768   2.860  11.083
 6816SOL    HW221336   3.917   2.844  11.062
 6817SOL     OW21337   4.396   2.066  10.808
 6817SOL    HW121338   4.475   2.072  10.755
 6817SOL    HW221339   4.427   2.075  10.898
 6818SOL     OW21340   3.802   2.196   9.345
 6818SOL    HW121341   3.714   2.177   9.312
 6818SOL    HW221342   3.832   2.270   9.293
 6819SOL     OW21343   3.793   2.019   9.621
 6819SOL    HW121344   3.778   2.098   9.570
 6819SOL    HW221345   3.878   1.987   9.591
 6820SOL     OW21346   4.337   2.701  10.745
 6820SOL    HW121347   4.378   2.786  10.729
 6820SOL    HW221348   4.411   2.640  10.751
 6821SOL     OW21349   4.115   3.596  10.873
 6821SOL    HW121350   4.036   3.649  10.863
 6821SOL    HW221351   4.087   3.521  10.926
 6822SOL     OW21352   4.309   2.593   9.977
 6822SOL    HW121353   4.351   2.678   9.965
 6822SOL    HW221354   4.240   2.591   9.911
 6823SOL     OW21355   3.808   3.096   9.975
 6823SOL    HW121356   3.812   3.048  10.058
 6823SOL    HW221357   3.877   3.056   9.921
 6824SOL     OW21358   4.407   3.254  10.943
 6824SOL    HW121359   4.331   3.205  10.975
 6824SOL    HW221360   4.399   3.339  10.985
 6825SOL     OW21361   4.163   2.295   9.843
 6825SOL    HW121362   4.180   2.227   9.778
 6825SOL    HW221363   4.106   2.253   9.907
 6826SOL     OW21364   4.053   2.415  10.600
 6826SOL    HW121365   4.107   2.358  10.654
 6826SOL    HW221366   4.073   2.388  10.510
 6827SOL     OW21367   0.037   3.461   9.996
 6827SOL    HW121368   0.059   3.522   9.926
 6827SOL    HW221369   4.466   3.407   9.959
 6828SOL     OW21370   3.768   2.933   9.615
 6828SOL    HW121371   3.861   2.924   9.598
 6828SOL    HW221372   3.739   2.845   9.639
 6829SOL     OW21373   3.925   4.296   0.088
 6829SOL    HW121374   3.899   4.353   0.161
 6829SOL    HW221375   3.939   4.356   0.015
 6830SOL     OW21376   3.947   4.006   0.990
 6830SOL    HW121377   3.978   3.970   1.074
 6830SOL    HW221378   3.857   3.973   0.982
 6831SOL     OW21379   3.728   4.102   0.644
 6831SOL    HW121380   3.645   4.129   0.682
 6831SOL    HW221381   3.706   4.025   0.591
 6832SOL     OW21382   0.060   0.011   1.859
 6832SOL    HW121383   0.114   0.076   1.903
 6832SOL    HW221384   0.075   0.027   1.765
 6833SOL     OW21385   4.172   4.117   1.480
 6833SOL    HW121386   4.247   4.059   1.490
 6833SOL    HW221387   4.096   4.062   1.500
 6834SOL     OW21388   3.813   4.366   0.558
 6834SOL    HW121389   3.796   4.277   0.589
 6834SOL    HW221390   3.867   4.406   0.626
 6835SOL     OW21391   3.841   4.475   1.584
 6835SOL    HW121392   3.910   4.493   1.648
 6835SOL    HW221393   3.809   0.061   1.559
 6836SOL     OW21394   0.022   3.735   0.532
 6836SOL    HW121395   0.054   3.792   0.461
 6836SOL    HW221396   4.427   3.746   0.531
 6837SOL     OW21397   4.057   3.975   1.808
 6837SOL    HW121398   4.100   4.058   1.830
 6837SOL    HW221399   3.967   3.985   1.839
 6838SOL     OW21400   4.251   3.913   0.881
 6838SOL    HW121401   4.271   3.919   0.974
 6838SOL    HW221402   4.261   4.002   0.848
 6839SOL     OW21403   3.923   4.006   1.504
 6839SOL    HW121404   3.838   4.049   1.494
 6839SOL    HW221405   3.907   3.936   1.568
 6840SOL     OW21406   4.092   4.388   0.411
 6840SOL    HW121407   4.129   4.313   0.458
 6840SOL    HW221408   4.020   4.418   0.466
 6841SOL     OW21409   4.343   3.842   0.117
 6841SOL    HW121410   4.434   3.815   0.122
 6841SOL    HW221411   4.314   3.817   0.029
 6842SOL     OW21412   4.261   3.789   0.501
 6842SOL    HW121413   4.181   3.792   0.553
 6842SOL    HW221414   4.256   3.867   0.445
 6843SOL     OW21415   4.010   3.772   0.200
 6843SOL    HW121416   4.052   3.826   0.134
 6843SOL    HW221417   4.076   3.708   0.225
 6844SOL     OW21418   0.361   4.394   1.524
 6844SOL    HW121419   0.299   4.369   1.455
 6844SOL    HW221420   0.430   4.328   1.518
 6845SOL     OW21421   3.800   4.279   1.393
 6845SOL    HW121422   3.891   4.272   1.364
 6845SOL    HW221423   3.800   4.353   1.454
 6846SOL     OW21424   4.283   3.935   1.149
 6846SOL    HW121425   4.326   3.869   1.204
 6846SOL    HW221426   4.197   3.946   1.188
 6847SOL     OW21427   4.248   3.994   0.324
 6847SOL    HW121428   4.281   3.934   0.256
 6847SOL    HW221429   4.229   4.075   0.277
 6848SOL     OW21430   4.155   0.010   1.271
 6848SOL    HW121431   4.219   0.007   1.342
 6848SOL    HW221432   4.113   4.424   1.272
 6849SOL     OW21433   4.304   4.263   0.872
 6849SOL    HW121434   4.313   4.332   0.806
 6849SOL    HW221435   4.371   4.283   0.937
 6850SOL     OW21436   4.232   3.776   1.734
 6850SOL    HW121437   4.186   3.716   1.675
 6850SOL    HW221438   4.167   3.844   1.754
 6851SOL     OW21439   4.024   3.924   1.247
 6851SOL    HW121440   3.986   3.956   1.329
 6851SOL    HW221441   4.004   3.830   1.247
 6852SOL     OW21442   4.021   3.790   0.626
 6852SOL    HW121443   4.004   3.881   0.650
 6852SOL    HW221444   4.032   3.745   0.709
 6853SOL     OW21445   4.040   0.013   0.921
 6853SOL    HW121446   4.117   0.070   0.928
 6853SOL    HW221447   4.060   4.440   0.980
 6854SOL     OW21448   4.069   4.242   1.017
 6854SOL    HW121449   4.029   4.158   0.997
 6854SOL    HW221450   4.147   4.246   0.961
 6855SOL     OW21451   3.759   4.271   1.115
 6855SOL    HW121452   3.839   4.253   1.065
 6855SOL    HW221453   3.788   4.273   1.206
 6856SOL     OW21454   3.916   4.245   1.719
 6856SOL    HW121455   3.971   4.196   1.657
 6856SOL    HW221456   3.862   4.302   1.664
 6857SOL     OW21457   0.000   4.294   0.282
 6857SOL    HW121458   0.029   4.213   0.325
 6857SOL    HW221459   4.486   4.356   0.353
 6858SOL     OW21460   4.195   4.215   0.175
 6858SOL    HW121461   4.248   4.285   0.215
 6858SOL    HW221462   4.106   4.249   0.176
 6859SOL     OW21463   3.986   4.045   0.717
 6859SOL    HW121464   3.898   4.073   0.694
 6859SOL    HW221465   3.984   4.032   0.812
 6860SOL     OW21466   4.391   3.929   1.494
 6860SOL    HW121467   4.480   3.931   1.459
 6860SOL    HW221468   4.403   3.922   1.589
 6861SOL     OW21469   3.803   4.050   0.055
 6861SOL    HW121470   3.736   4.047  11.087
 6861SOL    HW221471   3.832   4.141   0.056
 6862SOL     OW21472   3.791   3.883   0.314
 6862SOL    HW121473   3.776   3.957   0.255
 6862SOL    HW221474   3.874   3.845   0.285
 6863SOL     OW21475   4.406   4.272   1.745
 6863SOL    HW121476   4.425   4.355   1.789
 6863SOL    HW221477   4.492   4.239   1.717
 6864SOL     OW21478   4.172   4.154   0.542
 6864SOL    HW121479   4.187   4.087   0.476
 6864SOL    HW221480   4.110   4.114   0.603
 6865SOL     OW21481   4.047   4.264   1.291
 6865SOL    HW121482   4.103   4.208   1.345
 6865SOL    HW221483   4.069   4.239   1.201
 6866SOL     OW21484   3.950   4.293   1.987
 6866SOL    HW121485   3.889   4.358   2.022
 6866SOL    HW221486   3.938   4.297   1.892
 6867SOL     OW21487   3.947   4.005   2.852
 6867SOL    HW121488   3.978   3.970   2.936
 6867SOL    HW221489   3.857   3.973   2.844
 6868SOL     OW21490   3.728   4.101   2.506
 6868SOL    HW121491   3.646   4.130   2.544
 6868SOL    HW221492   3.704   4.024   2.454
 6869SOL     OW21493   0.060   0.011   3.721
 6869SOL    HW121494   0.114   0.077   3.765
 6869SOL    HW221495   0.075   0.027   3.627
 6870SOL     OW21496   4.172   4.117   3.342
 6870SOL    HW121497   4.247   4.058   3.352
 6870SOL    HW221498   4.096   4.062   3.362
 6871SOL     OW21499   3.801   4.372   2.428
 6871SOL    HW121500   3.796   4.280   2.454
 6871SOL    HW221501   3.868   4.409   2.486
 6872SOL     OW21502   3.842   4.475   3.446
 6872SOL    HW121503   3.910   4.493   3.510
 6872SOL    HW221504   3.808   0.061   3.421
 6873SOL     OW21505   0.022   3.731   2.388
 6873SOL    HW121506   0.053   3.793   2.322
 6873SOL    HW221507   4.427   3.745   2.390
 6874SOL     OW21508   4.057   3.975   3.669
 6874SOL    HW121509   4.100   4.058   3.692
 6874SOL    HW221510   3.968   3.985   3.701
 6875SOL     OW21511   4.251   3.912   2.743
 6875SOL    HW121512   4.270   3.919   2.836
 6875SOL    HW221513   4.262   4.001   2.709
 6876SOL     OW21514   3.923   4.006   3.366
 6876SOL    HW121515   3.838   4.050   3.357
 6876SOL    HW221516   3.907   3.937   3.431
 6877SOL     OW21517   4.092   4.393   2.277
 6877SOL    HW121518   4.128   4.316   2.321
 6877SOL    HW221519   4.020   4.421   2.334
 6878SOL     OW21520   4.339   3.830   1.981
 6878SOL    HW121521   4.434   3.822   1.978
 6878SOL    HW221522   4.310   3.809   1.892
 6879SOL     OW21523   4.261   3.789   2.364
 6879SOL    HW121524   4.181   3.793   2.417
 6879SOL    HW221525   4.256   3.866   2.308
 6880SOL     OW21526   4.017   3.771   2.047
 6880SOL    HW121527   4.078   3.836   2.010
 6880SOL    HW221528   4.074   3.707   2.089
 6881SOL     OW21529   0.361   4.394   3.386
 6881SOL    HW121530   0.299   4.370   3.317
 6881SOL    HW221531   0.430   4.328   3.380
 6882SOL     OW21532   3.800   4.279   3.255
 6882SOL    HW121533   3.891   4.272   3.226
 6882SOL    HW221534   3.800   4.353   3.316
 6883SOL     OW21535   4.283   3.934   3.011
 6883SOL    HW121536   4.327   3.870   3.066
 6883SOL    HW221537   4.197   3.946   3.050
 6884SOL     OW21538   4.245   3.988   2.185
 6884SOL    HW121539   4.285   3.933   2.118
 6884SOL    HW221540   4.230   4.072   2.141
 6885SOL     OW21541   4.155   0.010   3.133
 6885SOL    HW121542   4.219   0.007   3.204
 6885SOL    HW221543   4.113   4.424   3.135
 6886SOL     OW21544   4.304   4.263   2.734
 6886SOL    HW121545   4.312   4.332   2.668
 6886SOL    HW221546   4.371   4.284   2.799
 6887SOL     OW21547   4.232   3.776   3.596
 6887SOL    HW121548   4.186   3.716   3.537
 6887SOL    HW221549   4.167   3.844   3.616
 6888SOL     OW21550   4.024   3.924   3.109
 6888SOL    HW121551   3.985   3.956   3.191
 6888SOL    HW221552   4.004   3.830   3.109
 6889SOL     OW21553   4.020   3.790   2.487
 6889SOL    HW121554   4.004   3.881   2.511
 6889SOL    HW221555   4.032   3.745   2.571
 6890SOL     OW21556   4.040   0.013   2.785
 6890SOL    HW121557   4.116   0.071   2.790
 6890SOL    HW221558   4.061   4.440   2.843
 6891SOL     OW21559   4.070   4.242   2.879
 6891SOL    HW121560   4.029   4.157   2.859
 6891SOL    HW221561   4.147   4.246   2.823
 6892SOL     OW21562   3.759   4.270   2.977
 6892SOL    HW121563   3.840   4.254   2.927
 6892SOL    HW221564   3.788   4.273   3.068
 6893SOL     OW21565   3.916   4.245   3.581
 6893SOL    HW121566   3.971   4.197   3.519
 6893SOL    HW221567   3.862   4.302   3.526
 6894SOL     OW21568   0.003   4.295   2.138
 6894SOL    HW121569   0.028   4.211   2.176
 6894SOL    HW221570   4.476   4.348   2.213
 6895SOL     OW21571   4.202   4.213   2.050
 6895SOL    HW121572   4.253   4.293   2.065
 6895SOL    HW221573   4.112   4.244   2.042
 6896SOL     OW21574   3.986   4.044   2.579
 6896SOL    HW121575   3.898   4.073   2.557
 6896SOL    HW221576   3.984   4.031   2.673
 6897SOL     OW21577   4.391   3.928   3.356
 6897SOL    HW121578   4.480   3.932   3.321
 6897SOL    HW221579   4.403   3.923   3.451
 6898SOL     OW21580   3.799   4.045   1.891
 6898SOL    HW121581   3.712   4.037   1.854
 6898SOL    HW221582   3.831   4.129   1.861
 6899SOL     OW21583   3.793   3.880   2.173
 6899SOL    HW121584   3.778   3.960   2.123
 6899SOL    HW221585   3.878   3.848   2.143
 6900SOL     OW21586   4.406   4.271   3.607
 6900SOL    HW121587   4.425   4.354   3.651
 6900SOL    HW221588   4.492   4.239   3.579
 6901SOL     OW21589   4.175   4.153   2.406
 6901SOL    HW121590   4.185   4.089   2.335
 6901SOL    HW221591   4.111   4.113   2.465
 6902SOL     OW21592   4.047   4.264   3.153
 6902SOL    HW121593   4.103   4.208   3.207
 6902SOL    HW221594   4.068   4.239   3.063
 6903SOL     OW21595   3.950   4.292   3.849
 6903SOL    HW121596   3.890   4.358   3.884
 6903SOL    HW221597   3.938   4.297   3.754
 6904SOL     OW21598   3.947   4.005   4.714
 6904SOL    HW121599   3.978   3.970   4.798
 6904SOL    HW221600   3.857   3.973   4.706
 6905SOL     OW21601   3.728   4.101   4.368
 6905SOL    HW121602   3.646   4.130   4.406
 6905SOL    HW221603   3.704   4.024   4.316
 6906SOL     OW21604   0.060   0.011   5.583
 6906SOL    HW121605   0.114   0.076   5.627
 6906SOL    HW221606   0.075   0.027   5.489
 6907SOL     OW21607   4.172   4.117   5.204
 6907SOL    HW121608   4.247   4.058   5.214
 6907SOL    HW221609   4.096   4.062   5.224
 6908SOL     OW21610   3.802   4.371   4.290
 6908SOL    HW121611   3.797   4.279   4.316
 6908SOL    HW221612   3.868   4.409   4.348
 6909SOL     OW21613   3.842   4.475   5.307
 6909SOL    HW121614   3.910   4.493   5.372
 6909SOL    HW221615   3.808   0.061   5.283
 6910SOL     OW21616   0.022   3.730   4.249
 6910SOL    HW121617   0.053   3.793   4.184
 6910SOL    HW221618   4.427   3.744   4.252
 6911SOL     OW21619   4.057   3.975   5.531
 6911SOL    HW121620   4.100   4.058   5.554
 6911SOL    HW221621   3.968   3.985   5.563
 6912SOL     OW21622   4.251   3.912   4.605
 6912SOL    HW121623   4.270   3.919   4.698
 6912SOL    HW221624   4.262   4.001   4.571
 6913SOL     OW21625   3.923   4.006   5.228
 6913SOL    HW121626   3.838   4.049   5.219
 6913SOL    HW221627   3.907   3.937   5.292
 6914SOL     OW21628   4.092   4.393   4.139
 6914SOL    HW121629   4.128   4.316   4.183
 6914SOL    HW221630   4.020   4.421   4.196
 6915SOL     OW21631   4.339   3.829   3.843
 6915SOL    HW121632   4.434   3.822   3.840
 6915SOL    HW221633   4.310   3.809   3.754
 6916SOL     OW21634   4.261   3.789   4.226
 6916SOL    HW121635   4.181   3.793   4.280
 6916SOL    HW221636   4.256   3.866   4.170
 6917SOL     OW21637   4.018   3.771   3.908
 6917SOL    HW121638   4.078   3.836   3.873
 6917SOL    HW221639   4.074   3.707   3.951
 6918SOL     OW21640   0.361   4.394   5.248
 6918SOL    HW121641   0.299   4.369   5.179
 6918SOL    HW221642   0.430   4.328   5.242
 6919SOL     OW21643   3.800   4.280   5.117
 6919SOL    HW121644   3.891   4.272   5.088
 6919SOL    HW221645   3.800   4.353   5.178
 6920SOL     OW21646   4.283   3.934   4.873
 6920SOL    HW121647   4.327   3.870   4.928
 6920SOL    HW221648   4.197   3.946   4.912
 6921SOL     OW21649   4.245   3.988   4.047
 6921SOL    HW121650   4.285   3.933   3.980
 6921SOL    HW221651   4.229   4.072   4.003
 6922SOL     OW21652   4.155   0.010   4.995
 6922SOL    HW121653   4.219   0.007   5.066
 6922SOL    HW221654   4.113   4.424   4.997
 6923SOL     OW21655   4.304   4.263   4.596
 6923SOL    HW121656   4.312   4.332   4.530
 6923SOL    HW221657   4.371   4.284   4.661
 6924SOL     OW21658   4.232   3.776   5.458
 6924SOL    HW121659   4.186   3.716   5.399
 6924SOL    HW221660   4.167   3.844   5.478
 6925SOL     OW21661   4.024   3.924   4.971
 6925SOL    HW121662   3.986   3.956   5.053
 6925SOL    HW221663   4.004   3.830   4.971
 6926SOL     OW21664   4.020   3.790   4.349
 6926SOL    HW121665   4.004   3.881   4.373
 6926SOL    HW221666   4.032   3.745   4.433
 6927SOL     OW21667   4.040   0.013   4.647
 6927SOL    HW121668   4.117   0.071   4.652
 6927SOL    HW221669   4.061   4.440   4.705
 6928SOL     OW21670   4.070   4.242   4.741
 6928SOL    HW121671   4.029   4.157   4.721
 6928SOL    HW221672   4.147   4.246   4.685
 6929SOL     OW21673   3.759   4.270   4.839
 6929SOL    HW121674   3.840   4.254   4.789
 6929SOL    HW221675   3.788   4.273   4.930
 6930SOL     OW21676   3.916   4.245   5.443
 6930SOL    HW121677   3.971   4.196   5.381
 6930SOL    HW221678   3.862   4.302   5.388
 6931SOL     OW21679   0.003   4.295   4.000
 6931SOL    HW121680   0.028   4.211   4.038
 6931SOL    HW221681   4.476   4.348   4.075
 6932SOL     OW21682   4.202   4.213   3.912
 6932SOL    HW121683   4.253   4.293   3.928
 6932SOL    HW221684   4.112   4.244   3.904
 6933SOL     OW21685   3.986   4.044   4.440
 6933SOL    HW121686   3.897   4.073   4.419
 6933SOL    HW221687   3.984   4.031   4.535
 6934SOL     OW21688   4.391   3.928   5.218
 6934SOL    HW121689   4.480   3.932   5.183
 6934SOL    HW221690   4.403   3.922   5.313
 6935SOL     OW21691   3.799   4.044   3.753
 6935SOL    HW121692   3.711   4.037   3.716
 6935SOL    HW221693   3.831   4.129   3.724
 6936SOL     OW21694   3.793   3.880   4.035
 6936SOL    HW121695   3.778   3.960   3.985
 6936SOL    HW221696   3.878   3.848   4.005
 6937SOL     OW21697   4.406   4.272   5.469
 6937SOL    HW121698   4.425   4.355   5.513
 6937SOL    HW221699   4.492   4.239   5.441
 6938SOL     OW21700   4.175   4.153   4.268
 6938SOL    HW121701   4.185   4.089   4.197
 6938SOL    HW221702   4.111   4.113   4.327
 6939SOL     OW21703   4.047   4.264   5.015
 6939SOL    HW121704   4.102   4.208   5.069
 6939SOL    HW221705   4.068   4.239   4.925
 6940SOL     OW21706   3.950   4.293   5.711
 6940SOL    HW121707   3.889   4.358   5.746
 6940SOL    HW221708   3.938   4.297   5.616
 6941SOL     OW21709   3.947   4.005   6.576
 6941SOL    HW121710   3.978   3.970   6.660
 6941SOL    HW221711   3.857   3.973   6.568
 6942SOL     OW21712   3.728   4.101   6.230
 6942SOL    HW121713   3.646   4.130   6.268
 6942SOL    HW221714   3.704   4.024   6.178
 6943SOL     OW21715   0.060   0.011   7.445
 6943SOL    HW121716   0.114   0.076   7.489
 6943SOL    HW221717   0.075   0.027   7.351
 6944SOL     OW21718   4.172   4.117   7.066
 6944SOL    HW121719   4.247   4.059   7.076
 6944SOL    HW221720   4.096   4.062   7.086
 6945SOL     OW21721   3.801   4.372   6.152
 6945SOL    HW121722   3.796   4.280   6.177
 6945SOL    HW221723   3.868   4.409   6.210
 6946SOL     OW21724   3.842   4.475   7.169
 6946SOL    HW121725   3.910   4.493   7.234
 6946SOL    HW221726   3.808   0.061   7.145
 6947SOL     OW21727   0.022   3.731   6.112
 6947SOL    HW121728   0.053   3.793   6.046
 6947SOL    HW221729   4.427   3.745   6.114
 6948SOL     OW21730   4.057   3.975   7.393
 6948SOL    HW121731   4.100   4.058   7.416
 6948SOL    HW221732   3.968   3.985   7.425
 6949SOL     OW21733   4.251   3.912   6.467
 6949SOL    HW121734   4.270   3.919   6.560
 6949SOL    HW221735   4.262   4.001   6.433
 6950SOL     OW21736   3.923   4.006   7.090
 6950SOL    HW121737   3.838   4.049   7.081
 6950SOL    HW221738   3.907   3.937   7.155
 6951SOL     OW21739   4.092   4.393   6.001
 6951SOL    HW121740   4.128   4.316   6.045
 6951SOL    HW221741   4.020   4.421   6.058
 6952SOL     OW21742   4.339   3.830   5.705
 6952SOL    HW121743   4.434   3.822   5.702
 6952SOL    HW221744   4.310   3.809   5.616
 6953SOL     OW21745   4.261   3.789   6.088
 6953SOL    HW121746   4.181   3.793   6.142
 6953SOL    HW221747   4.256   3.866   6.032
 6954SOL     OW21748   4.018   3.771   5.770
 6954SOL    HW121749   4.078   3.836   5.735
 6954SOL    HW221750   4.074   3.707   5.813
 6955SOL     OW21751   0.361   4.394   7.110
 6955SOL    HW121752   0.299   4.370   7.041
 6955SOL    HW221753   0.430   4.328   7.104
 6956SOL     OW21754   3.800   4.280   6.979
 6956SOL    HW121755   3.891   4.272   6.950
 6956SOL    HW221756   3.800   4.353   7.040
 6957SOL     OW21757   4.283   3.934   6.735
 6957SOL    HW121758   4.327   3.870   6.790
 6957SOL    HW221759   4.197   3.946   6.774
 6958SOL     OW21760   4.245   3.988   5.909
 6958SOL    HW121761   4.285   3.933   5.842
 6958SOL    HW221762   4.230   4.072   5.865
 6959SOL     OW21763   4.155   0.010   6.857
 6959SOL    HW121764   4.219   0.007   6.928
 6959SOL    HW221765   4.113   4.424   6.859
 6960SOL     OW21766   4.304   4.263   6.458
 6960SOL    HW121767   4.312   4.332   6.392
 6960SOL    HW221768   4.371   4.283   6.523
 6961SOL     OW21769   4.232   3.776   7.320
 6961SOL    HW121770   4.186   3.716   7.261
 6961SOL    HW221771   4.167   3.844   7.340
 6962SOL     OW21772   4.024   3.924   6.833
 6962SOL    HW121773   3.986   3.956   6.915
 6962SOL    HW221774   4.004   3.830   6.833
 6963SOL     OW21775   4.020   3.790   6.211
 6963SOL    HW121776   4.004   3.881   6.235
 6963SOL    HW221777   4.032   3.745   6.295
 6964SOL     OW21778   4.040   0.013   6.509
 6964SOL    HW121779   4.116   0.071   6.514
 6964SOL    HW221780   4.061   4.440   6.567
 6965SOL     OW21781   4.069   4.242   6.603
 6965SOL    HW121782   4.029   4.157   6.583
 6965SOL    HW221783   4.147   4.246   6.547
 6966SOL     OW21784   3.759   4.270   6.701
 6966SOL    HW121785   3.840   4.254   6.651
 6966SOL    HW221786   3.788   4.273   6.792
 6967SOL     OW21787   3.916   4.245   7.305
 6967SOL    HW121788   3.971   4.196   7.243
 6967SOL    HW221789   3.862   4.302   7.250
 6968SOL     OW21790   0.003   4.295   5.862
 6968SOL    HW121791   0.028   4.211   5.900
 6968SOL    HW221792   4.476   4.348   5.937
 6969SOL     OW21793   4.202   4.213   5.774
 6969SOL    HW121794   4.253   4.293   5.790
 6969SOL    HW221795   4.112   4.244   5.766
 6970SOL     OW21796   3.986   4.044   6.303
 6970SOL    HW121797   3.898   4.073   6.281
 6970SOL    HW221798   3.984   4.031   6.397
 6971SOL     OW21799   4.391   3.928   7.080
 6971SOL    HW121800   4.480   3.932   7.045
 6971SOL    HW221801   4.403   3.922   7.175
 6972SOL     OW21802   3.799   4.044   5.615
 6972SOL    HW121803   3.711   4.037   5.578
 6972SOL    HW221804   3.831   4.129   5.585
 6973SOL     OW21805   3.793   3.880   5.897
 6973SOL    HW121806   3.778   3.960   5.847
 6973SOL    HW221807   3.878   3.848   5.867
 6974SOL     OW21808   4.406   4.272   7.331
 6974SOL    HW121809   4.425   4.354   7.375
 6974SOL    HW221810   4.492   4.239   7.303
 6975SOL     OW21811   4.175   4.153   6.129
 6975SOL    HW121812   4.185   4.089   6.059
 6975SOL    HW221813   4.111   4.113   6.189
 6976SOL     OW21814   4.047   4.264   6.877
 6976SOL    HW121815   4.103   4.208   6.931
 6976SOL    HW221816   4.069   4.239   6.787
 6977SOL     OW21817   3.950   4.293   7.573
 6977SOL    HW121818   3.889   4.357   7.608
 6977SOL    HW221819   3.938   4.297   7.478
 6978SOL     OW21820   3.947   4.005   8.438
 6978SOL    HW121821   3.978   3.970   8.522
 6978SOL    HW221822   3.857   3.973   8.430
 6979SOL     OW21823   3.728   4.101   8.092
 6979SOL    HW121824   3.646   4.130   8.130
 6979SOL    HW221825   3.704   4.024   8.040
 6980SOL     OW21826   0.060   0.011   9.307
 6980SOL    HW121827   0.114   0.076   9.351
 6980SOL    HW221828   0.075   0.027   9.213
 6981SOL     OW21829   4.172   4.117   8.928
 6981SOL    HW121830   4.247   4.058   8.938
 6981SOL    HW221831   4.096   4.062   8.948
 6982SOL     OW21832   3.802   4.372   8.014
 6982SOL    HW121833   3.796   4.280   8.039
 6982SOL    HW221834   3.868   4.409   8.072
 6983SOL     OW21835   3.841   4.475   9.031
 6983SOL    HW121836   3.910   4.493   9.096
 6983SOL    HW221837   3.809   0.061   9.007
 6984SOL     OW21838   0.022   3.731   7.974
 6984SOL    HW121839   0.053   3.793   7.908
 6984SOL    HW221840   4.427   3.745   7.976
 6985SOL     OW21841   4.057   3.975   9.255
 6985SOL    HW121842   4.100   4.058   9.278
 6985SOL    HW221843   3.968   3.985   9.287
 6986SOL     OW21844   4.251   3.912   8.329
 6986SOL    HW121845   4.270   3.919   8.422
 6986SOL    HW221846   4.262   4.001   8.295
 6987SOL     OW21847   3.923   4.006   8.952
 6987SOL    HW121848   3.838   4.049   8.942
 6987SOL    HW221849   3.907   3.936   9.016
 6988SOL     OW21850   4.092   4.393   7.863
 6988SOL    HW121851   4.128   4.316   7.907
 6988SOL    HW221852   4.020   4.421   7.920
 6989SOL     OW21853   4.339   3.830   7.567
 6989SOL    HW121854   4.434   3.822   7.564
 6989SOL    HW221855   4.310   3.809   7.478
 6990SOL     OW21856   4.261   3.789   7.950
 6990SOL    HW121857   4.181   3.793   8.004
 6990SOL    HW221858   4.256   3.866   7.894
 6991SOL     OW21859   4.018   3.771   7.632
 6991SOL    HW121860   4.078   3.836   7.597
 6991SOL    HW221861   4.074   3.707   7.675
 6992SOL     OW21862   0.361   4.394   8.972
 6992SOL    HW121863   0.299   4.370   8.903
 6992SOL    HW221864   0.430   4.328   8.966
 6993SOL     OW21865   3.800   4.279   8.841
 6993SOL    HW121866   3.891   4.272   8.812
 6993SOL    HW221867   3.800   4.353   8.902
 6994SOL     OW21868   4.283   3.934   8.597
 6994SOL    HW121869   4.326   3.870   8.652
 6994SOL    HW221870   4.197   3.946   8.636
 6995SOL     OW21871   4.245   3.988   7.771
 6995SOL    HW121872   4.285   3.933   7.704
 6995SOL    HW221873   4.230   4.072   7.727
 6996SOL     OW21874   4.155   0.010   8.719
 6996SOL    HW121875   4.219   0.007   8.789
 6996SOL    HW221876   4.113   4.424   8.721
 6997SOL     OW21877   4.304   4.263   8.320
 6997SOL    HW121878   4.312   4.332   8.254
 6997SOL    HW221879   4.371   4.284   8.385
 6998SOL     OW21880   4.232   3.776   9.182
 6998SOL    HW121881   4.186   3.716   9.123
 6998SOL    HW221882   4.167   3.844   9.202
 6999SOL     OW21883   4.024   3.924   8.695
 6999SOL    HW121884   3.985   3.956   8.777
 6999SOL    HW221885   4.004   3.830   8.695
 7000SOL     OW21886   4.020   3.790   8.073
 7000SOL    HW121887   4.004   3.881   8.097
 7000SOL    HW221888   4.032   3.745   8.157
 7001SOL     OW21889   4.040   0.013   8.371
 7001SOL    HW121890   4.116   0.071   8.376
 7001SOL    HW221891   4.061   4.440   8.429
 7002SOL     OW21892   4.070   4.242   8.465
 7002SOL    HW121893   4.029   4.158   8.445
 7002SOL    HW221894   4.147   4.246   8.409
 7003SOL     OW21895   3.759   4.270   8.563
 7003SOL    HW121896   3.839   4.254   8.513
 7003SOL    HW221897   3.788   4.273   8.654
 7004SOL     OW21898   3.916   4.245   9.167
 7004SOL    HW121899   3.971   4.196   9.105
 7004SOL    HW221900   3.862   4.302   9.112
 7005SOL     OW21901   0.003   4.295   7.724
 7005SOL    HW121902   0.028   4.211   7.762
 7005SOL    HW221903   4.476   4.348   7.799
 7006SOL     OW21904   4.202   4.213   7.636
 7006SOL    HW121905   4.253   4.293   7.652
 7006SOL    HW221906   4.112   4.244   7.628
 7007SOL     OW21907   3.986   4.044   8.165
 7007SOL    HW121908   3.897   4.073   8.143
 7007SOL    HW221909   3.984   4.031   8.259
 7008SOL     OW21910   4.391   3.928   8.942
 7008SOL    HW121911   4.480   3.932   8.907
 7008SOL    HW221912   4.403   3.922   9.037
 7009SOL     OW21913   3.799   4.044   7.477
 7009SOL    HW121914   3.711   4.037   7.440
 7009SOL    HW221915   3.831   4.129   7.447
 7010SOL     OW21916   3.793   3.880   7.759
 7010SOL    HW121917   3.778   3.960   7.709
 7010SOL    HW221918   3.878   3.848   7.728
 7011SOL     OW21919   4.406   4.272   9.193
 7011SOL    HW121920   4.425   4.355   9.237
 7011SOL    HW221921   4.492   4.239   9.165
 7012SOL     OW21922   4.175   4.153   7.992
 7012SOL    HW121923   4.185   4.089   7.921
 7012SOL    HW221924   4.111   4.113   8.051
 7013SOL     OW21925   4.047   4.264   8.739
 7013SOL    HW121926   4.103   4.208   8.793
 7013SOL    HW221927   4.068   4.239   8.649
 7014SOL     OW21928   3.950   4.293   9.435
 7014SOL    HW121929   3.889   4.358   9.470
 7014SOL    HW221930   3.938   4.297   9.340
 7015SOL     OW21931   3.947   4.005  10.300
 7015SOL    HW121932   3.978   3.971  10.384
 7015SOL    HW221933   3.857   3.973  10.292
 7016SOL     OW21934   3.728   4.101   9.954
 7016SOL    HW121935   3.646   4.130   9.992
 7016SOL    HW221936   3.705   4.024   9.902
 7017SOL     OW21937   4.179   4.122  10.797
 7017SOL    HW121938   4.246   4.054  10.799
 7017SOL    HW221939   4.098   4.076  10.818
 7018SOL     OW21940   3.801   4.372   9.877
 7018SOL    HW121941   3.796   4.280   9.901
 7018SOL    HW221942   3.868   4.409   9.934
 7019SOL     OW21943   3.852   4.458  10.906
 7019SOL    HW121944   3.947   4.466  10.912
 7019SOL    HW221945   3.821   0.048  10.895
 7020SOL     OW21946   0.022   3.731   9.836
 7020SOL    HW121947   0.053   3.793   9.770
 7020SOL    HW221948   4.427   3.744   9.838
 7021SOL     OW21949   4.066   3.979   0.015
 7021SOL    HW121950   4.110   4.060   0.042
 7021SOL    HW221951   3.973   3.995   0.031
 7022SOL     OW21952   4.251   3.913  10.192
 7022SOL    HW121953   4.271   3.921  10.285
 7022SOL    HW221954   4.262   4.001  10.157
 7023SOL     OW21955   3.927   4.005  10.807
 7023SOL    HW121956   3.846   4.056  10.806
 7023SOL    HW221957   3.915   3.942  10.878
 7024SOL     OW21958   4.092   4.393   9.725
 7024SOL    HW121959   4.128   4.316   9.769
 7024SOL    HW221960   4.020   4.421   9.783
 7025SOL     OW21961   4.339   3.830   9.429
 7025SOL    HW121962   4.434   3.822   9.426
 7025SOL    HW221963   4.310   3.809   9.340
 7026SOL     OW21964   4.261   3.789   9.812
 7026SOL    HW121965   4.181   3.793   9.865
 7026SOL    HW221966   4.256   3.866   9.756
 7027SOL     OW21967   4.018   3.772   9.495
 7027SOL    HW121968   4.078   3.836   9.458
 7027SOL    HW221969   4.074   3.707   9.537
 7028SOL     OW21970   0.326   4.396  10.802
 7028SOL    HW121971   0.238   4.358  10.802
 7028SOL    HW221972   0.383   4.325  10.772
 7029SOL     OW21973   3.798   4.280  10.705
 7029SOL    HW121974   3.890   4.272  10.677
 7029SOL    HW221975   3.801   4.340  10.779
 7030SOL     OW21976   4.284   3.936  10.460
 7030SOL    HW121977   4.324   3.864  10.510
 7030SOL    HW221978   4.196   3.946  10.498
 7031SOL     OW21979   4.245   3.988   9.633
 7031SOL    HW121980   4.285   3.933   9.566
 7031SOL    HW221981   4.230   4.072   9.589
 7032SOL     OW21982   4.154   0.008  10.575
 7032SOL    HW121983   4.222   0.003  10.642
 7032SOL    HW221984   4.109   4.424  10.580
 7033SOL     OW21985   4.304   4.263  10.182
 7033SOL    HW121986   4.313   4.332  10.116
 7033SOL    HW221987   4.372   4.282  10.247
 7034SOL     OW21988   4.125   4.463  10.913
 7034SOL    HW121989   4.190   0.027  10.884
 7034SOL    HW221990   4.171   4.379  10.908
 7035SOL     OW21991   4.025   3.924  10.556
 7035SOL    HW121992   3.988   3.957  10.638
 7035SOL    HW221993   4.005   3.831  10.557
 7036SOL     OW21994   4.020   3.790   9.935
 7036SOL    HW121995   4.004   3.881   9.959
 7036SOL    HW221996   4.032   3.745  10.019
 7037SOL     OW21997   4.040   0.014  10.233
 7037SOL    HW121998   4.116   0.071  10.239
 7037SOL    HW221999   4.061   4.440  10.291
 7038SOL     OW22000   4.069   4.242  10.328
 7038SOL    HW122001   4.029   4.158  10.307
 7038SOL    HW222002   4.147   4.246  10.271
 7039SOL     OW22003   3.760   4.272  10.426
 7039SOL    HW122004   3.840   4.255  10.377
 7039SOL    HW222005   3.787   4.275  10.518
 7040SOL     OW22006   0.003   4.295   9.586
 7040SOL    HW122007   0.028   4.211   9.624
 7040SOL    HW222008   4.477   4.348   9.661
 7041SOL     OW22009   4.202   4.213   9.498
 7041SOL    HW122010   4.253   4.293   9.514
 7041SOL    HW222011   4.112   4.244   9.490
 7042SOL     OW22012   3.986   4.044  10.027
 7042SOL    HW122013   3.898   4.073  10.005
 7042SOL    HW222014   3.984   4.031  10.121
 7043SOL     OW22015   4.397   3.928  10.810
 7043SOL    HW122016   4.475   3.935  10.755
 7043SOL    HW222017   4.429   3.941  10.899
 7044SOL     OW22018   3.799   4.045   9.339
 7044SOL    HW122019   3.712   4.037   9.302
 7044SOL    HW222020   3.831   4.129   9.309
 7045SOL     OW22021   3.793   3.880   9.621
 7045SOL    HW122022   3.778   3.960   9.570
 7045SOL    HW222023   3.878   3.848   9.591
 7046SOL     OW22024   4.174   4.153   9.853
 7046SOL    HW122025   4.185   4.089   9.783
 7046SOL    HW222026   4.111   4.113   9.913
 7047SOL     OW22027   4.047   4.262  10.601
 7047SOL    HW122028   4.103   4.206  10.655
 7047SOL    HW222029   4.068   4.237  10.511
   4.50000   4.50000  11.10000
