2gCDOH_1PEG_l8
22140
    1LIG      O    1   2.771   2.595   8.078
    1LIG      C    2   2.754   2.628   0.135
    1LIG     C1    3   2.621   2.566   0.186
    1LIG     O1    4   2.561   2.655   0.280
    1LIG     C2    5   2.589   2.616   0.413
    1LIG     C3    6   2.736   2.654   0.447
    1LIG     O2    7   2.768   2.608   0.576
    1LIG     C4    8   2.710   2.693   0.673
    1LIG     C5    9   2.580   2.627   0.726
    1LIG     O3   10   2.540   2.697   0.841
    1LIG     C6   11   2.590   2.641   0.961
    1LIG     C7   12   2.737   2.684   0.993
    1LIG     O4   13   2.784   2.626   1.115
    1LIG     C8   14   2.726   2.686   1.229
    1LIG     C9   15   2.600   2.602   1.267
    1LIG     O5   16   2.521   2.663   1.367
    1LIG    C10   17   2.580   2.631   1.491
    1LIG    C11   18   2.685   2.738   1.527
    1LIG     O6   19   2.640   2.791   1.648
    1LIG    C12   20   2.685   2.715   1.758
    1LIG    C13   21   2.599   2.589   1.792
    1LIG     O7   22   2.660   2.526   1.905
    1LIG    C14   23   2.622   2.588   2.027
    1LIG    C15   24   2.717   2.706   2.069
    1LIG     O8   25   2.647   2.792   2.157
    1LIG    C16   26   2.668   2.749   2.289
    1LIG    C17   27   2.556   2.648   2.327
    1LIG     O9   28   2.609   2.551   2.416
    1LIG    C18   29   2.585   2.593   2.550
    1LIG    C19   30   2.686   2.704   2.590
    1LIG    O10   31   2.648   2.762   2.710
    1LIG    C20   32   2.712   2.703   2.819
    1LIG    C21   33   2.612   2.602   2.875
    1LIG    O11   34   2.670   2.543   2.987
    1LIG    C22   35   2.627   2.604   3.104
    1LIG    C23   36   2.708   2.733   3.143
    1LIG    O12   37   2.643   2.800   3.252
    1LIG    C24   38   2.688   2.752   3.378
    1LIG    C25   39   2.605   2.624   3.408
    1LIG    O13   40   2.642   2.551   3.522
    1LIG    C26   41   2.592   2.611   3.637
    1LIG    C27   42   2.708   2.696   3.689
    1LIG    O14   43   2.772   2.623   3.791
    1LIG    C28   44   2.725   2.659   3.919
    1LIG    C29   45   2.611   2.563   3.957
    1LIG    O15   46   2.638   2.519   4.088
    1LIG    C30   47   2.568   2.599   4.182
    1LIG    C31   48   2.664   2.710   4.237
    1LIG    O16   49   2.597   2.790   4.335
    1LIG    C32   50   2.637   2.749   4.467
    1LIG    C33   51   2.573   2.612   4.499
    1LIG    O17   52   2.648   2.538   4.593
    1LIG    C34   53   2.633   2.595   4.719
    1LIG    C35   54   2.754   2.684   4.748
    1LIG    O18   55   2.805   2.649   4.875
    1LIG    C36   56   2.729   2.708   4.981
    1LIG    C37   57   2.592   2.632   5.004
    1LIG    O19   58   2.516   2.675   5.116
    1LIG    C38   59   2.577   2.626   5.235
    1LIG    C39   60   2.687   2.725   5.276
    1LIG    O20   61   2.648   2.782   5.395
    1LIG    C40   62   2.697   2.707   5.503
    1LIG    C41   63   2.604   2.588   5.540
    1LIG    O21   64   2.658   2.528   5.657
    1LIG    C42   65   2.613   2.594   5.774
    1LIG    C43   66   2.706   2.714   5.817
    1LIG    O22   67   2.641   2.789   5.916
    1LIG    C44   68   2.676   2.740   6.043
    1LIG    C45   69   2.567   2.638   6.086
    1LIG    O23   70   2.624   2.547   6.178
    1LIG    C46   71   2.596   2.591   6.310
    1LIG    C47   72   2.688   2.709   6.348
    1LIG    O24   73   2.649   2.759   6.472
    1LIG    C48   74   2.713   2.694   6.578
    1LIG    C49   75   2.613   2.591   6.636
    1LIG    O25   76   2.668   2.530   6.752
    1LIG    C50   77   2.624   2.596   6.870
    1LIG    C51   78   2.705   2.728   6.898
    1LIG    O26   79   2.646   2.799   7.006
    1LIG    C52   80   2.681   2.743   7.131
    1LIG    C53   81   2.580   2.630   7.164
    1LIG    O27   82   2.523   2.657   7.289
    1LIG    C54   83   2.592   2.590   7.393
    1LIG    C55   84   2.722   2.669   7.437
    1LIG    O28   85   2.784   2.607   7.551
    1LIG    C56   86   2.740   2.661   7.676
    1LIG    C57   87   2.599   2.603   7.710
    1LIG    O29   88   2.540   2.664   7.822
    1LIG    C58   89   2.570   2.596   7.941
    1LIG    C59   90   2.686   2.678   8.000
    1LIG      H   91   2.750   2.738   0.148
    1LIG     H1   92   2.840   2.591   0.190
    1LIG     H2   93   2.639   2.467   0.230
    1LIG     H3   94   2.548   2.552   0.107
    1LIG     H4   95   2.572   2.509   0.427
    1LIG     H5   96   2.519   2.673   0.474
    1LIG     H6   97   2.750   2.763   0.440
    1LIG     H7   98   2.807   2.607   0.379
    1LIG     H8   99   2.689   2.793   0.635
    1LIG     H9  100   2.786   2.707   0.749
    1LIG    H10  101   2.594   2.520   0.746
    1LIG    H11  102   2.497   2.636   0.656
    1LIG    H12  103   2.582   2.531   0.959
    1LIG    H13  104   2.520   2.681   1.034
    1LIG    H14  105   2.746   2.793   0.997
    1LIG    H15  106   2.807   2.645   0.919
    1LIG    H16  107   2.703   2.792   1.212
    1LIG    H17  108   2.800   2.680   1.309
    1LIG    H18  109   2.635   2.504   1.298
    1LIG    H19  110   2.531   2.581   1.186
    1LIG    H20  111   2.625   2.531   1.492
    1LIG    H21  112   2.500   2.631   1.565
    1LIG    H22  113   2.690   2.819   1.454
    1LIG    H23  114   2.785   2.694   1.539
    1LIG    H24  115   2.671   2.788   1.835
    1LIG    H25  116   2.791   2.687   1.749
    1LIG    H26  117   2.599   2.515   1.711
    1LIG    H27  118   2.495   2.616   1.813
    1LIG    H28  119   2.628   2.511   2.104
    1LIG    H29  120   2.517   2.619   2.023
    1LIG    H30  121   2.749   2.772   1.991
    1LIG    H31  122   2.810   2.667   2.110
    1LIG    H32  123   2.665   2.839   2.350
    1LIG    H33  124   2.767   2.702   2.301
    1LIG    H34  125   2.516   2.593   2.242
    1LIG    H35  126   2.471   2.702   2.370
    1LIG    H36  127   2.596   2.505   2.614
    1LIG    H37  128   2.482   2.629   2.560
    1LIG    H38  129   2.684   2.789   2.524
    1LIG    H39  130   2.789   2.666   2.592
    1LIG    H40  131   2.737   2.784   2.885
    1LIG    H41  132   2.806   2.653   2.792
    1LIG    H42  133   2.595   2.521   2.805
    1LIG    H43  134   2.516   2.648   2.898
    1LIG    H44  135   2.645   2.521   3.170
    1LIG    H45  136   2.519   2.625   3.102
    1LIG    H46  137   2.708   2.806   3.063
    1LIG    H47  138   2.812   2.708   3.166
    1LIG    H48  139   2.665   2.830   3.453
    1LIG    H49  140   2.796   2.736   3.378
    1LIG    H50  141   2.615   2.546   3.336
    1LIG    H51  142   2.502   2.653   3.406
    1LIG    H52  143   2.562   2.530   3.705
    1LIG    H53  144   2.507   2.676   3.618
    1LIG    H54  145   2.671   2.793   3.723
    1LIG    H55  146   2.783   2.714   3.611
    1LIG    H56  147   2.691   2.764   3.922
    1LIG    H57  148   2.808   2.650   3.987
    1LIG    H58  149   2.607   2.475   3.893
    1LIG    H59  150   2.515   2.614   3.950
    1LIG    H60  151   2.531   2.525   4.251
    1LIG    H61  152   2.478   2.645   4.141
    1LIG    H62  153   2.698   2.775   4.155
    1LIG    H63  154   2.755   2.667   4.279
    1LIG    H64  155   2.607   2.824   4.541
    1LIG    H65  156   2.746   2.738   4.474
    1LIG    H66  157   2.577   2.544   4.418
    1LIG    H67  158   2.468   2.627   4.527
    1LIG    H68  159   2.624   2.511   4.790
    1LIG    H69  160   2.540   2.654   4.725
    1LIG    H70  161   2.725   2.789   4.746
    1LIG    H71  162   2.832   2.667   4.673
    1LIG    H72  163   2.711   2.815   4.962
    1LIG    H73  164   2.794   2.700   5.068
    1LIG    H74  165   2.613   2.526   5.013
    1LIG    H75  166   2.523   2.646   4.921
    1LIG    H76  167   2.618   2.525   5.222
    1LIG    H77  168   2.500   2.621   5.312
    1LIG    H78  169   2.697   2.808   5.205
    1LIG    H79  170   2.784   2.675   5.285
    1LIG    H80  171   2.697   2.784   5.576
    1LIG    H81  172   2.800   2.673   5.488
    1LIG    H82  173   2.605   2.512   5.461
    1LIG    H83  174   2.501   2.621   5.555
    1LIG    H84  175   2.618   2.518   5.851
    1LIG    H85  176   2.508   2.625   5.766
    1LIG    H86  177   2.723   2.791   5.746
    1LIG    H87  178   2.805   2.678   5.846
    1LIG    H88  179   2.681   2.829   6.106
    1LIG    H89  180   2.776   2.694   6.043
    1LIG    H90  181   2.529   2.578   6.004
    1LIG    H91  182   2.480   2.691   6.127
    1LIG    H92  183   2.614   2.506   6.375
    1LIG    H93  184   2.490   2.620   6.319
    1LIG    H94  185   2.678   2.794   6.283
    1LIG    H95  186   2.794   2.678   6.348
    1LIG    H96  187   2.743   2.773   6.645
    1LIG    H97  188   2.806   2.644   6.547
    1LIG    H98  189   2.597   2.511   6.565
    1LIG    H99  190   2.515   2.636   6.656
    1LIG   H100  191   2.639   2.525   6.952
    1LIG   H101  192   2.517   2.618   6.864
    1LIG   H102  193   2.698   2.798   6.816
    1LIG   H103  194   2.810   2.705   6.917
    1LIG   H104  195   2.674   2.822   7.206
    1LIG   H105  196   2.783   2.705   7.129
    1LIG   H106  197   2.629   2.532   7.162
    1LIG   H107  198   2.498   2.628   7.091
    1LIG   H108  199   2.616   2.487   7.367
    1LIG   H109  200   2.515   2.583   7.468
    1LIG   H110  201   2.700   2.775   7.458
    1LIG   H111  202   2.795   2.667   7.355
    1LIG   H112  203   2.735   2.771   7.672
    1LIG   H113  204   2.812   2.634   7.754
    1LIG   H114  205   2.603   2.493   7.717
    1LIG   H115  206   2.528   2.631   7.635
    1LIG   H116  207   2.599   2.492   7.923
    1LIG   H117  208   2.482   2.597   8.006
    1LIG   H118  209   2.747   2.725   7.922
    1LIG   H119  210   2.643   2.761   8.057
    2MOL     C1  211   1.967   2.853   3.533
    2MOL     H1  212   1.862   2.823   3.542
    2MOL     O1  213   2.009   2.913   3.657
    2MOL     C2  214   2.144   2.967   3.663
    2MOL     H2  215   2.216   2.884   3.657
    2MOL     C3  216   2.160   3.039   3.801
    2MOL     H3  217   2.267   3.048   3.825
    2MOL     H4  218   2.115   2.975   3.878
    2MOL     O2  219   2.099   3.169   3.803
    2MOL     H5  220   2.041   3.176   3.882
    2MOL     C4  221   1.981   2.957   3.419
    2MOL     H6  222   1.918   3.044   3.443
    2MOL     O3  223   1.941   2.900   3.295
    2MOL     H7  224   1.967   2.805   3.301
    2MOL     C5  225   2.127   3.004   3.408
    2MOL     H8  226   2.191   2.916   3.389
    2MOL     O4  227   2.143   3.099   3.300
    2MOL     H9  228   2.139   3.049   3.216
    2MOL     C6  229   2.166   3.064   3.544
    2MOL    H10  230   2.104   3.153   3.558
    2MOL     O5  231   2.306   3.099   3.537
    2MOL     C7  232   2.339   3.225   3.599
    2MOL    H11  233   2.252   3.269   3.649
    2MOL     O6  234   2.441   3.201   3.699
    2MOL     C8  235   2.565   3.150   3.647
    2MOL    H12  236   2.548   3.057   3.593
    2MOL     C9  237   2.663   3.120   3.764
    2MOL    H13  238   2.740   3.051   3.729
    2MOL    H14  239   2.607   3.066   3.841
    2MOL     O7  240   2.724   3.237   3.818
    2MOL    H15  241   2.790   3.269   3.752
    2MOL    C10  242   2.387   3.324   3.489
    2MOL    H16  243   2.398   3.423   3.535
    2MOL     O8  244   2.291   3.328   3.385
    2MOL    H17  245   2.251   3.238   3.384
    2MOL    C11  246   2.523   3.277   3.432
    2MOL    H18  247   2.505   3.179   3.385
    2MOL     O9  248   2.577   3.368   3.334
    2MOL    H19  249   2.515   3.444   3.319
    2MOL    C12  250   2.619   3.257   3.551
    2MOL    H20  251   2.628   3.351   3.606
    2MOL    O10  252   2.747   3.215   3.502
    2MOL    C13  253   2.854   3.309   3.524
    2MOL    H21  254   2.814   3.412   3.537
    2MOL    O11  255   2.930   3.267   3.640
    2MOL    C14  256   2.992   3.135   3.630
    2MOL    H22  257   2.915   3.059   3.614
    2MOL    C15  258   3.068   3.100   3.761
    2MOL    H23  259   3.089   2.993   3.760
    2MOL    H24  260   3.005   3.121   3.849
    2MOL    O12  261   3.196   3.162   3.772
    2MOL    H25  262   3.255   3.091   3.738
    2MOL    C16  263   2.943   3.309   3.399
    2MOL    H26  264   3.022   3.384   3.412
    2MOL    O13  265   2.866   3.339   3.284
    2MOL    H27  266   2.774   3.357   3.319
    2MOL    C17  267   3.008   3.171   3.380
    2MOL    H28  268   2.929   3.096   3.365
    2MOL    O14  269   3.091   3.176   3.264
    2MOL    H29  270   3.037   3.225   3.200
    2MOL    C18  271   3.085   3.134   3.507
    2MOL    H30  272   3.167   3.206   3.522
    2MOL    O15  273   3.136   3.001   3.491
    2MOL    C19  274   3.277   2.984   3.510
    2MOL    H31  275   3.330   3.080   3.521
    2MOL    O16  276   3.296   2.900   3.626
    2MOL    C20  277   3.237   2.767   3.616
    2MOL    H32  278   3.128   2.777   3.604
    2MOL    C21  279   3.263   2.694   3.750
    2MOL    H33  280   3.187   2.617   3.767
    2MOL    H34  281   3.254   2.768   3.831
    2MOL    O17  282   3.393   2.635   3.756
    2MOL    H35  283   3.381   2.540   3.733
    2MOL    C22  284   3.335   2.915   3.385
    2MOL    H36  285   3.442   2.901   3.403
    2MOL    O18  286   3.319   3.001   3.274
    2MOL    H37  287   3.223   2.998   3.249
    2MOL    C23  288   3.268   2.777   3.364
    2MOL    H38  289   3.159   2.791   3.355
    2MOL    O19  290   3.317   2.712   3.245
    2MOL    H39  291   3.298   2.775   3.172
    2MOL    C24  292   3.296   2.695   3.491
    2MOL    H40  293   3.405   2.687   3.504
    2MOL    O20  294   3.237   2.564   3.477
    2MOL    C25  295   3.330   2.453   3.483
    2MOL    H41  296   3.433   2.487   3.468
    2MOL    O21  297   3.317   2.389   3.611
    2MOL    C26  298   3.186   2.333   3.641
    2MOL    H42  299   3.113   2.415   3.642
    2MOL    C27  300   3.194   2.270   3.782
    2MOL    H43  301   3.093   2.239   3.813
    2MOL    H44  302   3.229   2.348   3.851
    2MOL    O22  303   3.283   2.158   3.789
    2MOL    H45  304   3.242   2.092   3.850
    2MOL    C28  305   3.298   2.352   3.371
    2MOL    H46  306   3.373   2.272   3.375
    2MOL    O23  307   3.302   2.418   3.246
    2MOL    H47  308   3.298   2.515   3.267
    2MOL    C29  309   3.159   2.287   3.391
    2MOL    H48  310   3.085   2.368   3.383
    2MOL    O24  311   3.134   2.188   3.290
    2MOL    H49  312   3.127   2.239   3.207
    2MOL    C30  313   3.143   2.230   3.533
    2MOL    H50  314   3.205   2.140   3.541
    2MOL    O25  315   3.003   2.196   3.548
    2MOL    C31  316   2.972   2.070   3.613
    2MOL    H51  317   3.061   2.028   3.661
    2MOL    O26  318   2.871   2.093   3.715
    2MOL    C32  319   2.744   2.146   3.667
    2MOL    H52  320   2.762   2.241   3.614
    2MOL    C33  321   2.650   2.177   3.788
    2MOL    H53  322   2.577   2.253   3.757
    2MOL    H54  323   2.710   2.222   3.868
    2MOL    O27  324   2.579   2.063   3.837
    2MOL    H55  325   2.501   2.051   3.778
    2MOL    C34  326   2.918   1.970   3.507
    2MOL    H56  327   2.903   1.873   3.557
    2MOL    O28  328   3.011   1.957   3.402
    2MOL    H57  329   3.039   2.049   3.378
    2MOL    C35  330   2.782   2.017   3.449
    2MOL    H58  331   2.800   2.113   3.399
    2MOL    O29  332   2.730   1.920   3.355
    2MOL    H59  333   2.805   1.900   3.294
    2MOL    C36  334   2.685   2.044   3.567
    2MOL    H60  335   2.666   1.950   3.621
    2MOL    O30  336   2.563   2.097   3.510
    2MOL    C37  337   2.455   2.002   3.500
    2MOL    H61  338   2.494   1.899   3.507
    2MOL    O31  339   2.364   2.027   3.609
    2MOL    C38  340   2.300   2.158   3.607
    2MOL    H62  341   2.376   2.237   3.616
    2MOL    C39  342   2.204   2.168   3.728
    2MOL    H63  343   2.120   2.098   3.714
    2MOL    H64  344   2.163   2.269   3.734
    2MOL    O32  345   2.272   2.136   3.847
    2MOL    H65  346   2.291   2.224   3.891
    2MOL    C40  347   2.383   2.018   3.364
    2MOL    H66  348   2.306   1.941   3.358
    2MOL    O33  349   2.476   2.001   3.256
    2MOL    H67  350   2.564   1.989   3.299
    2MOL    C41  351   2.314   2.155   3.353
    2MOL    H68  352   2.391   2.233   3.354
    2MOL    O34  353   2.239   2.160   3.231
    2MOL    H69  354   2.277   2.086   3.179
    2MOL    C42  355   2.222   2.175   3.475
    2MOL    H70  356   2.142   2.100   3.472
    2MOL    O35  357   2.169   2.310   3.469
    2MOL    C43  358   2.025   2.319   3.478
    2MOL    H71  359   1.979   2.220   3.477
    2MOL    O36  360   1.988   2.386   3.602
    2MOL    C44  361   2.036   2.522   3.618
    2MOL    H72  362   2.145   2.518   3.622
    2MOL    C45  363   1.994   2.578   3.756
    2MOL    H73  364   1.885   2.570   3.766
    2MOL    H74  365   2.018   2.685   3.760
    2MOL    O37  366   2.059   2.512   3.866
    2MOL    H75  367   1.987   2.501   3.932
    2MOL    C46  368   1.972   2.400   3.357
    2MOL    H76  369   1.863   2.403   3.364
    2MOL    O38  370   2.012   2.337   3.235
    2MOL    H77  371   2.093   2.283   3.256
    2MOL    C47  372   2.021   2.546   3.361
    2MOL    H78  373   2.130   2.543   3.350
    2MOL    O39  374   1.965   2.621   3.253
    2MOL    H79  375   1.971   2.566   3.173
    2MOL    C48  376   1.986   2.609   3.498
    2MOL    H80  377   1.877   2.619   3.505
    2MOL    O40  378   2.050   2.739   3.503
    3MOL     C1  379   3.336   2.840   4.547
    3MOL     H1  380   3.440   2.806   4.540
    3MOL     O1  381   3.300   2.906   4.424
    3MOL     C2  382   3.167   2.961   4.416
    3MOL     H2  383   3.096   2.879   4.423
    3MOL     C3  384   3.155   3.030   4.277
    3MOL     H3  385   3.050   3.058   4.258
    3MOL     H4  386   3.183   2.957   4.199
    3MOL     O2  387   3.238   3.146   4.269
    3MOL     H5  388   3.209   3.202   4.195
    3MOL     C4  389   3.323   2.941   4.663
    3MOL     H6  390   3.392   3.025   4.643
    3MOL     O3  391   3.360   2.881   4.786
    3MOL     H7  392   3.319   2.789   4.783
    3MOL     C5  393   3.179   2.996   4.670
    3MOL     H8  394   3.111   2.912   4.688
    3MOL     O4  395   3.167   3.092   4.777
    3MOL     H9  396   3.229   3.064   4.848
    3MOL     C6  397   3.143   3.060   4.534
    3MOL    H10  398   3.207   3.148   4.520
    3MOL     O5  399   3.003   3.100   4.544
    3MOL     C7  400   2.971   3.230   4.487
    3MOL    H11  401   3.060   3.275   4.442
    3MOL     O6  402   2.873   3.212   4.383
    3MOL     C8  403   2.739   3.172   4.425
    3MOL    H12  404   2.743   3.075   4.475
    3MOL     C9  405   2.653   3.161   4.299
    3MOL    H13  406   2.568   3.094   4.318
    3MOL    H14  407   2.715   3.116   4.220
    3MOL     O7  408   2.606   3.290   4.258
    3MOL    H15  409   2.512   3.294   4.285
    3MOL    C10  410   2.914   3.327   4.595
    3MOL    H16  411   2.907   3.427   4.549
    3MOL     O8  412   2.998   3.332   4.707
    3MOL    H17  413   3.064   3.261   4.693
    3MOL    C11  414   2.776   3.286   4.645
    3MOL    H18  415   2.785   3.186   4.688
    3MOL     O9  416   2.728   3.378   4.745
    3MOL    H19  417   2.808   3.392   4.801
    3MOL    C12  418   2.683   3.276   4.524
    3MOL    H20  419   2.677   3.375   4.477
    3MOL    O10  420   2.556   3.232   4.572
    3MOL    C13  421   2.443   3.313   4.536
    3MOL    H21  422   2.474   3.415   4.507
    3MOL    O11  423   2.372   3.250   4.425
    3MOL    C14  424   2.317   3.117   4.451
    3MOL    H22  425   2.399   3.050   4.482
    3MOL    C15  426   2.256   3.057   4.320
    3MOL    H23  427   2.278   2.949   4.317
    3MOL    H24  428   2.307   3.102   4.234
    3MOL    O12  429   2.114   3.075   4.306
    3MOL    H25  430   2.072   3.015   4.373
    3MOL    C16  431   2.352   3.323   4.660
    3MOL    H26  432   2.271   3.394   4.641
    3MOL    O13  433   2.433   3.368   4.768
    3MOL    H27  434   2.525   3.360   4.733
    3MOL    C17  435   2.292   3.185   4.694
    3MOL    H28  436   2.375   3.116   4.713
    3MOL    O14  437   2.211   3.192   4.813
    3MOL    H29  438   2.277   3.195   4.885
    3MOL    C18  439   2.218   3.130   4.571
    3MOL    H30  440   2.136   3.198   4.543
    3MOL    O15  441   2.168   2.999   4.606
    3MOL    C19  442   2.025   2.982   4.598
    3MOL    H31  443   1.973   3.079   4.596
    3MOL    O16  444   1.997   2.905   4.478
    3MOL    C20  445   2.059   2.773   4.475
    3MOL    H32  446   2.168   2.784   4.490
    3MOL    C21  447   2.038   2.706   4.336
    3MOL    H33  448   2.120   2.635   4.318
    3MOL    H34  449   2.046   2.783   4.258
    3MOL    O17  450   1.913   2.637   4.325
    3MOL    H35  451   1.931   2.548   4.363
    3MOL    C22  452   1.977   2.906   4.725
    3MOL    H36  453   1.867   2.903   4.724
    3MOL    O18  454   2.023   2.974   4.842
    3MOL    H37  455   2.090   3.038   4.808
    3MOL    C23  456   2.031   2.761   4.728
    3MOL    H38  457   2.140   2.766   4.740
    3MOL    O19  458   1.973   2.688   4.838
    3MOL    H39  459   1.986   2.747   4.916
    3MOL    C24  460   2.000   2.693   4.594
    3MOL    H40  461   1.891   2.688   4.582
    3MOL    O20  462   2.058   2.562   4.598
    3MOL    C25  463   1.968   2.453   4.571
    3MOL    H41  464   1.863   2.486   4.573
    3MOL    O21  465   2.002   2.400   4.441
    3MOL    C26  466   2.134   2.342   4.426
    3MOL    H42  467   2.209   2.421   4.438
    3MOL    C27  468   2.149   2.284   4.281
    3MOL    H43  469   2.255   2.285   4.254
    3MOL    H44  470   2.097   2.351   4.211
    3MOL    O22  471   2.098   2.150   4.267
    3MOL    H45  472   2.032   2.148   4.195
    3MOL    C28  473   1.984   2.346   4.682
    3MOL    H46  474   1.914   2.264   4.662
    3MOL    O23  475   1.957   2.406   4.809
    3MOL    H47  476   1.990   2.498   4.801
    3MOL    C29  477   2.128   2.292   4.678
    3MOL    H48  478   2.192   2.378   4.697
    3MOL    O24  479   2.153   2.191   4.778
    3MOL    H49  480   2.084   2.197   4.848
    3MOL    C30  481   2.157   2.235   4.537
    3MOL    H50  482   2.091   2.150   4.521
    3MOL    O25  483   2.296   2.195   4.538
    3MOL    C31  484   2.328   2.074   4.469
    3MOL    H51  485   2.238   2.033   4.420
    3MOL    O26  486   2.427   2.106   4.368
    3MOL    C32  487   2.556   2.153   4.415
    3MOL    H52  488   2.542   2.247   4.471
    3MOL    C33  489   2.649   2.182   4.294
    3MOL    H53  490   2.732   2.245   4.328
    3MOL    H54  491   2.594   2.239   4.219
    3MOL    O27  492   2.703   2.062   4.236
    3MOL    H55  493   2.800   2.076   4.235
    3MOL    C34  494   2.383   1.970   4.569
    3MOL    H56  495   2.398   1.875   4.517
    3MOL    O28  496   2.288   1.952   4.674
    3MOL    H57  497   2.263   2.044   4.701
    3MOL    C35  498   2.518   2.016   4.628
    3MOL    H58  499   2.501   2.110   4.681
    3MOL    O29  500   2.571   1.917   4.717
    3MOL    H59  501   2.494   1.882   4.767
    3MOL    C36  502   2.613   2.046   4.510
    3MOL    H60  503   2.630   1.954   4.453
    3MOL    O30  504   2.736   2.096   4.565
    3MOL    C37  505   2.842   1.998   4.564
    3MOL    H61  506   2.802   1.897   4.555
    3MOL    O31  507   2.931   2.027   4.453
    3MOL    C38  508   2.991   2.160   4.456
    3MOL    H62  509   2.913   2.237   4.461
    3MOL    C39  510   3.070   2.180   4.325
    3MOL    H63  511   3.146   2.102   4.318
    3MOL    H64  512   3.121   2.277   4.327
    3MOL    O32  513   2.982   2.173   4.213
    3MOL    H65  514   3.032   2.137   4.138
    3MOL    C40  515   2.918   2.008   4.698
    3MOL    H66  516   2.990   1.925   4.702
    3MOL    O33  517   2.826   1.998   4.808
    3MOL    H67  518   2.742   1.965   4.767
    3MOL    C41  519   2.993   2.142   4.708
    3MOL    H68  520   2.918   2.222   4.714
    3MOL    O34  521   3.073   2.141   4.825
    3MOL    H69  522   3.021   2.090   4.890
    3MOL    C42  523   3.079   2.169   4.582
    3MOL    H70  524   3.158   2.094   4.576
    3MOL    O35  525   3.132   2.303   4.594
    3MOL    C43  526   3.275   2.312   4.608
    3MOL    H71  527   3.318   2.213   4.623
    3MOL    O36  528   3.329   2.373   4.488
    3MOL    C44  529   3.279   2.507   4.462
    3MOL    H72  530   3.170   2.500   4.452
    3MOL    C45  531   3.334   2.558   4.326
    3MOL    H73  532   3.443   2.555   4.326
    3MOL    H74  533   3.304   2.663   4.314
    3MOL    O37  534   3.282   2.482   4.216
    3MOL    H75  535   3.265   2.549   4.145
    3MOL    C46  536   3.314   2.398   4.730
    3MOL    H76  537   3.423   2.402   4.733
    3MOL    O38  538   3.264   2.342   4.850
    3MOL    H77  539   3.184   2.290   4.827
    3MOL    C47  540   3.259   2.541   4.714
    3MOL    H78  541   3.150   2.535   4.710
    3MOL    O39  542   3.298   2.619   4.828
    3MOL    H79  543   3.329   2.553   4.893
    3MOL    C48  544   3.312   2.600   4.582
    3MOL    H80  545   3.421   2.611   4.589
    3MOL    O40  546   3.247   2.728   4.566
    4SOL     OW  547   0.223   0.624   0.107
    4SOL    HW1  548   0.168   0.581   0.172
    4SOL    HW2  549   0.248   0.554   0.046
    5SOL     OW  550   0.232   0.281   0.990
    5SOL    HW1  551   0.252   0.243   1.076
    5SOL    HW2  552   0.152   0.237   0.961
    6SOL     OW  553   0.001   0.407   0.661
    6SOL    HW1  554   5.208   0.429   0.668
    6SOL    HW2  555   0.003   0.316   0.632
    7SOL     OW  556   0.574   1.285   1.182
    7SOL    HW1  557   0.491   1.292   1.135
    7SOL    HW2  558   0.590   1.372   1.217
    8SOL     OW  559   1.561   1.512   0.707
    8SOL    HW1  560   1.518   1.491   0.790
    8SOL    HW2  561   1.489   1.515   0.644
    9SOL     OW  562   1.131   0.698   0.702
    9SOL    HW1  563   1.180   0.779   0.687
    9SOL    HW2  564   1.084   0.712   0.783
   10SOL     OW  565   1.771   0.600   0.231
   10SOL    HW1  566   1.728   0.604   0.146
   10SOL    HW2  567   1.730   0.525   0.275
   11SOL     OW  568   0.756   1.141   1.040
   11SOL    HW1  569   0.689   1.175   1.099
   11SOL    HW2  570   0.791   1.219   0.996
   12SOL     OW  571   0.865   0.777   1.822
   12SOL    HW1  572   0.857   0.849   1.885
   12SOL    HW2  573   0.890   0.820   1.740
   13SOL     OW  574   0.684   1.001   0.650
   13SOL    HW1  575   0.750   0.990   0.717
   13SOL    HW2  576   0.617   1.056   0.690
   14SOL     OW  577   0.709   1.150   1.813
   14SOL    HW1  578   0.758   1.229   1.839
   14SOL    HW2  579   0.628   1.184   1.777
   15SOL     OW  580   0.358   1.405   1.060
   15SOL    HW1  581   0.271   1.401   1.021
   15SOL    HW2  582   0.406   1.467   1.006
   16SOL     OW  583   1.461   1.499   1.354
   16SOL    HW1  584   1.511   1.580   1.364
   16SOL    HW2  585   1.399   1.501   1.427
   17SOL     OW  586   0.449   0.399   1.490
   17SOL    HW1  587   0.528   0.346   1.484
   17SOL    HW2  588   0.378   0.336   1.497
   18SOL     OW  589   1.610   0.451   0.738
   18SOL    HW1  590   1.532   0.473   0.687
   18SOL    HW2  591   1.627   0.530   0.790
   19SOL     OW  592   0.217   1.730   0.466
   19SOL    HW1  593   0.259   1.785   0.531
   19SOL    HW2  594   0.287   1.708   0.404
   20SOL     OW  595   1.137   1.342   1.693
   20SOL    HW1  596   1.177   1.337   1.779
   20SOL    HW2  597   1.084   1.262   1.686
   21SOL     OW  598   0.221   1.449   0.533
   21SOL    HW1  599   0.201   1.542   0.540
   21SOL    HW2  600   0.159   1.406   0.593
   22SOL     OW  601   0.253   1.079   0.878
   22SOL    HW1  602   0.260   0.992   0.918
   22SOL    HW2  603   0.199   1.129   0.939
   23SOL     OW  604   0.614   1.790   1.433
   23SOL    HW1  605   0.530   1.773   1.475
   23SOL    HW2  606   0.634   1.881   1.455
   24SOL     OW  607   0.621   0.959   0.138
   24SOL    HW1  608   0.578   1.039   0.108
   24SOL    HW2  609   0.678   0.988   0.209
   25SOL     OW  610   1.587   0.135   1.456
   25SOL    HW1  611   1.608   0.220   1.417
   25SOL    HW2  612   1.584   0.152   1.550
   26SOL     OW  613   0.128   0.639   0.582
   26SOL    HW1  614   0.092   0.555   0.609
   26SOL    HW2  615   0.097   0.701   0.649
   27SOL     OW  616   1.845   1.758   0.331
   27SOL    HW1  617   1.910   1.728   0.396
   27SOL    HW2  618   1.870   1.849   0.314
   28SOL     OW  619   0.032   1.584   0.105
   28SOL    HW1  620   0.024   1.499   0.147
   28SOL    HW2  621   0.006   1.647   0.172
   29SOL     OW  622   1.689   0.919   0.644
   29SOL    HW1  623   1.771   0.875   0.621
   29SOL    HW2  624   1.666   0.970   0.566
   30SOL     OW  625   1.646   1.105   0.434
   30SOL    HW1  626   1.726   1.119   0.385
   30SOL    HW2  627   1.651   1.167   0.507
   31SOL     OW  628   0.130   0.749   1.587
   31SOL    HW1  629   0.224   0.764   1.587
   31SOL    HW2  630   0.092   0.836   1.600
   32SOL     OW  631   0.615   1.386   0.734
   32SOL    HW1  632   0.568   1.304   0.745
   32SOL    HW2  633   0.598   1.412   0.643
   33SOL     OW  634   1.289   1.238   1.423
   33SOL    HW1  635   1.321   1.171   1.363
   33SOL    HW2  636   1.346   1.232   1.500
   34SOL     OW  637   0.816   0.028   0.528
   34SOL    HW1  638   0.844   0.114   0.499
   34SOL    HW2  639   0.720   0.030   0.521
   35SOL     OW  640   0.176   0.945   1.279
   35SOL    HW1  641   0.266   0.916   1.269
   35SOL    HW2  642   0.134   0.923   1.195
   36SOL     OW  643   1.510   1.007   0.212
   36SOL    HW1  644   1.448   0.942   0.245
   36SOL    HW2  645   1.562   1.031   0.288
   37SOL     OW  646   1.186   1.806   1.622
   37SOL    HW1  647   1.195   1.865   1.548
   37SOL    HW2  648   1.202   1.719   1.586
   38SOL     OW  649   0.327   0.276   1.797
   38SOL    HW1  650   0.387   0.337   1.841
   38SOL    HW2  651   0.247   0.281   1.848
   39SOL     OW  652   1.467   1.419   0.952
   39SOL    HW1  653   1.399   1.435   1.017
   39SOL    HW2  654   1.454   1.328   0.925
   40SOL     OW  655   1.659   1.741   0.581
   40SOL    HW1  656   1.638   1.712   0.492
   40SOL    HW2  657   1.634   1.667   0.637
   41SOL     OW  658   0.595   0.713   0.279
   41SOL    HW1  659   0.617   0.794   0.232
   41SOL    HW2  660   0.535   0.742   0.348
   42SOL     OW  661   1.277   0.347   0.932
   42SOL    HW1  662   1.187   0.318   0.944
   42SOL    HW2  663   1.327   0.297   0.996
   43SOL     OW  664   1.587   1.671   0.319
   43SOL    HW1  665   1.677   1.700   0.312
   43SOL    HW2  666   1.560   1.654   0.229
   44SOL     OW  667   0.794   0.618   1.451
   44SOL    HW1  668   0.766   0.596   1.540
   44SOL    HW2  669   0.752   0.552   1.396
   45SOL     OW  670   1.395   0.475   1.678
   45SOL    HW1  671   1.397   0.520   1.763
   45SOL    HW2  672   1.458   0.404   1.687
   46SOL     OW  673   0.955   0.887   1.582
   46SOL    HW1  674   1.009   0.817   1.547
   46SOL    HW2  675   0.907   0.921   1.507
   47SOL     OW  676   0.993   0.417   1.235
   47SOL    HW1  677   0.908   0.438   1.273
   47SOL    HW2  678   0.973   0.368   1.155
   48SOL     OW  679   1.052   0.699   0.428
   48SOL    HW1  680   1.068   0.691   0.522
   48SOL    HW2  681   0.970   0.653   0.413
   49SOL     OW  682   0.067   0.790   0.816
   49SOL    HW1  683   0.151   0.794   0.864
   49SOL    HW2  684   0.066   0.870   0.764
   50SOL     OW  685   0.130   1.884   1.585
   50SOL    HW1  686   0.133   1.854   1.676
   50SOL    HW2  687   0.059   1.833   1.545
   51SOL     OW  688   0.886   0.359   0.202
   51SOL    HW1  689   0.930   0.406   0.131
   51SOL    HW2  690   0.868   0.272   0.166
   52SOL     OW  691   1.707   0.574   1.828
   52SOL    HW1  692   1.670   0.648   1.780
   52SOL    HW2  693   1.737   0.514   1.760
   53SOL     OW  694   1.377   1.142   0.541
   53SOL    HW1  695   1.455   1.128   0.488
   53SOL    HW2  696   1.324   1.204   0.492
   54SOL     OW  697   0.537   0.201   0.884
   54SOL    HW1  698   0.554   0.220   0.976
   54SOL    HW2  699   0.549   0.284   0.839
   55SOL     OW  700   1.005   1.444   0.473
   55SOL    HW1  701   0.967   1.517   0.423
   55SOL    HW2  702   0.986   1.466   0.564
   56SOL     OW  703   0.357   1.802   0.868
   56SOL    HW1  704   0.398   1.716   0.882
   56SOL    HW2  705   0.423   1.864   0.899
   57SOL     OW  706   1.799   1.058   0.868
   57SOL    HW1  707   1.745   1.038   0.792
   57SOL    HW2  708   1.737   1.063   0.941
   58SOL     OW  709   1.228   1.539   1.513
   58SOL    HW1  710   1.214   1.466   1.573
   58SOL    HW2  711   1.164   1.525   1.443
   59SOL     OW  712   0.327   0.949   0.249
   59SOL    HW1  713   0.408   0.967   0.201
   59SOL    HW2  714   0.318   0.853   0.247
   60SOL     OW  715   1.478   0.743   0.726
   60SOL    HW1  716   1.469   0.700   0.811
   60SOL    HW2  717   1.556   0.799   0.736
   61SOL     OW  718   0.465   1.264   1.738
   61SOL    HW1  719   0.438   1.270   1.646
   61SOL    HW2  720   0.383   1.265   1.787
   62SOL     OW  721   1.108   1.781   0.224
   62SOL    HW1  722   1.052   1.741   0.290
   62SOL    HW2  723   1.128   1.710   0.163
   63SOL     OW  724   0.197   0.279   1.493
   63SOL    HW1  725   0.158   0.366   1.488
   63SOL    HW2  726   0.207   0.263   1.587
   64SOL     OW  727   1.634   1.373   0.082
   64SOL    HW1  728   1.592   1.459   0.082
   64SOL    HW2  729   1.562   1.312   0.064
   65SOL     OW  730   0.470   1.734   0.325
   65SOL    HW1  731   0.513   1.794   0.386
   65SOL    HW2  732   0.540   1.708   0.264
   66SOL     OW  733   1.415   0.100   0.446
   66SOL    HW1  734   1.407   0.079   0.353
   66SOL    HW2  735   1.506   0.127   0.456
   67SOL     OW  736   0.277   1.801   1.213
   67SOL    HW1  737   0.306   1.724   1.261
   67SOL    HW2  738   0.225   1.766   1.141
   68SOL     OW  739   0.938   1.699   0.899
   68SOL    HW1  740   1.016   1.646   0.920
   68SOL    HW2  741   0.894   1.649   0.830
   69SOL     OW  742   0.380   0.698   0.475
   69SOL    HW1  743   0.413   0.609   0.485
   69SOL    HW2  744   0.289   0.694   0.503
   70SOL     OW  745   1.539   0.228   1.723
   70SOL    HW1  746   1.546   0.245   1.817
   70SOL    HW2  747   1.463   0.169   1.716
   71SOL     OW  748   0.625   0.138   0.122
   71SOL    HW1  749   0.715   0.109   0.134
   71SOL    HW2  750   0.597   0.097   0.040
   72SOL     OW  751   0.781   0.313   1.766
   72SOL    HW1  752   0.840   0.237   1.766
   72SOL    HW2  753   0.734   0.307   1.850
   73SOL     OW  754   0.877   1.522   1.193
   73SOL    HW1  755   0.861   1.485   1.106
   73SOL    HW2  756   0.947   1.467   1.230
   74SOL     OW  757   1.341   0.589   1.432
   74SOL    HW1  758   1.371   0.558   1.517
   74SOL    HW2  759   1.377   0.677   1.425
   75SOL     OW  760   0.815   1.394   0.940
   75SOL    HW1  761   0.900   1.383   0.896
   75SOL    HW2  762   0.751   1.396   0.869
   76SOL     OW  763   0.927   0.510   0.903
   76SOL    HW1  764   0.904   0.502   0.810
   76SOL    HW2  765   0.958   0.423   0.927
   77SOL     OW  766   0.549   0.058   0.508
   77SOL    HW1  767   0.469   0.058   0.560
   77SOL    HW2  768   0.536   0.128   0.444
   78SOL     OW  769   1.433   1.199   0.036
   78SOL    HW1  770   1.457   1.125   0.092
   78SOL    HW2  771   1.345   1.224   0.065
   79SOL     OW  772   0.317   0.073   0.198
   79SOL    HW1  773   0.379   0.141   0.173
   79SOL    HW2  774   0.367   5.291   0.191
   80SOL     OW  775   0.945   0.258   0.454
   80SOL    HW1  776   0.918   0.304   0.374
   80SOL    HW2  777   1.038   0.281   0.464
   81SOL     OW  778   1.081   0.681   1.459
   81SOL    HW1  779   1.012   0.615   1.464
   81SOL    HW2  780   1.162   0.631   1.452
   82SOL     OW  781   1.223   1.569   0.794
   82SOL    HW1  782   1.239   1.637   0.728
   82SOL    HW2  783   1.292   1.584   0.860
   83SOL     OW  784   0.468   1.151   0.732
   83SOL    HW1  785   0.399   1.131   0.795
   83SOL    HW2  786   0.428   1.135   0.646
   84SOL     OW  787   1.268   1.794   0.607
   84SOL    HW1  788   1.317   1.857   0.555
   84SOL    HW2  789   1.201   1.846   0.651
   85SOL     OW  790   1.030   0.528   0.031
   85SOL    HW1  791   0.991   0.611   0.002
   85SOL    HW2  792   1.093   0.554   0.098
   86SOL     OW  793   0.099   0.530   1.412
   86SOL    HW1  794   0.179   0.550   1.364
   86SOL    HW2  795   0.078   0.612   1.457
   87SOL     OW  796   0.560   0.240   1.159
   87SOL    HW1  797   0.591   0.153   1.184
   87SOL    HW2  798   0.467   0.240   1.182
   88SOL     OW  799   0.868   0.461   0.639
   88SOL    HW1  800   0.824   0.514   0.573
   88SOL    HW2  801   0.889   0.379   0.594
   89SOL     OW  802   0.978   0.061   0.763
   89SOL    HW1  803   0.914   0.056   0.691
   89SOL    HW2  804   0.986   5.271   0.793
   90SOL     OW  805   1.437   1.163   0.857
   90SOL    HW1  806   1.368   1.097   0.856
   90SOL    HW2  807   1.461   1.174   0.765
   91SOL     OW  808   1.467   0.606   0.977
   91SOL    HW1  809   1.417   0.524   0.981
   91SOL    HW2  810   1.527   0.600   1.051
   92SOL     OW  811   1.848   0.815   0.387
   92SOL    HW1  812   1.900   0.762   0.448
   92SOL    HW2  813   1.817   0.752   0.321
   93SOL     OW  814   0.483   1.440   0.173
   93SOL    HW1  815   0.410   1.401   0.221
   93SOL    HW2  816   0.488   1.391   0.092
   94SOL     OW  817   1.671   1.265   0.647
   94SOL    HW1  818   1.766   1.269   0.660
   94SOL    HW2  819   1.641   1.354   0.668
   95SOL     OW  820   1.399   0.578   0.087
   95SOL    HW1  821   1.336   0.559   0.157
   95SOL    HW2  822   1.454   0.500   0.083
   96SOL     OW  823   0.523   0.268   0.328
   96SOL    HW1  824   0.566   0.213   0.263
   96SOL    HW2  825   0.507   0.351   0.282
   97SOL     OW  826   1.752   1.239   1.573
   97SOL    HW1  827   1.840   1.200   1.569
   97SOL    HW2  828   1.768   1.329   1.602
   98SOL     OW  829   1.058   1.353   1.334
   98SOL    HW1  830   0.984   1.322   1.385
   98SOL    HW2  831   1.134   1.312   1.375
   99SOL     OW  832   1.608   1.626   1.654
   99SOL    HW1  833   1.602   1.659   1.565
   99SOL    HW2  834   1.691   1.578   1.656
  100SOL     OW  835   1.129   1.204   1.105
  100SOL    HW1  836   1.070   1.241   1.170
  100SOL    HW2  837   1.096   1.236   1.021
  101SOL     OW  838   1.628   1.098   1.077
  101SOL    HW1  839   1.623   1.160   1.150
  101SOL    HW2  840   1.549   1.115   1.026
  102SOL     OW  841   0.905   0.107   1.390
  102SOL    HW1  842   0.936   0.073   1.305
  102SOL    HW2  843   0.982   0.149   1.428
  103SOL     OW  844   0.984   1.115   1.722
  103SOL    HW1  845   0.892   1.131   1.743
  103SOL    HW2  846   0.983   1.037   1.667
  104SOL     OW  847   0.714   1.062   0.381
  104SOL    HW1  848   0.698   1.045   0.474
  104SOL    HW2  849   0.792   1.010   0.360
  105SOL     OW  850   0.420   0.820   1.253
  105SOL    HW1  851   0.490   0.826   1.318
  105SOL    HW2  852   0.386   0.732   1.262
  106SOL     OW  853   1.267   0.379   1.273
  106SOL    HW1  854   1.300   0.456   1.319
  106SOL    HW2  855   1.177   0.401   1.250
  107SOL     OW  856   0.102   1.624   1.367
  107SOL    HW1  857   0.079   1.630   1.274
  107SOL    HW2  858   0.188   1.581   1.368
  108SOL     OW  859   0.345   1.108   0.487
  108SOL    HW1  860   0.345   1.187   0.434
  108SOL    HW2  861   0.360   1.037   0.425
  109SOL     OW  862   0.555   0.537   0.860
  109SOL    HW1  863   0.571   0.595   0.786
  109SOL    HW2  864   0.621   0.564   0.925
  110SOL     OW  865   1.247   1.347   0.394
  110SOL    HW1  866   1.303   1.420   0.422
  110SOL    HW2  867   1.160   1.370   0.425
  111SOL     OW  868   1.281   1.457   1.147
  111SOL    HW1  869   1.336   1.460   1.225
  111SOL    HW2  870   1.226   1.381   1.159
  112SOL     OW  871   1.582   0.625   0.481
  112SOL    HW1  872   1.532   0.675   0.546
  112SOL    HW2  873   1.617   0.692   0.422
  113SOL     OW  874   0.352   1.519   1.311
  113SOL    HW1  875   0.341   1.476   1.226
  113SOL    HW2  876   0.445   1.537   1.317
  114SOL     OW  877   0.415   0.741   1.602
  114SOL    HW1  878   0.473   0.789   1.544
  114SOL    HW2  879   0.460   0.658   1.618
  115SOL     OW  880   1.601   0.779   1.682
  115SOL    HW1  881   1.515   0.820   1.675
  115SOL    HW2  882   1.654   0.821   1.614
  116SOL     OW  883   1.045   0.117   1.783
  116SOL    HW1  884   1.071   0.196   1.736
  116SOL    HW2  885   1.051   0.047   1.718
  117SOL     OW  886   0.483   0.059   1.738
  117SOL    HW1  887   0.426   5.291   1.700
  117SOL    HW2  888   0.424   0.132   1.755
  118SOL     OW  889   0.586   0.873   1.032
  118SOL    HW1  890   0.616   0.964   1.031
  118SOL    HW2  891   0.529   0.869   1.109
  119SOL     OW  892   1.358   0.859   1.030
  119SOL    HW1  893   1.275   0.850   0.983
  119SOL    HW2  894   1.398   0.772   1.024
  120SOL     OW  895   1.202   0.527   0.270
  120SOL    HW1  896   1.211   0.448   0.322
  120SOL    HW2  897   1.161   0.590   0.328
  121SOL     OW  898   0.304   0.205   1.245
  121SOL    HW1  899   0.263   0.236   1.326
  121SOL    HW2  900   0.297   0.110   1.250
  122SOL     OW  901   0.069   1.319   1.280
  122SOL    HW1  902   0.091   1.259   1.352
  122SOL    HW2  903   5.299   1.374   1.316
  123SOL     OW  904   0.727   0.632   1.060
  123SOL    HW1  905   0.800   0.615   1.001
  123SOL    HW2  906   0.698   0.721   1.038
  124SOL     OW  907   1.734   0.960   1.852
  124SOL    HW1  908   1.689   0.898   1.796
  124SOL    HW2  909   1.675   0.973   1.926
  125SOL     OW  910   0.318   0.066   0.654
  125SOL    HW1  911   0.300   0.160   0.662
  125SOL    HW2  912   0.320   0.035   0.745
  126SOL     OW  913   1.621   0.378   0.367
  126SOL    HW1  914   1.648   0.312   0.431
  126SOL    HW2  915   1.596   0.453   0.421
  127SOL     OW  916   1.028   0.759   0.961
  127SOL    HW1  917   1.024   0.777   1.055
  127SOL    HW2  918   1.001   0.668   0.952
  128SOL     OW  919   0.982   1.566   1.717
  128SOL    HW1  920   0.967   1.610   1.634
  128SOL    HW2  921   1.026   1.484   1.693
  129SOL     OW  922   1.854   1.506   1.605
  129SOL    HW1  923   1.873   1.532   1.515
  129SOL    HW2  924   1.935   1.524   1.653
  130SOL     OW  925   0.354   0.917   1.807
  130SOL    HW1  926   0.435   0.937   1.853
  130SOL    HW2  927   0.380   0.853   1.741
  131SOL     OW  928   1.520   0.302   0.126
  131SOL    HW1  929   1.484   0.215   0.140
  131SOL    HW2  930   1.561   0.326   0.210
  132SOL     OW  931   1.295   0.824   0.021
  132SOL    HW1  932   1.333   0.738   0.039
  132SOL    HW2  933   1.355   0.865   8.040
  133SOL     OW  934   1.066   1.335   0.854
  133SOL    HW1  935   1.069   1.263   0.791
  133SOL    HW2  936   1.127   1.400   0.819
  134SOL     OW  937   0.314   0.809   0.949
  134SOL    HW1  938   0.408   0.828   0.945
  134SOL    HW2  939   0.308   0.719   0.980
  135SOL     OW  940   0.336   0.526   1.015
  135SOL    HW1  941   0.299   0.440   0.999
  135SOL    HW2  942   0.411   0.531   0.956
  136SOL     OW  943   1.135   0.378   1.688
  136SOL    HW1  944   1.088   0.432   1.751
  136SOL    HW2  945   1.223   0.417   1.684
  137SOL     OW  946   1.133   0.223   1.466
  137SOL    HW1  947   1.138   0.282   1.541
  137SOL    HW2  948   1.189   0.264   1.400
  138SOL     OW  949   0.009   1.328   0.202
  138SOL    HW1  950   5.235   1.315   0.143
  138SOL    HW2  951   0.015   1.247   0.252
  139SOL     OW  952   0.093   1.782   0.949
  139SOL    HW1  953   0.059   1.711   0.895
  139SOL    HW2  954   0.181   1.798   0.914
  140SOL     OW  955   0.505   1.573   0.907
  140SOL    HW1  956   0.572   1.638   0.928
  140SOL    HW2  957   0.548   1.512   0.848
  141SOL     OW  958   0.983   0.792   1.227
  141SOL    HW1  959   1.039   0.769   1.301
  141SOL    HW2  960   0.898   0.754   1.248
  142SOL     OW  961   0.036   0.568   1.120
  142SOL    HW1  962   0.116   0.535   1.079
  142SOL    HW2  963   0.038   0.533   1.209
  143SOL     OW  964   0.167   0.515   1.716
  143SOL    HW1  965   0.251   0.495   1.674
  143SOL    HW2  966   0.137   0.594   1.671
  144SOL     OW  967   1.377   0.939   1.659
  144SOL    HW1  968   1.398   1.032   1.657
  144SOL    HW2  969   1.374   0.913   1.566
  145SOL     OW  970   0.818   0.571   0.366
  145SOL    HW1  971   0.828   0.499   0.304
  145SOL    HW2  972   0.741   0.618   0.335
  146SOL     OW  973   1.642   0.602   1.186
  146SOL    HW1  974   1.631   0.542   1.260
  146SOL    HW2  975   1.729   0.581   1.152
  147SOL     OW  976   0.256   1.556   1.735
  147SOL    HW1  977   0.234   1.619   1.803
  147SOL    HW2  978   0.250   1.470   1.777
  148SOL     OW  979   0.698   0.453   1.261
  148SOL    HW1  980   0.649   0.379   1.227
  148SOL    HW2  981   0.698   0.517   1.190
  149SOL     OW  982   0.929   1.679   1.468
  149SOL    HW1  983   0.902   1.644   1.382
  149SOL    HW2  984   0.923   1.774   1.457
  150SOL     OW  985   0.469   0.491   0.175
  150SOL    HW1  986   0.536   0.556   0.195
  150SOL    HW2  987   0.386   0.535   0.195
  151SOL     OW  988   0.148   1.137   1.471
  151SOL    HW1  989   0.146   1.089   1.554
  151SOL    HW2  990   0.160   1.070   1.404
  152SOL     OW  991   1.326   1.047   1.223
  152SOL    HW1  992   1.349   0.984   1.155
  152SOL    HW2  993   1.256   1.099   1.184
  153SOL     OW  994   1.306   0.849   0.308
  153SOL    HW1  995   1.229   0.819   0.357
  153SOL    HW2  996   1.282   0.837   0.216
  154SOL     OW  997   1.772   1.744   1.150
  154SOL    HW1  998   1.832   1.770   1.080
  154SOL    HW2  999   1.748   1.654   1.129
  155SOL     OW 1000   1.241   1.733   1.113
  155SOL    HW1 1001   1.323   1.754   1.068
  155SOL    HW2 1002   1.247   1.639   1.131
  156SOL     OW 1003   0.083   1.217   1.027
  156SOL    HW1 1004   0.069   1.242   1.119
  156SOL    HW2 1005   5.294   1.206   0.992
  157SOL     OW 1006   0.678   1.666   1.729
  157SOL    HW1 1007   0.622   1.744   1.724
  157SOL    HW2 1008   0.742   1.677   1.659
  158SOL     OW 1009   0.893   0.086   0.139
  158SOL    HW1 1010   0.943   0.077   0.058
  158SOL    HW2 1011   0.910   0.005   0.187
  159SOL     OW 1012   1.712   0.149   0.504
  159SOL    HW1 1013   1.787   0.128   0.447
  159SOL    HW2 1014   1.705   0.074   0.563
  160SOL     OW 1015   1.390   1.568   0.486
  160SOL    HW1 1016   1.453   1.601   0.422
  160SOL    HW2 1017   1.342   1.646   0.515
  161SOL     OW 1018   0.145   1.798   1.842
  161SOL    HW1 1019   0.090   1.735   1.889
  161SOL    HW2 1020   0.191   1.845   1.911
  162SOL     OW 1021   1.277   0.926   0.672
  162SOL    HW1 1022   1.351   0.865   0.678
  162SOL    HW2 1023   1.310   0.998   0.619
  163SOL     OW 1024   0.814   1.273   1.430
  163SOL    HW1 1025   0.786   1.313   1.512
  163SOL    HW2 1026   0.745   1.294   1.368
  164SOL     OW 1027   0.678   1.620   0.156
  164SOL    HW1 1028   0.682   1.628   0.060
  164SOL    HW2 1029   0.617   1.548   0.171
  165SOL     OW 1030   1.626   1.727   1.391
  165SOL    HW1 1031   1.676   1.733   1.310
  165SOL    HW2 1032   1.613   1.817   1.419
  166SOL     OW 1033   1.846   0.157   0.957
  166SOL    HW1 1034   1.845   0.062   0.945
  166SOL    HW2 1035   1.759   0.185   0.929
  167SOL     OW 1036   0.271   0.329   0.719
  167SOL    HW1 1037   0.184   0.365   0.702
  167SOL    HW2 1038   0.273   0.313   0.813
  168SOL     OW 1039   1.157   1.581   0.051
  168SOL    HW1 1040   1.172   1.489   0.071
  168SOL    HW2 1041   1.168   1.587   8.036
  169SOL     OW 1042   0.824   1.006   1.373
  169SOL    HW1 1043   0.868   1.001   1.288
  169SOL    HW2 1044   0.823   1.099   1.394
  170SOL     OW 1045   0.918   0.913   0.297
  170SOL    HW1 1046   0.972   0.938   0.222
  170SOL    HW2 1047   0.966   0.842   0.339
  171SOL     OW 1048   1.510   1.624   0.061
  171SOL    HW1 1049   1.415   1.625   0.050
  171SOL    HW2 1050   1.545   1.625   8.051
  172SOL     OW 1051   0.367   1.304   1.493
  172SOL    HW1 1052   0.359   1.378   1.434
  172SOL    HW2 1053   0.292   1.249   1.474
  173SOL     OW 1054   1.611   1.283   1.280
  173SOL    HW1 1055   1.670   1.272   1.355
  173SOL    HW2 1056   1.550   1.352   1.308
  174SOL     OW 1057   1.052   1.107   0.707
  174SOL    HW1 1058   0.981   1.056   0.746
  174SOL    HW2 1059   1.114   1.042   0.675
  175SOL     OW 1060   1.019   0.243   0.968
  175SOL    HW1 1061   0.999   0.197   0.886
  175SOL    HW2 1062   1.012   0.175   1.036
  176SOL     OW 1063   0.602   1.487   0.479
  176SOL    HW1 1064   0.645   1.438   0.409
  176SOL    HW2 1065   0.535   1.538   0.435
  177SOL     OW 1066   1.724   0.387   1.378
  177SOL    HW1 1067   1.794   0.452   1.377
  177SOL    HW2 1068   1.756   0.317   1.320
  178SOL     OW 1069   0.269   1.325   0.299
  178SOL    HW1 1070   0.183   1.335   0.258
  178SOL    HW2 1071   0.261   1.372   0.383
  179SOL     OW 1072   0.116   1.016   1.718
  179SOL    HW1 1073   0.045   0.982   1.771
  179SOL    HW2 1074   0.196   0.985   1.761
  180SOL     OW 1075   0.674   0.215   1.489
  180SOL    HW1 1076   0.758   0.198   1.445
  180SOL    HW2 1077   0.699   0.261   1.570
  181SOL     OW 1078   0.087   0.355   0.004
  181SOL    HW1 1079   0.004   0.320   0.036
  181SOL    HW2 1080   0.064   0.441   8.049
  182SOL     OW 1081   1.430   0.858   1.400
  182SOL    HW1 1082   1.381   0.919   1.345
  182SOL    HW2 1083   1.519   0.861   1.366
  183SOL     OW 1084   0.079   0.141   0.289
  183SOL    HW1 1085   0.078   0.237   0.280
  183SOL    HW2 1086   0.168   0.116   0.265
  184SOL     OW 1087   1.184   1.317   0.122
  184SOL    HW1 1088   1.089   1.307   0.121
  184SOL    HW2 1089   1.208   1.320   0.214
  185SOL     OW 1090   0.619   0.831   1.435
  185SOL    HW1 1091   0.675   0.907   1.419
  185SOL    HW2 1092   0.681   0.758   1.443
  186SOL     OW 1093   1.484   1.777   0.979
  186SOL    HW1 1094   1.507   1.836   0.907
  186SOL    HW2 1095   1.566   1.758   1.023
  187SOL     OW 1096   0.713   0.573   1.704
  187SOL    HW1 1097   0.756   0.636   1.761
  187SOL    HW2 1098   0.745   0.488   1.734
  188SOL     OW 1099   1.471   1.200   1.632
  188SOL    HW1 1100   1.459   1.214   1.726
  188SOL    HW2 1101   1.565   1.215   1.617
  189SOL     OW 1102   0.378   1.742   1.564
  189SOL    HW1 1103   0.295   1.788   1.548
  189SOL    HW2 1104   0.352   1.662   1.609
  190SOL     OW 1105   1.669   0.881   1.255
  190SOL    HW1 1106   1.663   0.796   1.213
  190SOL    HW2 1107   1.660   0.945   1.184
  191SOL     OW 1108   1.216   0.328   0.473
  191SOL    HW1 1109   1.274   0.253   0.458
  191SOL    HW2 1110   1.255   0.374   0.547
  192SOL     OW 1111   0.589   0.737   0.669
  192SOL    HW1 1112   0.628   0.823   0.654
  192SOL    HW2 1113   0.518   0.732   0.604
  193SOL     OW 1114   1.766   0.362   1.649
  193SOL    HW1 1115   1.747   0.376   1.556
  193SOL    HW2 1116   1.695   0.306   1.680
  194SOL     OW 1117   1.745   0.934   1.512
  194SOL    HW1 1118   1.742   1.028   1.525
  194SOL    HW2 1119   1.730   0.922   1.418
  195SOL     OW 1120   0.894   1.372   0.036
  195SOL    HW1 1121   0.831   1.363   0.107
  195SOL    HW2 1122   0.878   1.459   0.000
  196SOL     OW 1123   0.663   1.794   0.944
  196SOL    HW1 1124   0.642   1.884   0.921
  196SOL    HW2 1125   0.758   1.789   0.937
  197SOL     OW 1126   0.867   0.966   0.855
  197SOL    HW1 1127   0.918   0.895   0.894
  197SOL    HW2 1128   0.833   1.016   0.929
  198SOL     OW 1129   1.076   0.976   0.085
  198SOL    HW1 1130   1.068   1.041   0.015
  198SOL    HW2 1131   1.154   0.926   0.062
  199SOL     OW 1132   1.854   1.555   0.844
  199SOL    HW1 1133   1.776   1.543   0.790
  199SOL    HW2 1134   1.846   1.488   0.913
  200SOL     OW 1135   0.225   1.305   1.860
  200SOL    HW1 1136   0.157   1.243   1.834
  200SOL    HW2 1137   0.214   1.315   1.954
  201SOL     OW 1138   0.094   1.233   0.660
  201SOL    HW1 1139   0.098   1.188   0.745
  201SOL    HW2 1140   0.171   1.202   0.613
  202SOL     OW 1141   0.681   1.402   1.628
  202SOL    HW1 1142   0.601   1.360   1.658
  202SOL    HW2 1143   0.677   1.491   1.664
  203SOL     OW 1144   1.814   0.177   1.232
  203SOL    HW1 1145   1.780   0.088   1.238
  203SOL    HW2 1146   1.832   0.190   1.139
  204SOL     OW 1147   0.430   0.440   0.521
  204SOL    HW1 1148   0.465   0.366   0.471
  204SOL    HW2 1149   0.386   0.399   0.596
  205SOL     OW 1150   1.700   1.490   1.097
  205SOL    HW1 1151   1.619   1.466   1.051
  205SOL    HW2 1152   1.712   1.420   1.162
  206SOL     OW 1153   0.337   0.561   1.289
  206SOL    HW1 1154   0.393   0.503   1.339
  206SOL    HW2 1155   0.350   0.534   1.198
  207SOL     OW 1156   0.828   1.577   0.678
  207SOL    HW1 1157   0.815   1.632   0.600
  207SOL    HW2 1158   0.751   1.520   0.680
  208SOL     OW 1159   1.428   0.218   1.117
  208SOL    HW1 1160   1.464   0.143   1.164
  208SOL    HW2 1161   1.379   0.267   1.183
  209SOL     OW 1162   1.001   0.021   1.141
  209SOL    HW1 1163   0.951   5.253   1.096
  209SOL    HW2 1164   1.088   5.282   1.154
  210SOL     OW 1165   0.771   1.326   0.307
  210SOL    HW1 1166   0.740   1.237   0.323
  210SOL    HW2 1167   0.852   1.333   0.358
  211SOL     OW 1168   0.623   1.556   1.287
  211SOL    HW1 1169   0.624   1.638   1.336
  211SOL    HW2 1170   0.710   1.550   1.247
  212SOL     OW 1171   1.394   0.045   0.169
  212SOL    HW1 1172   1.385   0.027   0.076
  212SOL    HW2 1173   1.306   0.072   0.197
  213SOL     OW 1174   1.308   0.468   0.690
  213SOL    HW1 1175   1.250   0.543   0.692
  213SOL    HW2 1176   1.297   0.425   0.775
  214SOL     OW 1177   1.595   0.216   0.882
  214SOL    HW1 1178   1.528   0.227   0.950
  214SOL    HW2 1179   1.587   0.294   0.828
  215SOL     OW 1180   0.046   1.075   0.315
  215SOL    HW1 1181   0.135   1.048   0.291
  215SOL    HW2 1182   5.297   0.993   0.321
  216SOL     OW 1183   0.883   1.653   0.347
  216SOL    HW1 1184   0.815   1.637   0.282
  216SOL    HW2 1185   0.852   1.729   0.396
  217SOL     OW 1186   0.233   0.633   1.979
  217SOL    HW1 1187   0.157   0.605   2.031
  217SOL    HW2 1188   0.214   0.601   1.891
  218SOL     OW 1189   0.233   0.281   2.852
  218SOL    HW1 1190   0.252   0.243   2.938
  218SOL    HW2 1191   0.153   0.237   2.824
  219SOL     OW 1192   5.300   0.406   2.526
  219SOL    HW1 1193   5.207   0.428   2.530
  219SOL    HW2 1194   0.002   0.316   2.495
  220SOL     OW 1195   0.574   1.284   3.044
  220SOL    HW1 1196   0.491   1.293   2.996
  220SOL    HW2 1197   0.590   1.372   3.079
  221SOL     OW 1198   1.561   1.512   2.569
  221SOL    HW1 1199   1.518   1.492   2.652
  221SOL    HW2 1200   1.490   1.516   2.505
  222SOL     OW 1201   1.131   0.698   2.563
  222SOL    HW1 1202   1.180   0.779   2.549
  222SOL    HW2 1203   1.084   0.712   2.645
  223SOL     OW 1204   1.766   0.606   2.090
  223SOL    HW1 1205   1.746   0.598   1.997
  223SOL    HW2 1206   1.732   0.526   2.129
  224SOL     OW 1207   0.755   1.141   2.901
  224SOL    HW1 1208   0.688   1.175   2.961
  224SOL    HW2 1209   0.791   1.219   2.858
  225SOL     OW 1210   0.865   0.777   3.684
  225SOL    HW1 1211   0.858   0.849   3.747
  225SOL    HW2 1212   0.890   0.820   3.602
  226SOL     OW 1213   0.685   1.003   2.509
  226SOL    HW1 1214   0.751   0.990   2.577
  226SOL    HW2 1215   0.617   1.056   2.551
  227SOL     OW 1216   0.709   1.150   3.675
  227SOL    HW1 1217   0.758   1.229   3.702
  227SOL    HW2 1218   0.628   1.184   3.639
  228SOL     OW 1219   0.358   1.405   2.922
  228SOL    HW1 1220   0.270   1.405   2.885
  228SOL    HW2 1221   0.407   1.467   2.868
  229SOL     OW 1222   1.461   1.499   3.216
  229SOL    HW1 1223   1.512   1.580   3.225
  229SOL    HW2 1224   1.399   1.501   3.289
  230SOL     OW 1225   0.449   0.400   3.352
  230SOL    HW1 1226   0.528   0.346   3.346
  230SOL    HW2 1227   0.378   0.336   3.359
  231SOL     OW 1228   1.610   0.451   2.600
  231SOL    HW1 1229   1.535   0.475   2.546
  231SOL    HW2 1230   1.628   0.530   2.652
  232SOL     OW 1231   0.231   1.714   2.339
  232SOL    HW1 1232   0.264   1.783   2.397
  232SOL    HW2 1233   0.293   1.711   2.267
  233SOL     OW 1234   1.136   1.342   3.555
  233SOL    HW1 1235   1.177   1.337   3.641
  233SOL    HW2 1236   1.084   1.262   3.548
  234SOL     OW 1237   0.222   1.444   2.401
  234SOL    HW1 1238   0.215   1.540   2.397
  234SOL    HW2 1239   0.152   1.418   2.461
  235SOL     OW 1240   0.250   1.077   2.737
  235SOL    HW1 1241   0.261   0.992   2.779
  235SOL    HW2 1242   0.198   1.128   2.799
  236SOL     OW 1243   0.614   1.790   3.295
  236SOL    HW1 1244   0.530   1.773   3.337
  236SOL    HW2 1245   0.634   1.881   3.317
  237SOL     OW 1246   0.583   0.983   1.997
  237SOL    HW1 1247   0.629   1.031   1.928
  237SOL    HW2 1248   0.624   1.013   2.078
  238SOL     OW 1249   1.586   0.135   3.318
  238SOL    HW1 1250   1.608   0.220   3.279
  238SOL    HW2 1251   1.584   0.152   3.412
  239SOL     OW 1252   0.124   0.637   2.439
  239SOL    HW1 1253   0.090   0.553   2.472
  239SOL    HW2 1254   0.098   0.701   2.505
  240SOL     OW 1255   1.842   1.759   2.197
  240SOL    HW1 1256   1.907   1.730   2.262
  240SOL    HW2 1257   1.867   1.850   2.178
  241SOL     OW 1258   0.038   1.599   1.994
  241SOL    HW1 1259   0.025   1.507   2.019
  241SOL    HW2 1260   5.283   1.649   2.054
  242SOL     OW 1261   1.689   0.919   2.503
  242SOL    HW1 1262   1.772   0.876   2.482
  242SOL    HW2 1263   1.667   0.969   2.425
  243SOL     OW 1264   1.646   1.106   2.291
  243SOL    HW1 1265   1.732   1.112   2.249
  243SOL    HW2 1266   1.651   1.168   2.365
  244SOL     OW 1267   0.130   0.749   3.448
  244SOL    HW1 1268   0.225   0.763   3.449
  244SOL    HW2 1269   0.092   0.836   3.463
  245SOL     OW 1270   0.615   1.385   2.597
  245SOL    HW1 1271   0.568   1.303   2.607
  245SOL    HW2 1272   0.598   1.412   2.506
  246SOL     OW 1273   1.289   1.238   3.286
  246SOL    HW1 1274   1.321   1.171   3.225
  246SOL    HW2 1275   1.346   1.232   3.362
  247SOL     OW 1276   0.814   0.027   2.389
  247SOL    HW1 1277   0.842   0.116   2.365
  247SOL    HW2 1278   0.719   0.029   2.382
  248SOL     OW 1279   0.176   0.945   3.141
  248SOL    HW1 1280   0.267   0.916   3.131
  248SOL    HW2 1281   0.135   0.923   3.057
  249SOL     OW 1282   1.531   0.994   2.060
  249SOL    HW1 1283   1.462   0.936   2.092
  249SOL    HW2 1284   1.572   1.028   2.140
  250SOL     OW 1285   1.186   1.806   3.485
  250SOL    HW1 1286   1.196   1.865   3.410
  250SOL    HW2 1287   1.202   1.719   3.449
  251SOL     OW 1288   0.327   0.276   3.659
  251SOL    HW1 1289   0.387   0.337   3.703
  251SOL    HW2 1290   0.247   0.281   3.710
  252SOL     OW 1291   1.466   1.419   2.813
  252SOL    HW1 1292   1.398   1.435   2.879
  252SOL    HW2 1293   1.454   1.328   2.787
  253SOL     OW 1294   1.658   1.740   2.440
  253SOL    HW1 1295   1.639   1.710   2.351
  253SOL    HW2 1296   1.634   1.666   2.496
  254SOL     OW 1297   0.594   0.721   2.127
  254SOL    HW1 1298   0.602   0.802   2.077
  254SOL    HW2 1299   0.530   0.741   2.195
  255SOL     OW 1300   1.278   0.347   2.793
  255SOL    HW1 1301   1.187   0.319   2.805
  255SOL    HW2 1302   1.328   0.297   2.857
  256SOL     OW 1303   1.580   1.670   2.171
  256SOL    HW1 1304   1.671   1.701   2.164
  256SOL    HW2 1305   1.554   1.653   2.081
  257SOL     OW 1306   0.794   0.618   3.313
  257SOL    HW1 1307   0.766   0.596   3.402
  257SOL    HW2 1308   0.751   0.552   3.258
  258SOL     OW 1309   1.395   0.475   3.540
  258SOL    HW1 1310   1.397   0.520   3.625
  258SOL    HW2 1311   1.458   0.404   3.549
  259SOL     OW 1312   0.954   0.887   3.444
  259SOL    HW1 1313   1.009   0.817   3.409
  259SOL    HW2 1314   0.907   0.921   3.369
  260SOL     OW 1315   0.994   0.417   3.097
  260SOL    HW1 1316   0.908   0.438   3.135
  260SOL    HW2 1317   0.973   0.368   3.017
  261SOL     OW 1318   1.051   0.698   2.289
  261SOL    HW1 1319   1.066   0.691   2.383
  261SOL    HW2 1320   0.968   0.652   2.275
  262SOL     OW 1321   0.071   0.788   2.674
  262SOL    HW1 1322   0.153   0.793   2.724
  262SOL    HW2 1323   0.064   0.873   2.631
  263SOL     OW 1324   0.130   1.884   3.447
  263SOL    HW1 1325   0.133   1.854   3.538
  263SOL    HW2 1326   0.059   1.833   3.407
  264SOL     OW 1327   0.873   0.364   2.050
  264SOL    HW1 1328   0.915   0.424   1.988
  264SOL    HW2 1329   0.928   0.286   2.049
  265SOL     OW 1330   1.707   0.574   3.690
  265SOL    HW1 1331   1.670   0.648   3.642
  265SOL    HW2 1332   1.737   0.514   3.622
  266SOL     OW 1333   1.377   1.142   2.403
  266SOL    HW1 1334   1.456   1.129   2.351
  266SOL    HW2 1335   1.324   1.204   2.353
  267SOL     OW 1336   0.537   0.202   2.745
  267SOL    HW1 1337   0.553   0.220   2.838
  267SOL    HW2 1338   0.549   0.287   2.702
  268SOL     OW 1339   1.005   1.444   2.334
  268SOL    HW1 1340   0.968   1.517   2.285
  268SOL    HW2 1341   0.988   1.465   2.426
  269SOL     OW 1342   0.357   1.803   2.731
  269SOL    HW1 1343   0.397   1.717   2.745
  269SOL    HW2 1344   0.423   1.865   2.761
  270SOL     OW 1345   1.799   1.057   2.730
  270SOL    HW1 1346   1.745   1.039   2.653
  270SOL    HW2 1347   1.737   1.063   2.803
  271SOL     OW 1348   1.228   1.539   3.375
  271SOL    HW1 1349   1.214   1.466   3.435
  271SOL    HW2 1350   1.164   1.525   3.305
  272SOL     OW 1351   0.316   0.952   2.110
  272SOL    HW1 1352   0.398   0.976   2.066
  272SOL    HW2 1353   0.294   0.866   2.073
  273SOL     OW 1354   1.478   0.743   2.589
  273SOL    HW1 1355   1.470   0.700   2.674
  273SOL    HW2 1356   1.556   0.798   2.597
  274SOL     OW 1357   0.465   1.264   3.599
  274SOL    HW1 1358   0.438   1.270   3.508
  274SOL    HW2 1359   0.383   1.265   3.649
  275SOL     OW 1360   1.122   1.778   2.093
  275SOL    HW1 1361   1.049   1.736   2.138
  275SOL    HW2 1362   1.145   1.716   2.023
  276SOL     OW 1363   0.198   0.280   3.355
  276SOL    HW1 1364   0.158   0.367   3.351
  276SOL    HW2 1365   0.207   0.263   3.449
  277SOL     OW 1366   1.628   1.380   1.950
  277SOL    HW1 1367   1.587   1.465   1.935
  277SOL    HW2 1368   1.560   1.316   1.930
  278SOL     OW 1369   0.471   1.735   2.182
  278SOL    HW1 1370   0.514   1.793   2.245
  278SOL    HW2 1371   0.542   1.704   2.126
  279SOL     OW 1372   1.407   0.101   2.293
  279SOL    HW1 1373   1.399   0.082   2.199
  279SOL    HW2 1374   1.499   0.122   2.306
  280SOL     OW 1375   0.276   1.801   3.075
  280SOL    HW1 1376   0.307   1.724   3.122
  280SOL    HW2 1377   0.225   1.766   3.002
  281SOL     OW 1378   0.939   1.699   2.761
  281SOL    HW1 1379   1.016   1.647   2.782
  281SOL    HW2 1380   0.894   1.649   2.692
  282SOL     OW 1381   0.385   0.696   2.341
  282SOL    HW1 1382   0.415   0.605   2.349
  282SOL    HW2 1383   0.292   0.693   2.362
  283SOL     OW 1384   1.539   0.228   3.585
  283SOL    HW1 1385   1.546   0.245   3.679
  283SOL    HW2 1386   1.463   0.169   3.578
  284SOL     OW 1387   0.621   0.132   1.969
  284SOL    HW1 1388   0.687   0.068   1.994
  284SOL    HW2 1389   0.574   0.092   1.896
  285SOL     OW 1390   0.781   0.313   3.628
  285SOL    HW1 1391   0.841   0.238   3.629
  285SOL    HW2 1392   0.735   0.307   3.712
  286SOL     OW 1393   0.877   1.522   3.055
  286SOL    HW1 1394   0.861   1.485   2.968
  286SOL    HW2 1395   0.947   1.467   3.091
  287SOL     OW 1396   1.341   0.589   3.294
  287SOL    HW1 1397   1.371   0.558   3.379
  287SOL    HW2 1398   1.377   0.677   3.287
  288SOL     OW 1399   0.816   1.394   2.802
  288SOL    HW1 1400   0.900   1.383   2.758
  288SOL    HW2 1401   0.751   1.396   2.731
  289SOL     OW 1402   0.927   0.510   2.765
  289SOL    HW1 1403   0.904   0.502   2.673
  289SOL    HW2 1404   0.958   0.423   2.790
  290SOL     OW 1405   0.548   0.058   2.366
  290SOL    HW1 1406   0.469   0.059   2.420
  290SOL    HW2 1407   0.535   0.130   2.304
  291SOL     OW 1408   1.428   1.198   1.903
  291SOL    HW1 1409   1.458   1.123   1.953
  291SOL    HW2 1410   1.343   1.219   1.940
  292SOL     OW 1411   0.315   0.064   2.047
  292SOL    HW1 1412   0.381   0.130   2.026
  292SOL    HW2 1413   0.364   5.283   2.057
  293SOL     OW 1414   0.940   0.263   2.324
  293SOL    HW1 1415   0.912   0.300   2.240
  293SOL    HW2 1416   1.035   0.274   2.325
  294SOL     OW 1417   1.081   0.681   3.321
  294SOL    HW1 1418   1.012   0.615   3.326
  294SOL    HW2 1419   1.162   0.632   3.315
  295SOL     OW 1420   1.223   1.570   2.656
  295SOL    HW1 1421   1.239   1.637   2.589
  295SOL    HW2 1422   1.291   1.584   2.721
  296SOL     OW 1423   0.467   1.150   2.593
  296SOL    HW1 1424   0.398   1.130   2.657
  296SOL    HW2 1425   0.428   1.132   2.508
  297SOL     OW 1426   1.269   1.794   2.470
  297SOL    HW1 1427   1.315   1.855   2.413
  297SOL    HW2 1428   1.202   1.847   2.513
  298SOL     OW 1429   1.025   0.546   1.885
  298SOL    HW1 1430   0.983   0.630   1.866
  298SOL    HW2 1431   1.089   0.566   1.953
  299SOL     OW 1432   0.098   0.531   3.273
  299SOL    HW1 1433   0.179   0.550   3.225
  299SOL    HW2 1434   0.078   0.612   3.319
  300SOL     OW 1435   0.560   0.239   3.020
  300SOL    HW1 1436   0.592   0.153   3.047
  300SOL    HW2 1437   0.467   0.239   3.044
  301SOL     OW 1438   0.867   0.463   2.503
  301SOL    HW1 1439   0.821   0.516   2.438
  301SOL    HW2 1440   0.890   0.383   2.457
  302SOL     OW 1441   0.979   0.060   2.624
  302SOL    HW1 1442   0.914   0.056   2.554
  302SOL    HW2 1443   0.987   5.270   2.656
  303SOL     OW 1444   1.437   1.163   2.719
  303SOL    HW1 1445   1.368   1.097   2.718
  303SOL    HW2 1446   1.461   1.174   2.627
  304SOL     OW 1447   1.466   0.606   2.839
  304SOL    HW1 1448   1.417   0.524   2.843
  304SOL    HW2 1449   1.527   0.601   2.913
  305SOL     OW 1450   1.845   0.816   2.245
  305SOL    HW1 1451   1.901   0.765   2.303
  305SOL    HW2 1452   1.817   0.754   2.178
  306SOL     OW 1453   0.492   1.418   2.020
  306SOL    HW1 1454   0.416   1.390   2.072
  306SOL    HW2 1455   0.475   1.382   1.933
  307SOL     OW 1456   1.670   1.264   2.508
  307SOL    HW1 1457   1.765   1.267   2.521
  307SOL    HW2 1458   1.640   1.353   2.529
  308SOL     OW 1459   1.394   0.572   1.933
  308SOL    HW1 1460   1.333   0.552   2.004
  308SOL    HW2 1461   1.479   0.541   1.965
  309SOL     OW 1462   0.522   0.265   2.182
  309SOL    HW1 1463   0.569   0.217   2.114
  309SOL    HW2 1464   0.503   0.350   2.142
  310SOL     OW 1465   1.753   1.239   3.435
  310SOL    HW1 1466   1.840   1.200   3.431
  310SOL    HW2 1467   1.768   1.329   3.463
  311SOL     OW 1468   1.058   1.353   3.195
  311SOL    HW1 1469   0.984   1.322   3.247
  311SOL    HW2 1470   1.134   1.312   3.237
  312SOL     OW 1471   1.608   1.625   3.516
  312SOL    HW1 1472   1.602   1.660   3.427
  312SOL    HW2 1473   1.691   1.578   3.518
  313SOL     OW 1474   1.129   1.203   2.967
  313SOL    HW1 1475   1.070   1.242   3.032
  313SOL    HW2 1476   1.096   1.236   2.883
  314SOL     OW 1477   1.628   1.098   2.939
  314SOL    HW1 1478   1.623   1.160   3.012
  314SOL    HW2 1479   1.549   1.115   2.888
  315SOL     OW 1480   0.905   0.107   3.251
  315SOL    HW1 1481   0.936   0.073   3.167
  315SOL    HW2 1482   0.982   0.149   3.290
  316SOL     OW 1483   0.984   1.115   3.584
  316SOL    HW1 1484   0.892   1.131   3.605
  316SOL    HW2 1485   0.983   1.037   3.529
  317SOL     OW 1486   0.707   1.060   2.234
  317SOL    HW1 1487   0.696   1.044   2.328
  317SOL    HW2 1488   0.784   1.007   2.210
  318SOL     OW 1489   0.420   0.820   3.115
  318SOL    HW1 1490   0.490   0.826   3.180
  318SOL    HW2 1491   0.386   0.731   3.124
  319SOL     OW 1492   1.267   0.379   3.135
  319SOL    HW1 1493   1.300   0.456   3.181
  319SOL    HW2 1494   1.177   0.401   3.112
  320SOL     OW 1495   0.102   1.623   3.229
  320SOL    HW1 1496   0.080   1.632   3.136
  320SOL    HW2 1497   0.188   1.581   3.230
  321SOL     OW 1498   0.343   1.106   2.350
  321SOL    HW1 1499   0.352   1.185   2.296
  321SOL    HW2 1500   0.352   1.034   2.287
  322SOL     OW 1501   0.555   0.537   2.722
  322SOL    HW1 1502   0.570   0.595   2.647
  322SOL    HW2 1503   0.620   0.563   2.787
  323SOL     OW 1504   1.248   1.348   2.251
  323SOL    HW1 1505   1.304   1.420   2.282
  323SOL    HW2 1506   1.161   1.370   2.285
  324SOL     OW 1507   1.281   1.457   3.009
  324SOL    HW1 1508   1.337   1.461   3.087
  324SOL    HW2 1509   1.226   1.381   3.022
  325SOL     OW 1510   1.582   0.623   2.341
  325SOL    HW1 1511   1.535   0.677   2.404
  325SOL    HW2 1512   1.627   0.685   2.284
  326SOL     OW 1513   0.352   1.519   3.172
  326SOL    HW1 1514   0.342   1.476   3.088
  326SOL    HW2 1515   0.445   1.537   3.179
  327SOL     OW 1516   0.415   0.741   3.464
  327SOL    HW1 1517   0.473   0.789   3.406
  327SOL    HW2 1518   0.460   0.658   3.481
  328SOL     OW 1519   1.601   0.779   3.544
  328SOL    HW1 1520   1.515   0.820   3.537
  328SOL    HW2 1521   1.654   0.821   3.476
  329SOL     OW 1522   1.044   0.117   3.644
  329SOL    HW1 1523   1.071   0.196   3.597
  329SOL    HW2 1524   1.051   0.047   3.579
  330SOL     OW 1525   0.483   0.059   3.600
  330SOL    HW1 1526   0.426   5.291   3.562
  330SOL    HW2 1527   0.424   0.132   3.617
  331SOL     OW 1528   0.585   0.874   2.894
  331SOL    HW1 1529   0.617   0.964   2.893
  331SOL    HW2 1530   0.529   0.869   2.971
  332SOL     OW 1531   1.358   0.859   2.892
  332SOL    HW1 1532   1.275   0.849   2.845
  332SOL    HW2 1533   1.398   0.772   2.886
  333SOL     OW 1534   1.205   0.528   2.129
  333SOL    HW1 1535   1.210   0.448   2.181
  333SOL    HW2 1536   1.163   0.591   2.187
  334SOL     OW 1537   0.304   0.206   3.107
  334SOL    HW1 1538   0.263   0.237   3.188
  334SOL    HW2 1539   0.294   0.110   3.111
  335SOL     OW 1540   0.068   1.318   3.142
  335SOL    HW1 1541   0.091   1.259   3.214
  335SOL    HW2 1542   5.299   1.374   3.178
  336SOL     OW 1543   0.726   0.632   2.922
  336SOL    HW1 1544   0.800   0.615   2.863
  336SOL    HW2 1545   0.698   0.721   2.899
  337SOL     OW 1546   1.735   0.959   3.715
  337SOL    HW1 1547   1.689   0.898   3.657
  337SOL    HW2 1548   1.675   0.973   3.788
  338SOL     OW 1549   0.318   0.067   2.516
  338SOL    HW1 1550   0.299   0.161   2.524
  338SOL    HW2 1551   0.322   0.036   2.607
  339SOL     OW 1552   1.612   0.375   2.227
  339SOL    HW1 1553   1.645   0.311   2.290
  339SOL    HW2 1554   1.592   0.452   2.279
  340SOL     OW 1555   1.028   0.759   2.822
  340SOL    HW1 1556   1.024   0.777   2.917
  340SOL    HW2 1557   1.001   0.668   2.814
  341SOL     OW 1558   0.982   1.566   3.579
  341SOL    HW1 1559   0.967   1.610   3.496
  341SOL    HW2 1560   1.026   1.484   3.555
  342SOL     OW 1561   1.855   1.505   3.467
  342SOL    HW1 1562   1.873   1.533   3.377
  342SOL    HW2 1563   1.936   1.524   3.514
  343SOL     OW 1564   0.354   0.917   3.669
  343SOL    HW1 1565   0.434   0.938   3.715
  343SOL    HW2 1566   0.380   0.853   3.603
  344SOL     OW 1567   1.526   0.272   1.988
  344SOL    HW1 1568   1.462   0.208   2.019
  344SOL    HW2 1569   1.563   0.310   2.068
  345SOL     OW 1570   1.291   0.826   1.893
  345SOL    HW1 1571   1.334   0.741   1.897
  345SOL    HW2 1572   1.323   0.866   1.812
  346SOL     OW 1573   1.066   1.335   2.716
  346SOL    HW1 1574   1.069   1.263   2.653
  346SOL    HW2 1575   1.127   1.400   2.681
  347SOL     OW 1576   0.314   0.810   2.812
  347SOL    HW1 1577   0.408   0.828   2.807
  347SOL    HW2 1578   0.308   0.720   2.843
  348SOL     OW 1579   0.336   0.526   2.877
  348SOL    HW1 1580   0.299   0.440   2.861
  348SOL    HW2 1581   0.411   0.531   2.818
  349SOL     OW 1582   1.135   0.378   3.550
  349SOL    HW1 1583   1.088   0.432   3.613
  349SOL    HW2 1584   1.223   0.417   3.546
  350SOL     OW 1585   1.133   0.223   3.328
  350SOL    HW1 1586   1.138   0.282   3.403
  350SOL    HW2 1587   1.189   0.264   3.262
  351SOL     OW 1588   0.002   1.330   2.072
  351SOL    HW1 1589   5.228   1.319   2.012
  351SOL    HW2 1590   0.012   1.244   2.114
  352SOL     OW 1591   0.093   1.781   2.813
  352SOL    HW1 1592   0.059   1.711   2.757
  352SOL    HW2 1593   0.180   1.800   2.778
  353SOL     OW 1594   0.505   1.573   2.770
  353SOL    HW1 1595   0.572   1.639   2.790
  353SOL    HW2 1596   0.548   1.512   2.710
  354SOL     OW 1597   0.983   0.792   3.089
  354SOL    HW1 1598   1.039   0.769   3.163
  354SOL    HW2 1599   0.898   0.755   3.110
  355SOL     OW 1600   0.036   0.567   2.981
  355SOL    HW1 1601   0.117   0.535   2.942
  355SOL    HW2 1602   0.038   0.533   3.071
  356SOL     OW 1603   0.167   0.515   3.577
  356SOL    HW1 1604   0.251   0.495   3.537
  356SOL    HW2 1605   0.137   0.594   3.533
  357SOL     OW 1606   1.377   0.939   3.520
  357SOL    HW1 1607   1.398   1.032   3.519
  357SOL    HW2 1608   1.374   0.913   3.428
  358SOL     OW 1609   0.814   0.572   2.224
  358SOL    HW1 1610   0.818   0.498   2.164
  358SOL    HW2 1611   0.740   0.624   2.193
  359SOL     OW 1612   1.642   0.601   3.048
  359SOL    HW1 1613   1.631   0.542   3.122
  359SOL    HW2 1614   1.729   0.581   3.014
  360SOL     OW 1615   0.256   1.556   3.597
  360SOL    HW1 1616   0.234   1.619   3.665
  360SOL    HW2 1617   0.250   1.471   3.640
  361SOL     OW 1618   0.698   0.453   3.123
  361SOL    HW1 1619   0.648   0.378   3.089
  361SOL    HW2 1620   0.697   0.517   3.052
  362SOL     OW 1621   0.928   1.679   3.330
  362SOL    HW1 1622   0.902   1.644   3.244
  362SOL    HW2 1623   0.923   1.774   3.320
  363SOL     OW 1624   0.464   0.492   2.042
  363SOL    HW1 1625   0.526   0.561   2.065
  363SOL    HW2 1626   0.380   0.538   2.035
  364SOL     OW 1627   0.148   1.137   3.333
  364SOL    HW1 1628   0.145   1.089   3.415
  364SOL    HW2 1629   0.160   1.070   3.266
  365SOL     OW 1630   1.326   1.047   3.085
  365SOL    HW1 1631   1.349   0.984   3.017
  365SOL    HW2 1632   1.255   1.099   3.046
  366SOL     OW 1633   1.311   0.857   2.168
  366SOL    HW1 1634   1.236   0.826   2.218
  366SOL    HW2 1635   1.287   0.843   2.077
  367SOL     OW 1636   1.768   1.745   3.009
  367SOL    HW1 1637   1.832   1.769   2.942
  367SOL    HW2 1638   1.746   1.654   2.990
  368SOL     OW 1639   1.241   1.733   2.975
  368SOL    HW1 1640   1.323   1.754   2.930
  368SOL    HW2 1641   1.247   1.639   2.993
  369SOL     OW 1642   0.082   1.216   2.889
  369SOL    HW1 1643   0.070   1.242   2.981
  369SOL    HW2 1644   5.294   1.206   2.855
  370SOL     OW 1645   0.678   1.666   3.591
  370SOL    HW1 1646   0.622   1.744   3.586
  370SOL    HW2 1647   0.742   1.678   3.521
  371SOL     OW 1648   1.712   0.149   2.364
  371SOL    HW1 1649   1.787   0.128   2.309
  371SOL    HW2 1650   1.705   0.074   2.424
  372SOL     OW 1651   1.390   1.568   2.347
  372SOL    HW1 1652   1.451   1.600   2.280
  372SOL    HW2 1653   1.342   1.645   2.375
  373SOL     OW 1654   0.145   1.798   3.704
  373SOL    HW1 1655   0.090   1.735   3.751
  373SOL    HW2 1656   0.191   1.845   3.773
  374SOL     OW 1657   1.277   0.926   2.533
  374SOL    HW1 1658   1.351   0.865   2.540
  374SOL    HW2 1659   1.311   0.998   2.481
  375SOL     OW 1660   0.814   1.273   3.292
  375SOL    HW1 1661   0.786   1.313   3.374
  375SOL    HW2 1662   0.745   1.295   3.230
  376SOL     OW 1663   0.672   1.619   2.017
  376SOL    HW1 1664   0.683   1.632   1.923
  376SOL    HW2 1665   0.617   1.541   2.025
  377SOL     OW 1666   1.625   1.726   3.252
  377SOL    HW1 1667   1.676   1.733   3.171
  377SOL    HW2 1668   1.613   1.817   3.281
  378SOL     OW 1669   1.846   0.157   2.819
  378SOL    HW1 1670   1.844   0.062   2.808
  378SOL    HW2 1671   1.759   0.185   2.790
  379SOL     OW 1672   0.270   0.329   2.580
  379SOL    HW1 1673   0.183   0.366   2.565
  379SOL    HW2 1674   0.273   0.313   2.675
  380SOL     OW 1675   1.207   1.606   1.894
  380SOL    HW1 1676   1.197   1.514   1.920
  380SOL    HW2 1677   1.142   1.618   1.824
  381SOL     OW 1678   0.824   1.006   3.234
  381SOL    HW1 1679   0.868   1.001   3.150
  381SOL    HW2 1680   0.823   1.099   3.256
  382SOL     OW 1681   0.915   0.910   2.152
  382SOL    HW1 1682   0.976   0.942   2.086
  382SOL    HW2 1683   0.963   0.841   2.197
  383SOL     OW 1684   1.492   1.625   1.905
  383SOL    HW1 1685   1.397   1.619   1.891
  383SOL    HW2 1686   1.529   1.631   1.816
  384SOL     OW 1687   0.368   1.304   3.355
  384SOL    HW1 1688   0.359   1.378   3.296
  384SOL    HW2 1689   0.291   1.249   3.336
  385SOL     OW 1690   1.610   1.283   3.142
  385SOL    HW1 1691   1.671   1.273   3.216
  385SOL    HW2 1692   1.550   1.352   3.170
  386SOL     OW 1693   1.052   1.107   2.568
  386SOL    HW1 1694   0.981   1.056   2.608
  386SOL    HW2 1695   1.115   1.042   2.537
  387SOL     OW 1696   1.019   0.243   2.830
  387SOL    HW1 1697   0.999   0.197   2.748
  387SOL    HW2 1698   1.012   0.176   2.898
  388SOL     OW 1699   0.601   1.487   2.343
  388SOL    HW1 1700   0.646   1.439   2.274
  388SOL    HW2 1701   0.535   1.538   2.297
  389SOL     OW 1702   1.724   0.387   3.240
  389SOL    HW1 1703   1.794   0.452   3.239
  389SOL    HW2 1704   1.756   0.317   3.182
  390SOL     OW 1705   0.260   1.348   2.154
  390SOL    HW1 1706   0.167   1.350   2.132
  390SOL    HW2 1707   0.264   1.385   2.243
  391SOL     OW 1708   0.116   1.015   3.579
  391SOL    HW1 1709   0.045   0.982   3.634
  391SOL    HW2 1710   0.196   0.985   3.622
  392SOL     OW 1711   0.674   0.215   3.351
  392SOL    HW1 1712   0.758   0.198   3.308
  392SOL    HW2 1713   0.699   0.260   3.432
  393SOL     OW 1714   0.079   0.337   1.899
  393SOL    HW1 1715   5.287   0.311   1.887
  393SOL    HW2 1716   0.093   0.405   1.834
  394SOL     OW 1717   1.430   0.858   3.262
  394SOL    HW1 1718   1.381   0.919   3.207
  394SOL    HW2 1719   1.519   0.861   3.228
  395SOL     OW 1720   0.083   0.141   2.156
  395SOL    HW1 1721   0.077   0.235   2.137
  395SOL    HW2 1722   0.170   0.117   2.125
  396SOL     OW 1723   1.179   1.339   1.979
  396SOL    HW1 1724   1.088   1.309   1.982
  396SOL    HW2 1725   1.207   1.340   2.070
  397SOL     OW 1726   0.619   0.831   3.297
  397SOL    HW1 1727   0.675   0.907   3.281
  397SOL    HW2 1728   0.681   0.758   3.305
  398SOL     OW 1729   1.484   1.776   2.842
  398SOL    HW1 1730   1.508   1.835   2.770
  398SOL    HW2 1731   1.567   1.758   2.886
  399SOL     OW 1732   0.713   0.573   3.566
  399SOL    HW1 1733   0.756   0.636   3.623
  399SOL    HW2 1734   0.745   0.488   3.596
  400SOL     OW 1735   1.472   1.200   3.494
  400SOL    HW1 1736   1.459   1.214   3.588
  400SOL    HW2 1737   1.565   1.215   3.479
  401SOL     OW 1738   0.378   1.742   3.426
  401SOL    HW1 1739   0.295   1.788   3.410
  401SOL    HW2 1740   0.352   1.662   3.471
  402SOL     OW 1741   1.669   0.881   3.117
  402SOL    HW1 1742   1.663   0.796   3.074
  402SOL    HW2 1743   1.660   0.945   3.046
  403SOL     OW 1744   1.221   0.319   2.327
  403SOL    HW1 1745   1.284   0.247   2.321
  403SOL    HW2 1746   1.251   0.371   2.402
  404SOL     OW 1747   0.590   0.738   2.531
  404SOL    HW1 1748   0.629   0.824   2.515
  404SOL    HW2 1749   0.521   0.730   2.465
  405SOL     OW 1750   1.766   0.362   3.511
  405SOL    HW1 1751   1.747   0.376   3.418
  405SOL    HW2 1752   1.695   0.306   3.542
  406SOL     OW 1753   1.745   0.934   3.374
  406SOL    HW1 1754   1.742   1.029   3.387
  406SOL    HW2 1755   1.730   0.922   3.280
  407SOL     OW 1756   0.862   1.367   1.896
  407SOL    HW1 1757   0.824   1.396   1.979
  407SOL    HW2 1758   0.881   1.448   1.849
  408SOL     OW 1759   0.663   1.793   2.805
  408SOL    HW1 1760   0.642   1.884   2.783
  408SOL    HW2 1761   0.758   1.789   2.799
  409SOL     OW 1762   0.867   0.966   2.716
  409SOL    HW1 1763   0.918   0.895   2.756
  409SOL    HW2 1764   0.833   1.016   2.791
  410SOL     OW 1765   1.078   0.987   1.950
  410SOL    HW1 1766   1.057   1.039   1.872
  410SOL    HW2 1767   1.153   0.934   1.925
  411SOL     OW 1768   1.854   1.555   2.706
  411SOL    HW1 1769   1.776   1.543   2.652
  411SOL    HW2 1770   1.845   1.489   2.776
  412SOL     OW 1771   0.225   1.305   3.722
  412SOL    HW1 1772   0.157   1.243   3.697
  412SOL    HW2 1773   0.214   1.315   3.817
  413SOL     OW 1774   0.087   1.220   2.516
  413SOL    HW1 1775   0.100   1.188   2.606
  413SOL    HW2 1776   0.174   1.214   2.476
  414SOL     OW 1777   0.681   1.402   3.490
  414SOL    HW1 1778   0.600   1.360   3.520
  414SOL    HW2 1779   0.677   1.491   3.526
  415SOL     OW 1780   1.814   0.177   3.095
  415SOL    HW1 1781   1.780   0.088   3.100
  415SOL    HW2 1782   1.832   0.190   3.002
  416SOL     OW 1783   0.433   0.436   2.384
  416SOL    HW1 1784   0.464   0.362   2.332
  416SOL    HW2 1785   0.387   0.396   2.458
  417SOL     OW 1786   1.701   1.489   2.957
  417SOL    HW1 1787   1.619   1.465   2.913
  417SOL    HW2 1788   1.712   1.420   3.023
  418SOL     OW 1789   0.337   0.561   3.151
  418SOL    HW1 1790   0.393   0.503   3.202
  418SOL    HW2 1791   0.350   0.533   3.060
  419SOL     OW 1792   0.828   1.577   2.540
  419SOL    HW1 1793   0.815   1.633   2.463
  419SOL    HW2 1794   0.752   1.520   2.542
  420SOL     OW 1795   1.428   0.218   2.978
  420SOL    HW1 1796   1.464   0.144   3.026
  420SOL    HW2 1797   1.379   0.268   3.044
  421SOL     OW 1798   1.002   0.021   3.003
  421SOL    HW1 1799   0.952   5.252   2.959
  421SOL    HW2 1800   1.088   5.282   3.016
  422SOL     OW 1801   0.772   1.333   2.177
  422SOL    HW1 1802   0.742   1.242   2.183
  422SOL    HW2 1803   0.854   1.334   2.226
  423SOL     OW 1804   0.623   1.556   3.149
  423SOL    HW1 1805   0.624   1.638   3.198
  423SOL    HW2 1806   0.710   1.550   3.110
  424SOL     OW 1807   1.354   0.039   2.024
  424SOL    HW1 1808   1.388   5.297   1.945
  424SOL    HW2 1809   1.276   5.288   2.046
  425SOL     OW 1810   1.301   0.464   2.547
  425SOL    HW1 1811   1.246   0.542   2.552
  425SOL    HW2 1812   1.294   0.423   2.633
  426SOL     OW 1813   1.594   0.216   2.744
  426SOL    HW1 1814   1.528   0.227   2.812
  426SOL    HW2 1815   1.587   0.294   2.690
  427SOL     OW 1816   0.048   1.069   2.152
  427SOL    HW1 1817   0.137   1.036   2.141
  427SOL    HW2 1818   5.300   0.994   2.187
  428SOL     OW 1819   0.885   1.652   2.204
  428SOL    HW1 1820   0.812   1.636   2.144
  428SOL    HW2 1821   0.857   1.727   2.256
  429SOL     OW 1822   0.233   0.633   3.841
  429SOL    HW1 1823   0.157   0.606   3.893
  429SOL    HW2 1824   0.214   0.600   3.753
  430SOL     OW 1825   0.233   0.281   4.714
  430SOL    HW1 1826   0.252   0.243   4.800
  430SOL    HW2 1827   0.153   0.237   4.686
  431SOL     OW 1828   5.300   0.406   4.388
  431SOL    HW1 1829   5.207   0.428   4.392
  431SOL    HW2 1830   0.002   0.316   4.357
  432SOL     OW 1831   0.574   1.284   4.906
  432SOL    HW1 1832   0.491   1.293   4.858
  432SOL    HW2 1833   0.590   1.372   4.941
  433SOL     OW 1834   1.561   1.511   4.431
  433SOL    HW1 1835   1.518   1.492   4.515
  433SOL    HW2 1836   1.489   1.516   4.368
  434SOL     OW 1837   1.131   0.698   4.425
  434SOL    HW1 1838   1.180   0.779   4.411
  434SOL    HW2 1839   1.084   0.712   4.507
  435SOL     OW 1840   1.767   0.606   3.952
  435SOL    HW1 1841   1.746   0.598   3.859
  435SOL    HW2 1842   1.732   0.526   3.991
  436SOL     OW 1843   0.755   1.141   4.763
  436SOL    HW1 1844   0.688   1.175   4.822
  436SOL    HW2 1845   0.790   1.218   4.720
  437SOL     OW 1846   0.865   0.777   5.546
  437SOL    HW1 1847   0.858   0.849   5.609
  437SOL    HW2 1848   0.890   0.820   5.464
  438SOL     OW 1849   0.685   1.003   4.371
  438SOL    HW1 1850   0.751   0.990   4.439
  438SOL    HW2 1851   0.617   1.056   4.413
  439SOL     OW 1852   0.709   1.150   5.537
  439SOL    HW1 1853   0.758   1.229   5.564
  439SOL    HW2 1854   0.628   1.184   5.501
  440SOL     OW 1855   0.358   1.405   4.784
  440SOL    HW1 1856   0.270   1.405   4.747
  440SOL    HW2 1857   0.407   1.467   4.730
  441SOL     OW 1858   1.461   1.500   5.078
  441SOL    HW1 1859   1.512   1.580   5.087
  441SOL    HW2 1860   1.400   1.502   5.151
  442SOL     OW 1861   0.449   0.400   5.214
  442SOL    HW1 1862   0.528   0.346   5.208
  442SOL    HW2 1863   0.378   0.336   5.221
  443SOL     OW 1864   1.610   0.451   4.462
  443SOL    HW1 1865   1.535   0.475   4.408
  443SOL    HW2 1866   1.629   0.530   4.514
  444SOL     OW 1867   0.231   1.714   4.201
  444SOL    HW1 1868   0.264   1.783   4.259
  444SOL    HW2 1869   0.294   1.711   4.129
  445SOL     OW 1870   1.136   1.342   5.417
  445SOL    HW1 1871   1.178   1.336   5.503
  445SOL    HW2 1872   1.084   1.262   5.410
  446SOL     OW 1873   0.222   1.444   4.263
  446SOL    HW1 1874   0.216   1.539   4.259
  446SOL    HW2 1875   0.152   1.418   4.323
  447SOL     OW 1876   0.250   1.077   4.599
  447SOL    HW1 1877   0.261   0.992   4.641
  447SOL    HW2 1878   0.198   1.128   4.661
  448SOL     OW 1879   0.613   1.790   5.156
  448SOL    HW1 1880   0.529   1.773   5.199
  448SOL    HW2 1881   0.634   1.881   5.179
  449SOL     OW 1882   0.583   0.983   3.859
  449SOL    HW1 1883   0.629   1.031   3.790
  449SOL    HW2 1884   0.624   1.013   3.940
  450SOL     OW 1885   1.586   0.135   5.180
  450SOL    HW1 1886   1.609   0.220   5.141
  450SOL    HW2 1887   1.584   0.152   5.274
  451SOL     OW 1888   0.124   0.636   4.301
  451SOL    HW1 1889   0.090   0.553   4.335
  451SOL    HW2 1890   0.098   0.701   4.367
  452SOL     OW 1891   1.845   1.761   4.059
  452SOL    HW1 1892   1.904   1.730   4.128
  452SOL    HW2 1893   1.872   1.851   4.042
  453SOL     OW 1894   0.038   1.599   3.856
  453SOL    HW1 1895   0.025   1.507   3.881
  453SOL    HW2 1896   5.283   1.649   3.916
  454SOL     OW 1897   1.689   0.918   4.365
  454SOL    HW1 1898   1.772   0.876   4.344
  454SOL    HW2 1899   1.667   0.969   4.286
  455SOL     OW 1900   1.646   1.107   4.153
  455SOL    HW1 1901   1.732   1.112   4.111
  455SOL    HW2 1902   1.651   1.168   4.227
  456SOL     OW 1903   0.130   0.749   5.310
  456SOL    HW1 1904   0.225   0.763   5.311
  456SOL    HW2 1905   0.092   0.836   5.325
  457SOL     OW 1906   0.615   1.385   4.459
  457SOL    HW1 1907   0.568   1.303   4.469
  457SOL    HW2 1908   0.598   1.412   4.368
  458SOL     OW 1909   1.288   1.238   5.148
  458SOL    HW1 1910   1.321   1.171   5.087
  458SOL    HW2 1911   1.346   1.232   5.224
  459SOL     OW 1912   0.814   0.027   4.251
  459SOL    HW1 1913   0.842   0.116   4.227
  459SOL    HW2 1914   0.719   0.029   4.244
  460SOL     OW 1915   0.176   0.945   5.003
  460SOL    HW1 1916   0.267   0.916   4.993
  460SOL    HW2 1917   0.135   0.923   4.919
  461SOL     OW 1918   1.531   0.994   3.922
  461SOL    HW1 1919   1.462   0.936   3.954
  461SOL    HW2 1920   1.572   1.028   4.002
  462SOL     OW 1921   1.185   1.806   5.346
  462SOL    HW1 1922   1.196   1.866   5.272
  462SOL    HW2 1923   1.202   1.719   5.310
  463SOL     OW 1924   0.327   0.276   5.521
  463SOL    HW1 1925   0.387   0.337   5.565
  463SOL    HW2 1926   0.247   0.281   5.572
  464SOL     OW 1927   1.466   1.419   4.675
  464SOL    HW1 1928   1.398   1.435   4.741
  464SOL    HW2 1929   1.454   1.328   4.649
  465SOL     OW 1930   1.660   1.736   4.301
  465SOL    HW1 1931   1.637   1.706   4.213
  465SOL    HW2 1932   1.634   1.664   4.358
  466SOL     OW 1933   0.594   0.720   3.989
  466SOL    HW1 1934   0.602   0.802   3.939
  466SOL    HW2 1935   0.530   0.741   4.057
  467SOL     OW 1936   1.278   0.347   4.655
  467SOL    HW1 1937   1.187   0.319   4.667
  467SOL    HW2 1938   1.328   0.297   4.719
  468SOL     OW 1939   1.581   1.670   4.033
  468SOL    HW1 1940   1.671   1.703   4.025
  468SOL    HW2 1941   1.554   1.653   3.943
  469SOL     OW 1942   0.794   0.618   5.175
  469SOL    HW1 1943   0.766   0.596   5.264
  469SOL    HW2 1944   0.751   0.552   5.120
  470SOL     OW 1945   1.394   0.475   5.402
  470SOL    HW1 1946   1.397   0.520   5.487
  470SOL    HW2 1947   1.458   0.404   5.411
  471SOL     OW 1948   0.954   0.887   5.306
  471SOL    HW1 1949   1.009   0.817   5.271
  471SOL    HW2 1950   0.907   0.921   5.231
  472SOL     OW 1951   0.994   0.417   4.959
  472SOL    HW1 1952   0.908   0.438   4.997
  472SOL    HW2 1953   0.973   0.368   4.879
  473SOL     OW 1954   1.051   0.698   4.151
  473SOL    HW1 1955   1.066   0.691   4.245
  473SOL    HW2 1956   0.968   0.652   4.137
  474SOL     OW 1957   0.071   0.788   4.536
  474SOL    HW1 1958   0.153   0.793   4.586
  474SOL    HW2 1959   0.064   0.874   4.494
  475SOL     OW 1960   0.130   1.884   5.309
  475SOL    HW1 1961   0.133   1.854   5.400
  475SOL    HW2 1962   0.059   1.833   5.269
  476SOL     OW 1963   0.873   0.364   3.912
  476SOL    HW1 1964   0.915   0.424   3.850
  476SOL    HW2 1965   0.928   0.286   3.911
  477SOL     OW 1966   1.707   0.574   5.552
  477SOL    HW1 1967   1.670   0.648   5.504
  477SOL    HW2 1968   1.737   0.514   5.484
  478SOL     OW 1969   1.377   1.142   4.265
  478SOL    HW1 1970   1.456   1.129   4.213
  478SOL    HW2 1971   1.324   1.204   4.215
  479SOL     OW 1972   0.537   0.202   4.607
  479SOL    HW1 1973   0.553   0.220   4.700
  479SOL    HW2 1974   0.549   0.287   4.564
  480SOL     OW 1975   1.005   1.443   4.196
  480SOL    HW1 1976   0.968   1.517   4.147
  480SOL    HW2 1977   0.988   1.465   4.288
  481SOL     OW 1978   0.357   1.803   4.594
  481SOL    HW1 1979   0.397   1.717   4.607
  481SOL    HW2 1980   0.423   1.865   4.623
  482SOL     OW 1981   1.799   1.057   4.592
  482SOL    HW1 1982   1.744   1.039   4.515
  482SOL    HW2 1983   1.737   1.062   4.665
  483SOL     OW 1984   1.228   1.539   5.237
  483SOL    HW1 1985   1.214   1.466   5.297
  483SOL    HW2 1986   1.165   1.525   5.167
  484SOL     OW 1987   0.316   0.952   3.972
  484SOL    HW1 1988   0.398   0.976   3.928
  484SOL    HW2 1989   0.294   0.866   3.935
  485SOL     OW 1990   1.478   0.743   4.451
  485SOL    HW1 1991   1.470   0.700   4.536
  485SOL    HW2 1992   1.556   0.798   4.459
  486SOL     OW 1993   0.465   1.264   5.462
  486SOL    HW1 1994   0.438   1.270   5.370
  486SOL    HW2 1995   0.383   1.265   5.511
  487SOL     OW 1996   1.122   1.777   3.955
  487SOL    HW1 1997   1.049   1.735   4.001
  487SOL    HW2 1998   1.145   1.716   3.885
  488SOL     OW 1999   0.198   0.280   5.217
  488SOL    HW1 2000   0.158   0.367   5.212
  488SOL    HW2 2001   0.207   0.263   5.311
  489SOL     OW 2002   1.628   1.380   3.812
  489SOL    HW1 2003   1.587   1.465   3.796
  489SOL    HW2 2004   1.560   1.316   3.792
  490SOL     OW 2005   0.471   1.735   4.044
  490SOL    HW1 2006   0.514   1.793   4.107
  490SOL    HW2 2007   0.542   1.704   3.987
  491SOL     OW 2008   1.407   0.101   4.155
  491SOL    HW1 2009   1.399   0.082   4.061
  491SOL    HW2 2010   1.499   0.122   4.168
  492SOL     OW 2011   0.276   1.801   4.937
  492SOL    HW1 2012   0.307   1.724   4.984
  492SOL    HW2 2013   0.225   1.766   4.864
  493SOL     OW 2014   0.939   1.699   4.623
  493SOL    HW1 2015   1.017   1.647   4.644
  493SOL    HW2 2016   0.894   1.649   4.554
  494SOL     OW 2017   0.385   0.696   4.203
  494SOL    HW1 2018   0.415   0.605   4.211
  494SOL    HW2 2019   0.292   0.693   4.224
  495SOL     OW 2020   1.539   0.227   5.447
  495SOL    HW1 2021   1.546   0.245   5.541
  495SOL    HW2 2022   1.463   0.170   5.440
  496SOL     OW 2023   0.621   0.132   3.831
  496SOL    HW1 2024   0.688   0.069   3.856
  496SOL    HW2 2025   0.574   0.091   3.758
  497SOL     OW 2026   0.781   0.313   5.490
  497SOL    HW1 2027   0.841   0.238   5.491
  497SOL    HW2 2028   0.735   0.307   5.574
  498SOL     OW 2029   0.877   1.521   4.917
  498SOL    HW1 2030   0.861   1.485   4.830
  498SOL    HW2 2031   0.947   1.467   4.953
  499SOL     OW 2032   1.341   0.589   5.156
  499SOL    HW1 2033   1.371   0.558   5.241
  499SOL    HW2 2034   1.377   0.677   5.148
  500SOL     OW 2035   0.816   1.394   4.664
  500SOL    HW1 2036   0.900   1.383   4.620
  500SOL    HW2 2037   0.751   1.396   4.593
  501SOL     OW 2038   0.927   0.510   4.627
  501SOL    HW1 2039   0.904   0.502   4.535
  501SOL    HW2 2040   0.959   0.423   4.652
  502SOL     OW 2041   0.547   0.058   4.228
  502SOL    HW1 2042   0.469   0.059   4.283
  502SOL    HW2 2043   0.535   0.130   4.166
  503SOL     OW 2044   1.428   1.198   3.765
  503SOL    HW1 2045   1.458   1.123   3.815
  503SOL    HW2 2046   1.343   1.220   3.803
  504SOL     OW 2047   0.315   0.064   3.908
  504SOL    HW1 2048   0.382   0.130   3.889
  504SOL    HW2 2049   0.364   5.283   3.919
  505SOL     OW 2050   0.940   0.263   4.187
  505SOL    HW1 2051   0.912   0.299   4.103
  505SOL    HW2 2052   1.035   0.274   4.187
  506SOL     OW 2053   1.081   0.681   5.184
  506SOL    HW1 2054   1.012   0.614   5.188
  506SOL    HW2 2055   1.162   0.632   5.177
  507SOL     OW 2056   1.224   1.570   4.518
  507SOL    HW1 2057   1.240   1.637   4.451
  507SOL    HW2 2058   1.291   1.584   4.584
  508SOL     OW 2059   0.467   1.150   4.455
  508SOL    HW1 2060   0.398   1.130   4.519
  508SOL    HW2 2061   0.428   1.132   4.370
  509SOL     OW 2062   1.269   1.794   4.332
  509SOL    HW1 2063   1.315   1.856   4.275
  509SOL    HW2 2064   1.202   1.847   4.376
  510SOL     OW 2065   1.025   0.546   3.747
  510SOL    HW1 2066   0.983   0.630   3.728
  510SOL    HW2 2067   1.089   0.566   3.815
  511SOL     OW 2068   0.098   0.531   5.135
  511SOL    HW1 2069   0.179   0.550   5.087
  511SOL    HW2 2070   0.078   0.612   5.181
  512SOL     OW 2071   0.560   0.239   4.882
  512SOL    HW1 2072   0.592   0.153   4.909
  512SOL    HW2 2073   0.467   0.239   4.906
  513SOL     OW 2074   0.867   0.463   4.365
  513SOL    HW1 2075   0.821   0.516   4.300
  513SOL    HW2 2076   0.890   0.383   4.319
  514SOL     OW 2077   0.979   0.060   4.486
  514SOL    HW1 2078   0.914   0.056   4.416
  514SOL    HW2 2079   0.987   5.270   4.518
  515SOL     OW 2080   1.437   1.162   4.581
  515SOL    HW1 2081   1.368   1.096   4.580
  515SOL    HW2 2082   1.461   1.174   4.489
  516SOL     OW 2083   1.466   0.606   4.701
  516SOL    HW1 2084   1.417   0.524   4.705
  516SOL    HW2 2085   1.527   0.601   4.775
  517SOL     OW 2086   1.845   0.816   4.106
  517SOL    HW1 2087   1.901   0.765   4.165
  517SOL    HW2 2088   1.817   0.754   4.039
  518SOL     OW 2089   0.492   1.418   3.882
  518SOL    HW1 2090   0.416   1.390   3.934
  518SOL    HW2 2091   0.475   1.382   3.795
  519SOL     OW 2092   1.671   1.264   4.370
  519SOL    HW1 2093   1.765   1.268   4.383
  519SOL    HW2 2094   1.640   1.353   4.391
  520SOL     OW 2095   1.394   0.572   3.795
  520SOL    HW1 2096   1.333   0.553   3.866
  520SOL    HW2 2097   1.479   0.542   3.827
  521SOL     OW 2098   0.522   0.265   4.044
  521SOL    HW1 2099   0.569   0.217   3.976
  521SOL    HW2 2100   0.503   0.350   4.005
  522SOL     OW 2101   1.753   1.239   5.298
  522SOL    HW1 2102   1.840   1.201   5.292
  522SOL    HW2 2103   1.768   1.329   5.326
  523SOL     OW 2104   1.059   1.353   5.057
  523SOL    HW1 2105   0.984   1.322   5.108
  523SOL    HW2 2106   1.134   1.312   5.099
  524SOL     OW 2107   1.608   1.625   5.378
  524SOL    HW1 2108   1.602   1.660   5.289
  524SOL    HW2 2109   1.691   1.578   5.380
  525SOL     OW 2110   1.128   1.203   4.829
  525SOL    HW1 2111   1.070   1.242   4.894
  525SOL    HW2 2112   1.096   1.236   4.745
  526SOL     OW 2113   1.628   1.098   4.801
  526SOL    HW1 2114   1.624   1.160   4.874
  526SOL    HW2 2115   1.549   1.115   4.750
  527SOL     OW 2116   0.905   0.107   5.113
  527SOL    HW1 2117   0.936   0.073   5.029
  527SOL    HW2 2118   0.982   0.149   5.152
  528SOL     OW 2119   0.984   1.115   5.447
  528SOL    HW1 2120   0.892   1.131   5.467
  528SOL    HW2 2121   0.983   1.037   5.391
  529SOL     OW 2122   0.707   1.060   4.096
  529SOL    HW1 2123   0.696   1.044   4.190
  529SOL    HW2 2124   0.784   1.007   4.072
  530SOL     OW 2125   0.420   0.820   4.977
  530SOL    HW1 2126   0.490   0.826   5.042
  530SOL    HW2 2127   0.386   0.731   4.986
  531SOL     OW 2128   1.267   0.379   4.997
  531SOL    HW1 2129   1.300   0.456   5.043
  531SOL    HW2 2130   1.177   0.401   4.974
  532SOL     OW 2131   0.102   1.623   5.091
  532SOL    HW1 2132   0.080   1.632   4.998
  532SOL    HW2 2133   0.188   1.581   5.092
  533SOL     OW 2134   0.343   1.106   4.212
  533SOL    HW1 2135   0.352   1.185   4.159
  533SOL    HW2 2136   0.352   1.034   4.149
  534SOL     OW 2137   0.555   0.537   4.584
  534SOL    HW1 2138   0.570   0.595   4.509
  534SOL    HW2 2139   0.620   0.563   4.649
  535SOL     OW 2140   1.248   1.348   4.113
  535SOL    HW1 2141   1.304   1.420   4.144
  535SOL    HW2 2142   1.161   1.369   4.147
  536SOL     OW 2143   1.281   1.457   4.871
  536SOL    HW1 2144   1.337   1.461   4.949
  536SOL    HW2 2145   1.226   1.381   4.885
  537SOL     OW 2146   1.582   0.623   4.203
  537SOL    HW1 2147   1.535   0.677   4.267
  537SOL    HW2 2148   1.627   0.685   4.146
  538SOL     OW 2149   0.352   1.519   5.034
  538SOL    HW1 2150   0.342   1.476   4.950
  538SOL    HW2 2151   0.445   1.537   5.041
  539SOL     OW 2152   0.415   0.741   5.326
  539SOL    HW1 2153   0.473   0.789   5.268
  539SOL    HW2 2154   0.460   0.658   5.343
  540SOL     OW 2155   1.601   0.778   5.406
  540SOL    HW1 2156   1.515   0.820   5.399
  540SOL    HW2 2157   1.654   0.821   5.338
  541SOL     OW 2158   1.044   0.117   5.506
  541SOL    HW1 2159   1.071   0.196   5.460
  541SOL    HW2 2160   1.051   0.047   5.441
  542SOL     OW 2161   0.483   0.058   5.462
  542SOL    HW1 2162   0.426   5.291   5.424
  542SOL    HW2 2163   0.424   0.132   5.479
  543SOL     OW 2164   0.585   0.874   4.756
  543SOL    HW1 2165   0.617   0.964   4.755
  543SOL    HW2 2166   0.529   0.869   4.833
  544SOL     OW 2167   1.358   0.859   4.754
  544SOL    HW1 2168   1.274   0.849   4.707
  544SOL    HW2 2169   1.398   0.772   4.748
  545SOL     OW 2170   1.205   0.528   3.991
  545SOL    HW1 2171   1.210   0.448   4.043
  545SOL    HW2 2172   1.163   0.592   4.049
  546SOL     OW 2173   0.304   0.206   4.969
  546SOL    HW1 2174   0.263   0.237   5.050
  546SOL    HW2 2175   0.294   0.110   4.973
  547SOL     OW 2176   0.068   1.318   5.004
  547SOL    HW1 2177   0.091   1.259   5.076
  547SOL    HW2 2178   5.299   1.374   5.040
  548SOL     OW 2179   0.726   0.632   4.784
  548SOL    HW1 2180   0.800   0.615   4.725
  548SOL    HW2 2181   0.698   0.721   4.761
  549SOL     OW 2182   1.735   0.959   5.577
  549SOL    HW1 2183   1.688   0.898   5.519
  549SOL    HW2 2184   1.675   0.973   5.650
  550SOL     OW 2185   0.318   0.067   4.378
  550SOL    HW1 2186   0.299   0.161   4.386
  550SOL    HW2 2187   0.323   0.036   4.469
  551SOL     OW 2188   1.612   0.375   4.089
  551SOL    HW1 2189   1.645   0.311   4.152
  551SOL    HW2 2190   1.592   0.452   4.141
  552SOL     OW 2191   1.028   0.759   4.684
  552SOL    HW1 2192   1.025   0.777   4.778
  552SOL    HW2 2193   1.001   0.668   4.676
  553SOL     OW 2194   0.981   1.565   5.441
  553SOL    HW1 2195   0.967   1.610   5.358
  553SOL    HW2 2196   1.026   1.484   5.417
  554SOL     OW 2197   1.854   1.506   5.329
  554SOL    HW1 2198   1.873   1.532   5.239
  554SOL    HW2 2199   1.936   1.524   5.376
  555SOL     OW 2200   0.354   0.917   5.531
  555SOL    HW1 2201   0.434   0.938   5.577
  555SOL    HW2 2202   0.380   0.853   5.465
  556SOL     OW 2203   1.526   0.272   3.850
  556SOL    HW1 2204   1.462   0.208   3.881
  556SOL    HW2 2205   1.563   0.310   3.930
  557SOL     OW 2206   1.291   0.826   3.755
  557SOL    HW1 2207   1.334   0.741   3.759
  557SOL    HW2 2208   1.323   0.866   3.674
  558SOL     OW 2209   1.066   1.336   4.578
  558SOL    HW1 2210   1.069   1.263   4.515
  558SOL    HW2 2211   1.128   1.400   4.543
  559SOL     OW 2212   0.314   0.810   4.674
  559SOL    HW1 2213   0.408   0.828   4.670
  559SOL    HW2 2214   0.308   0.720   4.705
  560SOL     OW 2215   0.336   0.526   4.739
  560SOL    HW1 2216   0.299   0.440   4.723
  560SOL    HW2 2217   0.411   0.531   4.680
  561SOL     OW 2218   1.135   0.378   5.412
  561SOL    HW1 2219   1.088   0.432   5.475
  561SOL    HW2 2220   1.223   0.417   5.408
  562SOL     OW 2221   1.133   0.223   5.190
  562SOL    HW1 2222   1.138   0.282   5.265
  562SOL    HW2 2223   1.189   0.264   5.124
  563SOL     OW 2224   0.002   1.330   3.934
  563SOL    HW1 2225   5.228   1.319   3.875
  563SOL    HW2 2226   0.012   1.244   3.975
  564SOL     OW 2227   0.093   1.781   4.675
  564SOL    HW1 2228   0.059   1.711   4.619
  564SOL    HW2 2229   0.180   1.800   4.640
  565SOL     OW 2230   0.505   1.573   4.632
  565SOL    HW1 2231   0.572   1.639   4.652
  565SOL    HW2 2232   0.548   1.512   4.572
  566SOL     OW 2233   0.983   0.792   4.950
  566SOL    HW1 2234   1.039   0.769   5.025
  566SOL    HW2 2235   0.898   0.755   4.973
  567SOL     OW 2236   0.036   0.566   4.843
  567SOL    HW1 2237   0.118   0.535   4.804
  567SOL    HW2 2238   0.038   0.533   4.933
  568SOL     OW 2239   0.167   0.515   5.439
  568SOL    HW1 2240   0.251   0.495   5.399
  568SOL    HW2 2241   0.137   0.594   5.395
  569SOL     OW 2242   1.377   0.939   5.382
  569SOL    HW1 2243   1.398   1.032   5.381
  569SOL    HW2 2244   1.374   0.913   5.290
  570SOL     OW 2245   0.814   0.572   4.086
  570SOL    HW1 2246   0.818   0.498   4.025
  570SOL    HW2 2247   0.740   0.624   4.055
  571SOL     OW 2248   1.642   0.601   4.910
  571SOL    HW1 2249   1.631   0.542   4.984
  571SOL    HW2 2250   1.729   0.581   4.876
  572SOL     OW 2251   0.256   1.556   5.459
  572SOL    HW1 2252   0.234   1.619   5.527
  572SOL    HW2 2253   0.250   1.471   5.502
  573SOL     OW 2254   0.698   0.453   4.985
  573SOL    HW1 2255   0.648   0.378   4.951
  573SOL    HW2 2256   0.697   0.517   4.914
  574SOL     OW 2257   0.928   1.679   5.192
  574SOL    HW1 2258   0.902   1.645   5.106
  574SOL    HW2 2259   0.924   1.774   5.182
  575SOL     OW 2260   0.464   0.492   3.904
  575SOL    HW1 2261   0.526   0.561   3.927
  575SOL    HW2 2262   0.380   0.538   3.897
  576SOL     OW 2263   0.148   1.137   5.195
  576SOL    HW1 2264   0.145   1.089   5.277
  576SOL    HW2 2265   0.160   1.070   5.128
  577SOL     OW 2266   1.325   1.047   4.947
  577SOL    HW1 2267   1.349   0.984   4.879
  577SOL    HW2 2268   1.255   1.099   4.908
  578SOL     OW 2269   1.311   0.857   4.030
  578SOL    HW1 2270   1.236   0.826   4.080
  578SOL    HW2 2271   1.287   0.843   3.939
  579SOL     OW 2272   1.767   1.745   4.873
  579SOL    HW1 2273   1.830   1.774   4.807
  579SOL    HW2 2274   1.748   1.654   4.850
  580SOL     OW 2275   1.241   1.733   4.836
  580SOL    HW1 2276   1.323   1.754   4.792
  580SOL    HW2 2277   1.247   1.639   4.855
  581SOL     OW 2278   0.082   1.216   4.751
  581SOL    HW1 2279   0.070   1.242   4.843
  581SOL    HW2 2280   5.294   1.206   4.717
  582SOL     OW 2281   0.678   1.666   5.453
  582SOL    HW1 2282   0.622   1.744   5.448
  582SOL    HW2 2283   0.742   1.677   5.384
  583SOL     OW 2284   1.712   0.148   4.226
  583SOL    HW1 2285   1.787   0.128   4.171
  583SOL    HW2 2286   1.705   0.074   4.286
  584SOL     OW 2287   1.390   1.568   4.209
  584SOL    HW1 2288   1.450   1.600   4.142
  584SOL    HW2 2289   1.342   1.645   4.237
  585SOL     OW 2290   0.145   1.798   5.566
  585SOL    HW1 2291   0.090   1.735   5.613
  585SOL    HW2 2292   0.191   1.845   5.635
  586SOL     OW 2293   1.277   0.925   4.395
  586SOL    HW1 2294   1.351   0.865   4.402
  586SOL    HW2 2295   1.311   0.998   4.343
  587SOL     OW 2296   0.814   1.273   5.154
  587SOL    HW1 2297   0.786   1.313   5.236
  587SOL    HW2 2298   0.745   1.295   5.092
  588SOL     OW 2299   0.672   1.619   3.879
  588SOL    HW1 2300   0.683   1.632   3.785
  588SOL    HW2 2301   0.617   1.541   3.887
  589SOL     OW 2302   1.625   1.726   5.115
  589SOL    HW1 2303   1.675   1.733   5.034
  589SOL    HW2 2304   1.612   1.817   5.142
  590SOL     OW 2305   1.845   0.157   4.681
  590SOL    HW1 2306   1.844   0.062   4.669
  590SOL    HW2 2307   1.759   0.185   4.652
  591SOL     OW 2308   0.270   0.329   4.442
  591SOL    HW1 2309   0.184   0.366   4.427
  591SOL    HW2 2310   0.273   0.313   4.537
  592SOL     OW 2311   1.207   1.606   3.756
  592SOL    HW1 2312   1.198   1.514   3.782
  592SOL    HW2 2313   1.142   1.618   3.686
  593SOL     OW 2314   0.824   1.006   5.096
  593SOL    HW1 2315   0.868   1.001   5.012
  593SOL    HW2 2316   0.823   1.099   5.118
  594SOL     OW 2317   0.915   0.910   4.014
  594SOL    HW1 2318   0.976   0.942   3.947
  594SOL    HW2 2319   0.963   0.841   4.059
  595SOL     OW 2320   1.492   1.625   3.767
  595SOL    HW1 2321   1.397   1.619   3.753
  595SOL    HW2 2322   1.529   1.631   3.678
  596SOL     OW 2323   0.367   1.304   5.217
  596SOL    HW1 2324   0.359   1.378   5.158
  596SOL    HW2 2325   0.291   1.249   5.197
  597SOL     OW 2326   1.610   1.283   5.004
  597SOL    HW1 2327   1.672   1.273   5.076
  597SOL    HW2 2328   1.550   1.352   5.032
  598SOL     OW 2329   1.052   1.107   4.430
  598SOL    HW1 2330   0.981   1.056   4.470
  598SOL    HW2 2331   1.115   1.042   4.399
  599SOL     OW 2332   1.019   0.243   4.692
  599SOL    HW1 2333   0.999   0.197   4.610
  599SOL    HW2 2334   1.012   0.176   4.760
  600SOL     OW 2335   0.601   1.487   4.205
  600SOL    HW1 2336   0.646   1.439   4.136
  600SOL    HW2 2337   0.535   1.538   4.159
  601SOL     OW 2338   1.724   0.387   5.102
  601SOL    HW1 2339   1.794   0.452   5.102
  601SOL    HW2 2340   1.756   0.317   5.044
  602SOL     OW 2341   0.260   1.348   4.016
  602SOL    HW1 2342   0.167   1.350   3.994
  602SOL    HW2 2343   0.264   1.385   4.104
  603SOL     OW 2344   0.116   1.015   5.441
  603SOL    HW1 2345   0.045   0.982   5.496
  603SOL    HW2 2346   0.196   0.985   5.484
  604SOL     OW 2347   0.674   0.215   5.214
  604SOL    HW1 2348   0.758   0.198   5.170
  604SOL    HW2 2349   0.699   0.261   5.294
  605SOL     OW 2350   0.079   0.336   3.761
  605SOL    HW1 2351   5.287   0.311   3.750
  605SOL    HW2 2352   0.093   0.405   3.696
  606SOL     OW 2353   1.430   0.858   5.124
  606SOL    HW1 2354   1.381   0.919   5.069
  606SOL    HW2 2355   1.519   0.861   5.090
  607SOL     OW 2356   0.083   0.141   4.017
  607SOL    HW1 2357   0.077   0.235   4.000
  607SOL    HW2 2358   0.171   0.117   3.987
  608SOL     OW 2359   1.179   1.339   3.841
  608SOL    HW1 2360   1.088   1.309   3.844
  608SOL    HW2 2361   1.207   1.340   3.932
  609SOL     OW 2362   0.619   0.831   5.159
  609SOL    HW1 2363   0.675   0.907   5.143
  609SOL    HW2 2364   0.681   0.758   5.167
  610SOL     OW 2365   1.485   1.777   4.702
  610SOL    HW1 2366   1.508   1.839   4.633
  610SOL    HW2 2367   1.567   1.760   4.748
  611SOL     OW 2368   0.713   0.573   5.428
  611SOL    HW1 2369   0.756   0.636   5.485
  611SOL    HW2 2370   0.745   0.488   5.458
  612SOL     OW 2371   1.472   1.200   5.356
  612SOL    HW1 2372   1.460   1.214   5.450
  612SOL    HW2 2373   1.565   1.215   5.341
  613SOL     OW 2374   0.378   1.742   5.288
  613SOL    HW1 2375   0.295   1.788   5.272
  613SOL    HW2 2376   0.352   1.662   5.333
  614SOL     OW 2377   1.669   0.881   4.979
  614SOL    HW1 2378   1.663   0.796   4.936
  614SOL    HW2 2379   1.660   0.945   4.908
  615SOL     OW 2380   1.221   0.319   4.189
  615SOL    HW1 2381   1.284   0.247   4.183
  615SOL    HW2 2382   1.251   0.371   4.264
  616SOL     OW 2383   0.590   0.738   4.393
  616SOL    HW1 2384   0.629   0.824   4.377
  616SOL    HW2 2385   0.521   0.730   4.327
  617SOL     OW 2386   1.766   0.361   5.373
  617SOL    HW1 2387   1.747   0.376   5.280
  617SOL    HW2 2388   1.695   0.306   5.404
  618SOL     OW 2389   1.744   0.934   5.236
  618SOL    HW1 2390   1.743   1.028   5.250
  618SOL    HW2 2391   1.729   0.922   5.142
  619SOL     OW 2392   0.862   1.367   3.758
  619SOL    HW1 2393   0.824   1.396   3.841
  619SOL    HW2 2394   0.881   1.448   3.711
  620SOL     OW 2395   0.663   1.793   4.667
  620SOL    HW1 2396   0.642   1.884   4.645
  620SOL    HW2 2397   0.758   1.789   4.661
  621SOL     OW 2398   0.867   0.966   4.578
  621SOL    HW1 2399   0.918   0.895   4.618
  621SOL    HW2 2400   0.833   1.016   4.653
  622SOL     OW 2401   1.077   0.987   3.812
  622SOL    HW1 2402   1.057   1.039   3.734
  622SOL    HW2 2403   1.153   0.934   3.787
  623SOL     OW 2404   1.856   1.555   4.567
  623SOL    HW1 2405   1.776   1.545   4.516
  623SOL    HW2 2406   1.847   1.491   4.638
  624SOL     OW 2407   0.225   1.305   5.584
  624SOL    HW1 2408   0.157   1.243   5.559
  624SOL    HW2 2409   0.214   1.315   5.679
  625SOL     OW 2410   0.087   1.219   4.378
  625SOL    HW1 2411   0.100   1.188   4.468
  625SOL    HW2 2412   0.174   1.215   4.338
  626SOL     OW 2413   0.681   1.402   5.352
  626SOL    HW1 2414   0.600   1.360   5.382
  626SOL    HW2 2415   0.677   1.491   5.388
  627SOL     OW 2416   1.814   0.177   4.957
  627SOL    HW1 2417   1.780   0.087   4.962
  627SOL    HW2 2418   1.832   0.190   4.864
  628SOL     OW 2419   0.433   0.436   4.246
  628SOL    HW1 2420   0.464   0.362   4.194
  628SOL    HW2 2421   0.387   0.396   4.320
  629SOL     OW 2422   1.703   1.488   4.817
  629SOL    HW1 2423   1.620   1.465   4.774
  629SOL    HW2 2424   1.714   1.420   4.884
  630SOL     OW 2425   0.336   0.561   5.013
  630SOL    HW1 2426   0.393   0.503   5.064
  630SOL    HW2 2427   0.350   0.533   4.922
  631SOL     OW 2428   0.829   1.577   4.402
  631SOL    HW1 2429   0.816   1.633   4.325
  631SOL    HW2 2430   0.752   1.520   4.404
  632SOL     OW 2431   1.428   0.218   4.840
  632SOL    HW1 2432   1.465   0.144   4.888
  632SOL    HW2 2433   1.379   0.268   4.906
  633SOL     OW 2434   1.002   0.021   4.865
  633SOL    HW1 2435   0.952   5.252   4.821
  633SOL    HW2 2436   1.088   5.282   4.878
  634SOL     OW 2437   0.772   1.333   4.039
  634SOL    HW1 2438   0.742   1.242   4.045
  634SOL    HW2 2439   0.854   1.334   4.088
  635SOL     OW 2440   0.623   1.556   5.011
  635SOL    HW1 2441   0.624   1.638   5.060
  635SOL    HW2 2442   0.710   1.550   4.972
  636SOL     OW 2443   1.353   0.038   3.886
  636SOL    HW1 2444   1.389   5.297   3.807
  636SOL    HW2 2445   1.276   5.287   3.908
  637SOL     OW 2446   1.300   0.464   4.408
  637SOL    HW1 2447   1.246   0.542   4.414
  637SOL    HW2 2448   1.294   0.423   4.495
  638SOL     OW 2449   1.594   0.215   4.606
  638SOL    HW1 2450   1.528   0.227   4.674
  638SOL    HW2 2451   1.587   0.294   4.552
  639SOL     OW 2452   0.048   1.068   4.014
  639SOL    HW1 2453   0.137   1.037   4.003
  639SOL    HW2 2454   5.300   0.994   4.050
  640SOL     OW 2455   0.885   1.652   4.066
  640SOL    HW1 2456   0.812   1.636   4.006
  640SOL    HW2 2457   0.857   1.727   4.118
  641SOL     OW 2458   0.233   0.633   5.703
  641SOL    HW1 2459   0.157   0.606   5.755
  641SOL    HW2 2460   0.214   0.601   5.615
  642SOL     OW 2461   0.233   0.281   6.576
  642SOL    HW1 2462   0.252   0.243   6.662
  642SOL    HW2 2463   0.153   0.237   6.547
  643SOL     OW 2464   5.300   0.406   6.251
  643SOL    HW1 2465   5.207   0.428   6.254
  643SOL    HW2 2466   0.002   0.316   6.219
  644SOL     OW 2467   0.574   1.284   6.768
  644SOL    HW1 2468   0.491   1.293   6.720
  644SOL    HW2 2469   0.590   1.372   6.803
  645SOL     OW 2470   1.561   1.511   6.293
  645SOL    HW1 2471   1.518   1.492   6.376
  645SOL    HW2 2472   1.490   1.516   6.229
  646SOL     OW 2473   1.131   0.698   6.287
  646SOL    HW1 2474   1.180   0.779   6.273
  646SOL    HW2 2475   1.084   0.713   6.369
  647SOL     OW 2476   1.766   0.606   5.814
  647SOL    HW1 2477   1.746   0.598   5.721
  647SOL    HW2 2478   1.732   0.526   5.853
  648SOL     OW 2479   0.755   1.141   6.625
  648SOL    HW1 2480   0.688   1.175   6.684
  648SOL    HW2 2481   0.790   1.218   6.582
  649SOL     OW 2482   0.863   0.779   7.406
  649SOL    HW1 2483   0.857   0.854   7.465
  649SOL    HW2 2484   0.890   0.818   7.322
  650SOL     OW 2485   0.685   1.003   6.233
  650SOL    HW1 2486   0.751   0.990   6.301
  650SOL    HW2 2487   0.617   1.056   6.275
  651SOL     OW 2488   0.709   1.151   7.399
  651SOL    HW1 2489   0.758   1.229   7.425
  651SOL    HW2 2490   0.628   1.185   7.362
  652SOL     OW 2491   0.358   1.405   6.646
  652SOL    HW1 2492   0.270   1.405   6.609
  652SOL    HW2 2493   0.407   1.467   6.592
  653SOL     OW 2494   1.461   1.499   6.940
  653SOL    HW1 2495   1.511   1.580   6.950
  653SOL    HW2 2496   1.399   1.501   7.013
  654SOL     OW 2497   0.449   0.400   7.078
  654SOL    HW1 2498   0.528   0.347   7.072
  654SOL    HW2 2499   0.378   0.336   7.082
  655SOL     OW 2500   1.610   0.451   6.324
  655SOL    HW1 2501   1.535   0.475   6.270
  655SOL    HW2 2502   1.629   0.530   6.375
  656SOL     OW 2503   0.231   1.714   6.063
  656SOL    HW1 2504   0.264   1.783   6.121
  656SOL    HW2 2505   0.294   1.711   5.991
  657SOL     OW 2506   1.136   1.341   7.276
  657SOL    HW1 2507   1.177   1.338   7.363
  657SOL    HW2 2508   1.085   1.261   7.271
  658SOL     OW 2509   0.222   1.444   6.125
  658SOL    HW1 2510   0.216   1.539   6.121
  658SOL    HW2 2511   0.151   1.418   6.185
  659SOL     OW 2512   0.250   1.077   6.461
  659SOL    HW1 2513   0.261   0.992   6.503
  659SOL    HW2 2514   0.198   1.128   6.523
  660SOL     OW 2515   0.613   1.790   7.018
  660SOL    HW1 2516   0.530   1.773   7.061
  660SOL    HW2 2517   0.634   1.881   7.041
  661SOL     OW 2518   0.583   0.983   5.721
  661SOL    HW1 2519   0.629   1.031   5.652
  661SOL    HW2 2520   0.624   1.013   5.802
  662SOL     OW 2521   1.586   0.135   7.042
  662SOL    HW1 2522   1.608   0.220   7.004
  662SOL    HW2 2523   1.583   0.152   7.137
  663SOL     OW 2524   0.124   0.636   6.163
  663SOL    HW1 2525   0.090   0.553   6.197
  663SOL    HW2 2526   0.098   0.701   6.228
  664SOL     OW 2527   1.842   1.759   5.922
  664SOL    HW1 2528   1.907   1.731   5.986
  664SOL    HW2 2529   1.866   1.849   5.902
  665SOL     OW 2530   0.038   1.599   5.718
  665SOL    HW1 2531   0.025   1.507   5.743
  665SOL    HW2 2532   5.283   1.649   5.778
  666SOL     OW 2533   1.689   0.918   6.227
  666SOL    HW1 2534   1.772   0.876   6.206
  666SOL    HW2 2535   1.667   0.969   6.148
  667SOL     OW 2536   1.646   1.106   6.015
  667SOL    HW1 2537   1.732   1.112   5.973
  667SOL    HW2 2538   1.651   1.168   6.089
  668SOL     OW 2539   0.130   0.749   7.173
  668SOL    HW1 2540   0.224   0.764   7.173
  668SOL    HW2 2541   0.092   0.835   7.189
  669SOL     OW 2542   0.615   1.385   6.321
  669SOL    HW1 2543   0.568   1.303   6.331
  669SOL    HW2 2544   0.598   1.412   6.230
  670SOL     OW 2545   1.289   1.238   7.009
  670SOL    HW1 2546   1.321   1.171   6.949
  670SOL    HW2 2547   1.346   1.232   7.086
  671SOL     OW 2548   0.814   0.027   6.113
  671SOL    HW1 2549   0.842   0.115   6.089
  671SOL    HW2 2550   0.719   0.029   6.106
  672SOL     OW 2551   0.176   0.945   6.865
  672SOL    HW1 2552   0.266   0.916   6.855
  672SOL    HW2 2553   0.134   0.923   6.781
  673SOL     OW 2554   1.531   0.994   5.784
  673SOL    HW1 2555   1.461   0.936   5.817
  673SOL    HW2 2556   1.573   1.028   5.864
  674SOL     OW 2557   1.185   1.806   7.208
  674SOL    HW1 2558   1.196   1.865   7.133
  674SOL    HW2 2559   1.202   1.719   7.172
  675SOL     OW 2560   0.326   0.273   7.388
  675SOL    HW1 2561   0.387   0.336   7.427
  675SOL    HW2 2562   0.245   0.284   7.439
  676SOL     OW 2563   1.467   1.420   6.538
  676SOL    HW1 2564   1.398   1.435   6.603
  676SOL    HW2 2565   1.454   1.328   6.511
  677SOL     OW 2566   1.658   1.740   6.164
  677SOL    HW1 2567   1.639   1.710   6.075
  677SOL    HW2 2568   1.633   1.666   6.220
  678SOL     OW 2569   0.594   0.720   5.851
  678SOL    HW1 2570   0.603   0.802   5.801
  678SOL    HW2 2571   0.530   0.741   5.919
  679SOL     OW 2572   1.278   0.347   6.517
  679SOL    HW1 2573   1.187   0.319   6.529
  679SOL    HW2 2574   1.328   0.297   6.581
  680SOL     OW 2575   1.581   1.670   5.895
  680SOL    HW1 2576   1.671   1.701   5.888
  680SOL    HW2 2577   1.554   1.653   5.805
  681SOL     OW 2578   0.794   0.618   7.037
  681SOL    HW1 2579   0.765   0.596   7.126
  681SOL    HW2 2580   0.751   0.552   6.982
  682SOL     OW 2581   1.395   0.475   7.264
  682SOL    HW1 2582   1.396   0.520   7.348
  682SOL    HW2 2583   1.458   0.404   7.273
  683SOL     OW 2584   0.954   0.887   7.168
  683SOL    HW1 2585   1.010   0.818   7.132
  683SOL    HW2 2586   0.907   0.922   7.092
  684SOL     OW 2587   0.994   0.417   6.821
  684SOL    HW1 2588   0.908   0.438   6.859
  684SOL    HW2 2589   0.973   0.368   6.741
  685SOL     OW 2590   1.051   0.698   6.013
  685SOL    HW1 2591   1.066   0.691   6.107
  685SOL    HW2 2592   0.968   0.652   5.999
  686SOL     OW 2593   0.071   0.788   6.398
  686SOL    HW1 2594   0.153   0.793   6.448
  686SOL    HW2 2595   0.064   0.873   6.355
  687SOL     OW 2596   0.129   1.884   7.170
  687SOL    HW1 2597   0.131   1.855   7.262
  687SOL    HW2 2598   0.060   1.832   7.130
  688SOL     OW 2599   0.873   0.364   5.774
  688SOL    HW1 2600   0.915   0.424   5.712
  688SOL    HW2 2601   0.928   0.286   5.773
  689SOL     OW 2602   1.709   0.575   7.415
  689SOL    HW1 2603   1.671   0.649   7.368
  689SOL    HW2 2604   1.737   0.515   7.347
  690SOL     OW 2605   1.377   1.142   6.127
  690SOL    HW1 2606   1.456   1.129   6.075
  690SOL    HW2 2607   1.324   1.204   6.077
  691SOL     OW 2608   0.537   0.202   6.469
  691SOL    HW1 2609   0.553   0.220   6.562
  691SOL    HW2 2610   0.549   0.286   6.426
  692SOL     OW 2611   1.005   1.443   6.058
  692SOL    HW1 2612   0.968   1.517   6.009
  692SOL    HW2 2613   0.988   1.466   6.150
  693SOL     OW 2614   0.357   1.803   6.456
  693SOL    HW1 2615   0.397   1.717   6.469
  693SOL    HW2 2616   0.423   1.865   6.485
  694SOL     OW 2617   1.799   1.056   6.454
  694SOL    HW1 2618   1.745   1.039   6.378
  694SOL    HW2 2619   1.737   1.062   6.527
  695SOL     OW 2620   1.228   1.539   7.099
  695SOL    HW1 2621   1.214   1.466   7.159
  695SOL    HW2 2622   1.164   1.525   7.029
  696SOL     OW 2623   0.316   0.952   5.834
  696SOL    HW1 2624   0.398   0.977   5.790
  696SOL    HW2 2625   0.294   0.866   5.797
  697SOL     OW 2626   1.478   0.743   6.313
  697SOL    HW1 2627   1.470   0.700   6.398
  697SOL    HW2 2628   1.556   0.798   6.321
  698SOL     OW 2629   0.464   1.262   7.323
  698SOL    HW1 2630   0.438   1.269   7.232
  698SOL    HW2 2631   0.382   1.264   7.372
  699SOL     OW 2632   1.122   1.778   5.817
  699SOL    HW1 2633   1.049   1.735   5.862
  699SOL    HW2 2634   1.145   1.716   5.747
  700SOL     OW 2635   0.198   0.280   7.079
  700SOL    HW1 2636   0.158   0.367   7.073
  700SOL    HW2 2637   0.206   0.263   7.173
  701SOL     OW 2638   1.628   1.380   5.674
  701SOL    HW1 2639   1.588   1.465   5.659
  701SOL    HW2 2640   1.559   1.316   5.654
  702SOL     OW 2641   0.471   1.734   5.906
  702SOL    HW1 2642   0.514   1.793   5.969
  702SOL    HW2 2643   0.542   1.704   5.849
  703SOL     OW 2644   1.407   0.100   6.017
  703SOL    HW1 2645   1.399   0.082   5.923
  703SOL    HW2 2646   1.499   0.122   6.030
  704SOL     OW 2647   0.276   1.801   6.799
  704SOL    HW1 2648   0.307   1.724   6.846
  704SOL    HW2 2649   0.225   1.766   6.726
  705SOL     OW 2650   0.939   1.699   6.485
  705SOL    HW1 2651   1.017   1.647   6.505
  705SOL    HW2 2652   0.894   1.649   6.416
  706SOL     OW 2653   0.385   0.696   6.065
  706SOL    HW1 2654   0.415   0.605   6.073
  706SOL    HW2 2655   0.292   0.693   6.086
  707SOL     OW 2656   1.539   0.227   7.310
  707SOL    HW1 2657   1.546   0.245   7.404
  707SOL    HW2 2658   1.463   0.169   7.303
  708SOL     OW 2659   0.621   0.132   5.693
  708SOL    HW1 2660   0.688   0.069   5.718
  708SOL    HW2 2661   0.574   0.091   5.620
  709SOL     OW 2662   0.780   0.312   7.349
  709SOL    HW1 2663   0.842   0.240   7.351
  709SOL    HW2 2664   0.741   0.313   7.437
  710SOL     OW 2665   0.877   1.521   6.779
  710SOL    HW1 2666   0.861   1.485   6.692
  710SOL    HW2 2667   0.947   1.467   6.815
  711SOL     OW 2668   1.341   0.589   7.018
  711SOL    HW1 2669   1.371   0.558   7.103
  711SOL    HW2 2670   1.377   0.677   7.010
  712SOL     OW 2671   0.816   1.394   6.526
  712SOL    HW1 2672   0.900   1.383   6.482
  712SOL    HW2 2673   0.751   1.396   6.455
  713SOL     OW 2674   0.927   0.510   6.490
  713SOL    HW1 2675   0.903   0.502   6.397
  713SOL    HW2 2676   0.959   0.423   6.514
  714SOL     OW 2677   0.548   0.058   6.090
  714SOL    HW1 2678   0.469   0.059   6.144
  714SOL    HW2 2679   0.535   0.130   6.028
  715SOL     OW 2680   1.428   1.198   5.627
  715SOL    HW1 2681   1.458   1.123   5.677
  715SOL    HW2 2682   1.343   1.220   5.665
  716SOL     OW 2683   0.315   0.064   5.771
  716SOL    HW1 2684   0.381   0.130   5.751
  716SOL    HW2 2685   0.364   5.283   5.781
  717SOL     OW 2686   0.940   0.263   6.049
  717SOL    HW1 2687   0.912   0.299   5.965
  717SOL    HW2 2688   1.035   0.274   6.049
  718SOL     OW 2689   1.081   0.681   7.045
  718SOL    HW1 2690   1.013   0.614   7.051
  718SOL    HW2 2691   1.162   0.632   7.039
  719SOL     OW 2692   1.223   1.570   6.380
  719SOL    HW1 2693   1.239   1.637   6.313
  719SOL    HW2 2694   1.291   1.584   6.445
  720SOL     OW 2695   0.467   1.150   6.317
  720SOL    HW1 2696   0.398   1.130   6.381
  720SOL    HW2 2697   0.428   1.132   6.232
  721SOL     OW 2698   1.269   1.794   6.194
  721SOL    HW1 2699   1.315   1.855   6.137
  721SOL    HW2 2700   1.202   1.847   6.238
  722SOL     OW 2701   1.025   0.546   5.609
  722SOL    HW1 2702   0.983   0.630   5.590
  722SOL    HW2 2703   1.089   0.566   5.677
  723SOL     OW 2704   0.099   0.530   6.998
  723SOL    HW1 2705   0.179   0.550   6.950
  723SOL    HW2 2706   0.077   0.612   7.043
  724SOL     OW 2707   0.560   0.239   6.744
  724SOL    HW1 2708   0.592   0.153   6.771
  724SOL    HW2 2709   0.467   0.239   6.768
  725SOL     OW 2710   0.867   0.463   6.227
  725SOL    HW1 2711   0.821   0.516   6.162
  725SOL    HW2 2712   0.890   0.383   6.181
  726SOL     OW 2713   0.979   0.060   6.349
  726SOL    HW1 2714   0.914   0.056   6.278
  726SOL    HW2 2715   0.987   5.270   6.380
  727SOL     OW 2716   1.437   1.163   6.443
  727SOL    HW1 2717   1.368   1.097   6.441
  727SOL    HW2 2718   1.462   1.174   6.352
  728SOL     OW 2719   1.466   0.606   6.563
  728SOL    HW1 2720   1.417   0.524   6.567
  728SOL    HW2 2721   1.527   0.601   6.637
  729SOL     OW 2722   1.845   0.816   5.969
  729SOL    HW1 2723   1.902   0.765   6.027
  729SOL    HW2 2724   1.817   0.754   5.902
  730SOL     OW 2725   0.492   1.418   5.744
  730SOL    HW1 2726   0.416   1.390   5.796
  730SOL    HW2 2727   0.475   1.382   5.657
  731SOL     OW 2728   1.670   1.264   6.233
  731SOL    HW1 2729   1.765   1.267   6.245
  731SOL    HW2 2730   1.640   1.352   6.253
  732SOL     OW 2731   1.394   0.572   5.657
  732SOL    HW1 2732   1.333   0.552   5.729
  732SOL    HW2 2733   1.479   0.542   5.689
  733SOL     OW 2734   0.522   0.265   5.906
  733SOL    HW1 2735   0.569   0.217   5.838
  733SOL    HW2 2736   0.503   0.350   5.867
  734SOL     OW 2737   1.752   1.239   7.159
  734SOL    HW1 2738   1.840   1.200   7.154
  734SOL    HW2 2739   1.767   1.329   7.188
  735SOL     OW 2740   1.058   1.353   6.919
  735SOL    HW1 2741   0.984   1.322   6.971
  735SOL    HW2 2742   1.135   1.312   6.961
  736SOL     OW 2743   1.607   1.625   7.238
  736SOL    HW1 2744   1.602   1.659   7.149
  736SOL    HW2 2745   1.690   1.578   7.241
  737SOL     OW 2746   1.128   1.203   6.691
  737SOL    HW1 2747   1.070   1.242   6.756
  737SOL    HW2 2748   1.096   1.236   6.607
  738SOL     OW 2749   1.628   1.098   6.663
  738SOL    HW1 2750   1.623   1.160   6.736
  738SOL    HW2 2751   1.549   1.115   6.612
  739SOL     OW 2752   0.905   0.107   6.975
  739SOL    HW1 2753   0.936   0.073   6.891
  739SOL    HW2 2754   0.982   0.149   7.014
  740SOL     OW 2755   0.984   1.114   7.310
  740SOL    HW1 2756   0.892   1.131   7.328
  740SOL    HW2 2757   0.984   1.037   7.254
  741SOL     OW 2758   0.707   1.060   5.958
  741SOL    HW1 2759   0.696   1.044   6.052
  741SOL    HW2 2760   0.784   1.007   5.934
  742SOL     OW 2761   0.420   0.820   6.839
  742SOL    HW1 2762   0.490   0.826   6.904
  742SOL    HW2 2763   0.386   0.731   6.848
  743SOL     OW 2764   1.267   0.379   6.859
  743SOL    HW1 2765   1.300   0.456   6.905
  743SOL    HW2 2766   1.177   0.401   6.836
  744SOL     OW 2767   0.102   1.623   6.953
  744SOL    HW1 2768   0.080   1.631   6.860
  744SOL    HW2 2769   0.188   1.581   6.953
  745SOL     OW 2770   0.343   1.106   6.074
  745SOL    HW1 2771   0.352   1.185   6.021
  745SOL    HW2 2772   0.352   1.034   6.011
  746SOL     OW 2773   0.555   0.537   6.446
  746SOL    HW1 2774   0.570   0.595   6.371
  746SOL    HW2 2775   0.621   0.564   6.511
  747SOL     OW 2776   1.248   1.348   5.975
  747SOL    HW1 2777   1.304   1.420   6.006
  747SOL    HW2 2778   1.161   1.370   6.009
  748SOL     OW 2779   1.281   1.457   6.733
  748SOL    HW1 2780   1.337   1.461   6.811
  748SOL    HW2 2781   1.226   1.381   6.747
  749SOL     OW 2782   1.582   0.623   6.065
  749SOL    HW1 2783   1.535   0.677   6.128
  749SOL    HW2 2784   1.627   0.685   6.008
  750SOL     OW 2785   0.352   1.519   6.896
  750SOL    HW1 2786   0.342   1.476   6.812
  750SOL    HW2 2787   0.445   1.537   6.903
  751SOL     OW 2788   0.415   0.741   7.189
  751SOL    HW1 2789   0.473   0.790   7.130
  751SOL    HW2 2790   0.461   0.658   7.204
  752SOL     OW 2791   1.601   0.778   7.268
  752SOL    HW1 2792   1.515   0.820   7.261
  752SOL    HW2 2793   1.653   0.821   7.200
  753SOL     OW 2794   1.042   0.116   7.369
  753SOL    HW1 2795   1.072   0.195   7.325
  753SOL    HW2 2796   1.051   0.047   7.304
  754SOL     OW 2797   0.482   0.059   7.324
  754SOL    HW1 2798   0.426   5.291   7.286
  754SOL    HW2 2799   0.423   0.132   7.341
  755SOL     OW 2800   0.586   0.874   6.618
  755SOL    HW1 2801   0.618   0.964   6.617
  755SOL    HW2 2802   0.529   0.870   6.695
  756SOL     OW 2803   1.358   0.859   6.616
  756SOL    HW1 2804   1.275   0.850   6.569
  756SOL    HW2 2805   1.398   0.772   6.610
  757SOL     OW 2806   1.205   0.528   5.853
  757SOL    HW1 2807   1.210   0.448   5.905
  757SOL    HW2 2808   1.163   0.592   5.911
  758SOL     OW 2809   0.305   0.205   6.831
  758SOL    HW1 2810   0.263   0.237   6.911
  758SOL    HW2 2811   0.294   0.110   6.835
  759SOL     OW 2812   0.068   1.318   6.866
  759SOL    HW1 2813   0.091   1.259   6.938
  759SOL    HW2 2814   5.298   1.373   6.902
  760SOL     OW 2815   0.726   0.632   6.646
  760SOL    HW1 2816   0.800   0.615   6.587
  760SOL    HW2 2817   0.698   0.721   6.623
  761SOL     OW 2818   1.735   0.959   7.438
  761SOL    HW1 2819   1.687   0.899   7.382
  761SOL    HW2 2820   1.678   0.974   7.513
  762SOL     OW 2821   0.318   0.067   6.240
  762SOL    HW1 2822   0.299   0.161   6.248
  762SOL    HW2 2823   0.322   0.036   6.331
  763SOL     OW 2824   1.612   0.375   5.951
  763SOL    HW1 2825   1.645   0.311   6.014
  763SOL    HW2 2826   1.592   0.452   6.003
  764SOL     OW 2827   1.028   0.759   6.546
  764SOL    HW1 2828   1.025   0.777   6.640
  764SOL    HW2 2829   1.001   0.668   6.538
  765SOL     OW 2830   0.981   1.565   7.303
  765SOL    HW1 2831   0.967   1.610   7.219
  765SOL    HW2 2832   1.026   1.484   7.279
  766SOL     OW 2833   1.855   1.506   7.191
  766SOL    HW1 2834   1.873   1.532   7.101
  766SOL    HW2 2835   1.936   1.524   7.238
  767SOL     OW 2836   0.353   0.914   7.395
  767SOL    HW1 2837   0.435   0.938   7.439
  767SOL    HW2 2838   0.380   0.852   7.327
  768SOL     OW 2839   1.526   0.272   5.712
  768SOL    HW1 2840   1.462   0.208   5.743
  768SOL    HW2 2841   1.563   0.310   5.792
  769SOL     OW 2842   1.291   0.826   5.617
  769SOL    HW1 2843   1.334   0.741   5.621
  769SOL    HW2 2844   1.323   0.866   5.536
  770SOL     OW 2845   1.066   1.335   6.440
  770SOL    HW1 2846   1.069   1.263   6.377
  770SOL    HW2 2847   1.127   1.400   6.405
  771SOL     OW 2848   0.314   0.810   6.536
  771SOL    HW1 2849   0.408   0.828   6.531
  771SOL    HW2 2850   0.309   0.720   6.567
  772SOL     OW 2851   0.336   0.526   6.601
  772SOL    HW1 2852   0.299   0.440   6.585
  772SOL    HW2 2853   0.411   0.531   6.542
  773SOL     OW 2854   1.136   0.377   7.274
  773SOL    HW1 2855   1.088   0.432   7.337
  773SOL    HW2 2856   1.223   0.416   7.269
  774SOL     OW 2857   1.133   0.223   7.051
  774SOL    HW1 2858   1.138   0.281   7.127
  774SOL    HW2 2859   1.189   0.264   6.986
  775SOL     OW 2860   0.002   1.330   5.796
  775SOL    HW1 2861   5.228   1.319   5.737
  775SOL    HW2 2862   0.012   1.244   5.837
  776SOL     OW 2863   0.093   1.781   6.537
  776SOL    HW1 2864   0.059   1.712   6.481
  776SOL    HW2 2865   0.180   1.800   6.502
  777SOL     OW 2866   0.505   1.573   6.494
  777SOL    HW1 2867   0.572   1.639   6.514
  777SOL    HW2 2868   0.548   1.512   6.434
  778SOL     OW 2869   0.983   0.792   6.812
  778SOL    HW1 2870   1.039   0.769   6.887
  778SOL    HW2 2871   0.898   0.755   6.834
  779SOL     OW 2872   0.036   0.566   6.705
  779SOL    HW1 2873   0.118   0.535   6.666
  779SOL    HW2 2874   0.038   0.533   6.795
  780SOL     OW 2875   0.170   0.514   7.299
  780SOL    HW1 2876   0.253   0.495   7.256
  780SOL    HW2 2877   0.138   0.593   7.256
  781SOL     OW 2878   1.377   0.939   7.245
  781SOL    HW1 2879   1.398   1.032   7.244
  781SOL    HW2 2880   1.374   0.913   7.153
  782SOL     OW 2881   0.814   0.572   5.948
  782SOL    HW1 2882   0.818   0.498   5.888
  782SOL    HW2 2883   0.740   0.624   5.917
  783SOL     OW 2884   1.642   0.601   6.772
  783SOL    HW1 2885   1.631   0.542   6.846
  783SOL    HW2 2886   1.729   0.581   6.738
  784SOL     OW 2887   0.256   1.556   7.321
  784SOL    HW1 2888   0.233   1.618   7.391
  784SOL    HW2 2889   0.250   1.470   7.363
  785SOL     OW 2890   0.697   0.453   6.847
  785SOL    HW1 2891   0.648   0.378   6.813
  785SOL    HW2 2892   0.697   0.517   6.776
  786SOL     OW 2893   0.928   1.679   7.053
  786SOL    HW1 2894   0.902   1.645   6.968
  786SOL    HW2 2895   0.924   1.774   7.044
  787SOL     OW 2896   0.464   0.492   5.766
  787SOL    HW1 2897   0.526   0.561   5.789
  787SOL    HW2 2898   0.380   0.538   5.758
  788SOL     OW 2899   0.148   1.137   7.057
  788SOL    HW1 2900   0.145   1.088   7.139
  788SOL    HW2 2901   0.160   1.070   6.990
  789SOL     OW 2902   1.326   1.047   6.809
  789SOL    HW1 2903   1.349   0.984   6.741
  789SOL    HW2 2904   1.255   1.099   6.770
  790SOL     OW 2905   1.311   0.856   5.892
  790SOL    HW1 2906   1.235   0.826   5.942
  790SOL    HW2 2907   1.287   0.843   5.801
  791SOL     OW 2908   1.772   1.744   6.736
  791SOL    HW1 2909   1.832   1.770   6.666
  791SOL    HW2 2910   1.748   1.654   6.715
  792SOL     OW 2911   1.241   1.733   6.699
  792SOL    HW1 2912   1.323   1.754   6.654
  792SOL    HW2 2913   1.247   1.639   6.717
  793SOL     OW 2914   0.082   1.216   6.614
  793SOL    HW1 2915   0.070   1.242   6.705
  793SOL    HW2 2916   5.294   1.206   6.579
  794SOL     OW 2917   0.677   1.665   7.314
  794SOL    HW1 2918   0.623   1.744   7.311
  794SOL    HW2 2919   0.743   1.677   7.246
  795SOL     OW 2920   1.712   0.149   6.088
  795SOL    HW1 2921   1.787   0.128   6.033
  795SOL    HW2 2922   1.705   0.074   6.148
  796SOL     OW 2923   1.390   1.568   6.071
  796SOL    HW1 2924   1.451   1.600   6.004
  796SOL    HW2 2925   1.342   1.645   6.099
  797SOL     OW 2926   0.141   1.799   7.429
  797SOL    HW1 2927   0.089   1.735   7.478
  797SOL    HW2 2928   0.195   1.842   7.495
  798SOL     OW 2929   1.277   0.925   6.257
  798SOL    HW1 2930   1.351   0.865   6.264
  798SOL    HW2 2931   1.311   0.998   6.204
  799SOL     OW 2932   0.814   1.273   7.016
  799SOL    HW1 2933   0.786   1.313   7.098
  799SOL    HW2 2934   0.745   1.295   6.954
  800SOL     OW 2935   0.672   1.619   5.741
  800SOL    HW1 2936   0.683   1.632   5.647
  800SOL    HW2 2937   0.617   1.541   5.749
  801SOL     OW 2938   1.626   1.727   6.977
  801SOL    HW1 2939   1.676   1.734   6.895
  801SOL    HW2 2940   1.613   1.817   7.004
  802SOL     OW 2941   1.845   0.157   6.543
  802SOL    HW1 2942   1.845   0.062   6.531
  802SOL    HW2 2943   1.759   0.185   6.515
  803SOL     OW 2944   0.270   0.328   6.304
  803SOL    HW1 2945   0.184   0.366   6.289
  803SOL    HW2 2946   0.273   0.313   6.399
  804SOL     OW 2947   1.207   1.606   5.618
  804SOL    HW1 2948   1.197   1.514   5.644
  804SOL    HW2 2949   1.142   1.618   5.548
  805SOL     OW 2950   0.824   1.006   6.958
  805SOL    HW1 2951   0.868   1.001   6.874
  805SOL    HW2 2952   0.823   1.099   6.980
  806SOL     OW 2953   0.915   0.910   5.876
  806SOL    HW1 2954   0.976   0.942   5.810
  806SOL    HW2 2955   0.963   0.841   5.921
  807SOL     OW 2956   1.492   1.625   5.628
  807SOL    HW1 2957   1.397   1.619   5.614
  807SOL    HW2 2958   1.529   1.631   5.540
  808SOL     OW 2959   0.367   1.304   7.079
  808SOL    HW1 2960   0.359   1.378   7.020
  808SOL    HW2 2961   0.291   1.249   7.059
  809SOL     OW 2962   1.610   1.283   6.867
  809SOL    HW1 2963   1.670   1.272   6.940
  809SOL    HW2 2964   1.550   1.352   6.894
  810SOL     OW 2965   1.052   1.107   6.292
  810SOL    HW1 2966   0.981   1.056   6.332
  810SOL    HW2 2967   1.115   1.042   6.261
  811SOL     OW 2968   1.019   0.243   6.554
  811SOL    HW1 2969   0.999   0.197   6.472
  811SOL    HW2 2970   1.012   0.176   6.622
  812SOL     OW 2971   0.601   1.487   6.067
  812SOL    HW1 2972   0.646   1.439   5.998
  812SOL    HW2 2973   0.535   1.538   6.021
  813SOL     OW 2974   1.725   0.386   6.965
  813SOL    HW1 2975   1.794   0.452   6.964
  813SOL    HW2 2976   1.756   0.317   6.907
  814SOL     OW 2977   0.260   1.348   5.878
  814SOL    HW1 2978   0.167   1.350   5.856
  814SOL    HW2 2979   0.264   1.385   5.966
  815SOL     OW 2980   0.116   1.014   7.302
  815SOL    HW1 2981   0.044   0.986   7.358
  815SOL    HW2 2982   0.195   0.984   7.347
  816SOL     OW 2983   0.675   0.215   7.077
  816SOL    HW1 2984   0.758   0.198   7.033
  816SOL    HW2 2985   0.699   0.261   7.157
  817SOL     OW 2986   0.079   0.336   5.623
  817SOL    HW1 2987   5.287   0.311   5.612
  817SOL    HW2 2988   0.093   0.405   5.558
  818SOL     OW 2989   1.430   0.858   6.986
  818SOL    HW1 2990   1.381   0.919   6.931
  818SOL    HW2 2991   1.519   0.861   6.952
  819SOL     OW 2992   0.083   0.141   5.879
  819SOL    HW1 2993   0.077   0.235   5.862
  819SOL    HW2 2994   0.171   0.117   5.849
  820SOL     OW 2995   1.179   1.339   5.703
  820SOL    HW1 2996   1.088   1.309   5.706
  820SOL    HW2 2997   1.207   1.340   5.795
  821SOL     OW 2998   0.619   0.831   7.021
  821SOL    HW1 2999   0.675   0.907   7.005
  821SOL    HW2 3000   0.681   0.758   7.029
  822SOL     OW 3001   1.484   1.776   6.565
  822SOL    HW1 3002   1.507   1.836   6.493
  822SOL    HW2 3003   1.567   1.758   6.609
  823SOL     OW 3004   0.712   0.573   7.290
  823SOL    HW1 3005   0.756   0.636   7.348
  823SOL    HW2 3006   0.744   0.488   7.319
  824SOL     OW 3007   1.471   1.200   7.218
  824SOL    HW1 3008   1.459   1.213   7.312
  824SOL    HW2 3009   1.565   1.215   7.204
  825SOL     OW 3010   0.377   1.743   7.150
  825SOL    HW1 3011   0.295   1.788   7.134
  825SOL    HW2 3012   0.352   1.662   7.195
  826SOL     OW 3013   1.669   0.881   6.841
  826SOL    HW1 3014   1.663   0.796   6.798
  826SOL    HW2 3015   1.660   0.945   6.770
  827SOL     OW 3016   1.221   0.319   6.051
  827SOL    HW1 3017   1.284   0.247   6.045
  827SOL    HW2 3018   1.250   0.371   6.126
  828SOL     OW 3019   0.590   0.738   6.255
  828SOL    HW1 3020   0.629   0.824   6.239
  828SOL    HW2 3021   0.521   0.730   6.189
  829SOL     OW 3022   1.766   0.361   7.236
  829SOL    HW1 3023   1.748   0.376   7.143
  829SOL    HW2 3024   1.694   0.306   7.266
  830SOL     OW 3025   1.744   0.933   7.098
  830SOL    HW1 3026   1.742   1.028   7.112
  830SOL    HW2 3027   1.729   0.922   7.005
  831SOL     OW 3028   0.862   1.367   5.620
  831SOL    HW1 3029   0.824   1.396   5.703
  831SOL    HW2 3030   0.881   1.448   5.572
  832SOL     OW 3031   0.663   1.793   6.529
  832SOL    HW1 3032   0.642   1.884   6.507
  832SOL    HW2 3033   0.758   1.789   6.523
  833SOL     OW 3034   0.867   0.966   6.440
  833SOL    HW1 3035   0.918   0.895   6.480
  833SOL    HW2 3036   0.833   1.016   6.515
  834SOL     OW 3037   1.077   0.987   5.674
  834SOL    HW1 3038   1.057   1.039   5.596
  834SOL    HW2 3039   1.153   0.934   5.649
  835SOL     OW 3040   1.854   1.555   6.430
  835SOL    HW1 3041   1.776   1.543   6.376
  835SOL    HW2 3042   1.846   1.488   6.498
  836SOL     OW 3043   0.225   1.305   7.446
  836SOL    HW1 3044   0.155   1.245   7.420
  836SOL    HW2 3045   0.213   1.316   7.540
  837SOL     OW 3046   0.087   1.219   6.240
  837SOL    HW1 3047   0.100   1.188   6.329
  837SOL    HW2 3048   0.174   1.215   6.200
  838SOL     OW 3049   0.681   1.402   7.214
  838SOL    HW1 3050   0.600   1.361   7.244
  838SOL    HW2 3051   0.677   1.490   7.250
  839SOL     OW 3052   1.814   0.177   6.819
  839SOL    HW1 3053   1.780   0.087   6.824
  839SOL    HW2 3054   1.832   0.190   6.726
  840SOL     OW 3055   0.433   0.436   6.108
  840SOL    HW1 3056   0.464   0.362   6.056
  840SOL    HW2 3057   0.387   0.396   6.181
  841SOL     OW 3058   1.700   1.489   6.683
  841SOL    HW1 3059   1.619   1.466   6.637
  841SOL    HW2 3060   1.712   1.420   6.748
  842SOL     OW 3061   0.337   0.560   6.875
  842SOL    HW1 3062   0.394   0.503   6.925
  842SOL    HW2 3063   0.350   0.534   6.784
  843SOL     OW 3064   0.828   1.577   6.264
  843SOL    HW1 3065   0.816   1.633   6.187
  843SOL    HW2 3066   0.751   1.520   6.265
  844SOL     OW 3067   1.428   0.218   6.702
  844SOL    HW1 3068   1.464   0.144   6.750
  844SOL    HW2 3069   1.379   0.268   6.768
  845SOL     OW 3070   1.002   0.021   6.727
  845SOL    HW1 3071   0.952   5.252   6.682
  845SOL    HW2 3072   1.088   5.282   6.740
  846SOL     OW 3073   0.771   1.333   5.901
  846SOL    HW1 3074   0.742   1.242   5.907
  846SOL    HW2 3075   0.854   1.334   5.950
  847SOL     OW 3076   0.623   1.556   6.873
  847SOL    HW1 3077   0.624   1.638   6.922
  847SOL    HW2 3078   0.710   1.550   6.834
  848SOL     OW 3079   1.353   0.039   5.748
  848SOL    HW1 3080   1.388   5.297   5.669
  848SOL    HW2 3081   1.276   5.286   5.770
  849SOL     OW 3082   1.300   0.464   6.270
  849SOL    HW1 3083   1.246   0.542   6.276
  849SOL    HW2 3084   1.294   0.423   6.357
  850SOL     OW 3085   1.594   0.215   6.468
  850SOL    HW1 3086   1.528   0.227   6.536
  850SOL    HW2 3087   1.587   0.294   6.414
  851SOL     OW 3088   0.048   1.068   5.876
  851SOL    HW1 3089   0.137   1.037   5.865
  851SOL    HW2 3090   5.300   0.994   5.911
  852SOL     OW 3091   0.885   1.652   5.928
  852SOL    HW1 3092   0.812   1.636   5.868
  852SOL    HW2 3093   0.857   1.727   5.980
  853SOL     OW 3094   0.228   0.631   7.566
  853SOL    HW1 3095   0.151   0.593   7.609
  853SOL    HW2 3096   0.220   0.604   7.475
  854SOL     OW 3097   1.768   0.598   7.679
  854SOL    HW1 3098   1.747   0.593   7.586
  854SOL    HW2 3099   1.726   0.520   7.717
  855SOL     OW 3100   0.230   1.706   7.921
  855SOL    HW1 3101   0.264   1.751   7.998
  855SOL    HW2 3102   0.300   1.713   7.856
  856SOL     OW 3103   0.217   1.436   7.991
  856SOL    HW1 3104   0.209   1.531   7.983
  856SOL    HW2 3105   0.153   1.413   8.059
  857SOL     OW 3106   0.583   0.984   7.581
  857SOL    HW1 3107   0.628   1.032   7.511
  857SOL    HW2 3108   0.624   1.014   7.662
  858SOL     OW 3109   1.837   1.759   7.797
  858SOL    HW1 3110   1.908   1.729   7.854
  858SOL    HW2 3111   1.863   1.848   7.772
  859SOL     OW 3112   0.036   1.602   7.582
  859SOL    HW1 3113   0.028   1.509   7.603
  859SOL    HW2 3114   5.277   1.645   7.643
  860SOL     OW 3115   1.683   0.866   8.034
  860SOL    HW1 3116   1.763   0.878   0.005
  860SOL    HW2 3117   1.670   0.950   7.990
  861SOL     OW 3118   1.655   1.098   7.877
  861SOL    HW1 3119   1.742   1.124   7.847
  861SOL    HW2 3120   1.627   1.170   7.934
  862SOL     OW 3121   0.810   5.289   7.943
  862SOL    HW1 3122   0.852   0.074   7.930
  862SOL    HW2 3123   0.716   0.008   7.942
  863SOL     OW 3124   1.533   0.995   7.649
  863SOL    HW1 3125   1.466   0.936   7.683
  863SOL    HW2 3126   1.577   1.029   7.727
  864SOL     OW 3127   0.588   0.723   7.707
  864SOL    HW1 3128   0.597   0.805   7.658
  864SOL    HW2 3129   0.534   0.746   7.783
  865SOL     OW 3130   1.574   1.671   7.757
  865SOL    HW1 3131   1.665   1.700   7.765
  865SOL    HW2 3132   1.562   1.658   7.663
  866SOL     OW 3133   0.050   0.817   0.199
  866SOL    HW1 3134   0.122   0.765   0.162
  866SOL    HW2 3135   0.029   0.880   0.130
  867SOL     OW 3136   0.868   0.358   7.629
  867SOL    HW1 3137   0.913   0.421   7.574
  867SOL    HW2 3138   0.931   0.287   7.641
  868SOL     OW 3139   0.319   0.949   7.694
  868SOL    HW1 3140   0.399   0.976   7.650
  868SOL    HW2 3141   0.296   0.865   7.653
  869SOL     OW 3142   1.124   1.776   7.682
  869SOL    HW1 3143   1.047   1.735   7.723
  869SOL    HW2 3144   1.147   1.715   7.612
  870SOL     OW 3145   1.628   1.380   7.534
  870SOL    HW1 3146   1.586   1.465   7.520
  870SOL    HW2 3147   1.560   1.316   7.516
  871SOL     OW 3148   0.470   1.737   7.769
  871SOL    HW1 3149   0.515   1.791   7.834
  871SOL    HW2 3150   0.539   1.703   7.713
  872SOL     OW 3151   1.410   0.107   7.882
  872SOL    HW1 3152   1.405   0.083   7.790
  872SOL    HW2 3153   1.503   0.112   7.901
  873SOL     OW 3154   0.378   0.697   7.922
  873SOL    HW1 3155   0.401   0.604   7.925
  873SOL    HW2 3156   0.289   0.701   7.956
  874SOL     OW 3157   0.615   0.131   7.559
  874SOL    HW1 3158   0.691   0.076   7.579
  874SOL    HW2 3159   0.573   0.089   7.484
  875SOL     OW 3160   0.547   0.062   7.951
  875SOL    HW1 3161   0.455   0.047   7.975
  875SOL    HW2 3162   0.543   0.136   7.890
  876SOL     OW 3163   1.428   1.198   7.489
  876SOL    HW1 3164   1.459   1.124   7.542
  876SOL    HW2 3165   1.344   1.221   7.528
  877SOL     OW 3166   0.314   0.070   7.652
  877SOL    HW1 3167   0.373   0.127   7.603
  877SOL    HW2 3168   0.360   5.286   7.657
  878SOL     OW 3169   0.950   0.228   7.909
  878SOL    HW1 3170   0.900   0.299   7.868
  878SOL    HW2 3171   1.038   0.263   7.918
  879SOL     OW 3172   0.446   1.157   0.091
  879SOL    HW1 3173   0.374   1.183   0.149
  879SOL    HW2 3174   0.405   1.140   0.007
  880SOL     OW 3175   1.291   1.811   8.014
  880SOL    HW1 3176   1.326   1.880   7.958
  880SOL    HW2 3177   1.206   1.845   8.044
  881SOL     OW 3178   1.026   0.546   7.468
  881SOL    HW1 3179   0.983   0.630   7.452
  881SOL    HW2 3180   1.086   0.563   7.541
  882SOL     OW 3181   1.872   0.816   7.801
  882SOL    HW1 3182   1.865   0.790   7.893
  882SOL    HW2 3183   1.832   0.745   7.752
  883SOL     OW 3184   0.490   1.415   7.605
  883SOL    HW1 3185   0.415   1.387   7.658
  883SOL    HW2 3186   0.472   1.381   7.518
  884SOL     OW 3187   1.393   0.572   7.519
  884SOL    HW1 3188   1.332   0.552   7.590
  884SOL    HW2 3189   1.478   0.540   7.551
  885SOL     OW 3190   0.524   0.271   7.773
  885SOL    HW1 3191   0.566   0.218   7.705
  885SOL    HW2 3192   0.503   0.354   7.730
  886SOL     OW 3193   0.709   1.061   7.814
  886SOL    HW1 3194   0.693   1.050   7.907
  886SOL    HW2 3195   0.788   1.008   7.797
  887SOL     OW 3196   0.345   1.095   7.928
  887SOL    HW1 3197   0.345   1.179   7.883
  887SOL    HW2 3198   0.348   1.030   7.858
  888SOL     OW 3199   1.223   1.356   7.821
  888SOL    HW1 3200   1.285   1.425   7.845
  888SOL    HW2 3201   1.185   1.328   7.904
  889SOL     OW 3202   1.589   0.626   7.921
  889SOL    HW1 3203   1.574   0.684   7.996
  889SOL    HW2 3204   1.626   0.683   7.854
  890SOL     OW 3205   1.203   0.526   7.715
  890SOL    HW1 3206   1.204   0.439   7.755
  890SOL    HW2 3207   1.182   0.585   7.787
  891SOL     OW 3208   1.617   0.376   7.814
  891SOL    HW1 3209   1.637   0.308   7.878
  891SOL    HW2 3210   1.593   0.453   7.866
  892SOL     OW 3211   1.528   0.272   7.575
  892SOL    HW1 3212   1.465   0.207   7.605
  892SOL    HW2 3213   1.564   0.310   7.656
  893SOL     OW 3214   1.293   0.827   7.481
  893SOL    HW1 3215   1.335   0.741   7.483
  893SOL    HW2 3216   1.324   0.867   7.399
  894SOL     OW 3217   0.003   1.333   7.656
  894SOL    HW1 3218   5.221   1.331   7.608
  894SOL    HW2 3219   0.013   1.244   7.691
  895SOL     OW 3220   0.837   0.601   7.764
  895SOL    HW1 3221   0.829   0.511   7.733
  895SOL    HW2 3222   0.748   0.635   7.764
  896SOL     OW 3223   0.460   0.493   7.632
  896SOL    HW1 3224   0.523   0.563   7.651
  896SOL    HW2 3225   0.376   0.539   7.622
  897SOL     OW 3226   1.312   0.852   7.754
  897SOL    HW1 3227   1.225   0.854   7.795
  897SOL    HW2 3228   1.295   0.841   7.661
  898SOL     OW 3229   1.709   0.131   7.945
  898SOL    HW1 3230   1.783   0.131   7.885
  898SOL    HW2 3231   1.741   0.084   8.023
  899SOL     OW 3232   1.364   1.577   7.896
  899SOL    HW1 3233   1.439   1.597   7.840
  899SOL    HW2 3234   1.332   1.662   7.926
  900SOL     OW 3235   0.668   1.619   7.604
  900SOL    HW1 3236   0.680   1.631   7.509
  900SOL    HW2 3237   0.616   1.539   7.611
  901SOL     OW 3238   1.209   1.607   7.478
  901SOL    HW1 3239   1.198   1.516   7.505
  901SOL    HW2 3240   1.142   1.620   7.411
  902SOL     OW 3241   0.924   0.910   7.754
  902SOL    HW1 3242   0.979   0.934   7.680
  902SOL    HW2 3243   0.922   0.814   7.753
  903SOL     OW 3244   1.493   1.626   7.488
  903SOL    HW1 3245   1.399   1.619   7.476
  903SOL    HW2 3246   1.529   1.631   7.400
  904SOL     OW 3247   0.605   1.505   7.936
  904SOL    HW1 3248   0.650   1.446   7.875
  904SOL    HW2 3249   0.534   1.542   7.884
  905SOL     OW 3250   0.260   1.346   7.742
  905SOL    HW1 3251   0.167   1.351   7.718
  905SOL    HW2 3252   0.263   1.382   7.831
  906SOL     OW 3253   0.078   0.343   7.487
  906SOL    HW1 3254   5.290   0.309   7.470
  906SOL    HW2 3255   0.092   0.407   7.418
  907SOL     OW 3256   0.068   0.143   7.735
  907SOL    HW1 3257   0.068   0.237   7.723
  907SOL    HW2 3258   0.157   0.115   7.714
  908SOL     OW 3259   1.177   1.338   7.556
  908SOL    HW1 3260   1.084   1.313   7.557
  908SOL    HW2 3261   1.200   1.345   7.649
  909SOL     OW 3262   1.222   0.318   7.916
  909SOL    HW1 3263   1.288   0.250   7.910
  909SOL    HW2 3264   1.245   0.367   7.995
  910SOL     OW 3265   0.624   0.742   8.045
  910SOL    HW1 3266   0.629   0.818   0.023
  910SOL    HW2 3267   0.532   0.737   8.019
  911SOL     OW 3268   0.862   1.367   7.483
  911SOL    HW1 3269   0.825   1.397   7.565
  911SOL    HW2 3270   0.882   1.448   7.435
  912SOL     OW 3271   1.071   0.977   7.537
  912SOL    HW1 3272   1.054   1.035   7.463
  912SOL    HW2 3273   1.151   0.930   7.511
  913SOL     OW 3274   0.399   0.428   7.982
  913SOL    HW1 3275   0.446   0.367   7.925
  913SOL    HW2 3276   0.441   0.419   8.067
  914SOL     OW 3277   0.765   1.335   7.762
  914SOL    HW1 3278   0.736   1.244   7.763
  914SOL    HW2 3279   0.847   1.335   7.811
  915SOL     OW 3280   1.363   0.038   7.611
  915SOL    HW1 3281   1.378   5.291   7.529
  915SOL    HW2 3282   1.282   5.298   7.646
  916SOL     OW 3283   0.048   1.070   7.721
  916SOL    HW1 3284   0.137   1.036   7.721
  916SOL    HW2 3285   5.300   1.010   7.779
  917SOL     OW 3286   0.893   1.651   7.780
  917SOL    HW1 3287   0.817   1.628   7.727
  917SOL    HW2 3288   0.859   1.714   7.844
  918SOL     OW 3289   0.223   2.485   0.116
  918SOL    HW1 3290   0.154   2.440   0.164
  918SOL    HW2 3291   0.232   2.436   0.034
  919SOL     OW 3292   0.241   2.137   0.989
  919SOL    HW1 3293   0.256   2.103   1.077
  919SOL    HW2 3294   0.157   2.100   0.962
  920SOL     OW 3295   5.297   2.259   0.648
  920SOL    HW1 3296   5.205   2.287   0.658
  920SOL    HW2 3297   5.291   2.166   0.628
  921SOL     OW 3298   0.574   3.146   1.182
  921SOL    HW1 3299   0.491   3.154   1.135
  921SOL    HW2 3300   0.590   3.234   1.217
  922SOL     OW 3301   1.561   3.374   0.707
  922SOL    HW1 3302   1.518   3.354   0.790
  922SOL    HW2 3303   1.489   3.378   0.644
  923SOL     OW 3304   1.131   2.560   0.701
  923SOL    HW1 3305   1.180   2.641   0.687
  923SOL    HW2 3306   1.084   2.574   0.783
  924SOL     OW 3307   1.771   2.461   0.233
  924SOL    HW1 3308   1.730   2.467   0.147
  924SOL    HW2 3309   1.729   2.386   0.274
  925SOL     OW 3310   0.756   3.003   1.040
  925SOL    HW1 3311   0.689   3.037   1.099
  925SOL    HW2 3312   0.791   3.081   0.996
  926SOL     OW 3313   0.867   2.637   1.822
  926SOL    HW1 3314   0.856   2.708   1.884
  926SOL    HW2 3315   0.890   2.679   1.740
  927SOL     OW 3316   0.684   2.863   0.650
  927SOL    HW1 3317   0.750   2.852   0.718
  927SOL    HW2 3318   0.616   2.917   0.690
  928SOL     OW 3319   0.710   3.013   1.813
  928SOL    HW1 3320   0.758   3.091   1.839
  928SOL    HW2 3321   0.628   3.046   1.777
  929SOL     OW 3322   0.358   3.267   1.060
  929SOL    HW1 3323   0.271   3.264   1.022
  929SOL    HW2 3324   0.406   3.329   1.006
  930SOL     OW 3325   1.461   3.361   1.354
  930SOL    HW1 3326   1.511   3.442   1.364
  930SOL    HW2 3327   1.399   3.364   1.427
  931SOL     OW 3328   0.451   2.262   1.492
  931SOL    HW1 3329   0.524   2.201   1.494
  931SOL    HW2 3330   0.373   2.206   1.502
  932SOL     OW 3331   1.612   2.310   0.740
  932SOL    HW1 3332   1.537   2.332   0.686
  932SOL    HW2 3333   1.626   2.388   0.795
  933SOL     OW 3334   0.217   3.592   0.466
  933SOL    HW1 3335   0.259   3.647   0.531
  933SOL    HW2 3336   0.287   3.570   0.404
  934SOL     OW 3337   1.137   3.203   1.692
  934SOL    HW1 3338   1.177   3.199   1.779
  934SOL    HW2 3339   1.084   3.124   1.686
  935SOL     OW 3340   0.221   3.310   0.533
  935SOL    HW1 3341   0.201   3.404   0.540
  935SOL    HW2 3342   0.159   3.269   0.593
  936SOL     OW 3343   0.253   2.941   0.878
  936SOL    HW1 3344   0.260   2.854   0.918
  936SOL    HW2 3345   0.199   2.991   0.938
  937SOL     OW 3346   0.614   3.652   1.433
  937SOL    HW1 3347   0.530   3.635   1.475
  937SOL    HW2 3348   0.634   3.743   1.455
  938SOL     OW 3349   0.621   2.822   0.137
  938SOL    HW1 3350   0.578   2.902   0.108
  938SOL    HW2 3351   0.677   2.850   0.210
  939SOL     OW 3352   1.596   1.985   1.468
  939SOL    HW1 3353   1.602   2.066   1.417
  939SOL    HW2 3354   1.582   2.015   1.558
  940SOL     OW 3355   0.130   2.497   0.583
  940SOL    HW1 3356   0.087   2.414   0.606
  940SOL    HW2 3357   0.099   2.559   0.649
  941SOL     OW 3358   1.845   3.620   0.332
  941SOL    HW1 3359   1.910   3.590   0.396
  941SOL    HW2 3360   1.870   3.711   0.314
  942SOL     OW 3361   0.032   3.446   0.104
  942SOL    HW1 3362   0.024   3.361   0.147
  942SOL    HW2 3363   0.006   3.509   0.172
  943SOL     OW 3364   1.687   2.780   0.643
  943SOL    HW1 3365   1.770   2.739   0.620
  943SOL    HW2 3366   1.665   2.833   0.566
  944SOL     OW 3367   1.646   2.966   0.435
  944SOL    HW1 3368   1.726   2.981   0.384
  944SOL    HW2 3369   1.651   3.029   0.507
  945SOL     OW 3370   0.131   2.610   1.585
  945SOL    HW1 3371   0.226   2.624   1.587
  945SOL    HW2 3372   0.093   2.697   1.601
  946SOL     OW 3373   0.615   3.248   0.734
  946SOL    HW1 3374   0.568   3.166   0.745
  946SOL    HW2 3375   0.598   3.274   0.643
  947SOL     OW 3376   1.289   3.100   1.424
  947SOL    HW1 3377   1.321   3.033   1.363
  947SOL    HW2 3378   1.346   3.094   1.500
  948SOL     OW 3379   0.824   1.864   0.512
  948SOL    HW1 3380   0.862   1.948   0.490
  948SOL    HW2 3381   0.729   1.881   0.517
  949SOL     OW 3382   0.177   2.808   1.279
  949SOL    HW1 3383   0.267   2.778   1.269
  949SOL    HW2 3384   0.135   2.784   1.196
  950SOL     OW 3385   1.509   2.869   0.213
  950SOL    HW1 3386   1.448   2.803   0.246
  950SOL    HW2 3387   1.562   2.894   0.289
  951SOL     OW 3388   1.186   3.668   1.622
  951SOL    HW1 3389   1.195   3.727   1.548
  951SOL    HW2 3390   1.202   3.581   1.586
  952SOL     OW 3391   0.337   2.115   1.817
  952SOL    HW1 3392   0.383   2.198   1.830
  952SOL    HW2 3393   0.249   2.132   1.852
  953SOL     OW 3394   1.467   3.281   0.952
  953SOL    HW1 3395   1.398   3.297   1.017
  953SOL    HW2 3396   1.454   3.190   0.925
  954SOL     OW 3397   1.659   3.602   0.581
  954SOL    HW1 3398   1.638   3.574   0.492
  954SOL    HW2 3399   1.634   3.528   0.637
  955SOL     OW 3400   0.597   2.575   0.281
  955SOL    HW1 3401   0.617   2.654   0.230
  955SOL    HW2 3402   0.534   2.604   0.347
  956SOL     OW 3403   1.279   2.214   0.932
  956SOL    HW1 3404   1.190   2.182   0.941
  956SOL    HW2 3405   1.330   2.161   0.994
  957SOL     OW 3406   1.587   3.533   0.319
  957SOL    HW1 3407   1.678   3.562   0.312
  957SOL    HW2 3408   1.560   3.516   0.229
  958SOL     OW 3409   0.792   2.479   1.451
  958SOL    HW1 3410   0.765   2.456   1.540
  958SOL    HW2 3411   0.752   2.413   1.395
  959SOL     OW 3412   1.394   2.336   1.678
  959SOL    HW1 3413   1.396   2.381   1.762
  959SOL    HW2 3414   1.455   2.263   1.688
  960SOL     OW 3415   0.955   2.749   1.583
  960SOL    HW1 3416   1.009   2.679   1.547
  960SOL    HW2 3417   0.907   2.784   1.507
  961SOL     OW 3418   0.992   2.274   1.239
  961SOL    HW1 3419   0.907   2.296   1.276
  961SOL    HW2 3420   0.972   2.228   1.157
  962SOL     OW 3421   1.052   2.561   0.427
  962SOL    HW1 3422   1.068   2.554   0.521
  962SOL    HW2 3423   0.970   2.514   0.413
  963SOL     OW 3424   0.068   2.651   0.816
  963SOL    HW1 3425   0.151   2.655   0.863
  963SOL    HW2 3426   0.066   2.730   0.763
  964SOL     OW 3427   0.130   3.746   1.585
  964SOL    HW1 3428   0.133   3.716   1.676
  964SOL    HW2 3429   0.059   3.695   1.545
  965SOL     OW 3430   0.885   2.219   0.202
  965SOL    HW1 3431   0.930   2.269   0.133
  965SOL    HW2 3432   0.885   2.129   0.170
  966SOL     OW 3433   1.709   2.437   1.828
  966SOL    HW1 3434   1.671   2.511   1.781
  966SOL    HW2 3435   1.736   2.375   1.759
  967SOL     OW 3436   1.376   3.003   0.541
  967SOL    HW1 3437   1.455   2.991   0.487
  967SOL    HW2 3438   1.323   3.066   0.492
  968SOL     OW 3439   0.555   2.046   0.893
  968SOL    HW1 3440   0.552   2.073   0.985
  968SOL    HW2 3441   0.553   2.128   0.844
  969SOL     OW 3442   1.005   3.306   0.473
  969SOL    HW1 3443   0.967   3.379   0.423
  969SOL    HW2 3444   0.986   3.328   0.564
  970SOL     OW 3445   0.357   3.664   0.868
  970SOL    HW1 3446   0.398   3.578   0.882
  970SOL    HW2 3447   0.423   3.727   0.899
  971SOL     OW 3448   1.798   2.917   0.869
  971SOL    HW1 3449   1.743   2.901   0.792
  971SOL    HW2 3450   1.737   2.924   0.942
  972SOL     OW 3451   1.228   3.401   1.513
  972SOL    HW1 3452   1.214   3.328   1.573
  972SOL    HW2 3453   1.164   3.387   1.443
  973SOL     OW 3454   0.331   2.813   0.252
  973SOL    HW1 3455   0.411   2.826   0.201
  973SOL    HW2 3456   0.313   2.720   0.246
  974SOL     OW 3457   1.478   2.603   0.726
  974SOL    HW1 3458   1.470   2.562   0.812
  974SOL    HW2 3459   1.555   2.660   0.735
  975SOL     OW 3460   0.465   3.126   1.737
  975SOL    HW1 3461   0.438   3.132   1.646
  975SOL    HW2 3462   0.383   3.126   1.787
  976SOL     OW 3463   1.108   3.643   0.224
  976SOL    HW1 3464   1.052   3.603   0.290
  976SOL    HW2 3465   1.128   3.572   0.163
  977SOL     OW 3466   0.205   2.142   1.497
  977SOL    HW1 3467   0.126   2.194   1.481
  977SOL    HW2 3468   0.173   2.063   1.541
  978SOL     OW 3469   1.633   3.235   0.083
  978SOL    HW1 3470   1.592   3.321   0.082
  978SOL    HW2 3471   1.562   3.174   0.064
  979SOL     OW 3472   0.470   3.596   0.325
  979SOL    HW1 3473   0.513   3.656   0.386
  979SOL    HW2 3474   0.540   3.570   0.265
  980SOL     OW 3475   1.407   1.973   0.444
  980SOL    HW1 3476   1.398   1.952   0.351
  980SOL    HW2 3477   1.502   1.980   0.458
  981SOL     OW 3478   0.277   3.663   1.213
  981SOL    HW1 3479   0.306   3.586   1.261
  981SOL    HW2 3480   0.225   3.628   1.141
  982SOL     OW 3481   0.938   3.561   0.899
  982SOL    HW1 3482   1.016   3.509   0.920
  982SOL    HW2 3483   0.894   3.511   0.830
  983SOL     OW 3484   0.382   2.561   0.476
  983SOL    HW1 3485   0.414   2.471   0.485
  983SOL    HW2 3486   0.290   2.556   0.502
  984SOL     OW 3487   1.535   2.087   1.725
  984SOL    HW1 3488   1.545   2.108   1.818
  984SOL    HW2 3489   1.466   2.021   1.722
  985SOL     OW 3490   0.628   1.972   0.137
  985SOL    HW1 3491   0.723   1.961   0.141
  985SOL    HW2 3492   0.607   1.954   0.045
  986SOL     OW 3493   0.767   2.140   1.754
  986SOL    HW1 3494   0.842   2.081   1.756
  986SOL    HW2 3495   0.718   2.118   1.833
  987SOL     OW 3496   0.877   3.384   1.193
  987SOL    HW1 3497   0.861   3.347   1.106
  987SOL    HW2 3498   0.947   3.329   1.229
  988SOL     OW 3499   1.341   2.450   1.432
  988SOL    HW1 3500   1.371   2.420   1.517
  988SOL    HW2 3501   1.376   2.539   1.424
  989SOL     OW 3502   0.815   3.256   0.940
  989SOL    HW1 3503   0.900   3.245   0.895
  989SOL    HW2 3504   0.751   3.258   0.869
  990SOL     OW 3505   0.928   2.371   0.902
  990SOL    HW1 3506   0.904   2.363   0.810
  990SOL    HW2 3507   0.959   2.284   0.927
  991SOL     OW 3508   0.560   1.924   0.500
  991SOL    HW1 3509   0.485   1.923   0.559
  991SOL    HW2 3510   0.549   2.003   0.447
  992SOL     OW 3511   1.433   3.061   0.036
  992SOL    HW1 3512   1.457   2.987   0.092
  992SOL    HW2 3513   1.345   3.086   0.065
  993SOL     OW 3514   0.314   1.909   0.175
  993SOL    HW1 3515   0.378   1.979   0.179
  993SOL    HW2 3516   0.356   1.835   0.218
  994SOL     OW 3517   0.941   2.109   0.459
  994SOL    HW1 3518   0.913   2.151   0.377
  994SOL    HW2 3519   1.035   2.126   0.463
  995SOL     OW 3520   1.080   2.543   1.460
  995SOL    HW1 3521   1.011   2.476   1.464
  995SOL    HW2 3522   1.161   2.492   1.453
  996SOL     OW 3523   1.224   3.431   0.794
  996SOL    HW1 3524   1.239   3.498   0.727
  996SOL    HW2 3525   1.291   3.447   0.860
  997SOL     OW 3526   0.468   3.013   0.732
  997SOL    HW1 3527   0.399   2.993   0.795
  997SOL    HW2 3528   0.428   2.997   0.646
  998SOL     OW 3529   1.268   3.656   0.607
  998SOL    HW1 3530   1.317   3.719   0.555
  998SOL    HW2 3531   1.201   3.708   0.651
  999SOL     OW 3532   1.031   2.390   0.032
  999SOL    HW1 3533   0.990   2.471   0.000
  999SOL    HW2 3534   1.094   2.419   0.098
 1000SOL     OW 3535   0.088   2.407   1.398
 1000SOL    HW1 3536   0.176   2.414   1.361
 1000SOL    HW2 3537   0.080   2.483   1.456
 1001SOL     OW 3538   0.560   2.089   1.166
 1001SOL    HW1 3539   0.598   2.010   1.203
 1001SOL    HW2 3540   0.469   2.088   1.194
 1002SOL     OW 3541   0.867   2.320   0.639
 1002SOL    HW1 3542   0.825   2.376   0.574
 1002SOL    HW2 3543   0.889   2.240   0.592
 1003SOL     OW 3544   1.016   1.914   0.750
 1003SOL    HW1 3545   0.956   1.908   0.676
 1003SOL    HW2 3546   0.994   1.839   0.806
 1004SOL     OW 3547   1.437   3.024   0.857
 1004SOL    HW1 3548   1.367   2.959   0.856
 1004SOL    HW2 3549   1.461   3.036   0.765
 1005SOL     OW 3550   1.466   2.467   0.976
 1005SOL    HW1 3551   1.415   2.386   0.980
 1005SOL    HW2 3552   1.526   2.461   1.051
 1006SOL     OW 3553   1.850   2.677   0.389
 1006SOL    HW1 3554   1.902   2.622   0.449
 1006SOL    HW2 3555   1.819   2.615   0.322
 1007SOL     OW 3556   0.483   3.302   0.173
 1007SOL    HW1 3557   0.410   3.263   0.222
 1007SOL    HW2 3558   0.488   3.252   0.092
 1008SOL     OW 3559   1.670   3.127   0.648
 1008SOL    HW1 3560   1.765   3.130   0.661
 1008SOL    HW2 3561   1.640   3.215   0.668
 1009SOL     OW 3562   1.399   2.440   0.087
 1009SOL    HW1 3563   1.336   2.421   0.157
 1009SOL    HW2 3564   1.454   2.362   0.082
 1010SOL     OW 3565   0.515   2.125   0.323
 1010SOL    HW1 3566   0.565   2.074   0.260
 1010SOL    HW2 3567   0.501   2.209   0.280
 1011SOL     OW 3568   1.752   3.101   1.574
 1011SOL    HW1 3569   1.840   3.063   1.567
 1011SOL    HW2 3570   1.767   3.191   1.602
 1012SOL     OW 3571   1.058   3.215   1.333
 1012SOL    HW1 3572   0.984   3.184   1.384
 1012SOL    HW2 3573   1.134   3.174   1.375
 1013SOL     OW 3574   1.608   3.487   1.654
 1013SOL    HW1 3575   1.602   3.521   1.565
 1013SOL    HW2 3576   1.691   3.440   1.656
 1014SOL     OW 3577   1.129   3.065   1.105
 1014SOL    HW1 3578   1.070   3.103   1.170
 1014SOL    HW2 3579   1.096   3.098   1.021
 1015SOL     OW 3580   1.628   2.960   1.078
 1015SOL    HW1 3581   1.623   3.022   1.150
 1015SOL    HW2 3582   1.549   2.977   1.026
 1016SOL     OW 3583   0.919   1.958   1.397
 1016SOL    HW1 3584   0.941   1.940   1.306
 1016SOL    HW2 3585   0.998   1.998   1.433
 1017SOL     OW 3586   0.984   2.976   1.723
 1017SOL    HW1 3587   0.892   2.993   1.743
 1017SOL    HW2 3588   0.983   2.899   1.667
 1018SOL     OW 3589   0.714   2.924   0.381
 1018SOL    HW1 3590   0.697   2.907   0.473
 1018SOL    HW2 3591   0.792   2.872   0.360
 1019SOL     OW 3592   0.420   2.681   1.252
 1019SOL    HW1 3593   0.489   2.688   1.318
 1019SOL    HW2 3594   0.386   2.592   1.263
 1020SOL     OW 3595   1.265   2.239   1.275
 1020SOL    HW1 3596   1.298   2.316   1.321
 1020SOL    HW2 3597   1.175   2.261   1.252
 1021SOL     OW 3598   0.102   3.485   1.367
 1021SOL    HW1 3599   0.079   3.493   1.274
 1021SOL    HW2 3600   0.188   3.443   1.368
 1022SOL     OW 3601   0.346   2.970   0.487
 1022SOL    HW1 3602   0.345   3.050   0.434
 1022SOL    HW2 3603   0.359   2.899   0.424
 1023SOL     OW 3604   0.554   2.397   0.859
 1023SOL    HW1 3605   0.569   2.456   0.785
 1023SOL    HW2 3606   0.618   2.424   0.925
 1024SOL     OW 3607   1.247   3.209   0.394
 1024SOL    HW1 3608   1.303   3.282   0.422
 1024SOL    HW2 3609   1.160   3.232   0.425
 1025SOL     OW 3610   1.281   3.319   1.147
 1025SOL    HW1 3611   1.337   3.322   1.225
 1025SOL    HW2 3612   1.225   3.243   1.160
 1026SOL     OW 3613   1.583   2.486   0.482
 1026SOL    HW1 3614   1.533   2.535   0.546
 1026SOL    HW2 3615   1.617   2.552   0.421
 1027SOL     OW 3616   0.352   3.381   1.311
 1027SOL    HW1 3617   0.341   3.338   1.226
 1027SOL    HW2 3618   0.445   3.399   1.317
 1028SOL     OW 3619   0.414   2.604   1.602
 1028SOL    HW1 3620   0.475   2.651   1.544
 1028SOL    HW2 3621   0.453   2.518   1.615
 1029SOL     OW 3622   1.601   2.640   1.682
 1029SOL    HW1 3623   1.515   2.682   1.675
 1029SOL    HW2 3624   1.653   2.683   1.613
 1030SOL     OW 3625   0.996   1.985   1.755
 1030SOL    HW1 3626   1.051   2.058   1.727
 1030SOL    HW2 3627   1.044   1.907   1.730
 1031SOL     OW 3628   0.497   1.903   1.748
 1031SOL    HW1 3629   0.455   1.849   1.681
 1031SOL    HW2 3630   0.438   1.977   1.760
 1032SOL     OW 3631   0.586   2.735   1.033
 1032SOL    HW1 3632   0.616   2.826   1.031
 1032SOL    HW2 3633   0.529   2.730   1.109
 1033SOL     OW 3634   1.358   2.720   1.030
 1033SOL    HW1 3635   1.275   2.712   0.983
 1033SOL    HW2 3636   1.398   2.634   1.024
 1034SOL     OW 3637   1.204   2.390   0.271
 1034SOL    HW1 3638   1.211   2.311   0.325
 1034SOL    HW2 3639   1.161   2.454   0.328
 1035SOL     OW 3640   0.301   2.065   1.248
 1035SOL    HW1 3641   0.267   2.090   1.333
 1035SOL    HW2 3642   0.289   1.971   1.243
 1036SOL     OW 3643   0.069   3.181   1.280
 1036SOL    HW1 3644   0.091   3.121   1.352
 1036SOL    HW2 3645   5.299   3.236   1.316
 1037SOL     OW 3646   0.724   2.493   1.058
 1037SOL    HW1 3647   0.799   2.477   1.000
 1037SOL    HW2 3648   0.696   2.582   1.037
 1038SOL     OW 3649   1.735   2.821   1.853
 1038SOL    HW1 3650   1.688   2.760   1.795
 1038SOL    HW2 3651   1.675   2.835   1.926
 1039SOL     OW 3652   0.325   1.925   0.635
 1039SOL    HW1 3653   0.309   2.015   0.664
 1039SOL    HW2 3654   0.332   1.874   0.716
 1040SOL     OW 3655   1.621   2.237   0.370
 1040SOL    HW1 3656   1.645   2.172   0.436
 1040SOL    HW2 3657   1.595   2.314   0.420
 1041SOL     OW 3658   1.028   2.621   0.960
 1041SOL    HW1 3659   1.024   2.638   1.055
 1041SOL    HW2 3660   1.001   2.529   0.952
 1042SOL     OW 3661   0.982   3.428   1.717
 1042SOL    HW1 3662   0.967   3.472   1.634
 1042SOL    HW2 3663   1.026   3.346   1.693
 1043SOL     OW 3664   1.855   3.368   1.605
 1043SOL    HW1 3665   1.873   3.394   1.515
 1043SOL    HW2 3666   1.936   3.386   1.652
 1044SOL     OW 3667   0.354   2.780   1.806
 1044SOL    HW1 3668   0.435   2.799   1.853
 1044SOL    HW2 3669   0.379   2.715   1.741
 1045SOL     OW 3670   1.519   2.162   0.127
 1045SOL    HW1 3671   1.469   2.082   0.143
 1045SOL    HW2 3672   1.558   2.183   0.211
 1046SOL     OW 3673   1.295   2.686   0.021
 1046SOL    HW1 3674   1.334   2.600   0.038
 1046SOL    HW2 3675   1.355   2.728   8.040
 1047SOL     OW 3676   1.066   3.198   0.854
 1047SOL    HW1 3677   1.069   3.125   0.791
 1047SOL    HW2 3678   1.127   3.262   0.819
 1048SOL     OW 3679   0.314   2.671   0.950
 1048SOL    HW1 3680   0.407   2.690   0.946
 1048SOL    HW2 3681   0.309   2.581   0.982
 1049SOL     OW 3682   0.335   2.387   1.015
 1049SOL    HW1 3683   0.300   2.299   1.001
 1049SOL    HW2 3684   0.410   2.393   0.956
 1050SOL     OW 3685   1.134   2.238   1.682
 1050SOL    HW1 3686   1.086   2.293   1.744
 1050SOL    HW2 3687   1.222   2.276   1.678
 1051SOL     OW 3688   1.161   2.065   1.470
 1051SOL    HW1 3689   1.150   2.127   1.542
 1051SOL    HW2 3690   1.200   2.115   1.399
 1052SOL     OW 3691   0.009   3.190   0.202
 1052SOL    HW1 3692   5.236   3.176   0.142
 1052SOL    HW2 3693   0.014   3.110   0.254
 1053SOL     OW 3694   0.093   3.644   0.949
 1053SOL    HW1 3695   0.059   3.573   0.895
 1053SOL    HW2 3696   0.181   3.660   0.915
 1054SOL     OW 3697   0.505   3.435   0.907
 1054SOL    HW1 3698   0.572   3.500   0.928
 1054SOL    HW2 3699   0.548   3.374   0.848
 1055SOL     OW 3700   0.983   2.653   1.226
 1055SOL    HW1 3701   1.039   2.631   1.301
 1055SOL    HW2 3702   0.897   2.617   1.249
 1056SOL     OW 3703   0.033   2.420   1.115
 1056SOL    HW1 3704   0.120   2.399   1.083
 1056SOL    HW2 3705   0.037   2.405   1.210
 1057SOL     OW 3706   0.174   2.375   1.712
 1057SOL    HW1 3707   0.240   2.338   1.652
 1057SOL    HW2 3708   0.146   2.456   1.670
 1058SOL     OW 3709   1.377   2.801   1.659
 1058SOL    HW1 3710   1.398   2.894   1.657
 1058SOL    HW2 3711   1.374   2.775   1.566
 1059SOL     OW 3712   0.819   2.431   0.367
 1059SOL    HW1 3713   0.828   2.360   0.304
 1059SOL    HW2 3714   0.742   2.480   0.336
 1060SOL     OW 3715   1.641   2.463   1.186
 1060SOL    HW1 3716   1.631   2.404   1.261
 1060SOL    HW2 3717   1.728   2.443   1.151
 1061SOL     OW 3718   0.257   3.418   1.735
 1061SOL    HW1 3719   0.234   3.481   1.803
 1061SOL    HW2 3720   0.249   3.332   1.777
 1062SOL     OW 3721   0.702   2.312   1.260
 1062SOL    HW1 3722   0.649   2.238   1.230
 1062SOL    HW2 3723   0.697   2.375   1.188
 1063SOL     OW 3724   0.929   3.541   1.467
 1063SOL    HW1 3725   0.902   3.506   1.382
 1063SOL    HW2 3726   0.923   3.636   1.458
 1064SOL     OW 3727   0.467   2.352   0.180
 1064SOL    HW1 3728   0.532   2.418   0.200
 1064SOL    HW2 3729   0.383   2.398   0.183
 1065SOL     OW 3730   0.148   2.999   1.471
 1065SOL    HW1 3731   0.146   2.951   1.553
 1065SOL    HW2 3732   0.160   2.932   1.404
 1066SOL     OW 3733   1.326   2.909   1.223
 1066SOL    HW1 3734   1.349   2.846   1.155
 1066SOL    HW2 3735   1.255   2.961   1.184
 1067SOL     OW 3736   1.306   2.710   0.308
 1067SOL    HW1 3737   1.228   2.682   0.356
 1067SOL    HW2 3738   1.283   2.699   0.216
 1068SOL     OW 3739   1.771   3.606   1.150
 1068SOL    HW1 3740   1.832   3.632   1.081
 1068SOL    HW2 3741   1.748   3.516   1.129
 1069SOL     OW 3742   1.241   3.595   1.113
 1069SOL    HW1 3743   1.323   3.616   1.068
 1069SOL    HW2 3744   1.247   3.501   1.131
 1070SOL     OW 3745   0.083   3.079   1.027
 1070SOL    HW1 3746   0.069   3.104   1.119
 1070SOL    HW2 3747   5.294   3.068   0.992
 1071SOL     OW 3748   0.678   3.528   1.729
 1071SOL    HW1 3749   0.622   3.606   1.724
 1071SOL    HW2 3750   0.742   3.540   1.659
 1072SOL     OW 3751   0.905   1.953   0.133
 1072SOL    HW1 3752   0.924   1.938   0.040
 1072SOL    HW2 3753   0.969   1.900   0.179
 1073SOL     OW 3754   1.720   2.007   0.510
 1073SOL    HW1 3755   1.792   1.991   0.449
 1073SOL    HW2 3756   1.704   1.922   0.552
 1074SOL     OW 3757   1.390   3.430   0.486
 1074SOL    HW1 3758   1.453   3.463   0.422
 1074SOL    HW2 3759   1.342   3.508   0.515
 1075SOL     OW 3760   0.145   3.659   1.842
 1075SOL    HW1 3761   0.090   3.597   1.889
 1075SOL    HW2 3762   0.191   3.707   1.911
 1076SOL     OW 3763   1.277   2.787   0.671
 1076SOL    HW1 3764   1.351   2.726   0.677
 1076SOL    HW2 3765   1.311   2.860   0.619
 1077SOL     OW 3766   0.814   3.135   1.430
 1077SOL    HW1 3767   0.786   3.175   1.512
 1077SOL    HW2 3768   0.745   3.156   1.368
 1078SOL     OW 3769   0.678   3.482   0.155
 1078SOL    HW1 3770   0.681   3.490   0.060
 1078SOL    HW2 3771   0.617   3.410   0.171
 1079SOL     OW 3772   1.626   3.588   1.391
 1079SOL    HW1 3773   1.676   3.595   1.310
 1079SOL    HW2 3774   1.612   3.679   1.419
 1080SOL     OW 3775   1.840   2.035   0.966
 1080SOL    HW1 3776   1.869   1.947   0.940
 1080SOL    HW2 3777   1.754   2.045   0.927
 1081SOL     OW 3778   0.270   2.179   0.717
 1081SOL    HW1 3779   0.187   2.222   0.698
 1081SOL    HW2 3780   0.271   2.168   0.812
 1082SOL     OW 3781   1.157   3.443   0.051
 1082SOL    HW1 3782   1.172   3.350   0.071
 1082SOL    HW2 3783   1.168   3.450   8.036
 1083SOL     OW 3784   0.824   2.868   1.372
 1083SOL    HW1 3785   0.867   2.864   1.287
 1083SOL    HW2 3786   0.823   2.961   1.395
 1084SOL     OW 3787   0.918   2.775   0.297
 1084SOL    HW1 3788   0.972   2.800   0.222
 1084SOL    HW2 3789   0.966   2.704   0.339
 1085SOL     OW 3790   1.510   3.486   0.061
 1085SOL    HW1 3791   1.415   3.486   0.049
 1085SOL    HW2 3792   1.545   3.487   8.052
 1086SOL     OW 3793   0.368   3.166   1.493
 1086SOL    HW1 3794   0.359   3.240   1.434
 1086SOL    HW2 3795   0.292   3.111   1.474
 1087SOL     OW 3796   1.610   3.145   1.280
 1087SOL    HW1 3797   1.671   3.135   1.354
 1087SOL    HW2 3798   1.550   3.214   1.308
 1088SOL     OW 3799   1.052   2.969   0.707
 1088SOL    HW1 3800   0.981   2.918   0.746
 1088SOL    HW2 3801   1.114   2.904   0.675
 1089SOL     OW 3802   1.022   2.102   0.966
 1089SOL    HW1 3803   1.017   2.055   0.883
 1089SOL    HW2 3804   1.016   2.034   1.033
 1090SOL     OW 3805   0.602   3.349   0.479
 1090SOL    HW1 3806   0.645   3.300   0.409
 1090SOL    HW2 3807   0.534   3.400   0.435
 1091SOL     OW 3808   1.722   2.254   1.380
 1091SOL    HW1 3809   1.794   2.318   1.378
 1091SOL    HW2 3810   1.752   2.183   1.324
 1092SOL     OW 3811   0.269   3.187   0.300
 1092SOL    HW1 3812   0.184   3.197   0.258
 1092SOL    HW2 3813   0.261   3.234   0.383
 1093SOL     OW 3814   0.116   2.878   1.718
 1093SOL    HW1 3815   0.045   2.843   1.772
 1093SOL    HW2 3816   0.196   2.847   1.760
 1094SOL     OW 3817   0.674   2.058   1.499
 1094SOL    HW1 3818   0.758   2.038   1.458
 1094SOL    HW2 3819   0.697   2.090   1.587
 1095SOL     OW 3820   0.041   2.254   0.028
 1095SOL    HW1 3821   0.019   2.167   0.061
 1095SOL    HW2 3822   0.123   2.241   8.059
 1096SOL     OW 3823   1.430   2.720   1.400
 1096SOL    HW1 3824   1.381   2.781   1.345
 1096SOL    HW2 3825   1.519   2.723   1.366
 1097SOL     OW 3826   0.052   1.997   0.216
 1097SOL    HW1 3827   0.054   2.084   0.256
 1097SOL    HW2 3828   0.144   1.973   0.206
 1098SOL     OW 3829   1.184   3.179   0.122
 1098SOL    HW1 3830   1.089   3.170   0.121
 1098SOL    HW2 3831   1.207   3.182   0.214
 1099SOL     OW 3832   0.619   2.693   1.435
 1099SOL    HW1 3833   0.676   2.769   1.419
 1099SOL    HW2 3834   0.680   2.619   1.443
 1100SOL     OW 3835   1.484   3.638   0.978
 1100SOL    HW1 3836   1.507   3.698   0.908
 1100SOL    HW2 3837   1.567   3.620   1.023
 1101SOL     OW 3838   0.717   2.426   1.704
 1101SOL    HW1 3839   0.758   2.489   1.764
 1101SOL    HW2 3840   0.745   2.340   1.737
 1102SOL     OW 3841   1.472   3.062   1.632
 1102SOL    HW1 3842   1.459   3.076   1.726
 1102SOL    HW2 3843   1.565   3.077   1.617
 1103SOL     OW 3844   0.378   3.604   1.564
 1103SOL    HW1 3845   0.295   3.650   1.548
 1103SOL    HW2 3846   0.352   3.524   1.609
 1104SOL     OW 3847   1.670   2.743   1.255
 1104SOL    HW1 3848   1.662   2.658   1.212
 1104SOL    HW2 3849   1.660   2.807   1.185
 1105SOL     OW 3850   1.217   2.180   0.460
 1105SOL    HW1 3851   1.282   2.110   0.453
 1105SOL    HW2 3852   1.245   2.231   0.536
 1106SOL     OW 3853   0.589   2.599   0.669
 1106SOL    HW1 3854   0.628   2.685   0.655
 1106SOL    HW2 3855   0.519   2.594   0.604
 1107SOL     OW 3856   1.762   2.224   1.650
 1107SOL    HW1 3857   1.745   2.239   1.557
 1107SOL    HW2 3858   1.691   2.167   1.679
 1108SOL     OW 3859   1.745   2.795   1.512
 1108SOL    HW1 3860   1.742   2.890   1.526
 1108SOL    HW2 3861   1.730   2.784   1.418
 1109SOL     OW 3862   0.895   3.234   0.036
 1109SOL    HW1 3863   0.831   3.225   0.107
 1109SOL    HW2 3864   0.878   3.321   0.000
 1110SOL     OW 3865   0.663   3.656   0.944
 1110SOL    HW1 3866   0.642   3.746   0.921
 1110SOL    HW2 3867   0.758   3.651   0.937
 1111SOL     OW 3868   0.867   2.828   0.855
 1111SOL    HW1 3869   0.918   2.757   0.895
 1111SOL    HW2 3870   0.833   2.878   0.929
 1112SOL     OW 3871   1.076   2.838   0.085
 1112SOL    HW1 3872   1.067   2.903   0.016
 1112SOL    HW2 3873   1.154   2.788   0.061
 1113SOL     OW 3874   1.854   3.416   0.844
 1113SOL    HW1 3875   1.775   3.405   0.791
 1113SOL    HW2 3876   1.845   3.351   0.913
 1114SOL     OW 3877   0.225   3.167   1.860
 1114SOL    HW1 3878   0.157   3.104   1.834
 1114SOL    HW2 3879   0.214   3.177   1.954
 1115SOL     OW 3880   0.094   3.095   0.661
 1115SOL    HW1 3881   0.099   3.050   0.745
 1115SOL    HW2 3882   0.170   3.063   0.611
 1116SOL     OW 3883   0.681   3.264   1.629
 1116SOL    HW1 3884   0.601   3.222   1.658
 1116SOL    HW2 3885   0.677   3.353   1.664
 1117SOL     OW 3886   1.814   2.047   1.238
 1117SOL    HW1 3887   1.822   1.952   1.252
 1117SOL    HW2 3888   1.823   2.057   1.143
 1118SOL     OW 3889   0.432   2.301   0.523
 1118SOL    HW1 3890   0.462   2.228   0.469
 1118SOL    HW2 3891   0.387   2.259   0.597
 1119SOL     OW 3892   1.701   3.351   1.096
 1119SOL    HW1 3893   1.619   3.328   1.051
 1119SOL    HW2 3894   1.712   3.282   1.161
 1120SOL     OW 3895   0.336   2.421   1.291
 1120SOL    HW1 3896   0.389   2.362   1.345
 1120SOL    HW2 3897   0.350   2.392   1.202
 1121SOL     OW 3898   0.828   3.439   0.678
 1121SOL    HW1 3899   0.815   3.494   0.600
 1121SOL    HW2 3900   0.751   3.382   0.680
 1122SOL     OW 3901   1.432   2.087   1.118
 1122SOL    HW1 3902   1.455   2.007   1.164
 1122SOL    HW2 3903   1.380   2.137   1.181
 1123SOL     OW 3904   1.009   1.881   1.142
 1123SOL    HW1 3905   0.954   1.813   1.102
 1123SOL    HW2 3906   1.097   1.843   1.144
 1124SOL     OW 3907   0.771   3.188   0.307
 1124SOL    HW1 3908   0.740   3.099   0.323
 1124SOL    HW2 3909   0.852   3.195   0.358
 1125SOL     OW 3910   0.623   3.418   1.287
 1125SOL    HW1 3911   0.624   3.500   1.336
 1125SOL    HW2 3912   0.710   3.412   1.247
 1126SOL     OW 3913   1.356   1.916   0.184
 1126SOL    HW1 3914   1.377   1.869   0.104
 1126SOL    HW2 3915   1.270   1.883   0.210
 1127SOL     OW 3916   1.297   2.323   0.681
 1127SOL    HW1 3917   1.244   2.402   0.688
 1127SOL    HW2 3918   1.292   2.284   0.768
 1128SOL     OW 3919   1.587   2.064   0.878
 1128SOL    HW1 3920   1.526   2.084   0.949
 1128SOL    HW2 3921   1.586   2.143   0.823
 1129SOL     OW 3922   0.046   2.939   0.319
 1129SOL    HW1 3923   0.135   2.915   0.292
 1129SOL    HW2 3924   5.298   2.856   0.319
 1130SOL     OW 3925   0.883   3.515   0.347
 1130SOL    HW1 3926   0.815   3.499   0.282
 1130SOL    HW2 3927   0.852   3.591   0.396
 1131SOL     OW 3928   0.233   2.494   1.978
 1131SOL    HW1 3929   0.160   2.460   2.030
 1131SOL    HW2 3930   0.218   2.459   1.890
 1132SOL     OW 3931   0.242   2.137   2.852
 1132SOL    HW1 3932   0.256   2.103   2.940
 1132SOL    HW2 3933   0.158   2.101   2.824
 1133SOL     OW 3934   5.298   2.260   2.515
 1133SOL    HW1 3935   5.205   2.282   2.521
 1133SOL    HW2 3936   5.299   2.170   2.484
 1134SOL     OW 3937   0.574   3.146   3.044
 1134SOL    HW1 3938   0.491   3.154   2.996
 1134SOL    HW2 3939   0.590   3.234   3.079
 1135SOL     OW 3940   1.561   3.373   2.569
 1135SOL    HW1 3941   1.518   3.354   2.652
 1135SOL    HW2 3942   1.490   3.378   2.505
 1136SOL     OW 3943   1.130   2.560   2.563
 1136SOL    HW1 3944   1.179   2.641   2.549
 1136SOL    HW2 3945   1.084   2.574   2.645
 1137SOL     OW 3946   1.769   2.467   2.091
 1137SOL    HW1 3947   1.747   2.460   1.997
 1137SOL    HW2 3948   1.731   2.388   2.130
 1138SOL     OW 3949   0.755   3.003   2.901
 1138SOL    HW1 3950   0.688   3.037   2.960
 1138SOL    HW2 3951   0.791   3.081   2.858
 1139SOL     OW 3952   0.866   2.637   3.684
 1139SOL    HW1 3953   0.857   2.708   3.746
 1139SOL    HW2 3954   0.890   2.679   3.601
 1140SOL     OW 3955   0.685   2.864   2.509
 1140SOL    HW1 3956   0.751   2.852   2.578
 1140SOL    HW2 3957   0.617   2.918   2.551
 1141SOL     OW 3958   0.709   3.012   3.675
 1141SOL    HW1 3959   0.758   3.091   3.701
 1141SOL    HW2 3960   0.628   3.046   3.639
 1142SOL     OW 3961   0.358   3.267   2.922
 1142SOL    HW1 3962   0.270   3.267   2.885
 1142SOL    HW2 3963   0.407   3.329   2.868
 1143SOL     OW 3964   1.461   3.362   3.217
 1143SOL    HW1 3965   1.512   3.443   3.226
 1143SOL    HW2 3966   1.398   3.365   3.289
 1144SOL     OW 3967   0.451   2.262   3.354
 1144SOL    HW1 3968   0.525   2.202   3.356
 1144SOL    HW2 3969   0.373   2.206   3.364
 1145SOL     OW 3970   1.612   2.311   2.602
 1145SOL    HW1 3971   1.537   2.331   2.547
 1145SOL    HW2 3972   1.624   2.389   2.655
 1146SOL     OW 3973   0.231   3.576   2.340
 1146SOL    HW1 3974   0.264   3.645   2.397
 1146SOL    HW2 3975   0.294   3.573   2.267
 1147SOL     OW 3976   1.136   3.204   3.555
 1147SOL    HW1 3977   1.177   3.199   3.641
 1147SOL    HW2 3978   1.084   3.124   3.548
 1148SOL     OW 3979   0.222   3.306   2.401
 1148SOL    HW1 3980   0.216   3.402   2.397
 1148SOL    HW2 3981   0.152   3.280   2.461
 1149SOL     OW 3982   0.250   2.939   2.737
 1149SOL    HW1 3983   0.261   2.854   2.779
 1149SOL    HW2 3984   0.198   2.991   2.799
 1150SOL     OW 3985   0.614   3.652   3.295
 1150SOL    HW1 3986   0.530   3.635   3.337
 1150SOL    HW2 3987   0.634   3.743   3.317
 1151SOL     OW 3988   0.583   2.845   1.997
 1151SOL    HW1 3989   0.629   2.893   1.928
 1151SOL    HW2 3990   0.624   2.875   2.078
 1152SOL     OW 3991   1.595   1.984   3.331
 1152SOL    HW1 3992   1.595   2.067   3.283
 1152SOL    HW2 3993   1.577   2.009   3.422
 1153SOL     OW 3994   0.126   2.496   2.441
 1153SOL    HW1 3995   0.089   2.413   2.470
 1153SOL    HW2 3996   0.099   2.559   2.508
 1154SOL     OW 3997   1.842   3.621   2.197
 1154SOL    HW1 3998   1.906   3.592   2.262
 1154SOL    HW2 3999   1.866   3.711   2.178
 1155SOL     OW 4000   0.038   3.461   1.994
 1155SOL    HW1 4001   0.025   3.369   2.019
 1155SOL    HW2 4002   5.283   3.511   2.054
 1156SOL     OW 4003   1.688   2.780   2.502
 1156SOL    HW1 4004   1.773   2.740   2.483
 1156SOL    HW2 4005   1.666   2.831   2.424
 1157SOL     OW 4006   1.646   2.968   2.291
 1157SOL    HW1 4007   1.732   2.975   2.249
 1157SOL    HW2 4008   1.651   3.030   2.364
 1158SOL     OW 4009   0.131   2.610   3.447
 1158SOL    HW1 4010   0.226   2.624   3.449
 1158SOL    HW2 4011   0.094   2.697   3.463
 1159SOL     OW 4012   0.615   3.247   2.597
 1159SOL    HW1 4013   0.568   3.165   2.607
 1159SOL    HW2 4014   0.598   3.274   2.506
 1160SOL     OW 4015   1.287   3.100   3.284
 1160SOL    HW1 4016   1.321   3.033   3.225
 1160SOL    HW2 4017   1.342   3.093   3.362
 1161SOL     OW 4018   0.823   1.861   2.372
 1161SOL    HW1 4019   0.863   1.946   2.352
 1161SOL    HW2 4020   0.729   1.880   2.378
 1162SOL     OW 4021   0.177   2.808   3.140
 1162SOL    HW1 4022   0.268   2.778   3.131
 1162SOL    HW2 4023   0.135   2.783   3.058
 1163SOL     OW 4024   1.532   2.855   2.061
 1163SOL    HW1 4025   1.462   2.798   2.093
 1163SOL    HW2 4026   1.572   2.890   2.140
 1164SOL     OW 4027   1.185   3.668   3.484
 1164SOL    HW1 4028   1.196   3.727   3.410
 1164SOL    HW2 4029   1.202   3.581   3.448
 1165SOL     OW 4030   0.336   2.115   3.679
 1165SOL    HW1 4031   0.384   2.197   3.692
 1165SOL    HW2 4032   0.249   2.132   3.714
 1166SOL     OW 4033   1.466   3.281   2.814
 1166SOL    HW1 4034   1.398   3.297   2.879
 1166SOL    HW2 4035   1.454   3.190   2.787
 1167SOL     OW 4036   1.658   3.602   2.440
 1167SOL    HW1 4037   1.639   3.572   2.351
 1167SOL    HW2 4038   1.634   3.528   2.496
 1168SOL     OW 4039   0.595   2.583   2.128
 1168SOL    HW1 4040   0.603   2.664   2.077
 1168SOL    HW2 4041   0.531   2.603   2.196
 1169SOL     OW 4042   1.280   2.214   2.794
 1169SOL    HW1 4043   1.190   2.182   2.803
 1169SOL    HW2 4044   1.330   2.161   2.856
 1170SOL     OW 4045   1.581   3.532   2.171
 1170SOL    HW1 4046   1.671   3.563   2.164
 1170SOL    HW2 4047   1.554   3.515   2.081
 1171SOL     OW 4048   0.792   2.479   3.313
 1171SOL    HW1 4049   0.765   2.456   3.402
 1171SOL    HW2 4050   0.752   2.413   3.258
 1172SOL     OW 4051   1.393   2.336   3.539
 1172SOL    HW1 4052   1.395   2.381   3.623
 1172SOL    HW2 4053   1.456   2.265   3.549
 1173SOL     OW 4054   0.954   2.749   3.445
 1173SOL    HW1 4055   1.009   2.679   3.409
 1173SOL    HW2 4056   0.907   2.783   3.369
 1174SOL     OW 4057   0.992   2.274   3.101
 1174SOL    HW1 4058   0.907   2.296   3.138
 1174SOL    HW2 4059   0.972   2.228   3.019
 1175SOL     OW 4060   1.051   2.560   2.288
 1175SOL    HW1 4061   1.067   2.554   2.382
 1175SOL    HW2 4062   0.968   2.514   2.274
 1176SOL     OW 4063   0.072   2.649   2.673
 1176SOL    HW1 4064   0.153   2.654   2.723
 1176SOL    HW2 4065   0.063   2.735   2.632
 1177SOL     OW 4066   0.130   3.746   3.447
 1177SOL    HW1 4067   0.133   3.716   3.538
 1177SOL    HW2 4068   0.059   3.695   3.407
 1178SOL     OW 4069   0.893   2.211   2.056
 1178SOL    HW1 4070   0.933   2.273   1.995
 1178SOL    HW2 4071   0.908   2.125   2.017
 1179SOL     OW 4072   1.681   2.428   3.699
 1179SOL    HW1 4073   1.651   2.500   3.644
 1179SOL    HW2 4074   1.721   2.366   3.637
 1180SOL     OW 4075   1.377   3.004   2.403
 1180SOL    HW1 4076   1.456   2.992   2.350
 1180SOL    HW2 4077   1.324   3.066   2.353
 1181SOL     OW 4078   0.556   2.045   2.755
 1181SOL    HW1 4079   0.553   2.073   2.847
 1181SOL    HW2 4080   0.551   2.127   2.705
 1182SOL     OW 4081   1.005   3.305   2.334
 1182SOL    HW1 4082   0.968   3.379   2.284
 1182SOL    HW2 4083   0.988   3.327   2.426
 1183SOL     OW 4084   0.357   3.665   2.731
 1183SOL    HW1 4085   0.397   3.579   2.745
 1183SOL    HW2 4086   0.423   3.727   2.761
 1184SOL     OW 4087   1.798   2.921   2.730
 1184SOL    HW1 4088   1.742   2.904   2.654
 1184SOL    HW2 4089   1.737   2.925   2.803
 1185SOL     OW 4090   1.228   3.401   3.375
 1185SOL    HW1 4091   1.214   3.328   3.435
 1185SOL    HW2 4092   1.164   3.387   3.305
 1186SOL     OW 4093   0.316   2.814   2.110
 1186SOL    HW1 4094   0.397   2.838   2.065
 1186SOL    HW2 4095   0.293   2.728   2.073
 1187SOL     OW 4096   1.479   2.603   2.588
 1187SOL    HW1 4097   1.470   2.562   2.674
 1187SOL    HW2 4098   1.555   2.660   2.597
 1188SOL     OW 4099   0.465   3.126   3.600
 1188SOL    HW1 4100   0.438   3.132   3.508
 1188SOL    HW2 4101   0.383   3.127   3.649
 1189SOL     OW 4102   1.122   3.640   2.093
 1189SOL    HW1 4103   1.049   3.598   2.138
 1189SOL    HW2 4104   1.145   3.578   2.023
 1190SOL     OW 4105   0.205   2.142   3.359
 1190SOL    HW1 4106   0.126   2.194   3.343
 1190SOL    HW2 4107   0.173   2.063   3.403
 1191SOL     OW 4108   1.629   3.242   1.950
 1191SOL    HW1 4109   1.588   3.327   1.935
 1191SOL    HW2 4110   1.559   3.178   1.930
 1192SOL     OW 4111   0.471   3.597   2.182
 1192SOL    HW1 4112   0.514   3.655   2.245
 1192SOL    HW2 4113   0.542   3.566   2.126
 1193SOL     OW 4114   1.401   1.970   2.295
 1193SOL    HW1 4115   1.390   1.945   2.203
 1193SOL    HW2 4116   1.496   1.975   2.307
 1194SOL     OW 4117   0.276   3.663   3.075
 1194SOL    HW1 4118   0.307   3.585   3.122
 1194SOL    HW2 4119   0.225   3.628   3.002
 1195SOL     OW 4120   0.939   3.561   2.761
 1195SOL    HW1 4121   1.016   3.509   2.782
 1195SOL    HW2 4122   0.894   3.511   2.692
 1196SOL     OW 4123   0.386   2.558   2.341
 1196SOL    HW1 4124   0.415   2.467   2.350
 1196SOL    HW2 4125   0.293   2.555   2.361
 1197SOL     OW 4126   1.526   2.077   3.589
 1197SOL    HW1 4127   1.538   2.101   3.681
 1197SOL    HW2 4128   1.454   2.013   3.591
 1198SOL     OW 4129   0.634   1.984   1.967
 1198SOL    HW1 4130   0.704   1.920   1.979
 1198SOL    HW2 4131   0.585   1.953   1.891
 1199SOL     OW 4132   0.767   2.140   3.616
 1199SOL    HW1 4133   0.842   2.081   3.617
 1199SOL    HW2 4134   0.718   2.118   3.695
 1200SOL     OW 4135   0.877   3.384   3.055
 1200SOL    HW1 4136   0.861   3.347   2.968
 1200SOL    HW2 4137   0.947   3.329   3.092
 1201SOL     OW 4138   1.340   2.449   3.293
 1201SOL    HW1 4139   1.371   2.419   3.379
 1201SOL    HW2 4140   1.373   2.538   3.285
 1202SOL     OW 4141   0.816   3.256   2.802
 1202SOL    HW1 4142   0.900   3.245   2.758
 1202SOL    HW2 4143   0.751   3.258   2.731
 1203SOL     OW 4144   0.928   2.371   2.765
 1203SOL    HW1 4145   0.904   2.363   2.673
 1203SOL    HW2 4146   0.959   2.284   2.790
 1204SOL     OW 4147   0.560   1.923   2.358
 1204SOL    HW1 4148   0.485   1.923   2.418
 1204SOL    HW2 4149   0.550   2.003   2.306
 1205SOL     OW 4150   1.428   3.060   1.903
 1205SOL    HW1 4151   1.458   2.985   1.953
 1205SOL    HW2 4152   1.343   3.082   1.940
 1206SOL     OW 4153   0.305   1.909   2.041
 1206SOL    HW1 4154   0.367   1.973   2.006
 1206SOL    HW2 4155   0.360   1.844   2.086
 1207SOL     OW 4156   0.939   2.109   2.322
 1207SOL    HW1 4157   0.912   2.150   2.240
 1207SOL    HW2 4158   1.034   2.124   2.326
 1208SOL     OW 4159   1.080   2.542   3.322
 1208SOL    HW1 4160   1.011   2.476   3.326
 1208SOL    HW2 4161   1.161   2.492   3.315
 1209SOL     OW 4162   1.224   3.431   2.655
 1209SOL    HW1 4163   1.239   3.499   2.589
 1209SOL    HW2 4164   1.291   3.447   2.721
 1210SOL     OW 4165   0.467   3.012   2.593
 1210SOL    HW1 4166   0.398   2.992   2.657
 1210SOL    HW2 4167   0.428   2.994   2.508
 1211SOL     OW 4168   1.269   3.656   2.470
 1211SOL    HW1 4169   1.315   3.717   2.413
 1211SOL    HW2 4170   1.202   3.709   2.514
 1212SOL     OW 4171   1.023   2.404   1.885
 1212SOL    HW1 4172   0.981   2.487   1.865
 1212SOL    HW2 4173   1.089   2.426   1.951
 1213SOL     OW 4174   0.088   2.407   3.260
 1213SOL    HW1 4175   0.175   2.414   3.223
 1213SOL    HW2 4176   0.080   2.483   3.318
 1214SOL     OW 4177   0.560   2.090   3.028
 1214SOL    HW1 4178   0.598   2.010   3.066
 1214SOL    HW2 4179   0.469   2.088   3.056
 1215SOL     OW 4180   0.868   2.321   2.502
 1215SOL    HW1 4181   0.822   2.375   2.438
 1215SOL    HW2 4182   0.889   2.240   2.454
 1216SOL     OW 4183   1.016   1.915   2.613
 1216SOL    HW1 4184   0.957   1.907   2.538
 1216SOL    HW2 4185   0.994   1.840   2.668
 1217SOL     OW 4186   1.437   3.024   2.719
 1217SOL    HW1 4187   1.368   2.959   2.718
 1217SOL    HW2 4188   1.461   3.036   2.627
 1218SOL     OW 4189   1.466   2.467   2.838
 1218SOL    HW1 4190   1.414   2.386   2.842
 1218SOL    HW2 4191   1.526   2.460   2.912
 1219SOL     OW 4192   1.846   2.678   2.245
 1219SOL    HW1 4193   1.903   2.627   2.303
 1219SOL    HW2 4194   1.818   2.615   2.178
 1220SOL     OW 4195   0.492   3.279   2.020
 1220SOL    HW1 4196   0.416   3.252   2.072
 1220SOL    HW2 4197   0.475   3.244   1.933
 1221SOL     OW 4198   1.670   3.126   2.508
 1221SOL    HW1 4199   1.765   3.129   2.522
 1221SOL    HW2 4200   1.640   3.214   2.529
 1222SOL     OW 4201   1.394   2.434   1.933
 1222SOL    HW1 4202   1.333   2.415   2.004
 1222SOL    HW2 4203   1.478   2.402   1.965
 1223SOL     OW 4204   0.524   2.125   2.179
 1223SOL    HW1 4205   0.569   2.078   2.109
 1223SOL    HW2 4206   0.502   2.210   2.140
 1224SOL     OW 4207   1.058   3.215   3.194
 1224SOL    HW1 4208   0.983   3.184   3.246
 1224SOL    HW2 4209   1.134   3.174   3.235
 1225SOL     OW 4210   1.604   3.487   3.515
 1225SOL    HW1 4211   1.598   3.522   3.426
 1225SOL    HW2 4212   1.687   3.439   3.516
 1226SOL     OW 4213   1.128   3.065   2.967
 1226SOL    HW1 4214   1.070   3.104   3.032
 1226SOL    HW2 4215   1.096   3.098   2.883
 1227SOL     OW 4216   1.627   2.959   2.938
 1227SOL    HW1 4217   1.620   3.019   3.012
 1227SOL    HW2 4218   1.548   2.976   2.886
 1228SOL     OW 4219   0.919   1.958   3.259
 1228SOL    HW1 4220   0.941   1.940   3.168
 1228SOL    HW2 4221   0.998   1.998   3.295
 1229SOL     OW 4222   0.984   2.977   3.585
 1229SOL    HW1 4223   0.892   2.993   3.605
 1229SOL    HW2 4224   0.983   2.899   3.529
 1230SOL     OW 4225   0.708   2.922   2.234
 1230SOL    HW1 4226   0.696   2.906   2.328
 1230SOL    HW2 4227   0.784   2.869   2.210
 1231SOL     OW 4228   0.420   2.681   3.114
 1231SOL    HW1 4229   0.489   2.688   3.180
 1231SOL    HW2 4230   0.386   2.592   3.125
 1232SOL     OW 4231   1.265   2.238   3.137
 1232SOL    HW1 4232   1.298   2.316   3.183
 1232SOL    HW2 4233   1.175   2.261   3.114
 1233SOL     OW 4234   0.102   3.485   3.229
 1233SOL    HW1 4235   0.080   3.494   3.136
 1233SOL    HW2 4236   0.188   3.443   3.230
 1234SOL     OW 4237   0.343   2.968   2.349
 1234SOL    HW1 4238   0.352   3.047   2.296
 1234SOL    HW2 4239   0.352   2.896   2.287
 1235SOL     OW 4240   0.554   2.398   2.721
 1235SOL    HW1 4241   0.570   2.456   2.647
 1235SOL    HW2 4242   0.619   2.425   2.787
 1236SOL     OW 4243   1.248   3.210   2.251
 1236SOL    HW1 4244   1.304   3.282   2.282
 1236SOL    HW2 4245   1.161   3.232   2.285
 1237SOL     OW 4246   1.281   3.319   3.009
 1237SOL    HW1 4247   1.337   3.322   3.087
 1237SOL    HW2 4248   1.226   3.243   3.022
 1238SOL     OW 4249   1.582   2.485   2.341
 1238SOL    HW1 4250   1.535   2.537   2.405
 1238SOL    HW2 4251   1.626   2.549   2.285
 1239SOL     OW 4252   0.352   3.381   3.172
 1239SOL    HW1 4253   0.341   3.338   3.088
 1239SOL    HW2 4254   0.445   3.399   3.179
 1240SOL     OW 4255   0.414   2.604   3.464
 1240SOL    HW1 4256   0.475   2.651   3.406
 1240SOL    HW2 4257   0.454   2.518   3.477
 1241SOL     OW 4258   1.593   2.633   3.540
 1241SOL    HW1 4259   1.503   2.668   3.542
 1241SOL    HW2 4260   1.637   2.685   3.473
 1242SOL     OW 4261   0.996   1.985   3.617
 1242SOL    HW1 4262   1.051   2.058   3.590
 1242SOL    HW2 4263   1.044   1.907   3.591
 1243SOL     OW 4264   0.497   1.903   3.610
 1243SOL    HW1 4265   0.455   1.849   3.543
 1243SOL    HW2 4266   0.438   1.977   3.622
 1244SOL     OW 4267   0.585   2.736   2.894
 1244SOL    HW1 4268   0.616   2.826   2.894
 1244SOL    HW2 4269   0.529   2.730   2.971
 1245SOL     OW 4270   1.358   2.721   2.890
 1245SOL    HW1 4271   1.274   2.711   2.845
 1245SOL    HW2 4272   1.397   2.634   2.886
 1246SOL     OW 4273   1.205   2.391   2.129
 1246SOL    HW1 4274   1.212   2.312   2.183
 1246SOL    HW2 4275   1.162   2.455   2.185
 1247SOL     OW 4276   0.301   2.065   3.110
 1247SOL    HW1 4277   0.267   2.090   3.196
 1247SOL    HW2 4278   0.289   1.970   3.105
 1248SOL     OW 4279   0.068   3.180   3.142
 1248SOL    HW1 4280   0.091   3.121   3.214
 1248SOL    HW2 4281   5.299   3.236   3.178
 1249SOL     OW 4282   0.724   2.493   2.920
 1249SOL    HW1 4283   0.799   2.477   2.862
 1249SOL    HW2 4284   0.696   2.582   2.899
 1250SOL     OW 4285   1.711   2.805   3.728
 1250SOL    HW1 4286   1.661   2.749   3.669
 1250SOL    HW2 4287   1.650   2.825   3.799
 1251SOL     OW 4288   0.328   1.924   2.496
 1251SOL    HW1 4289   0.307   2.013   2.524
 1251SOL    HW2 4290   0.332   1.874   2.578
 1252SOL     OW 4291   1.616   2.236   2.229
 1252SOL    HW1 4292   1.643   2.173   2.295
 1252SOL    HW2 4293   1.594   2.315   2.279
 1253SOL     OW 4294   1.028   2.621   2.823
 1253SOL    HW1 4295   1.024   2.639   2.916
 1253SOL    HW2 4296   1.001   2.529   2.814
 1254SOL     OW 4297   0.981   3.428   3.579
 1254SOL    HW1 4298   0.967   3.472   3.496
 1254SOL    HW2 4299   1.026   3.346   3.555
 1255SOL     OW 4300   1.849   3.379   3.460
 1255SOL    HW1 4301   1.876   3.401   3.371
 1255SOL    HW2 4302   1.928   3.391   3.513
 1256SOL     OW 4303   0.354   2.780   3.668
 1256SOL    HW1 4304   0.435   2.799   3.715
 1256SOL    HW2 4305   0.379   2.715   3.603
 1257SOL     OW 4306   1.530   2.135   1.989
 1257SOL    HW1 4307   1.464   2.070   2.016
 1257SOL    HW2 4308   1.562   2.171   2.072
 1258SOL     OW 4309   1.291   2.688   1.893
 1258SOL    HW1 4310   1.335   2.603   1.896
 1258SOL    HW2 4311   1.323   2.728   1.812
 1259SOL     OW 4312   1.066   3.198   2.716
 1259SOL    HW1 4313   1.069   3.125   2.653
 1259SOL    HW2 4314   1.127   3.262   2.681
 1260SOL     OW 4315   0.314   2.672   2.812
 1260SOL    HW1 4316   0.408   2.690   2.808
 1260SOL    HW2 4317   0.308   2.582   2.844
 1261SOL     OW 4318   0.335   2.388   2.877
 1261SOL    HW1 4319   0.300   2.300   2.863
 1261SOL    HW2 4320   0.410   2.393   2.817
 1262SOL     OW 4321   1.134   2.237   3.545
 1262SOL    HW1 4322   1.087   2.293   3.607
 1262SOL    HW2 4323   1.222   2.275   3.541
 1263SOL     OW 4324   1.161   2.065   3.332
 1263SOL    HW1 4325   1.150   2.127   3.404
 1263SOL    HW2 4326   1.200   2.116   3.261
 1264SOL     OW 4327   0.002   3.192   2.072
 1264SOL    HW1 4328   5.228   3.181   2.012
 1264SOL    HW2 4329   0.012   3.106   2.114
 1265SOL     OW 4330   0.093   3.643   2.813
 1265SOL    HW1 4331   0.059   3.573   2.757
 1265SOL    HW2 4332   0.180   3.662   2.778
 1266SOL     OW 4333   0.505   3.435   2.769
 1266SOL    HW1 4334   0.572   3.501   2.790
 1266SOL    HW2 4335   0.548   3.374   2.710
 1267SOL     OW 4336   0.983   2.653   3.088
 1267SOL    HW1 4337   1.039   2.631   3.163
 1267SOL    HW2 4338   0.898   2.617   3.111
 1268SOL     OW 4339   0.033   2.424   2.978
 1268SOL    HW1 4340   0.119   2.398   2.944
 1268SOL    HW2 4341   0.037   2.405   3.071
 1269SOL     OW 4342   0.174   2.375   3.574
 1269SOL    HW1 4343   0.240   2.339   3.514
 1269SOL    HW2 4344   0.146   2.456   3.531
 1270SOL     OW 4345   1.373   2.799   3.520
 1270SOL    HW1 4346   1.396   2.892   3.519
 1270SOL    HW2 4347   1.373   2.773   3.428
 1271SOL     OW 4348   0.816   2.431   2.222
 1271SOL    HW1 4349   0.820   2.356   2.162
 1271SOL    HW2 4350   0.742   2.483   2.190
 1272SOL     OW 4351   1.644   2.459   3.044
 1272SOL    HW1 4352   1.628   2.397   3.115
 1272SOL    HW2 4353   1.735   2.444   3.019
 1273SOL     OW 4354   0.256   3.418   3.597
 1273SOL    HW1 4355   0.234   3.481   3.665
 1273SOL    HW2 4356   0.250   3.332   3.639
 1274SOL     OW 4357   0.702   2.312   3.122
 1274SOL    HW1 4358   0.649   2.238   3.092
 1274SOL    HW2 4359   0.697   2.375   3.050
 1275SOL     OW 4360   0.928   3.541   3.329
 1275SOL    HW1 4361   0.902   3.506   3.244
 1275SOL    HW2 4362   0.923   3.636   3.320
 1276SOL     OW 4363   0.465   2.355   2.047
 1276SOL    HW1 4364   0.525   2.427   2.069
 1276SOL    HW2 4365   0.380   2.398   2.035
 1277SOL     OW 4366   0.148   2.999   3.333
 1277SOL    HW1 4367   0.146   2.951   3.415
 1277SOL    HW2 4368   0.160   2.932   3.266
 1278SOL     OW 4369   1.325   2.909   3.084
 1278SOL    HW1 4370   1.350   2.846   3.016
 1278SOL    HW2 4371   1.255   2.961   3.045
 1279SOL     OW 4372   1.312   2.718   2.168
 1279SOL    HW1 4373   1.236   2.689   2.218
 1279SOL    HW2 4374   1.287   2.705   2.077
 1280SOL     OW 4375   1.771   3.606   3.012
 1280SOL    HW1 4376   1.832   3.633   2.943
 1280SOL    HW2 4377   1.747   3.517   2.990
 1281SOL     OW 4378   1.241   3.595   2.975
 1281SOL    HW1 4379   1.323   3.616   2.930
 1281SOL    HW2 4380   1.247   3.501   2.993
 1282SOL     OW 4381   0.083   3.079   2.889
 1282SOL    HW1 4382   0.070   3.104   2.981
 1282SOL    HW2 4383   5.294   3.068   2.855
 1283SOL     OW 4384   0.678   3.528   3.591
 1283SOL    HW1 4385   0.622   3.606   3.586
 1283SOL    HW2 4386   0.742   3.539   3.521
 1284SOL     OW 4387   1.721   2.009   2.372
 1284SOL    HW1 4388   1.792   1.993   2.311
 1284SOL    HW2 4389   1.704   1.923   2.412
 1285SOL     OW 4390   1.390   3.430   2.347
 1285SOL    HW1 4391   1.451   3.462   2.280
 1285SOL    HW2 4392   1.342   3.507   2.375
 1286SOL     OW 4393   0.145   3.660   3.704
 1286SOL    HW1 4394   0.090   3.597   3.751
 1286SOL    HW2 4395   0.191   3.707   3.773
 1287SOL     OW 4396   1.277   2.787   2.532
 1287SOL    HW1 4397   1.351   2.727   2.539
 1287SOL    HW2 4398   1.311   2.860   2.480
 1288SOL     OW 4399   0.814   3.135   3.292
 1288SOL    HW1 4400   0.786   3.175   3.374
 1288SOL    HW2 4401   0.745   3.156   3.230
 1289SOL     OW 4402   0.672   3.481   2.017
 1289SOL    HW1 4403   0.682   3.494   1.923
 1289SOL    HW2 4404   0.617   3.403   2.025
 1290SOL     OW 4405   1.624   3.589   3.251
 1290SOL    HW1 4406   1.675   3.597   3.171
 1290SOL    HW2 4407   1.611   3.680   3.280
 1291SOL     OW 4408   1.844   2.037   2.823
 1291SOL    HW1 4409   1.870   1.948   2.799
 1291SOL    HW2 4410   1.756   2.047   2.786
 1292SOL     OW 4411   0.273   2.179   2.579
 1292SOL    HW1 4412   0.188   2.218   2.559
 1292SOL    HW2 4413   0.271   2.168   2.674
 1293SOL     OW 4414   1.207   3.468   1.894
 1293SOL    HW1 4415   1.197   3.376   1.920
 1293SOL    HW2 4416   1.142   3.480   1.824
 1294SOL     OW 4417   0.824   2.868   3.234
 1294SOL    HW1 4418   0.868   2.864   3.149
 1294SOL    HW2 4419   0.823   2.961   3.257
 1295SOL     OW 4420   0.915   2.772   2.152
 1295SOL    HW1 4421   0.976   2.804   2.085
 1295SOL    HW2 4422   0.963   2.703   2.197
 1296SOL     OW 4423   1.492   3.487   1.904
 1296SOL    HW1 4424   1.397   3.481   1.891
 1296SOL    HW2 4425   1.529   3.493   1.816
 1297SOL     OW 4426   0.368   3.166   3.355
 1297SOL    HW1 4427   0.359   3.240   3.296
 1297SOL    HW2 4428   0.292   3.111   3.336
 1298SOL     OW 4429   1.606   3.144   3.138
 1298SOL    HW1 4430   1.684   3.150   3.192
 1298SOL    HW2 4431   1.549   3.213   3.170
 1299SOL     OW 4432   1.052   2.969   2.568
 1299SOL    HW1 4433   0.981   2.918   2.608
 1299SOL    HW2 4434   1.115   2.903   2.537
 1300SOL     OW 4435   1.022   2.102   2.828
 1300SOL    HW1 4436   1.017   2.055   2.745
 1300SOL    HW2 4437   1.016   2.035   2.895
 1301SOL     OW 4438   0.601   3.349   2.343
 1301SOL    HW1 4439   0.646   3.301   2.274
 1301SOL    HW2 4440   0.535   3.400   2.297
 1302SOL     OW 4441   1.712   2.244   3.230
 1302SOL    HW1 4442   1.788   2.303   3.230
 1302SOL    HW2 4443   1.740   2.168   3.179
 1303SOL     OW 4444   0.260   3.210   2.155
 1303SOL    HW1 4445   0.167   3.212   2.132
 1303SOL    HW2 4446   0.264   3.247   2.243
 1304SOL     OW 4447   0.116   2.878   3.580
 1304SOL    HW1 4448   0.045   2.843   3.634
 1304SOL    HW2 4449   0.196   2.847   3.622
 1305SOL     OW 4450   0.674   2.058   3.361
 1305SOL    HW1 4451   0.758   2.038   3.320
 1305SOL    HW2 4452   0.697   2.090   3.449
 1306SOL     OW 4453   0.082   2.212   1.903
 1306SOL    HW1 4454   0.003   2.163   1.880
 1306SOL    HW2 4455   0.098   2.269   1.828
 1307SOL     OW 4456   1.419   2.716   3.260
 1307SOL    HW1 4457   1.374   2.780   3.205
 1307SOL    HW2 4458   1.511   2.723   3.234
 1308SOL     OW 4459   0.056   1.995   2.105
 1308SOL    HW1 4460   0.055   2.090   2.097
 1308SOL    HW2 4461   0.145   1.970   2.083
 1309SOL     OW 4462   1.179   3.201   1.979
 1309SOL    HW1 4463   1.088   3.172   1.982
 1309SOL    HW2 4464   1.207   3.202   2.071
 1310SOL     OW 4465   0.619   2.693   3.297
 1310SOL    HW1 4466   0.676   2.769   3.281
 1310SOL    HW2 4467   0.680   2.619   3.305
 1311SOL     OW 4468   1.484   3.638   2.841
 1311SOL    HW1 4469   1.507   3.698   2.770
 1311SOL    HW2 4470   1.566   3.620   2.885
 1312SOL     OW 4471   0.717   2.426   3.567
 1312SOL    HW1 4472   0.758   2.489   3.626
 1312SOL    HW2 4473   0.745   2.341   3.599
 1313SOL     OW 4474   1.460   3.064   3.498
 1313SOL    HW1 4475   1.445   3.074   3.592
 1313SOL    HW2 4476   1.553   3.086   3.486
 1314SOL     OW 4477   0.378   3.604   3.426
 1314SOL    HW1 4478   0.295   3.650   3.410
 1314SOL    HW2 4479   0.352   3.524   3.471
 1315SOL     OW 4480   1.665   2.736   3.108
 1315SOL    HW1 4481   1.658   2.652   3.063
 1315SOL    HW2 4482   1.658   2.802   3.039
 1316SOL     OW 4483   1.217   2.181   2.320
 1316SOL    HW1 4484   1.280   2.110   2.311
 1316SOL    HW2 4485   1.246   2.230   2.397
 1317SOL     OW 4486   0.590   2.599   2.531
 1317SOL    HW1 4487   0.629   2.685   2.516
 1317SOL    HW2 4488   0.521   2.592   2.465
 1318SOL     OW 4489   1.733   2.230   3.506
 1318SOL    HW1 4490   1.717   2.227   3.412
 1318SOL    HW2 4491   1.673   2.165   3.543
 1319SOL     OW 4492   1.693   2.806   3.362
 1319SOL    HW1 4493   1.765   2.869   3.363
 1319SOL    HW2 4494   1.687   2.777   3.270
 1320SOL     OW 4495   0.863   3.229   1.896
 1320SOL    HW1 4496   0.824   3.258   1.979
 1320SOL    HW2 4497   0.881   3.310   1.849
 1321SOL     OW 4498   0.663   3.655   2.805
 1321SOL    HW1 4499   0.642   3.746   2.783
 1321SOL    HW2 4500   0.758   3.651   2.799
 1322SOL     OW 4501   0.867   2.828   2.716
 1322SOL    HW1 4502   0.918   2.757   2.756
 1322SOL    HW2 4503   0.833   2.878   2.790
 1323SOL     OW 4504   1.078   2.849   1.951
 1323SOL    HW1 4505   1.057   2.901   1.873
 1323SOL    HW2 4506   1.153   2.796   1.924
 1324SOL     OW 4507   1.854   3.417   2.706
 1324SOL    HW1 4508   1.776   3.405   2.653
 1324SOL    HW2 4509   1.848   3.349   2.773
 1325SOL     OW 4510   0.225   3.167   3.722
 1325SOL    HW1 4511   0.157   3.104   3.696
 1325SOL    HW2 4512   0.214   3.177   3.816
 1326SOL     OW 4513   0.087   3.082   2.517
 1326SOL    HW1 4514   0.100   3.050   2.606
 1326SOL    HW2 4515   0.174   3.076   2.476
 1327SOL     OW 4516   0.681   3.264   3.490
 1327SOL    HW1 4517   0.601   3.222   3.520
 1327SOL    HW2 4518   0.677   3.353   3.526
 1328SOL     OW 4519   1.816   2.042   3.094
 1328SOL    HW1 4520   1.832   1.950   3.113
 1328SOL    HW2 4521   1.822   2.049   2.999
 1329SOL     OW 4522   0.435   2.298   2.386
 1329SOL    HW1 4523   0.462   2.225   2.330
 1329SOL    HW2 4524   0.387   2.256   2.458
 1330SOL     OW 4525   1.699   3.353   2.957
 1330SOL    HW1 4526   1.618   3.329   2.912
 1330SOL    HW2 4527   1.714   3.282   3.020
 1331SOL     OW 4528   0.336   2.421   3.153
 1331SOL    HW1 4529   0.389   2.362   3.207
 1331SOL    HW2 4530   0.350   2.391   3.064
 1332SOL     OW 4531   0.829   3.439   2.540
 1332SOL    HW1 4532   0.816   3.495   2.463
 1332SOL    HW2 4533   0.752   3.382   2.542
 1333SOL     OW 4534   1.433   2.087   2.980
 1333SOL    HW1 4535   1.455   2.006   3.026
 1333SOL    HW2 4536   1.380   2.136   3.044
 1334SOL     OW 4537   1.009   1.881   3.004
 1334SOL    HW1 4538   0.954   1.813   2.964
 1334SOL    HW2 4539   1.097   1.843   3.006
 1335SOL     OW 4540   0.772   3.195   2.177
 1335SOL    HW1 4541   0.742   3.104   2.183
 1335SOL    HW2 4542   0.854   3.196   2.226
 1336SOL     OW 4543   0.623   3.418   3.149
 1336SOL    HW1 4544   0.624   3.500   3.198
 1336SOL    HW2 4545   0.710   3.412   3.109
 1337SOL     OW 4546   1.352   1.916   2.027
 1337SOL    HW1 4547   1.381   1.852   1.962
 1337SOL    HW2 4548   1.265   1.886   2.053
 1338SOL     OW 4549   1.297   2.323   2.543
 1338SOL    HW1 4550   1.244   2.402   2.550
 1338SOL    HW2 4551   1.292   2.283   2.630
 1339SOL     OW 4552   1.588   2.066   2.741
 1339SOL    HW1 4553   1.526   2.084   2.811
 1339SOL    HW2 4554   1.585   2.143   2.685
 1340SOL     OW 4555   0.048   2.930   2.152
 1340SOL    HW1 4556   0.137   2.898   2.141
 1340SOL    HW2 4557   5.300   2.856   2.187
 1341SOL     OW 4558   0.885   3.514   2.204
 1341SOL    HW1 4559   0.812   3.498   2.144
 1341SOL    HW2 4560   0.857   3.589   2.256
 1342SOL     OW 4561   0.233   2.494   3.840
 1342SOL    HW1 4562   0.160   2.460   3.892
 1342SOL    HW2 4563   0.218   2.460   3.752
 1343SOL     OW 4564   0.242   2.137   4.714
 1343SOL    HW1 4565   0.256   2.103   4.802
 1343SOL    HW2 4566   0.158   2.101   4.686
 1344SOL     OW 4567   5.298   2.260   4.377
 1344SOL    HW1 4568   5.205   2.282   4.383
 1344SOL    HW2 4569   5.299   2.170   4.346
 1345SOL     OW 4570   0.574   3.147   4.906
 1345SOL    HW1 4571   0.491   3.155   4.858
 1345SOL    HW2 4572   0.590   3.234   4.941
 1346SOL     OW 4573   1.558   3.373   4.431
 1346SOL    HW1 4574   1.515   3.353   4.514
 1346SOL    HW2 4575   1.486   3.379   4.368
 1347SOL     OW 4576   1.129   2.560   4.425
 1347SOL    HW1 4577   1.179   2.641   4.411
 1347SOL    HW2 4578   1.083   2.575   4.507
 1348SOL     OW 4579   1.763   2.448   3.958
 1348SOL    HW1 4580   1.737   2.444   3.866
 1348SOL    HW2 4581   1.717   2.375   3.999
 1349SOL     OW 4582   0.755   3.003   4.763
 1349SOL    HW1 4583   0.688   3.037   4.822
 1349SOL    HW2 4584   0.790   3.081   4.719
 1350SOL     OW 4585   0.866   2.637   5.546
 1350SOL    HW1 4586   0.857   2.709   5.608
 1350SOL    HW2 4587   0.890   2.679   5.463
 1351SOL     OW 4588   0.685   2.864   4.371
 1351SOL    HW1 4589   0.751   2.852   4.440
 1351SOL    HW2 4590   0.617   2.918   4.413
 1352SOL     OW 4591   0.709   3.012   5.537
 1352SOL    HW1 4592   0.758   3.091   5.563
 1352SOL    HW2 4593   0.628   3.046   5.501
 1353SOL     OW 4594   0.358   3.267   4.784
 1353SOL    HW1 4595   0.270   3.266   4.747
 1353SOL    HW2 4596   0.407   3.329   4.730
 1354SOL     OW 4597   1.461   3.364   5.078
 1354SOL    HW1 4598   1.511   3.444   5.090
 1354SOL    HW2 4599   1.399   3.363   5.151
 1355SOL     OW 4600   0.450   2.262   5.217
 1355SOL    HW1 4601   0.525   2.202   5.218
 1355SOL    HW2 4602   0.373   2.206   5.226
 1356SOL     OW 4603   1.589   2.311   4.467
 1356SOL    HW1 4604   1.512   2.333   4.414
 1356SOL    HW2 4605   1.609   2.392   4.514
 1357SOL     OW 4606   0.231   3.576   4.201
 1357SOL    HW1 4607   0.264   3.645   4.259
 1357SOL    HW2 4608   0.293   3.573   4.129
 1358SOL     OW 4609   1.136   3.204   5.417
 1358SOL    HW1 4610   1.178   3.198   5.503
 1358SOL    HW2 4611   1.084   3.124   5.410
 1359SOL     OW 4612   0.222   3.306   4.263
 1359SOL    HW1 4613   0.215   3.402   4.259
 1359SOL    HW2 4614   0.152   3.280   4.323
 1360SOL     OW 4615   0.250   2.939   4.599
 1360SOL    HW1 4616   0.261   2.854   4.641
 1360SOL    HW2 4617   0.198   2.991   4.661
 1361SOL     OW 4618   0.614   3.652   5.157
 1361SOL    HW1 4619   0.530   3.635   5.199
 1361SOL    HW2 4620   0.634   3.743   5.179
 1362SOL     OW 4621   0.583   2.845   3.859
 1362SOL    HW1 4622   0.629   2.893   3.790
 1362SOL    HW2 4623   0.624   2.875   3.940
 1363SOL     OW 4624   1.594   1.985   5.192
 1363SOL    HW1 4625   1.606   2.065   5.141
 1363SOL    HW2 4626   1.581   2.016   5.282
 1364SOL     OW 4627   0.126   2.496   4.303
 1364SOL    HW1 4628   0.089   2.413   4.332
 1364SOL    HW2 4629   0.099   2.559   4.370
 1365SOL     OW 4630   1.833   3.628   4.056
 1365SOL    HW1 4631   1.904   3.603   4.115
 1365SOL    HW2 4632   1.854   3.718   4.031
 1366SOL     OW 4633   0.038   3.461   3.856
 1366SOL    HW1 4634   0.025   3.369   3.881
 1366SOL    HW2 4635   5.283   3.511   3.916
 1367SOL     OW 4636   1.670   2.769   4.357
 1367SOL    HW1 4637   1.759   2.736   4.343
 1367SOL    HW2 4638   1.658   2.836   4.289
 1368SOL     OW 4639   1.646   2.969   4.155
 1368SOL    HW1 4640   1.729   2.975   4.109
 1368SOL    HW2 4641   1.653   3.034   4.225
 1369SOL     OW 4642   0.131   2.610   5.309
 1369SOL    HW1 4643   0.226   2.624   5.311
 1369SOL    HW2 4644   0.094   2.697   5.325
 1370SOL     OW 4645   0.615   3.247   4.459
 1370SOL    HW1 4646   0.568   3.165   4.469
 1370SOL    HW2 4647   0.598   3.274   4.368
 1371SOL     OW 4648   1.289   3.101   5.148
 1371SOL    HW1 4649   1.321   3.034   5.087
 1371SOL    HW2 4650   1.347   3.094   5.223
 1372SOL     OW 4651   0.822   1.861   4.234
 1372SOL    HW1 4652   0.863   1.946   4.214
 1372SOL    HW2 4653   0.729   1.880   4.240
 1373SOL     OW 4654   0.177   2.808   5.002
 1373SOL    HW1 4655   0.268   2.778   4.993
 1373SOL    HW2 4656   0.135   2.783   4.920
 1374SOL     OW 4657   1.524   2.858   3.927
 1374SOL    HW1 4658   1.455   2.801   3.962
 1374SOL    HW2 4659   1.569   2.892   4.005
 1375SOL     OW 4660   1.186   3.668   5.346
 1375SOL    HW1 4661   1.195   3.727   5.271
 1375SOL    HW2 4662   1.201   3.581   5.311
 1376SOL     OW 4663   0.336   2.115   5.541
 1376SOL    HW1 4664   0.384   2.197   5.553
 1376SOL    HW2 4665   0.249   2.132   5.576
 1377SOL     OW 4666   1.466   3.283   4.676
 1377SOL    HW1 4667   1.399   3.298   4.742
 1377SOL    HW2 4668   1.455   3.192   4.649
 1378SOL     OW 4669   1.659   3.600   4.305
 1378SOL    HW1 4670   1.643   3.574   4.214
 1378SOL    HW2 4671   1.629   3.525   4.357
 1379SOL     OW 4672   0.595   2.583   3.990
 1379SOL    HW1 4673   0.603   2.664   3.939
 1379SOL    HW2 4674   0.531   2.603   4.058
 1380SOL     OW 4675   1.279   2.215   4.656
 1380SOL    HW1 4676   1.189   2.182   4.665
 1380SOL    HW2 4677   1.330   2.162   4.716
 1381SOL     OW 4678   1.578   3.531   4.033
 1381SOL    HW1 4679   1.668   3.564   4.027
 1381SOL    HW2 4680   1.553   3.514   3.943
 1382SOL     OW 4681   0.792   2.479   5.175
 1382SOL    HW1 4682   0.765   2.456   5.264
 1382SOL    HW2 4683   0.752   2.413   5.120
 1383SOL     OW 4684   1.393   2.336   5.402
 1383SOL    HW1 4685   1.396   2.381   5.486
 1383SOL    HW2 4686   1.455   2.263   5.411
 1384SOL     OW 4687   0.954   2.749   5.307
 1384SOL    HW1 4688   1.009   2.679   5.271
 1384SOL    HW2 4689   0.907   2.783   5.231
 1385SOL     OW 4690   0.992   2.275   4.963
 1385SOL    HW1 4691   0.906   2.296   4.999
 1385SOL    HW2 4692   0.973   2.228   4.881
 1386SOL     OW 4693   1.051   2.560   4.150
 1386SOL    HW1 4694   1.067   2.554   4.244
 1386SOL    HW2 4695   0.968   2.514   4.136
 1387SOL     OW 4696   0.071   2.649   4.535
 1387SOL    HW1 4697   0.153   2.654   4.585
 1387SOL    HW2 4698   0.064   2.735   4.493
 1388SOL     OW 4699   0.130   3.746   5.309
 1388SOL    HW1 4700   0.133   3.716   5.400
 1388SOL    HW2 4701   0.059   3.695   5.269
 1389SOL     OW 4702   0.893   2.211   3.918
 1389SOL    HW1 4703   0.933   2.273   3.857
 1389SOL    HW2 4704   0.909   2.125   3.879
 1390SOL     OW 4705   1.709   2.437   5.552
 1390SOL    HW1 4706   1.671   2.511   5.504
 1390SOL    HW2 4707   1.736   2.376   5.484
 1391SOL     OW 4708   1.378   3.004   4.265
 1391SOL    HW1 4709   1.456   2.991   4.212
 1391SOL    HW2 4710   1.325   3.066   4.215
 1392SOL     OW 4711   0.555   2.045   4.617
 1392SOL    HW1 4712   0.553   2.073   4.709
 1392SOL    HW2 4713   0.551   2.127   4.567
 1393SOL     OW 4714   1.005   3.306   4.196
 1393SOL    HW1 4715   0.968   3.379   4.147
 1393SOL    HW2 4716   0.988   3.327   4.288
 1394SOL     OW 4717   0.357   3.665   4.594
 1394SOL    HW1 4718   0.397   3.579   4.607
 1394SOL    HW2 4719   0.423   3.727   4.623
 1395SOL     OW 4720   1.228   3.401   5.237
 1395SOL    HW1 4721   1.214   3.328   5.297
 1395SOL    HW2 4722   1.165   3.386   5.166
 1396SOL     OW 4723   0.316   2.814   3.972
 1396SOL    HW1 4724   0.398   2.838   3.928
 1396SOL    HW2 4725   0.293   2.728   3.935
 1397SOL     OW 4726   1.474   2.599   4.452
 1397SOL    HW1 4727   1.470   2.566   4.542
 1397SOL    HW2 4728   1.547   2.661   4.453
 1398SOL     OW 4729   0.465   3.126   5.462
 1398SOL    HW1 4730   0.438   3.132   5.370
 1398SOL    HW2 4731   0.383   3.127   5.511
 1399SOL     OW 4732   1.122   3.640   3.955
 1399SOL    HW1 4733   1.049   3.597   4.000
 1399SOL    HW2 4734   1.145   3.579   3.885
 1400SOL     OW 4735   0.205   2.142   5.221
 1400SOL    HW1 4736   0.126   2.194   5.205
 1400SOL    HW2 4737   0.173   2.063   5.265
 1401SOL     OW 4738   1.626   3.240   3.809
 1401SOL    HW1 4739   1.587   3.326   3.793
 1401SOL    HW2 4740   1.556   3.177   3.790
 1402SOL     OW 4741   0.471   3.597   4.044
 1402SOL    HW1 4742   0.514   3.655   4.107
 1402SOL    HW2 4743   0.542   3.566   3.987
 1403SOL     OW 4744   1.403   1.970   4.157
 1403SOL    HW1 4745   1.392   1.944   4.066
 1403SOL    HW2 4746   1.497   1.974   4.170
 1404SOL     OW 4747   0.276   3.663   4.937
 1404SOL    HW1 4748   0.307   3.585   4.984
 1404SOL    HW2 4749   0.225   3.628   4.864
 1405SOL     OW 4750   0.939   3.561   4.623
 1405SOL    HW1 4751   1.016   3.508   4.644
 1405SOL    HW2 4752   0.894   3.511   4.554
 1406SOL     OW 4753   0.386   2.558   4.203
 1406SOL    HW1 4754   0.415   2.467   4.212
 1406SOL    HW2 4755   0.292   2.555   4.223
 1407SOL     OW 4756   1.535   2.088   5.449
 1407SOL    HW1 4757   1.544   2.108   5.542
 1407SOL    HW2 4758   1.467   2.021   5.446
 1408SOL     OW 4759   0.633   1.984   3.829
 1408SOL    HW1 4760   0.704   1.921   3.841
 1408SOL    HW2 4761   0.585   1.953   3.753
 1409SOL     OW 4762   0.767   2.140   5.478
 1409SOL    HW1 4763   0.842   2.081   5.479
 1409SOL    HW2 4764   0.718   2.118   5.557
 1410SOL     OW 4765   0.877   3.384   4.918
 1410SOL    HW1 4766   0.861   3.347   4.830
 1410SOL    HW2 4767   0.947   3.329   4.954
 1411SOL     OW 4768   1.341   2.451   5.155
 1411SOL    HW1 4769   1.371   2.420   5.241
 1411SOL    HW2 4770   1.376   2.539   5.148
 1412SOL     OW 4771   0.815   3.256   4.664
 1412SOL    HW1 4772   0.900   3.245   4.620
 1412SOL    HW2 4773   0.751   3.258   4.593
 1413SOL     OW 4774   0.928   2.371   4.627
 1413SOL    HW1 4775   0.904   2.363   4.535
 1413SOL    HW2 4776   0.959   2.284   4.652
 1414SOL     OW 4777   0.560   1.923   4.220
 1414SOL    HW1 4778   0.485   1.923   4.280
 1414SOL    HW2 4779   0.550   2.003   4.168
 1415SOL     OW 4780   1.423   3.059   3.766
 1415SOL    HW1 4781   1.455   2.985   3.818
 1415SOL    HW2 4782   1.339   3.082   3.805
 1416SOL     OW 4783   0.305   1.909   3.903
 1416SOL    HW1 4784   0.368   1.973   3.868
 1416SOL    HW2 4785   0.360   1.844   3.948
 1417SOL     OW 4786   0.939   2.109   4.184
 1417SOL    HW1 4787   0.912   2.150   4.102
 1417SOL    HW2 4788   1.034   2.123   4.188
 1418SOL     OW 4789   1.080   2.543   5.184
 1418SOL    HW1 4790   1.011   2.476   5.188
 1418SOL    HW2 4791   1.161   2.493   5.176
 1419SOL     OW 4792   1.223   3.432   4.518
 1419SOL    HW1 4793   1.239   3.499   4.452
 1419SOL    HW2 4794   1.291   3.446   4.583
 1420SOL     OW 4795   0.467   3.012   4.455
 1420SOL    HW1 4796   0.398   2.992   4.519
 1420SOL    HW2 4797   0.428   2.994   4.370
 1421SOL     OW 4798   1.269   3.656   4.333
 1421SOL    HW1 4799   1.315   3.717   4.275
 1421SOL    HW2 4800   1.202   3.709   4.375
 1422SOL     OW 4801   1.023   2.404   3.747
 1422SOL    HW1 4802   0.981   2.487   3.727
 1422SOL    HW2 4803   1.090   2.425   3.812
 1423SOL     OW 4804   0.088   2.407   5.122
 1423SOL    HW1 4805   0.175   2.414   5.085
 1423SOL    HW2 4806   0.080   2.483   5.180
 1424SOL     OW 4807   0.560   2.090   4.890
 1424SOL    HW1 4808   0.598   2.010   4.927
 1424SOL    HW2 4809   0.469   2.088   4.918
 1425SOL     OW 4810   0.868   2.321   4.364
 1425SOL    HW1 4811   0.822   2.375   4.299
 1425SOL    HW2 4812   0.889   2.240   4.316
 1426SOL     OW 4813   1.016   1.915   4.475
 1426SOL    HW1 4814   0.957   1.907   4.400
 1426SOL    HW2 4815   0.994   1.840   4.530
 1427SOL     OW 4816   1.437   3.028   4.580
 1427SOL    HW1 4817   1.372   2.958   4.587
 1427SOL    HW2 4818   1.459   3.032   4.487
 1428SOL     OW 4819   1.471   2.469   4.705
 1428SOL    HW1 4820   1.420   2.388   4.707
 1428SOL    HW2 4821   1.533   2.460   4.777
 1429SOL     OW 4822   1.849   2.681   4.061
 1429SOL    HW1 4823   1.869   2.653   4.150
 1429SOL    HW2 4824   1.811   2.604   4.019
 1430SOL     OW 4825   0.492   3.280   3.882
 1430SOL    HW1 4826   0.416   3.252   3.934
 1430SOL    HW2 4827   0.475   3.244   3.795
 1431SOL     OW 4828   1.676   3.135   4.364
 1431SOL    HW1 4829   1.763   3.144   4.404
 1431SOL    HW2 4830   1.631   3.216   4.385
 1432SOL     OW 4831   1.392   2.437   3.793
 1432SOL    HW1 4832   1.336   2.414   3.867
 1432SOL    HW2 4833   1.479   2.405   3.817
 1433SOL     OW 4834   0.524   2.125   4.041
 1433SOL    HW1 4835   0.569   2.078   3.971
 1433SOL    HW2 4836   0.502   2.210   4.002
 1434SOL     OW 4837   1.752   3.097   5.306
 1434SOL    HW1 4838   1.839   3.058   5.303
 1434SOL    HW2 4839   1.767   3.190   5.326
 1435SOL     OW 4840   1.058   3.215   5.058
 1435SOL    HW1 4841   0.984   3.184   5.109
 1435SOL    HW2 4842   1.134   3.174   5.098
 1436SOL     OW 4843   1.608   3.488   5.379
 1436SOL    HW1 4844   1.602   3.522   5.289
 1436SOL    HW2 4845   1.690   3.439   5.381
 1437SOL     OW 4846   1.128   3.066   4.829
 1437SOL    HW1 4847   1.070   3.104   4.894
 1437SOL    HW2 4848   1.096   3.098   4.745
 1438SOL     OW 4849   1.628   2.950   4.805
 1438SOL    HW1 4850   1.619   3.018   4.872
 1438SOL    HW2 4851   1.564   2.974   4.738
 1439SOL     OW 4852   0.919   1.958   5.121
 1439SOL    HW1 4853   0.941   1.940   5.030
 1439SOL    HW2 4854   0.998   1.998   5.157
 1440SOL     OW 4855   0.984   2.976   5.447
 1440SOL    HW1 4856   0.892   2.993   5.467
 1440SOL    HW2 4857   0.983   2.899   5.391
 1441SOL     OW 4858   0.707   2.922   4.096
 1441SOL    HW1 4859   0.696   2.906   4.190
 1441SOL    HW2 4860   0.784   2.869   4.072
 1442SOL     OW 4861   0.420   2.681   4.976
 1442SOL    HW1 4862   0.489   2.688   5.042
 1442SOL    HW2 4863   0.386   2.592   4.987
 1443SOL     OW 4864   1.265   2.239   4.999
 1443SOL    HW1 4865   1.298   2.316   5.045
 1443SOL    HW2 4866   1.175   2.261   4.976
 1444SOL     OW 4867   0.101   3.485   5.091
 1444SOL    HW1 4868   0.080   3.493   4.998
 1444SOL    HW2 4869   0.188   3.443   5.092
 1445SOL     OW 4870   0.343   2.968   4.211
 1445SOL    HW1 4871   0.352   3.047   4.158
 1445SOL    HW2 4872   0.352   2.896   4.149
 1446SOL     OW 4873   0.554   2.398   4.583
 1446SOL    HW1 4874   0.570   2.457   4.509
 1446SOL    HW2 4875   0.619   2.425   4.649
 1447SOL     OW 4876   1.248   3.210   4.113
 1447SOL    HW1 4877   1.304   3.282   4.144
 1447SOL    HW2 4878   1.161   3.232   4.147
 1448SOL     OW 4879   1.281   3.320   4.871
 1448SOL    HW1 4880   1.337   3.322   4.949
 1448SOL    HW2 4881   1.227   3.241   4.882
 1449SOL     OW 4882   1.581   2.488   4.204
 1449SOL    HW1 4883   1.536   2.537   4.272
 1449SOL    HW2 4884   1.608   2.554   4.140
 1450SOL     OW 4885   0.352   3.381   5.034
 1450SOL    HW1 4886   0.341   3.338   4.950
 1450SOL    HW2 4887   0.445   3.399   5.041
 1451SOL     OW 4888   0.414   2.604   5.326
 1451SOL    HW1 4889   0.475   2.651   5.268
 1451SOL    HW2 4890   0.454   2.518   5.339
 1452SOL     OW 4891   1.603   2.642   5.405
 1452SOL    HW1 4892   1.517   2.683   5.398
 1452SOL    HW2 4893   1.655   2.683   5.336
 1453SOL     OW 4894   0.996   1.985   5.479
 1453SOL    HW1 4895   1.051   2.058   5.451
 1453SOL    HW2 4896   1.044   1.907   5.453
 1454SOL     OW 4897   0.497   1.903   5.472
 1454SOL    HW1 4898   0.455   1.849   5.405
 1454SOL    HW2 4899   0.438   1.977   5.484
 1455SOL     OW 4900   0.585   2.736   4.756
 1455SOL    HW1 4901   0.617   2.826   4.756
 1455SOL    HW2 4902   0.529   2.731   4.833
 1456SOL     OW 4903   1.356   2.721   4.752
 1456SOL    HW1 4904   1.272   2.709   4.708
 1456SOL    HW2 4905   1.398   2.635   4.749
 1457SOL     OW 4906   1.206   2.390   3.992
 1457SOL    HW1 4907   1.213   2.312   4.047
 1457SOL    HW2 4908   1.163   2.455   4.048
 1458SOL     OW 4909   0.301   2.065   4.972
 1458SOL    HW1 4910   0.267   2.090   5.058
 1458SOL    HW2 4911   0.289   1.970   4.967
 1459SOL     OW 4912   0.069   3.180   5.004
 1459SOL    HW1 4913   0.091   3.121   5.076
 1459SOL    HW2 4914   5.299   3.236   5.040
 1460SOL     OW 4915   0.724   2.493   4.782
 1460SOL    HW1 4916   0.799   2.477   4.725
 1460SOL    HW2 4917   0.696   2.582   4.761
 1461SOL     OW 4918   1.736   2.822   5.576
 1461SOL    HW1 4919   1.689   2.760   5.519
 1461SOL    HW2 4920   1.676   2.836   5.649
 1462SOL     OW 4921   0.327   1.924   4.358
 1462SOL    HW1 4922   0.307   2.013   4.386
 1462SOL    HW2 4923   0.332   1.874   4.440
 1463SOL     OW 4924   1.617   2.239   4.090
 1463SOL    HW1 4925   1.641   2.171   4.154
 1463SOL    HW2 4926   1.594   2.315   4.144
 1464SOL     OW 4927   1.028   2.621   4.684
 1464SOL    HW1 4928   1.024   2.639   4.778
 1464SOL    HW2 4929   1.001   2.529   4.676
 1465SOL     OW 4930   0.982   3.428   5.441
 1465SOL    HW1 4931   0.967   3.472   5.357
 1465SOL    HW2 4932   1.026   3.346   5.417
 1466SOL     OW 4933   1.854   3.367   5.329
 1466SOL    HW1 4934   1.872   3.396   5.240
 1466SOL    HW2 4935   1.935   3.386   5.377
 1467SOL     OW 4936   0.354   2.780   5.530
 1467SOL    HW1 4937   0.435   2.799   5.577
 1467SOL    HW2 4938   0.379   2.715   5.465
 1468SOL     OW 4939   1.527   2.133   3.852
 1468SOL    HW1 4940   1.462   2.068   3.880
 1468SOL    HW2 4941   1.560   2.171   3.934
 1469SOL     OW 4942   1.290   2.689   3.756
 1469SOL    HW1 4943   1.332   2.603   3.759
 1469SOL    HW2 4944   1.320   2.728   3.674
 1470SOL     OW 4945   1.066   3.197   4.577
 1470SOL    HW1 4946   1.069   3.125   4.515
 1470SOL    HW2 4947   1.127   3.262   4.543
 1471SOL     OW 4948   0.314   2.672   4.674
 1471SOL    HW1 4949   0.408   2.690   4.670
 1471SOL    HW2 4950   0.308   2.582   4.705
 1472SOL     OW 4951   0.335   2.388   4.739
 1472SOL    HW1 4952   0.300   2.300   4.725
 1472SOL    HW2 4953   0.410   2.393   4.679
 1473SOL     OW 4954   1.134   2.238   5.406
 1473SOL    HW1 4955   1.087   2.293   5.469
 1473SOL    HW2 4956   1.222   2.276   5.402
 1474SOL     OW 4957   1.161   2.065   5.194
 1474SOL    HW1 4958   1.150   2.128   5.266
 1474SOL    HW2 4959   1.201   2.115   5.123
 1475SOL     OW 4960   0.002   3.192   3.934
 1475SOL    HW1 4961   5.228   3.180   3.874
 1475SOL    HW2 4962   0.012   3.106   3.976
 1476SOL     OW 4963   0.093   3.644   4.675
 1476SOL    HW1 4964   0.059   3.573   4.619
 1476SOL    HW2 4965   0.180   3.662   4.640
 1477SOL     OW 4966   0.505   3.435   4.632
 1477SOL    HW1 4967   0.572   3.501   4.652
 1477SOL    HW2 4968   0.548   3.374   4.572
 1478SOL     OW 4969   0.982   2.653   4.950
 1478SOL    HW1 4970   1.039   2.632   5.024
 1478SOL    HW2 4971   0.897   2.616   4.973
 1479SOL     OW 4972   0.033   2.424   4.840
 1479SOL    HW1 4973   0.119   2.398   4.806
 1479SOL    HW2 4974   0.037   2.405   4.933
 1480SOL     OW 4975   0.174   2.375   5.436
 1480SOL    HW1 4976   0.240   2.338   5.376
 1480SOL    HW2 4977   0.146   2.456   5.393
 1481SOL     OW 4978   1.377   2.801   5.382
 1481SOL    HW1 4979   1.398   2.895   5.380
 1481SOL    HW2 4980   1.374   2.775   5.290
 1482SOL     OW 4981   0.816   2.431   4.084
 1482SOL    HW1 4982   0.820   2.356   4.024
 1482SOL    HW2 4983   0.742   2.483   4.053
 1483SOL     OW 4984   1.661   2.458   4.906
 1483SOL    HW1 4985   1.640   2.404   4.982
 1483SOL    HW2 4986   1.754   2.440   4.890
 1484SOL     OW 4987   0.256   3.418   5.459
 1484SOL    HW1 4988   0.234   3.481   5.527
 1484SOL    HW2 4989   0.250   3.332   5.501
 1485SOL     OW 4990   0.701   2.312   4.984
 1485SOL    HW1 4991   0.649   2.238   4.954
 1485SOL    HW2 4992   0.697   2.375   4.912
 1486SOL     OW 4993   0.928   3.541   5.192
 1486SOL    HW1 4994   0.902   3.506   5.107
 1486SOL    HW2 4995   0.923   3.636   5.181
 1487SOL     OW 4996   0.465   2.355   3.909
 1487SOL    HW1 4997   0.525   2.426   3.931
 1487SOL    HW2 4998   0.380   2.398   3.897
 1488SOL     OW 4999   0.148   2.999   5.195
 1488SOL    HW1 5000   0.146   2.951   5.277
 1488SOL    HW2 5001   0.160   2.932   5.128
 1489SOL     OW 5002   1.322   2.907   4.949
 1489SOL    HW1 5003   1.351   2.848   4.880
 1489SOL    HW2 5004   1.253   2.960   4.908
 1490SOL     OW 5005   1.311   2.716   4.031
 1490SOL    HW1 5006   1.235   2.688   4.081
 1490SOL    HW2 5007   1.287   2.704   3.940
 1491SOL     OW 5008   1.772   3.605   4.875
 1491SOL    HW1 5009   1.831   3.632   4.805
 1491SOL    HW2 5010   1.748   3.514   4.853
 1492SOL     OW 5011   1.241   3.595   4.837
 1492SOL    HW1 5012   1.323   3.615   4.792
 1492SOL    HW2 5013   1.246   3.501   4.856
 1493SOL     OW 5014   0.083   3.079   4.751
 1493SOL    HW1 5015   0.070   3.104   4.842
 1493SOL    HW2 5016   5.294   3.068   4.717
 1494SOL     OW 5017   0.678   3.528   5.453
 1494SOL    HW1 5018   0.622   3.606   5.448
 1494SOL    HW2 5019   0.742   3.539   5.383
 1495SOL     OW 5020   1.706   1.997   4.224
 1495SOL    HW1 5021   1.788   1.987   4.176
 1495SOL    HW2 5022   1.694   1.912   4.267
 1496SOL     OW 5023   1.391   3.430   4.209
 1496SOL    HW1 5024   1.451   3.461   4.142
 1496SOL    HW2 5025   1.342   3.507   4.237
 1497SOL     OW 5026   0.145   3.660   5.566
 1497SOL    HW1 5027   0.090   3.597   5.613
 1497SOL    HW2 5028   0.191   3.707   5.635
 1498SOL     OW 5029   1.276   2.787   4.393
 1498SOL    HW1 5030   1.350   2.726   4.400
 1498SOL    HW2 5031   1.311   2.861   4.342
 1499SOL     OW 5032   0.814   3.135   5.154
 1499SOL    HW1 5033   0.786   3.175   5.236
 1499SOL    HW2 5034   0.745   3.156   5.092
 1500SOL     OW 5035   0.672   3.481   3.879
 1500SOL    HW1 5036   0.683   3.494   3.785
 1500SOL    HW2 5037   0.617   3.403   3.887
 1501SOL     OW 5038   1.627   3.589   5.116
 1501SOL    HW1 5039   1.676   3.596   5.034
 1501SOL    HW2 5040   1.613   3.680   5.144
 1502SOL     OW 5041   1.835   2.035   4.699
 1502SOL    HW1 5042   1.877   1.955   4.667
 1502SOL    HW2 5043   1.754   2.042   4.648
 1503SOL     OW 5044   0.273   2.179   4.441
 1503SOL    HW1 5045   0.188   2.218   4.421
 1503SOL    HW2 5046   0.272   2.168   4.536
 1504SOL     OW 5047   1.206   3.468   3.756
 1504SOL    HW1 5048   1.197   3.377   3.782
 1504SOL    HW2 5049   1.142   3.480   3.686
 1505SOL     OW 5050   0.824   2.867   5.096
 1505SOL    HW1 5051   0.868   2.863   5.012
 1505SOL    HW2 5052   0.824   2.961   5.118
 1506SOL     OW 5053   0.915   2.772   4.014
 1506SOL    HW1 5054   0.976   2.804   3.947
 1506SOL    HW2 5055   0.963   2.703   4.059
 1507SOL     OW 5056   1.491   3.487   3.766
 1507SOL    HW1 5057   1.397   3.481   3.752
 1507SOL    HW2 5058   1.529   3.493   3.678
 1508SOL     OW 5059   0.367   3.166   5.217
 1508SOL    HW1 5060   0.359   3.240   5.158
 1508SOL    HW2 5061   0.292   3.111   5.198
 1509SOL     OW 5062   1.598   3.139   5.000
 1509SOL    HW1 5063   1.680   3.143   5.049
 1509SOL    HW2 5064   1.546   3.213   5.034
 1510SOL     OW 5065   1.052   2.969   4.430
 1510SOL    HW1 5066   0.982   2.917   4.470
 1510SOL    HW2 5067   1.115   2.903   4.400
 1511SOL     OW 5068   1.021   2.102   4.690
 1511SOL    HW1 5069   1.017   2.055   4.607
 1511SOL    HW2 5070   1.016   2.035   4.757
 1512SOL     OW 5071   0.601   3.349   4.205
 1512SOL    HW1 5072   0.646   3.301   4.136
 1512SOL    HW2 5073   0.535   3.400   4.159
 1513SOL     OW 5074   1.719   2.251   5.105
 1513SOL    HW1 5075   1.792   2.313   5.107
 1513SOL    HW2 5076   1.751   2.180   5.049
 1514SOL     OW 5077   0.260   3.210   4.016
 1514SOL    HW1 5078   0.167   3.212   3.994
 1514SOL    HW2 5079   0.264   3.247   4.105
 1515SOL     OW 5080   0.116   2.878   5.442
 1515SOL    HW1 5081   0.045   2.843   5.496
 1515SOL    HW2 5082   0.196   2.847   5.484
 1516SOL     OW 5083   0.674   2.058   5.223
 1516SOL    HW1 5084   0.758   2.038   5.182
 1516SOL    HW2 5085   0.697   2.090   5.310
 1517SOL     OW 5086   0.082   2.212   3.765
 1517SOL    HW1 5087   0.003   2.164   3.742
 1517SOL    HW2 5088   0.098   2.269   3.690
 1518SOL     OW 5089   1.429   2.720   5.124
 1518SOL    HW1 5090   1.379   2.781   5.070
 1518SOL    HW2 5091   1.518   2.722   5.087
 1519SOL     OW 5092   0.056   1.995   3.967
 1519SOL    HW1 5093   0.055   2.090   3.958
 1519SOL    HW2 5094   0.145   1.970   3.945
 1520SOL     OW 5095   1.179   3.201   3.841
 1520SOL    HW1 5096   1.088   3.172   3.844
 1520SOL    HW2 5097   1.206   3.202   3.933
 1521SOL     OW 5098   0.619   2.693   5.159
 1521SOL    HW1 5099   0.676   2.769   5.143
 1521SOL    HW2 5100   0.680   2.619   5.167
 1522SOL     OW 5101   1.483   3.639   4.702
 1522SOL    HW1 5102   1.506   3.698   4.630
 1522SOL    HW2 5103   1.566   3.623   4.747
 1523SOL     OW 5104   0.717   2.426   5.429
 1523SOL    HW1 5105   0.758   2.489   5.488
 1523SOL    HW2 5106   0.745   2.340   5.460
 1524SOL     OW 5107   1.471   3.062   5.356
 1524SOL    HW1 5108   1.460   3.076   5.450
 1524SOL    HW2 5109   1.564   3.077   5.340
 1525SOL     OW 5110   0.378   3.604   5.288
 1525SOL    HW1 5111   0.295   3.650   5.272
 1525SOL    HW2 5112   0.352   3.524   5.333
 1526SOL     OW 5113   1.667   2.743   4.982
 1526SOL    HW1 5114   1.670   2.660   4.934
 1526SOL    HW2 5115   1.659   2.810   4.914
 1527SOL     OW 5116   1.217   2.180   4.182
 1527SOL    HW1 5117   1.280   2.109   4.174
 1527SOL    HW2 5118   1.245   2.230   4.259
 1528SOL     OW 5119   0.590   2.599   4.393
 1528SOL    HW1 5120   0.629   2.685   4.378
 1528SOL    HW2 5121   0.521   2.592   4.327
 1529SOL     OW 5122   1.763   2.223   5.376
 1529SOL    HW1 5123   1.747   2.239   5.283
 1529SOL    HW2 5124   1.690   2.167   5.403
 1530SOL     OW 5125   1.748   2.799   5.235
 1530SOL    HW1 5126   1.735   2.893   5.248
 1530SOL    HW2 5127   1.727   2.784   5.143
 1531SOL     OW 5128   0.862   3.229   3.758
 1531SOL    HW1 5129   0.824   3.258   3.841
 1531SOL    HW2 5130   0.881   3.310   3.711
 1532SOL     OW 5131   0.663   3.655   4.668
 1532SOL    HW1 5132   0.642   3.746   4.645
 1532SOL    HW2 5133   0.758   3.651   4.661
 1533SOL     OW 5134   0.867   2.828   4.578
 1533SOL    HW1 5135   0.918   2.757   4.618
 1533SOL    HW2 5136   0.833   2.878   4.653
 1534SOL     OW 5137   1.077   2.850   3.813
 1534SOL    HW1 5138   1.057   2.901   3.735
 1534SOL    HW2 5139   1.153   2.797   3.787
 1535SOL     OW 5140   1.851   3.405   4.573
 1535SOL    HW1 5141   1.776   3.412   4.513
 1535SOL    HW2 5142   1.815   3.368   4.653
 1536SOL     OW 5143   0.225   3.167   5.584
 1536SOL    HW1 5144   0.157   3.104   5.558
 1536SOL    HW2 5145   0.214   3.177   5.678
 1537SOL     OW 5146   0.087   3.082   4.379
 1537SOL    HW1 5147   0.101   3.049   4.468
 1537SOL    HW2 5148   0.173   3.076   4.338
 1538SOL     OW 5149   0.681   3.264   5.352
 1538SOL    HW1 5150   0.601   3.222   5.382
 1538SOL    HW2 5151   0.677   3.353   5.388
 1539SOL     OW 5152   1.816   2.046   4.965
 1539SOL    HW1 5153   1.827   1.952   4.979
 1539SOL    HW2 5154   1.825   2.057   4.870
 1540SOL     OW 5155   0.434   2.298   4.248
 1540SOL    HW1 5156   0.462   2.225   4.192
 1540SOL    HW2 5157   0.387   2.256   4.320
 1541SOL     OW 5158   1.711   3.347   4.811
 1541SOL    HW1 5159   1.624   3.322   4.779
 1541SOL    HW2 5160   1.734   3.281   4.875
 1542SOL     OW 5161   0.336   2.421   5.015
 1542SOL    HW1 5162   0.390   2.362   5.069
 1542SOL    HW2 5163   0.350   2.392   4.925
 1543SOL     OW 5164   0.828   3.440   4.402
 1543SOL    HW1 5165   0.815   3.494   4.324
 1543SOL    HW2 5166   0.751   3.382   4.404
 1544SOL     OW 5167   1.432   2.088   4.841
 1544SOL    HW1 5168   1.461   2.009   4.888
 1544SOL    HW2 5169   1.380   2.136   4.905
 1545SOL     OW 5170   1.009   1.881   4.866
 1545SOL    HW1 5171   0.955   1.813   4.826
 1545SOL    HW2 5172   1.097   1.843   4.868
 1546SOL     OW 5173   0.772   3.195   4.039
 1546SOL    HW1 5174   0.742   3.104   4.045
 1546SOL    HW2 5175   0.854   3.196   4.088
 1547SOL     OW 5176   0.623   3.418   5.011
 1547SOL    HW1 5177   0.624   3.500   5.060
 1547SOL    HW2 5178   0.710   3.412   4.972
 1548SOL     OW 5179   1.352   1.915   3.890
 1548SOL    HW1 5180   1.380   1.852   3.824
 1548SOL    HW2 5181   1.265   1.885   3.916
 1549SOL     OW 5182   1.295   2.323   4.404
 1549SOL    HW1 5183   1.242   2.403   4.412
 1549SOL    HW2 5184   1.291   2.284   4.491
 1550SOL     OW 5185   1.581   2.062   4.598
 1550SOL    HW1 5186   1.526   2.081   4.674
 1550SOL    HW2 5187   1.579   2.142   4.546
 1551SOL     OW 5188   0.048   2.931   4.014
 1551SOL    HW1 5189   0.137   2.898   4.003
 1551SOL    HW2 5190   5.300   2.855   4.049
 1552SOL     OW 5191   0.885   3.514   4.066
 1552SOL    HW1 5192   0.812   3.498   4.006
 1552SOL    HW2 5193   0.857   3.589   4.118
 1553SOL     OW 5194   0.233   2.494   5.702
 1553SOL    HW1 5195   0.160   2.460   5.753
 1553SOL    HW2 5196   0.219   2.460   5.614
 1554SOL     OW 5197   0.242   2.138   6.576
 1554SOL    HW1 5198   0.256   2.103   6.664
 1554SOL    HW2 5199   0.158   2.101   6.548
 1555SOL     OW 5200   5.298   2.260   6.239
 1555SOL    HW1 5201   5.205   2.282   6.245
 1555SOL    HW2 5202   5.299   2.170   6.207
 1556SOL     OW 5203   0.574   3.146   6.768
 1556SOL    HW1 5204   0.491   3.155   6.720
 1556SOL    HW2 5205   0.590   3.234   6.803
 1557SOL     OW 5206   1.561   3.374   6.293
 1557SOL    HW1 5207   1.518   3.354   6.376
 1557SOL    HW2 5208   1.490   3.378   6.229
 1558SOL     OW 5209   1.130   2.560   6.287
 1558SOL    HW1 5210   1.179   2.641   6.273
 1558SOL    HW2 5211   1.084   2.574   6.369
 1559SOL     OW 5212   1.767   2.467   5.815
 1559SOL    HW1 5213   1.746   2.460   5.722
 1559SOL    HW2 5214   1.731   2.388   5.854
 1560SOL     OW 5215   0.755   3.003   6.625
 1560SOL    HW1 5216   0.688   3.037   6.685
 1560SOL    HW2 5217   0.791   3.080   6.582
 1561SOL     OW 5218   0.865   2.638   7.406
 1561SOL    HW1 5219   0.855   2.713   7.465
 1561SOL    HW2 5220   0.891   2.677   7.322
 1562SOL     OW 5221   0.685   2.864   6.233
 1562SOL    HW1 5222   0.751   2.852   6.302
 1562SOL    HW2 5223   0.617   2.918   6.275
 1563SOL     OW 5224   0.709   3.013   7.399
 1563SOL    HW1 5225   0.758   3.091   7.425
 1563SOL    HW2 5226   0.628   3.047   7.362
 1564SOL     OW 5227   0.358   3.267   6.646
 1564SOL    HW1 5228   0.270   3.266   6.609
 1564SOL    HW2 5229   0.407   3.329   6.592
 1565SOL     OW 5230   1.461   3.362   6.940
 1565SOL    HW1 5231   1.512   3.442   6.949
 1565SOL    HW2 5232   1.399   3.363   7.013
 1566SOL     OW 5233   0.451   2.262   7.079
 1566SOL    HW1 5234   0.525   2.202   7.081
 1566SOL    HW2 5235   0.374   2.206   7.088
 1567SOL     OW 5236   1.612   2.310   6.326
 1567SOL    HW1 5237   1.537   2.333   6.271
 1567SOL    HW2 5238   1.627   2.388   6.380
 1568SOL     OW 5239   0.231   3.576   6.063
 1568SOL    HW1 5240   0.264   3.645   6.121
 1568SOL    HW2 5241   0.293   3.573   5.991
 1569SOL     OW 5242   1.136   3.203   7.276
 1569SOL    HW1 5243   1.177   3.200   7.363
 1569SOL    HW2 5244   1.085   3.123   7.271
 1570SOL     OW 5245   0.222   3.306   6.125
 1570SOL    HW1 5246   0.215   3.402   6.121
 1570SOL    HW2 5247   0.152   3.279   6.185
 1571SOL     OW 5248   0.250   2.939   6.461
 1571SOL    HW1 5249   0.261   2.854   6.503
 1571SOL    HW2 5250   0.198   2.991   6.523
 1572SOL     OW 5251   0.613   3.652   7.018
 1572SOL    HW1 5252   0.530   3.635   7.061
 1572SOL    HW2 5253   0.634   3.743   7.041
 1573SOL     OW 5254   0.583   2.845   5.721
 1573SOL    HW1 5255   0.629   2.893   5.652
 1573SOL    HW2 5256   0.624   2.875   5.802
 1574SOL     OW 5257   1.596   1.985   7.054
 1574SOL    HW1 5258   1.603   2.066   7.003
 1574SOL    HW2 5259   1.582   2.015   7.144
 1575SOL     OW 5260   0.126   2.496   6.165
 1575SOL    HW1 5261   0.089   2.413   6.194
 1575SOL    HW2 5262   0.099   2.559   6.232
 1576SOL     OW 5263   1.842   3.621   5.921
 1576SOL    HW1 5264   1.906   3.592   5.986
 1576SOL    HW2 5265   1.866   3.711   5.902
 1577SOL     OW 5266   0.038   3.461   5.718
 1577SOL    HW1 5267   0.025   3.369   5.743
 1577SOL    HW2 5268   5.283   3.511   5.778
 1578SOL     OW 5269   1.688   2.780   6.226
 1578SOL    HW1 5270   1.772   2.739   6.206
 1578SOL    HW2 5271   1.667   2.831   6.148
 1579SOL     OW 5272   1.646   2.968   6.015
 1579SOL    HW1 5273   1.732   2.975   5.973
 1579SOL    HW2 5274   1.651   3.030   6.089
 1580SOL     OW 5275   0.131   2.609   7.173
 1580SOL    HW1 5276   0.226   2.623   7.173
 1580SOL    HW2 5277   0.094   2.696   7.188
 1581SOL     OW 5278   0.615   3.247   6.321
 1581SOL    HW1 5279   0.568   3.165   6.331
 1581SOL    HW2 5280   0.598   3.274   6.230
 1582SOL     OW 5281   1.289   3.100   7.009
 1582SOL    HW1 5282   1.321   3.033   6.949
 1582SOL    HW2 5283   1.346   3.094   7.086
 1583SOL     OW 5284   0.823   1.861   6.096
 1583SOL    HW1 5285   0.863   1.946   6.076
 1583SOL    HW2 5286   0.729   1.880   6.102
 1584SOL     OW 5287   0.177   2.808   6.864
 1584SOL    HW1 5288   0.267   2.778   6.855
 1584SOL    HW2 5289   0.135   2.783   6.782
 1585SOL     OW 5290   1.532   2.855   5.785
 1585SOL    HW1 5291   1.462   2.798   5.816
 1585SOL    HW2 5292   1.572   2.890   5.864
 1586SOL     OW 5293   1.185   3.668   7.208
 1586SOL    HW1 5294   1.196   3.727   7.133
 1586SOL    HW2 5295   1.202   3.581   7.173
 1587SOL     OW 5296   0.337   2.114   7.402
 1587SOL    HW1 5297   0.384   2.197   7.415
 1587SOL    HW2 5298   0.250   2.131   7.437
 1588SOL     OW 5299   1.466   3.282   6.537
 1588SOL    HW1 5300   1.398   3.297   6.603
 1588SOL    HW2 5301   1.454   3.190   6.511
 1589SOL     OW 5302   1.658   3.602   6.164
 1589SOL    HW1 5303   1.639   3.572   6.075
 1589SOL    HW2 5304   1.634   3.528   6.220
 1590SOL     OW 5305   0.595   2.583   5.852
 1590SOL    HW1 5306   0.603   2.664   5.801
 1590SOL    HW2 5307   0.531   2.603   5.919
 1591SOL     OW 5308   1.279   2.215   6.518
 1591SOL    HW1 5309   1.190   2.182   6.527
 1591SOL    HW2 5310   1.330   2.162   6.580
 1592SOL     OW 5311   1.580   3.532   5.895
 1592SOL    HW1 5312   1.671   3.563   5.888
 1592SOL    HW2 5313   1.554   3.515   5.805
 1593SOL     OW 5314   0.791   2.479   7.038
 1593SOL    HW1 5315   0.765   2.455   7.126
 1593SOL    HW2 5316   0.752   2.413   6.982
 1594SOL     OW 5317   1.393   2.336   7.263
 1594SOL    HW1 5318   1.396   2.381   7.348
 1594SOL    HW2 5319   1.455   2.263   7.273
 1595SOL     OW 5320   0.955   2.749   7.168
 1595SOL    HW1 5321   1.009   2.679   7.132
 1595SOL    HW2 5322   0.907   2.784   7.093
 1596SOL     OW 5323   0.992   2.275   6.825
 1596SOL    HW1 5324   0.906   2.296   6.861
 1596SOL    HW2 5325   0.973   2.228   6.743
 1597SOL     OW 5326   1.051   2.560   6.012
 1597SOL    HW1 5327   1.067   2.554   6.106
 1597SOL    HW2 5328   0.968   2.514   5.998
 1598SOL     OW 5329   0.071   2.649   6.397
 1598SOL    HW1 5330   0.153   2.654   6.447
 1598SOL    HW2 5331   0.064   2.735   6.355
 1599SOL     OW 5332   0.129   3.746   7.170
 1599SOL    HW1 5333   0.131   3.717   7.262
 1599SOL    HW2 5334   0.060   3.694   7.130
 1600SOL     OW 5335   0.893   2.211   5.780
 1600SOL    HW1 5336   0.933   2.273   5.719
 1600SOL    HW2 5337   0.910   2.125   5.741
 1601SOL     OW 5338   1.708   2.437   7.415
 1601SOL    HW1 5339   1.671   2.511   7.368
 1601SOL    HW2 5340   1.736   2.376   7.347
 1602SOL     OW 5341   1.377   3.004   6.127
 1602SOL    HW1 5342   1.456   2.991   6.074
 1602SOL    HW2 5343   1.324   3.066   6.077
 1603SOL     OW 5344   0.555   2.045   6.479
 1603SOL    HW1 5345   0.553   2.073   6.571
 1603SOL    HW2 5346   0.551   2.126   6.429
 1604SOL     OW 5347   1.005   3.306   6.058
 1604SOL    HW1 5348   0.968   3.379   6.009
 1604SOL    HW2 5349   0.988   3.327   6.150
 1605SOL     OW 5350   0.357   3.665   6.456
 1605SOL    HW1 5351   0.397   3.579   6.469
 1605SOL    HW2 5352   0.423   3.727   6.485
 1606SOL     OW 5353   1.798   2.918   6.454
 1606SOL    HW1 5354   1.743   2.902   6.378
 1606SOL    HW2 5355   1.736   2.924   6.527
 1607SOL     OW 5356   1.228   3.401   7.099
 1607SOL    HW1 5357   1.214   3.328   7.159
 1607SOL    HW2 5358   1.164   3.387   7.029
 1608SOL     OW 5359   0.316   2.814   5.834
 1608SOL    HW1 5360   0.397   2.838   5.790
 1608SOL    HW2 5361   0.293   2.728   5.797
 1609SOL     OW 5362   1.478   2.604   6.313
 1609SOL    HW1 5363   1.470   2.562   6.398
 1609SOL    HW2 5364   1.556   2.660   6.321
 1610SOL     OW 5365   0.464   3.125   7.323
 1610SOL    HW1 5366   0.438   3.131   7.232
 1610SOL    HW2 5367   0.382   3.126   7.372
 1611SOL     OW 5368   1.122   3.640   5.817
 1611SOL    HW1 5369   1.049   3.598   5.863
 1611SOL    HW2 5370   1.145   3.578   5.747
 1612SOL     OW 5371   0.205   2.142   7.084
 1612SOL    HW1 5372   0.125   2.193   7.066
 1612SOL    HW2 5373   0.173   2.062   7.127
 1613SOL     OW 5374   1.629   3.242   5.674
 1613SOL    HW1 5375   1.587   3.327   5.659
 1613SOL    HW2 5376   1.560   3.178   5.654
 1614SOL     OW 5377   0.471   3.597   5.906
 1614SOL    HW1 5378   0.514   3.655   5.969
 1614SOL    HW2 5379   0.542   3.566   5.849
 1615SOL     OW 5380   1.401   1.969   6.019
 1615SOL    HW1 5381   1.391   1.945   5.927
 1615SOL    HW2 5382   1.496   1.976   6.032
 1616SOL     OW 5383   0.276   3.663   6.799
 1616SOL    HW1 5384   0.307   3.586   6.847
 1616SOL    HW2 5385   0.225   3.628   6.726
 1617SOL     OW 5386   0.939   3.561   6.485
 1617SOL    HW1 5387   1.016   3.509   6.506
 1617SOL    HW2 5388   0.894   3.511   6.416
 1618SOL     OW 5389   0.386   2.558   6.065
 1618SOL    HW1 5390   0.415   2.467   6.074
 1618SOL    HW2 5391   0.292   2.555   6.086
 1619SOL     OW 5392   1.535   2.087   7.311
 1619SOL    HW1 5393   1.545   2.108   7.404
 1619SOL    HW2 5394   1.466   2.021   7.309
 1620SOL     OW 5395   0.633   1.984   5.692
 1620SOL    HW1 5396   0.704   1.921   5.703
 1620SOL    HW2 5397   0.585   1.953   5.615
 1621SOL     OW 5398   0.766   2.138   7.339
 1621SOL    HW1 5399   0.842   2.081   7.341
 1621SOL    HW2 5400   0.723   2.125   7.424
 1622SOL     OW 5401   0.877   3.384   6.779
 1622SOL    HW1 5402   0.861   3.347   6.692
 1622SOL    HW2 5403   0.947   3.329   6.816
 1623SOL     OW 5404   1.340   2.451   7.018
 1623SOL    HW1 5405   1.371   2.420   7.103
 1623SOL    HW2 5406   1.377   2.539   7.010
 1624SOL     OW 5407   0.816   3.256   6.526
 1624SOL    HW1 5408   0.900   3.245   6.482
 1624SOL    HW2 5409   0.751   3.258   6.455
 1625SOL     OW 5410   0.928   2.371   6.489
 1625SOL    HW1 5411   0.904   2.363   6.397
 1625SOL    HW2 5412   0.959   2.284   6.514
 1626SOL     OW 5413   0.560   1.923   6.082
 1626SOL    HW1 5414   0.485   1.923   6.141
 1626SOL    HW2 5415   0.550   2.003   6.030
 1627SOL     OW 5416   1.429   3.061   5.627
 1627SOL    HW1 5417   1.458   2.985   5.677
 1627SOL    HW2 5418   1.343   3.081   5.665
 1628SOL     OW 5419   0.305   1.909   5.765
 1628SOL    HW1 5420   0.368   1.973   5.730
 1628SOL    HW2 5421   0.360   1.844   5.810
 1629SOL     OW 5422   0.940   2.109   6.046
 1629SOL    HW1 5423   0.912   2.150   5.964
 1629SOL    HW2 5424   1.034   2.123   6.050
 1630SOL     OW 5425   1.080   2.543   7.045
 1630SOL    HW1 5426   1.011   2.476   7.050
 1630SOL    HW2 5427   1.161   2.493   7.039
 1631SOL     OW 5428   1.223   3.432   6.380
 1631SOL    HW1 5429   1.239   3.499   6.313
 1631SOL    HW2 5430   1.291   3.446   6.445
 1632SOL     OW 5431   0.467   3.012   6.317
 1632SOL    HW1 5432   0.398   2.992   6.381
 1632SOL    HW2 5433   0.428   2.994   6.232
 1633SOL     OW 5434   1.269   3.656   6.194
 1633SOL    HW1 5435   1.315   3.717   6.137
 1633SOL    HW2 5436   1.202   3.709   6.238
 1634SOL     OW 5437   1.023   2.404   5.609
 1634SOL    HW1 5438   0.981   2.487   5.589
 1634SOL    HW2 5439   1.089   2.425   5.675
 1635SOL     OW 5440   0.088   2.406   6.985
 1635SOL    HW1 5441   0.175   2.414   6.947
 1635SOL    HW2 5442   0.080   2.483   7.042
 1636SOL     OW 5443   0.560   2.090   6.752
 1636SOL    HW1 5444   0.598   2.010   6.790
 1636SOL    HW2 5445   0.469   2.088   6.780
 1637SOL     OW 5446   0.868   2.321   6.226
 1637SOL    HW1 5447   0.822   2.375   6.161
 1637SOL    HW2 5448   0.889   2.240   6.178
 1638SOL     OW 5449   1.015   1.915   6.337
 1638SOL    HW1 5450   0.957   1.908   6.262
 1638SOL    HW2 5451   0.994   1.840   6.392
 1639SOL     OW 5452   1.437   3.025   6.443
 1639SOL    HW1 5453   1.368   2.959   6.442
 1639SOL    HW2 5454   1.462   3.036   6.351
 1640SOL     OW 5455   1.466   2.467   6.563
 1640SOL    HW1 5456   1.415   2.386   6.566
 1640SOL    HW2 5457   1.526   2.461   6.637
 1641SOL     OW 5458   1.846   2.678   5.969
 1641SOL    HW1 5459   1.903   2.627   6.027
 1641SOL    HW2 5460   1.817   2.615   5.902
 1642SOL     OW 5461   0.492   3.280   5.744
 1642SOL    HW1 5462   0.416   3.252   5.796
 1642SOL    HW2 5463   0.475   3.243   5.657
 1643SOL     OW 5464   1.670   3.126   6.232
 1643SOL    HW1 5465   1.765   3.129   6.246
 1643SOL    HW2 5466   1.640   3.214   6.253
 1644SOL     OW 5467   1.394   2.434   5.657
 1644SOL    HW1 5468   1.333   2.414   5.729
 1644SOL    HW2 5469   1.479   2.402   5.688
 1645SOL     OW 5470   0.524   2.125   5.903
 1645SOL    HW1 5471   0.569   2.078   5.833
 1645SOL    HW2 5472   0.502   2.210   5.864
 1646SOL     OW 5473   1.752   3.101   7.159
 1646SOL    HW1 5474   1.840   3.063   7.154
 1646SOL    HW2 5475   1.767   3.191   7.189
 1647SOL     OW 5476   1.059   3.215   6.919
 1647SOL    HW1 5477   0.984   3.184   6.971
 1647SOL    HW2 5478   1.135   3.174   6.961
 1648SOL     OW 5479   1.607   3.487   7.238
 1648SOL    HW1 5480   1.602   3.521   7.149
 1648SOL    HW2 5481   1.690   3.440   7.241
 1649SOL     OW 5482   1.128   3.065   6.691
 1649SOL    HW1 5483   1.070   3.104   6.756
 1649SOL    HW2 5484   1.096   3.098   6.607
 1650SOL     OW 5485   1.628   2.960   6.664
 1650SOL    HW1 5486   1.623   3.022   6.736
 1650SOL    HW2 5487   1.549   2.977   6.612
 1651SOL     OW 5488   0.918   1.958   6.983
 1651SOL    HW1 5489   0.941   1.940   6.891
 1651SOL    HW2 5490   0.997   1.998   7.019
 1652SOL     OW 5491   0.984   2.976   7.311
 1652SOL    HW1 5492   0.892   2.993   7.329
 1652SOL    HW2 5493   0.984   2.898   7.254
 1653SOL     OW 5494   0.707   2.922   5.958
 1653SOL    HW1 5495   0.696   2.906   6.052
 1653SOL    HW2 5496   0.784   2.869   5.934
 1654SOL     OW 5497   0.420   2.681   6.838
 1654SOL    HW1 5498   0.489   2.688   6.904
 1654SOL    HW2 5499   0.386   2.592   6.849
 1655SOL     OW 5500   1.265   2.239   6.861
 1655SOL    HW1 5501   1.298   2.316   6.907
 1655SOL    HW2 5502   1.175   2.261   6.838
 1656SOL     OW 5503   0.102   3.485   6.953
 1656SOL    HW1 5504   0.079   3.493   6.860
 1656SOL    HW2 5505   0.188   3.443   6.953
 1657SOL     OW 5506   0.343   2.968   6.073
 1657SOL    HW1 5507   0.352   3.047   6.020
 1657SOL    HW2 5508   0.352   2.896   6.011
 1658SOL     OW 5509   0.554   2.398   6.445
 1658SOL    HW1 5510   0.570   2.457   6.371
 1658SOL    HW2 5511   0.619   2.425   6.511
 1659SOL     OW 5512   1.248   3.210   5.975
 1659SOL    HW1 5513   1.304   3.282   6.006
 1659SOL    HW2 5514   1.161   3.231   6.009
 1660SOL     OW 5515   1.281   3.319   6.733
 1660SOL    HW1 5516   1.337   3.323   6.811
 1660SOL    HW2 5517   1.226   3.243   6.747
 1661SOL     OW 5518   1.582   2.485   6.065
 1661SOL    HW1 5519   1.535   2.538   6.129
 1661SOL    HW2 5520   1.626   2.548   6.009
 1662SOL     OW 5521   0.352   3.381   6.897
 1662SOL    HW1 5522   0.342   3.338   6.812
 1662SOL    HW2 5523   0.445   3.399   6.903
 1663SOL     OW 5524   0.414   2.605   7.188
 1663SOL    HW1 5525   0.475   2.651   7.131
 1663SOL    HW2 5526   0.453   2.518   7.200
 1664SOL     OW 5527   1.601   2.640   7.268
 1664SOL    HW1 5528   1.515   2.682   7.261
 1664SOL    HW2 5529   1.653   2.682   7.200
 1665SOL     OW 5530   0.996   1.986   7.341
 1665SOL    HW1 5531   1.052   2.058   7.313
 1665SOL    HW2 5532   1.045   1.907   7.315
 1666SOL     OW 5533   0.498   1.903   7.333
 1666SOL    HW1 5534   0.456   1.849   7.266
 1666SOL    HW2 5535   0.439   1.977   7.345
 1667SOL     OW 5536   0.585   2.736   6.618
 1667SOL    HW1 5537   0.617   2.826   6.618
 1667SOL    HW2 5538   0.529   2.731   6.695
 1668SOL     OW 5539   1.358   2.721   6.616
 1668SOL    HW1 5540   1.274   2.711   6.569
 1668SOL    HW2 5541   1.398   2.634   6.610
 1669SOL     OW 5542   1.205   2.390   5.853
 1669SOL    HW1 5543   1.213   2.312   5.907
 1669SOL    HW2 5544   1.162   2.455   5.909
 1670SOL     OW 5545   0.301   2.065   6.834
 1670SOL    HW1 5546   0.267   2.090   6.920
 1670SOL    HW2 5547   0.289   1.971   6.829
 1671SOL     OW 5548   0.068   3.180   6.866
 1671SOL    HW1 5549   0.091   3.121   6.938
 1671SOL    HW2 5550   5.299   3.235   6.902
 1672SOL     OW 5551   0.724   2.493   6.644
 1672SOL    HW1 5552   0.799   2.477   6.586
 1672SOL    HW2 5553   0.696   2.582   6.623
 1673SOL     OW 5554   1.735   2.822   7.438
 1673SOL    HW1 5555   1.687   2.761   7.382
 1673SOL    HW2 5556   1.677   2.836   7.514
 1674SOL     OW 5557   0.327   1.924   6.220
 1674SOL    HW1 5558   0.307   2.013   6.248
 1674SOL    HW2 5559   0.332   1.874   6.302
 1675SOL     OW 5560   1.616   2.236   5.953
 1675SOL    HW1 5561   1.644   2.172   6.019
 1675SOL    HW2 5562   1.594   2.314   6.003
 1676SOL     OW 5563   1.028   2.621   6.546
 1676SOL    HW1 5564   1.024   2.639   6.640
 1676SOL    HW2 5565   1.001   2.529   6.538
 1677SOL     OW 5566   0.981   3.427   7.303
 1677SOL    HW1 5567   0.967   3.472   7.219
 1677SOL    HW2 5568   1.026   3.346   7.279
 1678SOL     OW 5569   1.854   3.369   7.191
 1678SOL    HW1 5570   1.873   3.394   7.101
 1678SOL    HW2 5571   1.936   3.386   7.238
 1679SOL     OW 5572   0.354   2.777   7.394
 1679SOL    HW1 5573   0.436   2.800   7.438
 1679SOL    HW2 5574   0.378   2.714   7.327
 1680SOL     OW 5575   1.529   2.135   5.713
 1680SOL    HW1 5576   1.464   2.070   5.740
 1680SOL    HW2 5577   1.562   2.171   5.796
 1681SOL     OW 5578   1.292   2.688   5.617
 1681SOL    HW1 5579   1.335   2.603   5.620
 1681SOL    HW2 5580   1.323   2.728   5.535
 1682SOL     OW 5581   1.066   3.198   6.440
 1682SOL    HW1 5582   1.069   3.125   6.377
 1682SOL    HW2 5583   1.127   3.262   6.405
 1683SOL     OW 5584   0.314   2.672   6.536
 1683SOL    HW1 5585   0.408   2.690   6.532
 1683SOL    HW2 5586   0.308   2.582   6.567
 1684SOL     OW 5587   0.335   2.388   6.601
 1684SOL    HW1 5588   0.300   2.300   6.587
 1684SOL    HW2 5589   0.410   2.394   6.542
 1685SOL     OW 5590   1.134   2.237   7.267
 1685SOL    HW1 5591   1.087   2.293   7.329
 1685SOL    HW2 5592   1.222   2.276   7.263
 1686SOL     OW 5593   1.161   2.064   7.056
 1686SOL    HW1 5594   1.150   2.127   7.127
 1686SOL    HW2 5595   1.200   2.115   6.985
 1687SOL     OW 5596   0.002   3.192   5.796
 1687SOL    HW1 5597   5.228   3.180   5.736
 1687SOL    HW2 5598   0.012   3.106   5.838
 1688SOL     OW 5599   0.093   3.644   6.537
 1688SOL    HW1 5600   0.059   3.574   6.481
 1688SOL    HW2 5601   0.180   3.662   6.502
 1689SOL     OW 5602   0.505   3.435   6.493
 1689SOL    HW1 5603   0.572   3.501   6.514
 1689SOL    HW2 5604   0.548   3.374   6.434
 1690SOL     OW 5605   0.983   2.654   6.812
 1690SOL    HW1 5606   1.039   2.631   6.887
 1690SOL    HW2 5607   0.897   2.616   6.835
 1691SOL     OW 5608   0.033   2.424   6.702
 1691SOL    HW1 5609   0.119   2.398   6.668
 1691SOL    HW2 5610   0.037   2.405   6.796
 1692SOL     OW 5611   0.175   2.375   7.302
 1692SOL    HW1 5612   0.238   2.336   7.242
 1692SOL    HW2 5613   0.146   2.455   7.259
 1693SOL     OW 5614   1.376   2.801   7.245
 1693SOL    HW1 5615   1.398   2.894   7.243
 1693SOL    HW2 5616   1.374   2.775   7.153
 1694SOL     OW 5617   0.816   2.431   5.946
 1694SOL    HW1 5618   0.821   2.356   5.886
 1694SOL    HW2 5619   0.742   2.483   5.914
 1695SOL     OW 5620   1.641   2.463   6.772
 1695SOL    HW1 5621   1.631   2.405   6.847
 1695SOL    HW2 5622   1.728   2.443   6.737
 1696SOL     OW 5623   0.255   3.418   7.321
 1696SOL    HW1 5624   0.233   3.479   7.391
 1696SOL    HW2 5625   0.250   3.332   7.363
 1697SOL     OW 5626   0.701   2.312   6.846
 1697SOL    HW1 5627   0.649   2.238   6.816
 1697SOL    HW2 5628   0.697   2.375   6.774
 1698SOL     OW 5629   0.928   3.541   7.053
 1698SOL    HW1 5630   0.902   3.507   6.968
 1698SOL    HW2 5631   0.923   3.636   7.044
 1699SOL     OW 5632   0.465   2.355   5.771
 1699SOL    HW1 5633   0.525   2.426   5.793
 1699SOL    HW2 5634   0.380   2.398   5.759
 1700SOL     OW 5635   0.148   2.999   7.057
 1700SOL    HW1 5636   0.145   2.950   7.139
 1700SOL    HW2 5637   0.160   2.932   6.990
 1701SOL     OW 5638   1.326   2.909   6.809
 1701SOL    HW1 5639   1.349   2.846   6.741
 1701SOL    HW2 5640   1.255   2.961   6.770
 1702SOL     OW 5641   1.311   2.718   5.892
 1702SOL    HW1 5642   1.235   2.689   5.942
 1702SOL    HW2 5643   1.287   2.705   5.800
 1703SOL     OW 5644   1.771   3.606   6.736
 1703SOL    HW1 5645   1.832   3.632   6.666
 1703SOL    HW2 5646   1.748   3.516   6.715
 1704SOL     OW 5647   1.241   3.595   6.699
 1704SOL    HW1 5648   1.323   3.616   6.654
 1704SOL    HW2 5649   1.247   3.501   6.717
 1705SOL     OW 5650   0.083   3.079   6.613
 1705SOL    HW1 5651   0.070   3.104   6.705
 1705SOL    HW2 5652   5.294   3.068   6.579
 1706SOL     OW 5653   0.677   3.527   7.314
 1706SOL    HW1 5654   0.623   3.606   7.310
 1706SOL    HW2 5655   0.743   3.539   7.246
 1707SOL     OW 5656   1.720   2.009   6.096
 1707SOL    HW1 5657   1.792   1.994   6.035
 1707SOL    HW2 5658   1.704   1.923   6.136
 1708SOL     OW 5659   1.390   3.430   6.071
 1708SOL    HW1 5660   1.451   3.462   6.004
 1708SOL    HW2 5661   1.342   3.507   6.099
 1709SOL     OW 5662   0.141   3.661   7.429
 1709SOL    HW1 5663   0.089   3.597   7.477
 1709SOL    HW2 5664   0.195   3.704   7.496
 1710SOL     OW 5665   1.277   2.787   6.257
 1710SOL    HW1 5666   1.351   2.727   6.264
 1710SOL    HW2 5667   1.311   2.860   6.204
 1711SOL     OW 5668   0.814   3.135   7.016
 1711SOL    HW1 5669   0.786   3.175   7.098
 1711SOL    HW2 5670   0.745   3.156   6.954
 1712SOL     OW 5671   0.672   3.481   5.741
 1712SOL    HW1 5672   0.683   3.494   5.647
 1712SOL    HW2 5673   0.617   3.403   5.749
 1713SOL     OW 5674   1.626   3.589   6.976
 1713SOL    HW1 5675   1.676   3.595   6.895
 1713SOL    HW2 5676   1.612   3.679   7.004
 1714SOL     OW 5677   1.841   2.035   6.553
 1714SOL    HW1 5678   1.869   1.948   6.526
 1714SOL    HW2 5679   1.754   2.045   6.513
 1715SOL     OW 5680   0.273   2.179   6.303
 1715SOL    HW1 5681   0.188   2.218   6.283
 1715SOL    HW2 5682   0.272   2.168   6.398
 1716SOL     OW 5683   1.207   3.468   5.618
 1716SOL    HW1 5684   1.198   3.376   5.644
 1716SOL    HW2 5685   1.142   3.480   5.548
 1717SOL     OW 5686   0.824   2.868   6.958
 1717SOL    HW1 5687   0.868   2.863   6.873
 1717SOL    HW2 5688   0.823   2.961   6.980
 1718SOL     OW 5689   0.915   2.772   5.876
 1718SOL    HW1 5690   0.976   2.804   5.809
 1718SOL    HW2 5691   0.963   2.703   5.921
 1719SOL     OW 5692   1.492   3.487   5.629
 1719SOL    HW1 5693   1.397   3.481   5.615
 1719SOL    HW2 5694   1.528   3.493   5.541
 1720SOL     OW 5695   0.367   3.166   7.079
 1720SOL    HW1 5696   0.359   3.240   7.019
 1720SOL    HW2 5697   0.292   3.111   7.060
 1721SOL     OW 5698   1.610   3.144   6.866
 1721SOL    HW1 5699   1.671   3.134   6.939
 1721SOL    HW2 5700   1.550   3.214   6.894
 1722SOL     OW 5701   1.052   2.969   6.292
 1722SOL    HW1 5702   0.981   2.918   6.332
 1722SOL    HW2 5703   1.115   2.903   6.261
 1723SOL     OW 5704   1.021   2.103   6.552
 1723SOL    HW1 5705   1.017   2.055   6.469
 1723SOL    HW2 5706   1.016   2.035   6.619
 1724SOL     OW 5707   0.601   3.349   6.067
 1724SOL    HW1 5708   0.646   3.301   5.998
 1724SOL    HW2 5709   0.535   3.400   6.021
 1725SOL     OW 5710   1.722   2.254   6.967
 1725SOL    HW1 5711   1.794   2.318   6.965
 1725SOL    HW2 5712   1.752   2.183   6.910
 1726SOL     OW 5713   0.260   3.210   5.878
 1726SOL    HW1 5714   0.167   3.212   5.856
 1726SOL    HW2 5715   0.264   3.247   5.967
 1727SOL     OW 5716   0.116   2.876   7.302
 1727SOL    HW1 5717   0.045   2.846   7.358
 1727SOL    HW2 5718   0.195   2.846   7.347
 1728SOL     OW 5719   0.674   2.058   7.085
 1728SOL    HW1 5720   0.758   2.038   7.044
 1728SOL    HW2 5721   0.697   2.088   7.173
 1729SOL     OW 5722   0.082   2.212   5.627
 1729SOL    HW1 5723   0.003   2.163   5.603
 1729SOL    HW2 5724   0.098   2.269   5.552
 1730SOL     OW 5725   1.429   2.720   6.986
 1730SOL    HW1 5726   1.381   2.781   6.931
 1730SOL    HW2 5727   1.519   2.723   6.953
 1731SOL     OW 5728   0.056   1.995   5.829
 1731SOL    HW1 5729   0.055   2.090   5.820
 1731SOL    HW2 5730   0.146   1.970   5.807
 1732SOL     OW 5731   1.179   3.201   5.703
 1732SOL    HW1 5732   1.088   3.171   5.706
 1732SOL    HW2 5733   1.207   3.201   5.795
 1733SOL     OW 5734   0.619   2.693   7.021
 1733SOL    HW1 5735   0.676   2.769   7.005
 1733SOL    HW2 5736   0.680   2.619   7.029
 1734SOL     OW 5737   1.484   3.639   6.565
 1734SOL    HW1 5738   1.508   3.698   6.494
 1734SOL    HW2 5739   1.567   3.620   6.609
 1735SOL     OW 5740   0.717   2.426   7.291
 1735SOL    HW1 5741   0.758   2.488   7.351
 1735SOL    HW2 5742   0.746   2.340   7.322
 1736SOL     OW 5743   1.471   3.062   7.218
 1736SOL    HW1 5744   1.459   3.075   7.312
 1736SOL    HW2 5745   1.565   3.077   7.203
 1737SOL     OW 5746   0.377   3.605   7.150
 1737SOL    HW1 5747   0.295   3.650   7.134
 1737SOL    HW2 5748   0.352   3.524   7.195
 1738SOL     OW 5749   1.670   2.743   6.841
 1738SOL    HW1 5750   1.662   2.658   6.798
 1738SOL    HW2 5751   1.660   2.807   6.770
 1739SOL     OW 5752   1.217   2.181   6.044
 1739SOL    HW1 5753   1.280   2.110   6.035
 1739SOL    HW2 5754   1.246   2.230   6.121
 1740SOL     OW 5755   0.590   2.599   6.255
 1740SOL    HW1 5756   0.629   2.685   6.240
 1740SOL    HW2 5757   0.521   2.592   6.189
 1741SOL     OW 5758   1.762   2.223   7.237
 1741SOL    HW1 5759   1.745   2.239   7.144
 1741SOL    HW2 5760   1.690   2.167   7.265
 1742SOL     OW 5761   1.744   2.795   7.099
 1742SOL    HW1 5762   1.743   2.890   7.112
 1742SOL    HW2 5763   1.729   2.784   7.005
 1743SOL     OW 5764   0.862   3.229   5.620
 1743SOL    HW1 5765   0.824   3.258   5.703
 1743SOL    HW2 5766   0.881   3.310   5.572
 1744SOL     OW 5767   0.663   3.655   6.529
 1744SOL    HW1 5768   0.642   3.746   6.507
 1744SOL    HW2 5769   0.758   3.651   6.523
 1745SOL     OW 5770   0.867   2.828   6.440
 1745SOL    HW1 5771   0.918   2.757   6.480
 1745SOL    HW2 5772   0.833   2.878   6.515
 1746SOL     OW 5773   1.078   2.849   5.674
 1746SOL    HW1 5774   1.057   2.901   5.597
 1746SOL    HW2 5775   1.153   2.796   5.649
 1747SOL     OW 5776   1.854   3.417   6.430
 1747SOL    HW1 5777   1.775   3.404   6.377
 1747SOL    HW2 5778   1.847   3.350   6.498
 1748SOL     OW 5779   0.225   3.166   7.446
 1748SOL    HW1 5780   0.156   3.106   7.419
 1748SOL    HW2 5781   0.212   3.178   7.540
 1749SOL     OW 5782   0.087   3.083   6.241
 1749SOL    HW1 5783   0.101   3.050   6.330
 1749SOL    HW2 5784   0.173   3.076   6.200
 1750SOL     OW 5785   0.681   3.264   7.214
 1750SOL    HW1 5786   0.600   3.222   7.244
 1750SOL    HW2 5787   0.677   3.352   7.250
 1751SOL     OW 5788   1.814   2.046   6.824
 1751SOL    HW1 5789   1.822   1.952   6.838
 1751SOL    HW2 5790   1.822   2.057   6.729
 1752SOL     OW 5791   0.434   2.298   6.110
 1752SOL    HW1 5792   0.462   2.225   6.054
 1752SOL    HW2 5793   0.387   2.256   6.182
 1753SOL     OW 5794   1.700   3.352   6.683
 1753SOL    HW1 5795   1.619   3.328   6.637
 1753SOL    HW2 5796   1.713   3.282   6.747
 1754SOL     OW 5797   0.336   2.421   6.877
 1754SOL    HW1 5798   0.390   2.362   6.931
 1754SOL    HW2 5799   0.350   2.392   6.787
 1755SOL     OW 5800   0.828   3.439   6.264
 1755SOL    HW1 5801   0.816   3.494   6.187
 1755SOL    HW2 5802   0.751   3.382   6.266
 1756SOL     OW 5803   1.432   2.087   6.704
 1756SOL    HW1 5804   1.456   2.007   6.750
 1756SOL    HW2 5805   1.380   2.137   6.768
 1757SOL     OW 5806   1.009   1.881   6.728
 1757SOL    HW1 5807   0.954   1.813   6.688
 1757SOL    HW2 5808   1.097   1.843   6.730
 1758SOL     OW 5809   0.771   3.195   5.901
 1758SOL    HW1 5810   0.742   3.104   5.907
 1758SOL    HW2 5811   0.854   3.196   5.950
 1759SOL     OW 5812   0.623   3.418   6.873
 1759SOL    HW1 5813   0.624   3.500   6.922
 1759SOL    HW2 5814   0.710   3.412   6.834
 1760SOL     OW 5815   1.352   1.916   5.752
 1760SOL    HW1 5816   1.381   1.852   5.686
 1760SOL    HW2 5817   1.265   1.886   5.777
 1761SOL     OW 5818   1.296   2.323   6.267
 1761SOL    HW1 5819   1.243   2.402   6.274
 1761SOL    HW2 5820   1.292   2.283   6.354
 1762SOL     OW 5821   1.587   2.064   6.464
 1762SOL    HW1 5822   1.526   2.085   6.535
 1762SOL    HW2 5823   1.586   2.142   6.409
 1763SOL     OW 5824   0.048   2.931   5.877
 1763SOL    HW1 5825   0.137   2.898   5.865
 1763SOL    HW2 5826   5.300   2.855   5.911
 1764SOL     OW 5827   0.885   3.514   5.928
 1764SOL    HW1 5828   0.812   3.498   5.868
 1764SOL    HW2 5829   0.857   3.589   5.980
 1765SOL     OW 5830   0.230   2.492   7.567
 1765SOL    HW1 5831   0.155   2.452   7.611
 1765SOL    HW2 5832   0.222   2.464   7.476
 1766SOL     OW 5833   1.767   2.460   7.679
 1766SOL    HW1 5834   1.748   2.456   7.586
 1766SOL    HW2 5835   1.726   2.382   7.716
 1767SOL     OW 5836   0.230   3.568   7.921
 1767SOL    HW1 5837   0.264   3.613   7.998
 1767SOL    HW2 5838   0.300   3.575   7.856
 1768SOL     OW 5839   0.217   3.298   7.991
 1768SOL    HW1 5840   0.209   3.393   7.983
 1768SOL    HW2 5841   0.154   3.274   8.059
 1769SOL     OW 5842   0.583   2.846   7.581
 1769SOL    HW1 5843   0.628   2.894   7.511
 1769SOL    HW2 5844   0.624   2.876   7.662
 1770SOL     OW 5845   1.837   3.621   7.797
 1770SOL    HW1 5846   1.908   3.591   7.854
 1770SOL    HW2 5847   1.863   3.710   7.771
 1771SOL     OW 5848   0.036   3.464   7.582
 1771SOL    HW1 5849   0.028   3.371   7.603
 1771SOL    HW2 5850   5.277   3.507   7.643
 1772SOL     OW 5851   1.681   2.728   8.037
 1772SOL    HW1 5852   1.763   2.739   0.005
 1772SOL    HW2 5853   1.670   2.811   7.990
 1773SOL     OW 5854   1.655   2.960   7.877
 1773SOL    HW1 5855   1.742   2.985   7.847
 1773SOL    HW2 5856   1.627   3.032   7.933
 1774SOL     OW 5857   0.799   1.857   7.938
 1774SOL    HW1 5858   0.849   1.937   7.922
 1774SOL    HW2 5859   0.709   1.886   7.948
 1775SOL     OW 5860   1.532   2.857   7.649
 1775SOL    HW1 5861   1.466   2.796   7.683
 1775SOL    HW2 5862   1.576   2.891   7.727
 1776SOL     OW 5863   0.589   2.586   7.708
 1776SOL    HW1 5864   0.596   2.667   7.658
 1776SOL    HW2 5865   0.533   2.608   7.782
 1777SOL     OW 5866   1.574   3.533   7.757
 1777SOL    HW1 5867   1.665   3.562   7.766
 1777SOL    HW2 5868   1.562   3.520   7.663
 1778SOL     OW 5869   0.058   2.686   0.202
 1778SOL    HW1 5870   0.122   2.624   0.170
 1778SOL    HW2 5871   0.031   2.736   0.124
 1779SOL     OW 5872   0.881   2.209   7.636
 1779SOL    HW1 5873   0.927   2.269   7.577
 1779SOL    HW2 5874   0.917   2.123   7.614
 1780SOL     OW 5875   0.318   2.810   7.694
 1780SOL    HW1 5876   0.399   2.837   7.650
 1780SOL    HW2 5877   0.295   2.727   7.652
 1781SOL     OW 5878   1.123   3.638   7.682
 1781SOL    HW1 5879   1.047   3.598   7.723
 1781SOL    HW2 5880   1.147   3.577   7.611
 1782SOL     OW 5881   1.628   3.242   7.534
 1782SOL    HW1 5882   1.586   3.327   7.520
 1782SOL    HW2 5883   1.559   3.178   7.515
 1783SOL     OW 5884   0.470   3.599   7.769
 1783SOL    HW1 5885   0.515   3.653   7.834
 1783SOL    HW2 5886   0.539   3.565   7.713
 1784SOL     OW 5887   1.416   1.993   7.864
 1784SOL    HW1 5888   1.403   1.959   7.776
 1784SOL    HW2 5889   1.510   1.992   7.877
 1785SOL     OW 5890   0.379   2.562   7.923
 1785SOL    HW1 5891   0.399   2.468   7.927
 1785SOL    HW2 5892   0.285   2.567   7.938
 1786SOL     OW 5893   0.627   1.981   7.559
 1786SOL    HW1 5894   0.704   1.925   7.568
 1786SOL    HW2 5895   0.584   1.951   7.479
 1787SOL     OW 5896   0.527   1.937   7.961
 1787SOL    HW1 5897   0.439   1.942   8.000
 1787SOL    HW2 5898   0.528   2.007   7.896
 1788SOL     OW 5899   1.428   3.060   7.489
 1788SOL    HW1 5900   1.459   2.986   7.542
 1788SOL    HW2 5901   1.344   3.083   7.528
 1789SOL     OW 5902   0.306   1.906   7.619
 1789SOL    HW1 5903   0.368   1.970   7.584
 1789SOL    HW2 5904   0.361   1.843   7.667
 1790SOL     OW 5905   0.944   2.087   7.910
 1790SOL    HW1 5906   0.900   2.153   7.856
 1790SOL    HW2 5907   1.035   2.117   7.914
 1791SOL     OW 5908   0.447   3.021   0.090
 1791SOL    HW1 5909   0.375   3.043   0.149
 1791SOL    HW2 5910   0.405   3.003   0.006
 1792SOL     OW 5911   1.291   3.673   8.014
 1792SOL    HW1 5912   1.326   3.742   7.958
 1792SOL    HW2 5913   1.207   3.708   8.044
 1793SOL     OW 5914   1.025   2.404   7.467
 1793SOL    HW1 5915   0.981   2.487   7.450
 1793SOL    HW2 5916   1.086   2.423   7.538
 1794SOL     OW 5917   1.867   2.680   7.801
 1794SOL    HW1 5918   1.872   2.649   7.891
 1794SOL    HW2 5919   1.830   2.607   7.751
 1795SOL     OW 5920   0.490   3.278   7.605
 1795SOL    HW1 5921   0.415   3.249   7.658
 1795SOL    HW2 5922   0.472   3.243   7.518
 1796SOL     OW 5923   1.394   2.434   7.519
 1796SOL    HW1 5924   1.333   2.414   7.590
 1796SOL    HW2 5925   1.478   2.402   7.550
 1797SOL     OW 5926   0.527   2.128   7.770
 1797SOL    HW1 5927   0.570   2.077   7.701
 1797SOL    HW2 5928   0.503   2.210   7.729
 1798SOL     OW 5929   0.710   2.923   7.813
 1798SOL    HW1 5930   0.692   2.912   7.907
 1798SOL    HW2 5931   0.789   2.871   7.798
 1799SOL     OW 5932   0.345   2.957   7.928
 1799SOL    HW1 5933   0.345   3.041   7.882
 1799SOL    HW2 5934   0.348   2.892   7.858
 1800SOL     OW 5935   1.223   3.218   7.821
 1800SOL    HW1 5936   1.285   3.287   7.845
 1800SOL    HW2 5937   1.184   3.191   7.904
 1801SOL     OW 5938   1.588   2.490   7.921
 1801SOL    HW1 5939   1.574   2.549   7.995
 1801SOL    HW2 5940   1.627   2.545   7.853
 1802SOL     OW 5941   1.203   2.388   7.714
 1802SOL    HW1 5942   1.205   2.305   7.763
 1802SOL    HW2 5943   1.182   2.454   7.780
 1803SOL     OW 5944   1.618   2.241   7.814
 1803SOL    HW1 5945   1.640   2.174   7.880
 1803SOL    HW2 5946   1.594   2.318   7.865
 1804SOL     OW 5947   1.530   2.136   7.575
 1804SOL    HW1 5948   1.464   2.071   7.601
 1804SOL    HW2 5949   1.562   2.172   7.658
 1805SOL     OW 5950   1.294   2.689   7.481
 1805SOL    HW1 5951   1.335   2.603   7.482
 1805SOL    HW2 5952   1.324   2.729   7.399
 1806SOL     OW 5953   0.003   3.195   7.656
 1806SOL    HW1 5954   5.221   3.192   7.607
 1806SOL    HW2 5955   0.013   3.107   7.691
 1807SOL     OW 5956   0.839   2.461   7.762
 1807SOL    HW1 5957   0.831   2.370   7.733
 1807SOL    HW2 5958   0.749   2.494   7.762
 1808SOL     OW 5959   0.462   2.355   7.639
 1808SOL    HW1 5960   0.523   2.427   7.654
 1808SOL    HW2 5961   0.377   2.398   7.624
 1809SOL     OW 5962   1.310   2.710   7.755
 1809SOL    HW1 5963   1.223   2.722   7.793
 1809SOL    HW2 5964   1.294   2.702   7.661
 1810SOL     OW 5965   1.712   2.009   7.948
 1810SOL    HW1 5966   1.789   2.001   7.891
 1810SOL    HW2 5967   1.714   1.930   8.002
 1811SOL     OW 5968   1.364   3.439   7.896
 1811SOL    HW1 5969   1.439   3.459   7.840
 1811SOL    HW2 5970   1.332   3.524   7.926
 1812SOL     OW 5971   0.668   3.481   7.603
 1812SOL    HW1 5972   0.680   3.493   7.509
 1812SOL    HW2 5973   0.616   3.402   7.611
 1813SOL     OW 5974   1.209   3.469   7.478
 1813SOL    HW1 5975   1.199   3.378   7.505
 1813SOL    HW2 5976   1.142   3.481   7.411
 1814SOL     OW 5977   0.925   2.772   7.755
 1814SOL    HW1 5978   0.979   2.796   7.680
 1814SOL    HW2 5979   0.922   2.676   7.752
 1815SOL     OW 5980   1.493   3.488   7.488
 1815SOL    HW1 5981   1.399   3.481   7.476
 1815SOL    HW2 5982   1.529   3.493   7.400
 1816SOL     OW 5983   0.606   3.368   7.935
 1816SOL    HW1 5984   0.650   3.308   7.875
 1816SOL    HW2 5985   0.534   3.404   7.884
 1817SOL     OW 5986   0.260   3.208   7.742
 1817SOL    HW1 5987   0.168   3.213   7.718
 1817SOL    HW2 5988   0.263   3.244   7.831
 1818SOL     OW 5989   0.081   2.203   7.488
 1818SOL    HW1 5990   5.298   2.163   7.463
 1818SOL    HW2 5991   0.099   2.266   7.418
 1819SOL     OW 5992   0.082   1.999   7.738
 1819SOL    HW1 5993   0.067   2.086   7.701
 1819SOL    HW2 5994   0.154   1.963   7.686
 1820SOL     OW 5995   1.177   3.200   7.556
 1820SOL    HW1 5996   1.084   3.175   7.556
 1820SOL    HW2 5997   1.200   3.206   7.649
 1821SOL     OW 5998   1.215   2.180   7.904
 1821SOL    HW1 5999   1.288   2.119   7.892
 1821SOL    HW2 6000   1.236   2.228   7.984
 1822SOL     OW 6001   0.623   2.601   8.050
 1822SOL    HW1 6002   0.628   2.679   0.023
 1822SOL    HW2 6003   0.532   2.598   8.020
 1823SOL     OW 6004   0.863   3.229   7.483
 1823SOL    HW1 6005   0.825   3.259   7.565
 1823SOL    HW2 6006   0.882   3.310   7.435
 1824SOL     OW 6007   1.072   2.840   7.537
 1824SOL    HW1 6008   1.053   2.897   7.463
 1824SOL    HW2 6009   1.151   2.792   7.511
 1825SOL     OW 6010   0.392   2.293   7.979
 1825SOL    HW1 6011   0.436   2.234   7.918
 1825SOL    HW2 6012   0.436   2.278   8.063
 1826SOL     OW 6013   0.765   3.197   7.762
 1826SOL    HW1 6014   0.736   3.106   7.763
 1826SOL    HW2 6015   0.847   3.196   7.811
 1827SOL     OW 6016   1.352   1.915   7.610
 1827SOL    HW1 6017   1.381   1.848   7.547
 1827SOL    HW2 6018   1.266   1.885   7.638
 1828SOL     OW 6019   0.048   2.932   7.722
 1828SOL    HW1 6020   0.137   2.898   7.721
 1828SOL    HW2 6021   0.000   2.872   7.779
 1829SOL     OW 6022   0.893   3.514   7.780
 1829SOL    HW1 6023   0.817   3.490   7.727
 1829SOL    HW2 6024   0.859   3.576   7.844
 1830SOL     OW 6025   0.226   4.347   0.114
 1830SOL    HW1 6026   0.155   4.307   0.165
 1830SOL    HW2 6027   0.231   4.295   0.034
 1831SOL     OW 6028   0.241   3.998   0.989
 1831SOL    HW1 6029   0.256   3.965   1.077
 1831SOL    HW2 6030   0.157   3.962   0.962
 1832SOL     OW 6031   5.296   4.120   0.649
 1832SOL    HW1 6032   5.205   4.148   0.658
 1832SOL    HW2 6033   5.290   4.027   0.628
 1833SOL     OW 6034   0.574   5.000   1.184
 1833SOL    HW1 6035   0.494   5.006   1.130
 1833SOL    HW2 6036   0.592   5.090   1.209
 1834SOL     OW 6037   1.556   5.233   0.688
 1834SOL    HW1 6038   1.533   5.229   0.781
 1834SOL    HW2 6039   1.478   5.269   0.645
 1835SOL     OW 6040   1.131   4.422   0.701
 1835SOL    HW1 6041   1.179   4.503   0.687
 1835SOL    HW2 6042   1.084   4.436   0.783
 1836SOL     OW 6043   1.770   4.324   0.233
 1836SOL    HW1 6044   1.731   4.325   0.145
 1836SOL    HW2 6045   1.730   4.249   0.275
 1837SOL     OW 6046   0.758   4.867   1.037
 1837SOL    HW1 6047   0.691   4.897   1.099
 1837SOL    HW2 6048   0.786   4.947   0.992
 1838SOL     OW 6049   0.867   4.499   1.822
 1838SOL    HW1 6050   0.855   4.571   1.884
 1838SOL    HW2 6051   0.890   4.542   1.740
 1839SOL     OW 6052   0.684   4.724   0.651
 1839SOL    HW1 6053   0.750   4.715   0.719
 1839SOL    HW2 6054   0.617   4.781   0.690
 1840SOL     OW 6055   0.708   4.872   1.812
 1840SOL    HW1 6056   0.756   4.951   1.836
 1840SOL    HW2 6057   0.625   4.904   1.776
 1841SOL     OW 6058   0.377   5.146   1.053
 1841SOL    HW1 6059   0.283   5.155   1.040
 1841SOL    HW2 6060   0.416   5.198   0.983
 1842SOL     OW 6061   1.455   5.220   1.347
 1842SOL    HW1 6062   1.509   5.293   1.379
 1842SOL    HW2 6063   1.388   5.210   1.415
 1843SOL     OW 6064   0.451   4.124   1.492
 1843SOL    HW1 6065   0.524   4.063   1.494
 1843SOL    HW2 6066   0.373   4.068   1.502
 1844SOL     OW 6067   1.612   4.172   0.741
 1844SOL    HW1 6068   1.536   4.194   0.686
 1844SOL    HW2 6069   1.626   4.249   0.795
 1845SOL     OW 6070   1.133   5.072   1.701
 1845SOL    HW1 6071   1.163   5.073   1.792
 1845SOL    HW2 6072   1.080   4.993   1.694
 1846SOL     OW 6073   0.210   5.150   0.530
 1846SOL    HW1 6074   0.252   5.229   0.564
 1846SOL    HW2 6075   0.130   5.141   0.581
 1847SOL     OW 6076   0.254   4.800   0.877
 1847SOL    HW1 6077   0.263   4.712   0.914
 1847SOL    HW2 6078   0.196   4.846   0.938
 1848SOL     OW 6079   0.621   4.684   0.136
 1848SOL    HW1 6080   0.577   4.764   0.107
 1848SOL    HW2 6081   0.675   4.712   0.210
 1849SOL     OW 6082   1.596   3.847   1.468
 1849SOL    HW1 6083   1.603   3.928   1.417
 1849SOL    HW2 6084   1.582   3.877   1.558
 1850SOL     OW 6085   0.132   4.354   0.582
 1850SOL    HW1 6086   0.086   4.275   0.609
 1850SOL    HW2 6087   0.100   4.422   0.641
 1851SOL     OW 6088   0.015   5.294   0.070
 1851SOL    HW1 6089   0.021   5.210   0.115
 1851SOL    HW2 6090   0.043   0.059   0.135
 1852SOL     OW 6091   1.687   4.642   0.643
 1852SOL    HW1 6092   1.770   4.600   0.621
 1852SOL    HW2 6093   1.665   4.694   0.565
 1853SOL     OW 6094   1.646   4.829   0.434
 1853SOL    HW1 6095   1.728   4.841   0.386
 1853SOL    HW2 6096   1.652   4.891   0.507
 1854SOL     OW 6097   0.131   4.472   1.586
 1854SOL    HW1 6098   0.225   4.487   1.587
 1854SOL    HW2 6099   0.093   4.559   1.598
 1855SOL     OW 6100   0.627   5.097   0.736
 1855SOL    HW1 6101   0.569   5.020   0.735
 1855SOL    HW2 6102   0.602   5.146   0.658
 1856SOL     OW 6103   1.289   4.954   1.426
 1856SOL    HW1 6104   1.323   4.889   1.365
 1856SOL    HW2 6105   1.349   4.951   1.500
 1857SOL     OW 6106   0.823   3.726   0.512
 1857SOL    HW1 6107   0.862   3.810   0.490
 1857SOL    HW2 6108   0.729   3.743   0.517
 1858SOL     OW 6109   0.176   4.667   1.282
 1858SOL    HW1 6110   0.266   4.637   1.268
 1858SOL    HW2 6111   0.134   4.657   1.196
 1859SOL     OW 6112   1.509   4.734   0.210
 1859SOL    HW1 6113   1.449   4.667   0.243
 1859SOL    HW2 6114   1.562   4.758   0.287
 1860SOL     OW 6115   0.337   3.977   1.817
 1860SOL    HW1 6116   0.383   4.060   1.830
 1860SOL    HW2 6117   0.249   3.994   1.852
 1861SOL     OW 6118   1.477   5.146   0.963
 1861SOL    HW1 6119   1.404   5.159   1.023
 1861SOL    HW2 6120   1.465   5.058   0.928
 1862SOL     OW 6121   0.597   4.437   0.280
 1862SOL    HW1 6122   0.617   4.517   0.232
 1862SOL    HW2 6123   0.535   4.465   0.348
 1863SOL     OW 6124   1.279   4.076   0.932
 1863SOL    HW1 6125   1.190   4.044   0.941
 1863SOL    HW2 6126   1.330   4.023   0.994
 1864SOL     OW 6127   0.792   4.341   1.451
 1864SOL    HW1 6128   0.765   4.318   1.540
 1864SOL    HW2 6129   0.752   4.275   1.395
 1865SOL     OW 6130   1.393   4.198   1.678
 1865SOL    HW1 6131   1.396   4.243   1.762
 1865SOL    HW2 6132   1.455   4.125   1.687
 1866SOL     OW 6133   0.955   4.612   1.583
 1866SOL    HW1 6134   1.009   4.541   1.547
 1866SOL    HW2 6135   0.907   4.646   1.507
 1867SOL     OW 6136   0.992   4.136   1.239
 1867SOL    HW1 6137   0.906   4.158   1.275
 1867SOL    HW2 6138   0.973   4.090   1.157
 1868SOL     OW 6139   1.052   4.423   0.427
 1868SOL    HW1 6140   1.068   4.416   0.522
 1868SOL    HW2 6141   0.970   4.377   0.413
 1869SOL     OW 6142   0.067   4.511   0.818
 1869SOL    HW1 6143   0.151   4.516   0.863
 1869SOL    HW2 6144   0.063   4.592   0.766
 1870SOL     OW 6145   0.885   4.081   0.201
 1870SOL    HW1 6146   0.930   4.130   0.133
 1870SOL    HW2 6147   0.885   3.991   0.170
 1871SOL     OW 6148   1.708   4.298   1.828
 1871SOL    HW1 6149   1.671   4.372   1.780
 1871SOL    HW2 6150   1.736   4.237   1.760
 1872SOL     OW 6151   1.376   4.863   0.540
 1872SOL    HW1 6152   1.457   4.850   0.489
 1872SOL    HW2 6153   1.326   4.926   0.488
 1873SOL     OW 6154   0.555   3.908   0.893
 1873SOL    HW1 6155   0.552   3.935   0.985
 1873SOL    HW2 6156   0.553   3.989   0.844
 1874SOL     OW 6157   1.019   5.164   0.470
 1874SOL    HW1 6158   0.944   5.224   0.468
 1874SOL    HW2 6159   1.040   5.154   0.563
 1875SOL     OW 6160   1.800   4.781   0.867
 1875SOL    HW1 6161   1.743   4.763   0.792
 1875SOL    HW2 6162   1.741   4.788   0.941
 1876SOL     OW 6163   1.250   5.240   1.524
 1876SOL    HW1 6164   1.214   5.173   1.583
 1876SOL    HW2 6165   1.179   5.259   1.463
 1877SOL     OW 6166   0.329   4.674   0.247
 1877SOL    HW1 6167   0.412   4.685   0.201
 1877SOL    HW2 6168   0.315   4.579   0.248
 1878SOL     OW 6169   1.478   4.465   0.726
 1878SOL    HW1 6170   1.470   4.423   0.812
 1878SOL    HW2 6171   1.555   4.522   0.735
 1879SOL     OW 6172   0.463   4.989   1.742
 1879SOL    HW1 6173   0.437   4.992   1.650
 1879SOL    HW2 6174   0.380   4.988   1.790
 1880SOL     OW 6175   1.158   0.159   0.237
 1880SOL    HW1 6176   1.074   0.176   0.280
 1880SOL    HW2 6177   1.134   0.139   0.146
 1881SOL     OW 6178   0.205   4.004   1.497
 1881SOL    HW1 6179   0.126   4.056   1.481
 1881SOL    HW2 6180   0.173   3.925   1.541
 1882SOL     OW 6181   1.630   5.094   0.076
 1882SOL    HW1 6182   1.591   5.180   0.093
 1882SOL    HW2 6183   1.555   5.036   0.062
 1883SOL     OW 6184   1.407   3.835   0.444
 1883SOL    HW1 6185   1.398   3.814   0.351
 1883SOL    HW2 6186   1.502   3.842   0.458
 1884SOL     OW 6187   0.382   4.423   0.475
 1884SOL    HW1 6188   0.414   4.333   0.485
 1884SOL    HW2 6189   0.290   4.419   0.501
 1885SOL     OW 6190   1.535   3.949   1.725
 1885SOL    HW1 6191   1.545   3.970   1.818
 1885SOL    HW2 6192   1.466   3.883   1.722
 1886SOL     OW 6193   0.629   3.834   0.137
 1886SOL    HW1 6194   0.723   3.822   0.141
 1886SOL    HW2 6195   0.607   3.815   0.045
 1887SOL     OW 6196   0.767   4.002   1.754
 1887SOL    HW1 6197   0.842   3.943   1.756
 1887SOL    HW2 6198   0.718   3.980   1.833
 1888SOL     OW 6199   1.340   4.312   1.432
 1888SOL    HW1 6200   1.371   4.281   1.517
 1888SOL    HW2 6201   1.376   4.401   1.424
 1889SOL     OW 6202   0.814   5.120   0.936
 1889SOL    HW1 6203   0.894   5.105   0.887
 1889SOL    HW2 6204   0.745   5.126   0.869
 1890SOL     OW 6205   0.928   4.233   0.902
 1890SOL    HW1 6206   0.904   4.225   0.810
 1890SOL    HW2 6207   0.959   4.146   0.927
 1891SOL     OW 6208   0.560   3.786   0.500
 1891SOL    HW1 6209   0.485   3.785   0.559
 1891SOL    HW2 6210   0.549   3.865   0.447
 1892SOL     OW 6211   1.425   4.925   0.035
 1892SOL    HW1 6212   1.454   4.851   0.089
 1892SOL    HW2 6213   1.339   4.948   0.070
 1893SOL     OW 6214   0.314   3.770   0.174
 1893SOL    HW1 6215   0.378   3.841   0.180
 1893SOL    HW2 6216   0.356   3.697   0.218
 1894SOL     OW 6217   0.941   3.971   0.459
 1894SOL    HW1 6218   0.913   4.013   0.377
 1894SOL    HW2 6219   1.035   3.988   0.463
 1895SOL     OW 6220   1.080   4.405   1.460
 1895SOL    HW1 6221   1.011   4.338   1.464
 1895SOL    HW2 6222   1.161   4.354   1.453
 1896SOL     OW 6223   1.263   5.265   0.780
 1896SOL    HW1 6224   1.222   0.046   0.748
 1896SOL    HW2 6225   1.307   5.292   0.861
 1897SOL     OW 6226   0.466   4.874   0.729
 1897SOL    HW1 6227   0.397   4.854   0.793
 1897SOL    HW2 6228   0.425   4.856   0.644
 1898SOL     OW 6229   1.032   4.252   0.031
 1898SOL    HW1 6230   0.990   4.333   0.002
 1898SOL    HW2 6231   1.094   4.280   0.098
 1899SOL     OW 6232   0.088   4.269   1.398
 1899SOL    HW1 6233   0.176   4.277   1.361
 1899SOL    HW2 6234   0.079   4.345   1.455
 1900SOL     OW 6235   0.560   3.951   1.166
 1900SOL    HW1 6236   0.598   3.872   1.204
 1900SOL    HW2 6237   0.469   3.950   1.194
 1901SOL     OW 6238   0.868   4.182   0.639
 1901SOL    HW1 6239   0.824   4.238   0.574
 1901SOL    HW2 6240   0.889   4.102   0.591
 1902SOL     OW 6241   1.016   3.776   0.750
 1902SOL    HW1 6242   0.956   3.770   0.676
 1902SOL    HW2 6243   0.994   3.701   0.806
 1903SOL     OW 6244   1.438   4.889   0.859
 1903SOL    HW1 6245   1.370   4.822   0.855
 1903SOL    HW2 6246   1.462   4.903   0.767
 1904SOL     OW 6247   1.466   4.329   0.976
 1904SOL    HW1 6248   1.415   4.248   0.980
 1904SOL    HW2 6249   1.526   4.323   1.051
 1905SOL     OW 6250   1.848   4.539   0.388
 1905SOL    HW1 6251   1.901   4.486   0.448
 1905SOL    HW2 6252   1.817   4.477   0.322
 1906SOL     OW 6253   0.473   5.158   0.157
 1906SOL    HW1 6254   0.421   5.108   0.220
 1906SOL    HW2 6255   0.502   5.094   0.093
 1907SOL     OW 6256   1.670   4.988   0.647
 1907SOL    HW1 6257   1.764   4.995   0.666
 1907SOL    HW2 6258   1.635   5.076   0.664
 1908SOL     OW 6259   1.398   4.303   0.087
 1908SOL    HW1 6260   1.336   4.284   0.157
 1908SOL    HW2 6261   1.454   4.225   0.082
 1909SOL     OW 6262   0.515   3.987   0.323
 1909SOL    HW1 6263   0.565   3.935   0.260
 1909SOL    HW2 6264   0.501   4.071   0.280
 1910SOL     OW 6265   1.751   4.960   1.576
 1910SOL    HW1 6266   1.837   4.918   1.575
 1910SOL    HW2 6267   1.770   5.053   1.588
 1911SOL     OW 6268   1.064   5.075   1.332
 1911SOL    HW1 6269   0.986   5.049   1.379
 1911SOL    HW2 6270   1.137   5.035   1.380
 1912SOL     OW 6271   1.127   4.926   1.107
 1912SOL    HW1 6272   1.075   4.967   1.177
 1912SOL    HW2 6273   1.082   4.952   1.027
 1913SOL     OW 6274   1.629   4.822   1.077
 1913SOL    HW1 6275   1.624   4.884   1.150
 1913SOL    HW2 6276   1.551   4.841   1.024
 1914SOL     OW 6277   0.919   3.820   1.397
 1914SOL    HW1 6278   0.941   3.802   1.306
 1914SOL    HW2 6279   0.998   3.860   1.433
 1915SOL     OW 6280   0.984   4.839   1.725
 1915SOL    HW1 6281   0.892   4.855   1.743
 1915SOL    HW2 6282   0.985   4.762   1.667
 1916SOL     OW 6283   0.708   4.781   0.381
 1916SOL    HW1 6284   0.694   4.766   0.474
 1916SOL    HW2 6285   0.789   4.733   0.361
 1917SOL     OW 6286   0.421   4.542   1.251
 1917SOL    HW1 6287   0.490   4.549   1.318
 1917SOL    HW2 6288   0.386   4.454   1.262
 1918SOL     OW 6289   1.265   4.101   1.275
 1918SOL    HW1 6290   1.298   4.178   1.321
 1918SOL    HW2 6291   1.175   4.123   1.252
 1919SOL     OW 6292   0.112   5.288   1.320
 1919SOL    HW1 6293   0.052   0.049   1.363
 1919SOL    HW2 6294   0.190   5.287   1.375
 1920SOL     OW 6295   0.346   4.829   0.487
 1920SOL    HW1 6296   0.341   4.908   0.433
 1920SOL    HW2 6297   0.358   4.757   0.424
 1921SOL     OW 6298   0.554   4.259   0.859
 1921SOL    HW1 6299   0.569   4.318   0.785
 1921SOL    HW2 6300   0.618   4.286   0.925
 1922SOL     OW 6301   1.258   5.072   0.385
 1922SOL    HW1 6302   1.312   5.147   0.411
 1922SOL    HW2 6303   1.169   5.096   0.412
 1923SOL     OW 6304   1.269   5.182   1.141
 1923SOL    HW1 6305   1.328   5.195   1.216
 1923SOL    HW2 6306   1.225   5.099   1.160
 1924SOL     OW 6307   1.582   4.347   0.482
 1924SOL    HW1 6308   1.533   4.398   0.547
 1924SOL    HW2 6309   1.618   4.414   0.422
 1925SOL     OW 6310   0.381   5.232   1.315
 1925SOL    HW1 6311   0.364   5.193   1.229
 1925SOL    HW2 6312   0.474   5.256   1.312
 1926SOL     OW 6313   0.414   4.467   1.602
 1926SOL    HW1 6314   0.475   4.513   1.544
 1926SOL    HW2 6315   0.453   4.380   1.615
 1927SOL     OW 6316   1.601   4.503   1.682
 1927SOL    HW1 6317   1.515   4.544   1.675
 1927SOL    HW2 6318   1.654   4.545   1.614
 1928SOL     OW 6319   0.996   3.847   1.755
 1928SOL    HW1 6320   1.051   3.920   1.727
 1928SOL    HW2 6321   1.044   3.769   1.730
 1929SOL     OW 6322   0.497   3.765   1.748
 1929SOL    HW1 6323   0.455   3.711   1.681
 1929SOL    HW2 6324   0.438   3.839   1.760
 1930SOL     OW 6325   0.586   4.597   1.032
 1930SOL    HW1 6326   0.614   4.688   1.029
 1930SOL    HW2 6327   0.529   4.591   1.109
 1931SOL     OW 6328   1.357   4.582   1.028
 1931SOL    HW1 6329   1.274   4.572   0.983
 1931SOL    HW2 6330   1.398   4.496   1.023
 1932SOL     OW 6331   1.203   4.252   0.271
 1932SOL    HW1 6332   1.211   4.173   0.324
 1932SOL    HW2 6333   1.160   4.316   0.328
 1933SOL     OW 6334   0.301   3.927   1.247
 1933SOL    HW1 6335   0.267   3.952   1.333
 1933SOL    HW2 6336   0.289   3.833   1.243
 1934SOL     OW 6337   0.043   5.021   1.277
 1934SOL    HW1 6338   0.074   4.972   1.352
 1934SOL    HW2 6339   0.045   5.113   1.306
 1935SOL     OW 6340   0.724   4.355   1.058
 1935SOL    HW1 6341   0.799   4.339   1.000
 1935SOL    HW2 6342   0.696   4.444   1.037
 1936SOL     OW 6343   1.735   4.684   1.852
 1936SOL    HW1 6344   1.689   4.622   1.795
 1936SOL    HW2 6345   1.675   4.697   1.926
 1937SOL     OW 6346   0.325   3.787   0.635
 1937SOL    HW1 6347   0.309   3.877   0.664
 1937SOL    HW2 6348   0.331   3.736   0.716
 1938SOL     OW 6349   1.621   4.099   0.369
 1938SOL    HW1 6350   1.645   4.034   0.435
 1938SOL    HW2 6351   1.595   4.176   0.420
 1939SOL     OW 6352   1.028   4.483   0.961
 1939SOL    HW1 6353   1.024   4.500   1.055
 1939SOL    HW2 6354   1.001   4.391   0.952
 1940SOL     OW 6355   1.854   5.214   1.585
 1940SOL    HW1 6356   1.848   5.289   1.526
 1940SOL    HW2 6357   1.924   5.236   1.647
 1941SOL     OW 6358   0.354   4.643   1.806
 1941SOL    HW1 6359   0.435   4.660   1.854
 1941SOL    HW2 6360   0.379   4.577   1.740
 1942SOL     OW 6361   1.518   4.025   0.126
 1942SOL    HW1 6362   1.469   3.944   0.143
 1942SOL    HW2 6363   1.558   4.046   0.211
 1943SOL     OW 6364   1.295   4.548   0.019
 1943SOL    HW1 6365   1.333   4.462   0.038
 1943SOL    HW2 6366   1.355   4.588   8.037
 1944SOL     OW 6367   1.059   5.078   0.828
 1944SOL    HW1 6368   1.064   4.993   0.783
 1944SOL    HW2 6369   1.144   5.118   0.813
 1945SOL     OW 6370   0.315   4.533   0.948
 1945SOL    HW1 6371   0.409   4.551   0.945
 1945SOL    HW2 6372   0.309   4.443   0.981
 1946SOL     OW 6373   0.335   4.249   1.015
 1946SOL    HW1 6374   0.299   4.161   1.001
 1946SOL    HW2 6375   0.410   4.255   0.956
 1947SOL     OW 6376   1.134   4.100   1.682
 1947SOL    HW1 6377   1.086   4.155   1.744
 1947SOL    HW2 6378   1.222   4.138   1.678
 1948SOL     OW 6379   1.161   3.926   1.470
 1948SOL    HW1 6380   1.150   3.989   1.542
 1948SOL    HW2 6381   1.200   3.977   1.399
 1949SOL     OW 6382   0.012   5.052   0.196
 1949SOL    HW1 6383   5.221   5.057   0.167
 1949SOL    HW2 6384   0.017   4.967   0.242
 1950SOL     OW 6385   0.983   4.516   1.226
 1950SOL    HW1 6386   1.039   4.493   1.301
 1950SOL    HW2 6387   0.897   4.478   1.249
 1951SOL     OW 6388   0.032   4.278   1.115
 1951SOL    HW1 6389   0.121   4.262   1.084
 1951SOL    HW2 6390   0.037   4.266   1.210
 1952SOL     OW 6391   0.174   4.237   1.712
 1952SOL    HW1 6392   0.240   4.200   1.652
 1952SOL    HW2 6393   0.146   4.318   1.670
 1953SOL     OW 6394   1.377   4.663   1.658
 1953SOL    HW1 6395   1.397   4.756   1.656
 1953SOL    HW2 6396   1.373   4.636   1.566
 1954SOL     OW 6397   0.819   4.294   0.366
 1954SOL    HW1 6398   0.828   4.222   0.304
 1954SOL    HW2 6399   0.742   4.342   0.336
 1955SOL     OW 6400   1.642   4.325   1.186
 1955SOL    HW1 6401   1.632   4.266   1.260
 1955SOL    HW2 6402   1.729   4.305   1.151
 1956SOL     OW 6403   0.210   5.279   1.732
 1956SOL    HW1 6404   0.175   0.022   1.810
 1956SOL    HW2 6405   0.213   5.187   1.755
 1957SOL     OW 6406   0.702   4.174   1.260
 1957SOL    HW1 6407   0.649   4.100   1.230
 1957SOL    HW2 6408   0.697   4.237   1.188
 1958SOL     OW 6409   0.467   4.214   0.180
 1958SOL    HW1 6410   0.532   4.281   0.201
 1958SOL    HW2 6411   0.383   4.259   0.182
 1959SOL     OW 6412   0.151   4.861   1.472
 1959SOL    HW1 6413   0.147   4.812   1.554
 1959SOL    HW2 6414   0.161   4.794   1.405
 1960SOL     OW 6415   1.327   4.769   1.222
 1960SOL    HW1 6416   1.350   4.707   1.153
 1960SOL    HW2 6417   1.256   4.822   1.185
 1961SOL     OW 6418   1.307   4.573   0.307
 1961SOL    HW1 6419   1.230   4.544   0.357
 1961SOL    HW2 6420   1.281   4.561   0.216
 1962SOL     OW 6421   0.075   4.918   1.031
 1962SOL    HW1 6422   0.063   4.959   1.116
 1962SOL    HW2 6423   5.289   4.924   0.989
 1963SOL     OW 6424   0.752   0.038   1.709
 1963SOL    HW1 6425   0.659   0.060   1.718
 1963SOL    HW2 6426   0.773   0.060   1.618
 1964SOL     OW 6427   0.905   3.815   0.133
 1964SOL    HW1 6428   0.924   3.800   0.040
 1964SOL    HW2 6429   0.969   3.762   0.180
 1965SOL     OW 6430   1.719   3.869   0.510
 1965SOL    HW1 6431   1.791   3.853   0.449
 1965SOL    HW2 6432   1.704   3.784   0.551
 1966SOL     OW 6433   1.277   4.649   0.671
 1966SOL    HW1 6434   1.351   4.588   0.678
 1966SOL    HW2 6435   1.311   4.721   0.619
 1967SOL     OW 6436   0.818   4.993   1.420
 1967SOL    HW1 6437   0.788   5.029   1.503
 1967SOL    HW2 6438   0.743   5.001   1.362
 1968SOL     OW 6439   1.841   3.897   0.967
 1968SOL    HW1 6440   1.869   3.810   0.940
 1968SOL    HW2 6441   1.754   3.907   0.927
 1969SOL     OW 6442   0.270   4.040   0.716
 1969SOL    HW1 6443   0.188   4.085   0.697
 1969SOL    HW2 6444   0.270   4.030   0.811
 1970SOL     OW 6445   1.140   0.019   0.004
 1970SOL    HW1 6446   1.155   5.229   0.034
 1970SOL    HW2 6447   1.144   0.013   7.988
 1971SOL     OW 6448   0.825   4.727   1.371
 1971SOL    HW1 6449   0.870   4.721   1.286
 1971SOL    HW2 6450   0.828   4.821   1.393
 1972SOL     OW 6451   0.918   4.638   0.298
 1972SOL    HW1 6452   0.973   4.665   0.225
 1972SOL    HW2 6453   0.966   4.566   0.339
 1973SOL     OW 6454   0.366   5.029   1.500
 1973SOL    HW1 6455   0.366   5.098   1.434
 1973SOL    HW2 6456   0.291   4.973   1.476
 1974SOL     OW 6457   1.613   5.004   1.282
 1974SOL    HW1 6458   1.669   4.997   1.359
 1974SOL    HW2 6459   1.550   5.073   1.304
 1975SOL     OW 6460   1.055   4.833   0.712
 1975SOL    HW1 6461   0.982   4.782   0.748
 1975SOL    HW2 6462   1.115   4.768   0.678
 1976SOL     OW 6463   1.022   3.964   0.966
 1976SOL    HW1 6464   1.017   3.917   0.883
 1976SOL    HW2 6465   1.016   3.897   1.033
 1977SOL     OW 6466   1.722   4.116   1.380
 1977SOL    HW1 6467   1.794   4.179   1.379
 1977SOL    HW2 6468   1.752   4.045   1.324
 1978SOL     OW 6469   0.270   5.035   0.295
 1978SOL    HW1 6470   0.188   5.048   0.248
 1978SOL    HW2 6471   0.258   5.082   0.378
 1979SOL     OW 6472   0.116   4.742   1.719
 1979SOL    HW1 6473   0.045   4.704   1.771
 1979SOL    HW2 6474   0.196   4.709   1.761
 1980SOL     OW 6475   0.674   3.920   1.499
 1980SOL    HW1 6476   0.758   3.900   1.458
 1980SOL    HW2 6477   0.697   3.952   1.587
 1981SOL     OW 6478   0.042   4.116   0.027
 1981SOL    HW1 6479   0.019   4.029   0.061
 1981SOL    HW2 6480   0.123   4.101   8.058
 1982SOL     OW 6481   1.430   4.582   1.400
 1982SOL    HW1 6482   1.381   4.642   1.344
 1982SOL    HW2 6483   1.519   4.584   1.366
 1983SOL     OW 6484   0.052   3.859   0.216
 1983SOL    HW1 6485   0.053   3.945   0.257
 1983SOL    HW2 6486   0.144   3.835   0.206
 1984SOL     OW 6487   1.182   5.064   0.112
 1984SOL    HW1 6488   1.087   5.049   0.110
 1984SOL    HW2 6489   1.205   5.060   0.205
 1985SOL     OW 6490   0.619   4.555   1.436
 1985SOL    HW1 6491   0.676   4.630   1.419
 1985SOL    HW2 6492   0.680   4.481   1.443
 1986SOL     OW 6493   0.717   4.288   1.704
 1986SOL    HW1 6494   0.758   4.350   1.764
 1986SOL    HW2 6495   0.745   4.202   1.736
 1987SOL     OW 6496   1.474   4.923   1.631
 1987SOL    HW1 6497   1.460   4.935   1.725
 1987SOL    HW2 6498   1.567   4.937   1.618
 1988SOL     OW 6499   1.670   4.605   1.255
 1988SOL    HW1 6500   1.663   4.520   1.212
 1988SOL    HW2 6501   1.659   4.669   1.184
 1989SOL     OW 6502   1.217   4.042   0.460
 1989SOL    HW1 6503   1.282   3.972   0.453
 1989SOL    HW2 6504   1.245   4.093   0.536
 1990SOL     OW 6505   0.589   4.460   0.669
 1990SOL    HW1 6506   0.628   4.547   0.656
 1990SOL    HW2 6507   0.519   4.456   0.604
 1991SOL     OW 6508   1.762   4.086   1.650
 1991SOL    HW1 6509   1.745   4.101   1.557
 1991SOL    HW2 6510   1.691   4.029   1.679
 1992SOL     OW 6511   1.745   4.657   1.512
 1992SOL    HW1 6512   1.740   4.752   1.525
 1992SOL    HW2 6513   1.729   4.645   1.418
 1993SOL     OW 6514   0.909   5.095   0.035
 1993SOL    HW1 6515   0.850   5.078   0.109
 1993SOL    HW2 6516   0.862   5.159   8.062
 1994SOL     OW 6517   0.868   4.691   0.855
 1994SOL    HW1 6518   0.918   4.620   0.895
 1994SOL    HW2 6519   0.833   4.741   0.929
 1995SOL     OW 6520   1.079   4.702   0.088
 1995SOL    HW1 6521   1.061   4.758   0.013
 1995SOL    HW2 6522   1.156   4.651   0.061
 1996SOL     OW 6523   0.220   5.025   1.854
 1996SOL    HW1 6524   0.155   4.957   1.835
 1996SOL    HW2 6525   0.216   5.035   1.950
 1997SOL     OW 6526   0.081   4.929   0.657
 1997SOL    HW1 6527   0.105   4.904   0.746
 1997SOL    HW2 6528   0.165   4.945   0.614
 1998SOL     OW 6529   0.671   5.106   1.610
 1998SOL    HW1 6530   0.594   5.073   1.656
 1998SOL    HW2 6531   0.703   5.178   1.663
 1999SOL     OW 6532   1.812   3.908   1.238
 1999SOL    HW1 6533   1.823   3.814   1.252
 1999SOL    HW2 6534   1.822   3.919   1.143
 2000SOL     OW 6535   0.433   4.163   0.523
 2000SOL    HW1 6536   0.462   4.090   0.469
 2000SOL    HW2 6537   0.386   4.121   0.596
 2001SOL     OW 6538   1.707   5.224   1.119
 2001SOL    HW1 6539   1.633   5.207   1.060
 2001SOL    HW2 6540   1.713   5.144   1.172
 2002SOL     OW 6541   0.337   4.284   1.291
 2002SOL    HW1 6542   0.389   4.224   1.345
 2002SOL    HW2 6543   0.350   4.254   1.202
 2003SOL     OW 6544   1.432   3.949   1.118
 2003SOL    HW1 6545   1.457   3.869   1.165
 2003SOL    HW2 6546   1.380   3.999   1.181
 2004SOL     OW 6547   1.009   3.743   1.142
 2004SOL    HW1 6548   0.954   3.675   1.102
 2004SOL    HW2 6549   1.097   3.705   1.144
 2005SOL     OW 6550   0.797   5.039   0.281
 2005SOL    HW1 6551   0.740   4.967   0.308
 2005SOL    HW2 6552   0.853   5.055   0.358
 2006SOL     OW 6553   0.640   0.002   1.287
 2006SOL    HW1 6554   0.644   0.057   1.365
 2006SOL    HW2 6555   0.731   5.285   1.265
 2007SOL     OW 6556   1.356   3.779   0.184
 2007SOL    HW1 6557   1.378   3.730   0.104
 2007SOL    HW2 6558   1.270   3.745   0.210
 2008SOL     OW 6559   1.297   4.185   0.681
 2008SOL    HW1 6560   1.243   4.264   0.688
 2008SOL    HW2 6561   1.292   4.146   0.768
 2009SOL     OW 6562   1.586   3.926   0.878
 2009SOL    HW1 6563   1.526   3.946   0.949
 2009SOL    HW2 6564   1.586   4.004   0.823
 2010SOL     OW 6565   0.041   4.801   0.306
 2010SOL    HW1 6566   0.133   4.776   0.293
 2010SOL    HW2 6567   5.296   4.719   0.322
 2011SOL     OW 6568   0.234   4.356   1.978
 2011SOL    HW1 6569   0.160   4.323   2.029
 2011SOL    HW2 6570   0.218   4.321   1.890
 2012SOL     OW 6571   0.242   3.999   2.851
 2012SOL    HW1 6572   0.256   3.965   2.940
 2012SOL    HW2 6573   0.158   3.963   2.824
 2013SOL     OW 6574   5.298   4.122   2.515
 2013SOL    HW1 6575   5.205   4.144   2.521
 2013SOL    HW2 6576   5.299   4.031   2.484
 2014SOL     OW 6577   0.574   5.000   3.045
 2014SOL    HW1 6578   0.494   5.006   2.992
 2014SOL    HW2 6579   0.592   5.090   3.072
 2015SOL     OW 6580   1.555   5.232   2.551
 2015SOL    HW1 6581   1.536   5.228   2.644
 2015SOL    HW2 6582   1.476   5.267   2.511
 2016SOL     OW 6583   1.130   4.422   2.563
 2016SOL    HW1 6584   1.179   4.503   2.549
 2016SOL    HW2 6585   1.083   4.436   2.645
 2017SOL     OW 6586   1.767   4.329   2.091
 2017SOL    HW1 6587   1.746   4.322   1.997
 2017SOL    HW2 6588   1.731   4.250   2.130
 2018SOL     OW 6589   0.758   4.867   2.899
 2018SOL    HW1 6590   0.691   4.897   2.961
 2018SOL    HW2 6591   0.786   4.947   2.854
 2019SOL     OW 6592   0.867   4.499   3.684
 2019SOL    HW1 6593   0.855   4.571   3.746
 2019SOL    HW2 6594   0.890   4.542   3.602
 2020SOL     OW 6595   0.686   4.726   2.510
 2020SOL    HW1 6596   0.751   4.715   2.579
 2020SOL    HW2 6597   0.618   4.781   2.550
 2021SOL     OW 6598   0.708   4.872   3.674
 2021SOL    HW1 6599   0.756   4.951   3.698
 2021SOL    HW2 6600   0.625   4.904   3.639
 2022SOL     OW 6601   0.377   5.145   2.915
 2022SOL    HW1 6602   0.282   5.155   2.903
 2022SOL    HW2 6603   0.416   5.198   2.845
 2023SOL     OW 6604   1.455   5.220   3.209
 2023SOL    HW1 6605   1.509   5.293   3.241
 2023SOL    HW2 6606   1.388   5.210   3.277
 2024SOL     OW 6607   0.451   4.124   3.355
 2024SOL    HW1 6608   0.524   4.063   3.356
 2024SOL    HW2 6609   0.373   4.068   3.364
 2025SOL     OW 6610   1.612   4.172   2.602
 2025SOL    HW1 6611   1.537   4.195   2.548
 2025SOL    HW2 6612   1.627   4.249   2.656
 2026SOL     OW 6613   1.133   5.072   3.563
 2026SOL    HW1 6614   1.164   5.073   3.654
 2026SOL    HW2 6615   1.080   4.993   3.556
 2027SOL     OW 6616   0.212   5.151   2.394
 2027SOL    HW1 6617   0.251   5.231   2.430
 2027SOL    HW2 6618   0.132   5.138   2.445
 2028SOL     OW 6619   0.252   4.799   2.737
 2028SOL    HW1 6620   0.264   4.712   2.777
 2028SOL    HW2 6621   0.196   4.846   2.799
 2029SOL     OW 6622   0.583   4.706   1.997
 2029SOL    HW1 6623   0.630   4.754   1.928
 2029SOL    HW2 6624   0.623   4.736   2.079
 2030SOL     OW 6625   1.595   3.847   3.330
 2030SOL    HW1 6626   1.604   3.928   3.279
 2030SOL    HW2 6627   1.582   3.877   3.420
 2031SOL     OW 6628   0.127   4.356   2.440
 2031SOL    HW1 6629   0.088   4.274   2.471
 2031SOL    HW2 6630   0.099   4.421   2.505
 2032SOL     OW 6631   5.299   5.299   1.944
 2032SOL    HW1 6632   0.015   5.211   1.978
 2032SOL    HW2 6633   0.026   0.058   2.015
 2033SOL     OW 6634   1.689   4.642   2.503
 2033SOL    HW1 6635   1.772   4.600   2.482
 2033SOL    HW2 6636   1.667   4.692   2.424
 2034SOL     OW 6637   1.646   4.831   2.291
 2034SOL    HW1 6638   1.731   4.836   2.249
 2034SOL    HW2 6639   1.652   4.892   2.365
 2035SOL     OW 6640   0.131   4.472   3.448
 2035SOL    HW1 6641   0.225   4.486   3.449
 2035SOL    HW2 6642   0.093   4.559   3.461
 2036SOL     OW 6643   0.627   5.096   2.597
 2036SOL    HW1 6644   0.570   5.019   2.597
 2036SOL    HW2 6645   0.601   5.145   2.519
 2037SOL     OW 6646   1.289   4.954   3.288
 2037SOL    HW1 6647   1.323   4.889   3.227
 2037SOL    HW2 6648   1.349   4.952   3.362
 2038SOL     OW 6649   0.823   3.723   2.372
 2038SOL    HW1 6650   0.863   3.808   2.352
 2038SOL    HW2 6651   0.729   3.742   2.378
 2039SOL     OW 6652   0.176   4.667   3.144
 2039SOL    HW1 6653   0.266   4.637   3.131
 2039SOL    HW2 6654   0.135   4.655   3.059
 2040SOL     OW 6655   1.531   4.719   2.059
 2040SOL    HW1 6656   1.461   4.661   2.091
 2040SOL    HW2 6657   1.572   4.753   2.139
 2041SOL     OW 6658   0.336   3.977   3.679
 2041SOL    HW1 6659   0.383   4.060   3.691
 2041SOL    HW2 6660   0.249   3.994   3.714
 2042SOL     OW 6661   1.477   5.147   2.824
 2042SOL    HW1 6662   1.404   5.159   2.885
 2042SOL    HW2 6663   1.464   5.058   2.790
 2043SOL     OW 6664   0.596   4.445   2.128
 2043SOL    HW1 6665   0.603   4.526   2.078
 2043SOL    HW2 6666   0.531   4.465   2.196
 2044SOL     OW 6667   1.279   4.077   2.794
 2044SOL    HW1 6668   1.190   4.044   2.803
 2044SOL    HW2 6669   1.330   4.024   2.856
 2045SOL     OW 6670   0.792   4.341   3.313
 2045SOL    HW1 6671   0.765   4.318   3.402
 2045SOL    HW2 6672   0.752   4.275   3.257
 2046SOL     OW 6673   1.393   4.198   3.540
 2046SOL    HW1 6674   1.396   4.242   3.624
 2046SOL    HW2 6675   1.454   4.125   3.549
 2047SOL     OW 6676   0.955   4.612   3.445
 2047SOL    HW1 6677   1.009   4.541   3.409
 2047SOL    HW2 6678   0.907   4.645   3.369
 2048SOL     OW 6679   0.992   4.137   3.101
 2048SOL    HW1 6680   0.906   4.158   3.137
 2048SOL    HW2 6681   0.973   4.090   3.019
 2049SOL     OW 6682   1.051   4.422   2.288
 2049SOL    HW1 6683   1.067   4.416   2.382
 2049SOL    HW2 6684   0.968   4.376   2.274
 2050SOL     OW 6685   0.072   4.510   2.672
 2050SOL    HW1 6686   0.153   4.515   2.723
 2050SOL    HW2 6687   0.061   4.598   2.636
 2051SOL     OW 6688   0.893   4.073   2.056
 2051SOL    HW1 6689   0.933   4.135   1.995
 2051SOL    HW2 6690   0.909   3.987   2.017
 2052SOL     OW 6691   1.708   4.299   3.690
 2052SOL    HW1 6692   1.671   4.372   3.642
 2052SOL    HW2 6693   1.736   4.237   3.622
 2053SOL     OW 6694   1.377   4.864   2.401
 2053SOL    HW1 6695   1.459   4.850   2.353
 2053SOL    HW2 6696   1.327   4.925   2.347
 2054SOL     OW 6697   0.556   3.907   2.756
 2054SOL    HW1 6698   0.553   3.935   2.847
 2054SOL    HW2 6699   0.551   3.988   2.705
 2055SOL     OW 6700   1.023   5.169   2.333
 2055SOL    HW1 6701   0.946   5.225   2.328
 2055SOL    HW2 6702   1.038   5.157   2.426
 2056SOL     OW 6703   1.800   4.781   2.728
 2056SOL    HW1 6704   1.743   4.763   2.653
 2056SOL    HW2 6705   1.740   4.788   2.803
 2057SOL     OW 6706   1.250   5.240   3.386
 2057SOL    HW1 6707   1.214   5.173   3.445
 2057SOL    HW2 6708   1.179   5.259   3.325
 2058SOL     OW 6709   0.316   4.676   2.109
 2058SOL    HW1 6710   0.398   4.699   2.065
 2058SOL    HW2 6711   0.293   4.590   2.074
 2059SOL     OW 6712   1.478   4.467   2.589
 2059SOL    HW1 6713   1.470   4.423   2.674
 2059SOL    HW2 6714   1.556   4.522   2.598
 2060SOL     OW 6715   0.463   4.989   3.605
 2060SOL    HW1 6716   0.437   4.992   3.512
 2060SOL    HW2 6717   0.380   4.988   3.653
 2061SOL     OW 6718   1.068   0.179   2.068
 2061SOL    HW1 6719   1.080   0.106   2.128
 2061SOL    HW2 6720   1.103   0.148   1.985
 2062SOL     OW 6721   0.205   4.004   3.359
 2062SOL    HW1 6722   0.126   4.056   3.343
 2062SOL    HW2 6723   0.173   3.925   3.403
 2063SOL     OW 6724   1.623   5.101   1.970
 2063SOL    HW1 6725   1.620   5.177   1.911
 2063SOL    HW2 6726   1.554   5.042   1.936
 2064SOL     OW 6727   1.401   3.831   2.295
 2064SOL    HW1 6728   1.391   3.807   2.203
 2064SOL    HW2 6729   1.496   3.838   2.308
 2065SOL     OW 6730   0.386   4.420   2.341
 2065SOL    HW1 6731   0.415   4.329   2.350
 2065SOL    HW2 6732   0.293   4.417   2.361
 2066SOL     OW 6733   1.535   3.949   3.587
 2066SOL    HW1 6734   1.544   3.970   3.680
 2066SOL    HW2 6735   1.467   3.882   3.584
 2067SOL     OW 6736   0.634   3.846   1.967
 2067SOL    HW1 6737   0.704   3.782   1.979
 2067SOL    HW2 6738   0.585   3.815   1.891
 2068SOL     OW 6739   0.767   4.002   3.616
 2068SOL    HW1 6740   0.842   3.943   3.617
 2068SOL    HW2 6741   0.718   3.980   3.695
 2069SOL     OW 6742   1.340   4.313   3.294
 2069SOL    HW1 6743   1.371   4.281   3.379
 2069SOL    HW2 6744   1.377   4.401   3.286
 2070SOL     OW 6745   0.814   5.120   2.798
 2070SOL    HW1 6746   0.894   5.105   2.748
 2070SOL    HW2 6747   0.745   5.126   2.731
 2071SOL     OW 6748   0.928   4.234   2.765
 2071SOL    HW1 6749   0.904   4.225   2.672
 2071SOL    HW2 6750   0.959   4.146   2.790
 2072SOL     OW 6751   0.560   3.785   2.358
 2072SOL    HW1 6752   0.485   3.785   2.418
 2072SOL    HW2 6753   0.550   3.865   2.306
 2073SOL     OW 6754   1.428   4.924   1.900
 2073SOL    HW1 6755   1.458   4.848   1.951
 2073SOL    HW2 6756   1.340   4.941   1.934
 2074SOL     OW 6757   0.305   3.771   2.041
 2074SOL    HW1 6758   0.367   3.835   2.006
 2074SOL    HW2 6759   0.360   3.706   2.086
 2075SOL     OW 6760   0.939   3.971   2.322
 2075SOL    HW1 6761   0.912   4.012   2.240
 2075SOL    HW2 6762   1.034   3.985   2.326
 2076SOL     OW 6763   1.080   4.405   3.322
 2076SOL    HW1 6764   1.011   4.338   3.326
 2076SOL    HW2 6765   1.161   4.355   3.315
 2077SOL     OW 6766   1.264   5.267   2.640
 2077SOL    HW1 6767   1.221   0.048   2.613
 2077SOL    HW2 6768   1.308   5.289   2.722
 2078SOL     OW 6769   0.465   4.873   2.590
 2078SOL    HW1 6770   0.397   4.853   2.654
 2078SOL    HW2 6771   0.425   4.854   2.506
 2079SOL     OW 6772   1.023   4.266   1.885
 2079SOL    HW1 6773   0.981   4.349   1.865
 2079SOL    HW2 6774   1.089   4.287   1.951
 2080SOL     OW 6775   0.088   4.269   3.260
 2080SOL    HW1 6776   0.175   4.276   3.223
 2080SOL    HW2 6777   0.079   4.345   3.317
 2081SOL     OW 6778   0.560   3.952   3.028
 2081SOL    HW1 6779   0.598   3.872   3.065
 2081SOL    HW2 6780   0.469   3.950   3.056
 2082SOL     OW 6781   0.868   4.183   2.502
 2082SOL    HW1 6782   0.822   4.237   2.438
 2082SOL    HW2 6783   0.889   4.103   2.454
 2083SOL     OW 6784   1.016   3.777   2.613
 2083SOL    HW1 6785   0.957   3.770   2.538
 2083SOL    HW2 6786   0.994   3.702   2.668
 2084SOL     OW 6787   1.437   4.890   2.721
 2084SOL    HW1 6788   1.371   4.821   2.717
 2084SOL    HW2 6789   1.463   4.903   2.629
 2085SOL     OW 6790   1.466   4.329   2.839
 2085SOL    HW1 6791   1.416   4.248   2.842
 2085SOL    HW2 6792   1.526   4.323   2.913
 2086SOL     OW 6793   1.845   4.540   2.245
 2086SOL    HW1 6794   1.902   4.489   2.303
 2086SOL    HW2 6795   1.817   4.477   2.178
 2087SOL     OW 6796   0.483   5.144   2.015
 2087SOL    HW1 6797   0.420   5.094   2.067
 2087SOL    HW2 6798   0.482   5.102   1.929
 2088SOL     OW 6799   1.669   4.987   2.508
 2088SOL    HW1 6800   1.763   4.993   2.526
 2088SOL    HW2 6801   1.636   5.075   2.525
 2089SOL     OW 6802   1.394   4.296   1.933
 2089SOL    HW1 6803   1.333   4.276   2.005
 2089SOL    HW2 6804   1.478   4.264   1.964
 2090SOL     OW 6805   0.524   3.987   2.179
 2090SOL    HW1 6806   0.569   3.940   2.109
 2090SOL    HW2 6807   0.502   4.072   2.140
 2091SOL     OW 6808   1.751   4.960   3.438
 2091SOL    HW1 6809   1.837   4.918   3.438
 2091SOL    HW2 6810   1.770   5.053   3.450
 2092SOL     OW 6811   1.064   5.075   3.193
 2092SOL    HW1 6812   0.986   5.049   3.241
 2092SOL    HW2 6813   1.137   5.035   3.242
 2093SOL     OW 6814   1.127   4.926   2.970
 2093SOL    HW1 6815   1.076   4.967   3.040
 2093SOL    HW2 6816   1.081   4.951   2.889
 2094SOL     OW 6817   1.629   4.822   2.938
 2094SOL    HW1 6818   1.624   4.884   3.012
 2094SOL    HW2 6819   1.550   4.841   2.887
 2095SOL     OW 6820   0.919   3.820   3.259
 2095SOL    HW1 6821   0.941   3.802   3.168
 2095SOL    HW2 6822   0.998   3.860   3.295
 2096SOL     OW 6823   0.984   4.839   3.587
 2096SOL    HW1 6824   0.892   4.855   3.605
 2096SOL    HW2 6825   0.985   4.762   3.529
 2097SOL     OW 6826   0.703   4.781   2.235
 2097SOL    HW1 6827   0.693   4.766   2.329
 2097SOL    HW2 6828   0.781   4.731   2.211
 2098SOL     OW 6829   0.421   4.542   3.113
 2098SOL    HW1 6830   0.490   4.549   3.180
 2098SOL    HW2 6831   0.386   4.454   3.124
 2099SOL     OW 6832   1.265   4.101   3.137
 2099SOL    HW1 6833   1.298   4.178   3.183
 2099SOL    HW2 6834   1.175   4.123   3.114
 2100SOL     OW 6835   0.113   5.291   3.180
 2100SOL    HW1 6836   0.051   0.047   3.227
 2100SOL    HW2 6837   0.189   5.286   3.237
 2101SOL     OW 6838   0.344   4.828   2.349
 2101SOL    HW1 6839   0.350   4.907   2.294
 2101SOL    HW2 6840   0.351   4.756   2.287
 2102SOL     OW 6841   0.554   4.260   2.721
 2102SOL    HW1 6842   0.570   4.318   2.647
 2102SOL    HW2 6843   0.619   4.287   2.787
 2103SOL     OW 6844   1.260   5.077   2.247
 2103SOL    HW1 6845   1.317   5.144   2.286
 2103SOL    HW2 6846   1.172   5.099   2.277
 2104SOL     OW 6847   1.269   5.182   3.003
 2104SOL    HW1 6848   1.328   5.195   3.078
 2104SOL    HW2 6849   1.225   5.099   3.022
 2105SOL     OW 6850   1.582   4.347   2.341
 2105SOL    HW1 6851   1.535   4.400   2.405
 2105SOL    HW2 6852   1.627   4.410   2.285
 2106SOL     OW 6853   0.381   5.230   3.178
 2106SOL    HW1 6854   0.364   5.192   3.092
 2106SOL    HW2 6855   0.474   5.256   3.174
 2107SOL     OW 6856   0.414   4.467   3.464
 2107SOL    HW1 6857   0.475   4.512   3.406
 2107SOL    HW2 6858   0.453   4.380   3.477
 2108SOL     OW 6859   1.601   4.503   3.544
 2108SOL    HW1 6860   1.515   4.544   3.537
 2108SOL    HW2 6861   1.654   4.545   3.476
 2109SOL     OW 6862   0.996   3.847   3.617
 2109SOL    HW1 6863   1.052   3.920   3.589
 2109SOL    HW2 6864   1.044   3.769   3.591
 2110SOL     OW 6865   0.497   3.765   3.610
 2110SOL    HW1 6866   0.455   3.711   3.543
 2110SOL    HW2 6867   0.438   3.839   3.622
 2111SOL     OW 6868   0.586   4.597   2.894
 2111SOL    HW1 6869   0.614   4.688   2.892
 2111SOL    HW2 6870   0.529   4.591   2.971
 2112SOL     OW 6871   1.357   4.582   2.890
 2112SOL    HW1 6872   1.274   4.572   2.845
 2112SOL    HW2 6873   1.398   4.496   2.885
 2113SOL     OW 6874   1.205   4.253   2.129
 2113SOL    HW1 6875   1.213   4.174   2.183
 2113SOL    HW2 6876   1.162   4.317   2.185
 2114SOL     OW 6877   0.302   3.927   3.110
 2114SOL    HW1 6878   0.267   3.952   3.196
 2114SOL    HW2 6879   0.289   3.832   3.105
 2115SOL     OW 6880   0.044   5.022   3.138
 2115SOL    HW1 6881   0.074   4.972   3.214
 2115SOL    HW2 6882   0.044   5.113   3.167
 2116SOL     OW 6883   0.724   4.355   2.920
 2116SOL    HW1 6884   0.799   4.339   2.862
 2116SOL    HW2 6885   0.696   4.444   2.899
 2117SOL     OW 6886   1.734   4.684   3.714
 2117SOL    HW1 6887   1.689   4.622   3.657
 2117SOL    HW2 6888   1.675   4.697   3.788
 2118SOL     OW 6889   0.327   3.786   2.496
 2118SOL    HW1 6890   0.307   3.875   2.523
 2118SOL    HW2 6891   0.332   3.736   2.578
 2119SOL     OW 6892   1.616   4.098   2.229
 2119SOL    HW1 6893   1.644   4.034   2.295
 2119SOL    HW2 6894   1.594   4.176   2.279
 2120SOL     OW 6895   1.028   4.483   2.823
 2120SOL    HW1 6896   1.024   4.501   2.917
 2120SOL    HW2 6897   1.001   4.392   2.814
 2121SOL     OW 6898   1.854   5.214   3.447
 2121SOL    HW1 6899   1.849   5.289   3.388
 2121SOL    HW2 6900   1.924   5.237   3.509
 2122SOL     OW 6901   0.354   4.643   3.668
 2122SOL    HW1 6902   0.435   4.660   3.716
 2122SOL    HW2 6903   0.379   4.577   3.602
 2123SOL     OW 6904   1.529   3.997   1.989
 2123SOL    HW1 6905   1.464   3.932   2.016
 2123SOL    HW2 6906   1.562   4.033   2.072
 2124SOL     OW 6907   1.292   4.550   1.893
 2124SOL    HW1 6908   1.335   4.465   1.896
 2124SOL    HW2 6909   1.323   4.589   1.811
 2125SOL     OW 6910   1.058   5.079   2.687
 2125SOL    HW1 6911   1.063   4.993   2.644
 2125SOL    HW2 6912   1.145   5.117   2.675
 2126SOL     OW 6913   0.315   4.533   2.811
 2126SOL    HW1 6914   0.409   4.550   2.808
 2126SOL    HW2 6915   0.308   4.443   2.844
 2127SOL     OW 6916   0.335   4.250   2.877
 2127SOL    HW1 6917   0.300   4.162   2.863
 2127SOL    HW2 6918   0.410   4.255   2.817
 2128SOL     OW 6919   1.134   4.100   3.544
 2128SOL    HW1 6920   1.086   4.155   3.606
 2128SOL    HW2 6921   1.222   4.138   3.540
 2129SOL     OW 6922   1.161   3.927   3.332
 2129SOL    HW1 6923   1.150   3.989   3.404
 2129SOL    HW2 6924   1.200   3.977   3.261
 2130SOL     OW 6925   0.002   5.048   2.069
 2130SOL    HW1 6926   5.226   5.036   2.013
 2130SOL    HW2 6927   0.014   4.963   2.112
 2131SOL     OW 6928   0.983   4.516   3.089
 2131SOL    HW1 6929   1.039   4.493   3.163
 2131SOL    HW2 6930   0.898   4.478   3.110
 2132SOL     OW 6931   0.032   4.283   2.977
 2132SOL    HW1 6932   0.119   4.260   2.945
 2132SOL    HW2 6933   0.037   4.267   3.071
 2133SOL     OW 6934   0.175   4.237   3.574
 2133SOL    HW1 6935   0.240   4.200   3.514
 2133SOL    HW2 6936   0.146   4.318   3.532
 2134SOL     OW 6937   1.377   4.663   3.520
 2134SOL    HW1 6938   1.397   4.756   3.517
 2134SOL    HW2 6939   1.373   4.636   3.428
 2135SOL     OW 6940   0.816   4.293   2.222
 2135SOL    HW1 6941   0.820   4.218   2.162
 2135SOL    HW2 6942   0.742   4.345   2.190
 2136SOL     OW 6943   1.642   4.326   3.048
 2136SOL    HW1 6944   1.632   4.266   3.122
 2136SOL    HW2 6945   1.729   4.306   3.013
 2137SOL     OW 6946   0.209   5.279   3.594
 2137SOL    HW1 6947   0.175   0.022   3.672
 2137SOL    HW2 6948   0.213   5.186   3.617
 2138SOL     OW 6949   0.702   4.174   3.122
 2138SOL    HW1 6950   0.649   4.100   3.092
 2138SOL    HW2 6951   0.697   4.237   3.050
 2139SOL     OW 6952   0.465   4.217   2.047
 2139SOL    HW1 6953   0.525   4.289   2.069
 2139SOL    HW2 6954   0.380   4.260   2.035
 2140SOL     OW 6955   0.151   4.861   3.334
 2140SOL    HW1 6956   0.147   4.812   3.416
 2140SOL    HW2 6957   0.161   4.794   3.266
 2141SOL     OW 6958   1.327   4.769   3.084
 2141SOL    HW1 6959   1.350   4.707   3.016
 2141SOL    HW2 6960   1.256   4.822   3.047
 2142SOL     OW 6961   1.311   4.582   2.168
 2142SOL    HW1 6962   1.235   4.550   2.218
 2142SOL    HW2 6963   1.286   4.567   2.077
 2143SOL     OW 6964   0.076   4.918   2.892
 2143SOL    HW1 6965   0.065   4.959   2.978
 2143SOL    HW2 6966   5.289   4.924   2.852
 2144SOL     OW 6967   0.752   0.038   3.571
 2144SOL    HW1 6968   0.659   0.060   3.580
 2144SOL    HW2 6969   0.773   0.060   3.480
 2145SOL     OW 6970   1.719   3.870   2.371
 2145SOL    HW1 6971   1.792   3.856   2.311
 2145SOL    HW2 6972   1.704   3.785   2.411
 2146SOL     OW 6973   1.277   4.650   2.534
 2146SOL    HW1 6974   1.350   4.588   2.541
 2146SOL    HW2 6975   1.312   4.721   2.480
 2147SOL     OW 6976   0.818   4.993   3.282
 2147SOL    HW1 6977   0.788   5.029   3.365
 2147SOL    HW2 6978   0.743   5.001   3.224
 2148SOL     OW 6979   1.841   3.896   2.829
 2148SOL    HW1 6980   1.870   3.809   2.801
 2148SOL    HW2 6981   1.754   3.907   2.789
 2149SOL     OW 6982   0.273   4.041   2.579
 2149SOL    HW1 6983   0.188   4.080   2.559
 2149SOL    HW2 6984   0.271   4.029   2.674
 2150SOL     OW 6985   0.825   4.727   3.233
 2150SOL    HW1 6986   0.870   4.720   3.149
 2150SOL    HW2 6987   0.828   4.821   3.254
 2151SOL     OW 6988   0.915   4.636   2.152
 2151SOL    HW1 6989   0.977   4.668   2.086
 2151SOL    HW2 6990   0.963   4.566   2.197
 2152SOL     OW 6991   0.366   5.028   3.362
 2152SOL    HW1 6992   0.366   5.098   3.297
 2152SOL    HW2 6993   0.291   4.973   3.338
 2153SOL     OW 6994   1.612   5.004   3.144
 2153SOL    HW1 6995   1.669   4.997   3.221
 2153SOL    HW2 6996   1.550   5.073   3.166
 2154SOL     OW 6997   1.054   4.833   2.573
 2154SOL    HW1 6998   0.982   4.782   2.610
 2154SOL    HW2 6999   1.116   4.768   2.541
 2155SOL     OW 7000   1.021   3.965   2.828
 2155SOL    HW1 7001   1.017   3.917   2.745
 2155SOL    HW2 7002   1.016   3.897   2.895
 2156SOL     OW 7003   1.722   4.117   3.243
 2156SOL    HW1 7004   1.794   4.180   3.241
 2156SOL    HW2 7005   1.751   4.045   3.186
 2157SOL     OW 7006   0.259   5.059   2.148
 2157SOL    HW1 7007   0.167   5.063   2.124
 2157SOL    HW2 7008   0.262   5.097   2.236
 2158SOL     OW 7009   0.116   4.742   3.581
 2158SOL    HW1 7010   0.045   4.704   3.633
 2158SOL    HW2 7011   0.196   4.709   3.623
 2159SOL     OW 7012   0.674   3.920   3.361
 2159SOL    HW1 7013   0.758   3.900   3.320
 2159SOL    HW2 7014   0.697   3.952   3.449
 2160SOL     OW 7015   0.083   4.073   1.903
 2160SOL    HW1 7016   0.003   4.026   1.880
 2160SOL    HW2 7017   0.098   4.131   1.828
 2161SOL     OW 7018   1.430   4.582   3.262
 2161SOL    HW1 7019   1.381   4.643   3.206
 2161SOL    HW2 7020   1.519   4.584   3.228
 2162SOL     OW 7021   0.056   3.857   2.105
 2162SOL    HW1 7022   0.055   3.952   2.097
 2162SOL    HW2 7023   0.145   3.832   2.083
 2163SOL     OW 7024   1.182   5.064   1.983
 2163SOL    HW1 7025   1.091   5.035   1.983
 2163SOL    HW2 7026   1.210   5.056   2.074
 2164SOL     OW 7027   0.619   4.555   3.298
 2164SOL    HW1 7028   0.676   4.630   3.281
 2164SOL    HW2 7029   0.679   4.481   3.305
 2165SOL     OW 7030   0.717   4.288   3.567
 2165SOL    HW1 7031   0.759   4.350   3.627
 2165SOL    HW2 7032   0.745   4.202   3.598
 2166SOL     OW 7033   1.474   4.923   3.493
 2166SOL    HW1 7034   1.460   4.935   3.587
 2166SOL    HW2 7035   1.567   4.937   3.480
 2167SOL     OW 7036   1.670   4.605   3.117
 2167SOL    HW1 7037   1.663   4.520   3.074
 2167SOL    HW2 7038   1.660   4.668   3.046
 2168SOL     OW 7039   1.217   4.043   2.320
 2168SOL    HW1 7040   1.280   3.972   2.311
 2168SOL    HW2 7041   1.246   4.092   2.397
 2169SOL     OW 7042   0.590   4.461   2.531
 2169SOL    HW1 7043   0.629   4.548   2.516
 2169SOL    HW2 7044   0.521   4.454   2.466
 2170SOL     OW 7045   1.762   4.086   3.513
 2170SOL    HW1 7046   1.745   4.101   3.420
 2170SOL    HW2 7047   1.691   4.029   3.541
 2171SOL     OW 7048   1.745   4.658   3.374
 2171SOL    HW1 7049   1.740   4.752   3.387
 2171SOL    HW2 7050   1.729   4.645   3.280
 2172SOL     OW 7051   0.849   5.094   1.881
 2172SOL    HW1 7052   0.830   5.095   1.975
 2172SOL    HW2 7053   0.866   5.186   1.860
 2173SOL     OW 7054   0.868   4.691   2.716
 2173SOL    HW1 7055   0.917   4.620   2.757
 2173SOL    HW2 7056   0.833   4.741   2.790
 2174SOL     OW 7057   1.080   4.713   1.952
 2174SOL    HW1 7058   1.057   4.763   1.873
 2174SOL    HW2 7059   1.154   4.659   1.925
 2175SOL     OW 7060   0.220   5.025   3.716
 2175SOL    HW1 7061   0.155   4.957   3.697
 2175SOL    HW2 7062   0.217   5.035   3.812
 2176SOL     OW 7063   0.083   4.928   2.517
 2176SOL    HW1 7064   0.102   4.907   2.609
 2176SOL    HW2 7065   0.169   4.941   2.477
 2177SOL     OW 7066   0.671   5.106   3.471
 2177SOL    HW1 7067   0.594   5.073   3.518
 2177SOL    HW2 7068   0.703   5.178   3.525
 2178SOL     OW 7069   1.812   3.909   3.100
 2178SOL    HW1 7070   1.826   3.816   3.115
 2178SOL    HW2 7071   1.821   3.919   3.005
 2179SOL     OW 7072   0.435   4.160   2.386
 2179SOL    HW1 7073   0.462   4.087   2.330
 2179SOL    HW2 7074   0.387   4.118   2.458
 2180SOL     OW 7075   1.707   5.224   2.981
 2180SOL    HW1 7076   1.633   5.207   2.922
 2180SOL    HW2 7077   1.714   5.144   3.034
 2181SOL     OW 7078   0.337   4.283   3.153
 2181SOL    HW1 7079   0.389   4.224   3.207
 2181SOL    HW2 7080   0.350   4.253   3.064
 2182SOL     OW 7081   1.432   3.949   2.980
 2182SOL    HW1 7082   1.458   3.870   3.026
 2182SOL    HW2 7083   1.380   3.998   3.043
 2183SOL     OW 7084   1.009   3.743   3.004
 2183SOL    HW1 7085   0.954   3.675   2.964
 2183SOL    HW2 7086   1.097   3.705   3.006
 2184SOL     OW 7087   0.804   5.047   2.146
 2184SOL    HW1 7088   0.743   4.976   2.165
 2184SOL    HW2 7089   0.857   5.054   2.225
 2185SOL     OW 7090   0.640   0.003   3.149
 2185SOL    HW1 7091   0.643   0.057   3.228
 2185SOL    HW2 7092   0.731   5.285   3.128
 2186SOL     OW 7093   1.352   3.778   2.027
 2186SOL    HW1 7094   1.380   3.714   1.962
 2186SOL    HW2 7095   1.265   3.748   2.054
 2187SOL     OW 7096   1.296   4.185   2.543
 2187SOL    HW1 7097   1.243   4.264   2.550
 2187SOL    HW2 7098   1.292   4.145   2.630
 2188SOL     OW 7099   1.587   3.926   2.740
 2188SOL    HW1 7100   1.526   3.946   2.811
 2188SOL    HW2 7101   1.586   4.004   2.685
 2189SOL     OW 7102   0.047   4.790   2.152
 2189SOL    HW1 7103   0.137   4.759   2.142
 2189SOL    HW2 7104   0.000   4.716   2.190
 2190SOL     OW 7105   0.233   4.356   3.840
 2190SOL    HW1 7106   0.160   4.323   3.892
 2190SOL    HW2 7107   0.218   4.321   3.752
 2191SOL     OW 7108   0.242   3.999   4.713
 2191SOL    HW1 7109   0.256   3.965   4.802
 2191SOL    HW2 7110   0.158   3.963   4.686
 2192SOL     OW 7111   5.298   4.122   4.377
 2192SOL    HW1 7112   5.205   4.144   4.383
 2192SOL    HW2 7113   5.299   4.031   4.346
 2193SOL     OW 7114   0.574   5.000   4.907
 2193SOL    HW1 7115   0.494   5.006   4.854
 2193SOL    HW2 7116   0.592   5.090   4.934
 2194SOL     OW 7117   1.555   5.232   4.413
 2194SOL    HW1 7118   1.536   5.229   4.506
 2194SOL    HW2 7119   1.476   5.268   4.373
 2195SOL     OW 7120   1.130   4.422   4.425
 2195SOL    HW1 7121   1.179   4.503   4.411
 2195SOL    HW2 7122   1.083   4.436   4.507
 2196SOL     OW 7123   1.766   4.330   3.953
 2196SOL    HW1 7124   1.746   4.322   3.860
 2196SOL    HW2 7125   1.732   4.249   3.992
 2197SOL     OW 7126   0.758   4.867   4.761
 2197SOL    HW1 7127   0.691   4.897   4.823
 2197SOL    HW2 7128   0.786   4.947   4.716
 2198SOL     OW 7129   0.867   4.499   5.546
 2198SOL    HW1 7130   0.855   4.571   5.608
 2198SOL    HW2 7131   0.890   4.542   5.464
 2199SOL     OW 7132   0.686   4.726   4.372
 2199SOL    HW1 7133   0.751   4.715   4.441
 2199SOL    HW2 7134   0.618   4.781   4.412
 2200SOL     OW 7135   0.708   4.872   5.536
 2200SOL    HW1 7136   0.756   4.951   5.560
 2200SOL    HW2 7137   0.625   4.904   5.501
 2201SOL     OW 7138   0.377   5.145   4.777
 2201SOL    HW1 7139   0.282   5.155   4.765
 2201SOL    HW2 7140   0.416   5.198   4.708
 2202SOL     OW 7141   1.455   5.220   5.071
 2202SOL    HW1 7142   1.509   5.293   5.103
 2202SOL    HW2 7143   1.388   5.210   5.139
 2203SOL     OW 7144   0.451   4.124   5.217
 2203SOL    HW1 7145   0.524   4.063   5.218
 2203SOL    HW2 7146   0.373   4.068   5.226
 2204SOL     OW 7147   1.612   4.171   4.464
 2204SOL    HW1 7148   1.537   4.194   4.409
 2204SOL    HW2 7149   1.627   4.250   4.517
 2205SOL     OW 7150   1.133   5.072   5.425
 2205SOL    HW1 7151   1.164   5.073   5.516
 2205SOL    HW2 7152   1.080   4.993   5.418
 2206SOL     OW 7153   0.212   5.151   4.256
 2206SOL    HW1 7154   0.251   5.231   4.292
 2206SOL    HW2 7155   0.132   5.138   4.307
 2207SOL     OW 7156   0.252   4.799   4.599
 2207SOL    HW1 7157   0.264   4.712   4.639
 2207SOL    HW2 7158   0.196   4.846   4.661
 2208SOL     OW 7159   0.583   4.707   3.859
 2208SOL    HW1 7160   0.630   4.754   3.790
 2208SOL    HW2 7161   0.623   4.736   3.941
 2209SOL     OW 7162   1.597   3.848   5.192
 2209SOL    HW1 7163   1.602   3.929   5.141
 2209SOL    HW2 7164   1.582   3.877   5.282
 2210SOL     OW 7165   0.127   4.356   4.302
 2210SOL    HW1 7166   0.088   4.274   4.333
 2210SOL    HW2 7167   0.099   4.421   4.367
 2211SOL     OW 7168   5.299   5.299   3.806
 2211SOL    HW1 7169   0.015   5.211   3.840
 2211SOL    HW2 7170   0.026   0.058   3.877
 2212SOL     OW 7171   1.689   4.642   4.364
 2212SOL    HW1 7172   1.772   4.600   4.343
 2212SOL    HW2 7173   1.667   4.693   4.286
 2213SOL     OW 7174   1.646   4.831   4.154
 2213SOL    HW1 7175   1.731   4.835   4.111
 2213SOL    HW2 7176   1.652   4.892   4.227
 2214SOL     OW 7177   0.131   4.472   5.310
 2214SOL    HW1 7178   0.225   4.486   5.311
 2214SOL    HW2 7179   0.093   4.559   5.323
 2215SOL     OW 7180   0.627   5.096   4.459
 2215SOL    HW1 7181   0.570   5.019   4.459
 2215SOL    HW2 7182   0.601   5.145   4.381
 2216SOL     OW 7183   1.289   4.954   5.150
 2216SOL    HW1 7184   1.323   4.889   5.089
 2216SOL    HW2 7185   1.349   4.951   5.224
 2217SOL     OW 7186   0.823   3.723   4.234
 2217SOL    HW1 7187   0.863   3.808   4.214
 2217SOL    HW2 7188   0.729   3.742   4.240
 2218SOL     OW 7189   0.176   4.667   5.006
 2218SOL    HW1 7190   0.266   4.637   4.993
 2218SOL    HW2 7191   0.135   4.655   4.920
 2219SOL     OW 7192   1.531   4.719   3.921
 2219SOL    HW1 7193   1.461   4.661   3.953
 2219SOL    HW2 7194   1.572   4.753   4.001
 2220SOL     OW 7195   0.336   3.977   5.541
 2220SOL    HW1 7196   0.383   4.060   5.553
 2220SOL    HW2 7197   0.249   3.994   5.576
 2221SOL     OW 7198   1.477   5.147   4.686
 2221SOL    HW1 7199   1.404   5.159   4.747
 2221SOL    HW2 7200   1.464   5.058   4.652
 2222SOL     OW 7201   0.596   4.445   3.990
 2222SOL    HW1 7202   0.603   4.526   3.940
 2222SOL    HW2 7203   0.531   4.465   4.058
 2223SOL     OW 7204   1.279   4.076   4.657
 2223SOL    HW1 7205   1.190   4.044   4.665
 2223SOL    HW2 7206   1.330   4.023   4.718
 2224SOL     OW 7207   0.792   4.341   5.175
 2224SOL    HW1 7208   0.765   4.318   5.264
 2224SOL    HW2 7209   0.752   4.275   5.119
 2225SOL     OW 7210   1.394   4.198   5.402
 2225SOL    HW1 7211   1.396   4.243   5.487
 2225SOL    HW2 7212   1.454   4.125   5.412
 2226SOL     OW 7213   0.955   4.612   5.307
 2226SOL    HW1 7214   1.009   4.541   5.271
 2226SOL    HW2 7215   0.907   4.645   5.231
 2227SOL     OW 7216   0.992   4.137   4.963
 2227SOL    HW1 7217   0.906   4.158   4.999
 2227SOL    HW2 7218   0.973   4.090   4.881
 2228SOL     OW 7219   1.051   4.422   4.150
 2228SOL    HW1 7220   1.067   4.415   4.244
 2228SOL    HW2 7221   0.968   4.376   4.136
 2229SOL     OW 7222   0.072   4.510   4.534
 2229SOL    HW1 7223   0.153   4.515   4.585
 2229SOL    HW2 7224   0.061   4.598   4.498
 2230SOL     OW 7225   0.893   4.073   3.918
 2230SOL    HW1 7226   0.933   4.134   3.857
 2230SOL    HW2 7227   0.909   3.987   3.879
 2231SOL     OW 7228   1.709   4.298   5.552
 2231SOL    HW1 7229   1.671   4.372   5.504
 2231SOL    HW2 7230   1.736   4.237   5.483
 2232SOL     OW 7231   1.377   4.864   4.263
 2232SOL    HW1 7232   1.459   4.850   4.215
 2232SOL    HW2 7233   1.327   4.925   4.209
 2233SOL     OW 7234   0.556   3.907   4.618
 2233SOL    HW1 7235   0.553   3.935   4.709
 2233SOL    HW2 7236   0.551   3.988   4.567
 2234SOL     OW 7237   1.023   5.169   4.195
 2234SOL    HW1 7238   0.946   5.225   4.190
 2234SOL    HW2 7239   1.038   5.157   4.288
 2235SOL     OW 7240   1.800   4.781   4.590
 2235SOL    HW1 7241   1.744   4.763   4.515
 2235SOL    HW2 7242   1.740   4.788   4.665
 2236SOL     OW 7243   1.250   5.239   5.248
 2236SOL    HW1 7244   1.214   5.173   5.307
 2236SOL    HW2 7245   1.179   5.259   5.187
 2237SOL     OW 7246   0.316   4.676   3.971
 2237SOL    HW1 7247   0.398   4.698   3.927
 2237SOL    HW2 7248   0.293   4.590   3.936
 2238SOL     OW 7249   1.478   4.467   4.451
 2238SOL    HW1 7250   1.470   4.423   4.536
 2238SOL    HW2 7251   1.556   4.522   4.460
 2239SOL     OW 7252   0.463   4.989   5.467
 2239SOL    HW1 7253   0.437   4.991   5.374
 2239SOL    HW2 7254   0.380   4.988   5.515
 2240SOL     OW 7255   1.067   0.179   3.931
 2240SOL    HW1 7256   1.081   0.107   3.991
 2240SOL    HW2 7257   1.104   0.149   3.848
 2241SOL     OW 7258   0.205   4.004   5.221
 2241SOL    HW1 7259   0.126   4.056   5.205
 2241SOL    HW2 7260   0.173   3.925   5.265
 2242SOL     OW 7261   1.622   5.101   3.832
 2242SOL    HW1 7262   1.621   5.176   3.773
 2242SOL    HW2 7263   1.555   5.043   3.798
 2243SOL     OW 7264   1.401   3.831   4.157
 2243SOL    HW1 7265   1.390   3.806   4.065
 2243SOL    HW2 7266   1.496   3.838   4.169
 2244SOL     OW 7267   0.386   4.420   4.203
 2244SOL    HW1 7268   0.415   4.329   4.212
 2244SOL    HW2 7269   0.293   4.417   4.223
 2245SOL     OW 7270   1.535   3.949   5.449
 2245SOL    HW1 7271   1.545   3.970   5.542
 2245SOL    HW2 7272   1.466   3.883   5.446
 2246SOL     OW 7273   0.634   3.846   3.829
 2246SOL    HW1 7274   0.704   3.782   3.841
 2246SOL    HW2 7275   0.585   3.815   3.753
 2247SOL     OW 7276   0.767   4.002   5.478
 2247SOL    HW1 7277   0.842   3.943   5.479
 2247SOL    HW2 7278   0.717   3.980   5.557
 2248SOL     OW 7279   1.341   4.312   5.156
 2248SOL    HW1 7280   1.371   4.281   5.241
 2248SOL    HW2 7281   1.376   4.401   5.148
 2249SOL     OW 7282   0.814   5.120   4.660
 2249SOL    HW1 7283   0.894   5.105   4.610
 2249SOL    HW2 7284   0.745   5.126   4.593
 2250SOL     OW 7285   0.928   4.234   4.627
 2250SOL    HW1 7286   0.904   4.225   4.534
 2250SOL    HW2 7287   0.959   4.146   4.652
 2251SOL     OW 7288   0.560   3.785   4.220
 2251SOL    HW1 7289   0.485   3.785   4.279
 2251SOL    HW2 7290   0.550   3.865   4.168
 2252SOL     OW 7291   1.428   4.924   3.762
 2252SOL    HW1 7292   1.458   4.848   3.813
 2252SOL    HW2 7293   1.340   4.941   3.796
 2253SOL     OW 7294   0.305   3.771   3.903
 2253SOL    HW1 7295   0.367   3.835   3.868
 2253SOL    HW2 7296   0.360   3.706   3.948
 2254SOL     OW 7297   0.940   3.971   4.184
 2254SOL    HW1 7298   0.912   4.012   4.102
 2254SOL    HW2 7299   1.034   3.985   4.188
 2255SOL     OW 7300   1.080   4.405   5.184
 2255SOL    HW1 7301   1.011   4.338   5.188
 2255SOL    HW2 7302   1.161   4.354   5.177
 2256SOL     OW 7303   1.264   5.267   4.502
 2256SOL    HW1 7304   1.220   0.048   4.475
 2256SOL    HW2 7305   1.308   5.289   4.584
 2257SOL     OW 7306   0.465   4.873   4.452
 2257SOL    HW1 7307   0.397   4.853   4.516
 2257SOL    HW2 7308   0.425   4.853   4.368
 2258SOL     OW 7309   1.023   4.266   3.747
 2258SOL    HW1 7310   0.981   4.349   3.727
 2258SOL    HW2 7311   1.089   4.287   3.813
 2259SOL     OW 7312   0.088   4.269   5.122
 2259SOL    HW1 7313   0.175   4.276   5.085
 2259SOL    HW2 7314   0.079   4.345   5.179
 2260SOL     OW 7315   0.560   3.952   4.890
 2260SOL    HW1 7316   0.598   3.871   4.927
 2260SOL    HW2 7317   0.469   3.950   4.918
 2261SOL     OW 7318   0.868   4.183   4.363
 2261SOL    HW1 7319   0.822   4.237   4.299
 2261SOL    HW2 7320   0.889   4.103   4.316
 2262SOL     OW 7321   1.015   3.777   4.475
 2262SOL    HW1 7322   0.957   3.769   4.400
 2262SOL    HW2 7323   0.994   3.702   4.530
 2263SOL     OW 7324   1.437   4.890   4.583
 2263SOL    HW1 7325   1.371   4.821   4.579
 2263SOL    HW2 7326   1.463   4.903   4.491
 2264SOL     OW 7327   1.466   4.329   4.701
 2264SOL    HW1 7328   1.415   4.248   4.704
 2264SOL    HW2 7329   1.526   4.323   4.775
 2265SOL     OW 7330   1.845   4.540   4.107
 2265SOL    HW1 7331   1.902   4.488   4.165
 2265SOL    HW2 7332   1.817   4.478   4.040
 2266SOL     OW 7333   0.483   5.144   3.877
 2266SOL    HW1 7334   0.420   5.094   3.929
 2266SOL    HW2 7335   0.482   5.101   3.791
 2267SOL     OW 7336   1.669   4.987   4.371
 2267SOL    HW1 7337   1.763   4.993   4.388
 2267SOL    HW2 7338   1.636   5.075   4.387
 2268SOL     OW 7339   1.394   4.296   3.795
 2268SOL    HW1 7340   1.333   4.276   3.867
 2268SOL    HW2 7341   1.479   4.263   3.826
 2269SOL     OW 7342   0.524   3.987   4.041
 2269SOL    HW1 7343   0.569   3.940   3.971
 2269SOL    HW2 7344   0.502   4.072   4.002
 2270SOL     OW 7345   1.751   4.960   5.300
 2270SOL    HW1 7346   1.837   4.918   5.299
 2270SOL    HW2 7347   1.770   5.053   5.312
 2271SOL     OW 7348   1.064   5.075   5.055
 2271SOL    HW1 7349   0.986   5.049   5.103
 2271SOL    HW2 7350   1.137   5.035   5.104
 2272SOL     OW 7351   1.127   4.926   4.832
 2272SOL    HW1 7352   1.076   4.967   4.902
 2272SOL    HW2 7353   1.081   4.951   4.751
 2273SOL     OW 7354   1.629   4.822   4.801
 2273SOL    HW1 7355   1.624   4.884   4.874
 2273SOL    HW2 7356   1.550   4.841   4.749
 2274SOL     OW 7357   0.919   3.820   5.121
 2274SOL    HW1 7358   0.940   3.802   5.030
 2274SOL    HW2 7359   0.998   3.860   5.157
 2275SOL     OW 7360   0.984   4.839   5.449
 2275SOL    HW1 7361   0.892   4.855   5.467
 2275SOL    HW2 7362   0.985   4.762   5.391
 2276SOL     OW 7363   0.703   4.781   4.097
 2276SOL    HW1 7364   0.693   4.766   4.191
 2276SOL    HW2 7365   0.781   4.731   4.073
 2277SOL     OW 7366   0.421   4.542   4.975
 2277SOL    HW1 7367   0.490   4.549   5.042
 2277SOL    HW2 7368   0.386   4.454   4.986
 2278SOL     OW 7369   1.265   4.101   4.999
 2278SOL    HW1 7370   1.298   4.178   5.045
 2278SOL    HW2 7371   1.175   4.123   4.976
 2279SOL     OW 7372   0.113   5.291   5.042
 2279SOL    HW1 7373   0.051   0.047   5.089
 2279SOL    HW2 7374   0.189   5.287   5.099
 2280SOL     OW 7375   0.344   4.828   4.211
 2280SOL    HW1 7376   0.350   4.907   4.156
 2280SOL    HW2 7377   0.351   4.755   4.149
 2281SOL     OW 7378   0.554   4.260   4.583
 2281SOL    HW1 7379   0.570   4.318   4.509
 2281SOL    HW2 7380   0.619   4.287   4.649
 2282SOL     OW 7381   1.260   5.077   4.109
 2282SOL    HW1 7382   1.317   5.144   4.148
 2282SOL    HW2 7383   1.172   5.099   4.139
 2283SOL     OW 7384   1.269   5.182   4.865
 2283SOL    HW1 7385   1.328   5.195   4.939
 2283SOL    HW2 7386   1.225   5.099   4.885
 2284SOL     OW 7387   1.582   4.346   4.204
 2284SOL    HW1 7388   1.535   4.401   4.267
 2284SOL    HW2 7389   1.627   4.408   4.146
 2285SOL     OW 7390   0.381   5.230   5.040
 2285SOL    HW1 7391   0.364   5.192   4.954
 2285SOL    HW2 7392   0.474   5.256   5.036
 2286SOL     OW 7393   0.414   4.467   5.326
 2286SOL    HW1 7394   0.475   4.512   5.268
 2286SOL    HW2 7395   0.453   4.380   5.339
 2287SOL     OW 7396   1.602   4.503   5.406
 2287SOL    HW1 7397   1.515   4.544   5.399
 2287SOL    HW2 7398   1.654   4.545   5.338
 2288SOL     OW 7399   0.996   3.847   5.479
 2288SOL    HW1 7400   1.052   3.920   5.451
 2288SOL    HW2 7401   1.044   3.768   5.454
 2289SOL     OW 7402   0.497   3.765   5.472
 2289SOL    HW1 7403   0.455   3.711   5.405
 2289SOL    HW2 7404   0.438   3.839   5.484
 2290SOL     OW 7405   0.586   4.597   4.756
 2290SOL    HW1 7406   0.614   4.688   4.754
 2290SOL    HW2 7407   0.529   4.591   4.833
 2291SOL     OW 7408   1.357   4.582   4.752
 2291SOL    HW1 7409   1.274   4.572   4.707
 2291SOL    HW2 7410   1.398   4.496   4.747
 2292SOL     OW 7411   1.205   4.253   3.991
 2292SOL    HW1 7412   1.213   4.174   4.045
 2292SOL    HW2 7413   1.161   4.317   4.047
 2293SOL     OW 7414   0.302   3.927   4.972
 2293SOL    HW1 7415   0.267   3.952   5.058
 2293SOL    HW2 7416   0.289   3.832   4.967
 2294SOL     OW 7417   0.044   5.022   5.000
 2294SOL    HW1 7418   0.074   4.972   5.076
 2294SOL    HW2 7419   0.044   5.113   5.029
 2295SOL     OW 7420   0.724   4.355   4.782
 2295SOL    HW1 7421   0.799   4.339   4.724
 2295SOL    HW2 7422   0.696   4.444   4.761
 2296SOL     OW 7423   1.735   4.684   5.576
 2296SOL    HW1 7424   1.689   4.622   5.519
 2296SOL    HW2 7425   1.675   4.697   5.650
 2297SOL     OW 7426   0.328   3.786   4.358
 2297SOL    HW1 7427   0.307   3.875   4.386
 2297SOL    HW2 7428   0.332   3.736   4.440
 2298SOL     OW 7429   1.616   4.098   4.091
 2298SOL    HW1 7430   1.644   4.034   4.156
 2298SOL    HW2 7431   1.594   4.176   4.142
 2299SOL     OW 7432   1.028   4.483   4.685
 2299SOL    HW1 7433   1.024   4.501   4.779
 2299SOL    HW2 7434   1.001   4.392   4.676
 2300SOL     OW 7435   1.854   5.214   5.309
 2300SOL    HW1 7436   1.848   5.289   5.250
 2300SOL    HW2 7437   1.924   5.236   5.371
 2301SOL     OW 7438   0.354   4.643   5.530
 2301SOL    HW1 7439   0.435   4.660   5.578
 2301SOL    HW2 7440   0.379   4.577   5.464
 2302SOL     OW 7441   1.529   3.998   3.851
 2302SOL    HW1 7442   1.464   3.932   3.877
 2302SOL    HW2 7443   1.562   4.033   3.934
 2303SOL     OW 7444   1.292   4.550   3.755
 2303SOL    HW1 7445   1.335   4.465   3.759
 2303SOL    HW2 7446   1.323   4.589   3.673
 2304SOL     OW 7447   1.058   5.079   4.550
 2304SOL    HW1 7448   1.063   4.993   4.506
 2304SOL    HW2 7449   1.145   5.117   4.537
 2305SOL     OW 7450   0.315   4.533   4.673
 2305SOL    HW1 7451   0.409   4.550   4.669
 2305SOL    HW2 7452   0.308   4.443   4.706
 2306SOL     OW 7453   0.335   4.250   4.739
 2306SOL    HW1 7454   0.300   4.162   4.725
 2306SOL    HW2 7455   0.410   4.255   4.679
 2307SOL     OW 7456   1.134   4.100   5.406
 2307SOL    HW1 7457   1.086   4.155   5.468
 2307SOL    HW2 7458   1.222   4.138   5.402
 2308SOL     OW 7459   1.161   3.927   5.194
 2308SOL    HW1 7460   1.150   3.989   5.266
 2308SOL    HW2 7461   1.200   3.978   5.123
 2309SOL     OW 7462   0.002   5.048   3.931
 2309SOL    HW1 7463   5.226   5.036   3.875
 2309SOL    HW2 7464   0.014   4.963   3.974
 2310SOL     OW 7465   0.983   4.516   4.951
 2310SOL    HW1 7466   1.039   4.493   5.025
 2310SOL    HW2 7467   0.898   4.478   4.972
 2311SOL     OW 7468   0.032   4.283   4.839
 2311SOL    HW1 7469   0.119   4.260   4.807
 2311SOL    HW2 7470   0.037   4.267   4.933
 2312SOL     OW 7471   0.175   4.237   5.436
 2312SOL    HW1 7472   0.239   4.200   5.376
 2312SOL    HW2 7473   0.146   4.318   5.394
 2313SOL     OW 7474   1.377   4.663   5.382
 2313SOL    HW1 7475   1.397   4.756   5.380
 2313SOL    HW2 7476   1.373   4.636   5.290
 2314SOL     OW 7477   0.816   4.293   4.084
 2314SOL    HW1 7478   0.821   4.218   4.024
 2314SOL    HW2 7479   0.742   4.345   4.052
 2315SOL     OW 7480   1.642   4.325   4.910
 2315SOL    HW1 7481   1.631   4.266   4.984
 2315SOL    HW2 7482   1.729   4.305   4.875
 2316SOL     OW 7483   0.209   5.279   5.455
 2316SOL    HW1 7484   0.175   0.022   5.534
 2316SOL    HW2 7485   0.213   5.186   5.479
 2317SOL     OW 7486   0.702   4.174   4.984
 2317SOL    HW1 7487   0.649   4.100   4.954
 2317SOL    HW2 7488   0.697   4.237   4.912
 2318SOL     OW 7489   0.465   4.217   3.909
 2318SOL    HW1 7490   0.525   4.289   3.931
 2318SOL    HW2 7491   0.380   4.260   3.897
 2319SOL     OW 7492   0.151   4.861   5.196
 2319SOL    HW1 7493   0.147   4.812   5.278
 2319SOL    HW2 7494   0.161   4.794   5.128
 2320SOL     OW 7495   1.327   4.769   4.946
 2320SOL    HW1 7496   1.350   4.707   4.878
 2320SOL    HW2 7497   1.256   4.822   4.909
 2321SOL     OW 7498   1.310   4.582   4.030
 2321SOL    HW1 7499   1.235   4.549   4.080
 2321SOL    HW2 7500   1.287   4.567   3.939
 2322SOL     OW 7501   0.076   4.918   4.754
 2322SOL    HW1 7502   0.065   4.959   4.840
 2322SOL    HW2 7503   5.289   4.924   4.714
 2323SOL     OW 7504   0.752   0.038   5.433
 2323SOL    HW1 7505   0.659   0.060   5.442
 2323SOL    HW2 7506   0.773   0.061   5.342
 2324SOL     OW 7507   1.720   3.870   4.234
 2324SOL    HW1 7508   1.793   3.856   4.173
 2324SOL    HW2 7509   1.705   3.785   4.274
 2325SOL     OW 7510   1.277   4.650   4.396
 2325SOL    HW1 7511   1.350   4.588   4.403
 2325SOL    HW2 7512   1.311   4.722   4.342
 2326SOL     OW 7513   0.818   4.993   5.144
 2326SOL    HW1 7514   0.788   5.029   5.227
 2326SOL    HW2 7515   0.743   5.001   5.086
 2327SOL     OW 7516   1.841   3.894   4.691
 2327SOL    HW1 7517   1.868   3.807   4.661
 2327SOL    HW2 7518   1.755   3.907   4.652
 2328SOL     OW 7519   0.273   4.041   4.441
 2328SOL    HW1 7520   0.188   4.080   4.421
 2328SOL    HW2 7521   0.271   4.029   4.536
 2329SOL     OW 7522   0.825   4.727   5.095
 2329SOL    HW1 7523   0.870   4.721   5.011
 2329SOL    HW2 7524   0.828   4.821   5.117
 2330SOL     OW 7525   0.915   4.636   4.014
 2330SOL    HW1 7526   0.977   4.668   3.948
 2330SOL    HW2 7527   0.963   4.566   4.059
 2331SOL     OW 7528   0.366   5.028   5.224
 2331SOL    HW1 7529   0.366   5.098   5.159
 2331SOL    HW2 7530   0.291   4.973   5.200
 2332SOL     OW 7531   1.612   5.004   5.006
 2332SOL    HW1 7532   1.669   4.997   5.083
 2332SOL    HW2 7533   1.550   5.073   5.028
 2333SOL     OW 7534   1.054   4.833   4.435
 2333SOL    HW1 7535   0.982   4.782   4.472
 2333SOL    HW2 7536   1.116   4.768   4.403
 2334SOL     OW 7537   1.022   3.964   4.690
 2334SOL    HW1 7538   1.016   3.917   4.607
 2334SOL    HW2 7539   1.016   3.897   4.757
 2335SOL     OW 7540   1.722   4.116   5.104
 2335SOL    HW1 7541   1.793   4.180   5.103
 2335SOL    HW2 7542   1.752   4.045   5.048
 2336SOL     OW 7543   0.259   5.059   4.010
 2336SOL    HW1 7544   0.167   5.063   3.986
 2336SOL    HW2 7545   0.262   5.097   4.098
 2337SOL     OW 7546   0.116   4.742   5.443
 2337SOL    HW1 7547   0.045   4.704   5.495
 2337SOL    HW2 7548   0.196   4.709   5.485
 2338SOL     OW 7549   0.674   3.920   5.223
 2338SOL    HW1 7550   0.758   3.900   5.182
 2338SOL    HW2 7551   0.698   3.952   5.311
 2339SOL     OW 7552   0.082   4.074   3.765
 2339SOL    HW1 7553   0.003   4.025   3.742
 2339SOL    HW2 7554   0.098   4.131   3.690
 2340SOL     OW 7555   1.430   4.582   5.124
 2340SOL    HW1 7556   1.381   4.642   5.068
 2340SOL    HW2 7557   1.519   4.584   5.090
 2341SOL     OW 7558   0.056   3.857   3.967
 2341SOL    HW1 7559   0.055   3.952   3.958
 2341SOL    HW2 7560   0.145   3.832   3.945
 2342SOL     OW 7561   1.182   5.064   3.845
 2342SOL    HW1 7562   1.091   5.035   3.845
 2342SOL    HW2 7563   1.210   5.056   3.936
 2343SOL     OW 7564   0.619   4.555   5.160
 2343SOL    HW1 7565   0.676   4.630   5.143
 2343SOL    HW2 7566   0.679   4.481   5.167
 2344SOL     OW 7567   0.717   4.288   5.428
 2344SOL    HW1 7568   0.759   4.350   5.489
 2344SOL    HW2 7569   0.745   4.202   5.460
 2345SOL     OW 7570   1.474   4.923   5.355
 2345SOL    HW1 7571   1.460   4.935   5.449
 2345SOL    HW2 7572   1.567   4.937   5.342
 2346SOL     OW 7573   1.670   4.605   4.979
 2346SOL    HW1 7574   1.663   4.520   4.936
 2346SOL    HW2 7575   1.659   4.669   4.908
 2347SOL     OW 7576   1.217   4.043   4.182
 2347SOL    HW1 7577   1.280   3.972   4.173
 2347SOL    HW2 7578   1.246   4.092   4.259
 2348SOL     OW 7579   0.590   4.461   4.393
 2348SOL    HW1 7580   0.629   4.548   4.378
 2348SOL    HW2 7581   0.521   4.454   4.328
 2349SOL     OW 7582   1.762   4.085   5.374
 2349SOL    HW1 7583   1.745   4.100   5.281
 2349SOL    HW2 7584   1.691   4.029   5.403
 2350SOL     OW 7585   1.745   4.657   5.236
 2350SOL    HW1 7586   1.741   4.752   5.249
 2350SOL    HW2 7587   1.730   4.645   5.142
 2351SOL     OW 7588   0.849   5.094   3.743
 2351SOL    HW1 7589   0.830   5.095   3.837
 2351SOL    HW2 7590   0.866   5.186   3.722
 2352SOL     OW 7591   0.868   4.691   4.578
 2352SOL    HW1 7592   0.917   4.620   4.619
 2352SOL    HW2 7593   0.833   4.741   4.652
 2353SOL     OW 7594   1.080   4.713   3.813
 2353SOL    HW1 7595   1.057   4.763   3.735
 2353SOL    HW2 7596   1.154   4.659   3.787
 2354SOL     OW 7597   0.220   5.025   5.578
 2354SOL    HW1 7598   0.155   4.957   5.559
 2354SOL    HW2 7599   0.217   5.035   5.674
 2355SOL     OW 7600   0.083   4.928   4.379
 2355SOL    HW1 7601   0.101   4.907   4.471
 2355SOL    HW2 7602   0.169   4.941   4.339
 2356SOL     OW 7603   0.671   5.105   5.333
 2356SOL    HW1 7604   0.594   5.073   5.380
 2356SOL    HW2 7605   0.703   5.178   5.387
 2357SOL     OW 7606   1.814   3.909   4.962
 2357SOL    HW1 7607   1.821   3.814   4.977
 2357SOL    HW2 7608   1.823   3.919   4.867
 2358SOL     OW 7609   0.435   4.160   4.248
 2358SOL    HW1 7610   0.462   4.087   4.192
 2358SOL    HW2 7611   0.387   4.118   4.320
 2359SOL     OW 7612   1.707   5.224   4.843
 2359SOL    HW1 7613   1.633   5.207   4.784
 2359SOL    HW2 7614   1.713   5.144   4.896
 2360SOL     OW 7615   0.337   4.283   5.015
 2360SOL    HW1 7616   0.389   4.224   5.069
 2360SOL    HW2 7617   0.350   4.254   4.926
 2361SOL     OW 7618   1.432   3.949   4.843
 2361SOL    HW1 7619   1.455   3.869   4.889
 2361SOL    HW2 7620   1.380   3.999   4.905
 2362SOL     OW 7621   1.009   3.743   4.866
 2362SOL    HW1 7622   0.954   3.675   4.826
 2362SOL    HW2 7623   1.097   3.704   4.868
 2363SOL     OW 7624   0.804   5.047   4.008
 2363SOL    HW1 7625   0.743   4.976   4.027
 2363SOL    HW2 7626   0.857   5.054   4.087
 2364SOL     OW 7627   0.640   0.003   5.011
 2364SOL    HW1 7628   0.643   0.057   5.090
 2364SOL    HW2 7629   0.731   5.285   4.990
 2365SOL     OW 7630   1.352   3.778   3.889
 2365SOL    HW1 7631   1.382   3.713   3.825
 2365SOL    HW2 7632   1.265   3.748   3.915
 2366SOL     OW 7633   1.297   4.185   4.405
 2366SOL    HW1 7634   1.243   4.264   4.412
 2366SOL    HW2 7635   1.292   4.145   4.492
 2367SOL     OW 7636   1.588   3.927   4.603
 2367SOL    HW1 7637   1.526   3.947   4.673
 2367SOL    HW2 7638   1.586   4.004   4.547
 2368SOL     OW 7639   0.047   4.790   4.014
 2368SOL    HW1 7640   0.137   4.759   4.004
 2368SOL    HW2 7641   0.000   4.716   4.052
 2369SOL     OW 7642   0.233   4.356   5.702
 2369SOL    HW1 7643   0.160   4.323   5.753
 2369SOL    HW2 7644   0.218   4.321   5.614
 2370SOL     OW 7645   0.242   3.999   6.576
 2370SOL    HW1 7646   0.256   3.965   6.664
 2370SOL    HW2 7647   0.158   3.963   6.548
 2371SOL     OW 7648   5.298   4.122   6.239
 2371SOL    HW1 7649   5.205   4.144   6.245
 2371SOL    HW2 7650   5.299   4.031   6.208
 2372SOL     OW 7651   0.574   5.000   6.770
 2372SOL    HW1 7652   0.494   5.006   6.716
 2372SOL    HW2 7653   0.592   5.090   6.796
 2373SOL     OW 7654   1.555   5.232   6.275
 2373SOL    HW1 7655   1.536   5.228   6.368
 2373SOL    HW2 7656   1.476   5.268   6.235
 2374SOL     OW 7657   1.130   4.422   6.287
 2374SOL    HW1 7658   1.179   4.503   6.273
 2374SOL    HW2 7659   1.083   4.436   6.369
 2375SOL     OW 7660   1.767   4.329   5.814
 2375SOL    HW1 7661   1.746   4.321   5.721
 2375SOL    HW2 7662   1.731   4.250   5.854
 2376SOL     OW 7663   0.758   4.867   6.623
 2376SOL    HW1 7664   0.691   4.897   6.685
 2376SOL    HW2 7665   0.786   4.947   6.578
 2377SOL     OW 7666   0.866   4.501   7.406
 2377SOL    HW1 7667   0.853   4.576   7.464
 2377SOL    HW2 7668   0.891   4.539   7.322
 2378SOL     OW 7669   0.686   4.726   6.234
 2378SOL    HW1 7670   0.751   4.715   6.303
 2378SOL    HW2 7671   0.618   4.781   6.274
 2379SOL     OW 7672   0.708   4.872   7.398
 2379SOL    HW1 7673   0.756   4.951   7.421
 2379SOL    HW2 7674   0.625   4.905   7.362
 2380SOL     OW 7675   0.377   5.146   6.639
 2380SOL    HW1 7676   0.283   5.155   6.627
 2380SOL    HW2 7677   0.416   5.198   6.569
 2381SOL     OW 7678   1.455   5.220   6.933
 2381SOL    HW1 7679   1.509   5.293   6.965
 2381SOL    HW2 7680   1.388   5.210   7.001
 2382SOL     OW 7681   0.451   4.124   7.079
 2382SOL    HW1 7682   0.525   4.064   7.081
 2382SOL    HW2 7683   0.374   4.068   7.089
 2383SOL     OW 7684   1.612   4.172   6.326
 2383SOL    HW1 7685   1.537   4.194   6.272
 2383SOL    HW2 7686   1.627   4.250   6.380
 2384SOL     OW 7687   1.133   5.072   7.286
 2384SOL    HW1 7688   1.165   5.071   7.376
 2384SOL    HW2 7689   1.079   4.993   7.279
 2385SOL     OW 7690   0.212   5.151   6.118
 2385SOL    HW1 7691   0.251   5.231   6.154
 2385SOL    HW2 7692   0.132   5.138   6.169
 2386SOL     OW 7693   0.252   4.799   6.462
 2386SOL    HW1 7694   0.264   4.712   6.500
 2386SOL    HW2 7695   0.196   4.846   6.523
 2387SOL     OW 7696   0.583   4.707   5.721
 2387SOL    HW1 7697   0.630   4.754   5.652
 2387SOL    HW2 7698   0.623   4.736   5.803
 2388SOL     OW 7699   1.596   3.847   7.054
 2388SOL    HW1 7700   1.603   3.928   7.003
 2388SOL    HW2 7701   1.582   3.877   7.144
 2389SOL     OW 7702   0.127   4.356   6.164
 2389SOL    HW1 7703   0.088   4.274   6.195
 2389SOL    HW2 7704   0.099   4.421   6.229
 2390SOL     OW 7705   5.299   5.299   5.668
 2390SOL    HW1 7706   0.015   5.211   5.702
 2390SOL    HW2 7707   0.026   0.058   5.739
 2391SOL     OW 7708   1.689   4.642   6.226
 2391SOL    HW1 7709   1.772   4.600   6.206
 2391SOL    HW2 7710   1.667   4.693   6.148
 2392SOL     OW 7711   1.646   4.831   6.015
 2392SOL    HW1 7712   1.731   4.836   5.973
 2392SOL    HW2 7713   1.652   4.892   6.089
 2393SOL     OW 7714   0.131   4.470   7.174
 2393SOL    HW1 7715   0.225   4.485   7.173
 2393SOL    HW2 7716   0.093   4.558   7.184
 2394SOL     OW 7717   0.626   5.096   6.322
 2394SOL    HW1 7718   0.570   5.019   6.321
 2394SOL    HW2 7719   0.601   5.145   6.243
 2395SOL     OW 7720   1.289   4.954   7.012
 2395SOL    HW1 7721   1.323   4.889   6.951
 2395SOL    HW2 7722   1.349   4.951   7.086
 2396SOL     OW 7723   0.823   3.723   6.096
 2396SOL    HW1 7724   0.863   3.808   6.076
 2396SOL    HW2 7725   0.729   3.742   6.102
 2397SOL     OW 7726   0.176   4.667   6.868
 2397SOL    HW1 7727   0.266   4.637   6.855
 2397SOL    HW2 7728   0.134   4.656   6.783
 2398SOL     OW 7729   1.531   4.719   5.783
 2398SOL    HW1 7730   1.461   4.661   5.815
 2398SOL    HW2 7731   1.572   4.753   5.863
 2399SOL     OW 7732   0.337   3.976   7.402
 2399SOL    HW1 7733   0.384   4.059   7.415
 2399SOL    HW2 7734   0.250   3.993   7.437
 2400SOL     OW 7735   1.477   5.147   6.548
 2400SOL    HW1 7736   1.404   5.159   6.609
 2400SOL    HW2 7737   1.464   5.058   6.514
 2401SOL     OW 7738   0.596   4.445   5.852
 2401SOL    HW1 7739   0.603   4.526   5.802
 2401SOL    HW2 7740   0.531   4.465   5.920
 2402SOL     OW 7741   1.279   4.077   6.518
 2402SOL    HW1 7742   1.190   4.044   6.527
 2402SOL    HW2 7743   1.330   4.024   6.580
 2403SOL     OW 7744   0.791   4.342   7.038
 2403SOL    HW1 7745   0.765   4.317   7.126
 2403SOL    HW2 7746   0.752   4.275   6.982
 2404SOL     OW 7747   1.394   4.198   7.263
 2404SOL    HW1 7748   1.396   4.242   7.348
 2404SOL    HW2 7749   1.454   4.125   7.273
 2405SOL     OW 7750   0.955   4.612   7.168
 2405SOL    HW1 7751   1.009   4.541   7.133
 2405SOL    HW2 7752   0.907   4.645   7.093
 2406SOL     OW 7753   0.992   4.137   6.824
 2406SOL    HW1 7754   0.906   4.157   6.861
 2406SOL    HW2 7755   0.973   4.090   6.743
 2407SOL     OW 7756   1.051   4.423   6.012
 2407SOL    HW1 7757   1.067   4.415   6.106
 2407SOL    HW2 7758   0.969   4.376   5.998
 2408SOL     OW 7759   0.072   4.510   6.396
 2408SOL    HW1 7760   0.153   4.515   6.447
 2408SOL    HW2 7761   0.061   4.597   6.359
 2409SOL     OW 7762   0.893   4.073   5.780
 2409SOL    HW1 7763   0.933   4.134   5.719
 2409SOL    HW2 7764   0.908   3.987   5.741
 2410SOL     OW 7765   1.709   4.300   7.415
 2410SOL    HW1 7766   1.671   4.373   7.367
 2410SOL    HW2 7767   1.736   4.238   7.347
 2411SOL     OW 7768   1.377   4.864   6.125
 2411SOL    HW1 7769   1.459   4.850   6.077
 2411SOL    HW2 7770   1.327   4.925   6.071
 2412SOL     OW 7771   0.556   3.907   6.479
 2412SOL    HW1 7772   0.553   3.935   6.571
 2412SOL    HW2 7773   0.551   3.988   6.429
 2413SOL     OW 7774   1.023   5.169   6.057
 2413SOL    HW1 7775   0.946   5.225   6.052
 2413SOL    HW2 7776   1.038   5.157   6.150
 2414SOL     OW 7777   1.800   4.781   6.452
 2414SOL    HW1 7778   1.744   4.763   6.377
 2414SOL    HW2 7779   1.740   4.788   6.527
 2415SOL     OW 7780   1.250   5.240   7.110
 2415SOL    HW1 7781   1.214   5.173   7.168
 2415SOL    HW2 7782   1.179   5.260   7.049
 2416SOL     OW 7783   0.316   4.676   5.833
 2416SOL    HW1 7784   0.398   4.698   5.789
 2416SOL    HW2 7785   0.293   4.590   5.798
 2417SOL     OW 7786   1.478   4.467   6.313
 2417SOL    HW1 7787   1.470   4.423   6.398
 2417SOL    HW2 7788   1.556   4.522   6.322
 2418SOL     OW 7789   0.462   4.988   7.330
 2418SOL    HW1 7790   0.437   4.991   7.237
 2418SOL    HW2 7791   0.379   4.988   7.378
 2419SOL     OW 7792   1.067   0.179   5.793
 2419SOL    HW1 7793   1.081   0.106   5.853
 2419SOL    HW2 7794   1.104   0.149   5.710
 2420SOL     OW 7795   0.205   4.004   7.084
 2420SOL    HW1 7796   0.125   4.055   7.066
 2420SOL    HW2 7797   0.173   3.924   7.126
 2421SOL     OW 7798   1.622   5.101   5.694
 2421SOL    HW1 7799   1.621   5.176   5.635
 2421SOL    HW2 7800   1.554   5.043   5.660
 2422SOL     OW 7801   1.401   3.832   6.019
 2422SOL    HW1 7802   1.391   3.807   5.927
 2422SOL    HW2 7803   1.496   3.838   6.032
 2423SOL     OW 7804   0.386   4.420   6.065
 2423SOL    HW1 7805   0.415   4.329   6.074
 2423SOL    HW2 7806   0.293   4.417   6.085
 2424SOL     OW 7807   1.535   3.949   7.311
 2424SOL    HW1 7808   1.544   3.970   7.404
 2424SOL    HW2 7809   1.467   3.882   7.309
 2425SOL     OW 7810   0.634   3.847   5.691
 2425SOL    HW1 7811   0.704   3.782   5.703
 2425SOL    HW2 7812   0.585   3.815   5.615
 2426SOL     OW 7813   0.766   4.001   7.339
 2426SOL    HW1 7814   0.842   3.943   7.341
 2426SOL    HW2 7815   0.722   3.986   7.423
 2427SOL     OW 7816   1.340   4.313   7.018
 2427SOL    HW1 7817   1.371   4.281   7.103
 2427SOL    HW2 7818   1.377   4.401   7.010
 2428SOL     OW 7819   0.814   5.120   6.522
 2428SOL    HW1 7820   0.894   5.105   6.472
 2428SOL    HW2 7821   0.745   5.126   6.455
 2429SOL     OW 7822   0.928   4.234   6.489
 2429SOL    HW1 7823   0.904   4.225   6.396
 2429SOL    HW2 7824   0.959   4.147   6.514
 2430SOL     OW 7825   0.560   3.785   6.082
 2430SOL    HW1 7826   0.485   3.785   6.141
 2430SOL    HW2 7827   0.550   3.865   6.030
 2431SOL     OW 7828   1.428   4.924   5.624
 2431SOL    HW1 7829   1.458   4.848   5.675
 2431SOL    HW2 7830   1.340   4.941   5.658
 2432SOL     OW 7831   0.305   3.771   5.765
 2432SOL    HW1 7832   0.367   3.835   5.730
 2432SOL    HW2 7833   0.360   3.706   5.810
 2433SOL     OW 7834   0.939   3.971   6.046
 2433SOL    HW1 7835   0.912   4.012   5.964
 2433SOL    HW2 7836   1.034   3.985   6.050
 2434SOL     OW 7837   1.080   4.405   7.046
 2434SOL    HW1 7838   1.011   4.338   7.050
 2434SOL    HW2 7839   1.161   4.355   7.039
 2435SOL     OW 7840   1.264   5.267   6.364
 2435SOL    HW1 7841   1.221   0.048   6.337
 2435SOL    HW2 7842   1.308   5.289   6.446
 2436SOL     OW 7843   0.465   4.873   6.314
 2436SOL    HW1 7844   0.397   4.853   6.378
 2436SOL    HW2 7845   0.425   4.853   6.230
 2437SOL     OW 7846   1.023   4.266   5.609
 2437SOL    HW1 7847   0.981   4.349   5.589
 2437SOL    HW2 7848   1.089   4.287   5.675
 2438SOL     OW 7849   0.088   4.268   6.985
 2438SOL    HW1 7850   0.175   4.276   6.947
 2438SOL    HW2 7851   0.079   4.345   7.042
 2439SOL     OW 7852   0.560   3.952   6.752
 2439SOL    HW1 7853   0.598   3.872   6.789
 2439SOL    HW2 7854   0.469   3.950   6.780
 2440SOL     OW 7855   0.868   4.183   6.225
 2440SOL    HW1 7856   0.822   4.237   6.161
 2440SOL    HW2 7857   0.889   4.103   6.178
 2441SOL     OW 7858   1.015   3.777   6.337
 2441SOL    HW1 7859   0.957   3.769   6.262
 2441SOL    HW2 7860   0.994   3.702   6.392
 2442SOL     OW 7861   1.437   4.890   6.445
 2442SOL    HW1 7862   1.371   4.821   6.441
 2442SOL    HW2 7863   1.463   4.903   6.353
 2443SOL     OW 7864   1.466   4.329   6.563
 2443SOL    HW1 7865   1.416   4.248   6.566
 2443SOL    HW2 7866   1.526   4.323   6.637
 2444SOL     OW 7867   1.845   4.540   5.969
 2444SOL    HW1 7868   1.902   4.488   6.027
 2444SOL    HW2 7869   1.817   4.477   5.902
 2445SOL     OW 7870   0.483   5.144   5.739
 2445SOL    HW1 7871   0.420   5.094   5.791
 2445SOL    HW2 7872   0.482   5.102   5.653
 2446SOL     OW 7873   1.669   4.987   6.233
 2446SOL    HW1 7874   1.763   4.993   6.250
 2446SOL    HW2 7875   1.636   5.075   6.249
 2447SOL     OW 7876   1.394   4.296   5.657
 2447SOL    HW1 7877   1.333   4.276   5.729
 2447SOL    HW2 7878   1.478   4.263   5.689
 2448SOL     OW 7879   0.524   3.987   5.903
 2448SOL    HW1 7880   0.569   3.940   5.833
 2448SOL    HW2 7881   0.502   4.072   5.864
 2449SOL     OW 7882   1.751   4.959   7.161
 2449SOL    HW1 7883   1.837   4.918   7.161
 2449SOL    HW2 7884   1.769   5.052   7.174
 2450SOL     OW 7885   1.064   5.075   6.917
 2450SOL    HW1 7886   0.986   5.049   6.965
 2450SOL    HW2 7887   1.137   5.035   6.966
 2451SOL     OW 7888   1.127   4.926   6.694
 2451SOL    HW1 7889   1.076   4.967   6.764
 2451SOL    HW2 7890   1.081   4.951   6.613
 2452SOL     OW 7891   1.629   4.822   6.663
 2452SOL    HW1 7892   1.624   4.884   6.736
 2452SOL    HW2 7893   1.550   4.841   6.611
 2453SOL     OW 7894   0.918   3.821   6.983
 2453SOL    HW1 7895   0.941   3.802   6.891
 2453SOL    HW2 7896   0.997   3.860   7.019
 2454SOL     OW 7897   0.985   4.838   7.313
 2454SOL    HW1 7898   0.892   4.855   7.329
 2454SOL    HW2 7899   0.985   4.762   7.255
 2455SOL     OW 7900   0.703   4.781   5.959
 2455SOL    HW1 7901   0.693   4.766   6.053
 2455SOL    HW2 7902   0.781   4.731   5.935
 2456SOL     OW 7903   0.421   4.543   6.838
 2456SOL    HW1 7904   0.490   4.549   6.904
 2456SOL    HW2 7905   0.386   4.454   6.848
 2457SOL     OW 7906   1.265   4.101   6.861
 2457SOL    HW1 7907   1.298   4.178   6.907
 2457SOL    HW2 7908   1.175   4.123   6.838
 2458SOL     OW 7909   0.113   5.291   6.904
 2458SOL    HW1 7910   0.051   0.047   6.950
 2458SOL    HW2 7911   0.190   5.287   6.961
 2459SOL     OW 7912   0.344   4.828   6.073
 2459SOL    HW1 7913   0.350   4.907   6.018
 2459SOL    HW2 7914   0.351   4.756   6.011
 2460SOL     OW 7915   0.554   4.260   6.445
 2460SOL    HW1 7916   0.570   4.319   6.371
 2460SOL    HW2 7917   0.619   4.287   6.511
 2461SOL     OW 7918   1.260   5.077   5.971
 2461SOL    HW1 7919   1.317   5.144   6.010
 2461SOL    HW2 7920   1.172   5.099   6.001
 2462SOL     OW 7921   1.269   5.182   6.727
 2462SOL    HW1 7922   1.328   5.195   6.801
 2462SOL    HW2 7923   1.225   5.099   6.747
 2463SOL     OW 7924   1.581   4.347   6.065
 2463SOL    HW1 7925   1.535   4.400   6.129
 2463SOL    HW2 7926   1.627   4.410   6.009
 2464SOL     OW 7927   0.382   5.230   6.902
 2464SOL    HW1 7928   0.364   5.192   6.816
 2464SOL    HW2 7929   0.474   5.256   6.898
 2465SOL     OW 7930   0.414   4.467   7.188
 2465SOL    HW1 7931   0.475   4.513   7.130
 2465SOL    HW2 7932   0.452   4.380   7.200
 2466SOL     OW 7933   1.601   4.503   7.268
 2466SOL    HW1 7934   1.515   4.544   7.261
 2466SOL    HW2 7935   1.654   4.545   7.200
 2467SOL     OW 7936   0.996   3.848   7.340
 2467SOL    HW1 7937   1.052   3.920   7.312
 2467SOL    HW2 7938   1.044   3.769   7.316
 2468SOL     OW 7939   0.498   3.765   7.333
 2468SOL    HW1 7940   0.456   3.711   7.267
 2468SOL    HW2 7941   0.439   3.839   7.345
 2469SOL     OW 7942   0.586   4.597   6.618
 2469SOL    HW1 7943   0.614   4.688   6.616
 2469SOL    HW2 7944   0.529   4.591   6.695
 2470SOL     OW 7945   1.357   4.582   6.614
 2470SOL    HW1 7946   1.274   4.572   6.569
 2470SOL    HW2 7947   1.398   4.496   6.609
 2471SOL     OW 7948   1.205   4.253   5.853
 2471SOL    HW1 7949   1.213   4.174   5.907
 2471SOL    HW2 7950   1.162   4.317   5.909
 2472SOL     OW 7951   0.302   3.927   6.834
 2472SOL    HW1 7952   0.267   3.952   6.920
 2472SOL    HW2 7953   0.289   3.833   6.829
 2473SOL     OW 7954   0.044   5.022   6.862
 2473SOL    HW1 7955   0.074   4.972   6.938
 2473SOL    HW2 7956   0.044   5.113   6.891
 2474SOL     OW 7957   0.725   4.355   6.644
 2474SOL    HW1 7958   0.799   4.339   6.586
 2474SOL    HW2 7959   0.696   4.444   6.623
 2475SOL     OW 7960   1.735   4.684   7.438
 2475SOL    HW1 7961   1.688   4.622   7.382
 2475SOL    HW2 7962   1.677   4.698   7.513
 2476SOL     OW 7963   0.328   3.786   6.220
 2476SOL    HW1 7964   0.307   3.875   6.248
 2476SOL    HW2 7965   0.332   3.736   6.302
 2477SOL     OW 7966   1.616   4.098   5.953
 2477SOL    HW1 7967   1.644   4.034   6.018
 2477SOL    HW2 7968   1.594   4.176   6.003
 2478SOL     OW 7969   1.028   4.483   6.547
 2478SOL    HW1 7970   1.024   4.501   6.641
 2478SOL    HW2 7971   1.001   4.392   6.538
 2479SOL     OW 7972   1.854   5.213   7.170
 2479SOL    HW1 7973   1.848   5.289   7.111
 2479SOL    HW2 7974   1.924   5.236   7.231
 2480SOL     OW 7975   0.354   4.641   7.393
 2480SOL    HW1 7976   0.436   4.660   7.439
 2480SOL    HW2 7977   0.378   4.577   7.326
 2481SOL     OW 7978   1.529   3.997   5.713
 2481SOL    HW1 7979   1.464   3.932   5.740
 2481SOL    HW2 7980   1.562   4.033   5.796
 2482SOL     OW 7981   1.292   4.550   5.617
 2482SOL    HW1 7982   1.335   4.465   5.621
 2482SOL    HW2 7983   1.323   4.589   5.535
 2483SOL     OW 7984   1.058   5.079   6.412
 2483SOL    HW1 7985   1.063   4.993   6.369
 2483SOL    HW2 7986   1.145   5.117   6.399
 2484SOL     OW 7987   0.314   4.533   6.535
 2484SOL    HW1 7988   0.409   4.550   6.531
 2484SOL    HW2 7989   0.308   4.443   6.567
 2485SOL     OW 7990   0.335   4.250   6.601
 2485SOL    HW1 7991   0.300   4.162   6.587
 2485SOL    HW2 7992   0.410   4.255   6.542
 2486SOL     OW 7993   1.135   4.100   7.267
 2486SOL    HW1 7994   1.087   4.155   7.329
 2486SOL    HW2 7995   1.222   4.138   7.263
 2487SOL     OW 7996   1.161   3.926   7.055
 2487SOL    HW1 7997   1.150   3.989   7.127
 2487SOL    HW2 7998   1.200   3.977   6.985
 2488SOL     OW 7999   0.002   5.048   5.793
 2488SOL    HW1 8000   5.226   5.036   5.737
 2488SOL    HW2 8001   0.014   4.963   5.836
 2489SOL     OW 8002   0.982   4.516   6.813
 2489SOL    HW1 8003   1.039   4.493   6.887
 2489SOL    HW2 8004   0.898   4.477   6.834
 2490SOL     OW 8005   0.033   4.284   6.702
 2490SOL    HW1 8006   0.119   4.260   6.668
 2490SOL    HW2 8007   0.037   4.267   6.796
 2491SOL     OW 8008   0.175   4.236   7.302
 2491SOL    HW1 8009   0.237   4.197   7.241
 2491SOL    HW2 8010   0.146   4.317   7.259
 2492SOL     OW 8011   1.376   4.663   7.245
 2492SOL    HW1 8012   1.397   4.756   7.242
 2492SOL    HW2 8013   1.373   4.636   7.153
 2493SOL     OW 8014   0.816   4.293   5.946
 2493SOL    HW1 8015   0.821   4.218   5.886
 2493SOL    HW2 8016   0.742   4.345   5.914
 2494SOL     OW 8017   1.642   4.325   6.772
 2494SOL    HW1 8018   1.632   4.266   6.846
 2494SOL    HW2 8019   1.729   4.306   6.738
 2495SOL     OW 8020   0.209   5.279   7.318
 2495SOL    HW1 8021   0.162   0.018   7.392
 2495SOL    HW2 8022   0.215   5.186   7.340
 2496SOL     OW 8023   0.701   4.174   6.846
 2496SOL    HW1 8024   0.649   4.100   6.816
 2496SOL    HW2 8025   0.697   4.237   6.774
 2497SOL     OW 8026   0.465   4.217   5.771
 2497SOL    HW1 8027   0.525   4.289   5.793
 2497SOL    HW2 8028   0.380   4.260   5.759
 2498SOL     OW 8029   0.151   4.861   7.058
 2498SOL    HW1 8030   0.147   4.812   7.140
 2498SOL    HW2 8031   0.161   4.794   6.990
 2499SOL     OW 8032   1.327   4.769   6.808
 2499SOL    HW1 8033   1.350   4.707   6.740
 2499SOL    HW2 8034   1.256   4.822   6.771
 2500SOL     OW 8035   1.310   4.582   5.892
 2500SOL    HW1 8036   1.235   4.550   5.942
 2500SOL    HW2 8037   1.286   4.567   5.801
 2501SOL     OW 8038   0.075   4.918   6.616
 2501SOL    HW1 8039   0.065   4.959   6.702
 2501SOL    HW2 8040   5.289   4.924   6.576
 2502SOL     OW 8041   0.751   0.036   7.296
 2502SOL    HW1 8042   0.659   0.060   7.305
 2502SOL    HW2 8043   0.775   0.061   7.207
 2503SOL     OW 8044   1.719   3.871   6.095
 2503SOL    HW1 8045   1.792   3.856   6.035
 2503SOL    HW2 8046   1.703   3.785   6.136
 2504SOL     OW 8047   1.277   4.650   6.258
 2504SOL    HW1 8048   1.350   4.588   6.265
 2504SOL    HW2 8049   1.312   4.721   6.204
 2505SOL     OW 8050   0.818   4.993   7.006
 2505SOL    HW1 8051   0.788   5.029   7.089
 2505SOL    HW2 8052   0.743   5.001   6.947
 2506SOL     OW 8053   1.841   3.897   6.553
 2506SOL    HW1 8054   1.870   3.810   6.526
 2506SOL    HW2 8055   1.754   3.907   6.513
 2507SOL     OW 8056   0.273   4.041   6.303
 2507SOL    HW1 8057   0.188   4.080   6.283
 2507SOL    HW2 8058   0.271   4.030   6.398
 2508SOL     OW 8059   0.824   4.727   6.957
 2508SOL    HW1 8060   0.870   4.720   6.873
 2508SOL    HW2 8061   0.828   4.821   6.978
 2509SOL     OW 8062   0.915   4.636   5.876
 2509SOL    HW1 8063   0.977   4.668   5.810
 2509SOL    HW2 8064   0.963   4.566   5.921
 2510SOL     OW 8065   0.365   5.029   7.087
 2510SOL    HW1 8066   0.366   5.098   7.021
 2510SOL    HW2 8067   0.291   4.973   7.063
 2511SOL     OW 8068   1.612   5.004   6.868
 2511SOL    HW1 8069   1.669   4.997   6.945
 2511SOL    HW2 8070   1.550   5.073   6.891
 2512SOL     OW 8071   1.054   4.833   6.297
 2512SOL    HW1 8072   0.982   4.782   6.334
 2512SOL    HW2 8073   1.116   4.768   6.265
 2513SOL     OW 8074   1.021   3.964   6.552
 2513SOL    HW1 8075   1.016   3.917   6.469
 2513SOL    HW2 8076   1.016   3.897   6.619
 2514SOL     OW 8077   1.722   4.116   6.967
 2514SOL    HW1 8078   1.794   4.179   6.965
 2514SOL    HW2 8079   1.752   4.045   6.910
 2515SOL     OW 8080   0.259   5.059   5.872
 2515SOL    HW1 8081   0.167   5.063   5.848
 2515SOL    HW2 8082   0.262   5.097   5.960
 2516SOL     OW 8083   0.116   4.742   7.305
 2516SOL    HW1 8084   0.045   4.705   7.357
 2516SOL    HW2 8085   0.196   4.709   7.347
 2517SOL     OW 8086   0.674   3.920   7.085
 2517SOL    HW1 8087   0.758   3.900   7.044
 2517SOL    HW2 8088   0.697   3.950   7.173
 2518SOL     OW 8089   0.082   4.074   5.627
 2518SOL    HW1 8090   0.003   4.025   5.603
 2518SOL    HW2 8091   0.098   4.131   5.552
 2519SOL     OW 8092   1.430   4.582   6.987
 2519SOL    HW1 8093   1.381   4.643   6.931
 2519SOL    HW2 8094   1.519   4.584   6.952
 2520SOL     OW 8095   0.056   3.857   5.829
 2520SOL    HW1 8096   0.055   3.952   5.820
 2520SOL    HW2 8097   0.145   3.832   5.807
 2521SOL     OW 8098   1.182   5.064   5.707
 2521SOL    HW1 8099   1.091   5.035   5.707
 2521SOL    HW2 8100   1.210   5.056   5.798
 2522SOL     OW 8101   0.619   4.555   7.022
 2522SOL    HW1 8102   0.676   4.630   7.005
 2522SOL    HW2 8103   0.679   4.481   7.029
 2523SOL     OW 8104   0.717   4.288   7.291
 2523SOL    HW1 8105   0.758   4.349   7.352
 2523SOL    HW2 8106   0.745   4.201   7.322
 2524SOL     OW 8107   1.473   4.923   7.218
 2524SOL    HW1 8108   1.460   4.935   7.312
 2524SOL    HW2 8109   1.567   4.936   7.204
 2525SOL     OW 8110   1.669   4.605   6.841
 2525SOL    HW1 8111   1.663   4.520   6.799
 2525SOL    HW2 8112   1.659   4.669   6.770
 2526SOL     OW 8113   1.217   4.043   6.044
 2526SOL    HW1 8114   1.280   3.972   6.035
 2526SOL    HW2 8115   1.246   4.092   6.121
 2527SOL     OW 8116   0.590   4.461   6.255
 2527SOL    HW1 8117   0.629   4.548   6.240
 2527SOL    HW2 8118   0.521   4.454   6.190
 2528SOL     OW 8119   1.762   4.086   7.238
 2528SOL    HW1 8120   1.745   4.101   7.144
 2528SOL    HW2 8121   1.690   4.029   7.265
 2529SOL     OW 8122   1.745   4.657   7.098
 2529SOL    HW1 8123   1.740   4.752   7.111
 2529SOL    HW2 8124   1.729   4.645   7.004
 2530SOL     OW 8125   0.849   5.094   5.605
 2530SOL    HW1 8126   0.830   5.095   5.699
 2530SOL    HW2 8127   0.866   5.186   5.584
 2531SOL     OW 8128   0.868   4.691   6.440
 2531SOL    HW1 8129   0.917   4.620   6.481
 2531SOL    HW2 8130   0.833   4.741   6.514
 2532SOL     OW 8131   1.080   4.713   5.676
 2532SOL    HW1 8132   1.057   4.763   5.597
 2532SOL    HW2 8133   1.154   4.659   5.649
 2533SOL     OW 8134   0.219   5.024   7.442
 2533SOL    HW1 8135   0.155   4.957   7.420
 2533SOL    HW2 8136   0.210   5.036   7.537
 2534SOL     OW 8137   0.082   4.929   6.241
 2534SOL    HW1 8138   0.102   4.907   6.333
 2534SOL    HW2 8139   0.168   4.941   6.201
 2535SOL     OW 8140   0.671   5.104   7.195
 2535SOL    HW1 8141   0.594   5.073   7.242
 2535SOL    HW2 8142   0.703   5.178   7.248
 2536SOL     OW 8143   1.813   3.909   6.824
 2536SOL    HW1 8144   1.823   3.815   6.838
 2536SOL    HW2 8145   1.822   3.919   6.729
 2537SOL     OW 8146   0.435   4.160   6.110
 2537SOL    HW1 8147   0.462   4.087   6.054
 2537SOL    HW2 8148   0.387   4.118   6.182
 2538SOL     OW 8149   1.707   5.224   6.705
 2538SOL    HW1 8150   1.633   5.207   6.646
 2538SOL    HW2 8151   1.713   5.144   6.758
 2539SOL     OW 8152   0.337   4.283   6.878
 2539SOL    HW1 8153   0.390   4.224   6.931
 2539SOL    HW2 8154   0.350   4.254   6.788
 2540SOL     OW 8155   1.432   3.949   6.704
 2540SOL    HW1 8156   1.457   3.869   6.750
 2540SOL    HW2 8157   1.380   3.998   6.768
 2541SOL     OW 8158   1.009   3.743   6.728
 2541SOL    HW1 8159   0.954   3.675   6.688
 2541SOL    HW2 8160   1.097   3.705   6.730
 2542SOL     OW 8161   0.804   5.047   5.870
 2542SOL    HW1 8162   0.743   4.976   5.889
 2542SOL    HW2 8163   0.857   5.054   5.949
 2543SOL     OW 8164   0.640   0.003   6.873
 2543SOL    HW1 8165   0.644   0.057   6.952
 2543SOL    HW2 8166   0.731   5.285   6.851
 2544SOL     OW 8167   1.352   3.778   5.751
 2544SOL    HW1 8168   1.381   3.714   5.686
 2544SOL    HW2 8169   1.265   3.748   5.777
 2545SOL     OW 8170   1.297   4.185   6.267
 2545SOL    HW1 8171   1.243   4.264   6.274
 2545SOL    HW2 8172   1.293   4.145   6.354
 2546SOL     OW 8173   1.587   3.926   6.464
 2546SOL    HW1 8174   1.526   3.946   6.535
 2546SOL    HW2 8175   1.586   4.004   6.409
 2547SOL     OW 8176   0.047   4.790   5.876
 2547SOL    HW1 8177   0.137   4.759   5.866
 2547SOL    HW2 8178   0.000   4.716   5.914
 2548SOL     OW 8179   0.229   4.355   7.566
 2548SOL    HW1 8180   0.155   4.314   7.611
 2548SOL    HW2 8181   0.222   4.325   7.476
 2549SOL     OW 8182   1.767   4.322   7.679
 2549SOL    HW1 8183   1.747   4.318   7.586
 2549SOL    HW2 8184   1.726   4.244   7.716
 2550SOL     OW 8185   0.280   0.133   7.958
 2550SOL    HW1 8186   0.242   0.210   8.000
 2550SOL    HW2 8187   0.287   0.157   7.865
 2551SOL     OW 8188   0.226   5.158   7.990
 2551SOL    HW1 8189   0.234   5.253   7.994
 2551SOL    HW2 8190   0.156   5.137   8.053
 2552SOL     OW 8191   0.582   4.707   7.581
 2552SOL    HW1 8192   0.629   4.755   7.512
 2552SOL    HW2 8193   0.623   4.737   7.662
 2553SOL     OW 8194   0.002   5.298   7.523
 2553SOL    HW1 8195   0.016   5.211   7.561
 2553SOL    HW2 8196   0.020   0.058   7.596
 2554SOL     OW 8197   1.682   4.591   8.034
 2554SOL    HW1 8198   1.762   4.601   0.006
 2554SOL    HW2 8199   1.671   4.675   7.990
 2555SOL     OW 8200   1.656   4.825   7.876
 2555SOL    HW1 8201   1.744   4.844   7.844
 2555SOL    HW2 8202   1.636   4.896   7.937
 2556SOL     OW 8203   0.799   3.719   7.938
 2556SOL    HW1 8204   0.849   3.799   7.922
 2556SOL    HW2 8205   0.709   3.748   7.948
 2557SOL     OW 8206   1.532   4.721   7.648
 2557SOL    HW1 8207   1.466   4.661   7.682
 2557SOL    HW2 8208   1.576   4.754   7.726
 2558SOL     OW 8209   0.589   4.447   7.708
 2558SOL    HW1 8210   0.596   4.529   7.659
 2558SOL    HW2 8211   0.534   4.469   7.783
 2559SOL     OW 8212   0.053   4.542   0.202
 2559SOL    HW1 8213   0.124   4.487   0.166
 2559SOL    HW2 8214   0.031   4.602   0.132
 2560SOL     OW 8215   0.882   4.071   7.637
 2560SOL    HW1 8216   0.927   4.131   7.577
 2560SOL    HW2 8217   0.916   3.984   7.614
 2561SOL     OW 8218   0.318   4.672   7.693
 2561SOL    HW1 8219   0.399   4.698   7.650
 2561SOL    HW2 8220   0.295   4.588   7.653
 2562SOL     OW 8221   1.084   0.192   7.646
 2562SOL    HW1 8222   1.067   0.125   7.712
 2562SOL    HW2 8223   1.094   0.143   7.565
 2563SOL     OW 8224   1.626   5.100   7.551
 2563SOL    HW1 8225   1.613   5.179   7.499
 2563SOL    HW2 8226   1.557   5.041   7.522
 2564SOL     OW 8227   1.416   3.855   7.864
 2564SOL    HW1 8228   1.404   3.821   7.776
 2564SOL    HW2 8229   1.510   3.853   7.878
 2565SOL     OW 8230   0.379   4.424   7.922
 2565SOL    HW1 8231   0.399   4.330   7.927
 2565SOL    HW2 8232   0.286   4.430   7.940
 2566SOL     OW 8233   0.628   3.843   7.559
 2566SOL    HW1 8234   0.704   3.786   7.568
 2566SOL    HW2 8235   0.585   3.813   7.479
 2567SOL     OW 8236   0.527   3.799   7.961
 2567SOL    HW1 8237   0.440   3.804   8.000
 2567SOL    HW2 8238   0.528   3.869   7.896
 2568SOL     OW 8239   1.428   4.925   7.488
 2568SOL    HW1 8240   1.458   4.850   7.539
 2568SOL    HW2 8241   1.340   4.943   7.521
 2569SOL     OW 8242   0.306   3.768   7.619
 2569SOL    HW1 8243   0.368   3.832   7.584
 2569SOL    HW2 8244   0.361   3.705   7.667
 2570SOL     OW 8245   0.944   3.949   7.911
 2570SOL    HW1 8246   0.900   4.014   7.855
 2570SOL    HW2 8247   1.035   3.979   7.914
 2571SOL     OW 8248   0.448   4.884   0.089
 2571SOL    HW1 8249   0.376   4.902   0.149
 2571SOL    HW2 8250   0.405   4.864   0.006
 2572SOL     OW 8251   1.025   4.266   7.467
 2572SOL    HW1 8252   0.981   4.349   7.450
 2572SOL    HW2 8253   1.086   4.286   7.539
 2573SOL     OW 8254   1.871   4.540   7.801
 2573SOL    HW1 8255   1.868   4.512   7.893
 2573SOL    HW2 8256   1.831   4.469   7.752
 2574SOL     OW 8257   0.477   5.147   7.601
 2574SOL    HW1 8258   0.417   5.096   7.656
 2574SOL    HW2 8259   0.480   5.100   7.518
 2575SOL     OW 8260   1.394   4.296   7.519
 2575SOL    HW1 8261   1.333   4.276   7.590
 2575SOL    HW2 8262   1.478   4.262   7.550
 2576SOL     OW 8263   0.527   3.990   7.770
 2576SOL    HW1 8264   0.570   3.940   7.701
 2576SOL    HW2 8265   0.503   4.072   7.728
 2577SOL     OW 8266   0.706   4.781   7.815
 2577SOL    HW1 8267   0.690   4.770   7.909
 2577SOL    HW2 8268   0.787   4.732   7.799
 2578SOL     OW 8269   0.346   4.819   7.928
 2578SOL    HW1 8270   0.342   4.902   7.882
 2578SOL    HW2 8271   0.348   4.753   7.858
 2579SOL     OW 8272   1.225   5.115   7.832
 2579SOL    HW1 8273   1.311   5.124   7.873
 2579SOL    HW2 8274   1.175   5.061   7.892
 2580SOL     OW 8275   1.587   4.352   7.921
 2580SOL    HW1 8276   1.575   4.411   7.995
 2580SOL    HW2 8277   1.627   4.407   7.853
 2581SOL     OW 8278   1.204   4.250   7.715
 2581SOL    HW1 8279   1.207   4.167   7.762
 2581SOL    HW2 8280   1.177   4.314   7.782
 2582SOL     OW 8281   1.619   4.103   7.814
 2582SOL    HW1 8282   1.640   4.036   7.879
 2582SOL    HW2 8283   1.594   4.179   7.866
 2583SOL     OW 8284   1.529   3.999   7.575
 2583SOL    HW1 8285   1.464   3.934   7.601
 2583SOL    HW2 8286   1.562   4.034   7.658
 2584SOL     OW 8287   1.294   4.551   7.481
 2584SOL    HW1 8288   1.335   4.465   7.483
 2584SOL    HW2 8289   1.324   4.591   7.399
 2585SOL     OW 8290   0.004   5.051   7.655
 2585SOL    HW1 8291   5.225   5.042   7.602
 2585SOL    HW2 8292   0.017   4.964   7.693
 2586SOL     OW 8293   0.839   4.324   7.760
 2586SOL    HW1 8294   0.832   4.233   7.733
 2586SOL    HW2 8295   0.749   4.356   7.762
 2587SOL     OW 8296   0.462   4.217   7.638
 2587SOL    HW1 8297   0.523   4.289   7.654
 2587SOL    HW2 8298   0.377   4.259   7.624
 2588SOL     OW 8299   1.310   4.578   7.754
 2588SOL    HW1 8300   1.223   4.577   7.794
 2588SOL    HW2 8301   1.294   4.566   7.661
 2589SOL     OW 8302   1.712   3.870   7.947
 2589SOL    HW1 8303   1.789   3.863   7.891
 2589SOL    HW2 8304   1.714   3.792   8.003
 2590SOL     OW 8305   0.926   4.635   7.756
 2590SOL    HW1 8306   0.980   4.659   7.681
 2590SOL    HW2 8307   0.921   4.539   7.751
 2591SOL     OW 8308   0.259   5.060   7.745
 2591SOL    HW1 8309   0.167   5.067   7.721
 2591SOL    HW2 8310   0.264   5.099   7.832
 2592SOL     OW 8311   0.081   4.065   7.488
 2592SOL    HW1 8312   5.298   4.025   7.463
 2592SOL    HW2 8313   0.099   4.128   7.418
 2593SOL     OW 8314   0.081   3.861   7.738
 2593SOL    HW1 8315   0.067   3.948   7.702
 2593SOL    HW2 8316   0.154   3.825   7.686
 2594SOL     OW 8317   1.181   5.058   7.565
 2594SOL    HW1 8318   1.089   5.033   7.562
 2594SOL    HW2 8319   1.199   5.073   7.658
 2595SOL     OW 8320   1.215   4.042   7.903
 2595SOL    HW1 8321   1.288   3.981   7.892
 2595SOL    HW2 8322   1.236   4.089   7.984
 2596SOL     OW 8323   0.625   4.465   8.046
 2596SOL    HW1 8324   0.629   4.542   0.023
 2596SOL    HW2 8325   0.533   4.460   8.020
 2597SOL     OW 8326   0.851   5.094   7.466
 2597SOL    HW1 8327   0.833   5.094   7.560
 2597SOL    HW2 8328   0.864   5.186   7.444
 2598SOL     OW 8329   1.074   4.704   7.538
 2598SOL    HW1 8330   1.054   4.759   7.463
 2598SOL    HW2 8331   1.151   4.654   7.511
 2599SOL     OW 8332   0.393   4.155   7.979
 2599SOL    HW1 8333   0.437   4.095   7.919
 2599SOL    HW2 8334   0.436   4.140   8.063
 2600SOL     OW 8335   0.806   5.048   7.731
 2600SOL    HW1 8336   0.749   4.973   7.750
 2600SOL    HW2 8337   0.825   5.087   7.816
 2601SOL     OW 8338   1.352   3.777   7.610
 2601SOL    HW1 8339   1.382   3.710   7.548
 2601SOL    HW2 8340   1.266   3.747   7.638
 2602SOL     OW 8341   0.049   4.792   7.724
 2602SOL    HW1 8342   0.138   4.758   7.722
 2602SOL    HW2 8343   0.001   4.731   7.780
 2603SOL     OW 8344   2.079   0.624   0.120
 2603SOL    HW1 8345   2.000   0.589   0.162
 2603SOL    HW2 8346   2.105   0.557   0.057
 2604SOL     OW 8347   2.080   0.284   0.993
 2604SOL    HW1 8348   2.109   0.249   1.077
 2604SOL    HW2 8349   1.995   0.243   0.977
 2605SOL     OW 8350   1.866   0.386   0.638
 2605SOL    HW1 8351   1.782   0.408   0.678
 2605SOL    HW2 8352   1.848   0.308   0.586
 2606SOL     OW 8353   2.429   1.288   1.175
 2606SOL    HW1 8354   2.341   1.291   1.137
 2606SOL    HW2 8355   2.444   1.376   1.208
 2607SOL     OW 8356   3.423   1.512   0.707
 2607SOL    HW1 8357   3.380   1.491   0.790
 2607SOL    HW2 8358   3.352   1.515   0.644
 2608SOL     OW 8359   2.994   0.698   0.702
 2608SOL    HW1 8360   3.042   0.779   0.687
 2608SOL    HW2 8361   2.946   0.713   0.784
 2609SOL     OW 8362   3.633   0.599   0.231
 2609SOL    HW1 8363   3.590   0.604   0.146
 2609SOL    HW2 8364   3.592   0.525   0.275
 2610SOL     OW 8365   2.617   1.142   1.041
 2610SOL    HW1 8366   2.549   1.177   1.098
 2610SOL    HW2 8367   2.653   1.219   0.996
 2611SOL     OW 8368   2.728   0.777   1.822
 2611SOL    HW1 8369   2.717   0.849   1.885
 2611SOL    HW2 8370   2.752   0.820   1.740
 2612SOL     OW 8371   2.547   1.002   0.649
 2612SOL    HW1 8372   2.612   0.990   0.718
 2612SOL    HW2 8373   2.478   1.055   0.690
 2613SOL     OW 8374   2.572   1.151   1.812
 2613SOL    HW1 8375   2.620   1.229   1.839
 2613SOL    HW2 8376   2.490   1.184   1.777
 2614SOL     OW 8377   2.192   1.426   1.068
 2614SOL    HW1 8378   2.120   1.387   1.018
 2614SOL    HW2 8379   2.242   1.476   1.003
 2615SOL     OW 8380   3.323   1.499   1.354
 2615SOL    HW1 8381   3.373   1.580   1.364
 2615SOL    HW2 8382   3.261   1.501   1.427
 2616SOL     OW 8383   2.306   0.398   1.486
 2616SOL    HW1 8384   2.381   0.339   1.484
 2616SOL    HW2 8385   2.231   0.341   1.501
 2617SOL     OW 8386   3.472   0.451   0.738
 2617SOL    HW1 8387   3.394   0.473   0.687
 2617SOL    HW2 8388   3.490   0.530   0.790
 2618SOL     OW 8389   2.082   1.715   0.472
 2618SOL    HW1 8390   2.104   1.791   0.525
 2618SOL    HW2 8391   2.156   1.706   0.412
 2619SOL     OW 8392   2.998   1.342   1.693
 2619SOL    HW1 8393   3.039   1.337   1.779
 2619SOL    HW2 8394   2.946   1.262   1.686
 2620SOL     OW 8395   2.089   1.441   0.530
 2620SOL    HW1 8396   2.074   1.535   0.535
 2620SOL    HW2 8397   2.030   1.404   0.596
 2621SOL     OW 8398   2.119   1.090   0.891
 2621SOL    HW1 8399   2.117   1.003   0.932
 2621SOL    HW2 8400   2.061   1.144   0.945
 2622SOL     OW 8401   2.472   1.791   1.427
 2622SOL    HW1 8402   2.391   1.773   1.475
 2622SOL    HW2 8403   2.496   1.880   1.453
 2623SOL     OW 8404   2.490   0.961   0.134
 2623SOL    HW1 8405   2.439   1.038   0.108
 2623SOL    HW2 8406   2.542   0.990   0.209
 2624SOL     OW 8407   3.448   0.135   1.456
 2624SOL    HW1 8408   3.470   0.220   1.417
 2624SOL    HW2 8409   3.446   0.152   1.550
 2625SOL     OW 8410   1.976   0.651   0.562
 2625SOL    HW1 8411   1.948   0.562   0.583
 2625SOL    HW2 8412   1.969   0.699   0.644
 2626SOL     OW 8413   3.707   1.758   0.332
 2626SOL    HW1 8414   3.772   1.728   0.396
 2626SOL    HW2 8415   3.732   1.849   0.314
 2627SOL     OW 8416   1.892   1.596   0.111
 2627SOL    HW1 8417   1.878   1.507   0.145
 2627SOL    HW2 8418   1.875   1.653   0.186
 2628SOL     OW 8419   3.551   0.919   0.644
 2628SOL    HW1 8420   3.633   0.875   0.621
 2628SOL    HW2 8421   3.528   0.970   0.566
 2629SOL     OW 8422   3.508   1.105   0.435
 2629SOL    HW1 8423   3.588   1.119   0.385
 2629SOL    HW2 8424   3.513   1.167   0.507
 2630SOL     OW 8425   1.985   0.744   1.584
 2630SOL    HW1 8426   2.076   0.769   1.593
 2630SOL    HW2 8427   1.936   0.826   1.593
 2631SOL     OW 8428   2.475   1.386   0.735
 2631SOL    HW1 8429   2.430   1.303   0.744
 2631SOL    HW2 8430   2.459   1.412   0.644
 2632SOL     OW 8431   3.151   1.238   1.423
 2632SOL    HW1 8432   3.183   1.171   1.363
 2632SOL    HW2 8433   3.208   1.232   1.499
 2633SOL     OW 8434   2.673   0.028   0.529
 2633SOL    HW1 8435   2.703   0.114   0.499
 2633SOL    HW2 8436   2.578   0.031   0.523
 2634SOL     OW 8437   2.052   0.967   1.271
 2634SOL    HW1 8438   2.137   0.924   1.256
 2634SOL    HW2 8439   1.990   0.911   1.224
 2635SOL     OW 8440   3.372   1.006   0.212
 2635SOL    HW1 8441   3.310   0.942   0.245
 2635SOL    HW2 8442   3.424   1.031   0.289
 2636SOL     OW 8443   3.047   1.806   1.622
 2636SOL    HW1 8444   3.058   1.865   1.547
 2636SOL    HW2 8445   3.063   1.719   1.587
 2637SOL     OW 8446   2.189   0.266   1.811
 2637SOL    HW1 8447   2.241   0.342   1.840
 2637SOL    HW2 8448   2.103   0.280   1.850
 2638SOL     OW 8449   3.328   1.420   0.951
 2638SOL    HW1 8450   3.260   1.435   1.017
 2638SOL    HW2 8451   3.316   1.328   0.924
 2639SOL     OW 8452   3.521   1.741   0.581
 2639SOL    HW1 8453   3.500   1.712   0.492
 2639SOL    HW2 8454   3.496   1.667   0.637
 2640SOL     OW 8455   2.460   0.714   0.283
 2640SOL    HW1 8456   2.478   0.791   0.229
 2640SOL    HW2 8457   2.395   0.743   0.346
 2641SOL     OW 8458   3.139   0.347   0.932
 2641SOL    HW1 8459   3.049   0.318   0.944
 2641SOL    HW2 8460   3.189   0.297   0.996
 2642SOL     OW 8461   3.449   1.671   0.319
 2642SOL    HW1 8462   3.539   1.700   0.312
 2642SOL    HW2 8463   3.422   1.654   0.229
 2643SOL     OW 8464   2.656   0.618   1.450
 2643SOL    HW1 8465   2.629   0.597   1.539
 2643SOL    HW2 8466   2.614   0.552   1.395
 2644SOL     OW 8467   3.257   0.475   1.678
 2644SOL    HW1 8468   3.259   0.520   1.763
 2644SOL    HW2 8469   3.320   0.404   1.687
 2645SOL     OW 8470   2.817   0.888   1.582
 2645SOL    HW1 8471   2.871   0.817   1.547
 2645SOL    HW2 8472   2.769   0.921   1.507
 2646SOL     OW 8473   2.856   0.417   1.235
 2646SOL    HW1 8474   2.770   0.438   1.273
 2646SOL    HW2 8475   2.835   0.368   1.155
 2647SOL     OW 8476   2.914   0.698   0.428
 2647SOL    HW1 8477   2.930   0.691   0.522
 2647SOL    HW2 8478   2.832   0.652   0.413
 2648SOL     OW 8479   1.951   0.821   0.776
 2648SOL    HW1 8480   2.032   0.814   0.827
 2648SOL    HW2 8481   1.908   0.899   0.811
 2649SOL     OW 8482   1.989   1.850   1.578
 2649SOL    HW1 8483   1.990   1.829   1.671
 2649SOL    HW2 8484   1.897   1.838   1.552
 2650SOL     OW 8485   2.749   0.359   0.203
 2650SOL    HW1 8486   2.792   0.407   0.132
 2650SOL    HW2 8487   2.730   0.273   0.166
 2651SOL     OW 8488   3.570   0.574   1.828
 2651SOL    HW1 8489   3.532   0.648   1.780
 2651SOL    HW2 8490   3.599   0.514   1.760
 2652SOL     OW 8491   3.239   1.142   0.542
 2652SOL    HW1 8492   3.317   1.128   0.488
 2652SOL    HW2 8493   3.186   1.204   0.492
 2653SOL     OW 8494   2.387   0.201   0.883
 2653SOL    HW1 8495   2.410   0.217   0.975
 2653SOL    HW2 8496   2.410   0.282   0.838
 2654SOL     OW 8497   2.867   1.445   0.473
 2654SOL    HW1 8498   2.829   1.517   0.423
 2654SOL    HW2 8499   2.849   1.466   0.564
 2655SOL     OW 8500   2.217   1.809   0.862
 2655SOL    HW1 8501   2.259   1.723   0.869
 2655SOL    HW2 8502   2.286   1.872   0.879
 2656SOL     OW 8503   3.661   1.057   0.868
 2656SOL    HW1 8504   3.607   1.038   0.792
 2656SOL    HW2 8505   3.599   1.063   0.941
 2657SOL     OW 8506   3.090   1.539   1.513
 2657SOL    HW1 8507   3.076   1.466   1.574
 2657SOL    HW2 8508   3.027   1.523   1.443
 2658SOL     OW 8509   2.188   0.943   0.254
 2658SOL    HW1 8510   2.259   0.982   0.203
 2658SOL    HW2 8511   2.187   0.851   0.227
 2659SOL     OW 8512   3.340   0.743   0.726
 2659SOL    HW1 8513   3.332   0.700   0.811
 2659SOL    HW2 8514   3.418   0.798   0.736
 2660SOL     OW 8515   2.328   1.265   1.738
 2660SOL    HW1 8516   2.301   1.270   1.646
 2660SOL    HW2 8517   2.246   1.263   1.787
 2661SOL     OW 8518   2.969   1.781   0.224
 2661SOL    HW1 8519   2.913   1.740   0.290
 2661SOL    HW2 8520   2.990   1.710   0.163
 2662SOL     OW 8521   2.059   0.278   1.503
 2662SOL    HW1 8522   1.980   0.331   1.499
 2662SOL    HW2 8523   2.051   0.229   1.585
 2663SOL     OW 8524   3.496   1.373   0.082
 2663SOL    HW1 8525   3.454   1.459   0.082
 2663SOL    HW2 8526   3.424   1.312   0.064
 2664SOL     OW 8527   2.326   1.738   0.323
 2664SOL    HW1 8528   2.369   1.796   0.386
 2664SOL    HW2 8529   2.397   1.710   0.264
 2665SOL     OW 8530   3.277   0.099   0.446
 2665SOL    HW1 8531   3.268   0.079   0.353
 2665SOL    HW2 8532   3.368   0.127   0.456
 2666SOL     OW 8533   2.118   1.792   1.231
 2666SOL    HW1 8534   2.169   1.726   1.279
 2666SOL    HW2 8535   2.108   1.756   1.143
 2667SOL     OW 8536   2.799   1.698   0.899
 2667SOL    HW1 8537   2.878   1.647   0.920
 2667SOL    HW2 8538   2.756   1.649   0.830
 2668SOL     OW 8539   2.248   0.698   0.476
 2668SOL    HW1 8540   2.273   0.606   0.487
 2668SOL    HW2 8541   2.155   0.701   0.500
 2669SOL     OW 8542   3.401   0.228   1.723
 2669SOL    HW1 8543   3.408   0.245   1.817
 2669SOL    HW2 8544   3.325   0.170   1.716
 2670SOL     OW 8545   2.487   0.137   0.124
 2670SOL    HW1 8546   2.578   0.109   0.134
 2670SOL    HW2 8547   2.459   0.098   0.041
 2671SOL     OW 8548   2.643   0.313   1.767
 2671SOL    HW1 8549   2.701   0.236   1.768
 2671SOL    HW2 8550   2.595   0.306   1.850
 2672SOL     OW 8551   2.738   1.521   1.194
 2672SOL    HW1 8552   2.723   1.485   1.107
 2672SOL    HW2 8553   2.808   1.467   1.230
 2673SOL     OW 8554   3.203   0.589   1.432
 2673SOL    HW1 8555   3.233   0.558   1.517
 2673SOL    HW2 8556   3.239   0.677   1.425
 2674SOL     OW 8557   2.677   1.395   0.939
 2674SOL    HW1 8558   2.761   1.383   0.896
 2674SOL    HW2 8559   2.613   1.396   0.868
 2675SOL     OW 8560   2.789   0.510   0.902
 2675SOL    HW1 8561   2.765   0.502   0.810
 2675SOL    HW2 8562   2.820   0.423   0.927
 2676SOL     OW 8563   2.404   0.062   0.511
 2676SOL    HW1 8564   2.317   0.059   0.552
 2676SOL    HW2 8565   2.398   0.131   0.445
 2677SOL     OW 8566   3.296   1.199   0.036
 2677SOL    HW1 8567   3.319   1.125   0.092
 2677SOL    HW2 8568   3.207   1.223   0.065
 2678SOL     OW 8569   2.162   0.069   0.205
 2678SOL    HW1 8570   2.219   0.140   0.174
 2678SOL    HW2 8571   2.215   5.290   0.197
 2679SOL     OW 8572   2.806   0.257   0.454
 2679SOL    HW1 8573   2.779   0.303   0.375
 2679SOL    HW2 8574   2.899   0.279   0.465
 2680SOL     OW 8575   2.943   0.681   1.459
 2680SOL    HW1 8576   2.874   0.615   1.465
 2680SOL    HW2 8577   3.024   0.631   1.453
 2681SOL     OW 8578   3.084   1.570   0.795
 2681SOL    HW1 8579   3.102   1.636   0.728
 2681SOL    HW2 8580   3.154   1.583   0.859
 2682SOL     OW 8581   2.330   1.151   0.734
 2682SOL    HW1 8582   2.261   1.130   0.797
 2682SOL    HW2 8583   2.289   1.134   0.649
 2683SOL     OW 8584   3.130   1.794   0.607
 2683SOL    HW1 8585   3.180   1.857   0.554
 2683SOL    HW2 8586   3.064   1.847   0.652
 2684SOL     OW 8587   2.891   0.528   0.031
 2684SOL    HW1 8588   2.852   0.610   0.001
 2684SOL    HW2 8589   2.955   0.555   0.098
 2685SOL     OW 8590   1.941   0.553   1.393
 2685SOL    HW1 8591   2.032   0.553   1.365
 2685SOL    HW2 8592   1.935   0.624   1.457
 2686SOL     OW 8593   2.417   0.238   1.158
 2686SOL    HW1 8594   2.449   0.152   1.187
 2686SOL    HW2 8595   2.325   0.239   1.185
 2687SOL     OW 8596   2.729   0.460   0.639
 2687SOL    HW1 8597   2.687   0.515   0.573
 2687SOL    HW2 8598   2.751   0.379   0.594
 2688SOL     OW 8599   2.838   0.062   0.763
 2688SOL    HW1 8600   2.775   0.056   0.691
 2688SOL    HW2 8601   2.850   5.271   0.792
 2689SOL     OW 8602   3.299   1.163   0.857
 2689SOL    HW1 8603   3.230   1.096   0.856
 2689SOL    HW2 8604   3.323   1.174   0.765
 2690SOL     OW 8605   3.329   0.606   0.977
 2690SOL    HW1 8606   3.279   0.524   0.981
 2690SOL    HW2 8607   3.389   0.601   1.052
 2691SOL     OW 8608   3.710   0.815   0.387
 2691SOL    HW1 8609   3.762   0.762   0.448
 2691SOL    HW2 8610   3.679   0.752   0.321
 2692SOL     OW 8611   2.344   1.439   0.172
 2692SOL    HW1 8612   2.272   1.398   0.219
 2692SOL    HW2 8613   2.351   1.390   0.091
 2693SOL     OW 8614   3.533   1.265   0.647
 2693SOL    HW1 8615   3.628   1.269   0.660
 2693SOL    HW2 8616   3.503   1.354   0.668
 2694SOL     OW 8617   3.261   0.578   0.088
 2694SOL    HW1 8618   3.198   0.559   0.157
 2694SOL    HW2 8619   3.316   0.500   0.083
 2695SOL     OW 8620   2.385   0.268   0.329
 2695SOL    HW1 8621   2.426   0.213   0.262
 2695SOL    HW2 8622   2.369   0.351   0.284
 2696SOL     OW 8623   3.614   1.239   1.573
 2696SOL    HW1 8624   3.702   1.200   1.569
 2696SOL    HW2 8625   3.630   1.329   1.602
 2697SOL     OW 8626   2.920   1.354   1.334
 2697SOL    HW1 8627   2.846   1.323   1.385
 2697SOL    HW2 8628   2.996   1.312   1.375
 2698SOL     OW 8629   3.470   1.626   1.654
 2698SOL    HW1 8630   3.464   1.660   1.565
 2698SOL    HW2 8631   3.553   1.578   1.656
 2699SOL     OW 8632   2.991   1.204   1.106
 2699SOL    HW1 8633   2.932   1.241   1.170
 2699SOL    HW2 8634   2.958   1.235   1.021
 2700SOL     OW 8635   3.490   1.098   1.077
 2700SOL    HW1 8636   3.485   1.160   1.150
 2700SOL    HW2 8637   3.411   1.115   1.026
 2701SOL     OW 8638   2.766   0.106   1.389
 2701SOL    HW1 8639   2.796   0.072   1.305
 2701SOL    HW2 8640   2.843   0.149   1.427
 2702SOL     OW 8641   2.846   1.115   1.722
 2702SOL    HW1 8642   2.754   1.131   1.744
 2702SOL    HW2 8643   2.845   1.037   1.667
 2703SOL     OW 8644   2.577   1.063   0.380
 2703SOL    HW1 8645   2.559   1.045   0.472
 2703SOL    HW2 8646   2.654   1.011   0.360
 2704SOL     OW 8647   2.280   0.815   1.252
 2704SOL    HW1 8648   2.349   0.824   1.318
 2704SOL    HW2 8649   2.245   0.727   1.265
 2705SOL     OW 8650   3.129   0.379   1.273
 2705SOL    HW1 8651   3.162   0.455   1.320
 2705SOL    HW2 8652   3.039   0.401   1.250
 2706SOL     OW 8653   1.933   1.573   1.353
 2706SOL    HW1 8654   1.903   1.646   1.298
 2706SOL    HW2 8655   2.028   1.576   1.347
 2707SOL     OW 8656   2.206   1.110   0.491
 2707SOL    HW1 8657   2.213   1.182   0.429
 2707SOL    HW2 8658   2.215   1.031   0.438
 2708SOL     OW 8659   2.415   0.538   0.861
 2708SOL    HW1 8660   2.430   0.596   0.786
 2708SOL    HW2 8661   2.481   0.564   0.925
 2709SOL     OW 8662   3.109   1.347   0.394
 2709SOL    HW1 8663   3.165   1.419   0.422
 2709SOL    HW2 8664   3.022   1.370   0.425
 2710SOL     OW 8665   3.143   1.457   1.147
 2710SOL    HW1 8666   3.199   1.460   1.225
 2710SOL    HW2 8667   3.088   1.380   1.159
 2711SOL     OW 8668   3.445   0.625   0.481
 2711SOL    HW1 8669   3.394   0.675   0.546
 2711SOL    HW2 8670   3.479   0.692   0.422
 2712SOL     OW 8671   2.208   1.528   1.315
 2712SOL    HW1 8672   2.196   1.485   1.230
 2712SOL    HW2 8673   2.303   1.539   1.323
 2713SOL     OW 8674   2.276   0.744   1.602
 2713SOL    HW1 8675   2.338   0.789   1.544
 2713SOL    HW2 8676   2.318   0.660   1.620
 2714SOL     OW 8677   3.463   0.779   1.682
 2714SOL    HW1 8678   3.377   0.820   1.675
 2714SOL    HW2 8679   3.516   0.821   1.614
 2715SOL     OW 8680   2.907   0.116   1.784
 2715SOL    HW1 8681   2.932   0.196   1.737
 2715SOL    HW2 8682   2.912   0.047   1.719
 2716SOL     OW 8683   2.345   0.057   1.738
 2716SOL    HW1 8684   2.287   5.292   1.698
 2716SOL    HW2 8685   2.288   0.131   1.760
 2717SOL     OW 8686   2.445   0.873   1.031
 2717SOL    HW1 8687   2.476   0.963   1.031
 2717SOL    HW2 8688   2.389   0.867   1.108
 2718SOL     OW 8689   3.220   0.859   1.030
 2718SOL    HW1 8690   3.137   0.850   0.982
 2718SOL    HW2 8691   3.260   0.772   1.024
 2719SOL     OW 8692   3.065   0.527   0.270
 2719SOL    HW1 8693   3.073   0.447   0.323
 2719SOL    HW2 8694   3.023   0.590   0.328
 2720SOL     OW 8695   2.158   0.204   1.248
 2720SOL    HW1 8696   2.119   0.243   1.326
 2720SOL    HW2 8697   2.158   0.110   1.265
 2721SOL     OW 8698   1.908   1.311   1.276
 2721SOL    HW1 8699   1.941   1.256   1.347
 2721SOL    HW2 8700   1.915   1.400   1.310
 2722SOL     OW 8701   2.588   0.632   1.060
 2722SOL    HW1 8702   2.661   0.615   1.001
 2722SOL    HW2 8703   2.559   0.720   1.037
 2723SOL     OW 8704   3.596   0.960   1.852
 2723SOL    HW1 8705   3.551   0.898   1.796
 2723SOL    HW2 8706   3.537   0.973   1.926
 2724SOL     OW 8707   2.164   0.071   0.652
 2724SOL    HW1 8708   2.146   0.165   0.658
 2724SOL    HW2 8709   2.209   0.049   0.733
 2725SOL     OW 8710   3.483   0.378   0.367
 2725SOL    HW1 8711   3.510   0.312   0.431
 2725SOL    HW2 8712   3.458   0.453   0.421
 2726SOL     OW 8713   2.889   0.759   0.961
 2726SOL    HW1 8714   2.886   0.777   1.055
 2726SOL    HW2 8715   2.863   0.668   0.952
 2727SOL     OW 8716   2.844   1.566   1.717
 2727SOL    HW1 8717   2.829   1.610   1.633
 2727SOL    HW2 8718   2.887   1.484   1.693
 2728SOL     OW 8719   3.716   1.506   1.605
 2728SOL    HW1 8720   3.735   1.532   1.515
 2728SOL    HW2 8721   3.798   1.524   1.653
 2729SOL     OW 8722   2.215   0.917   1.808
 2729SOL    HW1 8723   2.297   0.935   1.854
 2729SOL    HW2 8724   2.240   0.854   1.740
 2730SOL     OW 8725   3.383   0.302   0.126
 2730SOL    HW1 8726   3.346   0.215   0.140
 2730SOL    HW2 8727   3.422   0.326   0.210
 2731SOL     OW 8728   3.157   0.824   0.021
 2731SOL    HW1 8729   3.196   0.738   0.039
 2731SOL    HW2 8730   3.216   0.865   8.039
 2732SOL     OW 8731   2.927   1.336   0.854
 2732SOL    HW1 8732   2.930   1.263   0.792
 2732SOL    HW2 8733   2.989   1.400   0.819
 2733SOL     OW 8734   2.171   0.809   0.947
 2733SOL    HW1 8735   2.264   0.830   0.941
 2733SOL    HW2 8736   2.169   0.719   0.979
 2734SOL     OW 8737   2.194   0.526   1.012
 2734SOL    HW1 8738   2.158   0.439   0.997
 2734SOL    HW2 8739   2.270   0.531   0.955
 2735SOL     OW 8740   2.997   0.378   1.688
 2735SOL    HW1 8741   2.950   0.432   1.751
 2735SOL    HW2 8742   3.085   0.417   1.684
 2736SOL     OW 8743   2.995   0.222   1.466
 2736SOL    HW1 8744   3.000   0.281   1.541
 2736SOL    HW2 8745   3.051   0.264   1.400
 2737SOL     OW 8746   1.873   1.324   0.190
 2737SOL    HW1 8747   1.787   1.338   0.152
 2737SOL    HW2 8748   1.871   1.234   0.222
 2738SOL     OW 8749   1.952   1.787   0.938
 2738SOL    HW1 8750   1.922   1.708   0.894
 2738SOL    HW2 8751   2.042   1.799   0.907
 2739SOL     OW 8752   2.358   1.574   0.905
 2739SOL    HW1 8753   2.427   1.635   0.930
 2739SOL    HW2 8754   2.402   1.510   0.849
 2740SOL     OW 8755   2.845   0.793   1.227
 2740SOL    HW1 8756   2.901   0.769   1.301
 2740SOL    HW2 8757   2.760   0.754   1.248
 2741SOL     OW 8758   1.897   0.544   1.117
 2741SOL    HW1 8759   1.977   0.529   1.066
 2741SOL    HW2 8760   1.927   0.548   1.208
 2742SOL     OW 8761   2.049   0.522   1.727
 2742SOL    HW1 8762   2.112   0.487   1.664
 2742SOL    HW2 8763   2.009   0.596   1.681
 2743SOL     OW 8764   3.239   0.939   1.659
 2743SOL    HW1 8765   3.260   1.032   1.656
 2743SOL    HW2 8766   3.236   0.913   1.566
 2744SOL     OW 8767   2.680   0.570   0.368
 2744SOL    HW1 8768   2.689   0.499   0.304
 2744SOL    HW2 8769   2.604   0.620   0.338
 2745SOL     OW 8770   3.504   0.602   1.186
 2745SOL    HW1 8771   3.493   0.542   1.260
 2745SOL    HW2 8772   3.591   0.581   1.152
 2746SOL     OW 8773   2.104   1.551   1.727
 2746SOL    HW1 8774   2.083   1.615   1.795
 2746SOL    HW2 8775   2.108   1.467   1.773
 2747SOL     OW 8776   2.561   0.452   1.260
 2747SOL    HW1 8777   2.510   0.378   1.227
 2747SOL    HW2 8778   2.560   0.516   1.189
 2748SOL     OW 8779   2.789   1.679   1.468
 2748SOL    HW1 8780   2.764   1.645   1.382
 2748SOL    HW2 8781   2.785   1.774   1.457
 2749SOL     OW 8782   2.329   0.492   0.177
 2749SOL    HW1 8783   2.398   0.557   0.196
 2749SOL    HW2 8784   2.247   0.538   0.193
 2750SOL     OW 8785   2.008   1.141   1.472
 2750SOL    HW1 8786   2.010   1.089   1.553
 2750SOL    HW2 8787   2.025   1.077   1.403
 2751SOL     OW 8788   3.188   1.047   1.223
 2751SOL    HW1 8789   3.211   0.983   1.155
 2751SOL    HW2 8790   3.118   1.099   1.184
 2752SOL     OW 8791   3.168   0.849   0.308
 2752SOL    HW1 8792   3.091   0.819   0.357
 2752SOL    HW2 8793   3.144   0.837   0.216
 2753SOL     OW 8794   3.633   1.744   1.150
 2753SOL    HW1 8795   3.694   1.770   1.081
 2753SOL    HW2 8796   3.610   1.654   1.129
 2754SOL     OW 8797   3.103   1.733   1.113
 2754SOL    HW1 8798   3.185   1.754   1.068
 2754SOL    HW2 8799   3.109   1.639   1.131
 2755SOL     OW 8800   1.946   1.267   1.012
 2755SOL    HW1 8801   1.931   1.280   1.106
 2755SOL    HW2 8802   1.873   1.212   0.983
 2756SOL     OW 8803   2.538   1.666   1.728
 2756SOL    HW1 8804   2.487   1.746   1.727
 2756SOL    HW2 8805   2.605   1.678   1.661
 2757SOL     OW 8806   2.755   0.086   0.139
 2757SOL    HW1 8807   2.803   0.078   0.056
 2757SOL    HW2 8808   2.774   0.005   0.186
 2758SOL     OW 8809   3.575   0.149   0.504
 2758SOL    HW1 8810   3.649   0.128   0.447
 2758SOL    HW2 8811   3.567   0.074   0.563
 2759SOL     OW 8812   3.252   1.568   0.486
 2759SOL    HW1 8813   3.315   1.601   0.422
 2759SOL    HW2 8814   3.204   1.646   0.515
 2760SOL     OW 8815   1.998   1.797   1.843
 2760SOL    HW1 8816   1.948   1.731   1.891
 2760SOL    HW2 8817   2.047   1.844   1.911
 2761SOL     OW 8818   3.139   0.926   0.672
 2761SOL    HW1 8819   3.213   0.865   0.678
 2761SOL    HW2 8820   3.173   0.998   0.619
 2762SOL     OW 8821   2.676   1.273   1.430
 2762SOL    HW1 8822   2.648   1.312   1.512
 2762SOL    HW2 8823   2.607   1.295   1.368
 2763SOL     OW 8824   2.538   1.621   0.156
 2763SOL    HW1 8825   2.544   1.627   0.061
 2763SOL    HW2 8826   2.477   1.548   0.172
 2764SOL     OW 8827   3.488   1.727   1.391
 2764SOL    HW1 8828   3.538   1.733   1.310
 2764SOL    HW2 8829   3.474   1.817   1.418
 2765SOL     OW 8830   3.708   0.157   0.957
 2765SOL    HW1 8831   3.707   0.062   0.945
 2765SOL    HW2 8832   3.621   0.185   0.929
 2766SOL     OW 8833   2.124   0.329   0.720
 2766SOL    HW1 8834   2.036   0.360   0.698
 2766SOL    HW2 8835   2.122   0.317   0.815
 2767SOL     OW 8836   3.019   1.582   0.052
 2767SOL    HW1 8837   3.034   1.489   0.072
 2767SOL    HW2 8838   3.029   1.587   8.037
 2768SOL     OW 8839   2.686   1.006   1.372
 2768SOL    HW1 8840   2.730   1.001   1.288
 2768SOL    HW2 8841   2.686   1.099   1.394
 2769SOL     OW 8842   2.782   0.915   0.299
 2769SOL    HW1 8843   2.835   0.939   0.223
 2769SOL    HW2 8844   2.828   0.842   0.339
 2770SOL     OW 8845   3.372   1.624   0.061
 2770SOL    HW1 8846   3.277   1.624   0.049
 2770SOL    HW2 8847   3.407   1.625   8.052
 2771SOL     OW 8848   2.231   1.303   1.492
 2771SOL    HW1 8849   2.217   1.380   1.437
 2771SOL    HW2 8850   2.154   1.248   1.475
 2772SOL     OW 8851   3.473   1.283   1.280
 2772SOL    HW1 8852   3.532   1.272   1.354
 2772SOL    HW2 8853   3.412   1.352   1.308
 2773SOL     OW 8854   2.914   1.107   0.708
 2773SOL    HW1 8855   2.843   1.056   0.746
 2773SOL    HW2 8856   2.976   1.042   0.674
 2774SOL     OW 8857   2.881   0.243   0.968
 2774SOL    HW1 8858   2.861   0.197   0.887
 2774SOL    HW2 8859   2.874   0.176   1.036
 2775SOL     OW 8860   2.465   1.487   0.480
 2775SOL    HW1 8861   2.509   1.437   0.412
 2775SOL    HW2 8862   2.395   1.534   0.434
 2776SOL     OW 8863   3.586   0.387   1.378
 2776SOL    HW1 8864   3.656   0.452   1.377
 2776SOL    HW2 8865   3.618   0.317   1.320
 2777SOL     OW 8866   2.129   1.320   0.294
 2777SOL    HW1 8867   2.043   1.331   0.253
 2777SOL    HW2 8868   2.122   1.365   0.378
 2778SOL     OW 8869   1.975   1.022   1.719
 2778SOL    HW1 8870   1.898   0.999   1.772
 2778SOL    HW2 8871   2.049   0.985   1.766
 2779SOL     OW 8872   2.534   0.211   1.488
 2779SOL    HW1 8873   2.618   0.194   1.445
 2779SOL    HW2 8874   2.558   0.261   1.567
 2780SOL     OW 8875   1.930   0.362   0.034
 2780SOL    HW1 8876   1.859   0.299   0.024
 2780SOL    HW2 8877   1.945   0.396   8.026
 2781SOL     OW 8878   3.292   0.858   1.400
 2781SOL    HW1 8879   3.243   0.919   1.345
 2781SOL    HW2 8880   3.381   0.861   1.366
 2782SOL     OW 8881   1.930   0.165   0.314
 2782SOL    HW1 8882   1.937   0.253   0.276
 2782SOL    HW2 8883   2.015   0.124   0.296
 2783SOL     OW 8884   3.047   1.318   0.121
 2783SOL    HW1 8885   2.952   1.307   0.120
 2783SOL    HW2 8886   3.069   1.319   0.214
 2784SOL     OW 8887   2.481   0.830   1.433
 2784SOL    HW1 8888   2.537   0.907   1.418
 2784SOL    HW2 8889   2.542   0.757   1.442
 2785SOL     OW 8890   3.346   1.777   0.978
 2785SOL    HW1 8891   3.370   1.837   0.908
 2785SOL    HW2 8892   3.428   1.757   1.023
 2786SOL     OW 8893   2.577   0.572   1.703
 2786SOL    HW1 8894   2.618   0.635   1.762
 2786SOL    HW2 8895   2.608   0.487   1.734
 2787SOL     OW 8896   3.333   1.200   1.632
 2787SOL    HW1 8897   3.321   1.214   1.726
 2787SOL    HW2 8898   3.427   1.215   1.617
 2788SOL     OW 8899   2.240   1.739   1.562
 2788SOL    HW1 8900   2.155   1.780   1.550
 2788SOL    HW2 8901   2.220   1.655   1.605
 2789SOL     OW 8902   3.531   0.881   1.255
 2789SOL    HW1 8903   3.525   0.796   1.213
 2789SOL    HW2 8904   3.522   0.944   1.184
 2790SOL     OW 8905   3.077   0.327   0.474
 2790SOL    HW1 8906   3.136   0.253   0.458
 2790SOL    HW2 8907   3.117   0.374   0.547
 2791SOL     OW 8908   2.450   0.738   0.670
 2791SOL    HW1 8909   2.490   0.823   0.654
 2791SOL    HW2 8910   2.382   0.731   0.603
 2792SOL     OW 8911   3.628   0.362   1.649
 2792SOL    HW1 8912   3.609   0.376   1.556
 2792SOL    HW2 8913   3.557   0.306   1.680
 2793SOL     OW 8914   3.607   0.934   1.512
 2793SOL    HW1 8915   3.604   1.028   1.525
 2793SOL    HW2 8916   3.592   0.922   1.418
 2794SOL     OW 8917   2.758   1.373   0.037
 2794SOL    HW1 8918   2.693   1.363   0.107
 2794SOL    HW2 8919   2.739   1.459   8.079
 2795SOL     OW 8920   2.523   1.790   0.946
 2795SOL    HW1 8921   2.504   1.881   0.920
 2795SOL    HW2 8922   2.618   1.783   0.938
 2796SOL     OW 8923   2.729   0.966   0.855
 2796SOL    HW1 8924   2.780   0.895   0.894
 2796SOL    HW2 8925   2.695   1.015   0.930
 2797SOL     OW 8926   2.939   0.977   0.086
 2797SOL    HW1 8927   2.927   1.038   0.013
 2797SOL    HW2 8928   3.017   0.926   0.062
 2798SOL     OW 8929   3.716   1.554   0.844
 2798SOL    HW1 8930   3.638   1.543   0.790
 2798SOL    HW2 8931   3.708   1.488   0.913
 2799SOL     OW 8932   2.087   1.303   1.855
 2799SOL    HW1 8933   2.020   1.241   1.827
 2799SOL    HW2 8934   2.070   1.315   1.949
 2800SOL     OW 8935   1.947   1.233   0.665
 2800SOL    HW1 8936   1.950   1.184   0.747
 2800SOL    HW2 8937   2.019   1.196   0.612
 2801SOL     OW 8938   2.542   1.403   1.627
 2801SOL    HW1 8939   2.463   1.360   1.659
 2801SOL    HW2 8940   2.538   1.491   1.664
 2802SOL     OW 8941   3.676   0.177   1.232
 2802SOL    HW1 8942   3.642   0.088   1.238
 2802SOL    HW2 8943   3.694   0.190   1.139
 2803SOL     OW 8944   2.287   0.438   0.522
 2803SOL    HW1 8945   2.324   0.366   0.472
 2803SOL    HW2 8946   2.244   0.396   0.596
 2804SOL     OW 8947   3.562   1.489   1.096
 2804SOL    HW1 8948   3.481   1.466   1.051
 2804SOL    HW2 8949   3.574   1.420   1.161
 2805SOL     OW 8950   2.190   0.556   1.290
 2805SOL    HW1 8951   2.246   0.501   1.345
 2805SOL    HW2 8952   2.211   0.529   1.201
 2806SOL     OW 8953   2.689   1.578   0.678
 2806SOL    HW1 8954   2.677   1.629   0.598
 2806SOL    HW2 8955   2.613   1.520   0.681
 2807SOL     OW 8956   3.290   0.218   1.117
 2807SOL    HW1 8957   3.327   0.144   1.164
 2807SOL    HW2 8958   3.241   0.268   1.183
 2808SOL     OW 8959   2.864   0.021   1.140
 2808SOL    HW1 8960   2.814   5.252   1.097
 2808SOL    HW2 8961   2.951   5.283   1.154
 2809SOL     OW 8962   2.631   1.328   0.309
 2809SOL    HW1 8963   2.600   1.238   0.323
 2809SOL    HW2 8964   2.714   1.332   0.357
 2810SOL     OW 8965   2.481   1.557   1.284
 2810SOL    HW1 8966   2.484   1.638   1.334
 2810SOL    HW2 8967   2.569   1.548   1.247
 2811SOL     OW 8968   3.256   0.045   0.169
 2811SOL    HW1 8969   3.247   0.027   0.076
 2811SOL    HW2 8970   3.168   0.072   0.197
 2812SOL     OW 8971   3.170   0.467   0.689
 2812SOL    HW1 8972   3.112   0.543   0.692
 2812SOL    HW2 8973   3.159   0.425   0.775
 2813SOL     OW 8974   3.456   0.215   0.882
 2813SOL    HW1 8975   3.390   0.227   0.950
 2813SOL    HW2 8976   3.449   0.294   0.828
 2814SOL     OW 8977   1.905   1.067   0.304
 2814SOL    HW1 8978   2.001   1.066   0.307
 2814SOL    HW2 8979   1.879   0.984   0.344
 2815SOL     OW 8980   2.744   1.654   0.348
 2815SOL    HW1 8981   2.676   1.637   0.283
 2815SOL    HW2 8982   2.712   1.730   0.397
 2816SOL     OW 8983   2.090   0.625   1.985
 2816SOL    HW1 8984   2.001   0.622   2.020
 2816SOL    HW2 8985   2.080   0.599   1.893
 2817SOL     OW 8986   2.080   0.284   2.855
 2817SOL    HW1 8987   2.109   0.249   2.939
 2817SOL    HW2 8988   1.995   0.243   2.839
 2818SOL     OW 8989   1.866   0.386   2.500
 2818SOL    HW1 8990   1.781   0.407   2.540
 2818SOL    HW2 8991   1.848   0.309   2.447
 2819SOL     OW 8992   2.429   1.287   3.037
 2819SOL    HW1 8993   2.341   1.290   2.999
 2819SOL    HW2 8994   2.444   1.376   3.069
 2820SOL     OW 8995   3.423   1.512   2.569
 2820SOL    HW1 8996   3.380   1.491   2.652
 2820SOL    HW2 8997   3.352   1.516   2.505
 2821SOL     OW 8998   2.993   0.698   2.564
 2821SOL    HW1 8999   3.042   0.779   2.549
 2821SOL    HW2 9000   2.946   0.712   2.645
 2822SOL     OW 9001   3.628   0.606   2.091
 2822SOL    HW1 9002   3.608   0.598   1.997
 2822SOL    HW2 9003   3.594   0.526   2.129
 2823SOL     OW 9004   2.618   1.142   2.903
 2823SOL    HW1 9005   2.549   1.177   2.960
 2823SOL    HW2 9006   2.653   1.219   2.858
 2824SOL     OW 9007   2.728   0.777   3.685
 2824SOL    HW1 9008   2.716   0.848   3.747
 2824SOL    HW2 9009   2.752   0.820   3.603
 2825SOL     OW 9010   2.548   1.003   2.509
 2825SOL    HW1 9011   2.613   0.991   2.578
 2825SOL    HW2 9012   2.479   1.055   2.549
 2826SOL     OW 9013   2.572   1.151   3.673
 2826SOL    HW1 9014   2.619   1.229   3.701
 2826SOL    HW2 9015   2.489   1.183   3.640
 2827SOL     OW 9016   2.193   1.424   2.928
 2827SOL    HW1 9017   2.120   1.387   2.879
 2827SOL    HW2 9018   2.243   1.474   2.863
 2828SOL     OW 9019   3.322   1.499   3.217
 2828SOL    HW1 9020   3.372   1.581   3.225
 2828SOL    HW2 9021   3.260   1.502   3.291
 2829SOL     OW 9022   2.306   0.398   3.348
 2829SOL    HW1 9023   2.381   0.338   3.346
 2829SOL    HW2 9024   2.231   0.341   3.363
 2830SOL     OW 9025   3.472   0.451   2.600
 2830SOL    HW1 9026   3.397   0.475   2.546
 2830SOL    HW2 9027   3.491   0.530   2.651
 2831SOL     OW 9028   2.081   1.715   2.334
 2831SOL    HW1 9029   2.103   1.791   2.387
 2831SOL    HW2 9030   2.155   1.705   2.273
 2832SOL     OW 9031   2.993   1.343   3.558
 2832SOL    HW1 9032   3.039   1.336   3.642
 2832SOL    HW2 9033   2.942   1.263   3.550
 2833SOL     OW 9034   2.092   1.441   2.397
 2833SOL    HW1 9035   2.074   1.535   2.401
 2833SOL    HW2 9036   2.032   1.403   2.461
 2834SOL     OW 9037   2.120   1.090   2.753
 2834SOL    HW1 9038   2.116   1.003   2.794
 2834SOL    HW2 9039   2.062   1.144   2.807
 2835SOL     OW 9040   2.447   0.982   1.996
 2835SOL    HW1 9041   2.493   1.030   1.928
 2835SOL    HW2 9042   2.487   1.012   2.078
 2836SOL     OW 9043   3.448   0.135   3.318
 2836SOL    HW1 9044   3.470   0.220   3.279
 2836SOL    HW2 9045   3.446   0.152   3.412
 2837SOL     OW 9046   1.976   0.654   2.421
 2837SOL    HW1 9047   1.949   0.564   2.443
 2837SOL    HW2 9048   1.969   0.701   2.504
 2838SOL     OW 9049   3.704   1.759   2.197
 2838SOL    HW1 9050   3.769   1.730   2.262
 2838SOL    HW2 9051   3.728   1.849   2.178
 2839SOL     OW 9052   1.894   1.595   1.986
 2839SOL    HW1 9053   1.877   1.503   2.005
 2839SOL    HW2 9054   1.870   1.642   2.066
 2840SOL     OW 9055   3.551   0.919   2.503
 2840SOL    HW1 9056   3.634   0.876   2.482
 2840SOL    HW2 9057   3.529   0.969   2.425
 2841SOL     OW 9058   3.508   1.106   2.291
 2841SOL    HW1 9059   3.594   1.112   2.249
 2841SOL    HW2 9060   3.513   1.168   2.365
 2842SOL     OW 9061   1.984   0.744   3.446
 2842SOL    HW1 9062   2.076   0.770   3.455
 2842SOL    HW2 9063   1.936   0.826   3.455
 2843SOL     OW 9064   2.475   1.385   2.597
 2843SOL    HW1 9065   2.429   1.302   2.606
 2843SOL    HW2 9066   2.459   1.412   2.506
 2844SOL     OW 9067   3.150   1.236   3.287
 2844SOL    HW1 9068   3.182   1.170   3.226
 2844SOL    HW2 9069   3.209   1.231   3.362
 2845SOL     OW 9070   2.673   0.027   2.390
 2845SOL    HW1 9071   2.701   0.115   2.365
 2845SOL    HW2 9072   2.577   0.031   2.384
 2846SOL     OW 9073   2.052   0.966   3.133
 2846SOL    HW1 9074   2.137   0.924   3.118
 2846SOL    HW2 9075   1.990   0.912   3.086
 2847SOL     OW 9076   3.393   0.994   2.060
 2847SOL    HW1 9077   3.324   0.936   2.092
 2847SOL    HW2 9078   3.434   1.028   2.140
 2848SOL     OW 9079   2.189   0.266   3.673
 2848SOL    HW1 9080   2.241   0.342   3.702
 2848SOL    HW2 9081   2.103   0.280   3.712
 2849SOL     OW 9082   3.329   1.420   2.813
 2849SOL    HW1 9083   3.260   1.435   2.879
 2849SOL    HW2 9084   3.316   1.329   2.786
 2850SOL     OW 9085   3.520   1.740   2.440
 2850SOL    HW1 9086   3.501   1.710   2.351
 2850SOL    HW2 9087   3.495   1.666   2.496
 2851SOL     OW 9088   2.457   0.721   2.128
 2851SOL    HW1 9089   2.462   0.802   2.078
 2851SOL    HW2 9090   2.391   0.739   2.196
 2852SOL     OW 9091   3.140   0.347   2.793
 2852SOL    HW1 9092   3.049   0.319   2.805
 2852SOL    HW2 9093   3.190   0.297   2.857
 2853SOL     OW 9094   3.443   1.670   2.171
 2853SOL    HW1 9095   3.533   1.701   2.164
 2853SOL    HW2 9096   3.416   1.653   2.081
 2854SOL     OW 9097   2.656   0.618   3.312
 2854SOL    HW1 9098   2.629   0.597   3.401
 2854SOL    HW2 9099   2.614   0.552   3.257
 2855SOL     OW 9100   3.257   0.475   3.540
 2855SOL    HW1 9101   3.259   0.520   3.625
 2855SOL    HW2 9102   3.320   0.404   3.549
 2856SOL     OW 9103   2.817   0.888   3.444
 2856SOL    HW1 9104   2.872   0.817   3.409
 2856SOL    HW2 9105   2.769   0.921   3.369
 2857SOL     OW 9106   2.856   0.417   3.097
 2857SOL    HW1 9107   2.771   0.438   3.135
 2857SOL    HW2 9108   2.835   0.368   3.017
 2858SOL     OW 9109   2.913   0.698   2.289
 2858SOL    HW1 9110   2.928   0.691   2.383
 2858SOL    HW2 9111   2.830   0.652   2.274
 2859SOL     OW 9112   1.950   0.821   2.639
 2859SOL    HW1 9113   2.031   0.814   2.689
 2859SOL    HW2 9114   1.907   0.899   2.673
 2860SOL     OW 9115   2.003   1.836   3.438
 2860SOL    HW1 9116   1.999   1.822   3.532
 2860SOL    HW2 9117   1.912   1.848   3.411
 2861SOL     OW 9118   2.736   0.364   2.051
 2861SOL    HW1 9119   2.777   0.424   1.989
 2861SOL    HW2 9120   2.790   0.285   2.048
 2862SOL     OW 9121   3.570   0.574   3.690
 2862SOL    HW1 9122   3.532   0.648   3.642
 2862SOL    HW2 9123   3.599   0.514   3.622
 2863SOL     OW 9124   3.239   1.142   2.403
 2863SOL    HW1 9125   3.318   1.129   2.350
 2863SOL    HW2 9126   3.186   1.204   2.353
 2864SOL     OW 9127   2.388   0.202   2.744
 2864SOL    HW1 9128   2.410   0.217   2.836
 2864SOL    HW2 9129   2.410   0.284   2.700
 2865SOL     OW 9130   2.868   1.444   2.334
 2865SOL    HW1 9131   2.830   1.517   2.284
 2865SOL    HW2 9132   2.850   1.466   2.425
 2866SOL     OW 9133   2.218   1.808   2.724
 2866SOL    HW1 9134   2.257   1.721   2.731
 2866SOL    HW2 9135   2.290   1.868   2.740
 2867SOL     OW 9136   3.661   1.057   2.730
 2867SOL    HW1 9137   3.607   1.039   2.654
 2867SOL    HW2 9138   3.599   1.062   2.803
 2868SOL     OW 9139   3.086   1.530   3.372
 2868SOL    HW1 9140   3.071   1.459   3.433
 2868SOL    HW2 9141   3.034   1.507   3.295
 2869SOL     OW 9142   2.182   0.958   2.112
 2869SOL    HW1 9143   2.264   0.976   2.067
 2869SOL    HW2 9144   2.151   0.875   2.074
 2870SOL     OW 9145   3.340   0.743   2.589
 2870SOL    HW1 9146   3.332   0.700   2.674
 2870SOL    HW2 9147   3.418   0.798   2.598
 2871SOL     OW 9148   2.328   1.264   3.599
 2871SOL    HW1 9149   2.300   1.270   3.508
 2871SOL    HW2 9150   2.247   1.261   3.649
 2872SOL     OW 9151   2.984   1.778   2.093
 2872SOL    HW1 9152   2.910   1.737   2.138
 2872SOL    HW2 9153   3.007   1.716   2.023
 2873SOL     OW 9154   2.059   0.278   3.365
 2873SOL    HW1 9155   1.980   0.331   3.361
 2873SOL    HW2 9156   2.051   0.229   3.447
 2874SOL     OW 9157   3.490   1.380   1.950
 2874SOL    HW1 9158   3.449   1.465   1.935
 2874SOL    HW2 9159   3.422   1.316   1.931
 2875SOL     OW 9160   2.328   1.735   2.185
 2875SOL    HW1 9161   2.371   1.795   2.247
 2875SOL    HW2 9162   2.398   1.708   2.125
 2876SOL     OW 9163   3.269   0.100   2.293
 2876SOL    HW1 9164   3.261   0.082   2.200
 2876SOL    HW2 9165   3.361   0.122   2.306
 2877SOL     OW 9166   2.111   1.790   3.092
 2877SOL    HW1 9167   2.163   1.730   3.146
 2877SOL    HW2 9168   2.112   1.751   3.004
 2878SOL     OW 9169   2.797   1.698   2.759
 2878SOL    HW1 9170   2.876   1.648   2.782
 2878SOL    HW2 9171   2.756   1.647   2.689
 2879SOL     OW 9172   2.254   0.696   2.338
 2879SOL    HW1 9173   2.276   0.603   2.349
 2879SOL    HW2 9174   2.161   0.702   2.356
 2880SOL     OW 9175   3.401   0.228   3.585
 2880SOL    HW1 9176   3.408   0.245   3.679
 2880SOL    HW2 9177   3.325   0.169   3.578
 2881SOL     OW 9178   2.486   0.132   1.969
 2881SOL    HW1 9179   2.550   0.065   1.994
 2881SOL    HW2 9180   2.435   0.092   1.899
 2882SOL     OW 9181   2.643   0.313   3.629
 2882SOL    HW1 9182   2.701   0.236   3.630
 2882SOL    HW2 9183   2.595   0.306   3.712
 2883SOL     OW 9184   2.727   1.513   3.052
 2883SOL    HW1 9185   2.719   1.477   2.963
 2883SOL    HW2 9186   2.804   1.469   3.088
 2884SOL     OW 9187   3.203   0.589   3.294
 2884SOL    HW1 9188   3.233   0.558   3.379
 2884SOL    HW2 9189   3.239   0.677   3.287
 2885SOL     OW 9190   2.677   1.393   2.799
 2885SOL    HW1 9191   2.761   1.382   2.755
 2885SOL    HW2 9192   2.613   1.395   2.728
 2886SOL     OW 9193   2.789   0.510   2.765
 2886SOL    HW1 9194   2.766   0.502   2.673
 2886SOL    HW2 9195   2.821   0.423   2.790
 2887SOL     OW 9196   2.404   0.062   2.370
 2887SOL    HW1 9197   2.319   0.061   2.413
 2887SOL    HW2 9198   2.397   0.132   2.305
 2888SOL     OW 9199   3.290   1.198   1.903
 2888SOL    HW1 9200   3.320   1.123   1.953
 2888SOL    HW2 9201   3.204   1.219   1.940
 2889SOL     OW 9202   2.163   0.062   2.053
 2889SOL    HW1 9203   2.222   0.132   2.023
 2889SOL    HW2 9204   2.219   5.286   2.063
 2890SOL     OW 9205   2.801   0.262   2.324
 2890SOL    HW1 9206   2.773   0.300   2.241
 2890SOL    HW2 9207   2.896   0.273   2.325
 2891SOL     OW 9208   2.943   0.681   3.321
 2891SOL    HW1 9209   2.874   0.615   3.327
 2891SOL    HW2 9210   3.024   0.631   3.315
 2892SOL     OW 9211   3.085   1.569   2.655
 2892SOL    HW1 9212   3.101   1.637   2.589
 2892SOL    HW2 9213   3.152   1.584   2.722
 2893SOL     OW 9214   2.331   1.149   2.596
 2893SOL    HW1 9215   2.261   1.130   2.659
 2893SOL    HW2 9216   2.291   1.133   2.510
 2894SOL     OW 9217   3.131   1.794   2.471
 2894SOL    HW1 9218   3.177   1.855   2.413
 2894SOL    HW2 9219   3.064   1.847   2.514
 2895SOL     OW 9220   2.888   0.546   1.884
 2895SOL    HW1 9221   2.845   0.630   1.866
 2895SOL    HW2 9222   2.951   0.566   1.953
 2896SOL     OW 9223   1.941   0.553   3.255
 2896SOL    HW1 9224   2.032   0.553   3.227
 2896SOL    HW2 9225   1.935   0.624   3.319
 2897SOL     OW 9226   2.417   0.238   3.020
 2897SOL    HW1 9227   2.449   0.152   3.049
 2897SOL    HW2 9228   2.325   0.239   3.046
 2898SOL     OW 9229   2.729   0.462   2.503
 2898SOL    HW1 9230   2.683   0.516   2.438
 2898SOL    HW2 9231   2.752   0.382   2.456
 2899SOL     OW 9232   2.840   0.061   2.625
 2899SOL    HW1 9233   2.775   0.056   2.555
 2899SOL    HW2 9234   2.850   5.271   2.655
 2900SOL     OW 9235   3.299   1.163   2.719
 2900SOL    HW1 9236   3.230   1.097   2.717
 2900SOL    HW2 9237   3.324   1.174   2.627
 2901SOL     OW 9238   3.328   0.606   2.840
 2901SOL    HW1 9239   3.279   0.524   2.843
 2901SOL    HW2 9240   3.389   0.601   2.914
 2902SOL     OW 9241   3.707   0.816   2.245
 2902SOL    HW1 9242   3.763   0.765   2.303
 2902SOL    HW2 9243   3.679   0.754   2.178
 2903SOL     OW 9244   2.352   1.418   2.018
 2903SOL    HW1 9245   2.277   1.389   2.070
 2903SOL    HW2 9246   2.339   1.378   1.933
 2904SOL     OW 9247   3.532   1.264   2.508
 2904SOL    HW1 9248   3.627   1.267   2.521
 2904SOL    HW2 9249   3.502   1.353   2.529
 2905SOL     OW 9250   3.256   0.572   1.933
 2905SOL    HW1 9251   3.195   0.552   2.004
 2905SOL    HW2 9252   3.341   0.541   1.965
 2906SOL     OW 9253   2.385   0.265   2.183
 2906SOL    HW1 9254   2.430   0.216   2.114
 2906SOL    HW2 9255   2.365   0.349   2.143
 2907SOL     OW 9256   3.614   1.239   3.435
 2907SOL    HW1 9257   3.702   1.200   3.431
 2907SOL    HW2 9258   3.630   1.330   3.463
 2908SOL     OW 9259   2.922   1.355   3.199
 2908SOL    HW1 9260   2.846   1.322   3.246
 2908SOL    HW2 9261   2.996   1.310   3.237
 2909SOL     OW 9262   3.470   1.626   3.517
 2909SOL    HW1 9263   3.463   1.659   3.427
 2909SOL    HW2 9264   3.553   1.579   3.518
 2910SOL     OW 9265   2.991   1.205   2.968
 2910SOL    HW1 9266   2.929   1.242   3.031
 2910SOL    HW2 9267   2.959   1.236   2.883
 2911SOL     OW 9268   3.490   1.098   2.939
 2911SOL    HW1 9269   3.485   1.160   3.012
 2911SOL    HW2 9270   3.411   1.115   2.888
 2912SOL     OW 9271   2.766   0.106   3.251
 2912SOL    HW1 9272   2.797   0.072   3.167
 2912SOL    HW2 9273   2.843   0.149   3.289
 2913SOL     OW 9274   2.845   1.115   3.584
 2913SOL    HW1 9275   2.753   1.129   3.606
 2913SOL    HW2 9276   2.845   1.037   3.528
 2914SOL     OW 9277   2.571   1.062   2.233
 2914SOL    HW1 9278   2.557   1.045   2.326
 2914SOL    HW2 9279   2.647   1.008   2.210
 2915SOL     OW 9280   2.281   0.815   3.113
 2915SOL    HW1 9281   2.349   0.824   3.180
 2915SOL    HW2 9282   2.245   0.727   3.127
 2916SOL     OW 9283   3.129   0.379   3.134
 2916SOL    HW1 9284   3.162   0.456   3.181
 2916SOL    HW2 9285   3.039   0.401   3.112
 2917SOL     OW 9286   1.931   1.572   3.214
 2917SOL    HW1 9287   1.905   1.649   3.163
 2917SOL    HW2 9288   2.027   1.574   3.211
 2918SOL     OW 9289   2.210   1.109   2.353
 2918SOL    HW1 9290   2.216   1.182   2.291
 2918SOL    HW2 9291   2.208   1.031   2.297
 2919SOL     OW 9292   2.415   0.537   2.723
 2919SOL    HW1 9293   2.430   0.595   2.648
 2919SOL    HW2 9294   2.481   0.564   2.787
 2920SOL     OW 9295   3.110   1.348   2.251
 2920SOL    HW1 9296   3.166   1.420   2.282
 2920SOL    HW2 9297   3.023   1.370   2.285
 2921SOL     OW 9298   3.144   1.457   3.009
 2921SOL    HW1 9299   3.199   1.460   3.087
 2921SOL    HW2 9300   3.089   1.379   3.021
 2922SOL     OW 9301   3.444   0.622   2.341
 2922SOL    HW1 9302   3.397   0.677   2.404
 2922SOL    HW2 9303   3.489   0.685   2.284
 2923SOL     OW 9304   2.206   1.522   3.177
 2923SOL    HW1 9305   2.196   1.481   3.091
 2923SOL    HW2 9306   2.300   1.536   3.186
 2924SOL     OW 9307   2.276   0.744   3.464
 2924SOL    HW1 9308   2.338   0.789   3.406
 2924SOL    HW2 9309   2.318   0.660   3.482
 2925SOL     OW 9310   3.463   0.779   3.544
 2925SOL    HW1 9311   3.377   0.820   3.537
 2925SOL    HW2 9312   3.516   0.821   3.476
 2926SOL     OW 9313   2.907   0.116   3.646
 2926SOL    HW1 9314   2.932   0.196   3.599
 2926SOL    HW2 9315   2.912   0.047   3.581
 2927SOL     OW 9316   2.345   0.057   3.600
 2927SOL    HW1 9317   2.286   5.292   3.561
 2927SOL    HW2 9318   2.288   0.131   3.622
 2928SOL     OW 9319   2.446   0.872   2.894
 2928SOL    HW1 9320   2.476   0.963   2.892
 2928SOL    HW2 9321   2.389   0.867   2.970
 2929SOL     OW 9322   3.219   0.859   2.892
 2929SOL    HW1 9323   3.137   0.849   2.845
 2929SOL    HW2 9324   3.260   0.772   2.886
 2930SOL     OW 9325   3.068   0.528   2.129
 2930SOL    HW1 9326   3.072   0.448   2.180
 2930SOL    HW2 9327   3.025   0.591   2.187
 2931SOL     OW 9328   2.158   0.204   3.110
 2931SOL    HW1 9329   2.119   0.243   3.188
 2931SOL    HW2 9330   2.158   0.110   3.127
 2932SOL     OW 9331   1.907   1.310   3.138
 2932SOL    HW1 9332   1.941   1.257   3.210
 2932SOL    HW2 9333   1.915   1.400   3.170
 2933SOL     OW 9334   2.588   0.632   2.922
 2933SOL    HW1 9335   2.661   0.615   2.863
 2933SOL    HW2 9336   2.558   0.720   2.899
 2934SOL     OW 9337   3.596   0.960   3.714
 2934SOL    HW1 9338   3.551   0.898   3.658
 2934SOL    HW2 9339   3.537   0.973   3.788
 2935SOL     OW 9340   2.165   0.072   2.514
 2935SOL    HW1 9341   2.148   0.166   2.521
 2935SOL    HW2 9342   2.208   0.049   2.596
 2936SOL     OW 9343   3.474   0.375   2.227
 2936SOL    HW1 9344   3.507   0.311   2.290
 2936SOL    HW2 9345   3.454   0.452   2.279
 2937SOL     OW 9346   2.890   0.759   2.823
 2937SOL    HW1 9347   2.886   0.777   2.917
 2937SOL    HW2 9348   2.863   0.668   2.814
 2938SOL     OW 9349   2.847   1.573   3.567
 2938SOL    HW1 9350   2.863   1.616   3.483
 2938SOL    HW2 9351   2.885   1.486   3.557
 2939SOL     OW 9352   3.716   1.506   3.467
 2939SOL    HW1 9353   3.735   1.532   3.377
 2939SOL    HW2 9354   3.798   1.524   3.514
 2940SOL     OW 9355   2.216   0.917   3.670
 2940SOL    HW1 9356   2.297   0.934   3.717
 2940SOL    HW2 9357   2.240   0.854   3.602
 2941SOL     OW 9358   3.388   0.272   1.988
 2941SOL    HW1 9359   3.324   0.208   2.019
 2941SOL    HW2 9360   3.424   0.310   2.068
 2942SOL     OW 9361   3.154   0.826   1.893
 2942SOL    HW1 9362   3.196   0.741   1.897
 2942SOL    HW2 9363   3.185   0.865   1.812
 2943SOL     OW 9364   2.928   1.335   2.716
 2943SOL    HW1 9365   2.931   1.263   2.653
 2943SOL    HW2 9366   2.989   1.400   2.681
 2944SOL     OW 9367   2.171   0.809   2.809
 2944SOL    HW1 9368   2.264   0.830   2.802
 2944SOL    HW2 9369   2.169   0.719   2.841
 2945SOL     OW 9370   2.194   0.526   2.875
 2945SOL    HW1 9371   2.158   0.439   2.859
 2945SOL    HW2 9372   2.271   0.531   2.817
 2946SOL     OW 9373   2.997   0.378   3.550
 2946SOL    HW1 9374   2.950   0.432   3.613
 2946SOL    HW2 9375   3.085   0.417   3.546
 2947SOL     OW 9376   2.995   0.222   3.328
 2947SOL    HW1 9377   2.999   0.281   3.403
 2947SOL    HW2 9378   3.051   0.264   3.262
 2948SOL     OW 9379   1.867   1.321   2.057
 2948SOL    HW1 9380   1.780   1.335   2.019
 2948SOL    HW2 9381   1.864   1.232   2.091
 2949SOL     OW 9382   1.951   1.789   2.797
 2949SOL    HW1 9383   1.921   1.708   2.755
 2949SOL    HW2 9384   2.042   1.798   2.768
 2950SOL     OW 9385   2.358   1.573   2.766
 2950SOL    HW1 9386   2.427   1.635   2.790
 2950SOL    HW2 9387   2.402   1.509   2.710
 2951SOL     OW 9388   2.845   0.793   3.089
 2951SOL    HW1 9389   2.901   0.769   3.163
 2951SOL    HW2 9390   2.760   0.754   3.110
 2952SOL     OW 9391   1.897   0.544   2.979
 2952SOL    HW1 9392   1.977   0.530   2.928
 2952SOL    HW2 9393   1.927   0.548   3.070
 2953SOL     OW 9394   2.049   0.522   3.589
 2953SOL    HW1 9395   2.112   0.487   3.526
 2953SOL    HW2 9396   2.009   0.596   3.543
 2954SOL     OW 9397   3.239   0.939   3.520
 2954SOL    HW1 9398   3.260   1.032   3.518
 2954SOL    HW2 9399   3.236   0.913   3.428
 2955SOL     OW 9400   2.676   0.572   2.224
 2955SOL    HW1 9401   2.680   0.498   2.164
 2955SOL    HW2 9402   2.602   0.625   2.194
 2956SOL     OW 9403   3.504   0.601   3.048
 2956SOL    HW1 9404   3.493   0.542   3.122
 2956SOL    HW2 9405   3.591   0.581   3.014
 2957SOL     OW 9406   2.103   1.546   3.595
 2957SOL    HW1 9407   2.079   1.610   3.662
 2957SOL    HW2 9408   2.104   1.462   3.641
 2958SOL     OW 9409   2.561   0.452   3.122
 2958SOL    HW1 9410   2.510   0.378   3.089
 2958SOL    HW2 9411   2.560   0.516   3.051
 2959SOL     OW 9412   2.325   0.493   2.045
 2959SOL    HW1 9413   2.385   0.563   2.068
 2959SOL    HW2 9414   2.240   0.535   2.036
 2960SOL     OW 9415   2.008   1.140   3.334
 2960SOL    HW1 9416   2.010   1.089   3.415
 2960SOL    HW2 9417   2.025   1.077   3.265
 2961SOL     OW 9418   3.188   1.047   3.085
 2961SOL    HW1 9419   3.211   0.984   3.018
 2961SOL    HW2 9420   3.117   1.099   3.046
 2962SOL     OW 9421   3.173   0.857   2.168
 2962SOL    HW1 9422   3.098   0.825   2.218
 2962SOL    HW2 9423   3.149   0.843   2.077
 2963SOL     OW 9424   3.633   1.744   3.011
 2963SOL    HW1 9425   3.694   1.770   2.942
 2963SOL    HW2 9426   3.610   1.654   2.990
 2964SOL     OW 9427   3.103   1.732   2.972
 2964SOL    HW1 9428   3.186   1.754   2.930
 2964SOL    HW2 9429   3.110   1.639   2.993
 2965SOL     OW 9430   1.946   1.267   2.874
 2965SOL    HW1 9431   1.931   1.280   2.968
 2965SOL    HW2 9432   1.873   1.212   2.846
 2966SOL     OW 9433   2.532   1.659   3.599
 2966SOL    HW1 9434   2.454   1.699   3.562
 2966SOL    HW2 9435   2.601   1.677   3.535
 2967SOL     OW 9436   3.574   0.149   2.364
 2967SOL    HW1 9437   3.650   0.128   2.309
 2967SOL    HW2 9438   3.567   0.074   2.424
 2968SOL     OW 9439   3.253   1.568   2.347
 2968SOL    HW1 9440   3.313   1.600   2.280
 2968SOL    HW2 9441   3.204   1.645   2.375
 2969SOL     OW 9442   1.995   1.799   3.706
 2969SOL    HW1 9443   1.945   1.732   3.752
 2969SOL    HW2 9444   2.048   1.840   3.774
 2970SOL     OW 9445   3.139   0.926   2.533
 2970SOL    HW1 9446   3.213   0.865   2.540
 2970SOL    HW2 9447   3.173   0.998   2.481
 2971SOL     OW 9448   2.677   1.272   3.291
 2971SOL    HW1 9449   2.647   1.311   3.374
 2971SOL    HW2 9450   2.609   1.295   3.228
 2972SOL     OW 9451   2.534   1.618   2.018
 2972SOL    HW1 9452   2.543   1.633   1.924
 2972SOL    HW2 9453   2.478   1.541   2.025
 2973SOL     OW 9454   3.489   1.725   3.253
 2973SOL    HW1 9455   3.539   1.732   3.171
 2973SOL    HW2 9456   3.473   1.816   3.279
 2974SOL     OW 9457   3.707   0.157   2.819
 2974SOL    HW1 9458   3.707   0.062   2.807
 2974SOL    HW2 9459   3.621   0.185   2.790
 2975SOL     OW 9460   2.124   0.329   2.581
 2975SOL    HW1 9461   2.036   0.360   2.559
 2975SOL    HW2 9462   2.122   0.317   2.676
 2976SOL     OW 9463   3.069   1.606   1.893
 2976SOL    HW1 9464   3.059   1.515   1.920
 2976SOL    HW2 9465   3.004   1.618   1.824
 2977SOL     OW 9466   2.686   1.005   3.234
 2977SOL    HW1 9467   2.730   1.000   3.149
 2977SOL    HW2 9468   2.686   1.098   3.256
 2978SOL     OW 9469   2.778   0.911   2.152
 2978SOL    HW1 9470   2.839   0.942   2.086
 2978SOL    HW2 9471   2.826   0.841   2.197
 2979SOL     OW 9472   3.354   1.625   1.905
 2979SOL    HW1 9473   3.259   1.619   1.891
 2979SOL    HW2 9474   3.391   1.631   1.816
 2980SOL     OW 9475   2.231   1.302   3.354
 2980SOL    HW1 9476   2.217   1.379   3.299
 2980SOL    HW2 9477   2.154   1.247   3.338
 2981SOL     OW 9478   3.472   1.283   3.142
 2981SOL    HW1 9479   3.533   1.273   3.215
 2981SOL    HW2 9480   3.412   1.352   3.171
 2982SOL     OW 9481   2.914   1.107   2.569
 2982SOL    HW1 9482   2.843   1.056   2.607
 2982SOL    HW2 9483   2.976   1.042   2.537
 2983SOL     OW 9484   2.881   0.243   2.830
 2983SOL    HW1 9485   2.861   0.197   2.748
 2983SOL    HW2 9486   2.874   0.176   2.898
 2984SOL     OW 9487   2.465   1.488   2.343
 2984SOL    HW1 9488   2.510   1.438   2.275
 2984SOL    HW2 9489   2.397   1.537   2.296
 2985SOL     OW 9490   3.586   0.387   3.240
 2985SOL    HW1 9491   3.656   0.452   3.240
 2985SOL    HW2 9492   3.618   0.317   3.182
 2986SOL     OW 9493   2.121   1.345   2.150
 2986SOL    HW1 9494   2.028   1.343   2.128
 2986SOL    HW2 9495   2.124   1.382   2.238
 2987SOL     OW 9496   1.975   1.022   3.582
 2987SOL    HW1 9497   1.898   0.999   3.634
 2987SOL    HW2 9498   2.049   0.984   3.628
 2988SOL     OW 9499   2.534   0.211   3.350
 2988SOL    HW1 9500   2.618   0.194   3.307
 2988SOL    HW2 9501   2.558   0.261   3.429
 2989SOL     OW 9502   1.939   0.339   1.903
 2989SOL    HW1 9503   1.856   0.306   1.870
 2989SOL    HW2 9504   1.960   0.412   1.845
 2990SOL     OW 9505   3.292   0.859   3.262
 2990SOL    HW1 9506   3.243   0.919   3.207
 2990SOL    HW2 9507   3.381   0.861   3.228
 2991SOL     OW 9508   1.934   0.167   2.177
 2991SOL    HW1 9509   1.935   0.250   2.129
 2991SOL    HW2 9510   2.018   0.126   2.157
 2992SOL     OW 9511   3.041   1.339   1.979
 2992SOL    HW1 9512   2.950   1.308   1.982
 2992SOL    HW2 9513   3.069   1.340   2.071
 2993SOL     OW 9514   2.481   0.830   3.295
 2993SOL    HW1 9515   2.537   0.907   3.280
 2993SOL    HW2 9516   2.542   0.757   3.304
 2994SOL     OW 9517   3.348   1.780   2.844
 2994SOL    HW1 9518   3.372   1.835   2.769
 2994SOL    HW2 9519   3.431   1.756   2.884
 2995SOL     OW 9520   2.578   0.572   3.564
 2995SOL    HW1 9521   2.618   0.635   3.624
 2995SOL    HW2 9522   2.608   0.487   3.596
 2996SOL     OW 9523   3.333   1.201   3.494
 2996SOL    HW1 9524   3.322   1.213   3.588
 2996SOL    HW2 9525   3.427   1.215   3.479
 2997SOL     OW 9526   2.256   1.710   3.434
 2997SOL    HW1 9527   2.180   1.765   3.417
 2997SOL    HW2 9528   2.221   1.634   3.480
 2998SOL     OW 9529   3.531   0.881   3.117
 2998SOL    HW1 9530   3.525   0.796   3.074
 2998SOL    HW2 9531   3.522   0.945   3.046
 2999SOL     OW 9532   3.082   0.319   2.328
 2999SOL    HW1 9533   3.145   0.247   2.321
 2999SOL    HW2 9534   3.113   0.371   2.402
 3000SOL     OW 9535   2.451   0.738   2.532
 3000SOL    HW1 9536   2.491   0.824   2.516
 3000SOL    HW2 9537   2.384   0.730   2.465
 3001SOL     OW 9538   3.628   0.362   3.511
 3001SOL    HW1 9539   3.609   0.376   3.418
 3001SOL    HW2 9540   3.557   0.306   3.542
 3002SOL     OW 9541   3.607   0.934   3.374
 3002SOL    HW1 9542   3.604   1.029   3.387
 3002SOL    HW2 9543   3.591   0.922   3.280
 3003SOL     OW 9544   2.723   1.367   1.896
 3003SOL    HW1 9545   2.685   1.396   1.979
 3003SOL    HW2 9546   2.742   1.449   1.849
 3004SOL     OW 9547   2.524   1.788   2.806
 3004SOL    HW1 9548   2.508   1.880   2.785
 3004SOL    HW2 9549   2.619   1.779   2.801
 3005SOL     OW 9550   2.729   0.967   2.717
 3005SOL    HW1 9551   2.779   0.895   2.756
 3005SOL    HW2 9552   2.695   1.016   2.792
 3006SOL     OW 9553   2.941   0.988   1.950
 3006SOL    HW1 9554   2.919   1.039   1.872
 3006SOL    HW2 9555   3.016   0.935   1.925
 3007SOL     OW 9556   3.716   1.554   2.706
 3007SOL    HW1 9557   3.638   1.542   2.652
 3007SOL    HW2 9558   3.708   1.488   2.774
 3008SOL     OW 9559   2.087   1.300   3.719
 3008SOL    HW1 9560   2.020   1.239   3.689
 3008SOL    HW2 9561   2.069   1.312   3.812
 3009SOL     OW 9562   1.946   1.234   2.527
 3009SOL    HW1 9563   1.951   1.185   2.609
 3009SOL    HW2 9564   2.014   1.195   2.472
 3010SOL     OW 9565   2.542   1.403   3.488
 3010SOL    HW1 9566   2.464   1.355   3.516
 3010SOL    HW2 9567   2.538   1.486   3.534
 3011SOL     OW 9568   3.676   0.177   3.094
 3011SOL    HW1 9569   3.642   0.088   3.100
 3011SOL    HW2 9570   3.694   0.190   3.001
 3012SOL     OW 9571   2.291   0.436   2.386
 3012SOL    HW1 9572   2.324   0.363   2.333
 3012SOL    HW2 9573   2.245   0.393   2.458
 3013SOL     OW 9574   3.562   1.489   2.958
 3013SOL    HW1 9575   3.481   1.465   2.913
 3013SOL    HW2 9576   3.574   1.420   3.023
 3014SOL     OW 9577   2.190   0.556   3.152
 3014SOL    HW1 9578   2.246   0.501   3.207
 3014SOL    HW2 9579   2.211   0.529   3.063
 3015SOL     OW 9580   2.690   1.576   2.538
 3015SOL    HW1 9581   2.677   1.632   2.461
 3015SOL    HW2 9582   2.612   1.520   2.540
 3016SOL     OW 9583   3.290   0.218   2.978
 3016SOL    HW1 9584   3.327   0.144   3.026
 3016SOL    HW2 9585   3.241   0.268   3.044
 3017SOL     OW 9586   2.865   0.021   3.002
 3017SOL    HW1 9587   2.814   5.252   2.960
 3017SOL    HW2 9588   2.951   5.283   3.016
 3018SOL     OW 9589   2.634   1.333   2.177
 3018SOL    HW1 9590   2.603   1.242   2.183
 3018SOL    HW2 9591   2.716   1.333   2.226
 3019SOL     OW 9592   2.479   1.559   3.148
 3019SOL    HW1 9593   2.483   1.645   3.191
 3019SOL    HW2 9594   2.566   1.547   3.112
 3020SOL     OW 9595   3.218   0.039   2.024
 3020SOL    HW1 9596   3.250   5.296   1.945
 3020SOL    HW2 9597   3.138   5.291   2.046
 3021SOL     OW 9598   3.163   0.464   2.547
 3021SOL    HW1 9599   3.108   0.542   2.552
 3021SOL    HW2 9600   3.156   0.424   2.633
 3022SOL     OW 9601   3.456   0.215   2.744
 3022SOL    HW1 9602   3.390   0.227   2.812
 3022SOL    HW2 9603   3.449   0.294   2.690
 3023SOL     OW 9604   1.906   1.071   2.168
 3023SOL    HW1 9605   1.999   1.063   2.150
 3023SOL    HW2 9606   1.877   0.982   2.191
 3024SOL     OW 9607   2.746   1.652   2.204
 3024SOL    HW1 9608   2.674   1.635   2.143
 3024SOL    HW2 9609   2.717   1.727   2.256
 3025SOL     OW 9610   2.090   0.625   3.847
 3025SOL    HW1 9611   2.001   0.622   3.883
 3025SOL    HW2 9612   2.080   0.599   3.755
 3026SOL     OW 9613   2.080   0.284   4.717
 3026SOL    HW1 9614   2.109   0.249   4.801
 3026SOL    HW2 9615   1.995   0.243   4.701
 3027SOL     OW 9616   1.866   0.386   4.362
 3027SOL    HW1 9617   1.781   0.407   4.402
 3027SOL    HW2 9618   1.848   0.309   4.309
 3028SOL     OW 9619   2.427   1.286   4.899
 3028SOL    HW1 9620   2.340   1.292   4.861
 3028SOL    HW2 9621   2.446   1.375   4.930
 3029SOL     OW 9622   3.424   1.512   4.431
 3029SOL    HW1 9623   3.381   1.493   4.515
 3029SOL    HW2 9624   3.351   1.516   4.368
 3030SOL     OW 9625   2.993   0.698   4.425
 3030SOL    HW1 9626   3.042   0.779   4.411
 3030SOL    HW2 9627   2.946   0.712   4.507
 3031SOL     OW 9628   3.629   0.606   3.952
 3031SOL    HW1 9629   3.608   0.598   3.859
 3031SOL    HW2 9630   3.594   0.526   3.991
 3032SOL     OW 9631   2.616   1.140   4.765
 3032SOL    HW1 9632   2.547   1.175   4.822
 3032SOL    HW2 9633   2.652   1.218   4.721
 3033SOL     OW 9634   2.728   0.777   5.546
 3033SOL    HW1 9635   2.716   0.848   5.609
 3033SOL    HW2 9636   2.752   0.820   5.464
 3034SOL     OW 9637   2.548   1.003   4.371
 3034SOL    HW1 9638   2.613   0.991   4.440
 3034SOL    HW2 9639   2.479   1.055   4.412
 3035SOL     OW 9640   2.572   1.151   5.536
 3035SOL    HW1 9641   2.620   1.229   5.563
 3035SOL    HW2 9642   2.490   1.184   5.501
 3036SOL     OW 9643   2.193   1.426   4.792
 3036SOL    HW1 9644   2.120   1.389   4.741
 3036SOL    HW2 9645   2.243   1.477   4.728
 3037SOL     OW 9646   3.322   1.499   5.078
 3037SOL    HW1 9647   3.371   1.581   5.087
 3037SOL    HW2 9648   3.259   1.501   5.150
 3038SOL     OW 9649   2.306   0.398   5.210
 3038SOL    HW1 9650   2.381   0.338   5.208
 3038SOL    HW2 9651   2.230   0.341   5.225
 3039SOL     OW 9652   3.472   0.451   4.462
 3039SOL    HW1 9653   3.397   0.475   4.408
 3039SOL    HW2 9654   3.490   0.530   4.514
 3040SOL     OW 9655   2.086   1.720   4.202
 3040SOL    HW1 9656   2.125   1.791   4.252
 3040SOL    HW2 9657   2.150   1.701   4.133
 3041SOL     OW 9658   2.998   1.341   5.416
 3041SOL    HW1 9659   3.039   1.337   5.503
 3041SOL    HW2 9660   2.946   1.262   5.410
 3042SOL     OW 9661   2.089   1.443   4.258
 3042SOL    HW1 9662   2.071   1.536   4.269
 3042SOL    HW2 9663   2.032   1.400   4.322
 3043SOL     OW 9664   2.119   1.090   4.614
 3043SOL    HW1 9665   2.117   1.004   4.656
 3043SOL    HW2 9666   2.062   1.144   4.669
 3044SOL     OW 9667   2.472   1.793   5.151
 3044SOL    HW1 9668   2.391   1.774   5.199
 3044SOL    HW2 9669   2.495   1.881   5.178
 3045SOL     OW 9670   2.447   0.982   3.858
 3045SOL    HW1 9671   2.493   1.030   3.790
 3045SOL    HW2 9672   2.487   1.012   3.940
 3046SOL     OW 9673   3.448   0.135   5.180
 3046SOL    HW1 9674   3.470   0.220   5.141
 3046SOL    HW2 9675   3.446   0.152   5.274
 3047SOL     OW 9676   1.976   0.654   4.283
 3047SOL    HW1 9677   1.949   0.564   4.305
 3047SOL    HW2 9678   1.969   0.701   4.366
 3048SOL     OW 9679   3.704   1.759   4.060
 3048SOL    HW1 9680   3.769   1.731   4.124
 3048SOL    HW2 9681   3.728   1.850   4.040
 3049SOL     OW 9682   1.895   1.595   3.848
 3049SOL    HW1 9683   1.877   1.503   3.867
 3049SOL    HW2 9684   1.871   1.641   3.927
 3050SOL     OW 9685   3.551   0.919   4.365
 3050SOL    HW1 9686   3.634   0.876   4.344
 3050SOL    HW2 9687   3.529   0.969   4.286
 3051SOL     OW 9688   3.508   1.107   4.153
 3051SOL    HW1 9689   3.594   1.112   4.111
 3051SOL    HW2 9690   3.513   1.168   4.226
 3052SOL     OW 9691   1.985   0.744   5.308
 3052SOL    HW1 9692   2.077   0.769   5.317
 3052SOL    HW2 9693   1.936   0.826   5.317
 3053SOL     OW 9694   2.475   1.385   4.456
 3053SOL    HW1 9695   2.430   1.301   4.466
 3053SOL    HW2 9696   2.458   1.411   4.365
 3054SOL     OW 9697   3.151   1.237   5.148
 3054SOL    HW1 9698   3.184   1.170   5.088
 3054SOL    HW2 9699   3.209   1.231   5.224
 3055SOL     OW 9700   2.673   0.027   4.252
 3055SOL    HW1 9701   2.701   0.115   4.227
 3055SOL    HW2 9702   2.577   0.031   4.246
 3056SOL     OW 9703   2.052   0.966   4.995
 3056SOL    HW1 9704   2.137   0.925   4.981
 3056SOL    HW2 9705   1.990   0.911   4.947
 3057SOL     OW 9706   3.393   0.994   3.922
 3057SOL    HW1 9707   3.323   0.937   3.954
 3057SOL    HW2 9708   3.435   1.028   4.002
 3058SOL     OW 9709   3.049   1.802   5.351
 3058SOL    HW1 9710   3.053   1.864   5.278
 3058SOL    HW2 9711   3.066   1.717   5.310
 3059SOL     OW 9712   2.189   0.266   5.536
 3059SOL    HW1 9713   2.241   0.342   5.563
 3059SOL    HW2 9714   2.103   0.280   5.574
 3060SOL     OW 9715   3.330   1.419   4.675
 3060SOL    HW1 9716   3.262   1.434   4.741
 3060SOL    HW2 9717   3.317   1.328   4.648
 3061SOL     OW 9718   3.519   1.742   4.302
 3061SOL    HW1 9719   3.501   1.711   4.214
 3061SOL    HW2 9720   3.495   1.668   4.359
 3062SOL     OW 9721   2.457   0.721   3.990
 3062SOL    HW1 9722   2.462   0.802   3.940
 3062SOL    HW2 9723   2.391   0.739   4.058
 3063SOL     OW 9724   3.140   0.347   4.655
 3063SOL    HW1 9725   3.049   0.319   4.667
 3063SOL    HW2 9726   3.190   0.297   4.719
 3064SOL     OW 9727   3.443   1.671   4.033
 3064SOL    HW1 9728   3.533   1.701   4.027
 3064SOL    HW2 9729   3.418   1.652   3.942
 3065SOL     OW 9730   2.657   0.618   5.174
 3065SOL    HW1 9731   2.629   0.597   5.263
 3065SOL    HW2 9732   2.614   0.552   5.119
 3066SOL     OW 9733   3.256   0.475   5.402
 3066SOL    HW1 9734   3.259   0.520   5.487
 3066SOL    HW2 9735   3.320   0.404   5.411
 3067SOL     OW 9736   2.816   0.888   5.306
 3067SOL    HW1 9737   2.871   0.818   5.271
 3067SOL    HW2 9738   2.769   0.922   5.230
 3068SOL     OW 9739   2.856   0.416   4.960
 3068SOL    HW1 9740   2.771   0.439   4.998
 3068SOL    HW2 9741   2.834   0.369   4.879
 3069SOL     OW 9742   2.913   0.698   4.150
 3069SOL    HW1 9743   2.928   0.691   4.245
 3069SOL    HW2 9744   2.830   0.652   4.136
 3070SOL     OW 9745   1.950   0.821   4.501
 3070SOL    HW1 9746   2.031   0.814   4.551
 3070SOL    HW2 9747   1.907   0.899   4.535
 3071SOL     OW 9748   1.988   1.849   5.302
 3071SOL    HW1 9749   1.989   1.828   5.395
 3071SOL    HW2 9750   1.897   1.838   5.276
 3072SOL     OW 9751   2.736   0.364   3.913
 3072SOL    HW1 9752   2.777   0.424   3.851
 3072SOL    HW2 9753   2.790   0.285   3.910
 3073SOL     OW 9754   3.570   0.574   5.552
 3073SOL    HW1 9755   3.532   0.648   5.504
 3073SOL    HW2 9756   3.599   0.514   5.484
 3074SOL     OW 9757   3.239   1.142   4.265
 3074SOL    HW1 9758   3.318   1.129   4.213
 3074SOL    HW2 9759   3.186   1.204   4.215
 3075SOL     OW 9760   2.389   0.202   4.606
 3075SOL    HW1 9761   2.410   0.217   4.698
 3075SOL    HW2 9762   2.410   0.284   4.563
 3076SOL     OW 9763   2.868   1.446   4.194
 3076SOL    HW1 9764   2.827   1.521   4.150
 3076SOL    HW2 9765   2.855   1.464   4.287
 3077SOL     OW 9766   3.661   1.057   4.592
 3077SOL    HW1 9767   3.606   1.039   4.516
 3077SOL    HW2 9768   3.599   1.062   4.665
 3078SOL     OW 9769   3.091   1.538   5.237
 3078SOL    HW1 9770   3.075   1.465   5.297
 3078SOL    HW2 9771   3.027   1.526   5.167
 3079SOL     OW 9772   2.182   0.958   3.974
 3079SOL    HW1 9773   2.264   0.976   3.929
 3079SOL    HW2 9774   2.151   0.875   3.936
 3080SOL     OW 9775   3.341   0.743   4.451
 3080SOL    HW1 9776   3.332   0.700   4.536
 3080SOL    HW2 9777   3.418   0.798   4.460
 3081SOL     OW 9778   2.328   1.264   5.462
 3081SOL    HW1 9779   2.301   1.269   5.370
 3081SOL    HW2 9780   2.246   1.263   5.511
 3082SOL     OW 9781   2.983   1.769   3.958
 3082SOL    HW1 9782   2.907   1.731   4.002
 3082SOL    HW2 9783   3.003   1.708   3.887
 3083SOL     OW 9784   2.059   0.277   5.227
 3083SOL    HW1 9785   1.980   0.332   5.223
 3083SOL    HW2 9786   2.051   0.229   5.309
 3084SOL     OW 9787   3.490   1.380   3.812
 3084SOL    HW1 9788   3.449   1.465   3.796
 3084SOL    HW2 9789   3.422   1.316   3.793
 3085SOL     OW 9790   2.319   1.716   4.026
 3085SOL    HW1 9791   2.350   1.776   4.095
 3085SOL    HW2 9792   2.398   1.694   3.977
 3086SOL     OW 9793   3.269   0.100   4.155
 3086SOL    HW1 9794   3.261   0.082   4.062
 3086SOL    HW2 9795   3.361   0.122   4.168
 3087SOL     OW 9796   2.104   1.782   4.960
 3087SOL    HW1 9797   2.165   1.721   5.002
 3087SOL    HW2 9798   2.109   1.762   4.867
 3088SOL     OW 9799   2.805   1.673   4.628
 3088SOL    HW1 9800   2.891   1.631   4.628
 3088SOL    HW2 9801   2.762   1.638   4.549
 3089SOL     OW 9802   2.254   0.696   4.200
 3089SOL    HW1 9803   2.275   0.604   4.210
 3089SOL    HW2 9804   2.161   0.702   4.218
 3090SOL     OW 9805   3.401   0.227   5.447
 3090SOL    HW1 9806   3.409   0.245   5.541
 3090SOL    HW2 9807   3.325   0.170   5.440
 3091SOL     OW 9808   2.486   0.132   3.831
 3091SOL    HW1 9809   2.550   0.065   3.856
 3091SOL    HW2 9810   2.435   0.092   3.761
 3092SOL     OW 9811   2.643   0.312   5.491
 3092SOL    HW1 9812   2.701   0.236   5.492
 3092SOL    HW2 9813   2.595   0.307   5.573
 3093SOL     OW 9814   2.731   1.513   4.927
 3093SOL    HW1 9815   2.727   1.496   4.832
 3093SOL    HW2 9816   2.808   1.464   4.956
 3094SOL     OW 9817   3.203   0.588   5.156
 3094SOL    HW1 9818   3.233   0.558   5.241
 3094SOL    HW2 9819   3.238   0.677   5.148
 3095SOL     OW 9820   2.673   1.388   4.661
 3095SOL    HW1 9821   2.760   1.384   4.619
 3095SOL    HW2 9822   2.612   1.391   4.587
 3096SOL     OW 9823   2.789   0.510   4.627
 3096SOL    HW1 9824   2.766   0.502   4.535
 3096SOL    HW2 9825   2.821   0.423   4.652
 3097SOL     OW 9826   2.404   0.062   4.232
 3097SOL    HW1 9827   2.319   0.061   4.275
 3097SOL    HW2 9828   2.397   0.132   4.167
 3098SOL     OW 9829   3.290   1.198   3.765
 3098SOL    HW1 9830   3.322   1.122   3.814
 3098SOL    HW2 9831   3.205   1.218   3.804
 3099SOL     OW 9832   2.163   0.062   3.915
 3099SOL    HW1 9833   2.222   0.132   3.886
 3099SOL    HW2 9834   2.219   5.286   3.924
 3100SOL     OW 9835   2.801   0.261   4.186
 3100SOL    HW1 9836   2.773   0.300   4.103
 3100SOL    HW2 9837   2.896   0.273   4.187
 3101SOL     OW 9838   2.943   0.681   5.184
 3101SOL    HW1 9839   2.874   0.615   5.189
 3101SOL    HW2 9840   3.024   0.631   5.177
 3102SOL     OW 9841   3.087   1.568   4.516
 3102SOL    HW1 9842   3.104   1.637   4.451
 3102SOL    HW2 9843   3.153   1.582   4.584
 3103SOL     OW 9844   2.330   1.150   4.457
 3103SOL    HW1 9845   2.262   1.130   4.520
 3103SOL    HW2 9846   2.290   1.133   4.372
 3104SOL     OW 9847   3.134   1.795   4.330
 3104SOL    HW1 9848   3.183   1.853   4.271
 3104SOL    HW2 9849   3.065   1.850   4.366
 3105SOL     OW 9850   2.888   0.546   3.746
 3105SOL    HW1 9851   2.845   0.630   3.728
 3105SOL    HW2 9852   2.951   0.566   3.815
 3106SOL     OW 9853   1.941   0.553   5.117
 3106SOL    HW1 9854   2.032   0.553   5.089
 3106SOL    HW2 9855   1.935   0.624   5.181
 3107SOL     OW 9856   2.417   0.238   4.882
 3107SOL    HW1 9857   2.449   0.152   4.911
 3107SOL    HW2 9858   2.325   0.239   4.908
 3108SOL     OW 9859   2.729   0.462   4.365
 3108SOL    HW1 9860   2.683   0.516   4.301
 3108SOL    HW2 9861   2.752   0.382   4.318
 3109SOL     OW 9862   2.840   0.061   4.486
 3109SOL    HW1 9863   2.775   0.056   4.417
 3109SOL    HW2 9864   2.850   5.270   4.517
 3110SOL     OW 9865   3.300   1.162   4.581
 3110SOL    HW1 9866   3.230   1.097   4.581
 3110SOL    HW2 9867   3.323   1.173   4.489
 3111SOL     OW 9868   3.328   0.606   4.701
 3111SOL    HW1 9869   3.279   0.524   4.705
 3111SOL    HW2 9870   3.389   0.601   4.775
 3112SOL     OW 9871   3.707   0.816   4.106
 3112SOL    HW1 9872   3.763   0.765   4.165
 3112SOL    HW2 9873   3.679   0.754   4.040
 3113SOL     OW 9874   2.353   1.415   3.879
 3113SOL    HW1 9875   2.278   1.389   3.932
 3113SOL    HW2 9876   2.336   1.377   3.793
 3114SOL     OW 9877   3.532   1.264   4.369
 3114SOL    HW1 9878   3.627   1.268   4.383
 3114SOL    HW2 9879   3.502   1.353   4.391
 3115SOL     OW 9880   3.256   0.572   3.795
 3115SOL    HW1 9881   3.195   0.552   3.866
 3115SOL    HW2 9882   3.341   0.541   3.827
 3116SOL     OW 9883   2.385   0.265   4.045
 3116SOL    HW1 9884   2.430   0.216   3.976
 3116SOL    HW2 9885   2.365   0.349   4.005
 3117SOL     OW 9886   3.615   1.239   5.297
 3117SOL    HW1 9887   3.702   1.200   5.293
 3117SOL    HW2 9888   3.630   1.329   5.326
 3118SOL     OW 9889   2.923   1.351   5.057
 3118SOL    HW1 9890   2.847   1.322   5.108
 3118SOL    HW2 9891   2.998   1.311   5.099
 3119SOL     OW 9892   3.470   1.626   5.378
 3119SOL    HW1 9893   3.464   1.659   5.289
 3119SOL    HW2 9894   3.553   1.578   5.380
 3120SOL     OW 9895   2.989   1.201   4.829
 3120SOL    HW1 9896   2.932   1.241   4.895
 3120SOL    HW2 9897   2.957   1.236   4.746
 3121SOL     OW 9898   3.490   1.098   4.801
 3121SOL    HW1 9899   3.486   1.160   4.874
 3121SOL    HW2 9900   3.411   1.115   4.750
 3122SOL     OW 9901   2.766   0.106   5.113
 3122SOL    HW1 9902   2.797   0.073   5.029
 3122SOL    HW2 9903   2.843   0.149   5.151
 3123SOL     OW 9904   2.846   1.114   5.447
 3123SOL    HW1 9905   2.754   1.131   5.468
 3123SOL    HW2 9906   2.845   1.037   5.391
 3124SOL     OW 9907   2.571   1.062   4.095
 3124SOL    HW1 9908   2.557   1.045   4.188
 3124SOL    HW2 9909   2.647   1.008   4.072
 3125SOL     OW 9910   2.280   0.815   4.975
 3125SOL    HW1 9911   2.349   0.824   5.042
 3125SOL    HW2 9912   2.245   0.727   4.990
 3126SOL     OW 9913   3.129   0.379   4.996
 3126SOL    HW1 9914   3.162   0.455   5.043
 3126SOL    HW2 9915   3.039   0.401   4.974
 3127SOL     OW 9916   1.931   1.572   5.076
 3127SOL    HW1 9917   1.902   1.646   5.023
 3127SOL    HW2 9918   2.027   1.576   5.073
 3128SOL     OW 9919   2.210   1.110   4.214
 3128SOL    HW1 9920   2.215   1.182   4.152
 3128SOL    HW2 9921   2.208   1.031   4.160
 3129SOL     OW 9922   2.415   0.537   4.584
 3129SOL    HW1 9923   2.430   0.595   4.510
 3129SOL    HW2 9924   2.481   0.564   4.649
 3130SOL     OW 9925   3.110   1.348   4.113
 3130SOL    HW1 9926   3.166   1.420   4.144
 3130SOL    HW2 9927   3.023   1.370   4.147
 3131SOL     OW 9928   3.144   1.455   4.869
 3131SOL    HW1 9929   3.199   1.460   4.948
 3131SOL    HW2 9930   3.086   1.381   4.886
 3132SOL     OW 9931   3.444   0.623   4.203
 3132SOL    HW1 9932   3.397   0.677   4.267
 3132SOL    HW2 9933   3.489   0.686   4.147
 3133SOL     OW 9934   2.209   1.523   5.041
 3133SOL    HW1 9935   2.196   1.482   4.955
 3133SOL    HW2 9936   2.303   1.538   5.046
 3134SOL     OW 9937   2.276   0.744   5.326
 3134SOL    HW1 9938   2.337   0.790   5.268
 3134SOL    HW2 9939   2.319   0.660   5.344
 3135SOL     OW 9940   3.463   0.778   5.405
 3135SOL    HW1 9941   3.377   0.820   5.399
 3135SOL    HW2 9942   3.516   0.821   5.337
 3136SOL     OW 9943   2.907   0.117   5.509
 3136SOL    HW1 9944   2.932   0.196   5.462
 3136SOL    HW2 9945   2.912   0.047   5.443
 3137SOL     OW 9946   2.345   0.057   5.463
 3137SOL    HW1 9947   2.286   5.293   5.422
 3137SOL    HW2 9948   2.288   0.131   5.484
 3138SOL     OW 9949   2.445   0.873   4.755
 3138SOL    HW1 9950   2.477   0.963   4.754
 3138SOL    HW2 9951   2.389   0.868   4.832
 3139SOL     OW 9952   3.220   0.859   4.753
 3139SOL    HW1 9953   3.136   0.850   4.708
 3139SOL    HW2 9954   3.260   0.772   4.748
 3140SOL     OW 9955   3.067   0.529   3.991
 3140SOL    HW1 9956   3.072   0.448   4.042
 3140SOL    HW2 9957   3.025   0.591   4.049
 3141SOL     OW 9958   2.158   0.204   4.972
 3141SOL    HW1 9959   2.119   0.243   5.049
 3141SOL    HW2 9960   2.158   0.110   4.989
 3142SOL     OW 9961   1.906   1.311   5.000
 3142SOL    HW1 9962   1.941   1.257   5.071
 3142SOL    HW2 9963   1.915   1.400   5.032
 3143SOL     OW 9964   2.587   0.632   4.783
 3143SOL    HW1 9965   2.661   0.615   4.725
 3143SOL    HW2 9966   2.558   0.720   4.761
 3144SOL     OW 9967   3.597   0.959   5.577
 3144SOL    HW1 9968   3.551   0.898   5.519
 3144SOL    HW2 9969   3.537   0.973   5.650
 3145SOL     OW 9970   2.165   0.072   4.376
 3145SOL    HW1 9971   2.147   0.166   4.382
 3145SOL    HW2 9972   2.208   0.050   4.458
 3146SOL     OW 9973   3.474   0.375   4.089
 3146SOL    HW1 9974   3.507   0.311   4.152
 3146SOL    HW2 9975   3.454   0.452   4.141
 3147SOL     OW 9976   2.890   0.759   4.684
 3147SOL    HW1 9977   2.886   0.777   4.778
 3147SOL    HW2 9978   2.863   0.668   4.676
 3148SOL     OW 9979   2.843   1.565   5.441
 3148SOL    HW1 9980   2.828   1.610   5.357
 3148SOL    HW2 9981   2.887   1.484   5.417
 3149SOL     OW 9982   3.717   1.505   5.329
 3149SOL    HW1 9983   3.735   1.532   5.239
 3149SOL    HW2 9984   3.798   1.524   5.376
 3150SOL     OW 9985   2.215   0.916   5.533
 3150SOL    HW1 9986   2.297   0.935   5.578
 3150SOL    HW2 9987   2.240   0.853   5.465
 3151SOL     OW 9988   3.388   0.272   3.850
 3151SOL    HW1 9989   3.324   0.208   3.881
 3151SOL    HW2 9990   3.424   0.310   3.930
 3152SOL     OW 9991   3.153   0.826   3.755
 3152SOL    HW1 9992   3.196   0.741   3.759
 3152SOL    HW2 9993   3.185   0.865   3.673
 3153SOL     OW 9994   2.928   1.336   4.577
 3153SOL    HW1 9995   2.931   1.263   4.515
 3153SOL    HW2 9996   2.991   1.400   4.543
 3154SOL     OW 9997   2.171   0.809   4.671
 3154SOL    HW1 9998   2.264   0.831   4.665
 3154SOL    HW2 9999   2.170   0.719   4.704
 3155SOL     OW10000   2.194   0.526   4.737
 3155SOL    HW110001   2.158   0.439   4.721
 3155SOL    HW210002   2.271   0.531   4.679
 3156SOL     OW10003   2.997   0.377   5.412
 3156SOL    HW110004   2.949   0.432   5.475
 3156SOL    HW210005   3.084   0.417   5.408
 3157SOL     OW10006   2.995   0.222   5.190
 3157SOL    HW110007   3.000   0.281   5.265
 3157SOL    HW210008   3.051   0.264   5.124
 3158SOL     OW10009   1.867   1.321   3.919
 3158SOL    HW110010   1.780   1.335   3.881
 3158SOL    HW210011   1.864   1.231   3.953
 3159SOL     OW10012   1.955   1.789   4.661
 3159SOL    HW110013   1.925   1.708   4.618
 3159SOL    HW210014   2.043   1.804   4.626
 3160SOL     OW10015   2.365   1.568   4.631
 3160SOL    HW110016   2.441   1.621   4.655
 3160SOL    HW210017   2.400   1.503   4.570
 3161SOL     OW10018   2.846   0.791   4.950
 3161SOL    HW110019   2.901   0.769   5.025
 3161SOL    HW210020   2.759   0.756   4.973
 3162SOL     OW10021   1.897   0.543   4.841
 3162SOL    HW110022   1.977   0.530   4.790
 3162SOL    HW210023   1.927   0.548   4.932
 3163SOL     OW10024   2.049   0.522   5.451
 3163SOL    HW110025   2.113   0.487   5.388
 3163SOL    HW210026   2.009   0.596   5.405
 3164SOL     OW10027   3.239   0.939   5.383
 3164SOL    HW110028   3.260   1.032   5.381
 3164SOL    HW210029   3.236   0.913   5.290
 3165SOL     OW10030   2.676   0.572   4.086
 3165SOL    HW110031   2.680   0.498   4.026
 3165SOL    HW210032   2.602   0.625   4.055
 3166SOL     OW10033   3.504   0.601   4.910
 3166SOL    HW110034   3.493   0.542   4.984
 3166SOL    HW210035   3.591   0.581   4.876
 3167SOL     OW10036   2.104   1.551   5.451
 3167SOL    HW110037   2.083   1.616   5.519
 3167SOL    HW210038   2.107   1.468   5.498
 3168SOL     OW10039   2.561   0.452   4.984
 3168SOL    HW110040   2.510   0.378   4.950
 3168SOL    HW210041   2.560   0.516   4.913
 3169SOL     OW10042   2.789   1.678   5.191
 3169SOL    HW110043   2.766   1.641   5.106
 3169SOL    HW210044   2.784   1.773   5.178
 3170SOL     OW10045   2.325   0.493   3.907
 3170SOL    HW110046   2.385   0.563   3.930
 3170SOL    HW210047   2.240   0.535   3.898
 3171SOL     OW10048   2.007   1.140   5.196
 3171SOL    HW110049   2.010   1.089   5.277
 3171SOL    HW210050   2.025   1.077   5.127
 3172SOL     OW10051   3.188   1.047   4.947
 3172SOL    HW110052   3.211   0.984   4.879
 3172SOL    HW210053   3.117   1.099   4.909
 3173SOL     OW10054   3.173   0.857   4.030
 3173SOL    HW110055   3.098   0.825   4.081
 3173SOL    HW210056   3.149   0.843   3.939
 3174SOL     OW10057   3.632   1.744   4.873
 3174SOL    HW110058   3.694   1.769   4.804
 3174SOL    HW210059   3.608   1.654   4.853
 3175SOL     OW10060   3.124   1.736   4.845
 3175SOL    HW110061   3.201   1.746   4.790
 3175SOL    HW210062   3.115   1.641   4.857
 3176SOL     OW10063   1.946   1.266   4.736
 3176SOL    HW110064   1.932   1.280   4.830
 3176SOL    HW210065   1.873   1.212   4.708
 3177SOL     OW10066   2.538   1.666   5.452
 3177SOL    HW110067   2.486   1.745   5.451
 3177SOL    HW210068   2.604   1.679   5.384
 3178SOL     OW10069   3.574   0.149   4.226
 3178SOL    HW110070   3.649   0.128   4.171
 3178SOL    HW210071   3.567   0.074   4.286
 3179SOL     OW10072   3.252   1.567   4.208
 3179SOL    HW110073   3.313   1.600   4.142
 3179SOL    HW210074   3.205   1.645   4.237
 3180SOL     OW10075   1.997   1.797   5.568
 3180SOL    HW110076   1.947   1.731   5.616
 3180SOL    HW210077   2.046   1.844   5.635
 3181SOL     OW10078   3.139   0.925   4.394
 3181SOL    HW110079   3.213   0.865   4.402
 3181SOL    HW210080   3.173   0.998   4.342
 3182SOL     OW10081   2.678   1.272   5.155
 3182SOL    HW110082   2.648   1.312   5.237
 3182SOL    HW210083   2.613   1.299   5.090
 3183SOL     OW10084   2.540   1.610   3.881
 3183SOL    HW110085   2.544   1.632   3.787
 3183SOL    HW210086   2.482   1.534   3.885
 3184SOL     OW10087   3.489   1.727   5.115
 3184SOL    HW110088   3.539   1.734   5.034
 3184SOL    HW210089   3.475   1.817   5.143
 3185SOL     OW10090   3.707   0.157   4.681
 3185SOL    HW110091   3.706   0.062   4.669
 3185SOL    HW210092   3.621   0.185   4.652
 3186SOL     OW10093   2.124   0.329   4.443
 3186SOL    HW110094   2.036   0.360   4.421
 3186SOL    HW210095   2.122   0.317   4.538
 3187SOL     OW10096   3.066   1.605   3.752
 3187SOL    HW110097   3.062   1.514   3.782
 3187SOL    HW210098   3.002   1.610   3.682
 3188SOL     OW10099   2.686   1.006   5.096
 3188SOL    HW110100   2.730   1.003   5.011
 3188SOL    HW210101   2.685   1.099   5.119
 3189SOL     OW10102   2.778   0.911   4.013
 3189SOL    HW110103   2.840   0.943   3.948
 3189SOL    HW210104   2.825   0.841   4.059
 3190SOL     OW10105   3.353   1.627   3.766
 3190SOL    HW110106   3.259   1.618   3.750
 3190SOL    HW210107   3.392   1.631   3.679
 3191SOL     OW10108   2.230   1.302   5.217
 3191SOL    HW110109   2.219   1.379   5.161
 3191SOL    HW210110   2.153   1.248   5.199
 3192SOL     OW10111   3.473   1.283   5.005
 3192SOL    HW110112   3.532   1.272   5.079
 3192SOL    HW210113   3.412   1.352   5.032
 3193SOL     OW10114   2.914   1.107   4.429
 3193SOL    HW110115   2.843   1.057   4.469
 3193SOL    HW210116   2.977   1.041   4.399
 3194SOL     OW10117   2.881   0.243   4.692
 3194SOL    HW110118   2.861   0.197   4.610
 3194SOL    HW210119   2.874   0.176   4.760
 3195SOL     OW10120   2.464   1.487   4.202
 3195SOL    HW110121   2.508   1.437   4.133
 3195SOL    HW210122   2.396   1.537   4.156
 3196SOL     OW10123   3.586   0.387   5.102
 3196SOL    HW110124   3.656   0.452   5.102
 3196SOL    HW210125   3.618   0.317   5.044
 3197SOL     OW10126   2.121   1.345   4.012
 3197SOL    HW110127   2.028   1.343   3.990
 3197SOL    HW210128   2.123   1.383   4.101
 3198SOL     OW10129   1.975   1.021   5.443
 3198SOL    HW110130   1.899   0.998   5.497
 3198SOL    HW210131   2.049   0.984   5.490
 3199SOL     OW10132   2.534   0.211   5.213
 3199SOL    HW110133   2.618   0.194   5.169
 3199SOL    HW210134   2.558   0.261   5.290
 3200SOL     OW10135   1.940   0.339   3.765
 3200SOL    HW110136   1.856   0.306   3.732
 3200SOL    HW210137   1.960   0.412   3.708
 3201SOL     OW10138   3.292   0.858   5.124
 3201SOL    HW110139   3.243   0.919   5.069
 3201SOL    HW210140   3.381   0.861   5.090
 3202SOL     OW10141   1.934   0.167   4.039
 3202SOL    HW110142   1.935   0.250   3.991
 3202SOL    HW210143   2.018   0.126   4.019
 3203SOL     OW10144   3.041   1.341   3.842
 3203SOL    HW110145   2.952   1.306   3.845
 3203SOL    HW210146   3.070   1.340   3.934
 3204SOL     OW10147   2.481   0.830   5.157
 3204SOL    HW110148   2.536   0.907   5.142
 3204SOL    HW210149   2.543   0.758   5.166
 3205SOL     OW10150   3.352   1.767   4.691
 3205SOL    HW110151   3.379   1.832   4.626
 3205SOL    HW210152   3.429   1.754   4.746
 3206SOL     OW10153   2.577   0.572   5.426
 3206SOL    HW110154   2.618   0.636   5.485
 3206SOL    HW210155   2.608   0.487   5.458
 3207SOL     OW10156   3.334   1.199   5.356
 3207SOL    HW110157   3.321   1.214   5.450
 3207SOL    HW210158   3.427   1.215   5.342
 3208SOL     OW10159   2.241   1.738   5.287
 3208SOL    HW110160   2.156   1.781   5.273
 3208SOL    HW210161   2.219   1.655   5.329
 3209SOL     OW10162   3.532   0.881   4.979
 3209SOL    HW110163   3.525   0.796   4.936
 3209SOL    HW210164   3.522   0.945   4.908
 3210SOL     OW10165   3.082   0.319   4.190
 3210SOL    HW110166   3.145   0.247   4.183
 3210SOL    HW210167   3.113   0.371   4.264
 3211SOL     OW10168   2.452   0.738   4.394
 3211SOL    HW110169   2.491   0.824   4.378
 3211SOL    HW210170   2.384   0.730   4.327
 3212SOL     OW10171   3.628   0.362   5.373
 3212SOL    HW110172   3.609   0.376   5.280
 3212SOL    HW210173   3.557   0.306   5.404
 3213SOL     OW10174   3.607   0.934   5.236
 3213SOL    HW110175   3.604   1.028   5.249
 3213SOL    HW210176   3.592   0.922   5.142
 3214SOL     OW10177   2.722   1.369   3.757
 3214SOL    HW110178   2.684   1.390   3.843
 3214SOL    HW210179   2.736   1.454   3.716
 3215SOL     OW10180   2.730   0.967   4.579
 3215SOL    HW110181   2.780   0.896   4.619
 3215SOL    HW210182   2.695   1.016   4.653
 3216SOL     OW10183   2.942   0.990   3.812
 3216SOL    HW110184   2.920   1.039   3.733
 3216SOL    HW210185   3.016   0.935   3.787
 3217SOL     OW10186   3.715   1.554   4.568
 3217SOL    HW110187   3.637   1.543   4.515
 3217SOL    HW210188   3.707   1.489   4.637
 3218SOL     OW10189   2.087   1.303   5.580
 3218SOL    HW110190   2.019   1.242   5.551
 3218SOL    HW210191   2.070   1.315   5.673
 3219SOL     OW10192   1.948   1.233   4.388
 3219SOL    HW110193   1.952   1.186   4.471
 3219SOL    HW210194   2.015   1.192   4.334
 3220SOL     OW10195   2.543   1.403   5.351
 3220SOL    HW110196   2.463   1.360   5.383
 3220SOL    HW210197   2.539   1.491   5.388
 3221SOL     OW10198   3.676   0.177   4.956
 3221SOL    HW110199   3.642   0.087   4.962
 3221SOL    HW210200   3.694   0.190   4.863
 3222SOL     OW10201   2.291   0.436   4.248
 3222SOL    HW110202   2.324   0.363   4.195
 3222SOL    HW210203   2.245   0.394   4.320
 3223SOL     OW10204   3.562   1.489   4.820
 3223SOL    HW110205   3.482   1.466   4.774
 3223SOL    HW210206   3.573   1.420   4.886
 3224SOL     OW10207   2.190   0.556   5.014
 3224SOL    HW110208   2.246   0.501   5.069
 3224SOL    HW210209   2.211   0.529   4.925
 3225SOL     OW10210   2.686   1.575   4.395
 3225SOL    HW110211   2.674   1.609   4.306
 3225SOL    HW210212   2.610   1.519   4.410
 3226SOL     OW10213   3.290   0.218   4.840
 3226SOL    HW110214   3.327   0.144   4.889
 3226SOL    HW210215   3.241   0.268   4.906
 3227SOL     OW10216   2.865   0.021   4.864
 3227SOL    HW110217   2.814   5.252   4.822
 3227SOL    HW210218   2.951   5.283   4.878
 3228SOL     OW10219   2.637   1.332   4.036
 3228SOL    HW110220   2.604   1.242   4.044
 3228SOL    HW210221   2.717   1.332   4.089
 3229SOL     OW10222   2.479   1.560   5.007
 3229SOL    HW110223   2.484   1.641   5.058
 3229SOL    HW210224   2.568   1.546   4.975
 3230SOL     OW10225   3.218   0.038   3.886
 3230SOL    HW110226   3.250   5.296   3.807
 3230SOL    HW210227   3.138   5.291   3.908
 3231SOL     OW10228   3.163   0.464   4.409
 3231SOL    HW110229   3.108   0.542   4.414
 3231SOL    HW210230   3.156   0.424   4.495
 3232SOL     OW10231   3.456   0.215   4.606
 3232SOL    HW110232   3.390   0.227   4.674
 3232SOL    HW210233   3.449   0.294   4.552
 3233SOL     OW10234   1.906   1.071   4.030
 3233SOL    HW110235   1.999   1.062   4.012
 3233SOL    HW210236   1.877   0.982   4.053
 3234SOL     OW10237   2.734   1.659   4.077
 3234SOL    HW110238   2.673   1.629   4.010
 3234SOL    HW210239   2.704   1.747   4.100
 3235SOL     OW10240   2.090   0.624   5.709
 3235SOL    HW110241   2.001   0.622   5.744
 3235SOL    HW210242   2.080   0.599   5.617
 3236SOL     OW10243   2.080   0.284   6.579
 3236SOL    HW110244   2.109   0.249   6.663
 3236SOL    HW210245   1.995   0.243   6.563
 3237SOL     OW10246   1.866   0.386   6.224
 3237SOL    HW110247   1.781   0.407   6.264
 3237SOL    HW210248   1.848   0.309   6.171
 3238SOL     OW10249   2.429   1.288   6.761
 3238SOL    HW110250   2.341   1.291   6.722
 3238SOL    HW210251   2.444   1.376   6.794
 3239SOL     OW10252   3.423   1.512   6.293
 3239SOL    HW110253   3.380   1.492   6.376
 3239SOL    HW210254   3.352   1.516   6.229
 3240SOL     OW10255   2.993   0.698   6.288
 3240SOL    HW110256   3.042   0.779   6.273
 3240SOL    HW210257   2.946   0.713   6.369
 3241SOL     OW10258   3.629   0.606   5.814
 3241SOL    HW110259   3.608   0.598   5.721
 3241SOL    HW210260   3.594   0.526   5.853
 3242SOL     OW10261   2.617   1.142   6.627
 3242SOL    HW110262   2.548   1.177   6.684
 3242SOL    HW210263   2.653   1.219   6.582
 3243SOL     OW10264   2.727   0.779   7.407
 3243SOL    HW110265   2.715   0.853   7.465
 3243SOL    HW210266   2.753   0.818   7.323
 3244SOL     OW10267   2.548   1.003   6.233
 3244SOL    HW110268   2.613   0.991   6.302
 3244SOL    HW210269   2.479   1.055   6.273
 3245SOL     OW10270   2.572   1.151   7.398
 3245SOL    HW110271   2.620   1.230   7.425
 3245SOL    HW210272   2.490   1.184   7.362
 3246SOL     OW10273   2.192   1.426   6.654
 3246SOL    HW110274   2.120   1.388   6.603
 3246SOL    HW210275   2.243   1.476   6.589
 3247SOL     OW10276   3.323   1.499   6.940
 3247SOL    HW110277   3.373   1.580   6.950
 3247SOL    HW210278   3.261   1.501   7.013
 3248SOL     OW10279   2.306   0.398   7.073
 3248SOL    HW110280   2.381   0.339   7.071
 3248SOL    HW210281   2.231   0.341   7.087
 3249SOL     OW10282   3.472   0.451   6.324
 3249SOL    HW110283   3.397   0.475   6.270
 3249SOL    HW210284   3.490   0.530   6.375
 3250SOL     OW10285   2.081   1.714   6.058
 3250SOL    HW110286   2.103   1.791   6.111
 3250SOL    HW210287   2.155   1.706   5.997
 3251SOL     OW10288   2.998   1.341   7.276
 3251SOL    HW110289   3.038   1.338   7.363
 3251SOL    HW210290   2.946   1.261   7.271
 3252SOL     OW10291   2.092   1.441   6.121
 3252SOL    HW110292   2.075   1.536   6.124
 3252SOL    HW210293   2.032   1.404   6.185
 3253SOL     OW10294   2.119   1.090   6.477
 3253SOL    HW110295   2.116   1.004   6.518
 3253SOL    HW210296   2.061   1.144   6.531
 3254SOL     OW10297   2.472   1.791   7.013
 3254SOL    HW110298   2.391   1.773   7.061
 3254SOL    HW210299   2.496   1.880   7.039
 3255SOL     OW10300   2.447   0.982   5.720
 3255SOL    HW110301   2.493   1.031   5.652
 3255SOL    HW210302   2.487   1.012   5.802
 3256SOL     OW10303   3.449   0.135   7.042
 3256SOL    HW110304   3.470   0.220   7.004
 3256SOL    HW210305   3.445   0.152   7.137
 3257SOL     OW10306   1.976   0.653   6.145
 3257SOL    HW110307   1.949   0.564   6.167
 3257SOL    HW210308   1.969   0.701   6.228
 3258SOL     OW10309   3.704   1.759   5.921
 3258SOL    HW110310   3.769   1.731   5.986
 3258SOL    HW210311   3.728   1.850   5.902
 3259SOL     OW10312   1.894   1.595   5.710
 3259SOL    HW110313   1.877   1.503   5.730
 3259SOL    HW210314   1.870   1.642   5.790
 3260SOL     OW10315   3.551   0.919   6.227
 3260SOL    HW110316   3.634   0.876   6.205
 3260SOL    HW210317   3.529   0.969   6.149
 3261SOL     OW10318   3.508   1.106   6.015
 3261SOL    HW110319   3.594   1.112   5.973
 3261SOL    HW210320   3.513   1.168   6.089
 3262SOL     OW10321   1.985   0.743   7.171
 3262SOL    HW110322   2.076   0.769   7.179
 3262SOL    HW210323   1.936   0.825   7.179
 3263SOL     OW10324   2.475   1.386   6.321
 3263SOL    HW110325   2.429   1.302   6.330
 3263SOL    HW210326   2.459   1.412   6.231
 3264SOL     OW10327   3.151   1.238   7.009
 3264SOL    HW110328   3.183   1.171   6.949
 3264SOL    HW210329   3.208   1.232   7.086
 3265SOL     OW10330   2.673   0.027   6.114
 3265SOL    HW110331   2.701   0.115   6.088
 3265SOL    HW210332   2.577   0.031   6.108
 3266SOL     OW10333   2.052   0.966   6.858
 3266SOL    HW110334   2.137   0.924   6.843
 3266SOL    HW210335   1.990   0.912   6.809
 3267SOL     OW10336   3.394   0.993   5.784
 3267SOL    HW110337   3.324   0.936   5.816
 3267SOL    HW210338   3.434   1.028   5.864
 3268SOL     OW10339   3.047   1.807   7.208
 3268SOL    HW110340   3.058   1.865   7.133
 3268SOL    HW210341   3.064   1.719   7.172
 3269SOL     OW10342   2.189   0.262   7.403
 3269SOL    HW110343   2.240   0.340   7.425
 3269SOL    HW210344   2.101   0.281   7.438
 3270SOL     OW10345   3.329   1.419   6.538
 3270SOL    HW110346   3.260   1.435   6.603
 3270SOL    HW210347   3.316   1.328   6.511
 3271SOL     OW10348   3.520   1.740   6.164
 3271SOL    HW110349   3.501   1.710   6.075
 3271SOL    HW210350   3.495   1.666   6.220
 3272SOL     OW10351   2.457   0.721   5.852
 3272SOL    HW110352   2.463   0.802   5.802
 3272SOL    HW210353   2.392   0.739   5.920
 3273SOL     OW10354   3.140   0.347   6.517
 3273SOL    HW110355   3.049   0.319   6.529
 3273SOL    HW210356   3.190   0.297   6.581
 3274SOL     OW10357   3.442   1.670   5.895
 3274SOL    HW110358   3.533   1.701   5.888
 3274SOL    HW210359   3.416   1.653   5.805
 3275SOL     OW10360   2.656   0.618   7.036
 3275SOL    HW110361   2.628   0.597   7.125
 3275SOL    HW210362   2.614   0.552   6.982
 3276SOL     OW10363   3.257   0.475   7.264
 3276SOL    HW110364   3.258   0.520   7.349
 3276SOL    HW210365   3.320   0.404   7.273
 3277SOL     OW10366   2.817   0.887   7.168
 3277SOL    HW110367   2.872   0.818   7.132
 3277SOL    HW210368   2.769   0.922   7.092
 3278SOL     OW10369   2.856   0.417   6.821
 3278SOL    HW110370   2.771   0.438   6.860
 3278SOL    HW210371   2.834   0.369   6.741
 3279SOL     OW10372   2.913   0.697   6.012
 3279SOL    HW110373   2.928   0.691   6.107
 3279SOL    HW210374   2.830   0.652   5.998
 3280SOL     OW10375   1.950   0.821   6.363
 3280SOL    HW110376   2.031   0.814   6.413
 3280SOL    HW210377   1.907   0.899   6.397
 3281SOL     OW10378   1.989   1.850   7.165
 3281SOL    HW110379   1.989   1.828   7.258
 3281SOL    HW210380   1.897   1.838   7.138
 3282SOL     OW10381   2.736   0.364   5.775
 3282SOL    HW110382   2.778   0.424   5.713
 3282SOL    HW210383   2.790   0.285   5.772
 3283SOL     OW10384   3.571   0.575   7.415
 3283SOL    HW110385   3.533   0.649   7.368
 3283SOL    HW210386   3.599   0.515   7.347
 3284SOL     OW10387   3.239   1.142   6.127
 3284SOL    HW110388   3.317   1.129   6.074
 3284SOL    HW210389   3.186   1.204   6.077
 3285SOL     OW10390   2.388   0.202   6.468
 3285SOL    HW110391   2.410   0.217   6.560
 3285SOL    HW210392   2.410   0.284   6.424
 3286SOL     OW10393   2.868   1.444   6.058
 3286SOL    HW110394   2.830   1.517   6.008
 3286SOL    HW210395   2.850   1.466   6.150
 3287SOL     OW10396   2.217   1.809   6.448
 3287SOL    HW110397   2.260   1.724   6.456
 3287SOL    HW210398   2.286   1.873   6.465
 3288SOL     OW10399   3.661   1.057   6.454
 3288SOL    HW110400   3.607   1.039   6.377
 3288SOL    HW210401   3.599   1.062   6.527
 3289SOL     OW10402   3.090   1.539   7.099
 3289SOL    HW110403   3.076   1.466   7.160
 3289SOL    HW210404   3.026   1.524   7.029
 3290SOL     OW10405   2.182   0.957   5.836
 3290SOL    HW110406   2.264   0.977   5.791
 3290SOL    HW210407   2.152   0.875   5.797
 3291SOL     OW10408   3.341   0.743   6.313
 3291SOL    HW110409   3.332   0.700   6.398
 3291SOL    HW210410   3.418   0.798   6.321
 3292SOL     OW10411   2.328   1.264   7.323
 3292SOL    HW110412   2.301   1.269   7.232
 3292SOL    HW210413   2.246   1.262   7.373
 3293SOL     OW10414   2.984   1.778   5.818
 3293SOL    HW110415   2.910   1.737   5.862
 3293SOL    HW210416   3.007   1.716   5.747
 3294SOL     OW10417   2.059   0.278   7.088
 3294SOL    HW110418   1.980   0.332   7.083
 3294SOL    HW210419   2.049   0.228   7.170
 3295SOL     OW10420   3.490   1.380   5.674
 3295SOL    HW110421   3.449   1.465   5.658
 3295SOL    HW210422   3.422   1.316   5.655
 3296SOL     OW10423   2.328   1.735   5.909
 3296SOL    HW110424   2.371   1.795   5.970
 3296SOL    HW210425   2.399   1.708   5.850
 3297SOL     OW10426   3.269   0.100   6.017
 3297SOL    HW110427   3.261   0.082   5.924
 3297SOL    HW210428   3.361   0.122   6.030
 3298SOL     OW10429   2.117   1.792   6.817
 3298SOL    HW110430   2.169   1.726   6.864
 3298SOL    HW210431   2.108   1.756   6.729
 3299SOL     OW10432   2.799   1.698   6.485
 3299SOL    HW110433   2.878   1.647   6.505
 3299SOL    HW210434   2.756   1.649   6.416
 3300SOL     OW10435   2.255   0.696   6.062
 3300SOL    HW110436   2.275   0.603   6.073
 3300SOL    HW210437   2.161   0.702   6.080
 3301SOL     OW10438   3.401   0.227   7.310
 3301SOL    HW110439   3.408   0.245   7.404
 3301SOL    HW210440   3.325   0.170   7.303
 3302SOL     OW10441   2.486   0.132   5.693
 3302SOL    HW110442   2.550   0.065   5.717
 3302SOL    HW210443   2.434   0.092   5.623
 3303SOL     OW10444   2.641   0.312   7.350
 3303SOL    HW110445   2.702   0.238   7.352
 3303SOL    HW210446   2.600   0.312   7.436
 3304SOL     OW10447   2.737   1.521   6.780
 3304SOL    HW110448   2.722   1.485   6.692
 3304SOL    HW210449   2.808   1.467   6.816
 3305SOL     OW10450   3.203   0.589   7.018
 3305SOL    HW110451   3.233   0.558   7.103
 3305SOL    HW210452   3.239   0.677   7.011
 3306SOL     OW10453   2.677   1.395   6.525
 3306SOL    HW110454   2.761   1.383   6.481
 3306SOL    HW210455   2.613   1.396   6.454
 3307SOL     OW10456   2.789   0.510   6.489
 3307SOL    HW110457   2.765   0.502   6.397
 3307SOL    HW210458   2.821   0.423   6.513
 3308SOL     OW10459   2.404   0.062   6.094
 3308SOL    HW110460   2.319   0.061   6.137
 3308SOL    HW210461   2.397   0.132   6.029
 3309SOL     OW10462   3.290   1.198   5.627
 3309SOL    HW110463   3.320   1.123   5.677
 3309SOL    HW210464   3.204   1.220   5.664
 3310SOL     OW10465   2.163   0.062   5.777
 3310SOL    HW110466   2.221   0.132   5.747
 3310SOL    HW210467   2.220   5.286   5.787
 3311SOL     OW10468   2.801   0.261   6.048
 3311SOL    HW110469   2.773   0.300   5.965
 3311SOL    HW210470   2.896   0.273   6.049
 3312SOL     OW10471   2.943   0.681   7.045
 3312SOL    HW110472   2.874   0.615   7.051
 3312SOL    HW210473   3.024   0.631   7.039
 3313SOL     OW10474   3.085   1.570   6.380
 3313SOL    HW110475   3.101   1.637   6.313
 3313SOL    HW210476   3.154   1.585   6.445
 3314SOL     OW10477   2.331   1.149   6.319
 3314SOL    HW110478   2.261   1.130   6.382
 3314SOL    HW210479   2.291   1.133   6.234
 3315SOL     OW10480   3.131   1.794   6.195
 3315SOL    HW110481   3.177   1.855   6.137
 3315SOL    HW210482   3.064   1.847   6.238
 3316SOL     OW10483   2.887   0.546   5.608
 3316SOL    HW110484   2.845   0.630   5.590
 3316SOL    HW210485   2.951   0.566   5.677
 3317SOL     OW10486   1.941   0.553   6.980
 3317SOL    HW110487   2.032   0.553   6.951
 3317SOL    HW210488   1.935   0.624   7.044
 3318SOL     OW10489   2.417   0.238   6.744
 3318SOL    HW110490   2.449   0.152   6.773
 3318SOL    HW210491   2.325   0.239   6.770
 3319SOL     OW10492   2.729   0.462   6.227
 3319SOL    HW110493   2.683   0.516   6.162
 3319SOL    HW210494   2.752   0.382   6.180
 3320SOL     OW10495   2.840   0.061   6.349
 3320SOL    HW110496   2.775   0.056   6.279
 3320SOL    HW210497   2.850   5.270   6.379
 3321SOL     OW10498   3.299   1.162   6.443
 3321SOL    HW110499   3.229   1.097   6.442
 3321SOL    HW210500   3.324   1.174   6.351
 3322SOL     OW10501   3.328   0.606   6.563
 3322SOL    HW110502   3.279   0.524   6.567
 3322SOL    HW210503   3.389   0.601   6.637
 3323SOL     OW10504   3.708   0.816   5.969
 3323SOL    HW110505   3.764   0.765   6.027
 3323SOL    HW210506   3.679   0.754   5.902
 3324SOL     OW10507   2.352   1.418   5.742
 3324SOL    HW110508   2.278   1.389   5.794
 3324SOL    HW210509   2.338   1.379   5.656
 3325SOL     OW10510   3.532   1.264   6.232
 3325SOL    HW110511   3.627   1.267   6.245
 3325SOL    HW210512   3.502   1.352   6.253
 3326SOL     OW10513   3.256   0.572   5.657
 3326SOL    HW110514   3.195   0.553   5.728
 3326SOL    HW210515   3.341   0.541   5.689
 3327SOL     OW10516   2.385   0.265   5.907
 3327SOL    HW110517   2.430   0.216   5.838
 3327SOL    HW210518   2.365   0.349   5.868
 3328SOL     OW10519   3.614   1.239   7.159
 3328SOL    HW110520   3.702   1.200   7.154
 3328SOL    HW210521   3.629   1.329   7.188
 3329SOL     OW10522   2.921   1.353   6.919
 3329SOL    HW110523   2.846   1.322   6.971
 3329SOL    HW210524   2.997   1.312   6.961
 3330SOL     OW10525   3.470   1.625   7.238
 3330SOL    HW110526   3.464   1.659   7.149
 3330SOL    HW210527   3.553   1.577   7.241
 3331SOL     OW10528   2.991   1.203   6.691
 3331SOL    HW110529   2.932   1.242   6.756
 3331SOL    HW210530   2.958   1.236   6.607
 3332SOL     OW10531   3.490   1.098   6.663
 3332SOL    HW110532   3.485   1.160   6.736
 3332SOL    HW210533   3.411   1.115   6.612
 3333SOL     OW10534   2.766   0.106   6.975
 3333SOL    HW110535   2.796   0.073   6.891
 3333SOL    HW210536   2.843   0.149   7.013
 3334SOL     OW10537   2.846   1.114   7.310
 3334SOL    HW110538   2.754   1.131   7.329
 3334SOL    HW210539   2.845   1.037   7.254
 3335SOL     OW10540   2.571   1.061   5.957
 3335SOL    HW110541   2.557   1.045   6.050
 3335SOL    HW210542   2.646   1.008   5.934
 3336SOL     OW10543   2.280   0.815   6.838
 3336SOL    HW110544   2.349   0.824   6.904
 3336SOL    HW210545   2.245   0.727   6.851
 3337SOL     OW10546   3.129   0.379   6.859
 3337SOL    HW110547   3.162   0.456   6.905
 3337SOL    HW210548   3.039   0.401   6.836
 3338SOL     OW10549   1.933   1.573   6.939
 3338SOL    HW110550   1.903   1.646   6.884
 3338SOL    HW210551   2.028   1.576   6.933
 3339SOL     OW10552   2.210   1.109   6.077
 3339SOL    HW110553   2.216   1.183   6.016
 3339SOL    HW210554   2.208   1.032   6.021
 3340SOL     OW10555   2.415   0.537   6.447
 3340SOL    HW110556   2.430   0.595   6.372
 3340SOL    HW210557   2.481   0.564   6.511
 3341SOL     OW10558   3.110   1.348   5.976
 3341SOL    HW110559   3.166   1.420   6.006
 3341SOL    HW210560   3.023   1.370   6.009
 3342SOL     OW10561   3.143   1.457   6.733
 3342SOL    HW110562   3.199   1.460   6.811
 3342SOL    HW210563   3.088   1.381   6.746
 3343SOL     OW10564   3.444   0.622   6.065
 3343SOL    HW110565   3.397   0.676   6.128
 3343SOL    HW210566   3.488   0.685   6.008
 3344SOL     OW10567   2.208   1.527   6.901
 3344SOL    HW110568   2.196   1.484   6.816
 3344SOL    HW210569   2.303   1.539   6.908
 3345SOL     OW10570   2.276   0.744   7.188
 3345SOL    HW110571   2.337   0.790   7.130
 3345SOL    HW210572   2.319   0.660   7.206
 3346SOL     OW10573   3.463   0.778   7.268
 3346SOL    HW110574   3.377   0.819   7.261
 3346SOL    HW210575   3.516   0.821   7.200
 3347SOL     OW10576   2.905   0.116   7.372
 3347SOL    HW110577   2.933   0.196   7.327
 3347SOL    HW210578   2.912   0.047   7.306
 3348SOL     OW10579   2.345   0.057   7.324
 3348SOL    HW110580   2.286   5.292   7.284
 3348SOL    HW210581   2.288   0.130   7.346
 3349SOL     OW10582   2.446   0.872   6.618
 3349SOL    HW110583   2.476   0.963   6.616
 3349SOL    HW210584   2.389   0.868   6.694
 3350SOL     OW10585   3.220   0.859   6.616
 3350SOL    HW110586   3.137   0.850   6.569
 3350SOL    HW210587   3.260   0.772   6.610
 3351SOL     OW10588   3.068   0.528   5.853
 3351SOL    HW110589   3.072   0.448   5.904
 3351SOL    HW210590   3.025   0.591   5.911
 3352SOL     OW10591   2.158   0.204   6.833
 3352SOL    HW110592   2.119   0.243   6.911
 3352SOL    HW210593   2.158   0.109   6.851
 3353SOL     OW10594   1.907   1.311   6.862
 3353SOL    HW110595   1.941   1.256   6.934
 3353SOL    HW210596   1.915   1.400   6.895
 3354SOL     OW10597   2.587   0.632   6.646
 3354SOL    HW110598   2.661   0.615   6.587
 3354SOL    HW210599   2.558   0.720   6.623
 3355SOL     OW10600   3.597   0.960   7.438
 3355SOL    HW110601   3.549   0.898   7.382
 3355SOL    HW210602   3.540   0.974   7.513
 3356SOL     OW10603   2.165   0.072   6.238
 3356SOL    HW110604   2.147   0.166   6.244
 3356SOL    HW210605   2.208   0.050   6.320
 3357SOL     OW10606   3.474   0.375   5.951
 3357SOL    HW110607   3.507   0.311   6.014
 3357SOL    HW210608   3.454   0.453   6.003
 3358SOL     OW10609   2.890   0.759   6.547
 3358SOL    HW110610   2.886   0.777   6.641
 3358SOL    HW210611   2.863   0.668   6.538
 3359SOL     OW10612   2.843   1.565   7.303
 3359SOL    HW110613   2.829   1.610   7.219
 3359SOL    HW210614   2.888   1.484   7.279
 3360SOL     OW10615   3.717   1.506   7.191
 3360SOL    HW110616   3.735   1.532   7.101
 3360SOL    HW210617   3.798   1.524   7.238
 3361SOL     OW10618   2.215   0.914   7.396
 3361SOL    HW110619   2.298   0.935   7.439
 3361SOL    HW210620   2.239   0.853   7.327
 3362SOL     OW10621   3.389   0.272   5.712
 3362SOL    HW110622   3.324   0.208   5.743
 3362SOL    HW210623   3.425   0.310   5.792
 3363SOL     OW10624   3.154   0.826   5.617
 3363SOL    HW110625   3.196   0.741   5.621
 3363SOL    HW210626   3.185   0.866   5.536
 3364SOL     OW10627   2.928   1.336   6.440
 3364SOL    HW110628   2.931   1.263   6.378
 3364SOL    HW210629   2.989   1.400   6.405
 3365SOL     OW10630   2.171   0.809   6.534
 3365SOL    HW110631   2.264   0.831   6.526
 3365SOL    HW210632   2.170   0.719   6.566
 3366SOL     OW10633   2.194   0.526   6.599
 3366SOL    HW110634   2.158   0.439   6.583
 3366SOL    HW210635   2.271   0.531   6.541
 3367SOL     OW10636   2.997   0.377   7.274
 3367SOL    HW110637   2.950   0.432   7.336
 3367SOL    HW210638   3.085   0.416   7.269
 3368SOL     OW10639   2.995   0.222   7.051
 3368SOL    HW110640   2.999   0.281   7.127
 3368SOL    HW210641   3.051   0.264   6.985
 3369SOL     OW10642   1.867   1.321   5.781
 3369SOL    HW110643   1.780   1.335   5.744
 3369SOL    HW210644   1.864   1.232   5.815
 3370SOL     OW10645   1.952   1.787   6.524
 3370SOL    HW110646   1.922   1.708   6.480
 3370SOL    HW210647   2.042   1.799   6.493
 3371SOL     OW10648   2.358   1.574   6.491
 3371SOL    HW110649   2.427   1.635   6.516
 3371SOL    HW210650   2.402   1.510   6.435
 3372SOL     OW10651   2.845   0.792   6.813
 3372SOL    HW110652   2.901   0.769   6.887
 3372SOL    HW210653   2.760   0.755   6.835
 3373SOL     OW10654   1.897   0.543   6.703
 3373SOL    HW110655   1.977   0.530   6.652
 3373SOL    HW210656   1.928   0.548   6.794
 3374SOL     OW10657   2.050   0.521   7.313
 3374SOL    HW110658   2.113   0.487   7.249
 3374SOL    HW210659   2.009   0.595   7.269
 3375SOL     OW10660   3.239   0.939   7.245
 3375SOL    HW110661   3.260   1.032   7.244
 3375SOL    HW210662   3.236   0.913   7.153
 3376SOL     OW10663   2.676   0.572   5.948
 3376SOL    HW110664   2.679   0.498   5.888
 3376SOL    HW210665   2.602   0.625   5.918
 3377SOL     OW10666   3.504   0.601   6.772
 3377SOL    HW110667   3.493   0.542   6.846
 3377SOL    HW210668   3.591   0.581   6.738
 3378SOL     OW10669   2.104   1.551   7.313
 3378SOL    HW110670   2.083   1.616   7.381
 3378SOL    HW210671   2.108   1.468   7.360
 3379SOL     OW10672   2.560   0.452   6.846
 3379SOL    HW110673   2.510   0.378   6.813
 3379SOL    HW210674   2.560   0.516   6.775
 3380SOL     OW10675   2.789   1.679   7.053
 3380SOL    HW110676   2.764   1.645   6.968
 3380SOL    HW210677   2.786   1.774   7.044
 3381SOL     OW10678   2.325   0.493   5.769
 3381SOL    HW110679   2.385   0.564   5.792
 3381SOL    HW210680   2.240   0.535   5.760
 3382SOL     OW10681   2.007   1.140   7.058
 3382SOL    HW110682   2.010   1.089   7.139
 3382SOL    HW210683   2.025   1.077   6.989
 3383SOL     OW10684   3.188   1.047   6.809
 3383SOL    HW110685   3.211   0.983   6.741
 3383SOL    HW210686   3.118   1.099   6.770
 3384SOL     OW10687   3.173   0.856   5.892
 3384SOL    HW110688   3.098   0.826   5.942
 3384SOL    HW210689   3.149   0.843   5.801
 3385SOL     OW10690   3.633   1.744   6.736
 3385SOL    HW110691   3.694   1.770   6.666
 3385SOL    HW210692   3.610   1.654   6.715
 3386SOL     OW10693   3.103   1.733   6.699
 3386SOL    HW110694   3.185   1.754   6.654
 3386SOL    HW210695   3.109   1.639   6.717
 3387SOL     OW10696   1.946   1.267   6.598
 3387SOL    HW110697   1.931   1.279   6.692
 3387SOL    HW210698   1.873   1.212   6.570
 3388SOL     OW10699   2.538   1.665   7.314
 3388SOL    HW110700   2.487   1.746   7.313
 3388SOL    HW210701   2.606   1.678   7.247
 3389SOL     OW10702   3.574   0.149   6.088
 3389SOL    HW110703   3.650   0.128   6.033
 3389SOL    HW210704   3.567   0.074   6.148
 3390SOL     OW10705   3.253   1.568   6.071
 3390SOL    HW110706   3.313   1.600   6.004
 3390SOL    HW210707   3.204   1.645   6.099
 3391SOL     OW10708   1.998   1.796   7.430
 3391SOL    HW110709   1.947   1.732   7.479
 3391SOL    HW210710   2.046   1.845   7.497
 3392SOL     OW10711   3.139   0.925   6.257
 3392SOL    HW110712   3.213   0.865   6.264
 3392SOL    HW210713   3.173   0.998   6.204
 3393SOL     OW10714   2.676   1.273   7.016
 3393SOL    HW110715   2.648   1.312   7.098
 3393SOL    HW210716   2.607   1.296   6.954
 3394SOL     OW10717   2.534   1.618   5.742
 3394SOL    HW110718   2.544   1.633   5.648
 3394SOL    HW210719   2.478   1.541   5.749
 3395SOL     OW10720   3.488   1.727   6.977
 3395SOL    HW110721   3.538   1.734   6.895
 3395SOL    HW210722   3.475   1.817   7.004
 3396SOL     OW10723   3.707   0.157   6.543
 3396SOL    HW110724   3.707   0.062   6.531
 3396SOL    HW210725   3.621   0.185   6.514
 3397SOL     OW10726   2.124   0.329   6.305
 3397SOL    HW110727   2.036   0.360   6.283
 3397SOL    HW210728   2.122   0.317   6.400
 3398SOL     OW10729   3.069   1.606   5.618
 3398SOL    HW110730   3.059   1.514   5.644
 3398SOL    HW210731   3.005   1.619   5.548
 3399SOL     OW10732   2.686   1.006   6.958
 3399SOL    HW110733   2.730   1.002   6.873
 3399SOL    HW210734   2.686   1.099   6.980
 3400SOL     OW10735   2.778   0.910   5.876
 3400SOL    HW110736   2.839   0.942   5.810
 3400SOL    HW210737   2.826   0.841   5.921
 3401SOL     OW10738   3.354   1.625   5.629
 3401SOL    HW110739   3.259   1.619   5.615
 3401SOL    HW210740   3.391   1.631   5.540
 3402SOL     OW10741   2.230   1.303   7.078
 3402SOL    HW110742   2.218   1.380   7.022
 3402SOL    HW210743   2.154   1.248   7.061
 3403SOL     OW10744   3.473   1.283   6.866
 3403SOL    HW110745   3.532   1.272   6.941
 3403SOL    HW210746   3.412   1.352   6.894
 3404SOL     OW10747   2.914   1.107   6.293
 3404SOL    HW110748   2.843   1.056   6.332
 3404SOL    HW210749   2.976   1.042   6.261
 3405SOL     OW10750   2.881   0.243   6.554
 3405SOL    HW110751   2.861   0.197   6.472
 3405SOL    HW210752   2.874   0.176   6.622
 3406SOL     OW10753   2.464   1.488   6.068
 3406SOL    HW110754   2.510   1.438   5.999
 3406SOL    HW210755   2.397   1.537   6.021
 3407SOL     OW10756   3.587   0.386   6.965
 3407SOL    HW110757   3.656   0.452   6.964
 3407SOL    HW210758   3.618   0.317   6.907
 3408SOL     OW10759   2.121   1.345   5.874
 3408SOL    HW110760   2.028   1.343   5.852
 3408SOL    HW210761   2.124   1.382   5.962
 3409SOL     OW10762   1.975   1.021   7.305
 3409SOL    HW110763   1.898   0.999   7.358
 3409SOL    HW210764   2.049   0.984   7.353
 3410SOL     OW10765   2.534   0.212   7.076
 3410SOL    HW110766   2.618   0.195   7.031
 3410SOL    HW210767   2.558   0.261   7.154
 3411SOL     OW10768   1.939   0.339   5.627
 3411SOL    HW110769   1.856   0.306   5.594
 3411SOL    HW210770   1.961   0.412   5.570
 3412SOL     OW10771   3.292   0.858   6.986
 3412SOL    HW110772   3.243   0.919   6.931
 3412SOL    HW210773   3.381   0.861   6.952
 3413SOL     OW10774   1.934   0.167   5.901
 3413SOL    HW110775   1.935   0.250   5.853
 3413SOL    HW210776   2.018   0.126   5.881
 3414SOL     OW10777   3.041   1.339   5.703
 3414SOL    HW110778   2.950   1.310   5.705
 3414SOL    HW210779   3.069   1.339   5.794
 3415SOL     OW10780   2.481   0.831   7.019
 3415SOL    HW110781   2.537   0.907   7.004
 3415SOL    HW210782   2.543   0.758   7.028
 3416SOL     OW10783   3.346   1.776   6.565
 3416SOL    HW110784   3.369   1.836   6.493
 3416SOL    HW210785   3.429   1.758   6.609
 3417SOL     OW10786   2.576   0.573   7.289
 3417SOL    HW110787   2.618   0.635   7.348
 3417SOL    HW210788   2.607   0.487   7.319
 3418SOL     OW10789   3.333   1.200   7.218
 3418SOL    HW110790   3.321   1.213   7.312
 3418SOL    HW210791   3.426   1.215   7.204
 3419SOL     OW10792   2.240   1.739   7.149
 3419SOL    HW110793   2.155   1.781   7.136
 3419SOL    HW210794   2.220   1.656   7.191
 3420SOL     OW10795   3.532   0.881   6.841
 3420SOL    HW110796   3.525   0.796   6.798
 3420SOL    HW210797   3.522   0.945   6.770
 3421SOL     OW10798   3.082   0.319   6.052
 3421SOL    HW110799   3.145   0.247   6.045
 3421SOL    HW210800   3.113   0.371   6.126
 3422SOL     OW10801   2.451   0.738   6.256
 3422SOL    HW110802   2.491   0.824   6.240
 3422SOL    HW210803   2.384   0.730   6.189
 3423SOL     OW10804   3.628   0.361   7.236
 3423SOL    HW110805   3.609   0.376   7.143
 3423SOL    HW210806   3.556   0.306   7.266
 3424SOL     OW10807   3.607   0.933   7.098
 3424SOL    HW110808   3.604   1.028   7.112
 3424SOL    HW210809   3.592   0.922   7.004
 3425SOL     OW10810   2.725   1.367   5.620
 3425SOL    HW110811   2.685   1.396   5.703
 3425SOL    HW210812   2.743   1.448   5.573
 3426SOL     OW10813   2.523   1.790   6.532
 3426SOL    HW110814   2.503   1.880   6.506
 3426SOL    HW210815   2.618   1.783   6.524
 3427SOL     OW10816   2.729   0.967   6.441
 3427SOL    HW110817   2.780   0.896   6.481
 3427SOL    HW210818   2.695   1.016   6.516
 3428SOL     OW10819   2.941   0.988   5.675
 3428SOL    HW110820   2.919   1.039   5.597
 3428SOL    HW210821   3.016   0.935   5.649
 3429SOL     OW10822   3.716   1.554   6.430
 3429SOL    HW110823   3.638   1.543   6.376
 3429SOL    HW210824   3.707   1.488   6.499
 3430SOL     OW10825   2.087   1.303   7.443
 3430SOL    HW110826   2.020   1.243   7.412
 3430SOL    HW210827   2.067   1.317   7.535
 3431SOL     OW10828   1.946   1.233   6.251
 3431SOL    HW110829   1.952   1.185   6.333
 3431SOL    HW210830   2.014   1.196   6.195
 3432SOL     OW10831   2.542   1.403   7.213
 3432SOL    HW110832   2.463   1.360   7.245
 3432SOL    HW210833   2.539   1.491   7.250
 3433SOL     OW10834   3.676   0.177   6.819
 3433SOL    HW110835   3.642   0.087   6.824
 3433SOL    HW210836   3.695   0.190   6.726
 3434SOL     OW10837   2.291   0.435   6.110
 3434SOL    HW110838   2.324   0.363   6.057
 3434SOL    HW210839   2.245   0.393   6.182
 3435SOL     OW10840   3.562   1.489   6.682
 3435SOL    HW110841   3.481   1.466   6.636
 3435SOL    HW210842   3.573   1.420   6.747
 3436SOL     OW10843   2.190   0.556   6.877
 3436SOL    HW110844   2.247   0.501   6.931
 3436SOL    HW210845   2.211   0.529   6.787
 3437SOL     OW10846   2.690   1.578   6.263
 3437SOL    HW110847   2.677   1.633   6.186
 3437SOL    HW210848   2.613   1.521   6.264
 3438SOL     OW10849   3.290   0.218   6.703
 3438SOL    HW110850   3.327   0.144   6.751
 3438SOL    HW210851   3.241   0.268   6.768
 3439SOL     OW10852   2.865   0.021   6.726
 3439SOL    HW110853   2.814   5.252   6.684
 3439SOL    HW210854   2.951   5.283   6.740
 3440SOL     OW10855   2.633   1.333   5.902
 3440SOL    HW110856   2.603   1.242   5.907
 3440SOL    HW210857   2.716   1.333   5.949
 3441SOL     OW10858   2.481   1.556   6.871
 3441SOL    HW110859   2.484   1.638   6.920
 3441SOL    HW210860   2.569   1.548   6.833
 3442SOL     OW10861   3.218   0.039   5.748
 3442SOL    HW110862   3.250   5.296   5.669
 3442SOL    HW210863   3.138   5.292   5.770
 3443SOL     OW10864   3.163   0.464   6.271
 3443SOL    HW110865   3.108   0.542   6.276
 3443SOL    HW210866   3.156   0.424   6.357
 3444SOL     OW10867   3.456   0.215   6.468
 3444SOL    HW110868   3.390   0.227   6.536
 3444SOL    HW210869   3.449   0.294   6.414
 3445SOL     OW10870   1.905   1.071   5.892
 3445SOL    HW110871   1.999   1.063   5.875
 3445SOL    HW210872   1.877   0.982   5.915
 3446SOL     OW10873   2.746   1.652   5.928
 3446SOL    HW110874   2.674   1.635   5.867
 3446SOL    HW210875   2.716   1.726   5.980
 3447SOL     OW10876   2.089   0.620   7.572
 3447SOL    HW110877   1.999   0.628   7.603
 3447SOL    HW210878   2.080   0.597   7.479
 3448SOL     OW10879   3.630   0.598   7.679
 3448SOL    HW110880   3.609   0.593   7.586
 3448SOL    HW210881   3.588   0.520   7.717
 3449SOL     OW10882   2.082   1.717   7.918
 3449SOL    HW110883   2.112   1.759   8.000
 3449SOL    HW210884   2.161   1.715   7.864
 3450SOL     OW10885   2.079   1.438   7.991
 3450SOL    HW110886   2.064   1.533   7.990
 3450SOL    HW210887   2.020   1.405   8.058
 3451SOL     OW10888   2.448   0.982   7.579
 3451SOL    HW110889   2.492   1.031   7.510
 3451SOL    HW210890   2.487   1.014   7.661
 3452SOL     OW10891   3.699   1.759   7.797
 3452SOL    HW110892   3.770   1.729   7.854
 3452SOL    HW210893   3.725   1.848   7.772
 3453SOL     OW10894   1.892   1.599   7.578
 3453SOL    HW110895   1.876   1.506   7.593
 3453SOL    HW210896   1.865   1.641   7.659
 3454SOL     OW10897   3.546   0.866   8.033
 3454SOL    HW110898   3.625   0.878   0.005
 3454SOL    HW210899   3.532   0.950   7.990
 3455SOL     OW10900   3.517   1.098   7.877
 3455SOL    HW110901   3.604   1.125   7.848
 3455SOL    HW210902   3.488   1.170   7.934
 3456SOL     OW10903   2.672   5.289   7.944
 3456SOL    HW110904   2.714   0.074   7.930
 3456SOL    HW210905   2.579   0.009   7.942
 3457SOL     OW10906   3.395   0.994   7.649
 3457SOL    HW110907   3.328   0.936   7.682
 3457SOL    HW210908   3.438   1.029   7.727
 3458SOL     OW10909   2.452   0.724   7.708
 3458SOL    HW110910   2.457   0.806   7.659
 3458SOL    HW210911   2.392   0.743   7.780
 3459SOL     OW10912   3.436   1.671   7.757
 3459SOL    HW110913   3.528   1.700   7.765
 3459SOL    HW210914   3.424   1.658   7.663
 3460SOL     OW10915   1.922   0.863   0.089
 3460SOL    HW110916   1.986   0.797   0.115
 3460SOL    HW210917   1.918   0.924   0.163
 3461SOL     OW10918   2.732   0.357   7.631
 3461SOL    HW110919   2.777   0.421   7.575
 3461SOL    HW210920   2.794   0.285   7.640
 3462SOL     OW10921   2.185   0.957   7.697
 3462SOL    HW110922   2.265   0.974   7.648
 3462SOL    HW210923   2.149   0.878   7.657
 3463SOL     OW10924   2.986   1.775   7.682
 3463SOL    HW110925   2.909   1.735   7.723
 3463SOL    HW210926   3.010   1.715   7.612
 3464SOL     OW10927   3.491   1.380   7.533
 3464SOL    HW110928   3.448   1.465   7.520
 3464SOL    HW210929   3.422   1.316   7.516
 3465SOL     OW10930   2.329   1.737   7.770
 3465SOL    HW110931   2.378   1.791   7.832
 3465SOL    HW210932   2.395   1.702   7.710
 3466SOL     OW10933   3.272   0.106   7.882
 3466SOL    HW110934   3.267   0.083   7.790
 3466SOL    HW210935   3.366   0.112   7.901
 3467SOL     OW10936   2.252   0.696   7.918
 3467SOL    HW110937   2.258   0.601   7.926
 3467SOL    HW210938   2.162   0.717   7.941
 3468SOL     OW10939   2.481   0.131   7.560
 3468SOL    HW110940   2.552   0.071   7.579
 3468SOL    HW210941   2.433   0.090   7.487
 3469SOL     OW10942   2.409   0.064   7.952
 3469SOL    HW110943   2.318   0.047   7.974
 3469SOL    HW210944   2.406   0.137   7.890
 3470SOL     OW10945   3.290   1.198   7.489
 3470SOL    HW110946   3.321   1.124   7.542
 3470SOL    HW210947   3.206   1.221   7.527
 3471SOL     OW10948   2.166   0.073   7.660
 3471SOL    HW110949   2.217   0.130   7.603
 3471SOL    HW210950   2.215   5.290   7.660
 3472SOL     OW10951   2.812   0.227   7.907
 3472SOL    HW110952   2.761   0.299   7.868
 3472SOL    HW210953   2.900   0.263   7.917
 3473SOL     OW10954   2.303   1.151   0.099
 3473SOL    HW110955   2.227   1.186   0.145
 3473SOL    HW210956   2.272   1.137   0.009
 3474SOL     OW10957   3.153   1.812   8.014
 3474SOL    HW110958   3.189   1.880   7.958
 3474SOL    HW210959   3.068   1.845   8.042
 3475SOL     OW10960   2.889   0.546   7.467
 3475SOL    HW110961   2.845   0.630   7.452
 3475SOL    HW210962   2.948   0.564   7.541
 3476SOL     OW10963   3.735   0.816   7.801
 3476SOL    HW110964   3.726   0.791   7.893
 3476SOL    HW210965   3.694   0.745   7.752
 3477SOL     OW10966   2.350   1.416   7.605
 3477SOL    HW110967   2.276   1.387   7.657
 3477SOL    HW210968   2.335   1.377   7.518
 3478SOL     OW10969   3.255   0.572   7.519
 3478SOL    HW110970   3.193   0.552   7.589
 3478SOL    HW210971   3.339   0.539   7.552
 3479SOL     OW10972   2.386   0.271   7.773
 3479SOL    HW110973   2.428   0.218   7.705
 3479SOL    HW210974   2.365   0.354   7.730
 3480SOL     OW10975   2.574   1.063   7.811
 3480SOL    HW110976   2.549   1.048   7.902
 3480SOL    HW210977   2.652   1.009   7.799
 3481SOL     OW10978   2.227   1.102   7.927
 3481SOL    HW110979   2.208   1.181   7.876
 3481SOL    HW210980   2.214   1.030   7.865
 3482SOL     OW10981   3.086   1.356   7.821
 3482SOL    HW110982   3.147   1.425   7.846
 3482SOL    HW210983   3.047   1.328   7.904
 3483SOL     OW10984   3.451   0.626   7.921
 3483SOL    HW110985   3.435   0.684   7.996
 3483SOL    HW210986   3.488   0.683   7.854
 3484SOL     OW10987   3.065   0.526   7.715
 3484SOL    HW110988   3.066   0.439   7.755
 3484SOL    HW210989   3.043   0.585   7.787
 3485SOL     OW10990   3.479   0.376   7.814
 3485SOL    HW110991   3.499   0.308   7.878
 3485SOL    HW210992   3.455   0.452   7.866
 3486SOL     OW10993   3.391   0.273   7.575
 3486SOL    HW110994   3.328   0.207   7.605
 3486SOL    HW210995   3.426   0.310   7.656
 3487SOL     OW10996   3.156   0.828   7.481
 3487SOL    HW110997   3.197   0.741   7.483
 3487SOL    HW210998   3.186   0.867   7.399
 3488SOL     OW10999   1.868   1.324   7.640
 3488SOL    HW111000   1.780   1.337   7.603
 3488SOL    HW211001   1.867   1.235   7.674
 3489SOL     OW11002   2.699   0.601   7.764
 3489SOL    HW111003   2.690   0.511   7.734
 3489SOL    HW211004   2.610   0.636   7.763
 3490SOL     OW11005   2.322   0.494   7.637
 3490SOL    HW111006   2.382   0.567   7.654
 3490SOL    HW211007   2.238   0.536   7.622
 3491SOL     OW11008   3.173   0.852   7.755
 3491SOL    HW111009   3.087   0.855   7.795
 3491SOL    HW211010   3.156   0.841   7.661
 3492SOL     OW11011   3.571   0.131   7.945
 3492SOL    HW111012   3.646   0.131   7.885
 3492SOL    HW211013   3.603   0.084   8.023
 3493SOL     OW11014   3.226   1.577   7.896
 3493SOL    HW111015   3.301   1.597   7.840
 3493SOL    HW211016   3.194   1.662   7.926
 3494SOL     OW11017   2.529   1.619   7.604
 3494SOL    HW111018   2.541   1.631   7.510
 3494SOL    HW211019   2.477   1.539   7.611
 3495SOL     OW11020   3.071   1.607   7.478
 3495SOL    HW111021   3.060   1.516   7.506
 3495SOL    HW211022   3.004   1.620   7.411
 3496SOL     OW11023   2.789   0.909   7.756
 3496SOL    HW111024   2.842   0.934   7.681
 3496SOL    HW211025   2.783   0.814   7.752
 3497SOL     OW11026   3.355   1.626   7.489
 3497SOL    HW111027   3.261   1.619   7.477
 3497SOL    HW211028   3.390   1.631   7.400
 3498SOL     OW11029   2.469   1.508   7.936
 3498SOL    HW111030   2.514   1.446   7.878
 3498SOL    HW211031   2.395   1.540   7.885
 3499SOL     OW11032   2.120   1.346   7.741
 3499SOL    HW111033   2.028   1.344   7.716
 3499SOL    HW211034   2.119   1.382   7.830
 3500SOL     OW11035   1.937   0.338   7.489
 3500SOL    HW111036   1.854   0.307   7.452
 3500SOL    HW211037   1.961   0.413   7.435
 3501SOL     OW11038   1.925   0.182   7.745
 3501SOL    HW111039   1.923   0.258   7.686
 3501SOL    HW211040   2.006   0.136   7.722
 3502SOL     OW11041   3.038   1.339   7.556
 3502SOL    HW111042   2.946   1.312   7.556
 3502SOL    HW211043   3.062   1.345   7.648
 3503SOL     OW11044   3.084   0.319   7.917
 3503SOL    HW111045   3.150   0.250   7.910
 3503SOL    HW211046   3.108   0.367   7.996
 3504SOL     OW11047   2.487   0.735   8.056
 3504SOL    HW111048   2.492   0.818   0.024
 3504SOL    HW211049   2.400   0.736   8.016
 3505SOL     OW11050   2.724   1.367   7.482
 3505SOL    HW111051   2.686   1.396   7.566
 3505SOL    HW211052   2.743   1.449   7.436
 3506SOL     OW11053   2.934   0.978   7.537
 3506SOL    HW111054   2.916   1.035   7.463
 3506SOL    HW211055   3.013   0.930   7.512
 3507SOL     OW11056   2.250   0.421   7.985
 3507SOL    HW111057   2.303   0.369   7.924
 3507SOL    HW211058   2.299   0.419   8.067
 3508SOL     OW11059   2.628   1.335   7.762
 3508SOL    HW111060   2.597   1.245   7.762
 3508SOL    HW211061   2.710   1.333   7.810
 3509SOL     OW11062   3.228   0.037   7.611
 3509SOL    HW111063   3.239   5.289   7.529
 3509SOL    HW211064   3.143   0.008   7.645
 3510SOL     OW11065   1.913   1.079   7.749
 3510SOL    HW111066   2.007   1.068   7.736
 3510SOL    HW211067   1.882   0.990   7.765
 3511SOL     OW11068   2.755   1.652   7.781
 3511SOL    HW111069   2.678   1.628   7.728
 3511SOL    HW211070   2.721   1.715   7.845
 3512SOL     OW11071   2.086   2.481   0.124
 3512SOL    HW111072   2.002   2.454   0.162
 3512SOL    HW211073   2.097   2.424   0.049
 3513SOL     OW11074   2.086   2.141   0.991
 3513SOL    HW111075   2.114   2.106   1.076
 3513SOL    HW211076   1.996   2.109   0.981
 3514SOL     OW11077   1.866   2.244   0.638
 3514SOL    HW111078   1.783   2.270   0.680
 3514SOL    HW211079   1.843   2.164   0.590
 3515SOL     OW11080   2.428   3.149   1.176
 3515SOL    HW111081   2.341   3.155   1.136
 3515SOL    HW211082   2.444   3.237   1.211
 3516SOL     OW11083   3.422   3.374   0.707
 3516SOL    HW111084   3.380   3.355   0.791
 3516SOL    HW211085   3.350   3.378   0.644
 3517SOL     OW11086   3.026   2.540   0.738
 3517SOL    HW111087   3.045   2.628   0.706
 3517SOL    HW211088   2.939   2.547   0.779
 3518SOL     OW11089   3.630   2.463   0.233
 3518SOL    HW111090   3.594   2.464   0.145
 3518SOL    HW211091   3.591   2.385   0.274
 3519SOL     OW11092   2.633   3.021   1.040
 3519SOL    HW111093   2.555   3.039   1.092
 3519SOL    HW211094   2.654   3.104   0.998
 3520SOL     OW11095   2.569   3.025   1.824
 3520SOL    HW111096   2.622   3.103   1.837
 3520SOL    HW211097   2.492   3.056   1.775
 3521SOL     OW11098   2.191   3.290   1.067
 3521SOL    HW111099   2.120   3.251   1.017
 3521SOL    HW211100   2.242   3.339   1.003
 3522SOL     OW11101   3.323   3.361   1.355
 3522SOL    HW111102   3.373   3.442   1.364
 3522SOL    HW211103   3.260   3.363   1.427
 3523SOL     OW11104   2.312   2.265   1.500
 3523SOL    HW111105   2.388   2.206   1.496
 3523SOL    HW211106   2.237   2.206   1.508
 3524SOL     OW11107   3.475   2.310   0.740
 3524SOL    HW111108   3.398   2.332   0.687
 3524SOL    HW211109   3.487   2.386   0.797
 3525SOL     OW11110   2.082   3.577   0.471
 3525SOL    HW111111   2.103   3.653   0.525
 3525SOL    HW211112   2.157   3.568   0.412
 3526SOL     OW11113   3.000   3.205   1.694
 3526SOL    HW111114   3.040   3.199   1.781
 3526SOL    HW211115   2.948   3.125   1.686
 3527SOL     OW11116   2.087   3.304   0.534
 3527SOL    HW111117   2.074   3.399   0.536
 3527SOL    HW211118   2.028   3.271   0.601
 3528SOL     OW11119   2.115   2.952   0.887
 3528SOL    HW111120   2.113   2.868   0.931
 3528SOL    HW211121   2.062   3.009   0.942
 3529SOL     OW11122   2.473   3.654   1.430
 3529SOL    HW111123   2.392   3.636   1.476
 3529SOL    HW211124   2.496   3.744   1.455
 3530SOL     OW11125   2.467   2.855   0.105
 3530SOL    HW111126   2.419   2.937   0.092
 3530SOL    HW211127   2.506   2.862   0.192
 3531SOL     OW11128   3.457   1.985   1.468
 3531SOL    HW111129   3.466   2.066   1.417
 3531SOL    HW211130   3.444   2.015   1.558
 3532SOL     OW11131   1.978   2.510   0.564
 3532SOL    HW111132   1.943   2.424   0.585
 3532SOL    HW211133   1.968   2.561   0.645
 3533SOL     OW11134   3.708   3.620   0.331
 3533SOL    HW111135   3.772   3.590   0.396
 3533SOL    HW211136   3.732   3.711   0.314
 3534SOL     OW11137   1.891   3.458   0.111
 3534SOL    HW111138   1.878   3.370   0.145
 3534SOL    HW211139   1.875   3.516   0.186
 3535SOL     OW11140   3.550   2.780   0.643
 3535SOL    HW111141   3.633   2.738   0.623
 3535SOL    HW211142   3.529   2.832   0.565
 3536SOL     OW11143   3.508   2.967   0.435
 3536SOL    HW111144   3.588   2.981   0.384
 3536SOL    HW211145   3.514   3.029   0.507
 3537SOL     OW11146   1.981   2.604   1.586
 3537SOL    HW111147   2.072   2.631   1.600
 3537SOL    HW211148   1.930   2.686   1.593
 3538SOL     OW11149   2.478   3.247   0.735
 3538SOL    HW111150   2.433   3.164   0.745
 3538SOL    HW211151   2.459   3.274   0.645
 3539SOL     OW11152   3.150   3.098   1.426
 3539SOL    HW111153   3.183   3.032   1.364
 3539SOL    HW211154   3.210   3.093   1.501
 3540SOL     OW11155   2.678   1.866   0.511
 3540SOL    HW111156   2.716   1.951   0.489
 3540SOL    HW211157   2.584   1.883   0.519
 3541SOL     OW11158   2.046   2.832   1.271
 3541SOL    HW111159   2.130   2.788   1.257
 3541SOL    HW211160   1.983   2.777   1.224
 3542SOL     OW11161   3.368   2.869   0.214
 3542SOL    HW111162   3.320   2.792   0.244
 3542SOL    HW211163   3.423   2.894   0.289
 3543SOL     OW11164   3.048   3.668   1.622
 3543SOL    HW111165   3.058   3.727   1.548
 3543SOL    HW211166   3.063   3.581   1.586
 3544SOL     OW11167   2.193   2.110   1.810
 3544SOL    HW111168   2.238   2.193   1.824
 3544SOL    HW211169   2.104   2.125   1.842
 3545SOL     OW11170   3.329   3.282   0.952
 3545SOL    HW111171   3.261   3.297   1.018
 3545SOL    HW211172   3.317   3.191   0.926
 3546SOL     OW11173   3.521   3.602   0.581
 3546SOL    HW111174   3.500   3.574   0.492
 3546SOL    HW211175   3.496   3.528   0.636
 3547SOL     OW11176   3.144   2.211   0.932
 3547SOL    HW111177   3.054   2.179   0.941
 3547SOL    HW211178   3.194   2.159   0.995
 3548SOL     OW11179   3.449   3.532   0.319
 3548SOL    HW111180   3.540   3.562   0.312
 3548SOL    HW211181   3.422   3.516   0.229
 3549SOL     OW11182   3.257   2.336   1.677
 3549SOL    HW111183   3.257   2.381   1.761
 3549SOL    HW211184   3.317   2.263   1.687
 3550SOL     OW11185   2.850   2.273   1.248
 3550SOL    HW111186   2.761   2.283   1.282
 3550SOL    HW211187   2.838   2.240   1.159
 3551SOL     OW11188   1.951   2.683   0.776
 3551SOL    HW111189   2.031   2.677   0.827
 3551SOL    HW211190   1.906   2.760   0.810
 3552SOL     OW11191   1.989   3.710   1.578
 3552SOL    HW111192   1.989   3.689   1.671
 3552SOL    HW211193   1.897   3.702   1.552
 3553SOL     OW11194   2.750   2.220   0.208
 3553SOL    HW111195   2.799   2.267   0.141
 3553SOL    HW211196   2.747   2.129   0.176
 3554SOL     OW11197   3.570   2.436   1.828
 3554SOL    HW111198   3.532   2.510   1.780
 3554SOL    HW211199   3.598   2.376   1.760
 3555SOL     OW11200   3.235   2.999   0.537
 3555SOL    HW111201   3.317   2.991   0.489
 3555SOL    HW211202   3.186   3.066   0.491
 3556SOL     OW11203   2.410   2.040   0.889
 3556SOL    HW111204   2.411   2.064   0.981
 3556SOL    HW211205   2.409   2.123   0.842
 3557SOL     OW11206   2.865   3.306   0.473
 3557SOL    HW111207   2.829   3.379   0.422
 3557SOL    HW211208   2.847   3.329   0.564
 3558SOL     OW11209   2.217   3.671   0.862
 3558SOL    HW111210   2.260   3.586   0.870
 3558SOL    HW211211   2.285   3.735   0.880
 3559SOL     OW11212   3.661   2.918   0.869
 3559SOL    HW111213   3.606   2.901   0.793
 3559SOL    HW211214   3.600   2.924   0.942
 3560SOL     OW11215   3.089   3.400   1.512
 3560SOL    HW111216   3.076   3.328   1.574
 3560SOL    HW211217   3.026   3.384   1.442
 3561SOL     OW11218   2.195   2.809   0.246
 3561SOL    HW111219   2.272   2.830   0.193
 3561SOL    HW211220   2.192   2.713   0.247
 3562SOL     OW11221   3.337   2.609   0.726
 3562SOL    HW111222   3.329   2.563   0.810
 3562SOL    HW211223   3.417   2.661   0.735
 3563SOL     OW11224   2.326   3.128   1.737
 3563SOL    HW111225   2.299   3.132   1.645
 3563SOL    HW211226   2.244   3.126   1.787
 3564SOL     OW11227   2.970   3.643   0.224
 3564SOL    HW111228   2.913   3.603   0.290
 3564SOL    HW211229   2.991   3.572   0.164
 3565SOL     OW11230   2.063   2.145   1.502
 3565SOL    HW111231   1.979   2.190   1.496
 3565SOL    HW211232   2.047   2.071   1.561
 3566SOL     OW11233   3.495   3.235   0.083
 3566SOL    HW111234   3.455   3.321   0.082
 3566SOL    HW211235   3.424   3.174   0.064
 3567SOL     OW11236   2.326   3.600   0.324
 3567SOL    HW111237   2.369   3.659   0.386
 3567SOL    HW211238   2.396   3.574   0.264
 3568SOL     OW11239   3.269   1.973   0.444
 3568SOL    HW111240   3.260   1.951   0.351
 3568SOL    HW211241   3.363   1.980   0.458
 3569SOL     OW11242   2.117   3.653   1.232
 3569SOL    HW111243   2.169   3.588   1.278
 3569SOL    HW211244   2.109   3.618   1.143
 3570SOL     OW11245   2.798   3.563   0.898
 3570SOL    HW111246   2.873   3.509   0.925
 3570SOL    HW211247   2.755   3.512   0.830
 3571SOL     OW11248   2.242   2.552   0.465
 3571SOL    HW111249   2.274   2.465   0.489
 3571SOL    HW211250   2.152   2.554   0.497
 3572SOL     OW11251   3.397   2.087   1.725
 3572SOL    HW111252   3.406   2.108   1.818
 3572SOL    HW211253   3.328   2.021   1.722
 3573SOL     OW11254   2.491   1.976   0.135
 3573SOL    HW111255   2.586   1.963   0.143
 3573SOL    HW211256   2.471   1.953   0.045
 3574SOL     OW11257   2.619   2.114   1.746
 3574SOL    HW111258   2.702   2.067   1.751
 3574SOL    HW211259   2.603   2.147   1.834
 3575SOL     OW11260   2.739   3.386   1.194
 3575SOL    HW111261   2.722   3.350   1.107
 3575SOL    HW211262   2.806   3.329   1.232
 3576SOL     OW11263   3.210   2.451   1.428
 3576SOL    HW111264   3.237   2.419   1.514
 3576SOL    HW211265   3.246   2.540   1.423
 3577SOL     OW11266   2.678   3.270   0.936
 3577SOL    HW111267   2.761   3.252   0.893
 3577SOL    HW211268   2.613   3.264   0.866
 3578SOL     OW11269   2.777   2.351   0.899
 3578SOL    HW111270   2.762   2.337   0.806
 3578SOL    HW211271   2.826   2.274   0.927
 3579SOL     OW11272   2.412   1.926   0.505
 3579SOL    HW111273   2.331   1.924   0.557
 3579SOL    HW211274   2.404   2.004   0.451
 3580SOL     OW11275   3.295   3.061   0.035
 3580SOL    HW111276   3.318   2.988   0.092
 3580SOL    HW211277   3.207   3.087   0.063
 3581SOL     OW11278   2.172   1.918   0.170
 3581SOL    HW111279   2.238   1.985   0.186
 3581SOL    HW211280   2.208   1.839   0.211
 3582SOL     OW11281   2.801   2.112   0.459
 3582SOL    HW111282   2.775   2.151   0.375
 3582SOL    HW211283   2.896   2.123   0.462
 3583SOL     OW11284   2.942   2.520   1.462
 3583SOL    HW111285   2.898   2.439   1.436
 3583SOL    HW211286   3.035   2.504   1.443
 3584SOL     OW11287   3.088   3.429   0.792
 3584SOL    HW111288   3.101   3.498   0.727
 3584SOL    HW211289   3.153   3.446   0.860
 3585SOL     OW11290   2.329   3.018   0.731
 3585SOL    HW111291   2.262   2.994   0.794
 3585SOL    HW211292   2.293   2.993   0.646
 3586SOL     OW11293   3.130   3.656   0.607
 3586SOL    HW111294   3.179   3.719   0.555
 3586SOL    HW211295   3.063   3.708   0.652
 3587SOL     OW11296   2.917   2.371   0.027
 3587SOL    HW111297   2.872   2.452   0.004
 3587SOL    HW211298   2.976   2.396   0.098
 3588SOL     OW11299   1.942   2.417   1.391
 3588SOL    HW111300   2.034   2.415   1.366
 3588SOL    HW211301   1.935   2.487   1.455
 3589SOL     OW11302   2.417   2.075   1.160
 3589SOL    HW111303   2.459   2.000   1.202
 3589SOL    HW211304   2.327   2.074   1.193
 3590SOL     OW11305   2.718   2.308   0.640
 3590SOL    HW111306   2.727   2.382   0.580
 3590SOL    HW211307   2.743   2.231   0.588
 3591SOL     OW11308   2.876   1.914   0.750
 3591SOL    HW111309   2.817   1.906   0.675
 3591SOL    HW211310   2.855   1.839   0.805
 3592SOL     OW11311   3.301   3.025   0.858
 3592SOL    HW111312   3.233   2.958   0.855
 3592SOL    HW211313   3.327   3.037   0.767
 3593SOL     OW11314   3.331   2.467   0.975
 3593SOL    HW111315   3.277   2.388   0.979
 3593SOL    HW211316   3.389   2.460   1.051
 3594SOL     OW11317   3.709   2.677   0.388
 3594SOL    HW111318   3.762   2.624   0.448
 3594SOL    HW211319   3.679   2.615   0.322
 3595SOL     OW11320   2.341   3.306   0.176
 3595SOL    HW111321   2.271   3.264   0.226
 3595SOL    HW211322   2.351   3.252   0.098
 3596SOL     OW11323   3.531   3.127   0.648
 3596SOL    HW111324   3.626   3.130   0.661
 3596SOL    HW211325   3.502   3.215   0.668
 3597SOL     OW11326   3.259   2.440   0.087
 3597SOL    HW111327   3.198   2.418   0.157
 3597SOL    HW211328   3.316   2.363   0.080
 3598SOL     OW11329   2.377   2.128   0.324
 3598SOL    HW111330   2.427   2.075   0.262
 3598SOL    HW211331   2.366   2.212   0.281
 3599SOL     OW11332   3.615   3.101   1.573
 3599SOL    HW111333   3.702   3.062   1.569
 3599SOL    HW211334   3.630   3.191   1.602
 3600SOL     OW11335   2.923   3.220   1.335
 3600SOL    HW111336   2.847   3.187   1.382
 3600SOL    HW211337   2.997   3.175   1.376
 3601SOL     OW11338   3.470   3.487   1.654
 3601SOL    HW111339   3.464   3.522   1.565
 3601SOL    HW211340   3.553   3.440   1.656
 3602SOL     OW11341   2.991   3.064   1.104
 3602SOL    HW111342   2.927   3.091   1.170
 3602SOL    HW211343   2.954   3.097   1.021
 3603SOL     OW11344   3.491   2.960   1.078
 3603SOL    HW111345   3.486   3.022   1.151
 3603SOL    HW211346   3.412   2.978   1.026
 3604SOL     OW11347   2.780   1.958   1.396
 3604SOL    HW111348   2.803   1.940   1.305
 3604SOL    HW211349   2.859   1.998   1.433
 3605SOL     OW11350   2.851   2.973   1.717
 3605SOL    HW111351   2.759   2.986   1.741
 3605SOL    HW211352   2.849   2.921   1.637
 3606SOL     OW11353   2.568   2.945   0.363
 3606SOL    HW111354   2.521   2.935   0.445
 3606SOL    HW211355   2.610   2.860   0.349
 3607SOL     OW11356   2.267   2.675   1.256
 3607SOL    HW111357   2.357   2.684   1.289
 3607SOL    HW211358   2.243   2.584   1.276
 3608SOL     OW11359   3.128   2.238   1.275
 3608SOL    HW111360   3.163   2.315   1.320
 3608SOL    HW211361   3.038   2.262   1.254
 3609SOL     OW11362   1.933   3.435   1.352
 3609SOL    HW111363   1.903   3.508   1.298
 3609SOL    HW211364   2.028   3.438   1.347
 3610SOL     OW11365   2.219   2.968   0.484
 3610SOL    HW111366   2.210   3.044   0.426
 3610SOL    HW211367   2.216   2.892   0.425
 3611SOL     OW11368   2.411   2.375   0.869
 3611SOL    HW111369   2.408   2.400   0.776
 3611SOL    HW211370   2.502   2.388   0.895
 3612SOL     OW11371   3.109   3.208   0.396
 3612SOL    HW111372   3.164   3.282   0.422
 3612SOL    HW211373   3.021   3.233   0.426
 3613SOL     OW11374   3.143   3.319   1.146
 3613SOL    HW111375   3.197   3.321   1.225
 3613SOL    HW211376   3.083   3.246   1.160
 3614SOL     OW11377   3.442   2.486   0.481
 3614SOL    HW111378   3.395   2.539   0.546
 3614SOL    HW211379   3.482   2.549   0.422
 3615SOL     OW11380   2.209   3.389   1.315
 3615SOL    HW111381   2.196   3.347   1.230
 3615SOL    HW211382   2.304   3.401   1.322
 3616SOL     OW11383   2.265   2.604   1.610
 3616SOL    HW111384   2.317   2.654   1.548
 3616SOL    HW211385   2.295   2.513   1.598
 3617SOL     OW11386   3.463   2.641   1.682
 3617SOL    HW111387   3.377   2.682   1.674
 3617SOL    HW211388   3.515   2.683   1.614
 3618SOL     OW11389   2.863   1.987   1.759
 3618SOL    HW111390   2.917   2.059   1.726
 3618SOL    HW211391   2.909   1.908   1.732
 3619SOL     OW11392   2.359   1.900   1.746
 3619SOL    HW111393   2.315   1.847   1.680
 3619SOL    HW211394   2.301   1.975   1.759
 3620SOL     OW11395   3.225   2.721   1.030
 3620SOL    HW111396   3.144   2.709   0.980
 3620SOL    HW211397   3.267   2.635   1.028
 3621SOL     OW11398   3.060   2.390   0.273
 3621SOL    HW111399   3.063   2.309   0.323
 3621SOL    HW211400   3.076   2.460   0.337
 3622SOL     OW11401   2.160   2.061   1.248
 3622SOL    HW111402   2.123   2.093   1.330
 3622SOL    HW211403   2.141   1.967   1.248
 3623SOL     OW11404   1.907   3.173   1.276
 3623SOL    HW111405   1.941   3.119   1.347
 3623SOL    HW211406   1.915   3.263   1.308
 3624SOL     OW11407   3.597   2.821   1.853
 3624SOL    HW111408   3.551   2.760   1.795
 3624SOL    HW211409   3.537   2.835   1.926
 3625SOL     OW11410   2.165   1.928   0.623
 3625SOL    HW111411   2.145   2.018   0.647
 3625SOL    HW211412   2.172   1.882   0.707
 3626SOL     OW11413   3.483   2.237   0.370
 3626SOL    HW111414   3.507   2.172   0.435
 3626SOL    HW211415   3.457   2.314   0.421
 3627SOL     OW11416   2.843   3.428   1.716
 3627SOL    HW111417   2.828   3.473   1.633
 3627SOL    HW211418   2.888   3.347   1.692
 3628SOL     OW11419   3.717   3.368   1.605
 3628SOL    HW111420   3.735   3.394   1.515
 3628SOL    HW211421   3.798   3.386   1.653
 3629SOL     OW11422   2.209   2.780   1.814
 3629SOL    HW111423   2.290   2.809   1.857
 3629SOL    HW211424   2.238   2.715   1.750
 3630SOL     OW11425   3.378   2.164   0.127
 3630SOL    HW111426   3.331   2.082   0.142
 3630SOL    HW211427   3.419   2.184   0.211
 3631SOL     OW11428   3.159   2.687   0.022
 3631SOL    HW111429   3.195   2.600   0.037
 3631SOL    HW211430   3.215   2.725   8.034
 3632SOL     OW11431   2.926   3.199   0.849
 3632SOL    HW111432   2.931   3.130   0.784
 3632SOL    HW211433   2.988   3.265   0.819
 3633SOL     OW11434   2.168   2.673   0.949
 3633SOL    HW111435   2.258   2.705   0.956
 3633SOL    HW211436   2.171   2.586   0.989
 3634SOL     OW11437   2.188   2.386   1.020
 3634SOL    HW111438   2.151   2.299   1.004
 3634SOL    HW211439   2.266   2.389   0.964
 3635SOL     OW11440   3.000   2.235   1.679
 3635SOL    HW111441   2.954   2.289   1.744
 3635SOL    HW211442   3.086   2.274   1.672
 3636SOL     OW11443   3.023   2.063   1.469
 3636SOL    HW111444   3.013   2.126   1.540
 3636SOL    HW211445   3.062   2.114   1.398
 3637SOL     OW11446   1.873   3.187   0.190
 3637SOL    HW111447   1.787   3.201   0.152
 3637SOL    HW211448   1.871   3.096   0.222
 3638SOL     OW11449   1.952   3.649   0.938
 3638SOL    HW111450   1.922   3.569   0.894
 3638SOL    HW211451   2.042   3.661   0.907
 3639SOL     OW11452   2.359   3.435   0.905
 3639SOL    HW111453   2.427   3.497   0.930
 3639SOL    HW211454   2.403   3.371   0.850
 3640SOL     OW11455   1.897   2.406   1.117
 3640SOL    HW111456   1.979   2.397   1.068
 3640SOL    HW211457   1.924   2.411   1.208
 3641SOL     OW11458   2.053   2.381   1.727
 3641SOL    HW111459   2.103   2.337   1.658
 3641SOL    HW211460   2.010   2.454   1.683
 3642SOL     OW11461   3.238   2.801   1.658
 3642SOL    HW111462   3.260   2.894   1.656
 3642SOL    HW211463   3.236   2.775   1.566
 3643SOL     OW11464   3.504   2.464   1.186
 3643SOL    HW111465   3.493   2.405   1.261
 3643SOL    HW211466   3.591   2.443   1.152
 3644SOL     OW11467   2.105   3.413   1.728
 3644SOL    HW111468   2.082   3.478   1.795
 3644SOL    HW211469   2.107   3.330   1.774
 3645SOL     OW11470   2.550   2.291   1.253
 3645SOL    HW111471   2.499   2.213   1.229
 3645SOL    HW211472   2.550   2.345   1.174
 3646SOL     OW11473   2.788   3.542   1.469
 3646SOL    HW111474   2.765   3.505   1.384
 3646SOL    HW211475   2.784   3.637   1.456
 3647SOL     OW11476   2.333   2.361   0.189
 3647SOL    HW111477   2.393   2.435   0.202
 3647SOL    HW211478   2.246   2.401   0.191
 3648SOL     OW11479   2.006   3.004   1.473
 3648SOL    HW111480   2.008   2.951   1.553
 3648SOL    HW211481   2.022   2.941   1.403
 3649SOL     OW11482   3.189   2.909   1.224
 3649SOL    HW111483   3.212   2.846   1.156
 3649SOL    HW211484   3.119   2.962   1.184
 3650SOL     OW11485   3.165   2.691   0.304
 3650SOL    HW111486   3.089   2.734   0.343
 3650SOL    HW211487   3.151   2.698   0.210
 3651SOL     OW11488   3.633   3.606   1.150
 3651SOL    HW111489   3.694   3.632   1.081
 3651SOL    HW211490   3.610   3.516   1.128
 3652SOL     OW11491   3.103   3.595   1.112
 3652SOL    HW111492   3.185   3.615   1.068
 3652SOL    HW211493   3.109   3.501   1.131
 3653SOL     OW11494   1.946   3.129   1.012
 3653SOL    HW111495   1.932   3.142   1.106
 3653SOL    HW211496   1.873   3.074   0.984
 3654SOL     OW11497   2.539   3.528   1.729
 3654SOL    HW111498   2.486   3.607   1.723
 3654SOL    HW211499   2.605   3.539   1.660
 3655SOL     OW11500   2.767   1.955   0.135
 3655SOL    HW111501   2.782   1.938   0.042
 3655SOL    HW211502   2.832   1.900   0.179
 3656SOL     OW11503   3.581   2.007   0.509
 3656SOL    HW111504   3.653   1.991   0.449
 3656SOL    HW211505   3.565   1.922   0.551
 3657SOL     OW11506   3.251   3.430   0.485
 3657SOL    HW111507   3.315   3.463   0.421
 3657SOL    HW211508   3.204   3.508   0.514
 3658SOL     OW11509   1.998   3.659   1.843
 3658SOL    HW111510   1.948   3.593   1.892
 3658SOL    HW211511   2.046   3.706   1.911
 3659SOL     OW11512   3.130   2.788   0.671
 3659SOL    HW111513   3.203   2.726   0.679
 3659SOL    HW211514   3.167   2.860   0.619
 3660SOL     OW11515   2.688   3.138   1.436
 3660SOL    HW111516   2.646   3.182   1.511
 3660SOL    HW211517   2.617   3.124   1.374
 3661SOL     OW11518   2.539   3.484   0.155
 3661SOL    HW111519   2.544   3.490   0.059
 3661SOL    HW211520   2.477   3.413   0.171
 3662SOL     OW11521   3.488   3.589   1.391
 3662SOL    HW111522   3.538   3.596   1.310
 3662SOL    HW211523   3.474   3.679   1.419
 3663SOL     OW11524   3.703   2.035   0.967
 3663SOL    HW111525   3.732   1.948   0.940
 3663SOL    HW211526   3.616   2.045   0.927
 3664SOL     OW11527   2.124   2.181   0.717
 3664SOL    HW111528   2.037   2.213   0.693
 3664SOL    HW211529   2.120   2.170   0.812
 3665SOL     OW11530   3.020   3.444   0.052
 3665SOL    HW111531   3.035   3.352   0.071
 3665SOL    HW211532   3.029   3.450   8.037
 3666SOL     OW11533   3.372   3.485   0.061
 3666SOL    HW111534   3.277   3.487   0.050
 3666SOL    HW211535   3.406   3.487   8.051
 3667SOL     OW11536   2.229   3.165   1.493
 3667SOL    HW111537   2.219   3.242   1.436
 3667SOL    HW211538   2.152   3.111   1.475
 3668SOL     OW11539   3.473   3.145   1.281
 3668SOL    HW111540   3.533   3.135   1.354
 3668SOL    HW211541   3.412   3.214   1.308
 3669SOL     OW11542   2.910   2.966   0.702
 3669SOL    HW111543   2.846   2.918   0.754
 3669SOL    HW211544   2.979   2.901   0.683
 3670SOL     OW11545   2.888   2.098   0.966
 3670SOL    HW111546   2.883   2.048   0.884
 3670SOL    HW211547   2.881   2.031   1.034
 3671SOL     OW11548   2.463   3.349   0.479
 3671SOL    HW111549   2.509   3.304   0.408
 3671SOL    HW211550   2.394   3.399   0.436
 3672SOL     OW11551   3.584   2.254   1.381
 3672SOL    HW111552   3.656   2.317   1.379
 3672SOL    HW211553   3.614   2.183   1.324
 3673SOL     OW11554   2.126   3.179   0.302
 3673SOL    HW111555   2.042   3.194   0.257
 3673SOL    HW211556   2.119   3.228   0.384
 3674SOL     OW11557   1.973   2.883   1.718
 3674SOL    HW111558   1.897   2.861   1.772
 3674SOL    HW211559   2.047   2.847   1.767
 3675SOL     OW11560   2.533   2.056   1.494
 3675SOL    HW111561   2.618   2.039   1.454
 3675SOL    HW211562   2.552   2.079   1.585
 3676SOL     OW11563   1.920   2.220   0.039
 3676SOL    HW111564   1.843   2.168   0.016
 3676SOL    HW211565   1.962   2.240   8.035
 3677SOL     OW11566   3.293   2.721   1.401
 3677SOL    HW111567   3.243   2.781   1.346
 3677SOL    HW211568   3.382   2.724   1.366
 3678SOL     OW11569   1.934   2.016   0.305
 3678SOL    HW111570   1.917   2.100   0.261
 3678SOL    HW211571   2.017   1.986   0.268
 3679SOL     OW11572   3.047   3.181   0.121
 3679SOL    HW111573   2.952   3.170   0.119
 3679SOL    HW211574   3.069   3.182   0.215
 3680SOL     OW11575   3.346   3.638   0.978
 3680SOL    HW111576   3.370   3.699   0.908
 3680SOL    HW211577   3.429   3.620   1.023
 3681SOL     OW11578   3.335   3.061   1.632
 3681SOL    HW111579   3.322   3.076   1.726
 3681SOL    HW211580   3.428   3.077   1.617
 3682SOL     OW11581   2.241   3.601   1.564
 3682SOL    HW111582   2.156   3.643   1.550
 3682SOL    HW211583   2.221   3.518   1.606
 3683SOL     OW11584   3.531   2.743   1.255
 3683SOL    HW111585   3.525   2.658   1.213
 3683SOL    HW211586   3.522   2.807   1.184
 3684SOL     OW11587   3.079   2.180   0.459
 3684SOL    HW111588   3.144   2.110   0.450
 3684SOL    HW211589   3.108   2.229   0.536
 3685SOL     OW11590   3.624   2.224   1.651
 3685SOL    HW111591   3.607   2.239   1.558
 3685SOL    HW211592   3.552   2.167   1.679
 3686SOL     OW11593   3.607   2.795   1.512
 3686SOL    HW111594   3.605   2.890   1.526
 3686SOL    HW211595   3.592   2.784   1.419
 3687SOL     OW11596   2.759   3.236   0.038
 3687SOL    HW111597   2.696   3.229   0.109
 3687SOL    HW211598   2.739   3.319   8.076
 3688SOL     OW11599   2.522   3.654   0.945
 3688SOL    HW111600   2.503   3.745   0.921
 3688SOL    HW211601   2.617   3.646   0.938
 3689SOL     OW11602   2.962   2.863   0.092
 3689SOL    HW111603   2.945   2.919   0.016
 3689SOL    HW211604   3.030   2.802   0.062
 3690SOL     OW11605   3.716   3.416   0.844
 3690SOL    HW111606   3.638   3.405   0.791
 3690SOL    HW211607   3.706   3.351   0.914
 3691SOL     OW11608   2.087   3.165   1.856
 3691SOL    HW111609   2.018   3.105   1.827
 3691SOL    HW211610   2.069   3.177   1.950
 3692SOL     OW11611   1.945   3.094   0.666
 3692SOL    HW111612   1.951   3.046   0.748
 3692SOL    HW211613   2.020   3.062   0.614
 3693SOL     OW11614   2.542   3.264   1.628
 3693SOL    HW111615   2.461   3.223   1.657
 3693SOL    HW211616   2.537   3.353   1.664
 3694SOL     OW11617   3.674   2.046   1.237
 3694SOL    HW111618   3.685   1.952   1.252
 3694SOL    HW211619   3.684   2.057   1.143
 3695SOL     OW11620   2.306   2.296   0.541
 3695SOL    HW111621   2.325   2.230   0.474
 3695SOL    HW211622   2.244   2.254   0.600
 3696SOL     OW11623   3.563   3.351   1.095
 3696SOL    HW111624   3.481   3.328   1.051
 3696SOL    HW211625   3.574   3.282   1.161
 3697SOL     OW11626   2.196   2.414   1.297
 3697SOL    HW111627   2.251   2.355   1.349
 3697SOL    HW211628   2.208   2.385   1.207
 3698SOL     OW11629   2.690   3.440   0.675
 3698SOL    HW111630   2.675   3.494   0.597
 3698SOL    HW211631   2.613   3.383   0.680
 3699SOL     OW11632   3.295   2.086   1.119
 3699SOL    HW111633   3.320   2.007   1.166
 3699SOL    HW211634   3.242   2.136   1.182
 3700SOL     OW11635   2.871   1.879   1.142
 3700SOL    HW111636   2.817   1.811   1.102
 3700SOL    HW211637   2.959   1.842   1.145
 3701SOL     OW11638   2.635   3.203   0.302
 3701SOL    HW111639   2.604   3.114   0.313
 3701SOL    HW211640   2.715   3.207   0.354
 3702SOL     OW11641   2.481   3.421   1.284
 3702SOL    HW111642   2.485   3.502   1.334
 3702SOL    HW211643   2.569   3.410   1.248
 3703SOL     OW11644   3.218   1.916   0.184
 3703SOL    HW111645   3.239   1.869   0.104
 3703SOL    HW211646   3.132   1.882   0.210
 3704SOL     OW11647   3.165   2.315   0.681
 3704SOL    HW111648   3.119   2.399   0.693
 3704SOL    HW211649   3.161   2.273   0.767
 3705SOL     OW11650   3.448   2.064   0.878
 3705SOL    HW111651   3.388   2.084   0.949
 3705SOL    HW211652   3.448   2.142   0.823
 3706SOL     OW11653   1.904   2.928   0.301
 3706SOL    HW111654   2.000   2.929   0.303
 3706SOL    HW211655   1.880   2.846   0.343
 3707SOL     OW11656   2.745   3.516   0.347
 3707SOL    HW111657   2.677   3.499   0.282
 3707SOL    HW211658   2.713   3.591   0.396
 3708SOL     OW11659   2.093   2.480   1.985
 3708SOL    HW111660   2.004   2.486   2.020
 3708SOL    HW211661   2.081   2.457   1.892
 3709SOL     OW11662   2.088   2.140   2.866
 3709SOL    HW111663   2.108   2.092   2.947
 3709SOL    HW211664   1.999   2.113   2.843
 3710SOL     OW11665   1.866   2.243   2.502
 3710SOL    HW111666   1.783   2.270   2.542
 3710SOL    HW211667   1.844   2.164   2.452
 3711SOL     OW11668   2.423   3.142   3.042
 3711SOL    HW111669   2.341   3.146   2.994
 3711SOL    HW211670   2.453   3.233   3.045
 3712SOL     OW11671   3.422   3.374   2.568
 3712SOL    HW111672   3.380   3.355   2.651
 3712SOL    HW211673   3.351   3.379   2.505
 3713SOL     OW11674   3.018   2.540   2.587
 3713SOL    HW111675   3.045   2.629   2.565
 3713SOL    HW211676   2.940   2.551   2.641
 3714SOL     OW11677   3.628   2.467   2.091
 3714SOL    HW111678   3.608   2.460   1.998
 3714SOL    HW211679   3.594   2.387   2.130
 3715SOL     OW11680   2.641   3.023   2.911
 3715SOL    HW111681   2.561   3.036   2.962
 3715SOL    HW211682   2.651   3.105   2.862
 3716SOL     OW11683   2.202   3.270   2.921
 3716SOL    HW111684   2.123   3.240   2.875
 3716SOL    HW211685   2.245   3.327   2.857
 3717SOL     OW11686   3.311   3.369   3.213
 3717SOL    HW111687   3.368   3.446   3.220
 3717SOL    HW211688   3.306   3.336   3.303
 3718SOL     OW11689   3.475   2.310   2.602
 3718SOL    HW111690   3.399   2.332   2.549
 3718SOL    HW211691   3.489   2.386   2.658
 3719SOL     OW11692   2.081   3.576   2.334
 3719SOL    HW111693   2.103   3.652   2.388
 3719SOL    HW211694   2.154   3.569   2.273
 3720SOL     OW11695   2.091   3.303   2.397
 3720SOL    HW111696   2.075   3.397   2.401
 3720SOL    HW211697   2.032   3.266   2.462
 3721SOL     OW11698   2.112   2.951   2.754
 3721SOL    HW111699   2.112   2.871   2.807
 3721SOL    HW211700   2.063   3.014   2.807
 3722SOL     OW11701   2.474   3.642   3.304
 3722SOL    HW111702   2.383   3.636   3.335
 3722SOL    HW211703   2.497   3.734   3.316
 3723SOL     OW11704   2.429   2.862   1.988
 3723SOL    HW111705   2.475   2.919   1.926
 3723SOL    HW211706   2.492   2.850   2.059
 3724SOL     OW11707   3.460   1.984   3.325
 3724SOL    HW111708   3.473   2.066   3.277
 3724SOL    HW211709   3.455   2.011   3.417
 3725SOL     OW11710   1.978   2.513   2.424
 3725SOL    HW111711   1.944   2.426   2.445
 3725SOL    HW211712   1.968   2.564   2.504
 3726SOL     OW11713   3.704   3.621   2.197
 3726SOL    HW111714   3.769   3.592   2.262
 3726SOL    HW211715   3.728   3.711   2.178
 3727SOL     OW11716   1.894   3.457   1.986
 3727SOL    HW111717   1.876   3.365   2.006
 3727SOL    HW211718   1.870   3.504   2.065
 3728SOL     OW11719   3.550   2.779   2.502
 3728SOL    HW111720   3.635   2.740   2.485
 3728SOL    HW211721   3.531   2.830   2.423
 3729SOL     OW11722   3.508   2.969   2.291
 3729SOL    HW111723   3.594   2.974   2.249
 3729SOL    HW211724   3.514   3.030   2.365
 3730SOL     OW11725   2.476   3.247   2.596
 3730SOL    HW111726   2.432   3.163   2.607
 3730SOL    HW211727   2.457   3.273   2.506
 3731SOL     OW11728   2.675   1.857   2.372
 3731SOL    HW111729   2.719   1.939   2.350
 3731SOL    HW211730   2.583   1.881   2.379
 3732SOL     OW11731   2.087   2.849   3.046
 3732SOL    HW111732   2.148   2.784   3.081
 3732SOL    HW211733   2.002   2.825   3.085
 3733SOL     OW11734   3.394   2.856   2.060
 3733SOL    HW111735   3.328   2.794   2.093
 3733SOL    HW211736   3.435   2.891   2.139
 3734SOL     OW11737   3.052   3.668   3.480
 3734SOL    HW111738   3.057   3.745   3.424
 3734SOL    HW211739   3.036   3.596   3.419
 3735SOL     OW11740   3.329   3.284   2.813
 3735SOL    HW111741   3.259   3.301   2.877
 3735SOL    HW211742   3.316   3.193   2.787
 3736SOL     OW11743   3.520   3.602   2.440
 3736SOL    HW111744   3.501   3.572   2.351
 3736SOL    HW211745   3.496   3.528   2.496
 3737SOL     OW11746   3.144   2.212   2.798
 3737SOL    HW111747   3.054   2.181   2.803
 3737SOL    HW211748   3.193   2.157   2.859
 3738SOL     OW11749   3.443   3.532   2.171
 3738SOL    HW111750   3.533   3.563   2.164
 3738SOL    HW211751   3.416   3.515   2.081
 3739SOL     OW11752   2.851   2.275   3.126
 3739SOL    HW111753   2.759   2.291   3.147
 3739SOL    HW211754   2.849   2.241   3.037
 3740SOL     OW11755   1.949   2.682   2.640
 3740SOL    HW111756   2.031   2.676   2.688
 3740SOL    HW211757   1.907   2.762   2.673
 3741SOL     OW11758   1.982   3.715   3.443
 3741SOL    HW111759   1.982   3.695   3.537
 3741SOL    HW211760   1.892   3.699   3.415
 3742SOL     OW11761   2.746   2.189   2.004
 3742SOL    HW111762   2.800   2.252   1.957
 3742SOL    HW211763   2.794   2.106   1.998
 3743SOL     OW11764   3.605   2.437   3.695
 3743SOL    HW111765   3.600   2.522   3.651
 3743SOL    HW211766   3.612   2.374   3.623
 3744SOL     OW11767   3.235   2.999   2.399
 3744SOL    HW111768   3.318   2.992   2.352
 3744SOL    HW211769   3.187   3.067   2.352
 3745SOL     OW11770   2.412   2.041   2.761
 3745SOL    HW111771   2.390   2.080   2.845
 3745SOL    HW211772   2.418   2.116   2.701
 3746SOL     OW11773   2.866   3.305   2.334
 3746SOL    HW111774   2.830   3.378   2.284
 3746SOL    HW211775   2.850   3.328   2.426
 3747SOL     OW11776   2.217   3.671   2.724
 3747SOL    HW111777   2.260   3.586   2.732
 3747SOL    HW211778   2.285   3.735   2.743
 3748SOL     OW11779   3.660   2.917   2.731
 3748SOL    HW111780   3.604   2.901   2.655
 3748SOL    HW211781   3.599   2.923   2.804
 3749SOL     OW11782   2.176   2.825   2.113
 3749SOL    HW111783   2.257   2.847   2.067
 3749SOL    HW211784   2.151   2.740   2.078
 3750SOL     OW11785   3.337   2.609   2.588
 3750SOL    HW111786   3.332   2.561   2.671
 3750SOL    HW211787   3.417   2.661   2.596
 3751SOL     OW11788   2.984   3.640   2.093
 3751SOL    HW111789   2.910   3.598   2.138
 3751SOL    HW211790   3.007   3.578   2.023
 3752SOL     OW11791   3.490   3.242   1.950
 3752SOL    HW111792   3.450   3.327   1.935
 3752SOL    HW211793   3.421   3.178   1.930
 3753SOL     OW11794   2.328   3.598   2.183
 3753SOL    HW111795   2.370   3.657   2.247
 3753SOL    HW211796   2.400   3.569   2.127
 3754SOL     OW11797   3.263   1.969   2.295
 3754SOL    HW111798   3.253   1.944   2.203
 3754SOL    HW211799   3.358   1.976   2.308
 3755SOL     OW11800   2.108   3.670   3.083
 3755SOL    HW111801   2.155   3.596   3.123
 3755SOL    HW211802   2.090   3.642   2.994
 3756SOL     OW11803   2.798   3.565   2.757
 3756SOL    HW111804   2.865   3.507   2.794
 3756SOL    HW211805   2.757   3.512   2.689
 3757SOL     OW11806   2.249   2.551   2.335
 3757SOL    HW111807   2.276   2.462   2.355
 3757SOL    HW211808   2.156   2.555   2.358
 3758SOL     OW11809   3.430   2.060   3.588
 3758SOL    HW111810   3.400   2.113   3.661
 3758SOL    HW211811   3.376   1.981   3.591
 3759SOL     OW11812   2.478   1.973   1.981
 3759SOL    HW111813   2.568   1.939   1.980
 3759SOL    HW211814   2.443   1.951   1.895
 3760SOL     OW11815   2.743   3.402   3.031
 3760SOL    HW111816   2.715   3.351   2.955
 3760SOL    HW211817   2.784   3.338   3.089
 3761SOL     OW11818   2.673   3.266   2.795
 3761SOL    HW111819   2.758   3.251   2.754
 3761SOL    HW211820   2.611   3.260   2.723
 3762SOL     OW11821   2.776   2.351   2.764
 3762SOL    HW111822   2.762   2.337   2.670
 3762SOL    HW211823   2.822   2.272   2.792
 3763SOL     OW11824   2.411   1.927   2.365
 3763SOL    HW111825   2.329   1.926   2.414
 3763SOL    HW211826   2.405   2.005   2.309
 3764SOL     OW11827   3.290   3.060   1.903
 3764SOL    HW111828   3.320   2.985   1.953
 3764SOL    HW211829   3.204   3.081   1.939
 3765SOL     OW11830   2.155   1.910   2.047
 3765SOL    HW111831   2.215   1.970   2.003
 3765SOL    HW211832   2.212   1.845   2.089
 3766SOL     OW11833   2.808   2.093   2.327
 3766SOL    HW111834   2.769   2.165   2.277
 3766SOL    HW211835   2.902   2.111   2.325
 3767SOL     OW11836   2.941   2.545   3.304
 3767SOL    HW111837   2.882   2.471   3.319
 3767SOL    HW211838   3.018   2.506   3.263
 3768SOL     OW11839   3.090   3.427   2.652
 3768SOL    HW111840   3.101   3.498   2.588
 3768SOL    HW211841   3.153   3.447   2.721
 3769SOL     OW11842   2.327   3.017   2.599
 3769SOL    HW111843   2.257   2.992   2.659
 3769SOL    HW211844   2.295   2.992   2.512
 3770SOL     OW11845   3.131   3.656   2.470
 3770SOL    HW111846   3.177   3.717   2.413
 3770SOL    HW211847   3.064   3.709   2.514
 3771SOL     OW11848   2.905   2.389   1.886
 3771SOL    HW111849   2.842   2.460   1.882
 3771SOL    HW211850   2.963   2.412   1.958
 3772SOL     OW11851   2.732   2.302   2.509
 3772SOL    HW111852   2.710   2.364   2.440
 3772SOL    HW211853   2.756   2.222   2.463
 3773SOL     OW11854   2.877   1.915   2.613
 3773SOL    HW111855   2.820   1.907   2.537
 3773SOL    HW211856   2.854   1.840   2.668
 3774SOL     OW11857   3.297   3.028   2.720
 3774SOL    HW111858   3.235   2.955   2.716
 3774SOL    HW211859   3.326   3.039   2.629
 3775SOL     OW11860   3.330   2.465   2.833
 3775SOL    HW111861   3.280   2.384   2.840
 3775SOL    HW211862   3.390   2.462   2.907
 3776SOL     OW11863   3.707   2.678   2.244
 3776SOL    HW111864   3.763   2.627   2.303
 3776SOL    HW211865   3.679   2.615   2.177
 3777SOL     OW11866   2.354   3.277   2.020
 3777SOL    HW111867   2.278   3.250   2.071
 3777SOL    HW211868   2.339   3.240   1.933
 3778SOL     OW11869   3.530   3.126   2.509
 3778SOL    HW111870   3.625   3.128   2.522
 3778SOL    HW211871   3.501   3.215   2.529
 3779SOL     OW11872   3.257   2.433   1.933
 3779SOL    HW111873   3.197   2.412   2.005
 3779SOL    HW211874   3.342   2.401   1.963
 3780SOL     OW11875   2.385   2.130   2.184
 3780SOL    HW111876   2.423   2.075   2.115
 3780SOL    HW211877   2.367   2.213   2.141
 3781SOL     OW11878   3.624   3.095   3.432
 3781SOL    HW111879   3.715   3.065   3.423
 3781SOL    HW211880   3.632   3.184   3.467
 3782SOL     OW11881   3.461   3.477   3.508
 3782SOL    HW111882   3.463   3.521   3.423
 3782SOL    HW211883   3.547   3.436   3.516
 3783SOL     OW11884   2.972   3.088   2.976
 3783SOL    HW111885   2.891   3.061   3.019
 3783SOL    HW211886   2.946   3.114   2.888
 3784SOL     OW11887   3.491   2.962   2.941
 3784SOL    HW111888   3.495   3.029   3.010
 3784SOL    HW211889   3.408   2.978   2.896
 3785SOL     OW11890   2.265   2.660   3.150
 3785SOL    HW111891   2.356   2.689   3.142
 3785SOL    HW211892   2.267   2.566   3.130
 3786SOL     OW11893   1.932   3.438   3.207
 3786SOL    HW111894   1.896   3.511   3.158
 3786SOL    HW211895   2.026   3.441   3.191
 3787SOL     OW11896   2.218   2.968   2.350
 3787SOL    HW111897   2.212   3.043   2.291
 3787SOL    HW211898   2.208   2.892   2.294
 3788SOL     OW11899   2.414   2.382   2.735
 3788SOL    HW111900   2.411   2.405   2.642
 3788SOL    HW211901   2.506   2.397   2.760
 3789SOL     OW11902   3.109   3.210   2.254
 3789SOL    HW111903   3.165   3.282   2.282
 3789SOL    HW211904   3.022   3.232   2.286
 3790SOL     OW11905   3.136   3.318   3.003
 3790SOL    HW111906   3.190   3.317   3.082
 3790SOL    HW211907   3.091   3.234   3.004
 3791SOL     OW11908   3.441   2.485   2.340
 3791SOL    HW111909   3.397   2.540   2.405
 3791SOL    HW211910   3.490   2.547   2.285
 3792SOL     OW11911   2.195   3.422   3.146
 3792SOL    HW111912   2.205   3.360   3.073
 3792SOL    HW211913   2.246   3.384   3.217
 3793SOL     OW11914   2.308   2.611   3.502
 3793SOL    HW111915   2.309   2.668   3.425
 3793SOL    HW211916   2.307   2.522   3.467
 3794SOL     OW11917   3.216   2.716   2.874
 3794SOL    HW111918   3.142   2.692   2.819
 3794SOL    HW211919   3.267   2.635   2.881
 3795SOL     OW11920   3.063   2.390   2.131
 3795SOL    HW111921   3.067   2.307   2.179
 3795SOL    HW211922   3.061   2.457   2.198
 3796SOL     OW11923   1.892   3.175   3.145
 3796SOL    HW111924   1.938   3.122   3.211
 3796SOL    HW211925   1.910   3.265   3.170
 3797SOL     OW11926   3.614   2.824   3.704
 3797SOL    HW111927   3.553   2.805   3.632
 3797SOL    HW211928   3.563   2.807   3.783
 3798SOL     OW11929   2.165   1.927   2.485
 3798SOL    HW111930   2.144   2.017   2.510
 3798SOL    HW211931   2.172   1.881   2.569
 3799SOL     OW11932   3.478   2.236   2.229
 3799SOL    HW111933   3.506   2.172   2.295
 3799SOL    HW211934   3.455   2.314   2.280
 3800SOL     OW11935   3.715   3.373   3.469
 3800SOL    HW111936   3.734   3.395   3.378
 3800SOL    HW211937   3.797   3.388   3.516
 3801SOL     OW11938   3.390   2.136   1.989
 3801SOL    HW111939   3.326   2.069   2.016
 3801SOL    HW211940   3.424   2.171   2.072
 3802SOL     OW11941   3.154   2.686   1.891
 3802SOL    HW111942   3.197   2.601   1.894
 3802SOL    HW211943   3.185   2.726   1.810
 3803SOL     OW11944   2.927   3.201   2.714
 3803SOL    HW111945   2.932   3.130   2.650
 3803SOL    HW211946   2.988   3.266   2.681
 3804SOL     OW11947   2.170   2.665   2.803
 3804SOL    HW111948   2.259   2.700   2.813
 3804SOL    HW211949   2.175   2.576   2.839
 3805SOL     OW11950   2.186   2.394   2.874
 3805SOL    HW111951   2.152   2.305   2.871
 3805SOL    HW211952   2.267   2.392   2.823
 3806SOL     OW11953   1.867   3.183   2.057
 3806SOL    HW111954   1.780   3.197   2.019
 3806SOL    HW211955   1.864   3.093   2.091
 3807SOL     OW11956   1.954   3.648   2.801
 3807SOL    HW111957   1.923   3.569   2.757
 3807SOL    HW211958   2.043   3.661   2.768
 3808SOL     OW11959   2.360   3.435   2.767
 3808SOL    HW111960   2.427   3.499   2.789
 3808SOL    HW211961   2.404   3.372   2.710
 3809SOL     OW11962   1.908   2.413   2.997
 3809SOL    HW111963   1.971   2.410   2.925
 3809SOL    HW211964   1.952   2.369   3.070
 3810SOL     OW11965   2.707   2.329   2.231
 3810SOL    HW111966   2.705   2.289   2.144
 3810SOL    HW211967   2.636   2.394   2.230
 3811SOL     OW11968   3.505   2.469   3.038
 3811SOL    HW111969   3.483   2.418   3.116
 3811SOL    HW211970   3.593   2.441   3.015
 3812SOL     OW11971   2.075   3.416   3.609
 3812SOL    HW111972   2.062   3.501   3.650
 3812SOL    HW211973   2.066   3.353   3.680
 3813SOL     OW11974   2.536   2.301   3.132
 3813SOL    HW111975   2.509   2.212   3.110
 3813SOL    HW211976   2.560   2.341   3.048
 3814SOL     OW11977   2.772   3.594   3.356
 3814SOL    HW111978   2.751   3.550   3.274
 3814SOL    HW211979   2.770   3.688   3.334
 3815SOL     OW11980   2.330   2.365   2.058
 3815SOL    HW111981   2.379   2.446   2.072
 3815SOL    HW211982   2.240   2.393   2.042
 3816SOL     OW11983   3.165   2.900   3.064
 3816SOL    HW111984   3.182   2.839   2.992
 3816SOL    HW211985   3.100   2.961   3.029
 3817SOL     OW11986   3.176   2.708   2.164
 3817SOL    HW111987   3.093   2.732   2.207
 3817SOL    HW211988   3.154   2.704   2.071
 3818SOL     OW11989   3.636   3.608   3.014
 3818SOL    HW111990   3.696   3.635   2.945
 3818SOL    HW211991   3.611   3.518   2.990
 3819SOL     OW11992   3.105   3.597   2.979
 3819SOL    HW111993   3.186   3.615   2.932
 3819SOL    HW211994   3.106   3.503   2.994
 3820SOL     OW11995   1.942   3.134   2.875
 3820SOL    HW111996   1.925   3.141   2.968
 3820SOL    HW211997   1.876   3.072   2.843
 3821SOL     OW11998   2.574   3.590   3.597
 3821SOL    HW111999   2.506   3.657   3.591
 3821SOL    HW212000   2.616   3.591   3.511
 3822SOL     OW12001   3.581   2.008   2.371
 3822SOL    HW112002   3.654   1.994   2.311
 3822SOL    HW212003   3.566   1.923   2.411
 3823SOL     OW12004   3.252   3.430   2.346
 3823SOL    HW112005   3.313   3.462   2.279
 3823SOL    HW212006   3.204   3.507   2.375
 3824SOL     OW12007   1.993   3.663   3.708
 3824SOL    HW112008   1.943   3.598   3.758
 3824SOL    HW212009   2.044   3.710   3.775
 3825SOL     OW12010   3.131   2.786   2.531
 3825SOL    HW112011   3.205   2.725   2.540
 3825SOL    HW212012   3.166   2.859   2.480
 3826SOL     OW12013   2.704   3.097   3.239
 3826SOL    HW112014   2.710   3.145   3.322
 3826SOL    HW212015   2.616   3.116   3.207
 3827SOL     OW12016   2.533   3.482   2.017
 3827SOL    HW112017   2.543   3.494   1.923
 3827SOL    HW212018   2.478   3.404   2.025
 3828SOL     OW12019   3.485   3.588   3.253
 3828SOL    HW112020   3.538   3.593   3.173
 3828SOL    HW212021   3.472   3.679   3.279
 3829SOL     OW12022   3.703   2.035   2.828
 3829SOL    HW112023   3.732   1.948   2.801
 3829SOL    HW212024   3.617   2.045   2.788
 3830SOL     OW12025   2.123   2.179   2.583
 3830SOL    HW112026   2.037   2.212   2.556
 3830SOL    HW212027   2.118   2.172   2.678
 3831SOL     OW12028   3.069   3.468   1.893
 3831SOL    HW112029   3.059   3.377   1.920
 3831SOL    HW212030   3.004   3.480   1.824
 3832SOL     OW12031   3.354   3.487   1.904
 3832SOL    HW112032   3.259   3.481   1.891
 3832SOL    HW212033   3.391   3.493   1.816
 3833SOL     OW12034   3.496   3.166   3.131
 3833SOL    HW112035   3.532   3.124   3.209
 3833SOL    HW212036   3.412   3.202   3.159
 3834SOL     OW12037   2.913   2.969   2.566
 3834SOL    HW112038   2.839   2.920   2.601
 3834SOL    HW212039   2.978   2.902   2.545
 3835SOL     OW12040   2.888   2.099   2.827
 3835SOL    HW112041   2.883   2.049   2.746
 3835SOL    HW212042   2.881   2.034   2.897
 3836SOL     OW12043   2.463   3.353   2.344
 3836SOL    HW112044   2.509   3.306   2.274
 3836SOL    HW212045   2.393   3.401   2.299
 3837SOL     OW12046   3.591   2.247   3.245
 3837SOL    HW112047   3.659   2.314   3.238
 3837SOL    HW212048   3.620   2.178   3.185
 3838SOL     OW12049   2.121   3.207   2.151
 3838SOL    HW112050   2.029   3.205   2.128
 3838SOL    HW212051   2.124   3.244   2.239
 3839SOL     OW12052   1.940   2.195   1.898
 3839SOL    HW112053   1.853   2.175   1.864
 3839SOL    HW212054   1.969   2.271   1.846
 3840SOL     OW12055   1.931   2.018   2.172
 3840SOL    HW112056   1.916   2.097   2.120
 3840SOL    HW212057   2.016   1.985   2.142
 3841SOL     OW12058   3.042   3.202   1.979
 3841SOL    HW112059   2.951   3.171   1.981
 3841SOL    HW212060   3.069   3.201   2.071
 3842SOL     OW12061   3.346   3.638   2.841
 3842SOL    HW112062   3.369   3.698   2.769
 3842SOL    HW212063   3.429   3.619   2.884
 3843SOL     OW12064   2.233   3.612   3.423
 3843SOL    HW112065   2.145   3.649   3.416
 3843SOL    HW212066   2.219   3.518   3.434
 3844SOL     OW12067   3.583   2.746   3.105
 3844SOL    HW112068   3.538   2.665   3.080
 3844SOL    HW212069   3.547   2.812   3.046
 3845SOL     OW12070   3.080   2.180   2.319
 3845SOL    HW112071   3.143   2.109   2.310
 3845SOL    HW212072   3.109   2.228   2.397
 3846SOL     OW12073   3.625   2.233   3.512
 3846SOL    HW112074   3.611   2.238   3.418
 3846SOL    HW212075   3.562   2.166   3.542
 3847SOL     OW12076   3.644   2.776   3.374
 3847SOL    HW112077   3.639   2.871   3.385
 3847SOL    HW212078   3.618   2.761   3.283
 3848SOL     OW12079   2.730   3.234   1.897
 3848SOL    HW112080   2.689   3.266   1.977
 3848SOL    HW212081   2.748   3.313   1.846
 3849SOL     OW12082   2.521   3.653   2.803
 3849SOL    HW112083   2.504   3.745   2.782
 3849SOL    HW212084   2.616   3.645   2.801
 3850SOL     OW12085   2.962   2.866   1.953
 3850SOL    HW112086   2.926   2.904   1.873
 3850SOL    HW212087   3.026   2.802   1.922
 3851SOL     OW12088   3.718   3.416   2.704
 3851SOL    HW112089   3.639   3.404   2.651
 3851SOL    HW212090   3.709   3.353   2.775
 3852SOL     OW12091   1.946   3.095   2.528
 3852SOL    HW112092   1.951   3.046   2.610
 3852SOL    HW212093   2.016   3.058   2.474
 3853SOL     OW12094   3.675   2.042   3.097
 3853SOL    HW112095   3.686   1.948   3.110
 3853SOL    HW212096   3.685   2.055   3.003
 3854SOL     OW12097   2.306   2.293   2.404
 3854SOL    HW112098   2.326   2.229   2.335
 3854SOL    HW212099   2.243   2.248   2.460
 3855SOL     OW12100   3.562   3.358   2.949
 3855SOL    HW112101   3.482   3.336   2.901
 3855SOL    HW212102   3.567   3.292   3.019
 3856SOL     OW12103   2.691   3.438   2.536
 3856SOL    HW112104   2.676   3.495   2.460
 3856SOL    HW212105   2.613   3.383   2.541
 3857SOL     OW12106   3.289   2.080   2.986
 3857SOL    HW112107   3.331   1.996   3.006
 3857SOL    HW212108   3.246   2.106   3.067
 3858SOL     OW12109   2.874   1.886   3.003
 3858SOL    HW112110   2.815   1.814   2.980
 3858SOL    HW212111   2.960   1.845   3.007
 3859SOL     OW12112   2.634   3.205   2.177
 3859SOL    HW112113   2.609   3.113   2.166
 3859SOL    HW212114   2.717   3.201   2.225
 3860SOL     OW12115   3.214   1.916   2.027
 3860SOL    HW112116   3.243   1.852   1.962
 3860SOL    HW212117   3.127   1.886   2.053
 3861SOL     OW12118   3.165   2.315   2.543
 3861SOL    HW112119   3.116   2.397   2.552
 3861SOL    HW212120   3.160   2.275   2.630
 3862SOL     OW12121   3.449   2.065   2.740
 3862SOL    HW112122   3.385   2.088   2.808
 3862SOL    HW212123   3.451   2.142   2.682
 3863SOL     OW12124   1.906   2.933   2.168
 3863SOL    HW112125   1.999   2.923   2.148
 3863SOL    HW212126   1.877   2.844   2.191
 3864SOL     OW12127   2.747   3.515   2.204
 3864SOL    HW112128   2.674   3.498   2.144
 3864SOL    HW212129   2.718   3.590   2.256
 3865SOL     OW12130   1.816   2.192   4.379
 3865SOL    HW112131   1.739   2.239   4.410
 3865SOL    HW212132   1.781   2.117   4.332
 3866SOL     OW12133   3.426   3.370   4.421
 3866SOL    HW112134   3.375   3.379   4.502
 3866SOL    HW212135   3.360   3.369   4.352
 3867SOL     OW12136   2.960   2.604   4.427
 3867SOL    HW112137   3.047   2.640   4.441
 3867SOL    HW212138   2.933   2.574   4.514
 3868SOL     OW12139   3.627   2.460   3.964
 3868SOL    HW112140   3.611   2.450   3.870
 3868SOL    HW212141   3.584   2.385   4.004
 3869SOL     OW12142   2.587   2.997   4.738
 3869SOL    HW112143   2.578   3.008   4.833
 3869SOL    HW212144   2.627   3.079   4.709
 3870SOL     OW12145   2.569   3.025   5.547
 3870SOL    HW112146   2.622   3.104   5.561
 3870SOL    HW212147   2.492   3.056   5.499
 3871SOL     OW12148   3.347   3.359   5.117
 3871SOL    HW112149   3.394   3.442   5.112
 3871SOL    HW212150   3.283   3.372   5.186
 3872SOL     OW12151   2.310   2.266   5.225
 3872SOL    HW112152   2.385   2.206   5.218
 3872SOL    HW212153   2.234   2.208   5.230
 3873SOL     OW12154   2.068   3.606   4.183
 3873SOL    HW112155   2.099   3.676   4.240
 3873SOL    HW212156   2.147   3.577   4.136
 3874SOL     OW12157   3.002   3.203   5.416
 3874SOL    HW112158   3.040   3.199   5.503
 3874SOL    HW212159   2.948   3.124   5.410
 3875SOL     OW12160   2.120   3.351   4.271
 3875SOL    HW112161   2.060   3.420   4.242
 3875SOL    HW212162   2.072   3.270   4.258
 3876SOL     OW12163   2.475   3.662   5.154
 3876SOL    HW112164   2.393   3.642   5.200
 3876SOL    HW212165   2.496   3.751   5.181
 3877SOL     OW12166   2.435   2.847   3.842
 3877SOL    HW112167   2.434   2.920   3.780
 3877SOL    HW212168   2.468   2.886   3.924
 3878SOL     OW12169   3.458   1.986   5.191
 3878SOL    HW112170   3.462   2.066   5.140
 3878SOL    HW212171   3.443   2.015   5.281
 3879SOL     OW12172   3.705   3.621   4.059
 3879SOL    HW112173   3.770   3.593   4.124
 3879SOL    HW212174   3.729   3.712   4.040
 3880SOL     OW12175   1.893   3.459   3.852
 3880SOL    HW112176   1.881   3.367   3.876
 3880SOL    HW212177   1.868   3.508   3.930
 3881SOL     OW12178   3.588   2.792   4.356
 3881SOL    HW112179   3.650   2.741   4.304
 3881SOL    HW212180   3.537   2.841   4.291
 3882SOL     OW12181   3.508   2.966   4.157
 3882SOL    HW112182   3.595   2.986   4.122
 3882SOL    HW212183   3.497   3.027   4.230
 3883SOL     OW12184   1.980   2.605   5.309
 3883SOL    HW112185   2.071   2.630   5.324
 3883SOL    HW212186   1.931   2.686   5.319
 3884SOL     OW12187   3.157   3.081   5.145
 3884SOL    HW112188   3.212   3.018   5.097
 3884SOL    HW212189   3.203   3.096   5.227
 3885SOL     OW12190   3.047   3.668   5.346
 3885SOL    HW112191   3.060   3.728   5.272
 3885SOL    HW212192   3.063   3.581   5.310
 3886SOL     OW12193   2.193   2.108   5.540
 3886SOL    HW112194   2.237   2.193   5.544
 3886SOL    HW212195   2.104   2.126   5.570
 3887SOL     OW12196   3.345   3.305   4.699
 3887SOL    HW112197   3.280   3.326   4.765
 3887SOL    HW212198   3.317   3.221   4.663
 3888SOL     OW12199   3.519   3.602   4.301
 3888SOL    HW112200   3.499   3.574   4.212
 3888SOL    HW212201   3.496   3.527   4.355
 3889SOL     OW12202   3.444   3.537   4.031
 3889SOL    HW112203   3.535   3.567   4.026
 3889SOL    HW212204   3.420   3.520   3.940
 3890SOL     OW12205   3.256   2.339   5.400
 3890SOL    HW112206   3.257   2.380   5.487
 3890SOL    HW212207   3.315   2.264   5.409
 3891SOL     OW12208   2.836   2.272   4.973
 3891SOL    HW112209   2.748   2.296   5.003
 3891SOL    HW212210   2.820   2.206   4.905
 3892SOL     OW12211   2.932   2.559   4.165
 3892SOL    HW112212   2.936   2.569   4.260
 3892SOL    HW212213   2.842   2.532   4.147
 3893SOL     OW12214   1.989   3.707   5.301
 3893SOL    HW112215   1.989   3.687   5.395
 3893SOL    HW212216   1.897   3.703   5.276
 3894SOL     OW12217   3.571   2.437   5.552
 3894SOL    HW112218   3.532   2.510   5.503
 3894SOL    HW212219   3.597   2.375   5.485
 3895SOL     OW12220   2.222   3.676   4.593
 3895SOL    HW112221   2.285   3.604   4.591
 3895SOL    HW212222   2.275   3.755   4.607
 3896SOL     OW12223   3.658   2.932   4.605
 3896SOL    HW112224   3.626   2.921   4.516
 3896SOL    HW212225   3.581   2.918   4.661
 3897SOL     OW12226   3.091   3.400   5.238
 3897SOL    HW112227   3.074   3.329   5.301
 3897SOL    HW212228   3.032   3.382   5.165
 3898SOL     OW12229   2.208   2.762   3.987
 3898SOL    HW112230   2.280   2.793   3.932
 3898SOL    HW212231   2.153   2.711   3.928
 3899SOL     OW12232   2.326   3.128   5.458
 3899SOL    HW112233   2.299   3.129   5.366
 3899SOL    HW212234   2.244   3.125   5.507
 3900SOL     OW12235   2.987   3.644   3.958
 3900SOL    HW112236   2.908   3.608   3.999
 3900SOL    HW212237   3.013   3.578   3.894
 3901SOL     OW12238   2.058   2.151   5.242
 3901SOL    HW112239   1.979   2.202   5.224
 3901SOL    HW212240   2.029   2.082   5.301
 3902SOL     OW12241   3.484   3.239   3.809
 3902SOL    HW112242   3.461   3.330   3.794
 3902SOL    HW212243   3.401   3.195   3.824
 3903SOL     OW12244   2.322   3.610   4.038
 3903SOL    HW112245   2.371   3.652   4.108
 3903SOL    HW212246   2.387   3.559   3.990
 3904SOL     OW12247   3.271   1.960   4.155
 3904SOL    HW112248   3.254   1.944   4.062
 3904SOL    HW212249   3.367   1.969   4.160
 3905SOL     OW12250   2.117   3.657   4.956
 3905SOL    HW112251   2.169   3.590   5.001
 3905SOL    HW212252   2.106   3.624   4.867
 3906SOL     OW12253   3.396   2.088   5.449
 3906SOL    HW112254   3.405   2.108   5.542
 3906SOL    HW212255   3.327   2.022   5.445
 3907SOL     OW12256   2.620   2.117   5.470
 3907SOL    HW112257   2.702   2.068   5.478
 3907SOL    HW212258   2.600   2.144   5.559
 3908SOL     OW12259   3.223   2.476   5.165
 3908SOL    HW112260   3.245   2.434   5.248
 3908SOL    HW212261   3.260   2.564   5.172
 3909SOL     OW12262   2.373   1.890   4.216
 3909SOL    HW112263   2.361   1.920   4.305
 3909SOL    HW212264   2.399   1.968   4.167
 3910SOL     OW12265   2.148   1.901   3.911
 3910SOL    HW112266   2.205   1.974   3.888
 3910SOL    HW212267   2.206   1.833   3.945
 3911SOL     OW12268   2.946   2.522   5.184
 3911SOL    HW112269   2.902   2.441   5.159
 3911SOL    HW212270   3.039   2.505   5.169
 3912SOL     OW12271   3.176   3.478   4.512
 3912SOL    HW112272   3.165   3.545   4.445
 3912SOL    HW212273   3.210   3.526   4.588
 3913SOL     OW12274   3.134   3.675   4.330
 3913SOL    HW112275   3.183   3.729   4.268
 3913SOL    HW212276   3.064   3.732   4.361
 3914SOL     OW12277   2.904   2.409   3.755
 3914SOL    HW112278   2.852   2.489   3.751
 3914SOL    HW212279   2.946   2.411   3.841
 3915SOL     OW12280   1.936   2.407   5.125
 3915SOL    HW112281   2.012   2.415   5.066
 3915SOL    HW212282   1.943   2.483   5.183
 3916SOL     OW12283   2.415   2.090   4.925
 3916SOL    HW112284   2.452   2.009   4.959
 3916SOL    HW212285   2.321   2.083   4.942
 3917SOL     OW12286   3.716   2.678   4.106
 3917SOL    HW112287   3.772   2.624   4.162
 3917SOL    HW212288   3.673   2.616   4.048
 3918SOL     OW12289   3.537   3.119   4.395
 3918SOL    HW112290   3.632   3.134   4.388
 3918SOL    HW212291   3.499   3.207   4.395
 3919SOL     OW12292   2.420   2.117   4.078
 3919SOL    HW112293   2.470   2.092   4.000
 3919SOL    HW212294   2.407   2.212   4.069
 3920SOL     OW12295   3.615   3.099   5.301
 3920SOL    HW112296   3.704   3.063   5.295
 3920SOL    HW212297   3.629   3.191   5.325
 3921SOL     OW12298   2.939   3.216   5.055
 3921SOL    HW112299   2.856   3.193   5.098
 3921SOL    HW212300   3.005   3.163   5.100
 3922SOL     OW12301   3.470   3.488   5.379
 3922SOL    HW112302   3.467   3.525   5.290
 3922SOL    HW212303   3.552   3.439   5.382
 3923SOL     OW12304   2.891   3.037   4.845
 3923SOL    HW112305   2.903   3.095   4.920
 3923SOL    HW212306   2.965   3.058   4.788
 3924SOL     OW12307   2.778   1.954   5.112
 3924SOL    HW112308   2.796   1.951   5.019
 3924SOL    HW212309   2.857   1.989   5.152
 3925SOL     OW12310   2.850   2.976   5.441
 3925SOL    HW112311   2.759   2.985   5.468
 3925SOL    HW212312   2.847   2.917   5.365
 3926SOL     OW12313   2.549   2.940   4.069
 3926SOL    HW112314   2.518   2.933   4.160
 3926SOL    HW212315   2.639   2.907   4.073
 3927SOL     OW12316   2.251   2.687   5.008
 3927SOL    HW112317   2.345   2.687   5.025
 3927SOL    HW212318   2.228   2.594   5.000
 3928SOL     OW12319   3.110   2.250   5.075
 3928SOL    HW112320   3.165   2.328   5.088
 3928SOL    HW212321   3.039   2.280   5.018
 3929SOL     OW12322   1.933   3.446   5.081
 3929SOL    HW112323   1.899   3.516   5.025
 3929SOL    HW212324   2.028   3.456   5.077
 3930SOL     OW12325   2.410   2.422   4.640
 3930SOL    HW112326   2.404   2.412   4.545
 3930SOL    HW212327   2.504   2.417   4.659
 3931SOL     OW12328   3.171   3.346   4.919
 3931SOL    HW112329   3.230   3.340   4.994
 3931SOL    HW212330   3.097   3.291   4.942
 3932SOL     OW12331   2.206   3.397   5.037
 3932SOL    HW112332   2.194   3.347   4.956
 3932SOL    HW212333   2.301   3.399   5.049
 3933SOL     OW12334   2.261   2.604   5.333
 3933SOL    HW112335   2.306   2.650   5.262
 3933SOL    HW212336   2.288   2.513   5.323
 3934SOL     OW12337   3.461   2.641   5.406
 3934SOL    HW112338   3.376   2.685   5.401
 3934SOL    HW212339   3.515   2.684   5.340
 3935SOL     OW12340   2.861   1.984   5.487
 3935SOL    HW112341   2.915   2.058   5.458
 3935SOL    HW212342   2.909   1.906   5.458
 3936SOL     OW12343   2.359   1.900   5.471
 3936SOL    HW112344   2.316   1.847   5.404
 3936SOL    HW212345   2.301   1.975   5.484
 3937SOL     OW12346   3.056   2.392   4.012
 3937SOL    HW112347   3.113   2.343   4.072
 3937SOL    HW212348   3.009   2.454   4.069
 3938SOL     OW12349   2.166   2.042   5.016
 3938SOL    HW112350   2.118   2.070   5.094
 3938SOL    HW212351   2.134   1.954   4.998
 3939SOL     OW12352   1.873   3.188   5.017
 3939SOL    HW112353   1.930   3.126   5.064
 3939SOL    HW212354   1.905   3.274   5.044
 3940SOL     OW12355   3.597   2.821   5.577
 3940SOL    HW112356   3.552   2.759   5.520
 3940SOL    HW212357   3.537   2.835   5.650
 3941SOL     OW12358   3.492   2.251   4.103
 3941SOL    HW112359   3.509   2.170   4.151
 3941SOL    HW212360   3.426   2.297   4.155
 3942SOL     OW12361   2.845   3.427   5.443
 3942SOL    HW112362   2.830   3.474   5.361
 3942SOL    HW212363   2.887   3.345   5.417
 3943SOL     OW12364   3.716   3.368   5.329
 3943SOL    HW112365   3.735   3.393   5.239
 3943SOL    HW212366   3.797   3.386   5.377
 3944SOL     OW12367   2.210   2.784   5.535
 3944SOL    HW112368   2.291   2.808   5.580
 3944SOL    HW212369   2.237   2.716   5.473
 3945SOL     OW12370   2.998   2.228   5.413
 3945SOL    HW112371   2.955   2.288   5.475
 3945SOL    HW212372   3.082   2.270   5.394
 3946SOL     OW12373   3.013   2.048   5.211
 3946SOL    HW112374   2.998   2.104   5.287
 3946SOL    HW212375   3.059   2.105   5.149
 3947SOL     OW12376   1.858   3.199   3.941
 3947SOL    HW112377   1.775   3.207   3.894
 3947SOL    HW212378   1.860   3.107   3.969
 3948SOL     OW12379   1.953   3.643   4.661
 3948SOL    HW112380   1.926   3.564   4.615
 3948SOL    HW212381   2.043   3.659   4.631
 3949SOL     OW12382   2.055   2.381   5.450
 3949SOL    HW112383   2.099   2.333   5.380
 3949SOL    HW212384   2.010   2.452   5.405
 3950SOL     OW12385   3.239   2.804   5.383
 3950SOL    HW112386   3.260   2.897   5.386
 3950SOL    HW212387   3.239   2.782   5.290
 3951SOL     OW12388   3.524   2.485   4.946
 3951SOL    HW112389   3.492   2.408   4.993
 3951SOL    HW212390   3.601   2.455   4.898
 3952SOL     OW12391   2.107   3.413   5.451
 3952SOL    HW112392   2.083   3.478   5.516
 3952SOL    HW212393   2.107   3.330   5.498
 3953SOL     OW12394   2.564   2.301   4.977
 3953SOL    HW112395   2.512   2.221   4.973
 3953SOL    HW212396   2.531   2.355   4.906
 3954SOL     OW12397   2.789   3.548   5.203
 3954SOL    HW112398   2.751   3.514   5.122
 3954SOL    HW212399   2.790   3.643   5.191
 3955SOL     OW12400   2.315   2.388   3.938
 3955SOL    HW112401   2.381   2.456   3.921
 3955SOL    HW212402   2.231   2.432   3.922
 3956SOL     OW12403   2.015   2.999   5.186
 3956SOL    HW112404   2.010   2.949   5.267
 3956SOL    HW212405   2.027   2.933   5.118
 3957SOL     OW12406   3.147   2.695   4.057
 3957SOL    HW112407   3.062   2.666   4.092
 3957SOL    HW212408   3.152   2.656   3.970
 3958SOL     OW12409   3.633   3.608   4.875
 3958SOL    HW112410   3.694   3.634   4.805
 3958SOL    HW212411   3.613   3.517   4.856
 3959SOL     OW12412   3.102   3.604   4.840
 3959SOL    HW112413   3.183   3.626   4.794
 3959SOL    HW212414   3.111   3.511   4.862
 3960SOL     OW12415   2.539   3.528   5.453
 3960SOL    HW112416   2.486   3.608   5.449
 3960SOL    HW212417   2.606   3.540   5.386
 3961SOL     OW12418   3.580   2.011   4.235
 3961SOL    HW112419   3.653   1.997   4.175
 3961SOL    HW212420   3.565   1.925   4.275
 3962SOL     OW12421   3.254   3.431   4.200
 3962SOL    HW112422   3.313   3.467   4.134
 3962SOL    HW212423   3.200   3.506   4.227
 3963SOL     OW12424   2.000   3.657   5.567
 3963SOL    HW112425   1.948   3.593   5.615
 3963SOL    HW212426   2.047   3.706   5.634
 3964SOL     OW12427   2.694   3.150   5.159
 3964SOL    HW112428   2.660   3.184   5.242
 3964SOL    HW212429   2.618   3.149   5.100
 3965SOL     OW12430   2.521   3.481   3.887
 3965SOL    HW112431   2.540   3.497   3.794
 3965SOL    HW212432   2.514   3.386   3.894
 3966SOL     OW12433   3.492   3.593   5.117
 3966SOL    HW112434   3.540   3.599   5.034
 3966SOL    HW212435   3.477   3.684   5.143
 3967SOL     OW12436   3.710   2.031   4.689
 3967SOL    HW112437   3.746   1.944   4.670
 3967SOL    HW212438   3.623   2.030   4.650
 3968SOL     OW12439   3.085   3.475   3.760
 3968SOL    HW112440   3.071   3.383   3.779
 3968SOL    HW212441   3.027   3.494   3.686
 3969SOL     OW12442   3.362   3.490   3.766
 3969SOL    HW112443   3.267   3.484   3.759
 3969SOL    HW212444   3.393   3.493   3.676
 3970SOL     OW12445   2.234   3.162   5.208
 3970SOL    HW112446   2.210   3.248   5.174
 3970SOL    HW212447   2.155   3.109   5.197
 3971SOL     OW12448   3.459   3.138   5.007
 3971SOL    HW112449   3.537   3.122   5.061
 3971SOL    HW212450   3.417   3.214   5.047
 3972SOL     OW12451   2.870   2.903   4.350
 3972SOL    HW112452   2.861   2.942   4.437
 3972SOL    HW212453   2.961   2.874   4.345
 3973SOL     OW12454   3.585   2.248   5.109
 3973SOL    HW112455   3.653   2.315   5.103
 3973SOL    HW212456   3.616   2.178   5.051
 3974SOL     OW12457   1.974   2.887   5.439
 3974SOL    HW112458   1.897   2.864   5.491
 3974SOL    HW212459   2.048   2.850   5.487
 3975SOL     OW12460   2.534   2.056   5.219
 3975SOL    HW112461   2.619   2.038   5.179
 3975SOL    HW212462   2.555   2.080   5.310
 3976SOL     OW12463   3.295   2.741   5.124
 3976SOL    HW112464   3.242   2.745   5.045
 3976SOL    HW212465   3.386   2.748   5.093
 3977SOL     OW12466   1.940   2.025   4.043
 3977SOL    HW112467   1.911   2.090   3.980
 3977SOL    HW212468   2.019   1.987   4.004
 3978SOL     OW12469   3.341   3.642   4.697
 3978SOL    HW112470   3.372   3.704   4.631
 3978SOL    HW212471   3.420   3.616   4.744
 3979SOL     OW12472   3.333   3.066   5.357
 3979SOL    HW112473   3.323   3.078   5.452
 3979SOL    HW212474   3.426   3.080   5.341
 3980SOL     OW12475   2.242   3.602   5.288
 3980SOL    HW112476   2.157   3.643   5.274
 3980SOL    HW212477   2.222   3.519   5.331
 3981SOL     OW12478   3.538   2.754   4.985
 3981SOL    HW112479   3.539   2.661   4.961
 3981SOL    HW212480   3.510   2.799   4.906
 3982SOL     OW12481   3.624   2.223   5.378
 3982SOL    HW112482   3.609   2.237   5.284
 3982SOL    HW212483   3.552   2.167   5.405
 3983SOL     OW12484   3.606   2.798   5.242
 3983SOL    HW112485   3.606   2.893   5.256
 3983SOL    HW212486   3.595   2.788   5.147
 3984SOL     OW12487   2.518   3.663   4.665
 3984SOL    HW112488   2.483   3.750   4.646
 3984SOL    HW212489   2.611   3.670   4.644
 3985SOL     OW12490   2.945   2.832   3.823
 3985SOL    HW112491   2.921   2.858   3.734
 3985SOL    HW212492   3.038   2.811   3.818
 3986SOL     OW12493   3.713   3.418   4.568
 3986SOL    HW112494   3.638   3.402   4.511
 3986SOL    HW212495   3.708   3.350   4.635
 3987SOL     OW12496   2.086   3.165   5.579
 3987SOL    HW112497   2.018   3.103   5.551
 3987SOL    HW212498   2.071   3.177   5.672
 3988SOL     OW12499   2.545   3.264   5.357
 3988SOL    HW112500   2.463   3.222   5.384
 3988SOL    HW212501   2.538   3.353   5.389
 3989SOL     OW12502   3.681   2.046   4.961
 3989SOL    HW112503   3.683   1.951   4.976
 3989SOL    HW212504   3.689   2.056   4.867
 3990SOL     OW12505   3.574   3.351   4.831
 3990SOL    HW112506   3.493   3.334   4.782
 3990SOL    HW212507   3.581   3.277   4.892
 3991SOL     OW12508   2.209   2.412   5.010
 3991SOL    HW112509   2.249   2.360   5.080
 3991SOL    HW212510   2.221   2.359   4.932
 3992SOL     OW12511   3.342   2.052   4.835
 3992SOL    HW112512   3.341   1.978   4.896
 3992SOL    HW212513   3.267   2.105   4.861
 3993SOL     OW12514   2.523   3.208   4.017
 3993SOL    HW112515   2.533   3.114   4.034
 3993SOL    HW212516   2.601   3.248   4.055
 3994SOL     OW12517   2.481   3.414   5.045
 3994SOL    HW112518   2.491   3.501   5.084
 3994SOL    HW212519   2.506   3.426   4.953
 3995SOL     OW12520   3.201   1.917   3.892
 3995SOL    HW112521   3.244   1.850   3.839
 3995SOL    HW212522   3.118   1.876   3.919
 3996SOL     OW12523   3.460   2.028   4.595
 3996SOL    HW112524   3.417   2.042   4.679
 3996SOL    HW212525   3.447   2.110   4.547
 3997SOL     OW12526   1.898   2.944   4.036
 3997SOL    HW112527   1.994   2.942   4.034
 3997SOL    HW212528   1.873   2.852   4.030
 3998SOL     OW12529   2.754   3.531   4.050
 3998SOL    HW112530   2.674   3.499   4.008
 3998SOL    HW212531   2.723   3.575   4.129
 3999SOL     OW12532   2.094   2.482   5.707
 3999SOL    HW112533   2.005   2.485   5.742
 3999SOL    HW212534   2.083   2.458   5.616
 4000SOL     OW12535   2.087   2.142   6.577
 4000SOL    HW112536   2.115   2.107   6.662
 4000SOL    HW212537   1.997   2.111   6.567
 4001SOL     OW12538   1.866   2.244   6.224
 4001SOL    HW112539   1.783   2.269   6.266
 4001SOL    HW212540   1.844   2.165   6.175
 4002SOL     OW12541   2.427   3.149   6.761
 4002SOL    HW112542   2.340   3.156   6.721
 4002SOL    HW212543   2.444   3.236   6.797
 4003SOL     OW12544   3.422   3.373   6.293
 4003SOL    HW112545   3.380   3.355   6.376
 4003SOL    HW212546   3.350   3.379   6.230
 4004SOL     OW12547   3.016   2.540   6.305
 4004SOL    HW112548   3.044   2.630   6.288
 4004SOL    HW212549   2.940   2.549   6.363
 4005SOL     OW12550   3.628   2.468   5.815
 4005SOL    HW112551   3.608   2.460   5.722
 4005SOL    HW212552   3.593   2.387   5.854
 4006SOL     OW12553   2.638   3.026   6.633
 4006SOL    HW112554   2.557   3.041   6.681
 4006SOL    HW212555   2.654   3.108   6.586
 4007SOL     OW12556   2.574   3.016   7.395
 4007SOL    HW112557   2.622   3.094   7.421
 4007SOL    HW212558   2.492   3.049   7.359
 4008SOL     OW12559   2.190   3.290   6.653
 4008SOL    HW112560   2.120   3.250   6.602
 4008SOL    HW212561   2.242   3.339   6.589
 4009SOL     OW12562   3.323   3.361   6.941
 4009SOL    HW112563   3.372   3.442   6.951
 4009SOL    HW212564   3.259   3.363   7.012
 4010SOL     OW12565   2.311   2.266   7.088
 4010SOL    HW112566   2.388   2.209   7.081
 4010SOL    HW212567   2.237   2.206   7.094
 4011SOL     OW12568   3.474   2.310   6.326
 4011SOL    HW112569   3.397   2.331   6.273
 4011SOL    HW212570   3.487   2.387   6.381
 4012SOL     OW12571   2.081   3.577   6.058
 4012SOL    HW112572   2.103   3.653   6.112
 4012SOL    HW212573   2.154   3.569   5.997
 4013SOL     OW12574   2.998   3.201   7.278
 4013SOL    HW112575   3.035   3.199   7.366
 4013SOL    HW212576   2.946   3.121   7.271
 4014SOL     OW12577   2.091   3.303   6.120
 4014SOL    HW112578   2.074   3.397   6.125
 4014SOL    HW212579   2.032   3.265   6.185
 4015SOL     OW12580   2.114   2.951   6.473
 4015SOL    HW112581   2.112   2.867   6.518
 4015SOL    HW212582   2.061   3.009   6.528
 4016SOL     OW12583   2.473   3.655   7.015
 4016SOL    HW112584   2.392   3.636   7.062
 4016SOL    HW212585   2.496   3.744   7.041
 4017SOL     OW12586   2.429   2.863   5.712
 4017SOL    HW112587   2.477   2.919   5.650
 4017SOL    HW212588   2.487   2.856   5.788
 4018SOL     OW12589   3.458   1.985   7.054
 4018SOL    HW112590   3.465   2.066   7.003
 4018SOL    HW212591   3.443   2.014   7.144
 4019SOL     OW12592   1.977   2.513   6.147
 4019SOL    HW112593   1.944   2.426   6.168
 4019SOL    HW212594   1.968   2.563   6.228
 4020SOL     OW12595   3.704   3.621   5.921
 4020SOL    HW112596   3.769   3.592   5.986
 4020SOL    HW212597   3.728   3.711   5.902
 4021SOL     OW12598   1.894   3.457   5.709
 4021SOL    HW112599   1.876   3.365   5.729
 4021SOL    HW212600   1.870   3.504   5.789
 4022SOL     OW12601   3.551   2.780   6.226
 4022SOL    HW112602   3.635   2.739   6.207
 4022SOL    HW212603   3.531   2.830   6.148
 4023SOL     OW12604   3.508   2.969   6.015
 4023SOL    HW112605   3.594   2.974   5.973
 4023SOL    HW212606   3.514   3.030   6.088
 4024SOL     OW12607   1.974   2.603   7.173
 4024SOL    HW112608   2.067   2.625   7.183
 4024SOL    HW212609   1.929   2.687   7.181
 4025SOL     OW12610   2.479   3.247   6.321
 4025SOL    HW112611   2.434   3.163   6.332
 4025SOL    HW212612   2.459   3.273   6.231
 4026SOL     OW12613   3.151   3.099   7.011
 4026SOL    HW112614   3.184   3.032   6.950
 4026SOL    HW212615   3.210   3.093   7.087
 4027SOL     OW12616   2.675   1.857   6.096
 4027SOL    HW112617   2.719   1.939   6.074
 4027SOL    HW212618   2.583   1.880   6.103
 4028SOL     OW12619   2.044   2.834   6.855
 4028SOL    HW112620   2.128   2.789   6.846
 4028SOL    HW212621   1.981   2.777   6.809
 4029SOL     OW12622   3.394   2.856   5.784
 4029SOL    HW112623   3.328   2.795   5.816
 4029SOL    HW212624   3.435   2.891   5.863
 4030SOL     OW12625   3.049   3.669   7.208
 4030SOL    HW112626   3.058   3.726   7.132
 4030SOL    HW212627   3.063   3.581   7.173
 4031SOL     OW12628   2.193   2.110   7.398
 4031SOL    HW112629   2.237   2.194   7.410
 4031SOL    HW212630   2.104   2.125   7.429
 4032SOL     OW12631   3.329   3.282   6.538
 4032SOL    HW112632   3.261   3.297   6.604
 4032SOL    HW212633   3.317   3.191   6.512
 4033SOL     OW12634   3.520   3.602   6.164
 4033SOL    HW112635   3.501   3.572   6.075
 4033SOL    HW212636   3.495   3.528   6.220
 4034SOL     OW12637   3.143   2.213   6.519
 4034SOL    HW112638   3.053   2.181   6.527
 4034SOL    HW212639   3.193   2.160   6.580
 4035SOL     OW12640   3.443   3.532   5.895
 4035SOL    HW112641   3.533   3.564   5.889
 4035SOL    HW212642   3.417   3.515   5.805
 4036SOL     OW12643   3.257   2.336   7.261
 4036SOL    HW112644   3.256   2.381   7.346
 4036SOL    HW212645   3.317   2.263   7.273
 4037SOL     OW12646   2.852   2.272   6.835
 4037SOL    HW112647   2.764   2.289   6.869
 4037SOL    HW212648   2.837   2.241   6.745
 4038SOL     OW12649   1.950   2.683   6.362
 4038SOL    HW112650   2.030   2.676   6.413
 4038SOL    HW212651   1.906   2.761   6.396
 4039SOL     OW12652   1.989   3.713   7.165
 4039SOL    HW112653   1.989   3.690   7.258
 4039SOL    HW212654   1.898   3.699   7.138
 4040SOL     OW12655   2.747   2.192   5.732
 4040SOL    HW112656   2.799   2.255   5.682
 4040SOL    HW212657   2.794   2.109   5.722
 4041SOL     OW12658   3.572   2.438   7.415
 4041SOL    HW112659   3.533   2.512   7.368
 4041SOL    HW212660   3.598   2.376   7.347
 4042SOL     OW12661   3.236   3.000   6.124
 4042SOL    HW112662   3.318   2.992   6.076
 4042SOL    HW212663   3.187   3.067   6.076
 4043SOL     OW12664   2.410   2.038   6.475
 4043SOL    HW112665   2.411   2.064   6.567
 4043SOL    HW212666   2.411   2.120   6.427
 4044SOL     OW12667   2.866   3.305   6.058
 4044SOL    HW112668   2.830   3.379   6.009
 4044SOL    HW212669   2.850   3.327   6.150
 4045SOL     OW12670   2.217   3.671   6.448
 4045SOL    HW112671   2.260   3.585   6.456
 4045SOL    HW212672   2.286   3.734   6.467
 4046SOL     OW12673   3.661   2.918   6.454
 4046SOL    HW112674   3.606   2.901   6.378
 4046SOL    HW212675   3.599   2.924   6.527
 4047SOL     OW12676   3.089   3.400   7.098
 4047SOL    HW112677   3.076   3.328   7.160
 4047SOL    HW212678   3.025   3.383   7.029
 4048SOL     OW12679   2.175   2.826   5.836
 4048SOL    HW112680   2.256   2.846   5.789
 4048SOL    HW212681   2.151   2.739   5.803
 4049SOL     OW12682   3.337   2.610   6.314
 4049SOL    HW112683   3.331   2.562   6.396
 4049SOL    HW212684   3.417   2.661   6.321
 4050SOL     OW12685   2.328   3.127   7.324
 4050SOL    HW112686   2.300   3.132   7.232
 4050SOL    HW212687   2.246   3.124   7.374
 4051SOL     OW12688   2.984   3.640   5.816
 4051SOL    HW112689   2.911   3.599   5.862
 4051SOL    HW212690   3.007   3.578   5.747
 4052SOL     OW12691   2.063   2.144   7.087
 4052SOL    HW112692   1.980   2.191   7.081
 4052SOL    HW212693   2.046   2.071   7.147
 4053SOL     OW12694   3.490   3.241   5.674
 4053SOL    HW112695   3.449   3.327   5.659
 4053SOL    HW212696   3.421   3.178   5.654
 4054SOL     OW12697   2.328   3.599   5.907
 4054SOL    HW112698   2.369   3.657   5.971
 4054SOL    HW212699   2.400   3.569   5.852
 4055SOL     OW12700   3.263   1.969   6.019
 4055SOL    HW112701   3.253   1.944   5.927
 4055SOL    HW212702   3.358   1.975   6.032
 4056SOL     OW12703   2.117   3.653   6.818
 4056SOL    HW112704   2.170   3.588   6.864
 4056SOL    HW212705   2.109   3.618   6.729
 4057SOL     OW12706   2.799   3.563   6.484
 4057SOL    HW112707   2.872   3.508   6.513
 4057SOL    HW212708   2.755   3.511   6.416
 4058SOL     OW12709   2.250   2.552   6.059
 4058SOL    HW112710   2.276   2.463   6.079
 4058SOL    HW212711   2.157   2.555   6.081
 4059SOL     OW12712   3.397   2.087   7.312
 4059SOL    HW112713   3.406   2.108   7.404
 4059SOL    HW212714   3.327   2.022   7.308
 4060SOL     OW12715   2.481   1.974   5.704
 4060SOL    HW112716   2.569   1.935   5.703
 4060SOL    HW212717   2.444   1.952   5.619
 4061SOL     OW12718   2.620   2.118   7.332
 4061SOL    HW112719   2.702   2.070   7.340
 4061SOL    HW212720   2.596   2.138   7.423
 4062SOL     OW12721   2.740   3.387   6.780
 4062SOL    HW112722   2.721   3.350   6.694
 4062SOL    HW212723   2.804   3.329   6.819
 4063SOL     OW12724   3.214   2.449   7.012
 4063SOL    HW112725   3.241   2.418   7.098
 4063SOL    HW212726   3.249   2.539   7.007
 4064SOL     OW12727   2.677   3.273   6.522
 4064SOL    HW112728   2.761   3.252   6.480
 4064SOL    HW212729   2.613   3.263   6.452
 4065SOL     OW12730   2.783   2.355   6.489
 4065SOL    HW112731   2.764   2.339   6.397
 4065SOL    HW212732   2.825   2.274   6.519
 4066SOL     OW12733   2.411   1.926   6.088
 4066SOL    HW112734   2.330   1.926   6.139
 4066SOL    HW212735   2.405   2.005   6.033
 4067SOL     OW12736   3.290   3.060   5.627
 4067SOL    HW112737   3.320   2.985   5.677
 4067SOL    HW212738   3.204   3.081   5.664
 4068SOL     OW12739   2.154   1.910   5.771
 4068SOL    HW112740   2.212   1.970   5.725
 4068SOL    HW212741   2.213   1.846   5.812
 4069SOL     OW12742   2.809   2.092   6.051
 4069SOL    HW112743   2.768   2.164   6.003
 4069SOL    HW212744   2.902   2.111   6.048
 4070SOL     OW12745   2.947   2.516   7.060
 4070SOL    HW112746   2.899   2.440   7.028
 4070SOL    HW212747   3.039   2.497   7.041
 4071SOL     OW12748   3.089   3.428   6.377
 4071SOL    HW112749   3.103   3.499   6.313
 4071SOL    HW212750   3.153   3.446   6.446
 4072SOL     OW12751   2.329   3.019   6.320
 4072SOL    HW112752   2.259   2.995   6.381
 4072SOL    HW212753   2.296   2.993   6.234
 4073SOL     OW12754   3.131   3.656   6.194
 4073SOL    HW112755   3.177   3.717   6.137
 4073SOL    HW212756   3.064   3.709   6.238
 4074SOL     OW12757   2.907   2.393   5.611
 4074SOL    HW112758   2.845   2.467   5.610
 4074SOL    HW212759   2.964   2.411   5.686
 4075SOL     OW12760   1.942   2.417   6.976
 4075SOL    HW112761   2.035   2.416   6.953
 4075SOL    HW212762   1.935   2.487   7.042
 4076SOL     OW12763   2.418   2.075   6.746
 4076SOL    HW112764   2.459   2.000   6.789
 4076SOL    HW212765   2.328   2.074   6.779
 4077SOL     OW12766   2.734   2.292   6.239
 4077SOL    HW112767   2.710   2.359   6.175
 4077SOL    HW212768   2.757   2.216   6.186
 4078SOL     OW12769   2.877   1.915   6.338
 4078SOL    HW112770   2.820   1.909   6.261
 4078SOL    HW212771   2.854   1.839   6.391
 4079SOL     OW12772   3.301   3.025   6.444
 4079SOL    HW112773   3.231   2.960   6.442
 4079SOL    HW212774   3.326   3.036   6.352
 4080SOL     OW12775   3.329   2.467   6.562
 4080SOL    HW112776   3.277   2.387   6.565
 4080SOL    HW212777   3.388   2.460   6.636
 4081SOL     OW12778   3.707   2.678   5.968
 4081SOL    HW112779   3.764   2.627   6.027
 4081SOL    HW212780   3.679   2.615   5.902
 4082SOL     OW12781   2.355   3.277   5.744
 4082SOL    HW112782   2.279   3.250   5.796
 4082SOL    HW212783   2.339   3.239   5.658
 4083SOL     OW12784   3.531   3.126   6.232
 4083SOL    HW112785   3.626   3.129   6.245
 4083SOL    HW212786   3.501   3.215   6.253
 4084SOL     OW12787   3.257   2.434   5.658
 4084SOL    HW112788   3.197   2.412   5.729
 4084SOL    HW212789   3.342   2.400   5.687
 4085SOL     OW12790   2.386   2.130   5.908
 4085SOL    HW112791   2.424   2.075   5.839
 4085SOL    HW212792   2.367   2.213   5.865
 4086SOL     OW12793   3.614   3.101   7.158
 4086SOL    HW112794   3.702   3.062   7.154
 4086SOL    HW212795   3.629   3.191   7.188
 4087SOL     OW12796   2.924   3.221   6.921
 4087SOL    HW112797   2.847   3.189   6.967
 4087SOL    HW212798   2.998   3.175   6.962
 4088SOL     OW12799   3.470   3.488   7.239
 4088SOL    HW112800   3.465   3.522   7.149
 4088SOL    HW212801   3.553   3.440   7.241
 4089SOL     OW12802   2.991   3.065   6.690
 4089SOL    HW112803   2.927   3.089   6.757
 4089SOL    HW212804   2.952   3.095   6.608
 4090SOL     OW12805   3.491   2.960   6.664
 4090SOL    HW112806   3.487   3.022   6.736
 4090SOL    HW212807   3.412   2.978   6.613
 4091SOL     OW12808   2.780   1.958   6.982
 4091SOL    HW112809   2.803   1.940   6.891
 4091SOL    HW212810   2.859   1.998   7.019
 4092SOL     OW12811   2.848   2.964   7.309
 4092SOL    HW112812   2.757   2.986   7.327
 4092SOL    HW212813   2.845   2.916   7.226
 4093SOL     OW12814   2.262   2.675   6.846
 4093SOL    HW112815   2.355   2.682   6.868
 4093SOL    HW212816   2.239   2.584   6.864
 4094SOL     OW12817   3.129   2.238   6.860
 4094SOL    HW112818   3.164   2.315   6.905
 4094SOL    HW212819   3.038   2.261   6.840
 4095SOL     OW12820   1.933   3.435   6.939
 4095SOL    HW112821   1.904   3.508   6.884
 4095SOL    HW212822   2.029   3.437   6.933
 4096SOL     OW12823   2.217   2.968   6.074
 4096SOL    HW112824   2.211   3.042   6.014
 4096SOL    HW212825   2.208   2.891   6.018
 4097SOL     OW12826   2.413   2.389   6.462
 4097SOL    HW112827   2.413   2.407   6.368
 4097SOL    HW212828   2.505   2.395   6.487
 4098SOL     OW12829   3.109   3.210   5.977
 4098SOL    HW112830   3.165   3.282   6.006
 4098SOL    HW212831   3.022   3.232   6.010
 4099SOL     OW12832   3.143   3.319   6.731
 4099SOL    HW112833   3.196   3.321   6.811
 4099SOL    HW212834   3.082   3.246   6.745
 4100SOL     OW12835   3.442   2.485   6.065
 4100SOL    HW112836   3.397   2.541   6.129
 4100SOL    HW212837   3.489   2.547   6.009
 4101SOL     OW12838   2.209   3.389   6.901
 4101SOL    HW112839   2.196   3.347   6.816
 4101SOL    HW212840   2.303   3.401   6.908
 4102SOL     OW12841   2.249   2.598   7.186
 4102SOL    HW112842   2.310   2.656   7.140
 4102SOL    HW212843   2.293   2.513   7.188
 4103SOL     OW12844   3.463   2.641   7.268
 4103SOL    HW112845   3.377   2.681   7.261
 4103SOL    HW212846   3.515   2.683   7.200
 4104SOL     OW12847   2.861   1.986   7.343
 4104SOL    HW112848   2.916   2.059   7.313
 4104SOL    HW212849   2.909   1.908   7.316
 4105SOL     OW12850   2.359   1.900   7.335
 4105SOL    HW112851   2.316   1.847   7.267
 4105SOL    HW212852   2.301   1.976   7.346
 4106SOL     OW12853   3.224   2.721   6.617
 4106SOL    HW112854   3.146   2.711   6.563
 4106SOL    HW212855   3.267   2.635   6.614
 4107SOL     OW12856   3.063   2.390   5.855
 4107SOL    HW112857   3.067   2.307   5.902
 4107SOL    HW212858   3.059   2.457   5.923
 4108SOL     OW12859   2.160   2.061   6.833
 4108SOL    HW112860   2.123   2.093   6.915
 4108SOL    HW212861   2.141   1.967   6.834
 4109SOL     OW12862   1.906   3.173   6.862
 4109SOL    HW112863   1.940   3.119   6.933
 4109SOL    HW212864   1.915   3.263   6.895
 4110SOL     OW12865   3.598   2.821   7.438
 4110SOL    HW112866   3.550   2.760   7.382
 4110SOL    HW212867   3.539   2.836   7.513
 4111SOL     OW12868   2.165   1.927   6.209
 4111SOL    HW112869   2.145   2.018   6.233
 4111SOL    HW212870   2.172   1.882   6.293
 4112SOL     OW12871   3.478   2.236   5.953
 4112SOL    HW112872   3.506   2.172   6.019
 4112SOL    HW212873   3.455   2.314   6.004
 4113SOL     OW12874   2.844   3.428   7.302
 4113SOL    HW112875   2.829   3.472   7.219
 4113SOL    HW212876   2.887   3.345   7.278
 4114SOL     OW12877   3.717   3.368   7.191
 4114SOL    HW112878   3.735   3.394   7.101
 4114SOL    HW212879   3.798   3.386   7.238
 4115SOL     OW12880   2.211   2.780   7.397
 4115SOL    HW112881   2.291   2.803   7.443
 4115SOL    HW212882   2.238   2.712   7.335
 4116SOL     OW12883   3.389   2.136   5.714
 4116SOL    HW112884   3.326   2.070   5.740
 4116SOL    HW212885   3.424   2.171   5.796
 4117SOL     OW12886   3.153   2.687   5.615
 4117SOL    HW112887   3.196   2.601   5.619
 4117SOL    HW212888   3.185   2.726   5.534
 4118SOL     OW12889   2.925   3.201   6.436
 4118SOL    HW112890   2.931   3.129   6.373
 4118SOL    HW212891   2.989   3.266   6.405
 4119SOL     OW12892   2.168   2.673   6.535
 4119SOL    HW112893   2.258   2.704   6.542
 4119SOL    HW212894   2.170   2.585   6.573
 4120SOL     OW12895   2.189   2.387   6.606
 4120SOL    HW112896   2.153   2.300   6.588
 4120SOL    HW212897   2.269   2.392   6.553
 4121SOL     OW12898   3.000   2.232   7.264
 4121SOL    HW112899   2.954   2.284   7.329
 4121SOL    HW212900   3.086   2.274   7.257
 4122SOL     OW12901   3.024   2.062   7.054
 4122SOL    HW112902   3.013   2.124   7.126
 4122SOL    HW212903   3.062   2.114   6.983
 4123SOL     OW12904   1.867   3.183   5.781
 4123SOL    HW112905   1.780   3.197   5.743
 4123SOL    HW212906   1.864   3.093   5.814
 4124SOL     OW12907   1.952   3.649   6.524
 4124SOL    HW112908   1.922   3.570   6.480
 4124SOL    HW212909   2.042   3.661   6.493
 4125SOL     OW12910   2.358   3.435   6.490
 4125SOL    HW112911   2.427   3.496   6.516
 4125SOL    HW212912   2.403   3.370   6.436
 4126SOL     OW12913   1.897   2.405   6.703
 4126SOL    HW112914   1.978   2.395   6.654
 4126SOL    HW212915   1.924   2.410   6.794
 4127SOL     OW12916   2.052   2.380   7.313
 4127SOL    HW112917   2.104   2.339   7.243
 4127SOL    HW212918   2.009   2.454   7.270
 4128SOL     OW12919   3.238   2.800   7.245
 4128SOL    HW112920   3.260   2.894   7.243
 4128SOL    HW212921   3.235   2.775   7.153
 4129SOL     OW12922   2.703   2.327   5.959
 4129SOL    HW112923   2.706   2.288   5.872
 4129SOL    HW212924   2.630   2.389   5.955
 4130SOL     OW12925   3.504   2.464   6.771
 4130SOL    HW112926   3.492   2.406   6.847
 4130SOL    HW212927   3.591   2.443   6.738
 4131SOL     OW12928   2.104   3.413   7.313
 4131SOL    HW112929   2.083   3.477   7.382
 4131SOL    HW212930   2.108   3.329   7.359
 4132SOL     OW12931   2.541   2.296   6.850
 4132SOL    HW112932   2.498   2.219   6.812
 4132SOL    HW212933   2.563   2.351   6.774
 4133SOL     OW12934   2.789   3.542   7.055
 4133SOL    HW112935   2.765   3.505   6.970
 4133SOL    HW212936   2.783   3.637   7.041
 4134SOL     OW12937   2.330   2.365   5.782
 4134SOL    HW112938   2.380   2.446   5.793
 4134SOL    HW212939   2.240   2.394   5.767
 4135SOL     OW12940   2.006   3.004   7.059
 4135SOL    HW112941   2.009   2.951   7.139
 4135SOL    HW212942   2.022   2.941   6.989
 4136SOL     OW12943   3.189   2.910   6.810
 4136SOL    HW112944   3.212   2.847   6.742
 4136SOL    HW212945   3.120   2.963   6.771
 4137SOL     OW12946   3.177   2.710   5.889
 4137SOL    HW112947   3.094   2.729   5.932
 4137SOL    HW212948   3.154   2.703   5.796
 4138SOL     OW12949   3.633   3.606   6.736
 4138SOL    HW112950   3.694   3.632   6.666
 4138SOL    HW212951   3.610   3.516   6.714
 4139SOL     OW12952   3.103   3.595   6.698
 4139SOL    HW112953   3.185   3.615   6.654
 4139SOL    HW212954   3.108   3.502   6.718
 4140SOL     OW12955   1.945   3.130   6.598
 4140SOL    HW112956   1.932   3.142   6.691
 4140SOL    HW212957   1.873   3.073   6.570
 4141SOL     OW12958   2.539   3.527   7.314
 4141SOL    HW112959   2.488   3.607   7.310
 4141SOL    HW212960   2.606   3.538   7.246
 4142SOL     OW12961   3.581   2.009   6.095
 4142SOL    HW112962   3.654   1.994   6.035
 4142SOL    HW212963   3.566   1.923   6.135
 4143SOL     OW12964   3.252   3.430   6.070
 4143SOL    HW112965   3.313   3.463   6.004
 4143SOL    HW212966   3.204   3.507   6.099
 4144SOL     OW12967   1.997   3.659   7.430
 4144SOL    HW112968   1.947   3.594   7.479
 4144SOL    HW212969   2.046   3.707   7.497
 4145SOL     OW12970   3.131   2.787   6.256
 4145SOL    HW112971   3.204   2.726   6.265
 4145SOL    HW212972   3.166   2.860   6.205
 4146SOL     OW12973   2.690   3.142   7.022
 4146SOL    HW112974   2.645   3.184   7.096
 4146SOL    HW212975   2.619   3.116   6.963
 4147SOL     OW12976   2.533   3.482   5.741
 4147SOL    HW112977   2.543   3.494   5.647
 4147SOL    HW212978   2.478   3.404   5.750
 4148SOL     OW12979   3.489   3.589   6.977
 4148SOL    HW112980   3.538   3.596   6.895
 4148SOL    HW212981   3.475   3.679   7.005
 4149SOL     OW12982   3.703   2.035   6.553
 4149SOL    HW112983   3.731   1.948   6.526
 4149SOL    HW212984   3.616   2.045   6.513
 4150SOL     OW12985   2.124   2.180   6.303
 4150SOL    HW112986   2.037   2.213   6.279
 4150SOL    HW212987   2.119   2.169   6.398
 4151SOL     OW12988   3.069   3.468   5.617
 4151SOL    HW112989   3.060   3.377   5.645
 4151SOL    HW212990   3.003   3.479   5.549
 4152SOL     OW12991   3.354   3.487   5.629
 4152SOL    HW112992   3.259   3.481   5.615
 4152SOL    HW212993   3.391   3.493   5.541
 4153SOL     OW12994   2.229   3.166   7.080
 4153SOL    HW112995   2.219   3.241   7.022
 4153SOL    HW212996   2.152   3.111   7.062
 4154SOL     OW12997   3.474   3.145   6.867
 4154SOL    HW112998   3.531   3.134   6.942
 4154SOL    HW212999   3.412   3.214   6.894
 4155SOL     OW13000   2.913   2.970   6.289
 4155SOL    HW113001   2.839   2.923   6.328
 4155SOL    HW213002   2.977   2.901   6.269
 4156SOL     OW13003   2.887   2.100   6.553
 4156SOL    HW113004   2.881   2.051   6.470
 4156SOL    HW213005   2.880   2.032   6.620
 4157SOL     OW13006   2.464   3.353   6.067
 4157SOL    HW113007   2.508   3.307   5.996
 4157SOL    HW213008   2.392   3.401   6.024
 4158SOL     OW13009   3.584   2.254   6.967
 4158SOL    HW113010   3.656   2.317   6.965
 4158SOL    HW213011   3.614   2.182   6.910
 4159SOL     OW13012   2.121   3.207   5.874
 4159SOL    HW113013   2.029   3.204   5.851
 4159SOL    HW213014   2.123   3.244   5.962
 4160SOL     OW13015   1.973   2.882   7.304
 4160SOL    HW113016   1.897   2.860   7.358
 4160SOL    HW213017   2.048   2.847   7.352
 4161SOL     OW13018   2.533   2.055   7.081
 4161SOL    HW113019   2.618   2.039   7.041
 4161SOL    HW213020   2.553   2.080   7.171
 4162SOL     OW13021   1.940   2.197   5.621
 4162SOL    HW113022   1.853   2.176   5.586
 4162SOL    HW213023   1.969   2.272   5.570
 4163SOL     OW13024   3.293   2.721   6.987
 4163SOL    HW113025   3.243   2.782   6.932
 4163SOL    HW213026   3.382   2.724   6.952
 4164SOL     OW13027   1.931   2.018   5.896
 4164SOL    HW113028   1.916   2.098   5.844
 4164SOL    HW213029   2.016   1.985   5.866
 4165SOL     OW13030   3.041   3.202   5.703
 4165SOL    HW113031   2.951   3.171   5.705
 4165SOL    HW213032   3.069   3.202   5.794
 4166SOL     OW13033   3.346   3.638   6.564
 4166SOL    HW113034   3.370   3.699   6.494
 4166SOL    HW213035   3.429   3.620   6.609
 4167SOL     OW13036   3.334   3.061   7.219
 4167SOL    HW113037   3.321   3.075   7.312
 4167SOL    HW213038   3.427   3.077   7.205
 4168SOL     OW13039   2.241   3.602   7.150
 4168SOL    HW113040   2.156   3.643   7.137
 4168SOL    HW213041   2.221   3.518   7.191
 4169SOL     OW13042   3.532   2.743   6.842
 4169SOL    HW113043   3.525   2.658   6.799
 4169SOL    HW213044   3.522   2.807   6.770
 4170SOL     OW13045   3.081   2.181   6.042
 4170SOL    HW113046   3.143   2.108   6.034
 4170SOL    HW213047   3.109   2.228   6.120
 4171SOL     OW13048   3.624   2.224   7.238
 4171SOL    HW113049   3.608   2.239   7.144
 4171SOL    HW213050   3.552   2.167   7.265
 4172SOL     OW13051   3.608   2.795   7.098
 4172SOL    HW113052   3.603   2.890   7.112
 4172SOL    HW213053   3.592   2.784   7.005
 4173SOL     OW13054   2.730   3.233   5.621
 4173SOL    HW113055   2.690   3.262   5.703
 4173SOL    HW213056   2.747   3.314   5.573
 4174SOL     OW13057   2.522   3.654   6.530
 4174SOL    HW113058   2.504   3.745   6.507
 4174SOL    HW213059   2.617   3.646   6.524
 4175SOL     OW13060   2.952   2.858   5.677
 4175SOL    HW113061   2.922   2.902   5.597
 4175SOL    HW213062   3.021   2.800   5.648
 4176SOL     OW13063   3.716   3.416   6.430
 4176SOL    HW113064   3.638   3.405   6.377
 4176SOL    HW213065   3.707   3.351   6.500
 4177SOL     OW13066   2.087   3.166   7.443
 4177SOL    HW113067   2.019   3.104   7.413
 4177SOL    HW213068   2.069   3.178   7.536
 4178SOL     OW13069   1.946   3.095   6.252
 4178SOL    HW113070   1.952   3.048   6.335
 4178SOL    HW213071   2.015   3.058   6.197
 4179SOL     OW13072   2.540   3.265   7.212
 4179SOL    HW113073   2.461   3.222   7.244
 4179SOL    HW213074   2.537   3.353   7.250
 4180SOL     OW13075   3.675   2.046   6.824
 4180SOL    HW113076   3.684   1.952   6.838
 4180SOL    HW213077   3.684   2.057   6.729
 4181SOL     OW13078   2.306   2.294   6.126
 4181SOL    HW113079   2.326   2.229   6.058
 4181SOL    HW213080   2.243   2.249   6.184
 4182SOL     OW13081   3.563   3.351   6.682
 4182SOL    HW113082   3.481   3.329   6.637
 4182SOL    HW213083   3.573   3.283   6.748
 4183SOL     OW13084   2.197   2.414   6.882
 4183SOL    HW113085   2.252   2.355   6.935
 4183SOL    HW213086   2.209   2.384   6.792
 4184SOL     OW13087   2.690   3.440   6.261
 4184SOL    HW113088   2.673   3.493   6.183
 4184SOL    HW213089   2.614   3.383   6.269
 4185SOL     OW13090   3.295   2.086   6.704
 4185SOL    HW113091   3.320   2.006   6.751
 4185SOL    HW213092   3.242   2.135   6.767
 4186SOL     OW13093   2.871   1.879   6.728
 4186SOL    HW113094   2.817   1.811   6.688
 4186SOL    HW213095   2.959   1.842   6.731
 4187SOL     OW13096   2.636   3.204   5.898
 4187SOL    HW113097   2.608   3.113   5.894
 4187SOL    HW213098   2.717   3.202   5.950
 4188SOL     OW13099   2.480   3.421   6.869
 4188SOL    HW113100   2.485   3.503   6.919
 4188SOL    HW213101   2.569   3.409   6.834
 4189SOL     OW13102   3.214   1.916   5.751
 4189SOL    HW113103   3.242   1.853   5.685
 4189SOL    HW213104   3.127   1.885   5.778
 4190SOL     OW13105   3.166   2.316   6.267
 4190SOL    HW113106   3.116   2.397   6.275
 4190SOL    HW213107   3.160   2.275   6.353
 4191SOL     OW13108   3.449   2.064   6.464
 4191SOL    HW113109   3.388   2.084   6.535
 4191SOL    HW213110   3.448   2.142   6.408
 4192SOL     OW13111   1.906   2.933   5.892
 4192SOL    HW113112   1.999   2.923   5.872
 4192SOL    HW213113   1.877   2.844   5.915
 4193SOL     OW13114   2.747   3.515   5.927
 4193SOL    HW113115   2.674   3.498   5.868
 4193SOL    HW213116   2.718   3.590   5.980
 4194SOL     OW13117   2.093   2.477   7.571
 4194SOL    HW113118   2.004   2.492   7.603
 4194SOL    HW213119   2.082   2.457   7.478
 4195SOL     OW13120   3.628   2.461   7.680
 4195SOL    HW113121   3.609   2.457   7.586
 4195SOL    HW213122   3.588   2.382   7.716
 4196SOL     OW13123   2.082   3.581   7.919
 4196SOL    HW113124   2.112   3.621   8.000
 4196SOL    HW213125   2.161   3.578   7.864
 4197SOL     OW13126   2.078   3.301   7.989
 4197SOL    HW113127   2.062   3.395   7.990
 4197SOL    HW213128   2.023   3.266   8.059
 4198SOL     OW13129   2.428   2.861   7.569
 4198SOL    HW113130   2.481   2.909   7.505
 4198SOL    HW213131   2.470   2.880   7.653
 4199SOL     OW13132   3.699   3.621   7.797
 4199SOL    HW113133   3.770   3.591   7.854
 4199SOL    HW213134   3.725   3.710   7.772
 4200SOL     OW13135   1.891   3.461   7.577
 4200SOL    HW113136   1.877   3.368   7.592
 4200SOL    HW213137   1.865   3.503   7.659
 4201SOL     OW13138   3.544   2.728   8.036
 4201SOL    HW113139   3.625   2.739   0.006
 4201SOL    HW213140   3.532   2.811   7.990
 4202SOL     OW13141   3.517   2.959   7.878
 4202SOL    HW113142   3.603   2.986   7.847
 4202SOL    HW213143   3.487   3.032   7.933
 4203SOL     OW13144   2.665   1.858   7.942
 4203SOL    HW113145   2.712   1.939   7.922
 4203SOL    HW213146   2.573   1.885   7.947
 4204SOL     OW13147   3.395   2.855   7.649
 4204SOL    HW113148   3.328   2.795   7.681
 4204SOL    HW213149   3.437   2.890   7.728
 4205SOL     OW13150   3.436   3.533   7.757
 4205SOL    HW113151   3.527   3.562   7.765
 4205SOL    HW213152   3.424   3.520   7.663
 4206SOL     OW13153   1.923   2.721   0.091
 4206SOL    HW113154   1.994   2.665   0.120
 4206SOL    HW213155   1.915   2.788   0.159
 4207SOL     OW13156   2.746   2.204   7.641
 4207SOL    HW113157   2.788   2.273   7.589
 4207SOL    HW213158   2.786   2.123   7.609
 4208SOL     OW13159   2.177   2.824   7.695
 4208SOL    HW113160   2.259   2.839   7.648
 4208SOL    HW213161   2.149   2.737   7.667
 4209SOL     OW13162   2.986   3.637   7.682
 4209SOL    HW113163   2.909   3.598   7.723
 4209SOL    HW213164   3.009   3.577   7.611
 4210SOL     OW13165   3.490   3.242   7.534
 4210SOL    HW113166   3.448   3.327   7.520
 4210SOL    HW213167   3.421   3.178   7.517
 4211SOL     OW13168   2.328   3.601   7.769
 4211SOL    HW113169   2.378   3.652   7.833
 4211SOL    HW213170   2.395   3.563   7.711
 4212SOL     OW13171   3.278   1.994   7.864
 4212SOL    HW113172   3.265   1.959   7.776
 4212SOL    HW213173   3.373   1.991   7.877
 4213SOL     OW13174   2.241   2.548   7.901
 4213SOL    HW113175   2.248   2.455   7.926
 4213SOL    HW213176   2.169   2.582   7.954
 4214SOL     OW13177   2.483   1.976   7.567
 4214SOL    HW113178   2.567   1.931   7.570
 4214SOL    HW213179   2.445   1.952   7.483
 4215SOL     OW13180   2.395   1.936   7.959
 4215SOL    HW113181   2.308   1.937   7.999
 4215SOL    HW213182   2.393   2.007   7.894
 4216SOL     OW13183   3.290   3.060   7.490
 4216SOL    HW113184   3.320   2.985   7.541
 4216SOL    HW213185   3.204   3.081   7.525
 4217SOL     OW13186   2.155   1.911   7.633
 4217SOL    HW113187   2.214   1.970   7.585
 4217SOL    HW213188   2.213   1.846   7.671
 4218SOL     OW13189   2.802   2.092   7.907
 4218SOL    HW113190   2.764   2.147   7.839
 4218SOL    HW213191   2.892   2.121   7.914
 4219SOL     OW13192   2.288   3.045   0.091
 4219SOL    HW113193   2.210   3.043   0.145
 4219SOL    HW213194   2.259   3.014   0.005
 4220SOL     OW13195   3.153   3.674   8.014
 4220SOL    HW113196   3.188   3.743   7.958
 4220SOL    HW213197   3.068   3.707   8.043
 4221SOL     OW13198   2.908   2.384   7.474
 4221SOL    HW113199   2.864   2.469   7.472
 4221SOL    HW213200   2.972   2.391   7.544
 4222SOL     OW13201   3.734   2.678   7.802
 4222SOL    HW113202   3.728   2.650   7.893
 4222SOL    HW213203   3.693   2.608   7.752
 4223SOL     OW13204   2.350   3.279   7.605
 4223SOL    HW113205   2.276   3.249   7.657
 4223SOL    HW213206   2.337   3.238   7.519
 4224SOL     OW13207   3.256   2.432   7.518
 4224SOL    HW113208   3.195   2.413   7.590
 4224SOL    HW213209   3.341   2.400   7.549
 4225SOL     OW13210   2.386   2.131   7.772
 4225SOL    HW113211   2.427   2.078   7.704
 4225SOL    HW213212   2.367   2.215   7.729
 4226SOL     OW13213   2.572   2.943   7.822
 4226SOL    HW113214   2.517   2.947   7.901
 4226SOL    HW213215   2.598   2.851   7.817
 4227SOL     OW13216   2.230   2.963   7.925
 4227SOL    HW113217   2.207   3.040   7.873
 4227SOL    HW213218   2.216   2.889   7.866
 4228SOL     OW13219   3.087   3.217   7.822
 4228SOL    HW113220   3.149   3.286   7.846
 4228SOL    HW213221   3.045   3.193   7.904
 4229SOL     OW13222   3.450   2.490   7.922
 4229SOL    HW113223   3.439   2.551   7.995
 4229SOL    HW213224   3.488   2.542   7.851
 4230SOL     OW13225   3.064   2.387   7.714
 4230SOL    HW113226   3.064   2.307   7.766
 4230SOL    HW213227   3.062   2.458   7.778
 4231SOL     OW13228   3.481   2.241   7.815
 4231SOL    HW113229   3.502   2.174   7.880
 4231SOL    HW213230   3.456   2.318   7.866
 4232SOL     OW13231   3.392   2.136   7.575
 4232SOL    HW113232   3.326   2.071   7.601
 4232SOL    HW213233   3.424   2.172   7.658
 4233SOL     OW13234   3.157   2.689   7.481
 4233SOL    HW113235   3.196   2.602   7.481
 4233SOL    HW213236   3.186   2.729   7.399
 4234SOL     OW13237   1.867   3.187   7.641
 4234SOL    HW113238   1.780   3.199   7.603
 4234SOL    HW213239   1.867   3.097   7.674
 4235SOL     OW13240   2.331   2.364   7.644
 4235SOL    HW113241   2.383   2.442   7.661
 4235SOL    HW213242   2.242   2.398   7.629
 4236SOL     OW13243   3.166   2.704   7.754
 4236SOL    HW113244   3.080   2.729   7.787
 4236SOL    HW213245   3.156   2.701   7.659
 4237SOL     OW13246   3.575   2.009   7.948
 4237SOL    HW113247   3.651   2.001   7.891
 4237SOL    HW213248   3.577   1.930   8.002
 4238SOL     OW13249   3.226   3.439   7.896
 4238SOL    HW113250   3.301   3.460   7.840
 4238SOL    HW213251   3.194   3.524   7.927
 4239SOL     OW13252   2.528   3.483   7.603
 4239SOL    HW113253   2.541   3.493   7.509
 4239SOL    HW213254   2.477   3.403   7.612
 4240SOL     OW13255   3.071   3.469   7.478
 4240SOL    HW113256   3.060   3.378   7.506
 4240SOL    HW213257   3.004   3.481   7.410
 4241SOL     OW13258   3.355   3.488   7.489
 4241SOL    HW113259   3.261   3.481   7.477
 4241SOL    HW213260   3.390   3.494   7.400
 4242SOL     OW13261   2.472   3.372   7.935
 4242SOL    HW113262   2.515   3.310   7.876
 4242SOL    HW213263   2.394   3.400   7.888
 4243SOL     OW13264   2.120   3.208   7.740
 4243SOL    HW113265   2.028   3.206   7.715
 4243SOL    HW213266   2.119   3.244   7.829
 4244SOL     OW13267   1.939   2.194   7.484
 4244SOL    HW113268   1.852   2.176   7.447
 4244SOL    HW213269   1.970   2.271   7.435
 4245SOL     OW13270   1.932   2.019   7.758
 4245SOL    HW113271   1.915   2.095   7.702
 4245SOL    HW213272   2.015   1.984   7.726
 4246SOL     OW13273   3.038   3.202   7.556
 4246SOL    HW113274   2.949   3.168   7.557
 4246SOL    HW213275   3.063   3.207   7.648
 4247SOL     OW13276   3.076   2.181   7.901
 4247SOL    HW113277   3.150   2.121   7.892
 4247SOL    HW213278   3.092   2.227   7.983
 4248SOL     OW13279   2.725   3.229   7.481
 4248SOL    HW113280   2.688   3.256   7.565
 4248SOL    HW213281   2.744   3.312   7.435
 4249SOL     OW13282   2.962   2.873   7.546
 4249SOL    HW113283   2.924   2.907   7.465
 4249SOL    HW213284   3.023   2.806   7.517
 4250SOL     OW13285   2.252   2.284   7.984
 4250SOL    HW113286   2.300   2.235   7.917
 4250SOL    HW213287   2.297   2.263   8.065
 4251SOL     OW13288   2.631   3.207   7.758
 4251SOL    HW113289   2.602   3.116   7.763
 4251SOL    HW213290   2.714   3.208   7.805
 4252SOL     OW13291   3.214   1.915   7.610
 4252SOL    HW113292   3.243   1.849   7.547
 4252SOL    HW213293   3.128   1.885   7.638
 4253SOL     OW13294   1.914   2.941   7.750
 4253SOL    HW113295   2.007   2.929   7.732
 4253SOL    HW213296   1.881   2.852   7.765
 4254SOL     OW13297   2.755   3.514   7.781
 4254SOL    HW113298   2.679   3.488   7.729
 4254SOL    HW213299   2.721   3.576   7.845
 4255SOL     OW13300   2.081   4.347   0.122
 4255SOL    HW113301   2.001   4.313   0.161
 4255SOL    HW213302   2.103   4.285   0.053
 4256SOL     OW13303   2.087   4.005   0.992
 4256SOL    HW113304   2.115   3.971   1.076
 4256SOL    HW213305   1.997   3.973   0.982
 4257SOL     OW13306   1.866   4.107   0.638
 4257SOL    HW113307   1.783   4.133   0.679
 4257SOL    HW213308   1.845   4.027   0.590
 4258SOL     OW13309   2.428   5.006   1.179
 4258SOL    HW113310   2.343   5.004   1.135
 4258SOL    HW213311   2.440   5.097   1.205
 4259SOL     OW13312   3.418   5.233   0.688
 4259SOL    HW113313   3.395   5.230   0.780
 4259SOL    HW213314   3.340   5.269   0.645
 4260SOL     OW13315   2.992   4.422   0.701
 4260SOL    HW113316   3.041   4.503   0.687
 4260SOL    HW213317   2.946   4.437   0.784
 4261SOL     OW13318   3.632   4.324   0.233
 4261SOL    HW113319   3.593   4.326   0.145
 4261SOL    HW213320   3.592   4.249   0.275
 4262SOL     OW13321   2.618   4.868   1.038
 4262SOL    HW113322   2.550   4.900   1.098
 4262SOL    HW213323   2.648   4.946   0.993
 4263SOL     OW13324   2.729   4.498   1.822
 4263SOL    HW113325   2.715   4.570   1.884
 4263SOL    HW213326   2.752   4.542   1.740
 4264SOL     OW13327   2.546   4.725   0.651
 4264SOL    HW113328   2.612   4.715   0.720
 4264SOL    HW213329   2.478   4.779   0.690
 4265SOL     OW13330   2.571   4.872   1.811
 4265SOL    HW113331   2.618   4.952   1.836
 4265SOL    HW213332   2.487   4.904   1.777
 4266SOL     OW13333   2.199   5.151   1.060
 4266SOL    HW113334   2.122   5.107   1.025
 4266SOL    HW213335   2.238   5.194   0.984
 4267SOL     OW13336   3.317   5.220   1.347
 4267SOL    HW113337   3.371   5.293   1.379
 4267SOL    HW213338   3.250   5.210   1.415
 4268SOL     OW13339   2.311   4.122   1.487
 4268SOL    HW113340   2.386   4.063   1.493
 4268SOL    HW213341   2.235   4.066   1.500
 4269SOL     OW13342   3.474   4.172   0.741
 4269SOL    HW113343   3.399   4.194   0.686
 4269SOL    HW213344   3.489   4.249   0.795
 4270SOL     OW13345   2.995   5.072   1.701
 4270SOL    HW113346   3.026   5.073   1.792
 4270SOL    HW213347   2.942   4.993   1.694
 4271SOL     OW13348   2.069   5.155   0.515
 4271SOL    HW113349   2.098   5.237   0.556
 4271SOL    HW213350   2.018   5.111   0.583
 4272SOL     OW13351   2.120   4.811   0.892
 4272SOL    HW113352   2.117   4.724   0.931
 4272SOL    HW213353   2.062   4.864   0.947
 4273SOL     OW13354   2.491   4.685   0.132
 4273SOL    HW113355   2.439   4.761   0.107
 4273SOL    HW213356   2.540   4.713   0.209
 4274SOL     OW13357   3.458   3.847   1.468
 4274SOL    HW113358   3.466   3.928   1.417
 4274SOL    HW213359   3.444   3.877   1.558
 4275SOL     OW13360   1.977   4.374   0.562
 4275SOL    HW113361   1.947   4.286   0.583
 4275SOL    HW213362   1.968   4.423   0.644
 4276SOL     OW13363   1.839   0.020   0.095
 4276SOL    HW113364   1.855   5.229   0.122
 4276SOL    HW213365   1.869   0.073   0.169
 4277SOL     OW13366   3.549   4.642   0.643
 4277SOL    HW113367   3.632   4.600   0.621
 4277SOL    HW213368   3.527   4.694   0.565
 4278SOL     OW13369   3.508   4.829   0.434
 4278SOL    HW113370   3.590   4.841   0.386
 4278SOL    HW213371   3.514   4.891   0.507
 4279SOL     OW13372   1.985   4.466   1.586
 4279SOL    HW113373   2.077   4.492   1.594
 4279SOL    HW213374   1.936   4.549   1.594
 4280SOL     OW13375   2.484   5.098   0.738
 4280SOL    HW113376   2.429   5.020   0.735
 4280SOL    HW213377   2.466   5.143   0.655
 4281SOL     OW13378   3.151   4.954   1.426
 4281SOL    HW113379   3.185   4.889   1.365
 4281SOL    HW213380   3.211   4.952   1.500
 4282SOL     OW13381   2.678   3.726   0.511
 4282SOL    HW113382   2.717   3.811   0.489
 4282SOL    HW213383   2.584   3.745   0.518
 4283SOL     OW13384   2.052   4.690   1.270
 4283SOL    HW113385   2.137   4.647   1.256
 4283SOL    HW213386   1.989   4.635   1.223
 4284SOL     OW13387   3.371   4.734   0.210
 4284SOL    HW113388   3.311   4.667   0.243
 4284SOL    HW213389   3.424   4.757   0.287
 4285SOL     OW13390   2.195   3.974   1.812
 4285SOL    HW113391   2.240   4.057   1.828
 4285SOL    HW213392   2.106   3.988   1.843
 4286SOL     OW13393   3.339   5.146   0.962
 4286SOL    HW113394   3.265   5.159   1.023
 4286SOL    HW213395   3.326   5.058   0.928
 4287SOL     OW13396   2.460   4.438   0.282
 4287SOL    HW113397   2.479   4.515   0.229
 4287SOL    HW213398   2.396   4.468   0.347
 4288SOL     OW13399   3.141   4.076   0.932
 4288SOL    HW113400   3.051   4.043   0.941
 4288SOL    HW213401   3.192   4.023   0.994
 4289SOL     OW13402   2.654   4.341   1.451
 4289SOL    HW113403   2.628   4.318   1.540
 4289SOL    HW213404   2.614   4.275   1.396
 4290SOL     OW13405   3.255   4.198   1.678
 4290SOL    HW113406   3.258   4.243   1.762
 4290SOL    HW213407   3.317   4.125   1.687
 4291SOL     OW13408   2.817   4.612   1.583
 4291SOL    HW113409   2.871   4.542   1.547
 4291SOL    HW213410   2.769   4.646   1.507
 4292SOL     OW13411   2.854   4.137   1.239
 4292SOL    HW113412   2.769   4.158   1.276
 4292SOL    HW213413   2.835   4.090   1.157
 4293SOL     OW13414   2.914   4.422   0.427
 4293SOL    HW113415   2.930   4.416   0.522
 4293SOL    HW213416   2.832   4.377   0.413
 4294SOL     OW13417   1.951   4.545   0.776
 4294SOL    HW113418   2.031   4.538   0.827
 4294SOL    HW213419   1.906   4.622   0.811
 4295SOL     OW13420   2.747   4.081   0.201
 4295SOL    HW113421   2.792   4.131   0.133
 4295SOL    HW213422   2.747   3.991   0.170
 4296SOL     OW13423   3.570   4.298   1.828
 4296SOL    HW113424   3.533   4.372   1.780
 4296SOL    HW213425   3.598   4.237   1.760
 4297SOL     OW13426   3.238   4.863   0.540
 4297SOL    HW113427   3.319   4.850   0.489
 4297SOL    HW213428   3.187   4.926   0.488
 4298SOL     OW13429   2.412   3.906   0.893
 4298SOL    HW113430   2.414   3.935   0.984
 4298SOL    HW213431   2.414   3.987   0.842
 4299SOL     OW13432   2.879   5.165   0.469
 4299SOL    HW113433   2.804   5.224   0.467
 4299SOL    HW213434   2.900   5.156   0.562
 4300SOL     OW13435   3.662   4.780   0.867
 4300SOL    HW113436   3.604   4.763   0.792
 4300SOL    HW213437   3.603   4.787   0.942
 4301SOL     OW13438   3.112   5.239   1.524
 4301SOL    HW113439   3.076   5.173   1.583
 4301SOL    HW213440   3.041   5.260   1.464
 4302SOL     OW13441   2.189   4.665   0.254
 4302SOL    HW113442   2.258   4.707   0.203
 4302SOL    HW213443   2.189   4.574   0.225
 4303SOL     OW13444   3.340   4.465   0.727
 4303SOL    HW113445   3.332   4.423   0.812
 4303SOL    HW213446   3.417   4.522   0.735
 4304SOL     OW13447   2.326   4.988   1.741
 4304SOL    HW113448   2.300   4.990   1.649
 4304SOL    HW213449   2.244   4.986   1.789
 4305SOL     OW13450   3.020   0.158   0.237
 4305SOL    HW113451   2.936   0.177   0.280
 4305SOL    HW213452   2.997   0.139   0.146
 4306SOL     OW13453   2.063   4.005   1.501
 4306SOL    HW113454   1.981   4.055   1.497
 4306SOL    HW213455   2.045   3.935   1.564
 4307SOL     OW13456   3.492   5.094   0.077
 4307SOL    HW113457   3.453   5.180   0.093
 4307SOL    HW213458   3.417   5.037   0.062
 4308SOL     OW13459   3.269   3.835   0.444
 4308SOL    HW113460   3.260   3.814   0.351
 4308SOL    HW213461   3.364   3.842   0.458
 4309SOL     OW13462   2.248   4.421   0.477
 4309SOL    HW113463   2.273   4.329   0.488
 4309SOL    HW213464   2.155   4.424   0.499
 4310SOL     OW13465   3.397   3.949   1.725
 4310SOL    HW113466   3.407   3.970   1.818
 4310SOL    HW213467   3.328   3.883   1.722
 4311SOL     OW13468   2.491   3.835   0.136
 4311SOL    HW113469   2.586   3.823   0.143
 4311SOL    HW213470   2.471   3.815   0.045
 4312SOL     OW13471   2.628   4.001   1.754
 4312SOL    HW113472   2.704   3.943   1.755
 4312SOL    HW213473   2.580   3.981   1.834
 4313SOL     OW13474   3.202   4.313   1.432
 4313SOL    HW113475   3.233   4.282   1.517
 4313SOL    HW213476   3.239   4.401   1.424
 4314SOL     OW13477   2.674   5.119   0.936
 4314SOL    HW113478   2.755   5.106   0.886
 4314SOL    HW213479   2.606   5.126   0.869
 4315SOL     OW13480   2.789   4.233   0.903
 4315SOL    HW113481   2.766   4.225   0.810
 4315SOL    HW213482   2.821   4.146   0.927
 4316SOL     OW13483   2.412   3.787   0.505
 4316SOL    HW113484   2.331   3.786   0.557
 4316SOL    HW213485   2.405   3.866   0.451
 4317SOL     OW13486   3.288   4.925   0.035
 4317SOL    HW113487   3.316   4.851   0.089
 4317SOL    HW213488   3.201   4.948   0.070
 4318SOL     OW13489   2.172   3.780   0.169
 4318SOL    HW113490   2.238   3.848   0.185
 4318SOL    HW213491   2.209   3.702   0.212
 4319SOL     OW13492   2.802   3.971   0.459
 4319SOL    HW113493   2.774   4.012   0.377
 4319SOL    HW213494   2.896   3.986   0.463
 4320SOL     OW13495   2.942   4.405   1.460
 4320SOL    HW113496   2.873   4.338   1.464
 4320SOL    HW213497   3.023   4.355   1.453
 4321SOL     OW13498   3.124   5.266   0.781
 4321SOL    HW113499   3.087   0.047   0.748
 4321SOL    HW213500   3.169   5.291   0.861
 4322SOL     OW13501   2.327   4.873   0.731
 4322SOL    HW113502   2.259   4.852   0.795
 4322SOL    HW213503   2.286   4.855   0.646
 4323SOL     OW13504   2.893   4.252   0.031
 4323SOL    HW113505   2.851   4.333   0.001
 4323SOL    HW213506   2.956   4.281   0.098
 4324SOL     OW13507   1.941   4.279   1.392
 4324SOL    HW113508   2.033   4.277   1.365
 4324SOL    HW213509   1.936   4.349   1.457
 4325SOL     OW13510   2.421   3.951   1.166
 4325SOL    HW113511   2.463   3.874   1.205
 4325SOL    HW213512   2.330   3.948   1.196
 4326SOL     OW13513   2.728   4.182   0.639
 4326SOL    HW113514   2.687   4.238   0.573
 4326SOL    HW213515   2.751   4.102   0.592
 4327SOL     OW13516   2.878   3.777   0.750
 4327SOL    HW113517   2.819   3.771   0.676
 4327SOL    HW213518   2.855   3.702   0.805
 4328SOL     OW13519   3.300   4.889   0.859
 4328SOL    HW113520   3.232   4.822   0.855
 4328SOL    HW213521   3.324   4.904   0.767
 4329SOL     OW13522   3.328   4.329   0.977
 4329SOL    HW113523   3.277   4.248   0.980
 4329SOL    HW213524   3.388   4.323   1.051
 4330SOL     OW13525   3.710   4.539   0.388
 4330SOL    HW113526   3.763   4.486   0.448
 4330SOL    HW213527   3.679   4.477   0.322
 4331SOL     OW13528   2.328   5.161   0.155
 4331SOL    HW113529   2.281   5.104   0.216
 4331SOL    HW213530   2.367   5.100   0.092
 4332SOL     OW13531   3.532   4.988   0.648
 4332SOL    HW113532   3.626   4.995   0.666
 4332SOL    HW213533   3.497   5.075   0.664
 4333SOL     OW13534   3.261   4.303   0.087
 4333SOL    HW113535   3.198   4.284   0.157
 4333SOL    HW213536   3.316   4.225   0.082
 4334SOL     OW13537   2.379   3.987   0.324
 4334SOL    HW113538   2.429   3.935   0.261
 4334SOL    HW213539   2.367   4.072   0.280
 4335SOL     OW13540   3.613   4.960   1.576
 4335SOL    HW113541   3.699   4.918   1.575
 4335SOL    HW213542   3.632   5.053   1.588
 4336SOL     OW13543   2.926   5.074   1.331
 4336SOL    HW113544   2.848   5.048   1.379
 4336SOL    HW213545   2.999   5.035   1.379
 4337SOL     OW13546   2.988   4.925   1.107
 4337SOL    HW113547   2.938   4.967   1.177
 4337SOL    HW213548   2.944   4.952   1.027
 4338SOL     OW13549   3.491   4.822   1.077
 4338SOL    HW113550   3.486   4.884   1.150
 4338SOL    HW213551   3.413   4.841   1.024
 4339SOL     OW13552   2.780   3.821   1.396
 4339SOL    HW113553   2.803   3.802   1.305
 4339SOL    HW213554   2.859   3.860   1.433
 4340SOL     OW13555   2.846   4.839   1.725
 4340SOL    HW113556   2.754   4.855   1.744
 4340SOL    HW213557   2.846   4.762   1.668
 4341SOL     OW13558   2.572   4.783   0.381
 4341SOL    HW113559   2.556   4.766   0.474
 4341SOL    HW213560   2.651   4.734   0.361
 4342SOL     OW13561   2.281   4.539   1.251
 4342SOL    HW113562   2.349   4.548   1.318
 4342SOL    HW213563   2.245   4.451   1.266
 4343SOL     OW13564   3.127   4.101   1.275
 4343SOL    HW113565   3.160   4.178   1.321
 4343SOL    HW213566   3.037   4.123   1.252
 4344SOL     OW13567   2.205   4.832   0.490
 4344SOL    HW113568   2.208   4.904   0.428
 4344SOL    HW213569   2.215   4.753   0.437
 4345SOL     OW13570   2.414   4.260   0.860
 4345SOL    HW113571   2.430   4.319   0.785
 4345SOL    HW213572   2.479   4.287   0.925
 4346SOL     OW13573   3.119   5.072   0.386
 4346SOL    HW113574   3.173   5.147   0.411
 4346SOL    HW213575   3.030   5.097   0.413
 4347SOL     OW13576   3.131   5.182   1.142
 4347SOL    HW113577   3.191   5.196   1.216
 4347SOL    HW213578   3.087   5.099   1.162
 4348SOL     OW13579   3.444   4.347   0.482
 4348SOL    HW113580   3.395   4.398   0.546
 4348SOL    HW213581   3.480   4.413   0.422
 4349SOL     OW13582   2.210   5.236   1.314
 4349SOL    HW113583   2.199   5.201   1.226
 4349SOL    HW213584   2.304   5.256   1.320
 4350SOL     OW13585   2.276   4.469   1.602
 4350SOL    HW113586   2.338   4.513   1.544
 4350SOL    HW213587   2.316   4.383   1.618
 4351SOL     OW13588   3.463   4.503   1.682
 4351SOL    HW113589   3.377   4.544   1.675
 4351SOL    HW213590   3.516   4.544   1.614
 4352SOL     OW13591   2.858   3.847   1.755
 4352SOL    HW113592   2.914   3.920   1.727
 4352SOL    HW213593   2.906   3.769   1.730
 4353SOL     OW13594   2.360   3.764   1.748
 4353SOL    HW113595   2.316   3.710   1.682
 4353SOL    HW213596   2.301   3.839   1.760
 4354SOL     OW13597   2.445   4.596   1.031
 4354SOL    HW113598   2.476   4.687   1.030
 4354SOL    HW213599   2.389   4.591   1.108
 4355SOL     OW13600   3.219   4.582   1.029
 4355SOL    HW113601   3.136   4.572   0.982
 4355SOL    HW213602   3.260   4.495   1.023
 4356SOL     OW13603   3.066   4.252   0.271
 4356SOL    HW113604   3.073   4.173   0.325
 4356SOL    HW213605   3.023   4.316   0.328
 4357SOL     OW13606   2.161   3.922   1.247
 4357SOL    HW113607   2.124   3.955   1.329
 4357SOL    HW213608   2.142   3.828   1.247
 4358SOL     OW13609   1.915   5.046   1.284
 4358SOL    HW113610   1.939   4.982   1.351
 4358SOL    HW213611   1.950   5.129   1.318
 4359SOL     OW13612   2.586   4.355   1.057
 4359SOL    HW113613   2.661   4.339   1.000
 4359SOL    HW213614   2.558   4.444   1.036
 4360SOL     OW13615   3.597   4.684   1.852
 4360SOL    HW113616   3.551   4.622   1.795
 4360SOL    HW213617   3.537   4.697   1.926
 4361SOL     OW13618   2.164   3.788   0.623
 4361SOL    HW113619   2.146   3.879   0.647
 4361SOL    HW213620   2.172   3.743   0.707
 4362SOL     OW13621   3.483   4.099   0.369
 4362SOL    HW113622   3.507   4.034   0.436
 4362SOL    HW213623   3.457   4.176   0.420
 4363SOL     OW13624   2.890   4.483   0.961
 4363SOL    HW113625   2.886   4.500   1.055
 4363SOL    HW213626   2.863   4.391   0.952
 4364SOL     OW13627   3.716   5.214   1.585
 4364SOL    HW113628   3.711   5.289   1.526
 4364SOL    HW213629   3.785   5.236   1.647
 4365SOL     OW13630   2.215   4.640   1.808
 4365SOL    HW113631   2.297   4.659   1.854
 4365SOL    HW213632   2.240   4.578   1.740
 4366SOL     OW13633   3.380   4.025   0.126
 4366SOL    HW113634   3.331   3.944   0.143
 4366SOL    HW213635   3.420   4.046   0.211
 4367SOL     OW13636   3.157   4.548   0.020
 4367SOL    HW113637   3.195   4.462   0.038
 4367SOL    HW213638   3.217   4.587   8.036
 4368SOL     OW13639   2.920   5.079   0.827
 4368SOL    HW113640   2.925   4.994   0.783
 4368SOL    HW213641   3.006   5.119   0.814
 4369SOL     OW13642   2.171   4.533   0.947
 4369SOL    HW113643   2.264   4.554   0.941
 4369SOL    HW213644   2.169   4.443   0.980
 4370SOL     OW13645   2.193   4.250   1.012
 4370SOL    HW113646   2.158   4.162   0.997
 4370SOL    HW213647   2.270   4.256   0.955
 4371SOL     OW13648   2.996   4.100   1.682
 4371SOL    HW113649   2.948   4.155   1.744
 4371SOL    HW213650   3.084   4.138   1.678
 4372SOL     OW13651   3.023   3.927   1.470
 4372SOL    HW113652   3.012   3.989   1.542
 4372SOL    HW213653   3.062   3.977   1.399
 4373SOL     OW13654   1.873   5.044   0.178
 4373SOL    HW113655   1.785   5.057   0.144
 4373SOL    HW213656   1.871   4.958   0.219
 4374SOL     OW13657   2.844   4.516   1.227
 4374SOL    HW113658   2.901   4.493   1.301
 4374SOL    HW213659   2.759   4.478   1.250
 4375SOL     OW13660   1.898   4.269   1.116
 4375SOL    HW113661   1.979   4.255   1.067
 4375SOL    HW213662   1.926   4.272   1.208
 4376SOL     OW13663   2.053   4.243   1.727
 4376SOL    HW113664   2.110   4.205   1.661
 4376SOL    HW213665   2.011   4.317   1.683
 4377SOL     OW13666   3.239   4.663   1.658
 4377SOL    HW113667   3.259   4.756   1.656
 4377SOL    HW213668   3.236   4.636   1.566
 4378SOL     OW13669   2.681   4.293   0.368
 4378SOL    HW113670   2.690   4.222   0.304
 4378SOL    HW213671   2.605   4.343   0.337
 4379SOL     OW13672   3.504   4.325   1.186
 4379SOL    HW113673   3.494   4.266   1.261
 4379SOL    HW213674   3.591   4.305   1.151
 4380SOL     OW13675   2.068   5.277   1.745
 4380SOL    HW113676   2.053   0.029   1.824
 4380SOL    HW213677   2.080   5.187   1.777
 4381SOL     OW13678   2.563   4.174   1.259
 4381SOL    HW113679   2.510   4.101   1.229
 4381SOL    HW213680   2.559   4.237   1.187
 4382SOL     OW13681   2.330   4.215   0.179
 4382SOL    HW113682   2.397   4.281   0.198
 4382SOL    HW213683   2.247   4.261   0.190
 4383SOL     OW13684   2.007   4.863   1.471
 4383SOL    HW113685   2.009   4.812   1.552
 4383SOL    HW213686   2.025   4.799   1.402
 4384SOL     OW13687   3.189   4.769   1.222
 4384SOL    HW113688   3.212   4.707   1.153
 4384SOL    HW213689   3.118   4.821   1.185
 4385SOL     OW13690   3.169   4.573   0.307
 4385SOL    HW113691   3.092   4.545   0.357
 4385SOL    HW213692   3.144   4.562   0.216
 4386SOL     OW13693   1.955   4.987   1.021
 4386SOL    HW113694   1.934   5.004   1.113
 4386SOL    HW213695   1.875   4.948   0.985
 4387SOL     OW13696   2.614   0.038   1.709
 4387SOL    HW113697   2.522   0.060   1.720
 4387SOL    HW213698   2.634   0.062   1.618
 4388SOL     OW13699   2.767   3.815   0.133
 4388SOL    HW113700   2.783   3.798   0.041
 4388SOL    HW213701   2.832   3.762   0.180
 4389SOL     OW13702   3.581   3.869   0.510
 4389SOL    HW113703   3.653   3.853   0.449
 4389SOL    HW213704   3.566   3.784   0.551
 4390SOL     OW13705   3.139   4.649   0.672
 4390SOL    HW113706   3.213   4.588   0.678
 4390SOL    HW213707   3.173   4.721   0.619
 4391SOL     OW13708   2.681   4.993   1.421
 4391SOL    HW113709   2.651   5.029   1.505
 4391SOL    HW213710   2.606   5.004   1.362
 4392SOL     OW13711   3.703   3.897   0.967
 4392SOL    HW113712   3.731   3.810   0.940
 4392SOL    HW213713   3.616   3.907   0.927
 4393SOL     OW13714   2.124   4.040   0.717
 4393SOL    HW113715   2.038   4.075   0.694
 4393SOL    HW213716   2.121   4.032   0.813
 4394SOL     OW13717   3.003   0.019   0.003
 4394SOL    HW113718   3.017   5.229   0.033
 4394SOL    HW213719   3.006   0.014   7.988
 4395SOL     OW13720   2.687   4.728   1.370
 4395SOL    HW113721   2.733   4.721   1.287
 4395SOL    HW213722   2.690   4.821   1.393
 4396SOL     OW13723   2.781   4.639   0.299
 4396SOL    HW113724   2.836   4.665   0.225
 4396SOL    HW213725   2.829   4.566   0.339
 4397SOL     OW13726   2.227   5.026   1.496
 4397SOL    HW113727   2.216   5.100   1.437
 4397SOL    HW213728   2.152   4.970   1.479
 4398SOL     OW13729   3.474   5.004   1.282
 4398SOL    HW113730   3.531   4.998   1.359
 4398SOL    HW213731   3.412   5.073   1.304
 4399SOL     OW13732   2.916   4.833   0.713
 4399SOL    HW113733   2.844   4.782   0.748
 4399SOL    HW213734   2.977   4.769   0.677
 4400SOL     OW13735   2.883   3.964   0.966
 4400SOL    HW113736   2.879   3.916   0.883
 4400SOL    HW213737   2.878   3.896   1.033
 4401SOL     OW13738   3.584   4.116   1.380
 4401SOL    HW113739   3.656   4.179   1.379
 4401SOL    HW213740   3.614   4.045   1.324
 4402SOL     OW13741   2.126   5.027   0.289
 4402SOL    HW113742   2.045   5.044   0.241
 4402SOL    HW213743   2.117   5.078   0.369
 4403SOL     OW13744   1.974   4.746   1.719
 4403SOL    HW113745   1.898   4.722   1.772
 4403SOL    HW213746   2.049   4.708   1.765
 4404SOL     OW13747   2.536   3.920   1.499
 4404SOL    HW113748   2.620   3.900   1.458
 4404SOL    HW213749   2.559   3.952   1.587
 4405SOL     OW13750   1.919   4.087   0.039
 4405SOL    HW113751   1.844   4.032   0.015
 4405SOL    HW213752   1.968   4.098   8.037
 4406SOL     OW13753   3.292   4.582   1.400
 4406SOL    HW113754   3.243   4.643   1.344
 4406SOL    HW213755   3.381   4.584   1.366
 4407SOL     OW13756   1.933   3.878   0.305
 4407SOL    HW113757   1.918   3.963   0.263
 4407SOL    HW213758   2.017   3.849   0.270
 4408SOL     OW13759   3.044   5.063   0.112
 4408SOL    HW113760   2.950   5.049   0.109
 4408SOL    HW213761   3.067   5.059   0.205
 4409SOL     OW13762   2.481   4.555   1.433
 4409SOL    HW113763   2.538   4.630   1.418
 4409SOL    HW213764   2.542   4.481   1.442
 4410SOL     OW13765   2.580   4.288   1.704
 4410SOL    HW113766   2.620   4.351   1.764
 4410SOL    HW213767   2.607   4.202   1.737
 4411SOL     OW13768   3.336   4.923   1.631
 4411SOL    HW113769   3.322   4.935   1.725
 4411SOL    HW213770   3.429   4.937   1.618
 4412SOL     OW13771   3.532   4.605   1.255
 4412SOL    HW113772   3.525   4.520   1.212
 4412SOL    HW213773   3.521   4.669   1.184
 4413SOL     OW13774   3.079   4.041   0.460
 4413SOL    HW113775   3.144   3.972   0.453
 4413SOL    HW213776   3.107   4.092   0.536
 4414SOL     OW13777   2.450   4.461   0.670
 4414SOL    HW113778   2.490   4.547   0.656
 4414SOL    HW213779   2.382   4.456   0.603
 4415SOL     OW13780   3.624   4.085   1.650
 4415SOL    HW113781   3.607   4.101   1.557
 4415SOL    HW213782   3.553   4.029   1.679
 4416SOL     OW13783   3.607   4.657   1.512
 4416SOL    HW113784   3.603   4.752   1.525
 4416SOL    HW213785   3.591   4.645   1.418
 4417SOL     OW13786   2.771   5.096   0.037
 4417SOL    HW113787   2.711   5.078   0.109
 4417SOL    HW213788   2.725   5.160   8.062
 4418SOL     OW13789   2.729   4.691   0.856
 4418SOL    HW113790   2.780   4.620   0.896
 4418SOL    HW213791   2.695   4.741   0.930
 4419SOL     OW13792   2.942   4.702   0.088
 4419SOL    HW113793   2.921   4.757   0.012
 4419SOL    HW213794   3.018   4.651   0.061
 4420SOL     OW13795   2.085   5.024   1.852
 4420SOL    HW113796   2.017   4.961   1.827
 4420SOL    HW213797   2.074   5.035   1.947
 4421SOL     OW13798   1.949   4.954   0.670
 4421SOL    HW113799   1.946   4.902   0.750
 4421SOL    HW213800   2.017   4.913   0.617
 4422SOL     OW13801   2.532   5.107   1.608
 4422SOL    HW113802   2.457   5.073   1.656
 4422SOL    HW213803   2.564   5.180   1.662
 4423SOL     OW13804   3.674   3.908   1.238
 4423SOL    HW113805   3.685   3.814   1.252
 4423SOL    HW213806   3.684   3.919   1.143
 4424SOL     OW13807   2.287   4.160   0.523
 4424SOL    HW113808   2.320   4.089   0.469
 4424SOL    HW213809   2.242   4.116   0.596
 4425SOL     OW13810   3.569   5.224   1.119
 4425SOL    HW113811   3.495   5.207   1.060
 4425SOL    HW213812   3.575   5.144   1.172
 4426SOL     OW13813   2.192   4.279   1.292
 4426SOL    HW113814   2.247   4.224   1.347
 4426SOL    HW213815   2.211   4.251   1.202
 4427SOL     OW13816   3.294   3.949   1.118
 4427SOL    HW113817   3.319   3.870   1.165
 4427SOL    HW213818   3.242   3.999   1.181
 4428SOL     OW13819   2.871   3.743   1.142
 4428SOL    HW113820   2.816   3.675   1.103
 4428SOL    HW213821   2.959   3.705   1.144
 4429SOL     OW13822   2.656   5.039   0.282
 4429SOL    HW113823   2.603   4.964   0.308
 4429SOL    HW213824   2.715   5.053   0.356
 4430SOL     OW13825   2.484   5.299   1.291
 4430SOL    HW113826   2.491   0.054   1.369
 4430SOL    HW213827   2.574   5.279   1.267
 4431SOL     OW13828   3.218   3.778   0.185
 4431SOL    HW113829   3.239   3.731   0.104
 4431SOL    HW213830   3.132   3.745   0.210
 4432SOL     OW13831   3.158   4.185   0.681
 4432SOL    HW113832   3.106   4.265   0.688
 4432SOL    HW213833   3.154   4.146   0.768
 4433SOL     OW13834   3.448   3.926   0.878
 4433SOL    HW113835   3.388   3.946   0.949
 4433SOL    HW213836   3.448   4.004   0.823
 4434SOL     OW13837   1.903   4.791   0.304
 4434SOL    HW113838   1.999   4.794   0.308
 4434SOL    HW213839   1.880   4.707   0.343
 4435SOL     OW13840   2.091   4.347   1.985
 4435SOL    HW113841   2.002   4.346   2.020
 4435SOL    HW213842   2.082   4.322   1.893
 4436SOL     OW13843   2.087   4.005   2.853
 4436SOL    HW113844   2.115   3.973   2.939
 4436SOL    HW213845   1.997   3.973   2.844
 4437SOL     OW13846   1.866   4.107   2.500
 4437SOL    HW113847   1.783   4.132   2.541
 4437SOL    HW213848   1.845   4.027   2.451
 4438SOL     OW13849   2.428   5.006   3.041
 4438SOL    HW113850   2.343   5.003   2.998
 4438SOL    HW213851   2.439   5.097   3.067
 4439SOL     OW13852   3.417   5.232   2.551
 4439SOL    HW113853   3.397   5.229   2.644
 4439SOL    HW213854   3.338   5.268   2.511
 4440SOL     OW13855   2.992   4.422   2.563
 4440SOL    HW113856   3.041   4.503   2.549
 4440SOL    HW213857   2.945   4.436   2.645
 4441SOL     OW13858   3.629   4.329   2.091
 4441SOL    HW113859   3.608   4.322   1.997
 4441SOL    HW213860   3.593   4.250   2.130
 4442SOL     OW13861   2.618   4.868   2.901
 4442SOL    HW113862   2.551   4.900   2.961
 4442SOL    HW213863   2.648   4.947   2.855
 4443SOL     OW13864   2.729   4.498   3.684
 4443SOL    HW113865   2.715   4.570   3.746
 4443SOL    HW213866   2.752   4.542   3.602
 4444SOL     OW13867   2.548   4.727   2.510
 4444SOL    HW113868   2.613   4.715   2.579
 4444SOL    HW213869   2.479   4.779   2.549
 4445SOL     OW13870   2.571   4.872   3.673
 4445SOL    HW113871   2.618   4.952   3.698
 4445SOL    HW213872   2.487   4.904   3.639
 4446SOL     OW13873   2.199   5.151   2.922
 4446SOL    HW113874   2.122   5.106   2.887
 4446SOL    HW213875   2.238   5.194   2.846
 4447SOL     OW13876   3.317   5.221   3.209
 4447SOL    HW113877   3.371   5.293   3.241
 4447SOL    HW213878   3.250   5.210   3.277
 4448SOL     OW13879   2.311   4.122   3.349
 4448SOL    HW113880   2.386   4.062   3.354
 4448SOL    HW213881   2.234   4.067   3.363
 4449SOL     OW13882   3.474   4.172   2.602
 4449SOL    HW113883   3.399   4.195   2.547
 4449SOL    HW213884   3.489   4.250   2.656
 4450SOL     OW13885   2.995   5.072   3.563
 4450SOL    HW113886   3.026   5.073   3.654
 4450SOL    HW213887   2.942   4.993   3.556
 4451SOL     OW13888   2.072   5.156   2.382
 4451SOL    HW113889   2.098   5.238   2.424
 4451SOL    HW213890   2.020   5.110   2.449
 4452SOL     OW13891   2.120   4.811   2.754
 4452SOL    HW113892   2.118   4.724   2.793
 4452SOL    HW213893   2.063   4.864   2.809
 4453SOL     OW13894   2.447   4.705   1.996
 4453SOL    HW113895   2.494   4.754   1.928
 4453SOL    HW213896   2.486   4.735   2.078
 4454SOL     OW13897   3.456   3.846   3.331
 4454SOL    HW113898   3.467   3.925   3.278
 4454SOL    HW213899   3.444   3.878   3.420
 4455SOL     OW13900   1.977   4.377   2.421
 4455SOL    HW113901   1.948   4.288   2.442
 4455SOL    HW213902   1.969   4.425   2.504
 4456SOL     OW13903   1.848   0.014   1.960
 4456SOL    HW113904   1.864   5.224   1.991
 4456SOL    HW213905   1.870   0.069   2.035
 4457SOL     OW13906   3.550   4.642   2.502
 4457SOL    HW113907   3.634   4.600   2.482
 4457SOL    HW213908   3.529   4.693   2.424
 4458SOL     OW13909   3.508   4.831   2.292
 4458SOL    HW113910   3.593   4.836   2.249
 4458SOL    HW213911   3.514   4.892   2.365
 4459SOL     OW13912   1.985   4.466   3.448
 4459SOL    HW113913   2.077   4.492   3.455
 4459SOL    HW213914   1.937   4.549   3.456
 4460SOL     OW13915   2.484   5.098   2.599
 4460SOL    HW113916   2.430   5.019   2.598
 4460SOL    HW213917   2.465   5.141   2.516
 4461SOL     OW13918   3.151   4.954   3.288
 4461SOL    HW113919   3.185   4.889   3.227
 4461SOL    HW213920   3.211   4.952   3.362
 4462SOL     OW13921   2.676   3.724   2.369
 4462SOL    HW113922   2.717   3.808   2.351
 4462SOL    HW213923   2.583   3.744   2.379
 4463SOL     OW13924   2.052   4.690   3.132
 4463SOL    HW113925   2.137   4.647   3.117
 4463SOL    HW213926   1.989   4.635   3.086
 4464SOL     OW13927   3.393   4.719   2.059
 4464SOL    HW113928   3.323   4.661   2.091
 4464SOL    HW213929   3.434   4.753   2.139
 4465SOL     OW13930   2.194   3.977   3.673
 4465SOL    HW113931   2.238   4.060   3.692
 4465SOL    HW213932   2.105   3.990   3.705
 4466SOL     OW13933   3.338   5.147   2.824
 4466SOL    HW113934   3.266   5.159   2.885
 4466SOL    HW213935   3.326   5.058   2.790
 4467SOL     OW13936   2.458   4.445   2.128
 4467SOL    HW113937   2.464   4.526   2.078
 4467SOL    HW213938   2.393   4.463   2.196
 4468SOL     OW13939   3.141   4.077   2.795
 4468SOL    HW113940   3.051   4.043   2.803
 4468SOL    HW213941   3.192   4.024   2.855
 4469SOL     OW13942   2.654   4.341   3.313
 4469SOL    HW113943   2.628   4.318   3.402
 4469SOL    HW213944   2.614   4.275   3.257
 4470SOL     OW13945   3.255   4.198   3.540
 4470SOL    HW113946   3.257   4.243   3.624
 4470SOL    HW213947   3.318   4.126   3.549
 4471SOL     OW13948   2.817   4.612   3.445
 4471SOL    HW113949   2.871   4.542   3.409
 4471SOL    HW213950   2.769   4.645   3.369
 4472SOL     OW13951   2.855   4.136   3.101
 4472SOL    HW113952   2.769   4.157   3.138
 4472SOL    HW213953   2.835   4.091   3.019
 4473SOL     OW13954   2.913   4.422   2.288
 4473SOL    HW113955   2.929   4.415   2.382
 4473SOL    HW213956   2.830   4.376   2.274
 4474SOL     OW13957   1.950   4.545   2.638
 4474SOL    HW113958   2.031   4.538   2.689
 4474SOL    HW213959   1.907   4.623   2.673
 4475SOL     OW13960   2.755   4.072   2.056
 4475SOL    HW113961   2.795   4.135   1.996
 4475SOL    HW213962   2.772   3.987   2.017
 4476SOL     OW13963   3.570   4.298   3.690
 4476SOL    HW113964   3.533   4.372   3.642
 4476SOL    HW213965   3.599   4.238   3.622
 4477SOL     OW13966   3.239   4.864   2.401
 4477SOL    HW113967   3.320   4.850   2.353
 4477SOL    HW213968   3.189   4.925   2.347
 4478SOL     OW13969   2.412   3.907   2.755
 4478SOL    HW113970   2.414   3.935   2.846
 4478SOL    HW213971   2.413   3.988   2.705
 4479SOL     OW13972   2.884   5.170   2.332
 4479SOL    HW113973   2.806   5.225   2.327
 4479SOL    HW213974   2.899   5.159   2.426
 4480SOL     OW13975   3.662   4.781   2.729
 4480SOL    HW113976   3.605   4.764   2.653
 4480SOL    HW213977   3.602   4.788   2.803
 4481SOL     OW13978   3.112   5.239   3.386
 4481SOL    HW113979   3.076   5.173   3.445
 4481SOL    HW213980   3.041   5.260   3.326
 4482SOL     OW13981   2.182   4.680   2.112
 4482SOL    HW113982   2.264   4.700   2.067
 4482SOL    HW213983   2.152   4.599   2.073
 4483SOL     OW13984   3.340   4.466   2.589
 4483SOL    HW113985   3.332   4.423   2.674
 4483SOL    HW213986   3.418   4.522   2.597
 4484SOL     OW13987   2.327   4.988   3.602
 4484SOL    HW113988   2.300   4.990   3.511
 4484SOL    HW213989   2.244   4.986   3.651
 4485SOL     OW13990   2.933   0.180   2.068
 4485SOL    HW113991   2.939   0.105   2.126
 4485SOL    HW213992   2.963   0.148   1.983
 4486SOL     OW13993   2.063   4.006   3.365
 4486SOL    HW113994   1.979   4.053   3.360
 4486SOL    HW213995   2.045   3.932   3.424
 4487SOL     OW13996   3.484   5.100   1.970
 4487SOL    HW113997   3.482   5.177   1.912
 4487SOL    HW213998   3.416   5.043   1.936
 4488SOL     OW13999   3.263   3.831   2.295
 4488SOL    HW114000   3.253   3.807   2.203
 4488SOL    HW214001   3.358   3.838   2.308
 4489SOL     OW14002   2.255   4.419   2.338
 4489SOL    HW114003   2.275   4.327   2.350
 4489SOL    HW214004   2.161   4.425   2.356
 4490SOL     OW14005   3.398   3.950   3.588
 4490SOL    HW114006   3.408   3.971   3.680
 4490SOL    HW214007   3.328   3.885   3.585
 4491SOL     OW14008   2.496   3.846   1.968
 4491SOL    HW114009   2.567   3.782   1.979
 4491SOL    HW214010   2.448   3.815   1.892
 4492SOL     OW14011   2.628   4.001   3.617
 4492SOL    HW114012   2.704   3.943   3.618
 4492SOL    HW214013   2.577   3.975   3.694
 4493SOL     OW14014   3.202   4.312   3.294
 4493SOL    HW114015   3.233   4.282   3.379
 4493SOL    HW214016   3.238   4.401   3.286
 4494SOL     OW14017   2.675   5.120   2.797
 4494SOL    HW114018   2.755   5.106   2.747
 4494SOL    HW214019   2.606   5.126   2.731
 4495SOL     OW14020   2.790   4.233   2.765
 4495SOL    HW114021   2.766   4.225   2.673
 4495SOL    HW214022   2.821   4.146   2.790
 4496SOL     OW14023   2.411   3.787   2.364
 4496SOL    HW114024   2.330   3.788   2.416
 4496SOL    HW214025   2.405   3.866   2.309
 4497SOL     OW14026   3.290   4.924   1.900
 4497SOL    HW114027   3.320   4.848   1.951
 4497SOL    HW214028   3.202   4.941   1.934
 4498SOL     OW14029   2.154   3.771   2.047
 4498SOL    HW114030   2.213   3.836   2.007
 4498SOL    HW214031   2.212   3.708   2.088
 4499SOL     OW14032   2.800   3.970   2.322
 4499SOL    HW114033   2.774   4.012   2.240
 4499SOL    HW214034   2.895   3.984   2.327
 4500SOL     OW14035   2.942   4.405   3.322
 4500SOL    HW114036   2.873   4.339   3.326
 4500SOL    HW214037   3.023   4.355   3.315
 4501SOL     OW14038   3.126   5.267   2.641
 4501SOL    HW114039   3.084   0.049   2.613
 4501SOL    HW214040   3.170   5.289   2.722
 4502SOL     OW14041   2.328   4.872   2.593
 4502SOL    HW114042   2.259   4.852   2.656
 4502SOL    HW214043   2.287   4.854   2.508
 4503SOL     OW14044   2.885   4.266   1.885
 4503SOL    HW114045   2.843   4.349   1.865
 4503SOL    HW214046   2.951   4.288   1.951
 4504SOL     OW14047   1.941   4.279   3.254
 4504SOL    HW114048   2.033   4.277   3.227
 4504SOL    HW214049   1.936   4.349   3.319
 4505SOL     OW14050   2.422   3.951   3.028
 4505SOL    HW114051   2.462   3.874   3.066
 4505SOL    HW214052   2.331   3.950   3.058
 4506SOL     OW14053   2.729   4.183   2.502
 4506SOL    HW114054   2.684   4.238   2.437
 4506SOL    HW214055   2.751   4.103   2.454
 4507SOL     OW14056   2.879   3.779   2.612
 4507SOL    HW114057   2.820   3.772   2.537
 4507SOL    HW214058   2.857   3.704   2.667
 4508SOL     OW14059   3.299   4.890   2.721
 4508SOL    HW114060   3.233   4.821   2.717
 4508SOL    HW214061   3.325   4.903   2.630
 4509SOL     OW14062   3.328   4.329   2.839
 4509SOL    HW114063   3.278   4.248   2.842
 4509SOL    HW214064   3.388   4.323   2.913
 4510SOL     OW14065   3.707   4.540   2.245
 4510SOL    HW114066   3.764   4.489   2.303
 4510SOL    HW214067   3.679   4.477   2.178
 4511SOL     OW14068   2.342   5.147   2.015
 4511SOL    HW114069   2.281   5.096   2.067
 4511SOL    HW214070   2.345   5.103   1.930
 4512SOL     OW14071   3.531   4.987   2.509
 4512SOL    HW114072   3.625   4.993   2.526
 4512SOL    HW214073   3.498   5.075   2.525
 4513SOL     OW14074   3.256   4.296   1.933
 4513SOL    HW114075   3.195   4.276   2.005
 4513SOL    HW214076   3.341   4.264   1.964
 4514SOL     OW14077   2.387   3.987   2.180
 4514SOL    HW114078   2.432   3.939   2.110
 4514SOL    HW214079   2.365   4.071   2.141
 4515SOL     OW14080   3.613   4.960   3.438
 4515SOL    HW114081   3.699   4.918   3.437
 4515SOL    HW214082   3.632   5.053   3.450
 4516SOL     OW14083   2.926   5.074   3.193
 4516SOL    HW114084   2.848   5.049   3.241
 4516SOL    HW214085   2.999   5.035   3.241
 4517SOL     OW14086   2.988   4.925   2.969
 4517SOL    HW114087   2.938   4.967   3.040
 4517SOL    HW214088   2.943   4.951   2.889
 4518SOL     OW14089   3.491   4.822   2.939
 4518SOL    HW114090   3.486   4.884   3.012
 4518SOL    HW214091   3.412   4.841   2.887
 4519SOL     OW14092   2.779   3.845   3.250
 4519SOL    HW114093   2.803   3.817   3.162
 4519SOL    HW214094   2.861   3.879   3.286
 4520SOL     OW14095   2.846   4.839   3.587
 4520SOL    HW114096   2.754   4.855   3.606
 4520SOL    HW214097   2.846   4.762   3.530
 4521SOL     OW14098   2.567   4.783   2.234
 4521SOL    HW114099   2.555   4.767   2.327
 4521SOL    HW214100   2.644   4.732   2.211
 4522SOL     OW14101   2.281   4.539   3.113
 4522SOL    HW114102   2.349   4.548   3.180
 4522SOL    HW214103   2.246   4.451   3.127
 4523SOL     OW14104   3.127   4.099   3.139
 4523SOL    HW114105   3.160   4.177   3.184
 4523SOL    HW214106   3.037   4.122   3.115
 4524SOL     OW14107   2.209   4.832   2.351
 4524SOL    HW114108   2.212   4.905   2.289
 4524SOL    HW214109   2.208   4.754   2.296
 4525SOL     OW14110   2.414   4.260   2.722
 4525SOL    HW114111   2.430   4.319   2.647
 4525SOL    HW214112   2.480   4.287   2.787
 4526SOL     OW14113   3.121   5.077   2.248
 4526SOL    HW114114   3.178   5.144   2.286
 4526SOL    HW214115   3.033   5.100   2.277
 4527SOL     OW14116   3.132   5.182   3.004
 4527SOL    HW114117   3.191   5.196   3.077
 4527SOL    HW214118   3.087   5.099   3.023
 4528SOL     OW14119   3.444   4.346   2.341
 4528SOL    HW114120   3.397   4.400   2.405
 4528SOL    HW214121   3.489   4.409   2.285
 4529SOL     OW14122   2.210   5.236   3.176
 4529SOL    HW114123   2.199   5.201   3.088
 4529SOL    HW214124   2.303   5.257   3.182
 4530SOL     OW14125   2.276   4.469   3.464
 4530SOL    HW114126   2.338   4.513   3.406
 4530SOL    HW214127   2.315   4.383   3.480
 4531SOL     OW14128   3.463   4.503   3.544
 4531SOL    HW114129   3.377   4.544   3.537
 4531SOL    HW214130   3.516   4.544   3.476
 4532SOL     OW14131   2.858   3.850   3.616
 4532SOL    HW114132   2.915   3.923   3.591
 4532SOL    HW214133   2.907   3.772   3.590
 4533SOL     OW14134   2.358   3.770   3.607
 4533SOL    HW114135   2.313   3.715   3.543
 4533SOL    HW214136   2.298   3.843   3.621
 4534SOL     OW14137   2.445   4.596   2.893
 4534SOL    HW114138   2.475   4.687   2.892
 4534SOL    HW214139   2.389   4.591   2.970
 4535SOL     OW14140   3.219   4.582   2.890
 4535SOL    HW114141   3.136   4.572   2.844
 4535SOL    HW214142   3.260   4.496   2.885
 4536SOL     OW14143   3.067   4.252   2.129
 4536SOL    HW114144   3.075   4.174   2.183
 4536SOL    HW214145   3.024   4.317   2.185
 4537SOL     OW14146   2.162   3.930   3.110
 4537SOL    HW114147   2.125   3.960   3.193
 4537SOL    HW214148   2.142   3.837   3.107
 4538SOL     OW14149   1.915   5.046   3.147
 4538SOL    HW114150   1.939   4.982   3.213
 4538SOL    HW214151   1.950   5.129   3.179
 4539SOL     OW14152   2.586   4.355   2.920
 4539SOL    HW114153   2.661   4.339   2.862
 4539SOL    HW214154   2.558   4.444   2.898
 4540SOL     OW14155   3.597   4.684   3.714
 4540SOL    HW114156   3.551   4.622   3.657
 4540SOL    HW214157   3.537   4.697   3.788
 4541SOL     OW14158   2.165   3.788   2.485
 4541SOL    HW114159   2.145   3.879   2.508
 4541SOL    HW214160   2.173   3.743   2.569
 4542SOL     OW14161   3.478   4.098   2.229
 4542SOL    HW114162   3.506   4.034   2.295
 4542SOL    HW214163   3.456   4.176   2.279
 4543SOL     OW14164   2.890   4.483   2.823
 4543SOL    HW114165   2.886   4.501   2.917
 4543SOL    HW214166   2.863   4.391   2.814
 4544SOL     OW14167   3.716   5.214   3.447
 4544SOL    HW114168   3.711   5.289   3.388
 4544SOL    HW214169   3.785   5.236   3.509
 4545SOL     OW14170   2.215   4.641   3.670
 4545SOL    HW114171   2.297   4.659   3.716
 4545SOL    HW214172   2.239   4.578   3.602
 4546SOL     OW14173   3.391   3.997   1.989
 4546SOL    HW114174   3.326   3.932   2.016
 4546SOL    HW214175   3.424   4.033   2.072
 4547SOL     OW14176   3.154   4.550   1.893
 4547SOL    HW114177   3.197   4.465   1.896
 4547SOL    HW214178   3.185   4.589   1.811
 4548SOL     OW14179   2.919   5.079   2.687
 4548SOL    HW114180   2.925   4.994   2.644
 4548SOL    HW214181   3.006   5.118   2.675
 4549SOL     OW14182   2.171   4.533   2.809
 4549SOL    HW114183   2.264   4.554   2.803
 4549SOL    HW214184   2.168   4.443   2.842
 4550SOL     OW14185   2.193   4.250   2.874
 4550SOL    HW114186   2.158   4.162   2.859
 4550SOL    HW214187   2.270   4.256   2.817
 4551SOL     OW14188   2.997   4.099   3.545
 4551SOL    HW114189   2.948   4.154   3.606
 4551SOL    HW214190   3.084   4.138   3.541
 4552SOL     OW14191   3.028   3.923   3.337
 4552SOL    HW114192   3.015   3.989   3.406
 4552SOL    HW214193   3.067   3.972   3.265
 4553SOL     OW14194   1.868   5.041   2.052
 4553SOL    HW114195   1.778   5.058   2.026
 4553SOL    HW214196   1.866   4.953   2.090
 4554SOL     OW14197   2.844   4.516   3.089
 4554SOL    HW114198   2.901   4.494   3.163
 4554SOL    HW214199   2.759   4.478   3.111
 4555SOL     OW14200   1.898   4.269   2.978
 4555SOL    HW114201   1.978   4.255   2.929
 4555SOL    HW214202   1.926   4.272   3.070
 4556SOL     OW14203   2.053   4.244   3.590
 4556SOL    HW114204   2.108   4.203   3.523
 4556SOL    HW214205   2.011   4.317   3.545
 4557SOL     OW14206   3.239   4.663   3.520
 4557SOL    HW114207   3.259   4.756   3.518
 4557SOL    HW214208   3.236   4.636   3.428
 4558SOL     OW14209   2.678   4.293   2.222
 4558SOL    HW114210   2.682   4.219   2.162
 4558SOL    HW214211   2.604   4.345   2.191
 4559SOL     OW14212   3.504   4.325   3.048
 4559SOL    HW114213   3.494   4.266   3.123
 4559SOL    HW214214   3.591   4.305   3.013
 4560SOL     OW14215   2.068   5.277   3.607
 4560SOL    HW114216   2.053   0.029   3.686
 4560SOL    HW214217   2.080   5.187   3.639
 4561SOL     OW14218   2.563   4.174   3.122
 4561SOL    HW114219   2.510   4.100   3.092
 4561SOL    HW214220   2.560   4.237   3.050
 4562SOL     OW14221   2.326   4.216   2.049
 4562SOL    HW114222   2.385   4.289   2.071
 4562SOL    HW214223   2.241   4.257   2.036
 4563SOL     OW14224   2.007   4.863   3.333
 4563SOL    HW114225   2.009   4.812   3.414
 4563SOL    HW214226   2.025   4.799   3.263
 4564SOL     OW14227   3.189   4.769   3.084
 4564SOL    HW114228   3.212   4.707   3.016
 4564SOL    HW214229   3.118   4.821   3.047
 4565SOL     OW14230   3.173   4.581   2.168
 4565SOL    HW114231   3.097   4.550   2.218
 4565SOL    HW214232   3.148   4.567   2.077
 4566SOL     OW14233   1.956   4.987   2.883
 4566SOL    HW114234   1.934   5.004   2.975
 4566SOL    HW214235   1.876   4.948   2.847
 4567SOL     OW14236   2.614   0.038   3.571
 4567SOL    HW114237   2.522   0.060   3.582
 4567SOL    HW214238   2.633   0.062   3.480
 4568SOL     OW14239   3.581   3.871   2.371
 4568SOL    HW114240   3.654   3.856   2.311
 4568SOL    HW214241   3.566   3.785   2.412
 4569SOL     OW14242   3.139   4.649   2.533
 4569SOL    HW114243   3.212   4.588   2.541
 4569SOL    HW214244   3.173   4.721   2.480
 4570SOL     OW14245   2.681   4.993   3.283
 4570SOL    HW114246   2.651   5.029   3.366
 4570SOL    HW214247   2.605   5.003   3.224
 4571SOL     OW14248   3.703   3.897   2.829
 4571SOL    HW114249   3.732   3.810   2.802
 4571SOL    HW214250   3.616   3.907   2.789
 4572SOL     OW14251   2.124   4.040   2.579
 4572SOL    HW114252   2.038   4.075   2.555
 4572SOL    HW214253   2.121   4.032   2.674
 4573SOL     OW14254   2.687   4.728   3.233
 4573SOL    HW114255   2.733   4.721   3.149
 4573SOL    HW214256   2.690   4.821   3.255
 4574SOL     OW14257   2.778   4.635   2.153
 4574SOL    HW114258   2.839   4.668   2.086
 4574SOL    HW214259   2.826   4.565   2.197
 4575SOL     OW14260   2.227   5.026   3.358
 4575SOL    HW114261   2.216   5.100   3.299
 4575SOL    HW214262   2.152   4.970   3.341
 4576SOL     OW14263   3.474   5.004   3.144
 4576SOL    HW114264   3.531   4.998   3.221
 4576SOL    HW214265   3.412   5.073   3.167
 4577SOL     OW14266   2.916   4.833   2.573
 4577SOL    HW114267   2.844   4.782   2.610
 4577SOL    HW214268   2.978   4.768   2.541
 4578SOL     OW14269   2.883   3.963   2.828
 4578SOL    HW114270   2.879   3.916   2.745
 4578SOL    HW214271   2.877   3.895   2.895
 4579SOL     OW14272   3.584   4.116   3.243
 4579SOL    HW114273   3.656   4.179   3.241
 4579SOL    HW214274   3.614   4.045   3.186
 4580SOL     OW14275   2.120   5.052   2.144
 4580SOL    HW114276   2.028   5.054   2.118
 4580SOL    HW214277   2.121   5.095   2.230
 4581SOL     OW14278   1.974   4.746   3.581
 4581SOL    HW114279   1.898   4.723   3.634
 4581SOL    HW214280   2.049   4.709   3.627
 4582SOL     OW14281   2.534   3.918   3.361
 4582SOL    HW114282   2.618   3.906   3.317
 4582SOL    HW214283   2.557   3.949   3.448
 4583SOL     OW14284   1.940   4.058   1.897
 4583SOL    HW114285   1.853   4.038   1.863
 4583SOL    HW214286   1.970   4.133   1.845
 4584SOL     OW14287   3.292   4.582   3.262
 4584SOL    HW114288   3.243   4.642   3.206
 4584SOL    HW214289   3.381   4.584   3.228
 4585SOL     OW14290   1.930   3.880   2.172
 4585SOL    HW114291   1.916   3.960   2.121
 4585SOL    HW214292   2.015   3.848   2.142
 4586SOL     OW14293   3.044   5.064   1.982
 4586SOL    HW114294   2.953   5.035   1.983
 4586SOL    HW214295   3.072   5.056   2.074
 4587SOL     OW14296   2.481   4.554   3.295
 4587SOL    HW114297   2.538   4.630   3.280
 4587SOL    HW214298   2.542   4.481   3.304
 4588SOL     OW14299   2.581   4.287   3.566
 4588SOL    HW114300   2.620   4.349   3.627
 4588SOL    HW214301   2.606   4.201   3.599
 4589SOL     OW14302   3.336   4.923   3.493
 4589SOL    HW114303   3.322   4.935   3.587
 4589SOL    HW214304   3.429   4.937   3.480
 4590SOL     OW14305   3.532   4.605   3.117
 4590SOL    HW114306   3.525   4.520   3.074
 4590SOL    HW214307   3.522   4.669   3.046
 4591SOL     OW14308   3.079   4.043   2.320
 4591SOL    HW114309   3.142   3.971   2.311
 4591SOL    HW214310   3.108   4.092   2.397
 4592SOL     OW14311   2.452   4.462   2.532
 4592SOL    HW114312   2.491   4.548   2.517
 4592SOL    HW214313   2.384   4.454   2.465
 4593SOL     OW14314   3.625   4.086   3.513
 4593SOL    HW114315   3.608   4.101   3.420
 4593SOL    HW214316   3.553   4.029   3.541
 4594SOL     OW14317   3.607   4.657   3.374
 4594SOL    HW114318   3.603   4.752   3.387
 4594SOL    HW214319   3.591   4.645   3.280
 4595SOL     OW14320   2.711   5.094   1.882
 4595SOL    HW114321   2.692   5.095   1.975
 4595SOL    HW214322   2.727   5.186   1.860
 4596SOL     OW14323   2.730   4.692   2.717
 4596SOL    HW114324   2.779   4.620   2.757
 4596SOL    HW214325   2.695   4.741   2.792
 4597SOL     OW14326   2.942   4.713   1.952
 4597SOL    HW114327   2.919   4.763   1.873
 4597SOL    HW214328   3.016   4.659   1.925
 4598SOL     OW14329   2.085   5.024   3.714
 4598SOL    HW114330   2.017   4.961   3.689
 4598SOL    HW214331   2.073   5.035   3.809
 4599SOL     OW14332   1.948   4.956   2.532
 4599SOL    HW114333   1.947   4.903   2.612
 4599SOL    HW214334   2.012   4.912   2.475
 4600SOL     OW14335   2.533   5.107   3.470
 4600SOL    HW114336   2.457   5.073   3.518
 4600SOL    HW214337   2.564   5.180   3.524
 4601SOL     OW14338   3.673   3.907   3.100
 4601SOL    HW114339   3.686   3.814   3.114
 4601SOL    HW214340   3.683   3.919   3.005
 4602SOL     OW14341   2.291   4.158   2.388
 4602SOL    HW114342   2.321   4.087   2.331
 4602SOL    HW214343   2.243   4.114   2.458
 4603SOL     OW14344   3.569   5.224   2.981
 4603SOL    HW114345   3.495   5.207   2.922
 4603SOL    HW214346   3.576   5.144   3.034
 4604SOL     OW14347   2.192   4.279   3.154
 4604SOL    HW114348   2.247   4.224   3.209
 4604SOL    HW214349   2.211   4.250   3.064
 4605SOL     OW14350   3.294   3.950   2.980
 4605SOL    HW114351   3.319   3.870   3.026
 4605SOL    HW214352   3.242   3.998   3.044
 4606SOL     OW14353   2.870   3.742   3.006
 4606SOL    HW114354   2.814   3.672   2.975
 4606SOL    HW214355   2.958   3.704   3.006
 4607SOL     OW14356   2.665   5.047   2.146
 4607SOL    HW114357   2.604   4.976   2.165
 4607SOL    HW214358   2.720   5.053   2.224
 4608SOL     OW14359   2.484   5.299   3.153
 4608SOL    HW114360   2.491   0.054   3.231
 4608SOL    HW214361   2.574   5.279   3.129
 4609SOL     OW14362   3.214   3.778   2.027
 4609SOL    HW114363   3.242   3.714   1.962
 4609SOL    HW214364   3.127   3.748   2.054
 4610SOL     OW14365   3.158   4.185   2.543
 4610SOL    HW114366   3.105   4.264   2.550
 4610SOL    HW214367   3.154   4.145   2.630
 4611SOL     OW14368   3.449   3.926   2.740
 4611SOL    HW114369   3.388   3.947   2.811
 4611SOL    HW214370   3.448   4.004   2.684
 4612SOL     OW14371   1.904   4.794   2.169
 4612SOL    HW114372   1.998   4.788   2.152
 4612SOL    HW214373   1.877   4.705   2.191
 4613SOL     OW14374   2.091   4.348   3.847
 4613SOL    HW114375   2.002   4.346   3.881
 4613SOL    HW214376   2.083   4.322   3.755
 4614SOL     OW14377   2.086   4.004   4.716
 4614SOL    HW114378   2.114   3.972   4.802
 4614SOL    HW214379   1.996   3.972   4.706
 4615SOL     OW14380   1.866   4.106   4.363
 4615SOL    HW114381   1.783   4.131   4.403
 4615SOL    HW214382   1.846   4.028   4.312
 4616SOL     OW14383   2.428   5.006   4.903
 4616SOL    HW114384   2.343   5.004   4.859
 4616SOL    HW214385   2.440   5.097   4.929
 4617SOL     OW14386   3.417   5.232   4.413
 4617SOL    HW114387   3.397   5.229   4.506
 4617SOL    HW214388   3.338   5.268   4.373
 4618SOL     OW14389   2.992   4.422   4.425
 4618SOL    HW114390   3.042   4.503   4.411
 4618SOL    HW214391   2.946   4.437   4.507
 4619SOL     OW14392   3.628   4.329   3.953
 4619SOL    HW114393   3.608   4.322   3.860
 4619SOL    HW214394   3.593   4.249   3.992
 4620SOL     OW14395   2.618   4.868   4.763
 4620SOL    HW114396   2.551   4.900   4.823
 4620SOL    HW214397   2.648   4.947   4.717
 4621SOL     OW14398   2.728   4.498   5.546
 4621SOL    HW114399   2.715   4.569   5.608
 4621SOL    HW214400   2.752   4.542   5.464
 4622SOL     OW14401   2.548   4.726   4.372
 4622SOL    HW114402   2.613   4.716   4.441
 4622SOL    HW214403   2.479   4.779   4.411
 4623SOL     OW14404   2.571   4.872   5.535
 4623SOL    HW114405   2.618   4.952   5.560
 4623SOL    HW214406   2.487   4.904   5.501
 4624SOL     OW14407   2.199   5.151   4.784
 4624SOL    HW114408   2.122   5.106   4.749
 4624SOL    HW214409   2.238   5.194   4.708
 4625SOL     OW14410   3.317   5.221   5.071
 4625SOL    HW114411   3.371   5.293   5.103
 4625SOL    HW214412   3.250   5.210   5.139
 4626SOL     OW14413   2.311   4.122   5.210
 4626SOL    HW114414   2.386   4.063   5.217
 4626SOL    HW214415   2.235   4.066   5.224
 4627SOL     OW14416   3.474   4.171   4.465
 4627SOL    HW114417   3.399   4.195   4.409
 4627SOL    HW214418   3.490   4.250   4.517
 4628SOL     OW14419   2.995   5.072   5.425
 4628SOL    HW114420   3.026   5.073   5.515
 4628SOL    HW214421   2.942   4.993   5.418
 4629SOL     OW14422   2.072   5.156   4.244
 4629SOL    HW114423   2.098   5.238   4.286
 4629SOL    HW214424   2.020   5.110   4.311
 4630SOL     OW14425   2.120   4.811   4.616
 4630SOL    HW114426   2.117   4.724   4.655
 4630SOL    HW214427   2.063   4.864   4.671
 4631SOL     OW14428   2.447   4.705   3.858
 4631SOL    HW114429   2.494   4.754   3.790
 4631SOL    HW214430   2.486   4.736   3.940
 4632SOL     OW14431   3.455   3.850   5.192
 4632SOL    HW114432   3.467   3.931   5.141
 4632SOL    HW214433   3.443   3.879   5.282
 4633SOL     OW14434   1.977   4.377   4.283
 4633SOL    HW114435   1.948   4.288   4.304
 4633SOL    HW214436   1.969   4.425   4.366
 4634SOL     OW14437   1.848   0.014   3.822
 4634SOL    HW114438   1.864   5.224   3.853
 4634SOL    HW214439   1.870   0.069   3.897
 4635SOL     OW14440   3.550   4.641   4.364
 4635SOL    HW114441   3.634   4.600   4.344
 4635SOL    HW214442   3.529   4.692   4.286
 4636SOL     OW14443   3.508   4.830   4.154
 4636SOL    HW114444   3.593   4.836   4.111
 4636SOL    HW214445   3.514   4.892   4.227
 4637SOL     OW14446   1.985   4.467   5.310
 4637SOL    HW114447   2.077   4.492   5.318
 4637SOL    HW214448   1.936   4.549   5.318
 4638SOL     OW14449   2.484   5.098   4.461
 4638SOL    HW114450   2.430   5.019   4.459
 4638SOL    HW214451   2.465   5.141   4.378
 4639SOL     OW14452   3.151   4.954   5.150
 4639SOL    HW114453   3.185   4.889   5.089
 4639SOL    HW214454   3.210   4.952   5.224
 4640SOL     OW14455   2.684   3.729   4.253
 4640SOL    HW114456   2.720   3.811   4.219
 4640SOL    HW214457   2.589   3.742   4.251
 4641SOL     OW14458   2.052   4.690   4.994
 4641SOL    HW114459   2.137   4.647   4.980
 4641SOL    HW214460   1.989   4.636   4.947
 4642SOL     OW14461   3.393   4.719   3.921
 4642SOL    HW114462   3.323   4.661   3.953
 4642SOL    HW214463   3.434   4.753   4.001
 4643SOL     OW14464   2.195   3.974   5.534
 4643SOL    HW114465   2.240   4.057   5.553
 4643SOL    HW214466   2.106   3.988   5.566
 4644SOL     OW14467   3.338   5.147   4.686
 4644SOL    HW114468   3.266   5.159   4.747
 4644SOL    HW214469   3.326   5.058   4.652
 4645SOL     OW14470   2.458   4.445   3.990
 4645SOL    HW114471   2.464   4.526   3.940
 4645SOL    HW214472   2.393   4.463   4.058
 4646SOL     OW14473   3.141   4.077   4.656
 4646SOL    HW114474   3.051   4.044   4.665
 4646SOL    HW214475   3.192   4.024   4.718
 4647SOL     OW14476   2.654   4.341   5.175
 4647SOL    HW114477   2.628   4.318   5.264
 4647SOL    HW214478   2.614   4.274   5.120
 4648SOL     OW14479   3.255   4.198   5.402
 4648SOL    HW114480   3.258   4.243   5.486
 4648SOL    HW214481   3.317   4.125   5.411
 4649SOL     OW14482   2.817   4.612   5.307
 4649SOL    HW114483   2.871   4.542   5.271
 4649SOL    HW214484   2.769   4.646   5.231
 4650SOL     OW14485   2.854   4.135   4.963
 4650SOL    HW114486   2.769   4.159   5.000
 4650SOL    HW214487   2.833   4.094   4.879
 4651SOL     OW14488   2.913   4.422   4.150
 4651SOL    HW114489   2.928   4.415   4.244
 4651SOL    HW214490   2.831   4.376   4.135
 4652SOL     OW14491   1.950   4.544   4.501
 4652SOL    HW114492   2.031   4.538   4.551
 4652SOL    HW214493   1.906   4.622   4.535
 4653SOL     OW14494   2.755   4.073   3.921
 4653SOL    HW114495   2.796   4.132   3.858
 4653SOL    HW214496   2.758   3.987   3.879
 4654SOL     OW14497   3.570   4.298   5.552
 4654SOL    HW114498   3.532   4.372   5.504
 4654SOL    HW214499   3.598   4.238   5.484
 4655SOL     OW14500   3.239   4.864   4.263
 4655SOL    HW114501   3.320   4.850   4.215
 4655SOL    HW214502   3.189   4.925   4.210
 4656SOL     OW14503   2.402   3.906   4.618
 4656SOL    HW114504   2.410   3.939   4.708
 4656SOL    HW214505   2.410   3.985   4.564
 4657SOL     OW14506   2.884   5.170   4.194
 4657SOL    HW114507   2.805   5.225   4.189
 4657SOL    HW214508   2.899   5.159   4.288
 4658SOL     OW14509   3.662   4.780   4.591
 4658SOL    HW114510   3.605   4.764   4.515
 4658SOL    HW214511   3.602   4.788   4.665
 4659SOL     OW14512   3.113   5.239   5.248
 4659SOL    HW114513   3.076   5.173   5.306
 4659SOL    HW214514   3.041   5.261   5.189
 4660SOL     OW14515   2.182   4.680   3.974
 4660SOL    HW114516   2.264   4.699   3.929
 4660SOL    HW214517   2.151   4.598   3.934
 4661SOL     OW14518   3.340   4.466   4.451
 4661SOL    HW114519   3.332   4.424   4.537
 4661SOL    HW214520   3.418   4.522   4.459
 4662SOL     OW14521   2.326   4.987   5.464
 4662SOL    HW114522   2.300   4.990   5.373
 4662SOL    HW214523   2.244   4.986   5.513
 4663SOL     OW14524   2.933   0.180   3.930
 4663SOL    HW114525   2.940   0.105   3.989
 4663SOL    HW214526   2.963   0.147   3.845
 4664SOL     OW14527   2.062   4.006   5.225
 4664SOL    HW114528   1.981   4.056   5.220
 4664SOL    HW214529   2.045   3.938   5.290
 4665SOL     OW14530   3.485   5.100   3.832
 4665SOL    HW114531   3.482   5.177   3.774
 4665SOL    HW214532   3.416   5.043   3.798
 4666SOL     OW14533   3.267   3.837   4.153
 4666SOL    HW114534   3.256   3.810   4.062
 4666SOL    HW214535   3.362   3.840   4.166
 4667SOL     OW14536   2.255   4.419   4.201
 4667SOL    HW114537   2.276   4.326   4.211
 4667SOL    HW214538   2.161   4.425   4.218
 4668SOL     OW14539   3.398   3.949   5.450
 4668SOL    HW114540   3.407   3.971   5.542
 4668SOL    HW214541   3.329   3.883   5.447
 4669SOL     OW14542   2.501   3.849   3.826
 4669SOL    HW114543   2.559   3.776   3.847
 4669SOL    HW214544   2.448   3.817   3.752
 4670SOL     OW14545   2.628   4.001   5.478
 4670SOL    HW114546   2.704   3.943   5.480
 4670SOL    HW214547   2.581   3.982   5.559
 4671SOL     OW14548   3.202   4.313   5.156
 4671SOL    HW114549   3.233   4.282   5.241
 4671SOL    HW214550   3.238   4.401   5.148
 4672SOL     OW14551   2.674   5.119   4.659
 4672SOL    HW114552   2.755   5.106   4.610
 4672SOL    HW214553   2.606   5.126   4.593
 4673SOL     OW14554   2.790   4.233   4.627
 4673SOL    HW114555   2.766   4.226   4.534
 4673SOL    HW214556   2.822   4.146   4.650
 4674SOL     OW14557   2.416   3.788   4.230
 4674SOL    HW114558   2.334   3.789   4.278
 4674SOL    HW214559   2.410   3.864   4.171
 4675SOL     OW14560   3.290   4.924   3.762
 4675SOL    HW114561   3.320   4.848   3.813
 4675SOL    HW214562   3.202   4.941   3.796
 4676SOL     OW14563   2.151   3.776   3.906
 4676SOL    HW114564   2.212   3.839   3.868
 4676SOL    HW214565   2.207   3.713   3.951
 4677SOL     OW14566   2.802   3.973   4.184
 4677SOL    HW114567   2.774   4.011   4.101
 4677SOL    HW214568   2.897   3.987   4.186
 4678SOL     OW14569   2.942   4.405   5.184
 4678SOL    HW114570   2.874   4.338   5.189
 4678SOL    HW214571   3.024   4.356   5.177
 4679SOL     OW14572   3.126   5.267   4.503
 4679SOL    HW114573   3.084   0.048   4.475
 4679SOL    HW214574   3.170   5.289   4.584
 4680SOL     OW14575   2.328   4.872   4.455
 4680SOL    HW114576   2.259   4.852   4.518
 4680SOL    HW214577   2.287   4.854   4.370
 4681SOL     OW14578   2.886   4.266   3.745
 4681SOL    HW114579   2.843   4.349   3.726
 4681SOL    HW214580   2.951   4.288   3.813
 4682SOL     OW14581   1.941   4.278   5.116
 4682SOL    HW114582   2.033   4.277   5.089
 4682SOL    HW214583   1.936   4.349   5.181
 4683SOL     OW14584   2.421   3.951   4.890
 4683SOL    HW114585   2.461   3.875   4.932
 4683SOL    HW214586   2.330   3.950   4.920
 4684SOL     OW14587   2.729   4.182   4.364
 4684SOL    HW114588   2.684   4.238   4.300
 4684SOL    HW214589   2.751   4.103   4.315
 4685SOL     OW14590   2.854   3.767   4.487
 4685SOL    HW114591   2.804   3.768   4.405
 4685SOL    HW214592   2.873   3.674   4.503
 4686SOL     OW14593   3.299   4.890   4.583
 4686SOL    HW114594   3.233   4.821   4.579
 4686SOL    HW214595   3.326   4.903   4.492
 4687SOL     OW14596   3.328   4.330   4.701
 4687SOL    HW114597   3.278   4.248   4.704
 4687SOL    HW214598   3.388   4.324   4.775
 4688SOL     OW14599   3.707   4.540   4.107
 4688SOL    HW114600   3.764   4.489   4.165
 4688SOL    HW214601   3.679   4.477   4.040
 4689SOL     OW14602   2.342   5.147   3.877
 4689SOL    HW114603   2.281   5.096   3.929
 4689SOL    HW214604   2.345   5.103   3.792
 4690SOL     OW14605   3.531   4.986   4.371
 4690SOL    HW114606   3.625   4.993   4.388
 4690SOL    HW214607   3.498   5.075   4.387
 4691SOL     OW14608   3.256   4.296   3.795
 4691SOL    HW114609   3.195   4.277   3.866
 4691SOL    HW214610   3.341   4.264   3.827
 4692SOL     OW14611   2.389   3.986   4.041
 4692SOL    HW114612   2.434   3.939   3.971
 4692SOL    HW214613   2.366   4.070   4.003
 4693SOL     OW14614   3.613   4.960   5.300
 4693SOL    HW114615   3.699   4.918   5.299
 4693SOL    HW214616   3.632   5.053   5.312
 4694SOL     OW14617   2.926   5.074   5.054
 4694SOL    HW114618   2.848   5.048   5.103
 4694SOL    HW214619   2.999   5.035   5.103
 4695SOL     OW14620   2.988   4.925   4.831
 4695SOL    HW114621   2.938   4.967   4.902
 4695SOL    HW214622   2.943   4.952   4.751
 4696SOL     OW14623   3.491   4.822   4.801
 4696SOL    HW114624   3.486   4.884   4.874
 4696SOL    HW214625   3.412   4.841   4.749
 4697SOL     OW14626   2.782   3.822   5.121
 4697SOL    HW114627   2.806   3.809   5.029
 4697SOL    HW214628   2.859   3.862   5.161
 4698SOL     OW14629   2.846   4.839   5.449
 4698SOL    HW114630   2.754   4.855   5.468
 4698SOL    HW214631   2.846   4.762   5.392
 4699SOL     OW14632   2.567   4.783   4.096
 4699SOL    HW114633   2.555   4.767   4.189
 4699SOL    HW214634   2.644   4.732   4.072
 4700SOL     OW14635   2.281   4.539   4.975
 4700SOL    HW114636   2.349   4.548   5.042
 4700SOL    HW214637   2.245   4.451   4.990
 4701SOL     OW14638   3.127   4.100   5.000
 4701SOL    HW114639   3.160   4.178   5.045
 4701SOL    HW214640   3.037   4.123   4.977
 4702SOL     OW14641   2.209   4.832   4.213
 4702SOL    HW114642   2.212   4.905   4.151
 4702SOL    HW214643   2.208   4.754   4.158
 4703SOL     OW14644   2.415   4.261   4.585
 4703SOL    HW114645   2.429   4.318   4.510
 4703SOL    HW214646   2.480   4.288   4.649
 4704SOL     OW14647   3.121   5.077   4.110
 4704SOL    HW114648   3.178   5.144   4.148
 4704SOL    HW214649   3.033   5.100   4.139
 4705SOL     OW14650   3.132   5.181   4.866
 4705SOL    HW114651   3.191   5.196   4.939
 4705SOL    HW214652   3.087   5.099   4.886
 4706SOL     OW14653   3.444   4.346   4.204
 4706SOL    HW114654   3.397   4.401   4.267
 4706SOL    HW214655   3.489   4.409   4.147
 4707SOL     OW14656   2.210   5.236   5.038
 4707SOL    HW114657   2.199   5.201   4.950
 4707SOL    HW214658   2.303   5.257   5.044
 4708SOL     OW14659   2.276   4.469   5.326
 4708SOL    HW114660   2.338   4.513   5.268
 4708SOL    HW214661   2.316   4.383   5.343
 4709SOL     OW14662   3.463   4.503   5.406
 4709SOL    HW114663   3.377   4.544   5.399
 4709SOL    HW214664   3.516   4.544   5.338
 4710SOL     OW14665   2.858   3.847   5.478
 4710SOL    HW114666   2.914   3.920   5.452
 4710SOL    HW214667   2.907   3.769   5.453
 4711SOL     OW14668   2.360   3.765   5.471
 4711SOL    HW114669   2.316   3.711   5.406
 4711SOL    HW214670   2.301   3.839   5.484
 4712SOL     OW14671   2.446   4.596   4.756
 4712SOL    HW114672   2.475   4.687   4.753
 4712SOL    HW214673   2.389   4.591   4.832
 4713SOL     OW14674   3.219   4.582   4.752
 4713SOL    HW114675   3.136   4.572   4.706
 4713SOL    HW214676   3.260   4.496   4.747
 4714SOL     OW14677   3.067   4.253   3.991
 4714SOL    HW114678   3.074   4.174   4.045
 4714SOL    HW214679   3.024   4.317   4.047
 4715SOL     OW14680   2.161   3.924   4.971
 4715SOL    HW114681   2.123   3.958   5.053
 4715SOL    HW214682   2.141   3.831   4.972
 4716SOL     OW14683   1.915   5.046   5.009
 4716SOL    HW114684   1.939   4.982   5.075
 4716SOL    HW214685   1.950   5.129   5.041
 4717SOL     OW14686   2.586   4.355   4.782
 4717SOL    HW114687   2.661   4.340   4.724
 4717SOL    HW214688   2.557   4.444   4.761
 4718SOL     OW14689   3.597   4.683   5.576
 4718SOL    HW114690   3.551   4.622   5.519
 4718SOL    HW214691   3.537   4.697   5.650
 4719SOL     OW14692   2.171   3.794   4.350
 4719SOL    HW114693   2.151   3.884   4.374
 4719SOL    HW214694   2.173   3.747   4.434
 4720SOL     OW14695   3.479   4.098   4.091
 4720SOL    HW114696   3.506   4.034   4.156
 4720SOL    HW214697   3.456   4.177   4.141
 4721SOL     OW14698   2.889   4.483   4.684
 4721SOL    HW114699   2.886   4.501   4.779
 4721SOL    HW214700   2.863   4.391   4.676
 4722SOL     OW14701   3.716   5.214   5.308
 4722SOL    HW114702   3.710   5.289   5.250
 4722SOL    HW214703   3.785   5.236   5.371
 4723SOL     OW14704   2.215   4.640   5.533
 4723SOL    HW114705   2.297   4.659   5.578
 4723SOL    HW214706   2.240   4.578   5.464
 4724SOL     OW14707   3.391   3.997   3.851
 4724SOL    HW114708   3.326   3.932   3.878
 4724SOL    HW214709   3.425   4.033   3.934
 4725SOL     OW14710   3.154   4.550   3.755
 4725SOL    HW114711   3.197   4.465   3.758
 4725SOL    HW214712   3.185   4.589   3.673
 4726SOL     OW14713   2.920   5.079   4.549
 4726SOL    HW114714   2.925   4.994   4.507
 4726SOL    HW214715   3.006   5.118   4.537
 4727SOL     OW14716   2.171   4.533   4.671
 4727SOL    HW114717   2.264   4.554   4.664
 4727SOL    HW214718   2.169   4.443   4.704
 4728SOL     OW14719   2.193   4.249   4.737
 4728SOL    HW114720   2.158   4.162   4.721
 4728SOL    HW214721   2.269   4.255   4.679
 4729SOL     OW14722   2.996   4.099   5.407
 4729SOL    HW114723   2.949   4.155   5.469
 4729SOL    HW214724   3.084   4.138   5.403
 4730SOL     OW14725   3.023   3.927   5.195
 4730SOL    HW114726   3.013   3.990   5.266
 4730SOL    HW214727   3.063   3.978   5.124
 4731SOL     OW14728   1.868   5.041   3.914
 4731SOL    HW114729   1.778   5.058   3.888
 4731SOL    HW214730   1.866   4.953   3.952
 4732SOL     OW14731   2.845   4.515   4.950
 4732SOL    HW114732   2.901   4.493   5.024
 4732SOL    HW214733   2.759   4.479   4.974
 4733SOL     OW14734   1.898   4.268   4.841
 4733SOL    HW114735   1.979   4.256   4.791
 4733SOL    HW214736   1.926   4.272   4.932
 4734SOL     OW14737   2.053   4.244   5.451
 4734SOL    HW114738   2.110   4.206   5.385
 4734SOL    HW214739   2.011   4.317   5.408
 4735SOL     OW14740   3.239   4.663   5.382
 4735SOL    HW114741   3.259   4.756   5.380
 4735SOL    HW214742   3.236   4.636   5.290
 4736SOL     OW14743   2.678   4.294   4.085
 4736SOL    HW114744   2.683   4.219   4.026
 4736SOL    HW214745   2.604   4.345   4.053
 4737SOL     OW14746   3.504   4.325   4.910
 4737SOL    HW114747   3.494   4.266   4.985
 4737SOL    HW214748   3.591   4.305   4.875
 4738SOL     OW14749   2.068   5.277   5.469
 4738SOL    HW114750   2.054   0.029   5.548
 4738SOL    HW214751   2.080   5.187   5.502
 4739SOL     OW14752   2.564   4.174   4.983
 4739SOL    HW114753   2.510   4.101   4.953
 4739SOL    HW214754   2.560   4.238   4.912
 4740SOL     OW14755   2.326   4.216   3.911
 4740SOL    HW114756   2.384   4.289   3.933
 4740SOL    HW214757   2.240   4.257   3.899
 4741SOL     OW14758   2.007   4.863   5.195
 4741SOL    HW114759   2.009   4.812   5.276
 4741SOL    HW214760   2.024   4.799   5.126
 4742SOL     OW14761   3.189   4.769   4.946
 4742SOL    HW114762   3.212   4.707   4.878
 4742SOL    HW214763   3.118   4.821   4.909
 4743SOL     OW14764   3.173   4.581   4.030
 4743SOL    HW114765   3.097   4.550   4.080
 4743SOL    HW214766   3.149   4.567   3.939
 4744SOL     OW14767   1.956   4.987   4.746
 4744SOL    HW114768   1.934   5.004   4.837
 4744SOL    HW214769   1.876   4.948   4.709
 4745SOL     OW14770   2.614   0.038   5.433
 4745SOL    HW114771   2.522   0.060   5.445
 4745SOL    HW214772   2.634   0.063   5.343
 4746SOL     OW14773   3.581   3.870   4.233
 4746SOL    HW114774   3.654   3.856   4.173
 4746SOL    HW214775   3.565   3.785   4.273
 4747SOL     OW14776   3.139   4.649   4.395
 4747SOL    HW114777   3.213   4.588   4.403
 4747SOL    HW214778   3.173   4.721   4.342
 4748SOL     OW14779   2.681   4.993   5.145
 4748SOL    HW114780   2.651   5.029   5.229
 4748SOL    HW214781   2.606   5.004   5.086
 4749SOL     OW14782   3.702   3.897   4.691
 4749SOL    HW114783   3.732   3.810   4.664
 4749SOL    HW214784   3.616   3.907   4.650
 4750SOL     OW14785   2.124   4.043   4.443
 4750SOL    HW114786   2.038   4.077   4.417
 4750SOL    HW214787   2.119   4.035   4.538
 4751SOL     OW14788   2.687   4.728   5.094
 4751SOL    HW114789   2.733   4.722   5.010
 4751SOL    HW214790   2.690   4.821   5.117
 4752SOL     OW14791   2.778   4.636   4.015
 4752SOL    HW114792   2.839   4.668   3.948
 4752SOL    HW214793   2.826   4.565   4.059
 4753SOL     OW14794   2.227   5.026   5.220
 4753SOL    HW114795   2.216   5.100   5.161
 4753SOL    HW214796   2.151   4.970   5.203
 4754SOL     OW14797   3.474   5.004   5.006
 4754SOL    HW114798   3.531   4.998   5.083
 4754SOL    HW214799   3.412   5.073   5.029
 4755SOL     OW14800   2.916   4.833   4.435
 4755SOL    HW114801   2.844   4.782   4.472
 4755SOL    HW214802   2.978   4.768   4.402
 4756SOL     OW14803   2.883   3.966   4.689
 4756SOL    HW114804   2.871   3.916   4.608
 4756SOL    HW214805   2.880   3.900   4.758
 4757SOL     OW14806   3.584   4.116   5.104
 4757SOL    HW114807   3.655   4.179   5.103
 4757SOL    HW214808   3.614   4.045   5.048
 4758SOL     OW14809   2.120   5.052   4.007
 4758SOL    HW114810   2.028   5.054   3.980
 4758SOL    HW214811   2.121   5.095   4.092
 4759SOL     OW14812   1.974   4.746   5.442
 4759SOL    HW114813   1.898   4.722   5.496
 4759SOL    HW214814   2.049   4.708   5.490
 4760SOL     OW14815   2.537   3.923   5.224
 4760SOL    HW114816   2.622   3.905   5.183
 4760SOL    HW214817   2.559   3.954   5.312
 4761SOL     OW14818   1.939   4.059   3.761
 4761SOL    HW114819   1.853   4.038   3.725
 4761SOL    HW214820   1.969   4.133   3.708
 4762SOL     OW14821   3.292   4.581   5.124
 4762SOL    HW114822   3.243   4.642   5.068
 4762SOL    HW214823   3.381   4.584   5.090
 4763SOL     OW14824   1.928   3.885   4.032
 4763SOL    HW114825   1.918   3.963   3.978
 4763SOL    HW214826   2.012   3.848   4.006
 4764SOL     OW14827   3.044   5.064   3.844
 4764SOL    HW114828   2.953   5.035   3.845
 4764SOL    HW214829   3.072   5.056   3.936
 4765SOL     OW14830   2.481   4.554   5.157
 4765SOL    HW114831   2.537   4.630   5.142
 4765SOL    HW214832   2.542   4.481   5.166
 4766SOL     OW14833   2.580   4.288   5.428
 4766SOL    HW114834   2.619   4.351   5.488
 4766SOL    HW214835   2.608   4.203   5.461
 4767SOL     OW14836   3.336   4.923   5.355
 4767SOL    HW114837   3.322   4.935   5.449
 4767SOL    HW214838   3.429   4.937   5.342
 4768SOL     OW14839   3.531   4.605   4.979
 4768SOL    HW114840   3.525   4.520   4.936
 4768SOL    HW214841   3.522   4.669   4.908
 4769SOL     OW14842   3.079   4.043   4.182
 4769SOL    HW114843   3.144   3.974   4.172
 4769SOL    HW214844   3.108   4.092   4.259
 4770SOL     OW14845   2.451   4.462   4.394
 4770SOL    HW114846   2.491   4.548   4.379
 4770SOL    HW214847   2.384   4.454   4.327
 4771SOL     OW14848   3.625   4.086   5.375
 4771SOL    HW114849   3.608   4.101   5.282
 4771SOL    HW214850   3.553   4.029   5.403
 4772SOL     OW14851   3.606   4.657   5.236
 4772SOL    HW114852   3.603   4.752   5.249
 4772SOL    HW214853   3.591   4.646   5.142
 4773SOL     OW14854   2.711   5.095   3.744
 4773SOL    HW114855   2.692   5.095   3.837
 4773SOL    HW214856   2.727   5.186   3.722
 4774SOL     OW14857   2.730   4.692   4.579
 4774SOL    HW114858   2.779   4.620   4.619
 4774SOL    HW214859   2.695   4.741   4.654
 4775SOL     OW14860   2.942   4.714   3.814
 4775SOL    HW114861   2.919   4.763   3.735
 4775SOL    HW214862   3.016   4.659   3.787
 4776SOL     OW14863   2.085   5.024   5.577
 4776SOL    HW114864   2.017   4.962   5.551
 4776SOL    HW214865   2.074   5.035   5.671
 4777SOL     OW14866   1.948   4.956   4.394
 4777SOL    HW114867   1.947   4.903   4.474
 4777SOL    HW214868   2.011   4.912   4.337
 4778SOL     OW14869   2.532   5.107   5.332
 4778SOL    HW114870   2.457   5.073   5.380
 4778SOL    HW214871   2.564   5.180   5.385
 4779SOL     OW14872   3.673   3.908   4.962
 4779SOL    HW114873   3.686   3.814   4.976
 4779SOL    HW214874   3.683   3.919   4.867
 4780SOL     OW14875   2.292   4.157   4.249
 4780SOL    HW114876   2.322   4.086   4.192
 4780SOL    HW214877   2.243   4.113   4.319
 4781SOL     OW14878   3.569   5.224   4.843
 4781SOL    HW114879   3.495   5.207   4.784
 4781SOL    HW214880   3.576   5.144   4.896
 4782SOL     OW14881   2.192   4.279   5.016
 4782SOL    HW114882   2.247   4.224   5.071
 4782SOL    HW214883   2.211   4.251   4.926
 4783SOL     OW14884   3.293   3.948   4.842
 4783SOL    HW114885   3.323   3.872   4.890
 4783SOL    HW214886   3.241   3.998   4.906
 4784SOL     OW14887   2.872   3.748   4.867
 4784SOL    HW114888   2.815   3.676   4.842
 4784SOL    HW214889   2.961   3.711   4.866
 4785SOL     OW14890   2.665   5.047   4.008
 4785SOL    HW114891   2.604   4.975   4.027
 4785SOL    HW214892   2.720   5.053   4.086
 4786SOL     OW14893   2.484   5.299   5.015
 4786SOL    HW114894   2.491   0.054   5.093
 4786SOL    HW214895   2.574   5.279   4.991
 4787SOL     OW14896   3.214   3.779   3.889
 4787SOL    HW114897   3.242   3.714   3.824
 4787SOL    HW214898   3.128   3.750   3.917
 4788SOL     OW14899   3.158   4.185   4.405
 4788SOL    HW114900   3.105   4.264   4.412
 4788SOL    HW214901   3.155   4.146   4.492
 4789SOL     OW14902   3.448   3.925   4.602
 4789SOL    HW114903   3.387   3.947   4.673
 4789SOL    HW214904   3.448   4.004   4.546
 4790SOL     OW14905   1.904   4.794   4.031
 4790SOL    HW114906   1.998   4.788   4.014
 4790SOL    HW214907   1.877   4.705   4.053
 4791SOL     OW14908   2.091   4.347   5.709
 4791SOL    HW114909   2.002   4.346   5.744
 4791SOL    HW214910   2.082   4.322   5.617
 4792SOL     OW14911   2.086   4.005   6.578
 4792SOL    HW114912   2.115   3.971   6.662
 4792SOL    HW214913   1.997   3.973   6.568
 4793SOL     OW14914   1.866   4.107   6.224
 4793SOL    HW114915   1.783   4.132   6.265
 4793SOL    HW214916   1.845   4.027   6.175
 4794SOL     OW14917   2.428   5.006   6.765
 4794SOL    HW114918   2.343   5.003   6.721
 4794SOL    HW214919   2.439   5.097   6.791
 4795SOL     OW14920   3.417   5.232   6.275
 4795SOL    HW114921   3.397   5.229   6.368
 4795SOL    HW214922   3.338   5.268   6.234
 4796SOL     OW14923   2.992   4.422   6.287
 4796SOL    HW114924   3.041   4.503   6.273
 4796SOL    HW214925   2.945   4.436   6.369
 4797SOL     OW14926   3.629   4.329   5.815
 4797SOL    HW114927   3.608   4.321   5.721
 4797SOL    HW214928   3.593   4.250   5.854
 4798SOL     OW14929   2.618   4.868   6.624
 4798SOL    HW114930   2.551   4.900   6.685
 4798SOL    HW214931   2.648   4.947   6.579
 4799SOL     OW14932   2.728   4.500   7.406
 4799SOL    HW114933   2.712   4.575   7.464
 4799SOL    HW214934   2.754   4.540   7.323
 4800SOL     OW14935   2.548   4.726   6.234
 4800SOL    HW114936   2.613   4.715   6.303
 4800SOL    HW214937   2.479   4.779   6.273
 4801SOL     OW14938   2.570   4.873   7.397
 4801SOL    HW114939   2.619   4.952   7.421
 4801SOL    HW214940   2.487   4.904   7.362
 4802SOL     OW14941   2.199   5.151   6.646
 4802SOL    HW114942   2.122   5.106   6.611
 4802SOL    HW214943   2.238   5.194   6.570
 4803SOL     OW14944   3.317   5.221   6.933
 4803SOL    HW114945   3.371   5.293   6.965
 4803SOL    HW214946   3.250   5.210   7.001
 4804SOL     OW14947   2.311   4.123   7.074
 4804SOL    HW114948   2.386   4.063   7.079
 4804SOL    HW214949   2.235   4.066   7.087
 4805SOL     OW14950   3.474   4.172   6.326
 4805SOL    HW114951   3.399   4.195   6.272
 4805SOL    HW214952   3.489   4.249   6.380
 4806SOL     OW14953   2.995   5.072   7.286
 4806SOL    HW114954   3.027   5.071   7.376
 4806SOL    HW214955   2.941   4.993   7.279
 4807SOL     OW14956   2.072   5.156   6.106
 4807SOL    HW114957   2.098   5.238   6.148
 4807SOL    HW214958   2.020   5.110   6.173
 4808SOL     OW14959   2.120   4.811   6.478
 4808SOL    HW114960   2.118   4.724   6.517
 4808SOL    HW214961   2.062   4.864   6.533
 4809SOL     OW14962   2.447   4.705   5.720
 4809SOL    HW114963   2.494   4.754   5.652
 4809SOL    HW214964   2.486   4.735   5.802
 4810SOL     OW14965   3.458   3.847   7.054
 4810SOL    HW114966   3.465   3.928   7.003
 4810SOL    HW214967   3.443   3.877   7.144
 4811SOL     OW14968   1.977   4.377   6.145
 4811SOL    HW114969   1.948   4.288   6.166
 4811SOL    HW214970   1.969   4.425   6.228
 4812SOL     OW14971   1.848   0.013   5.684
 4812SOL    HW114972   1.864   5.224   5.715
 4812SOL    HW214973   1.870   0.069   5.759
 4813SOL     OW14974   3.550   4.642   6.226
 4813SOL    HW114975   3.634   4.600   6.206
 4813SOL    HW214976   3.529   4.693   6.148
 4814SOL     OW14977   3.508   4.831   6.015
 4814SOL    HW114978   3.593   4.836   5.973
 4814SOL    HW214979   3.514   4.892   6.089
 4815SOL     OW14980   1.985   4.466   7.172
 4815SOL    HW114981   2.077   4.492   7.179
 4815SOL    HW214982   1.936   4.548   7.180
 4816SOL     OW14983   2.484   5.098   6.323
 4816SOL    HW114984   2.430   5.019   6.321
 4816SOL    HW214985   2.465   5.142   6.240
 4817SOL     OW14986   3.151   4.954   7.012
 4817SOL    HW114987   3.185   4.889   6.951
 4817SOL    HW214988   3.210   4.951   7.086
 4818SOL     OW14989   2.676   3.724   6.092
 4818SOL    HW114990   2.717   3.809   6.074
 4818SOL    HW214991   2.583   3.744   6.103
 4819SOL     OW14992   2.052   4.690   6.856
 4819SOL    HW114993   2.137   4.647   6.842
 4819SOL    HW214994   1.989   4.635   6.809
 4820SOL     OW14995   3.393   4.719   5.783
 4820SOL    HW114996   3.323   4.661   5.815
 4820SOL    HW214997   3.434   4.753   5.863
 4821SOL     OW14998   2.195   3.973   7.399
 4821SOL    HW114999   2.239   4.056   7.413
 4821SOL    HW215000   2.105   3.988   7.429
 4822SOL     OW15001   3.338   5.147   6.548
 4822SOL    HW115002   3.266   5.159   6.609
 4822SOL    HW215003   3.326   5.058   6.514
 4823SOL     OW15004   2.458   4.445   5.852
 4823SOL    HW115005   2.464   4.526   5.802
 4823SOL    HW215006   2.393   4.463   5.920
 4824SOL     OW15007   3.141   4.076   6.518
 4824SOL    HW115008   3.052   4.043   6.527
 4824SOL    HW215009   3.192   4.024   6.580
 4825SOL     OW15010   2.653   4.342   7.037
 4825SOL    HW115011   2.627   4.318   7.126
 4825SOL    HW215012   2.614   4.275   6.982
 4826SOL     OW15013   3.256   4.198   7.263
 4826SOL    HW115014   3.258   4.242   7.348
 4826SOL    HW215015   3.316   4.124   7.273
 4827SOL     OW15016   2.817   4.612   7.168
 4827SOL    HW115017   2.872   4.542   7.133
 4827SOL    HW215018   2.769   4.645   7.093
 4828SOL     OW15019   2.855   4.137   6.824
 4828SOL    HW115020   2.769   4.158   6.862
 4828SOL    HW215021   2.835   4.090   6.744
 4829SOL     OW15022   2.913   4.422   6.012
 4829SOL    HW115023   2.929   4.416   6.106
 4829SOL    HW215024   2.830   4.376   5.998
 4830SOL     OW15025   1.950   4.545   6.362
 4830SOL    HW115026   2.031   4.538   6.413
 4830SOL    HW215027   1.907   4.622   6.397
 4831SOL     OW15028   2.755   4.072   5.780
 4831SOL    HW115029   2.795   4.135   5.720
 4831SOL    HW215030   2.773   3.987   5.742
 4832SOL     OW15031   3.571   4.299   7.415
 4832SOL    HW115032   3.533   4.373   7.368
 4832SOL    HW215033   3.598   4.238   7.347
 4833SOL     OW15034   3.239   4.864   6.125
 4833SOL    HW115035   3.320   4.850   6.077
 4833SOL    HW215036   3.189   4.925   6.072
 4834SOL     OW15037   2.412   3.907   6.479
 4834SOL    HW115038   2.414   3.935   6.570
 4834SOL    HW215039   2.413   3.988   6.429
 4835SOL     OW15040   2.884   5.170   6.056
 4835SOL    HW115041   2.805   5.225   6.051
 4835SOL    HW215042   2.899   5.159   6.150
 4836SOL     OW15043   3.662   4.781   6.453
 4836SOL    HW115044   3.605   4.764   6.377
 4836SOL    HW215045   3.602   4.788   6.527
 4837SOL     OW15046   3.113   5.239   7.110
 4837SOL    HW115047   3.076   5.173   7.168
 4837SOL    HW215048   3.041   5.261   7.050
 4838SOL     OW15049   2.182   4.680   5.836
 4838SOL    HW115050   2.264   4.700   5.791
 4838SOL    HW215051   2.152   4.599   5.797
 4839SOL     OW15052   3.340   4.466   6.313
 4839SOL    HW115053   3.332   4.423   6.398
 4839SOL    HW215054   3.418   4.522   6.321
 4840SOL     OW15055   2.325   4.988   7.328
 4840SOL    HW115056   2.299   4.990   7.236
 4840SOL    HW215057   2.243   4.987   7.377
 4841SOL     OW15058   2.933   0.180   5.792
 4841SOL    HW115059   2.939   0.105   5.850
 4841SOL    HW215060   2.962   0.147   5.707
 4842SOL     OW15061   2.063   4.005   7.088
 4842SOL    HW115062   1.980   4.053   7.083
 4842SOL    HW215063   2.045   3.932   7.147
 4843SOL     OW15064   3.485   5.100   5.693
 4843SOL    HW115065   3.482   5.177   5.636
 4843SOL    HW215066   3.416   5.043   5.659
 4844SOL     OW15067   3.263   3.832   6.019
 4844SOL    HW115068   3.253   3.807   5.927
 4844SOL    HW215069   3.358   3.839   6.032
 4845SOL     OW15070   2.255   4.419   6.062
 4845SOL    HW115071   2.275   4.327   6.074
 4845SOL    HW215072   2.161   4.425   6.080
 4846SOL     OW15073   3.397   3.949   7.311
 4846SOL    HW115074   3.406   3.970   7.404
 4846SOL    HW215075   3.328   3.882   7.309
 4847SOL     OW15076   2.496   3.847   5.692
 4847SOL    HW115077   2.566   3.782   5.705
 4847SOL    HW215078   2.448   3.815   5.616
 4848SOL     OW15079   2.627   4.000   7.340
 4848SOL    HW115080   2.704   3.943   7.341
 4848SOL    HW215081   2.584   3.985   7.423
 4849SOL     OW15082   3.202   4.313   7.018
 4849SOL    HW115083   3.233   4.281   7.103
 4849SOL    HW215084   3.239   4.401   7.010
 4850SOL     OW15085   2.674   5.120   6.521
 4850SOL    HW115086   2.755   5.106   6.472
 4850SOL    HW215087   2.606   5.126   6.455
 4851SOL     OW15088   2.790   4.233   6.489
 4851SOL    HW115089   2.766   4.225   6.397
 4851SOL    HW215090   2.821   4.146   6.514
 4852SOL     OW15091   2.411   3.787   6.088
 4852SOL    HW115092   2.331   3.787   6.140
 4852SOL    HW215093   2.404   3.866   6.034
 4853SOL     OW15094   3.289   4.924   5.624
 4853SOL    HW115095   3.320   4.848   5.675
 4853SOL    HW215096   3.202   4.941   5.658
 4854SOL     OW15097   2.154   3.772   5.770
 4854SOL    HW115098   2.214   3.837   5.733
 4854SOL    HW215099   2.212   3.708   5.813
 4855SOL     OW15100   2.800   3.970   6.046
 4855SOL    HW115101   2.774   4.012   5.964
 4855SOL    HW215102   2.895   3.984   6.051
 4856SOL     OW15103   2.942   4.405   7.045
 4856SOL    HW115104   2.874   4.338   7.051
 4856SOL    HW215105   3.023   4.355   7.039
 4857SOL     OW15106   3.126   5.267   6.365
 4857SOL    HW115107   3.084   0.048   6.337
 4857SOL    HW215108   3.170   5.289   6.446
 4858SOL     OW15109   2.328   4.872   6.317
 4858SOL    HW115110   2.259   4.852   6.380
 4858SOL    HW215111   2.287   4.854   6.232
 4859SOL     OW15112   2.885   4.266   5.609
 4859SOL    HW115113   2.843   4.349   5.589
 4859SOL    HW215114   2.951   4.287   5.675
 4860SOL     OW15115   1.941   4.279   6.978
 4860SOL    HW115116   2.033   4.277   6.951
 4860SOL    HW215117   1.936   4.349   7.043
 4861SOL     OW15118   2.421   3.951   6.752
 4861SOL    HW115119   2.463   3.874   6.791
 4861SOL    HW215120   2.331   3.947   6.782
 4862SOL     OW15121   2.729   4.183   6.226
 4862SOL    HW115122   2.684   4.238   6.161
 4862SOL    HW215123   2.751   4.103   6.178
 4863SOL     OW15124   2.878   3.777   6.337
 4863SOL    HW115125   2.819   3.770   6.262
 4863SOL    HW215126   2.856   3.702   6.392
 4864SOL     OW15127   3.299   4.890   6.445
 4864SOL    HW115128   3.233   4.821   6.441
 4864SOL    HW215129   3.325   4.903   6.354
 4865SOL     OW15130   3.328   4.329   6.563
 4865SOL    HW115131   3.278   4.248   6.566
 4865SOL    HW215132   3.388   4.323   6.637
 4866SOL     OW15133   3.707   4.540   5.969
 4866SOL    HW115134   3.764   4.489   6.027
 4866SOL    HW215135   3.679   4.477   5.902
 4867SOL     OW15136   2.343   5.147   5.739
 4867SOL    HW115137   2.281   5.095   5.791
 4867SOL    HW215138   2.344   5.104   5.654
 4868SOL     OW15139   3.531   4.987   6.233
 4868SOL    HW115140   3.625   4.993   6.250
 4868SOL    HW215141   3.498   5.075   6.249
 4869SOL     OW15142   3.256   4.296   5.657
 4869SOL    HW115143   3.195   4.276   5.729
 4869SOL    HW215144   3.341   4.264   5.688
 4870SOL     OW15145   2.387   3.987   5.904
 4870SOL    HW115146   2.432   3.939   5.834
 4870SOL    HW215147   2.365   4.072   5.866
 4871SOL     OW15148   3.613   4.959   7.161
 4871SOL    HW115149   3.699   4.918   7.161
 4871SOL    HW215150   3.631   5.052   7.174
 4872SOL     OW15151   2.927   5.074   6.916
 4872SOL    HW115152   2.848   5.049   6.965
 4872SOL    HW215153   2.999   5.035   6.965
 4873SOL     OW15154   2.988   4.925   6.693
 4873SOL    HW115155   2.938   4.967   6.764
 4873SOL    HW215156   2.943   4.952   6.613
 4874SOL     OW15157   3.491   4.822   6.663
 4874SOL    HW115158   3.486   4.884   6.736
 4874SOL    HW215159   3.412   4.841   6.611
 4875SOL     OW15160   2.780   3.822   6.982
 4875SOL    HW115161   2.803   3.802   6.891
 4875SOL    HW215162   2.859   3.860   7.019
 4876SOL     OW15163   2.846   4.838   7.313
 4876SOL    HW115164   2.754   4.855   7.329
 4876SOL    HW215165   2.847   4.762   7.255
 4877SOL     OW15166   2.567   4.782   5.958
 4877SOL    HW115167   2.554   4.767   6.051
 4877SOL    HW215168   2.644   4.731   5.935
 4878SOL     OW15169   2.281   4.539   6.837
 4878SOL    HW115170   2.349   4.548   6.904
 4878SOL    HW215171   2.246   4.451   6.851
 4879SOL     OW15172   3.127   4.101   6.861
 4879SOL    HW115173   3.160   4.178   6.907
 4879SOL    HW215174   3.037   4.123   6.838
 4880SOL     OW15175   2.209   4.832   6.075
 4880SOL    HW115176   2.212   4.906   6.013
 4880SOL    HW215177   2.208   4.754   6.020
 4881SOL     OW15178   2.414   4.261   6.446
 4881SOL    HW115179   2.430   4.319   6.372
 4881SOL    HW215180   2.480   4.287   6.511
 4882SOL     OW15181   3.121   5.077   5.972
 4882SOL    HW115182   3.178   5.144   6.010
 4882SOL    HW215183   3.033   5.100   6.001
 4883SOL     OW15184   3.132   5.182   6.728
 4883SOL    HW115185   3.191   5.196   6.801
 4883SOL    HW215186   3.087   5.099   6.748
 4884SOL     OW15187   3.443   4.347   6.065
 4884SOL    HW115188   3.397   4.400   6.129
 4884SOL    HW215189   3.489   4.410   6.009
 4885SOL     OW15190   2.210   5.236   6.901
 4885SOL    HW115191   2.199   5.201   6.812
 4885SOL    HW215192   2.304   5.257   6.906
 4886SOL     OW15193   2.276   4.469   7.188
 4886SOL    HW115194   2.338   4.513   7.130
 4886SOL    HW215195   2.315   4.383   7.203
 4887SOL     OW15196   3.463   4.503   7.268
 4887SOL    HW115197   3.377   4.544   7.261
 4887SOL    HW215198   3.516   4.545   7.200
 4888SOL     OW15199   2.858   3.848   7.340
 4888SOL    HW115200   2.915   3.919   7.312
 4888SOL    HW215201   2.906   3.768   7.316
 4889SOL     OW15202   2.360   3.765   7.333
 4889SOL    HW115203   2.317   3.710   7.268
 4889SOL    HW215204   2.301   3.839   7.345
 4890SOL     OW15205   2.445   4.596   6.617
 4890SOL    HW115206   2.475   4.687   6.616
 4890SOL    HW215207   2.389   4.591   6.694
 4891SOL     OW15208   3.219   4.582   6.614
 4891SOL    HW115209   3.136   4.572   6.568
 4891SOL    HW215210   3.260   4.496   6.609
 4892SOL     OW15211   3.066   4.252   5.853
 4892SOL    HW115212   3.075   4.174   5.907
 4892SOL    HW215213   3.024   4.317   5.909
 4893SOL     OW15214   2.161   3.922   6.832
 4893SOL    HW115215   2.124   3.955   6.915
 4893SOL    HW215216   2.142   3.828   6.833
 4894SOL     OW15217   1.915   5.046   6.870
 4894SOL    HW115218   1.939   4.982   6.937
 4894SOL    HW215219   1.950   5.129   6.903
 4895SOL     OW15220   2.586   4.355   6.643
 4895SOL    HW115221   2.661   4.339   6.586
 4895SOL    HW215222   2.558   4.444   6.622
 4896SOL     OW15223   3.597   4.684   7.438
 4896SOL    HW115224   3.550   4.622   7.382
 4896SOL    HW215225   3.539   4.698   7.513
 4897SOL     OW15226   2.165   3.788   6.209
 4897SOL    HW115227   2.146   3.879   6.233
 4897SOL    HW215228   2.173   3.743   6.293
 4898SOL     OW15229   3.478   4.098   5.953
 4898SOL    HW115230   3.506   4.034   6.019
 4898SOL    HW215231   3.456   4.176   6.003
 4899SOL     OW15232   2.890   4.483   6.547
 4899SOL    HW115233   2.886   4.501   6.641
 4899SOL    HW215234   2.863   4.391   6.539
 4900SOL     OW15235   3.716   5.213   7.169
 4900SOL    HW115236   3.710   5.289   7.111
 4900SOL    HW215237   3.786   5.235   7.231
 4901SOL     OW15238   2.216   4.639   7.395
 4901SOL    HW115239   2.298   4.658   7.440
 4901SOL    HW215240   2.239   4.577   7.326
 4902SOL     OW15241   3.391   3.997   5.713
 4902SOL    HW115242   3.326   3.932   5.740
 4902SOL    HW215243   3.424   4.033   5.796
 4903SOL     OW15244   3.154   4.550   5.617
 4903SOL    HW115245   3.197   4.465   5.620
 4903SOL    HW215246   3.185   4.589   5.535
 4904SOL     OW15247   2.919   5.079   6.411
 4904SOL    HW115248   2.925   4.994   6.368
 4904SOL    HW215249   3.006   5.118   6.399
 4905SOL     OW15250   2.171   4.533   6.533
 4905SOL    HW115251   2.264   4.554   6.527
 4905SOL    HW215252   2.168   4.443   6.566
 4906SOL     OW15253   2.193   4.250   6.598
 4906SOL    HW115254   2.158   4.163   6.583
 4906SOL    HW215255   2.270   4.256   6.541
 4907SOL     OW15256   2.997   4.100   7.267
 4907SOL    HW115257   2.949   4.155   7.329
 4907SOL    HW215258   3.084   4.138   7.263
 4908SOL     OW15259   3.023   3.927   7.055
 4908SOL    HW115260   3.012   3.989   7.127
 4908SOL    HW215261   3.062   3.978   6.985
 4909SOL     OW15262   1.868   5.040   5.776
 4909SOL    HW115263   1.778   5.058   5.750
 4909SOL    HW215264   1.866   4.952   5.814
 4910SOL     OW15265   2.844   4.516   6.813
 4910SOL    HW115266   2.901   4.493   6.887
 4910SOL    HW215267   2.759   4.478   6.835
 4911SOL     OW15268   1.898   4.269   6.702
 4911SOL    HW115269   1.978   4.255   6.653
 4911SOL    HW215270   1.926   4.272   6.794
 4912SOL     OW15271   2.054   4.243   7.314
 4912SOL    HW115272   2.109   4.203   7.246
 4912SOL    HW215273   2.012   4.317   7.270
 4913SOL     OW15274   3.238   4.663   7.245
 4913SOL    HW115275   3.259   4.756   7.242
 4913SOL    HW215276   3.235   4.636   7.153
 4914SOL     OW15277   2.678   4.293   5.946
 4914SOL    HW115278   2.681   4.219   5.886
 4914SOL    HW215279   2.604   4.346   5.915
 4915SOL     OW15280   3.504   4.325   6.772
 4915SOL    HW115281   3.494   4.266   6.846
 4915SOL    HW215282   3.591   4.305   6.738
 4916SOL     OW15283   2.069   5.276   7.329
 4916SOL    HW115284   2.038   0.025   7.405
 4916SOL    HW215285   2.082   5.187   7.363
 4917SOL     OW15286   2.563   4.175   6.846
 4917SOL    HW115287   2.510   4.100   6.816
 4917SOL    HW215288   2.559   4.237   6.773
 4918SOL     OW15289   2.326   4.216   5.772
 4918SOL    HW115290   2.385   4.289   5.794
 4918SOL    HW215291   2.241   4.257   5.760
 4919SOL     OW15292   2.007   4.863   7.057
 4919SOL    HW115293   2.009   4.812   7.138
 4919SOL    HW215294   2.024   4.799   6.988
 4920SOL     OW15295   3.189   4.769   6.808
 4920SOL    HW115296   3.212   4.707   6.740
 4920SOL    HW215297   3.118   4.821   6.771
 4921SOL     OW15298   3.173   4.581   5.892
 4921SOL    HW115299   3.097   4.550   5.942
 4921SOL    HW215300   3.148   4.567   5.801
 4922SOL     OW15301   1.956   4.987   6.607
 4922SOL    HW115302   1.934   5.004   6.699
 4922SOL    HW215303   1.876   4.948   6.571
 4923SOL     OW15304   2.614   0.036   7.296
 4923SOL    HW115305   2.522   0.060   7.307
 4923SOL    HW215306   2.635   0.063   7.207
 4924SOL     OW15307   3.581   3.870   6.095
 4924SOL    HW115308   3.654   3.856   6.035
 4924SOL    HW215309   3.566   3.785   6.136
 4925SOL     OW15310   3.139   4.649   6.257
 4925SOL    HW115311   3.212   4.588   6.265
 4925SOL    HW215312   3.173   4.721   6.204
 4926SOL     OW15313   2.681   4.993   7.007
 4926SOL    HW115314   2.651   5.029   7.090
 4926SOL    HW215315   2.606   5.003   6.948
 4927SOL     OW15316   3.703   3.897   6.553
 4927SOL    HW115317   3.731   3.810   6.526
 4927SOL    HW215318   3.616   3.907   6.513
 4928SOL     OW15319   2.124   4.040   6.303
 4928SOL    HW115320   2.038   4.075   6.279
 4928SOL    HW215321   2.121   4.032   6.398
 4929SOL     OW15322   2.686   4.728   6.957
 4929SOL    HW115323   2.733   4.720   6.873
 4929SOL    HW215324   2.690   4.821   6.978
 4930SOL     OW15325   2.778   4.635   5.877
 4930SOL    HW115326   2.839   4.668   5.810
 4930SOL    HW215327   2.826   4.565   5.921
 4931SOL     OW15328   2.227   5.026   7.083
 4931SOL    HW115329   2.216   5.100   7.023
 4931SOL    HW215330   2.152   4.970   7.065
 4932SOL     OW15331   3.474   5.004   6.868
 4932SOL    HW115332   3.531   4.997   6.945
 4932SOL    HW215333   3.412   5.073   6.891
 4933SOL     OW15334   2.916   4.833   6.297
 4933SOL    HW115335   2.844   4.782   6.334
 4933SOL    HW215336   2.978   4.768   6.265
 4934SOL     OW15337   2.883   3.964   6.552
 4934SOL    HW115338   2.879   3.916   6.469
 4934SOL    HW215339   2.878   3.896   6.619
 4935SOL     OW15340   3.584   4.116   6.967
 4935SOL    HW115341   3.656   4.179   6.965
 4935SOL    HW215342   3.614   4.045   6.910
 4936SOL     OW15343   2.120   5.052   5.868
 4936SOL    HW115344   2.028   5.054   5.842
 4936SOL    HW215345   2.121   5.095   5.954
 4937SOL     OW15346   1.975   4.747   7.305
 4937SOL    HW115347   1.898   4.723   7.357
 4937SOL    HW215348   2.049   4.708   7.352
 4938SOL     OW15349   2.536   3.921   7.085
 4938SOL    HW115350   2.620   3.900   7.044
 4938SOL    HW215351   2.559   3.951   7.173
 4939SOL     OW15352   1.941   4.057   5.620
 4939SOL    HW115353   1.853   4.038   5.588
 4939SOL    HW215354   1.970   4.132   5.569
 4940SOL     OW15355   3.292   4.582   6.986
 4940SOL    HW115356   3.243   4.643   6.931
 4940SOL    HW215357   3.381   4.584   6.952
 4941SOL     OW15358   1.930   3.880   5.896
 4941SOL    HW115359   1.916   3.960   5.846
 4941SOL    HW215360   2.015   3.847   5.866
 4942SOL     OW15361   3.044   5.063   5.706
 4942SOL    HW115362   2.953   5.035   5.707
 4942SOL    HW215363   3.072   5.056   5.798
 4943SOL     OW15364   2.481   4.555   7.019
 4943SOL    HW115365   2.538   4.630   7.004
 4943SOL    HW215366   2.541   4.481   7.028
 4944SOL     OW15367   2.580   4.287   7.290
 4944SOL    HW115368   2.620   4.349   7.352
 4944SOL    HW215369   2.607   4.201   7.322
 4945SOL     OW15370   3.335   4.923   7.218
 4945SOL    HW115371   3.322   4.936   7.312
 4945SOL    HW215372   3.429   4.937   7.204
 4946SOL     OW15373   3.531   4.605   6.841
 4946SOL    HW115374   3.525   4.520   6.798
 4946SOL    HW215375   3.522   4.669   6.770
 4947SOL     OW15376   3.079   4.043   6.044
 4947SOL    HW115377   3.142   3.972   6.036
 4947SOL    HW215378   3.107   4.092   6.121
 4948SOL     OW15379   2.452   4.462   6.256
 4948SOL    HW115380   2.491   4.548   6.241
 4948SOL    HW215381   2.384   4.454   6.188
 4949SOL     OW15382   3.624   4.086   7.237
 4949SOL    HW115383   3.607   4.101   7.144
 4949SOL    HW215384   3.552   4.029   7.265
 4950SOL     OW15385   3.607   4.657   7.098
 4950SOL    HW115386   3.602   4.752   7.111
 4950SOL    HW215387   3.592   4.645   7.004
 4951SOL     OW15388   2.711   5.094   5.606
 4951SOL    HW115389   2.692   5.095   5.699
 4951SOL    HW215390   2.727   5.186   5.583
 4952SOL     OW15391   2.730   4.692   6.441
 4952SOL    HW115392   2.779   4.620   6.481
 4952SOL    HW215393   2.695   4.741   6.516
 4953SOL     OW15394   2.942   4.713   5.676
 4953SOL    HW115395   2.919   4.763   5.597
 4953SOL    HW215396   3.016   4.659   5.649
 4954SOL     OW15397   2.084   5.023   7.442
 4954SOL    HW115398   2.019   4.960   7.411
 4954SOL    HW215399   2.063   5.036   7.534
 4955SOL     OW15400   1.948   4.955   6.256
 4955SOL    HW115401   1.947   4.903   6.336
 4955SOL    HW215402   2.012   4.912   6.199
 4956SOL     OW15403   2.532   5.106   7.194
 4956SOL    HW115404   2.456   5.073   7.242
 4956SOL    HW215405   2.564   5.179   7.247
 4957SOL     OW15406   3.675   3.909   6.824
 4957SOL    HW115407   3.684   3.815   6.838
 4957SOL    HW215408   3.684   3.919   6.729
 4958SOL     OW15409   2.291   4.158   6.112
 4958SOL    HW115410   2.321   4.087   6.055
 4958SOL    HW215411   2.243   4.114   6.182
 4959SOL     OW15412   3.569   5.224   6.705
 4959SOL    HW115413   3.495   5.207   6.646
 4959SOL    HW215414   3.575   5.144   6.758
 4960SOL     OW15415   2.192   4.279   6.878
 4960SOL    HW115416   2.248   4.224   6.933
 4960SOL    HW215417   2.211   4.251   6.788
 4961SOL     OW15418   3.294   3.949   6.704
 4961SOL    HW115419   3.318   3.869   6.750
 4961SOL    HW215420   3.242   3.999   6.767
 4962SOL     OW15421   2.871   3.743   6.728
 4962SOL    HW115422   2.816   3.675   6.691
 4962SOL    HW215423   2.959   3.705   6.730
 4963SOL     OW15424   2.665   5.047   5.870
 4963SOL    HW115425   2.604   4.976   5.889
 4963SOL    HW215426   2.720   5.053   5.949
 4964SOL     OW15427   2.484   5.299   6.877
 4964SOL    HW115428   2.491   0.054   6.955
 4964SOL    HW215429   2.574   5.279   6.853
 4965SOL     OW15430   3.214   3.778   5.751
 4965SOL    HW115431   3.243   3.714   5.686
 4965SOL    HW215432   3.127   3.748   5.778
 4966SOL     OW15433   3.158   4.185   6.267
 4966SOL    HW115434   3.105   4.264   6.274
 4966SOL    HW215435   3.154   4.145   6.354
 4967SOL     OW15436   3.449   3.926   6.464
 4967SOL    HW115437   3.388   3.946   6.535
 4967SOL    HW215438   3.448   4.004   6.409
 4968SOL     OW15439   1.904   4.794   5.893
 4968SOL    HW115440   1.998   4.788   5.876
 4968SOL    HW215441   1.877   4.705   5.915
 4969SOL     OW15442   2.090   4.344   7.572
 4969SOL    HW115443   2.000   4.350   7.602
 4969SOL    HW215444   2.083   4.320   7.479
 4970SOL     OW15445   3.629   4.322   7.679
 4970SOL    HW115446   3.609   4.318   7.586
 4970SOL    HW215447   3.588   4.244   7.716
 4971SOL     OW15448   2.139   0.125   7.957
 4971SOL    HW115449   2.115   0.211   7.992
 4971SOL    HW215450   2.145   0.139   7.863
 4972SOL     OW15451   2.079   5.156   7.990
 4972SOL    HW115452   2.092   5.251   7.997
 4972SOL    HW215453   2.021   5.135   8.063
 4973SOL     OW15454   2.447   4.705   7.579
 4973SOL    HW115455   2.493   4.754   7.511
 4973SOL    HW215456   2.486   4.736   7.661
 4974SOL     OW15457   1.861   0.010   7.538
 4974SOL    HW115458   1.865   5.221   7.574
 4974SOL    HW215459   1.861   0.067   7.615
 4975SOL     OW15460   3.544   4.591   8.034
 4975SOL    HW115461   3.624   4.602   0.006
 4975SOL    HW215462   3.533   4.675   7.990
 4976SOL     OW15463   3.518   4.825   7.876
 4976SOL    HW115464   3.606   4.844   7.844
 4976SOL    HW215465   3.498   4.896   7.937
 4977SOL     OW15466   2.664   3.719   7.940
 4977SOL    HW115467   2.713   3.799   7.922
 4977SOL    HW215468   2.573   3.747   7.948
 4978SOL     OW15469   3.394   4.721   7.648
 4978SOL    HW115470   3.328   4.660   7.682
 4978SOL    HW215471   3.438   4.754   7.726
 4979SOL     OW15472   2.453   4.448   7.708
 4979SOL    HW115473   2.457   4.530   7.659
 4979SOL    HW215474   2.393   4.467   7.781
 4980SOL     OW15475   1.922   4.587   0.089
 4980SOL    HW115476   1.987   4.522   0.117
 4980SOL    HW215477   1.918   4.649   0.161
 4981SOL     OW15478   2.745   4.071   7.638
 4981SOL    HW115479   2.789   4.131   7.578
 4981SOL    HW215480   2.777   3.984   7.613
 4982SOL     OW15481   2.185   4.680   7.697
 4982SOL    HW115482   2.265   4.697   7.648
 4982SOL    HW215483   2.149   4.601   7.657
 4983SOL     OW15484   2.952   0.189   7.646
 4983SOL    HW115485   2.923   0.124   7.710
 4983SOL    HW215486   2.951   0.142   7.562
 4984SOL     OW15487   3.489   5.099   7.550
 4984SOL    HW115488   3.473   5.180   7.501
 4984SOL    HW215489   3.419   5.041   7.522
 4985SOL     OW15490   3.278   3.856   7.863
 4985SOL    HW115491   3.265   3.821   7.775
 4985SOL    HW215492   3.372   3.853   7.877
 4986SOL     OW15493   2.253   4.422   7.918
 4986SOL    HW115494   2.257   4.327   7.926
 4986SOL    HW215495   2.162   4.444   7.937
 4987SOL     OW15496   2.491   3.844   7.559
 4987SOL    HW115497   2.565   3.784   7.570
 4987SOL    HW215498   2.447   3.813   7.480
 4988SOL     OW15499   2.395   3.798   7.959
 4988SOL    HW115500   2.309   3.801   8.001
 4988SOL    HW215501   2.393   3.869   7.895
 4989SOL     OW15502   3.290   4.925   7.488
 4989SOL    HW115503   3.320   4.850   7.539
 4989SOL    HW215504   3.202   4.943   7.521
 4990SOL     OW15505   2.154   3.773   7.633
 4990SOL    HW115506   2.213   3.834   7.587
 4990SOL    HW215507   2.212   3.708   7.672
 4991SOL     OW15508   2.806   3.950   7.910
 4991SOL    HW115509   2.762   4.015   7.854
 4991SOL    HW215510   2.897   3.980   7.914
 4992SOL     OW15511   2.303   4.874   0.099
 4992SOL    HW115512   2.227   4.910   0.146
 4992SOL    HW215513   2.271   4.860   0.010
 4993SOL     OW15514   2.887   4.266   7.467
 4993SOL    HW115515   2.842   4.349   7.450
 4993SOL    HW215516   2.948   4.286   7.538
 4994SOL     OW15517   3.733   4.540   7.801
 4994SOL    HW115518   3.729   4.512   7.893
 4994SOL    HW215519   3.693   4.469   7.752
 4995SOL     OW15520   2.335   5.151   7.601
 4995SOL    HW115521   2.278   5.098   7.656
 4995SOL    HW215522   2.342   5.101   7.519
 4996SOL     OW15523   3.256   4.296   7.519
 4996SOL    HW115524   3.195   4.276   7.590
 4996SOL    HW215525   3.340   4.262   7.550
 4997SOL     OW15526   2.388   3.990   7.770
 4997SOL    HW115527   2.432   3.940   7.701
 4997SOL    HW215528   2.365   4.073   7.729
 4998SOL     OW15529   2.570   4.783   7.812
 4998SOL    HW115530   2.547   4.770   7.904
 4998SOL    HW215531   2.651   4.733   7.800
 4999SOL     OW15532   2.227   4.826   7.927
 4999SOL    HW115533   2.205   4.905   7.878
 4999SOL    HW215534   2.214   4.755   7.864
 5000SOL     OW15535   3.087   5.114   7.831
 5000SOL    HW115536   3.173   5.125   7.873
 5000SOL    HW215537   3.037   5.060   7.893
 5001SOL     OW15538   3.450   4.352   7.921
 5001SOL    HW115539   3.436   4.411   7.995
 5001SOL    HW215540   3.489   4.407   7.853
 5002SOL     OW15541   3.066   4.250   7.715
 5002SOL    HW115542   3.068   4.167   7.762
 5002SOL    HW215543   3.039   4.314   7.781
 5003SOL     OW15544   3.481   4.103   7.814
 5003SOL    HW115545   3.502   4.036   7.879
 5003SOL    HW215546   3.456   4.180   7.866
 5004SOL     OW15547   3.391   3.999   7.575
 5004SOL    HW115548   3.326   3.933   7.601
 5004SOL    HW215549   3.424   4.034   7.658
 5005SOL     OW15550   3.156   4.551   7.481
 5005SOL    HW115551   3.197   4.465   7.483
 5005SOL    HW215552   3.186   4.591   7.399
 5006SOL     OW15553   1.870   5.045   7.640
 5006SOL    HW115554   1.780   5.058   7.611
 5006SOL    HW215555   1.871   4.956   7.675
 5007SOL     OW15556   2.701   4.324   7.761
 5007SOL    HW115557   2.693   4.233   7.734
 5007SOL    HW215558   2.611   4.357   7.761
 5008SOL     OW15559   2.323   4.217   7.642
 5008SOL    HW115560   2.382   4.291   7.656
 5008SOL    HW215561   2.239   4.258   7.623
 5009SOL     OW15562   3.172   4.578   7.755
 5009SOL    HW115563   3.084   4.579   7.794
 5009SOL    HW215564   3.156   4.566   7.661
 5010SOL     OW15565   3.574   3.870   7.947
 5010SOL    HW115566   3.651   3.863   7.891
 5010SOL    HW215567   3.576   3.793   8.003
 5011SOL     OW15568   2.791   4.634   7.758
 5011SOL    HW115569   2.843   4.659   7.682
 5011SOL    HW215570   2.783   4.539   7.751
 5012SOL     OW15571   2.120   5.058   7.745
 5012SOL    HW115572   2.029   5.060   7.717
 5012SOL    HW215573   2.119   5.097   7.833
 5013SOL     OW15574   1.939   4.058   7.484
 5013SOL    HW115575   1.853   4.037   7.447
 5013SOL    HW215576   1.970   4.133   7.433
 5014SOL     OW15577   1.932   3.881   7.758
 5014SOL    HW115578   1.916   3.957   7.702
 5014SOL    HW215579   2.015   3.845   7.727
 5015SOL     OW15580   3.043   5.058   7.564
 5015SOL    HW115581   2.951   5.033   7.562
 5015SOL    HW215582   3.062   5.074   7.657
 5016SOL     OW15583   3.077   4.042   7.903
 5016SOL    HW115584   3.150   3.981   7.892
 5016SOL    HW215585   3.098   4.089   7.984
 5017SOL     OW15586   2.487   4.458   8.056
 5017SOL    HW115587   2.493   4.541   0.024
 5017SOL    HW215588   2.400   4.459   8.016
 5018SOL     OW15589   2.713   5.094   7.466
 5018SOL    HW115590   2.695   5.094   7.560
 5018SOL    HW215591   2.725   5.186   7.444
 5019SOL     OW15592   2.936   4.704   7.539
 5019SOL    HW115593   2.915   4.759   7.463
 5019SOL    HW215594   3.013   4.654   7.511
 5020SOL     OW15595   2.249   4.151   7.983
 5020SOL    HW115596   2.299   4.099   7.919
 5020SOL    HW215597   2.300   4.145   8.064
 5021SOL     OW15598   2.667   5.048   7.730
 5021SOL    HW115599   2.611   4.972   7.749
 5021SOL    HW215600   2.687   5.085   7.816
 5022SOL     OW15601   3.214   3.776   7.610
 5022SOL    HW115602   3.243   3.710   7.547
 5022SOL    HW215603   3.128   3.747   7.638
 5023SOL     OW15604   1.912   4.801   7.751
 5023SOL    HW115605   2.007   4.793   7.738
 5023SOL    HW215606   1.882   4.712   7.765
 5024SOL     OW15607   3.941   0.624   0.121
 5024SOL    HW115608   3.862   0.589   0.162
 5024SOL    HW215609   3.966   0.557   0.057
 5025SOL     OW15610   3.942   0.285   0.993
 5025SOL    HW115611   3.971   0.249   1.077
 5025SOL    HW215612   3.857   0.243   0.978
 5026SOL     OW15613   3.728   0.386   0.638
 5026SOL    HW115614   3.643   0.408   0.678
 5026SOL    HW215615   3.710   0.308   0.586
 5027SOL     OW15616   4.291   1.288   1.175
 5027SOL    HW115617   4.203   1.291   1.137
 5027SOL    HW215618   4.306   1.376   1.208
 5028SOL     OW15619   5.283   1.547   0.707
 5028SOL    HW115620   5.248   1.494   0.778
 5028SOL    HW215621   5.225   1.531   0.633
 5029SOL     OW15622   4.859   0.699   0.701
 5029SOL    HW115623   4.909   0.780   0.691
 5029SOL    HW215624   4.809   0.711   0.782
 5030SOL     OW15625   4.479   1.142   1.041
 5030SOL    HW115626   4.410   1.177   1.098
 5030SOL    HW215627   4.514   1.219   0.996
 5031SOL     OW15628   4.592   0.777   1.823
 5031SOL    HW115629   4.574   0.849   1.884
 5031SOL    HW215630   4.614   0.819   1.741
 5032SOL     OW15631   4.409   1.002   0.649
 5032SOL    HW115632   4.474   0.991   0.718
 5032SOL    HW215633   4.340   1.055   0.690
 5033SOL     OW15634   4.435   1.151   1.813
 5033SOL    HW115635   4.482   1.229   1.840
 5033SOL    HW215636   4.352   1.184   1.777
 5034SOL     OW15637   4.054   1.426   1.068
 5034SOL    HW115638   3.982   1.388   1.018
 5034SOL    HW215639   4.104   1.476   1.003
 5035SOL     OW15640   5.161   1.480   1.352
 5035SOL    HW115641   5.205   1.561   1.377
 5035SOL    HW215642   5.105   1.459   1.426
 5036SOL     OW15643   4.168   0.398   1.486
 5036SOL    HW115644   4.244   0.340   1.485
 5036SOL    HW215645   4.093   0.341   1.501
 5037SOL     OW15646   3.944   1.715   0.471
 5037SOL    HW115647   3.965   1.790   0.525
 5037SOL    HW215648   4.019   1.706   0.412
 5038SOL     OW15649   4.860   1.340   1.694
 5038SOL    HW115650   4.898   1.336   1.781
 5038SOL    HW215651   4.807   1.260   1.687
 5039SOL     OW15652   3.950   1.441   0.529
 5039SOL    HW115653   3.937   1.535   0.534
 5039SOL    HW215654   3.892   1.405   0.596
 5040SOL     OW15655   3.981   1.090   0.891
 5040SOL    HW115656   3.978   1.003   0.932
 5040SOL    HW215657   3.923   1.144   0.945
 5041SOL     OW15658   4.333   1.793   1.427
 5041SOL    HW115659   4.252   1.774   1.475
 5041SOL    HW215660   4.358   1.881   1.453
 5042SOL     OW15661   4.353   0.960   0.134
 5042SOL    HW115662   4.301   1.037   0.108
 5042SOL    HW215663   4.404   0.990   0.209
 5043SOL     OW15664   5.250   0.145   1.480
 5043SOL    HW115665   5.299   0.225   1.460
 5043SOL    HW215666   5.276   0.122   1.569
 5044SOL     OW15667   3.839   0.651   0.562
 5044SOL    HW115668   3.810   0.562   0.583
 5044SOL    HW215669   3.831   0.699   0.644
 5045SOL     OW15670   3.753   1.596   0.111
 5045SOL    HW115671   3.740   1.507   0.145
 5045SOL    HW215672   3.737   1.653   0.186
 5046SOL     OW15673   0.114   0.946   0.594
 5046SOL    HW115674   0.201   0.907   0.592
 5046SOL    HW215675   0.117   1.014   0.526
 5047SOL     OW15676   3.847   0.744   1.584
 5047SOL    HW115677   3.938   0.769   1.593
 5047SOL    HW215678   3.798   0.826   1.593
 5048SOL     OW15679   4.337   1.386   0.735
 5048SOL    HW115680   4.291   1.303   0.744
 5048SOL    HW215681   4.321   1.412   0.644
 5049SOL     OW15682   5.007   1.237   1.425
 5049SOL    HW115683   5.040   1.170   1.365
 5049SOL    HW215684   5.062   1.228   1.502
 5050SOL     OW15685   4.535   0.027   0.528
 5050SOL    HW115686   4.565   0.113   0.499
 5050SOL    HW215687   4.440   0.031   0.522
 5051SOL     OW15688   3.914   0.966   1.271
 5051SOL    HW115689   3.999   0.924   1.256
 5051SOL    HW215690   3.852   0.911   1.224
 5052SOL     OW15691   4.897   1.807   1.623
 5052SOL    HW115692   4.918   1.866   1.551
 5052SOL    HW215693   4.919   1.720   1.591
 5053SOL     OW15694   4.050   0.266   1.811
 5053SOL    HW115695   4.103   0.341   1.839
 5053SOL    HW215696   3.964   0.281   1.850
 5054SOL     OW15697   5.169   1.435   0.936
 5054SOL    HW115698   5.106   1.441   1.008
 5054SOL    HW215699   5.162   1.344   0.907
 5055SOL     OW15700   4.322   0.715   0.282
 5055SOL    HW115701   4.339   0.793   0.230
 5055SOL    HW215702   4.256   0.743   0.346
 5056SOL     OW15703   4.996   0.329   0.919
 5056SOL    HW115704   4.906   0.305   0.943
 5056SOL    HW215705   5.049   0.301   0.994
 5057SOL     OW15706   4.517   0.618   1.450
 5057SOL    HW115707   4.490   0.596   1.539
 5057SOL    HW215708   4.476   0.552   1.395
 5058SOL     OW15709   5.117   0.487   1.679
 5058SOL    HW115710   5.118   0.521   1.769
 5058SOL    HW215711   5.182   0.417   1.679
 5059SOL     OW15712   4.679   0.888   1.582
 5059SOL    HW115713   4.731   0.816   1.547
 5059SOL    HW215714   4.630   0.922   1.507
 5060SOL     OW15715   4.718   0.422   1.231
 5060SOL    HW115716   4.633   0.436   1.273
 5060SOL    HW215717   4.699   0.367   1.155
 5061SOL     OW15718   4.777   0.698   0.427
 5061SOL    HW115719   4.792   0.691   0.521
 5061SOL    HW215720   4.694   0.652   0.413
 5062SOL     OW15721   3.813   0.821   0.776
 5062SOL    HW115722   3.894   0.814   0.827
 5062SOL    HW215723   3.770   0.899   0.811
 5063SOL     OW15724   3.851   1.848   1.578
 5063SOL    HW115725   3.851   1.827   1.671
 5063SOL    HW215726   3.759   1.839   1.552
 5064SOL     OW15727   4.606   0.360   0.200
 5064SOL    HW115728   4.654   0.401   0.128
 5064SOL    HW215729   4.589   0.271   0.169
 5065SOL     OW15730   5.095   1.148   0.549
 5065SOL    HW115731   5.178   1.141   0.501
 5065SOL    HW215732   5.041   1.206   0.495
 5066SOL     OW15733   4.248   0.202   0.883
 5066SOL    HW115734   4.271   0.216   0.974
 5066SOL    HW215735   4.272   0.283   0.838
 5067SOL     OW15736   4.730   1.445   0.473
 5067SOL    HW115737   4.690   1.516   0.423
 5067SOL    HW215738   4.711   1.466   0.565
 5068SOL     OW15739   4.079   1.809   0.862
 5068SOL    HW115740   4.122   1.724   0.870
 5068SOL    HW215741   4.147   1.873   0.880
 5069SOL     OW15742   4.940   1.542   1.519
 5069SOL    HW115743   4.927   1.469   1.579
 5069SOL    HW215744   4.883   1.522   1.445
 5070SOL     OW15745   4.050   0.943   0.255
 5070SOL    HW115746   4.119   0.984   0.203
 5070SOL    HW215747   4.049   0.851   0.226
 5071SOL     OW15748   4.190   1.265   1.738
 5071SOL    HW115749   4.163   1.269   1.646
 5071SOL    HW215750   4.108   1.263   1.787
 5072SOL     OW15751   4.825   1.774   0.225
 5072SOL    HW115752   4.769   1.734   0.292
 5072SOL    HW215753   4.840   1.704   0.162
 5073SOL     OW15754   3.921   0.278   1.503
 5073SOL    HW115755   3.842   0.331   1.499
 5073SOL    HW215756   3.913   0.229   1.585
 5074SOL     OW15757   4.188   1.738   0.323
 5074SOL    HW115758   4.231   1.796   0.386
 5074SOL    HW215759   4.259   1.711   0.264
 5075SOL     OW15760   5.100   0.114   0.443
 5075SOL    HW115761   5.092   0.073   0.357
 5075SOL    HW215762   5.194   0.129   0.454
 5076SOL     OW15763   3.979   1.791   1.232
 5076SOL    HW115764   4.031   1.726   1.278
 5076SOL    HW215765   3.971   1.757   1.143
 5077SOL     OW15766   4.662   1.698   0.899
 5077SOL    HW115767   4.742   1.648   0.916
 5077SOL    HW215768   4.618   1.649   0.830
 5078SOL     OW15769   4.110   0.698   0.476
 5078SOL    HW115770   4.135   0.606   0.487
 5078SOL    HW215771   4.017   0.701   0.499
 5079SOL     OW15772   4.348   0.137   0.123
 5079SOL    HW115773   4.438   0.109   0.134
 5079SOL    HW215774   4.320   0.098   0.040
 5080SOL     OW15775   4.508   0.311   1.767
 5080SOL    HW115776   4.571   0.239   1.766
 5080SOL    HW215777   4.459   0.299   1.848
 5081SOL     OW15778   4.599   1.521   1.194
 5081SOL    HW115779   4.585   1.486   1.106
 5081SOL    HW215780   4.670   1.468   1.230
 5082SOL     OW15781   5.060   0.592   1.431
 5082SOL    HW115782   5.090   0.561   1.517
 5082SOL    HW215783   5.099   0.679   1.421
 5083SOL     OW15784   4.538   1.395   0.939
 5083SOL    HW115785   4.623   1.383   0.896
 5083SOL    HW215786   4.475   1.396   0.868
 5084SOL     OW15787   4.651   0.511   0.902
 5084SOL    HW115788   4.628   0.501   0.810
 5084SOL    HW215789   4.682   0.424   0.929
 5085SOL     OW15790   4.266   0.062   0.511
 5085SOL    HW115791   4.179   0.059   0.552
 5085SOL    HW215792   4.260   0.131   0.446
 5086SOL     OW15793   5.140   1.172   0.043
 5086SOL    HW115794   5.138   1.100   0.107
 5086SOL    HW215795   5.056   1.216   0.055
 5087SOL     OW15796   4.024   0.069   0.205
 5087SOL    HW115797   4.081   0.139   0.173
 5087SOL    HW215798   4.077   5.290   0.197
 5088SOL     OW15799   4.667   0.257   0.453
 5088SOL    HW115800   4.640   0.303   0.373
 5088SOL    HW215801   4.759   0.281   0.464
 5089SOL     OW15802   4.802   0.681   1.461
 5089SOL    HW115803   4.733   0.615   1.462
 5089SOL    HW215804   4.883   0.631   1.450
 5090SOL     OW15805   4.940   1.572   0.796
 5090SOL    HW115806   4.963   1.637   0.730
 5090SOL    HW215807   5.022   1.557   0.844
 5091SOL     OW15808   4.192   1.150   0.734
 5091SOL    HW115809   4.123   1.130   0.797
 5091SOL    HW215810   4.151   1.134   0.648
 5092SOL     OW15811   4.992   1.794   0.605
 5092SOL    HW115812   5.037   1.857   0.549
 5092SOL    HW215813   4.927   1.846   0.652
 5093SOL     OW15814   4.765   0.532   0.023
 5093SOL    HW115815   4.709   0.608   0.004
 5093SOL    HW215816   4.813   0.557   0.101
 5094SOL     OW15817   3.803   0.553   1.393
 5094SOL    HW115818   3.894   0.553   1.365
 5094SOL    HW215819   3.797   0.624   1.457
 5095SOL     OW15820   4.280   0.238   1.158
 5095SOL    HW115821   4.312   0.153   1.187
 5095SOL    HW215822   4.188   0.239   1.185
 5096SOL     OW15823   4.592   0.461   0.639
 5096SOL    HW115824   4.548   0.514   0.573
 5096SOL    HW215825   4.613   0.379   0.594
 5097SOL     OW15826   4.696   0.064   0.764
 5097SOL    HW115827   4.634   0.054   0.692
 5097SOL    HW215828   4.716   5.274   0.791
 5098SOL     OW15829   5.157   1.176   0.850
 5098SOL    HW115830   5.102   1.099   0.864
 5098SOL    HW215831   5.167   1.182   0.754
 5099SOL     OW15832   4.207   1.439   0.172
 5099SOL    HW115833   4.134   1.397   0.219
 5099SOL    HW215834   4.213   1.391   0.090
 5100SOL     OW15835   5.124   0.574   0.084
 5100SOL    HW115836   5.049   0.557   0.141
 5100SOL    HW215837   5.200   0.547   0.135
 5101SOL     OW15838   4.247   0.268   0.329
 5101SOL    HW115839   4.287   0.213   0.262
 5101SOL    HW215840   4.231   0.351   0.284
 5102SOL     OW15841   4.780   1.354   1.334
 5102SOL    HW115842   4.705   1.323   1.384
 5102SOL    HW215843   4.856   1.311   1.374
 5103SOL     OW15844   0.006   1.604   1.616
 5103SOL    HW115845   0.040   1.609   1.527
 5103SOL    HW215846   0.083   1.584   1.670
 5104SOL     OW15847   4.853   1.204   1.107
 5104SOL    HW115848   4.791   1.239   1.170
 5104SOL    HW215849   4.820   1.232   1.022
 5105SOL     OW15850   4.624   0.105   1.387
 5105SOL    HW115851   4.657   0.070   1.304
 5105SOL    HW215852   4.700   0.148   1.427
 5106SOL     OW15853   4.709   1.113   1.725
 5106SOL    HW115854   4.617   1.130   1.745
 5106SOL    HW215855   4.706   1.036   1.668
 5107SOL     OW15856   4.439   1.063   0.380
 5107SOL    HW115857   4.420   1.045   0.472
 5107SOL    HW215858   4.516   1.011   0.360
 5108SOL     OW15859   4.143   0.815   1.251
 5108SOL    HW115860   4.211   0.824   1.318
 5108SOL    HW215861   4.107   0.727   1.265
 5109SOL     OW15862   4.991   0.380   1.270
 5109SOL    HW115863   5.024   0.458   1.314
 5109SOL    HW215864   4.901   0.402   1.248
 5110SOL     OW15865   3.795   1.573   1.353
 5110SOL    HW115866   3.765   1.646   1.298
 5110SOL    HW215867   3.890   1.576   1.347
 5111SOL     OW15868   4.069   1.110   0.491
 5111SOL    HW115869   4.075   1.183   0.429
 5111SOL    HW215870   4.076   1.031   0.437
 5112SOL     OW15871   4.277   0.538   0.861
 5112SOL    HW115872   4.293   0.596   0.786
 5112SOL    HW215873   4.343   0.563   0.925
 5113SOL     OW15874   4.971   1.347   0.392
 5113SOL    HW115875   5.026   1.419   0.419
 5113SOL    HW215876   4.884   1.369   0.424
 5114SOL     OW15877   4.994   1.456   1.139
 5114SOL    HW115878   5.049   1.458   1.218
 5114SOL    HW215879   4.941   1.378   1.149
 5115SOL     OW15880   4.071   1.527   1.315
 5115SOL    HW115881   4.058   1.484   1.230
 5115SOL    HW215882   4.165   1.539   1.322
 5116SOL     OW15883   4.138   0.744   1.602
 5116SOL    HW115884   4.200   0.789   1.544
 5116SOL    HW215885   4.179   0.660   1.619
 5117SOL     OW15886   4.754   0.118   1.757
 5117SOL    HW115887   4.796   0.199   1.730
 5117SOL    HW215888   4.794   0.050   1.702
 5118SOL     OW15889   4.203   0.058   1.737
 5118SOL    HW115890   4.145   5.293   1.697
 5118SOL    HW215891   4.147   0.131   1.759
 5119SOL     OW15892   4.307   0.873   1.031
 5119SOL    HW115893   4.338   0.964   1.031
 5119SOL    HW215894   4.251   0.867   1.108
 5120SOL     OW15895   5.085   0.856   1.038
 5120SOL    HW115896   5.010   0.840   0.982
 5120SOL    HW215897   5.140   0.778   1.030
 5121SOL     OW15898   4.928   0.531   0.267
 5121SOL    HW115899   4.932   0.448   0.315
 5121SOL    HW215900   4.884   0.591   0.327
 5122SOL     OW15901   4.020   0.203   1.248
 5122SOL    HW115902   3.981   0.243   1.326
 5122SOL    HW215903   4.020   0.109   1.265
 5123SOL     OW15904   3.770   1.311   1.276
 5123SOL    HW115905   3.803   1.256   1.347
 5123SOL    HW215906   3.777   1.400   1.309
 5124SOL     OW15907   4.450   0.632   1.059
 5124SOL    HW115908   4.523   0.614   1.001
 5124SOL    HW215909   4.421   0.720   1.036
 5125SOL     OW15910   4.026   0.071   0.652
 5125SOL    HW115911   4.009   0.165   0.658
 5125SOL    HW215912   4.071   0.049   0.733
 5126SOL     OW15913   0.038   0.408   0.361
 5126SOL    HW115914   0.061   0.347   0.430
 5126SOL    HW215915   0.004   0.485   0.407
 5127SOL     OW15916   4.751   0.759   0.960
 5127SOL    HW115917   4.749   0.777   1.054
 5127SOL    HW215918   4.725   0.667   0.952
 5128SOL     OW15919   4.698   1.561   1.714
 5128SOL    HW115920   4.686   1.609   1.631
 5128SOL    HW215921   4.746   1.482   1.690
 5129SOL     OW15922   4.077   0.917   1.808
 5129SOL    HW115923   4.159   0.935   1.854
 5129SOL    HW215924   4.101   0.853   1.740
 5130SOL     OW15925   5.031   0.831   0.028
 5130SOL    HW115926   5.059   0.741   0.043
 5130SOL    HW215927   5.057   0.850   8.017
 5131SOL     OW15928   4.789   1.334   0.856
 5131SOL    HW115929   4.793   1.262   0.793
 5131SOL    HW215930   4.847   1.401   0.819
 5132SOL     OW15931   4.033   0.809   0.947
 5132SOL    HW115932   4.126   0.830   0.941
 5132SOL    HW215933   4.031   0.719   0.979
 5133SOL     OW15934   4.056   0.526   1.012
 5133SOL    HW115935   4.020   0.439   0.997
 5133SOL    HW215936   4.132   0.531   0.955
 5134SOL     OW15937   4.862   0.377   1.690
 5134SOL    HW115938   4.812   0.432   1.751
 5134SOL    HW215939   4.946   0.422   1.682
 5135SOL     OW15940   4.846   0.234   1.459
 5135SOL    HW115941   4.858   0.283   1.540
 5135SOL    HW215942   4.911   0.270   1.398
 5136SOL     OW15943   3.736   1.324   0.190
 5136SOL    HW115944   3.649   1.338   0.152
 5136SOL    HW215945   3.733   1.234   0.222
 5137SOL     OW15946   3.814   1.787   0.938
 5137SOL    HW115947   3.784   1.708   0.894
 5137SOL    HW215948   3.904   1.799   0.907
 5138SOL     OW15949   4.220   1.574   0.905
 5138SOL    HW115950   4.289   1.636   0.930
 5138SOL    HW215951   4.265   1.510   0.849
 5139SOL     OW15952   4.707   0.794   1.227
 5139SOL    HW115953   4.762   0.769   1.301
 5139SOL    HW215954   4.622   0.753   1.246
 5140SOL     OW15955   3.759   0.544   1.117
 5140SOL    HW115956   3.839   0.529   1.066
 5140SOL    HW215957   3.789   0.548   1.208
 5141SOL     OW15958   3.911   0.522   1.727
 5141SOL    HW115959   3.974   0.486   1.665
 5141SOL    HW215960   3.871   0.596   1.681
 5142SOL     OW15961   5.113   0.938   1.666
 5142SOL    HW115962   5.121   1.032   1.654
 5142SOL    HW215963   5.115   0.902   1.577
 5143SOL     OW15964   4.543   0.571   0.366
 5143SOL    HW115965   4.549   0.499   0.303
 5143SOL    HW215966   4.466   0.620   0.337
 5144SOL     OW15967   3.967   1.551   1.727
 5144SOL    HW115968   3.944   1.615   1.795
 5144SOL    HW215969   3.969   1.467   1.774
 5145SOL     OW15970   4.422   0.452   1.261
 5145SOL    HW115971   4.372   0.378   1.227
 5145SOL    HW215972   4.422   0.516   1.189
 5146SOL     OW15973   4.645   1.680   1.469
 5146SOL    HW115974   4.623   1.647   1.381
 5146SOL    HW215975   4.646   1.775   1.459
 5147SOL     OW15976   4.192   0.492   0.177
 5147SOL    HW115977   4.259   0.557   0.197
 5147SOL    HW215978   4.109   0.538   0.193
 5148SOL     OW15979   3.870   1.141   1.472
 5148SOL    HW115980   3.872   1.089   1.553
 5148SOL    HW215981   3.887   1.077   1.403
 5149SOL     OW15982   5.053   1.049   1.224
 5149SOL    HW115983   5.074   0.984   1.158
 5149SOL    HW215984   4.982   1.101   1.186
 5150SOL     OW15985   5.024   0.869   0.319
 5150SOL    HW115986   4.946   0.825   0.354
 5150SOL    HW215987   5.022   0.851   0.225
 5151SOL     OW15988   4.960   1.731   1.122
 5151SOL    HW115989   5.045   1.752   1.083
 5151SOL    HW215990   4.960   1.636   1.131
 5152SOL     OW15991   3.808   1.267   1.012
 5152SOL    HW115992   3.793   1.279   1.106
 5152SOL    HW215993   3.735   1.212   0.983
 5153SOL     OW15994   4.401   1.665   1.729
 5153SOL    HW115995   4.349   1.745   1.722
 5153SOL    HW215996   4.470   1.676   1.663
 5154SOL     OW15997   4.614   0.084   0.142
 5154SOL    HW115998   4.661   0.074   0.059
 5154SOL    HW215999   4.629   0.002   0.188
 5155SOL     OW16000   5.108   1.571   0.478
 5155SOL    HW116001   5.162   1.614   0.412
 5155SOL    HW216002   5.060   1.642   0.519
 5156SOL     OW16003   3.860   1.797   1.843
 5156SOL    HW116004   3.809   1.731   1.891
 5156SOL    HW216005   3.908   1.844   1.911
 5157SOL     OW16006   5.017   0.920   0.673
 5157SOL    HW116007   5.093   0.865   0.658
 5157SOL    HW216008   5.035   1.000   0.624
 5158SOL     OW16009   4.538   1.273   1.430
 5158SOL    HW116010   4.510   1.313   1.513
 5158SOL    HW216011   4.469   1.296   1.368
 5159SOL     OW16012   4.400   1.621   0.157
 5159SOL    HW116013   4.407   1.627   0.061
 5159SOL    HW216014   4.339   1.548   0.171
 5160SOL     OW16015   3.986   0.329   0.719
 5160SOL    HW116016   3.898   0.360   0.698
 5160SOL    HW216017   3.984   0.317   0.814
 5161SOL     OW16018   4.860   1.579   0.045
 5161SOL    HW116019   4.900   1.494   0.061
 5161SOL    HW216020   4.899   1.609   8.043
 5162SOL     OW16021   4.547   1.006   1.373
 5162SOL    HW116022   4.592   1.000   1.288
 5162SOL    HW216023   4.547   1.099   1.394
 5163SOL     OW16024   4.643   0.914   0.300
 5163SOL    HW116025   4.697   0.938   0.224
 5163SOL    HW216026   4.690   0.841   0.340
 5164SOL     OW16027   4.093   1.303   1.492
 5164SOL    HW116028   4.080   1.380   1.437
 5164SOL    HW216029   4.016   1.248   1.476
 5165SOL     OW16030   4.776   1.107   0.707
 5165SOL    HW116031   4.705   1.056   0.747
 5165SOL    HW216032   4.833   1.042   0.668
 5166SOL     OW16033   4.737   0.242   0.971
 5166SOL    HW116034   4.719   0.197   0.889
 5166SOL    HW216035   4.733   0.174   1.038
 5167SOL     OW16036   4.327   1.487   0.480
 5167SOL    HW116037   4.371   1.437   0.411
 5167SOL    HW216038   4.258   1.535   0.434
 5168SOL     OW16039   3.991   1.320   0.293
 5168SOL    HW116040   3.905   1.331   0.253
 5168SOL    HW216041   3.984   1.365   0.377
 5169SOL     OW16042   3.837   1.022   1.719
 5169SOL    HW116043   3.760   0.999   1.772
 5169SOL    HW216044   3.911   0.984   1.766
 5170SOL     OW16045   4.396   0.213   1.490
 5170SOL    HW116046   4.478   0.192   1.446
 5170SOL    HW216047   4.422   0.261   1.568
 5171SOL     OW16048   3.793   0.361   0.033
 5171SOL    HW116049   3.721   0.299   0.024
 5171SOL    HW216050   3.806   0.397   8.026
 5172SOL     OW16051   5.163   0.860   1.403
 5172SOL    HW116052   5.110   0.916   1.347
 5172SOL    HW216053   5.252   0.869   1.369
 5173SOL     OW16054   3.792   0.165   0.314
 5173SOL    HW116055   3.799   0.253   0.276
 5173SOL    HW216056   3.877   0.124   0.296
 5174SOL     OW16057   4.914   1.314   0.120
 5174SOL    HW116058   4.818   1.313   0.114
 5174SOL    HW216059   4.932   1.321   0.213
 5175SOL     OW16060   4.343   0.831   1.433
 5175SOL    HW116061   4.399   0.907   1.418
 5175SOL    HW216062   4.404   0.757   1.441
 5176SOL     OW16063   4.440   0.571   1.703
 5176SOL    HW116064   4.480   0.633   1.763
 5176SOL    HW216065   4.469   0.485   1.733
 5177SOL     OW16066   5.182   1.204   1.632
 5177SOL    HW116067   5.173   1.217   1.727
 5177SOL    HW216068   5.276   1.212   1.616
 5178SOL     OW16069   4.103   1.739   1.565
 5178SOL    HW116070   4.018   1.781   1.551
 5178SOL    HW216071   4.083   1.656   1.606
 5179SOL     OW16072   4.935   0.332   0.472
 5179SOL    HW116073   4.989   0.254   0.457
 5179SOL    HW216074   4.974   0.373   0.549
 5180SOL     OW16075   4.312   0.738   0.669
 5180SOL    HW116076   4.352   0.823   0.654
 5180SOL    HW216077   4.244   0.731   0.603
 5181SOL     OW16078   4.620   1.369   0.033
 5181SOL    HW116079   4.556   1.363   0.104
 5181SOL    HW216080   4.616   1.460   0.004
 5182SOL     OW16081   4.384   1.791   0.944
 5182SOL    HW116082   4.365   1.882   0.921
 5182SOL    HW216083   4.479   1.784   0.938
 5183SOL     OW16084   4.592   0.967   0.855
 5183SOL    HW116085   4.641   0.895   0.894
 5183SOL    HW216086   4.557   1.015   0.930
 5184SOL     OW16087   4.801   0.974   0.086
 5184SOL    HW116088   4.789   1.037   0.015
 5184SOL    HW216089   4.883   0.929   0.065
 5185SOL     OW16090   3.949   1.303   1.856
 5185SOL    HW116091   3.882   1.241   1.826
 5185SOL    HW216092   3.931   1.315   1.949
 5186SOL     OW16093   3.809   1.233   0.665
 5186SOL    HW116094   3.812   1.184   0.747
 5186SOL    HW216095   3.881   1.196   0.612
 5187SOL     OW16096   4.405   1.402   1.628
 5187SOL    HW116097   4.325   1.360   1.659
 5187SOL    HW216098   4.401   1.491   1.664
 5188SOL     OW16099   4.150   0.438   0.523
 5188SOL    HW116100   4.186   0.366   0.472
 5188SOL    HW216101   4.106   0.396   0.597
 5189SOL     OW16102   0.094   1.522   1.100
 5189SOL    HW116103   0.027   1.497   1.036
 5189SOL    HW216104   0.102   1.445   1.157
 5190SOL     OW16105   4.053   0.556   1.290
 5190SOL    HW116106   4.109   0.501   1.346
 5190SOL    HW216107   4.073   0.528   1.201
 5191SOL     OW16108   4.551   1.578   0.677
 5191SOL    HW116109   4.540   1.631   0.598
 5191SOL    HW216110   4.474   1.521   0.680
 5192SOL     OW16111   5.150   0.216   1.120
 5192SOL    HW116112   5.158   0.133   1.168
 5192SOL    HW216113   5.104   0.274   1.181
 5193SOL     OW16114   4.725   0.020   1.140
 5193SOL    HW116115   4.674   5.252   1.096
 5193SOL    HW216116   4.812   5.283   1.151
 5194SOL     OW16117   4.494   1.328   0.309
 5194SOL    HW116118   4.462   1.238   0.323
 5194SOL    HW216119   4.576   1.332   0.357
 5195SOL     OW16120   4.344   1.556   1.285
 5195SOL    HW116121   4.346   1.639   1.334
 5195SOL    HW216122   4.431   1.549   1.247
 5196SOL     OW16123   5.074   5.294   0.203
 5196SOL    HW116124   5.138   0.008   0.133
 5196SOL    HW216125   5.003   0.055   0.182
 5197SOL     OW16126   5.033   0.465   0.691
 5197SOL    HW116127   4.974   0.541   0.693
 5197SOL    HW216128   5.019   0.421   0.774
 5198SOL     OW16129   5.295   0.214   0.883
 5198SOL    HW116130   5.237   0.215   0.958
 5198SOL    HW216131   5.275   0.295   0.836
 5199SOL     OW16132   3.767   1.067   0.304
 5199SOL    HW116133   3.863   1.066   0.307
 5199SOL    HW216134   3.741   0.984   0.344
 5200SOL     OW16135   4.604   1.652   0.350
 5200SOL    HW116136   4.537   1.636   0.284
 5200SOL    HW216137   4.573   1.729   0.398
 5201SOL     OW16138   3.952   0.626   1.985
 5201SOL    HW116139   3.863   0.622   2.020
 5201SOL    HW216140   3.943   0.599   1.893
 5202SOL     OW16141   3.942   0.284   2.855
 5202SOL    HW116142   3.971   0.249   2.939
 5202SOL    HW216143   3.857   0.243   2.839
 5203SOL     OW16144   3.728   0.386   2.500
 5203SOL    HW116145   3.643   0.407   2.540
 5203SOL    HW216146   3.710   0.309   2.447
 5204SOL     OW16147   4.291   1.288   3.037
 5204SOL    HW116148   4.203   1.291   2.999
 5204SOL    HW216149   4.306   1.376   3.070
 5205SOL     OW16150   5.285   1.536   2.568
 5205SOL    HW116151   5.246   1.493   2.644
 5205SOL    HW216152   5.220   1.527   2.499
 5206SOL     OW16153   4.860   0.698   2.563
 5206SOL    HW116154   4.909   0.780   2.553
 5206SOL    HW216155   4.810   0.710   2.643
 5207SOL     OW16156   4.479   1.142   2.903
 5207SOL    HW116157   4.410   1.177   2.960
 5207SOL    HW216158   4.514   1.219   2.858
 5208SOL     OW16159   4.592   0.777   3.685
 5208SOL    HW116160   4.574   0.848   3.746
 5208SOL    HW216161   4.614   0.820   3.603
 5209SOL     OW16162   4.411   1.003   2.509
 5209SOL    HW116163   4.475   0.991   2.579
 5209SOL    HW216164   4.341   1.055   2.549
 5210SOL     OW16165   4.435   1.151   3.675
 5210SOL    HW116166   4.482   1.230   3.702
 5210SOL    HW216167   4.352   1.184   3.639
 5211SOL     OW16168   4.054   1.425   2.930
 5211SOL    HW116169   3.982   1.388   2.880
 5211SOL    HW216170   4.104   1.476   2.865
 5212SOL     OW16171   5.161   1.481   3.214
 5212SOL    HW116172   5.206   1.561   3.239
 5212SOL    HW216173   5.105   1.460   3.289
 5213SOL     OW16174   4.168   0.398   3.348
 5213SOL    HW116175   4.244   0.339   3.347
 5213SOL    HW216176   4.093   0.341   3.363
 5214SOL     OW16177   3.943   1.714   2.334
 5214SOL    HW116178   3.965   1.790   2.388
 5214SOL    HW216179   4.016   1.706   2.273
 5215SOL     OW16180   4.860   1.340   3.556
 5215SOL    HW116181   4.898   1.336   3.643
 5215SOL    HW216182   4.807   1.260   3.549
 5216SOL     OW16183   3.954   1.441   2.397
 5216SOL    HW116184   3.937   1.535   2.401
 5216SOL    HW216185   3.894   1.403   2.461
 5217SOL     OW16186   3.982   1.090   2.753
 5217SOL    HW116187   3.978   1.004   2.794
 5217SOL    HW216188   3.924   1.144   2.807
 5218SOL     OW16189   4.333   1.792   3.289
 5218SOL    HW116190   4.252   1.774   3.337
 5218SOL    HW216191   4.358   1.881   3.315
 5219SOL     OW16192   4.310   0.982   1.996
 5219SOL    HW116193   4.355   1.031   1.928
 5219SOL    HW216194   4.349   1.012   2.078
 5220SOL     OW16195   5.251   0.143   3.341
 5220SOL    HW116196   5.298   0.224   3.322
 5220SOL    HW216197   5.275   0.123   3.431
 5221SOL     OW16198   3.839   0.654   2.421
 5221SOL    HW116199   3.811   0.564   2.442
 5221SOL    HW216200   3.831   0.701   2.504
 5222SOL     OW16201   3.756   1.595   1.986
 5222SOL    HW116202   3.739   1.503   2.006
 5222SOL    HW216203   3.732   1.642   2.066
 5223SOL     OW16204   0.112   0.940   2.438
 5223SOL    HW116205   0.200   0.904   2.453
 5223SOL    HW216206   0.128   1.025   2.397
 5224SOL     OW16207   3.847   0.744   3.446
 5224SOL    HW116208   3.939   0.769   3.455
 5224SOL    HW216209   3.798   0.826   3.455
 5225SOL     OW16210   4.337   1.386   2.597
 5225SOL    HW116211   4.291   1.302   2.607
 5225SOL    HW216212   4.321   1.412   2.507
 5226SOL     OW16213   5.007   1.237   3.287
 5226SOL    HW116214   5.040   1.170   3.227
 5226SOL    HW216215   5.062   1.228   3.364
 5227SOL     OW16216   4.535   0.027   2.391
 5227SOL    HW116217   4.563   0.114   2.365
 5227SOL    HW216218   4.439   0.029   2.384
 5228SOL     OW16219   3.914   0.966   3.133
 5228SOL    HW116220   3.999   0.924   3.118
 5228SOL    HW216221   3.852   0.911   3.086
 5229SOL     OW16222   4.897   1.807   3.486
 5229SOL    HW116223   4.918   1.866   3.413
 5229SOL    HW216224   4.919   1.720   3.453
 5230SOL     OW16225   4.050   0.266   3.673
 5230SOL    HW116226   4.103   0.341   3.702
 5230SOL    HW216227   3.964   0.281   3.712
 5231SOL     OW16228   5.169   1.435   2.798
 5231SOL    HW116229   5.106   1.442   2.871
 5231SOL    HW216230   5.162   1.344   2.770
 5232SOL     OW16231   4.319   0.722   2.128
 5232SOL    HW116232   4.323   0.803   2.078
 5232SOL    HW216233   4.253   0.739   2.196
 5233SOL     OW16234   4.996   0.329   2.780
 5233SOL    HW116235   4.907   0.305   2.804
 5233SOL    HW216236   5.049   0.301   2.855
 5234SOL     OW16237   4.518   0.618   3.312
 5234SOL    HW116238   4.490   0.596   3.401
 5234SOL    HW216239   4.476   0.552   3.257
 5235SOL     OW16240   5.117   0.487   3.542
 5235SOL    HW116241   5.118   0.521   3.631
 5235SOL    HW216242   5.183   0.418   3.541
 5236SOL     OW16243   4.679   0.888   3.444
 5236SOL    HW116244   4.731   0.816   3.409
 5236SOL    HW216245   4.630   0.922   3.369
 5237SOL     OW16246   4.718   0.422   3.093
 5237SOL    HW116247   4.633   0.437   3.135
 5237SOL    HW216248   4.698   0.367   3.017
 5238SOL     OW16249   4.775   0.698   2.287
 5238SOL    HW116250   4.790   0.691   2.382
 5238SOL    HW216251   4.692   0.652   2.273
 5239SOL     OW16252   3.812   0.821   2.639
 5239SOL    HW116253   3.893   0.814   2.689
 5239SOL    HW216254   3.769   0.899   2.673
 5240SOL     OW16255   3.851   1.847   3.440
 5240SOL    HW116256   3.851   1.827   3.533
 5240SOL    HW216257   3.759   1.840   3.414
 5241SOL     OW16258   4.599   0.362   2.052
 5241SOL    HW116259   4.635   0.419   1.984
 5241SOL    HW216260   4.651   0.282   2.048
 5242SOL     OW16261   5.093   1.147   2.410
 5242SOL    HW116262   5.180   1.148   2.371
 5242SOL    HW216263   5.041   1.206   2.355
 5243SOL     OW16264   4.249   0.202   2.744
 5243SOL    HW116265   4.272   0.217   2.836
 5243SOL    HW216266   4.272   0.284   2.701
 5244SOL     OW16267   4.730   1.443   2.334
 5244SOL    HW116268   4.692   1.516   2.285
 5244SOL    HW216269   4.712   1.465   2.426
 5245SOL     OW16270   4.078   1.809   2.724
 5245SOL    HW116271   4.122   1.724   2.732
 5245SOL    HW216272   4.147   1.873   2.742
 5246SOL     OW16273   4.940   1.542   3.381
 5246SOL    HW116274   4.927   1.469   3.441
 5246SOL    HW216275   4.883   1.523   3.307
 5247SOL     OW16276   4.044   0.957   2.112
 5247SOL    HW116277   4.126   0.976   2.066
 5247SOL    HW216278   4.013   0.875   2.074
 5248SOL     OW16279   4.190   1.264   3.600
 5248SOL    HW116280   4.163   1.269   3.508
 5248SOL    HW216281   4.108   1.263   3.649
 5249SOL     OW16282   4.832   1.775   2.099
 5249SOL    HW116283   4.760   1.730   2.143
 5249SOL    HW216284   4.857   1.715   2.028
 5250SOL     OW16285   3.921   0.278   3.365
 5250SOL    HW116286   3.842   0.331   3.361
 5250SOL    HW216287   3.913   0.229   3.447
 5251SOL     OW16288   4.190   1.737   2.183
 5251SOL    HW116289   4.232   1.794   2.247
 5251SOL    HW216290   4.261   1.706   2.127
 5252SOL     OW16291   5.098   0.099   2.282
 5252SOL    HW116292   5.084   0.082   2.189
 5252SOL    HW216293   5.192   0.118   2.289
 5253SOL     OW16294   3.978   1.791   3.094
 5253SOL    HW116295   4.031   1.726   3.140
 5253SOL    HW216296   3.971   1.757   3.005
 5254SOL     OW16297   4.662   1.698   2.761
 5254SOL    HW116298   4.741   1.648   2.779
 5254SOL    HW216299   4.617   1.649   2.692
 5255SOL     OW16300   4.117   0.696   2.338
 5255SOL    HW116301   4.138   0.603   2.349
 5255SOL    HW216302   4.023   0.702   2.356
 5256SOL     OW16303   4.346   0.133   1.969
 5256SOL    HW116304   4.418   0.073   1.989
 5256SOL    HW216305   4.297   0.091   1.899
 5257SOL     OW16306   4.508   0.311   3.629
 5257SOL    HW116307   4.571   0.239   3.628
 5257SOL    HW216308   4.459   0.299   3.710
 5258SOL     OW16309   4.599   1.521   3.056
 5258SOL    HW116310   4.584   1.486   2.968
 5258SOL    HW216311   4.670   1.468   3.092
 5259SOL     OW16312   5.060   0.592   3.293
 5259SOL    HW116313   5.090   0.561   3.379
 5259SOL    HW216314   5.099   0.678   3.283
 5260SOL     OW16315   4.538   1.395   2.801
 5260SOL    HW116316   4.623   1.383   2.758
 5260SOL    HW216317   4.474   1.396   2.730
 5261SOL     OW16318   4.651   0.511   2.765
 5261SOL    HW116319   4.628   0.501   2.672
 5261SOL    HW216320   4.682   0.424   2.791
 5262SOL     OW16321   4.266   0.062   2.371
 5262SOL    HW116322   4.180   0.061   2.413
 5262SOL    HW216323   4.259   0.132   2.305
 5263SOL     OW16324   5.136   1.180   1.906
 5263SOL    HW116325   5.145   1.102   1.960
 5263SOL    HW216326   5.049   1.214   1.926
 5264SOL     OW16327   4.026   0.062   2.053
 5264SOL    HW116328   4.085   0.131   2.023
 5264SOL    HW216329   4.082   5.285   2.063
 5265SOL     OW16330   4.661   0.262   2.325
 5265SOL    HW116331   4.632   0.296   2.240
 5265SOL    HW216332   4.756   0.276   2.325
 5266SOL     OW16333   4.802   0.681   3.323
 5266SOL    HW116334   4.733   0.615   3.325
 5266SOL    HW216335   4.883   0.631   3.312
 5267SOL     OW16336   4.940   1.571   2.656
 5267SOL    HW116337   4.962   1.638   2.591
 5267SOL    HW216338   5.021   1.559   2.707
 5268SOL     OW16339   4.193   1.149   2.595
 5268SOL    HW116340   4.123   1.130   2.659
 5268SOL    HW216341   4.153   1.133   2.510
 5269SOL     OW16342   4.996   1.794   2.467
 5269SOL    HW116343   5.038   1.855   2.407
 5269SOL    HW216344   4.929   1.846   2.512
 5270SOL     OW16345   4.753   0.550   1.881
 5270SOL    HW116346   4.705   0.632   1.864
 5270SOL    HW216347   4.807   0.570   1.958
 5271SOL     OW16348   3.803   0.553   3.255
 5271SOL    HW116349   3.894   0.553   3.227
 5271SOL    HW216350   3.797   0.624   3.319
 5272SOL     OW16351   4.279   0.238   3.020
 5272SOL    HW116352   4.312   0.153   3.049
 5272SOL    HW216353   4.188   0.239   3.047
 5273SOL     OW16354   4.593   0.464   2.502
 5273SOL    HW116355   4.544   0.516   2.439
 5273SOL    HW216356   4.613   0.383   2.456
 5274SOL     OW16357   4.699   0.063   2.625
 5274SOL    HW116358   4.635   0.055   2.555
 5274SOL    HW216359   4.714   5.273   2.655
 5275SOL     OW16360   5.157   1.176   2.713
 5275SOL    HW116361   5.101   1.100   2.726
 5275SOL    HW216362   5.168   1.181   2.618
 5276SOL     OW16363   4.215   1.418   2.018
 5276SOL    HW116364   4.140   1.389   2.071
 5276SOL    HW216365   4.200   1.379   1.932
 5277SOL     OW16366   5.128   0.559   1.943
 5277SOL    HW116367   5.052   0.551   2.001
 5277SOL    HW216368   5.202   0.531   1.998
 5278SOL     OW16369   4.248   0.265   2.184
 5278SOL    HW116370   4.291   0.215   2.115
 5278SOL    HW216371   4.227   0.349   2.143
 5279SOL     OW16372   4.781   1.354   3.195
 5279SOL    HW116373   4.705   1.323   3.246
 5279SOL    HW216374   4.856   1.311   3.236
 5280SOL     OW16375   0.006   1.604   3.478
 5280SOL    HW116376   0.040   1.609   3.389
 5280SOL    HW216377   0.083   1.584   3.532
 5281SOL     OW16378   4.853   1.203   2.968
 5281SOL    HW116379   4.791   1.239   3.032
 5281SOL    HW216380   4.819   1.232   2.884
 5282SOL     OW16381   4.624   0.105   3.249
 5282SOL    HW116382   4.658   0.070   3.166
 5282SOL    HW216383   4.700   0.148   3.289
 5283SOL     OW16384   4.709   1.113   3.587
 5283SOL    HW116385   4.617   1.130   3.607
 5283SOL    HW216386   4.706   1.036   3.530
 5284SOL     OW16387   4.433   1.062   2.233
 5284SOL    HW116388   4.418   1.045   2.326
 5284SOL    HW216389   4.508   1.008   2.210
 5285SOL     OW16390   4.143   0.815   3.113
 5285SOL    HW116391   4.211   0.824   3.180
 5285SOL    HW216392   4.107   0.727   3.127
 5286SOL     OW16393   4.991   0.380   3.132
 5286SOL    HW116394   5.024   0.458   3.176
 5286SOL    HW216395   4.901   0.402   3.110
 5287SOL     OW16396   3.795   1.573   3.214
 5287SOL    HW116397   3.765   1.647   3.161
 5287SOL    HW216398   3.890   1.576   3.210
 5288SOL     OW16399   4.073   1.109   2.353
 5288SOL    HW116400   4.078   1.183   2.291
 5288SOL    HW216401   4.070   1.031   2.297
 5289SOL     OW16402   4.277   0.538   2.723
 5289SOL    HW116403   4.293   0.596   2.648
 5289SOL    HW216404   4.343   0.564   2.787
 5290SOL     OW16405   4.972   1.349   2.249
 5290SOL    HW116406   5.026   1.422   2.280
 5290SOL    HW216407   4.884   1.369   2.283
 5291SOL     OW16408   4.994   1.456   3.001
 5291SOL    HW116409   5.049   1.458   3.080
 5291SOL    HW216410   4.940   1.378   3.012
 5292SOL     OW16411   4.071   1.527   3.177
 5292SOL    HW116412   4.058   1.484   3.092
 5292SOL    HW216413   4.165   1.539   3.184
 5293SOL     OW16414   4.138   0.744   3.464
 5293SOL    HW116415   4.200   0.789   3.406
 5293SOL    HW216416   4.179   0.660   3.481
 5294SOL     OW16417   4.754   0.118   3.619
 5294SOL    HW116418   4.796   0.199   3.592
 5294SOL    HW216419   4.794   0.050   3.564
 5295SOL     OW16420   4.203   0.058   3.599
 5295SOL    HW116421   4.144   5.293   3.560
 5295SOL    HW216422   4.147   0.131   3.621
 5296SOL     OW16423   4.308   0.873   2.893
 5296SOL    HW116424   4.337   0.964   2.893
 5296SOL    HW216425   4.251   0.867   2.970
 5297SOL     OW16426   5.086   0.857   2.899
 5297SOL    HW116427   5.008   0.839   2.845
 5297SOL    HW216428   5.138   0.777   2.893
 5298SOL     OW16429   4.929   0.531   2.128
 5298SOL    HW116430   4.933   0.451   2.179
 5298SOL    HW216431   4.885   0.594   2.185
 5299SOL     OW16432   4.020   0.204   3.110
 5299SOL    HW116433   3.981   0.243   3.188
 5299SOL    HW216434   4.020   0.109   3.127
 5300SOL     OW16435   3.769   1.311   3.138
 5300SOL    HW116436   3.803   1.256   3.209
 5300SOL    HW216437   3.777   1.400   3.171
 5301SOL     OW16438   4.450   0.632   2.922
 5301SOL    HW116439   4.523   0.615   2.863
 5301SOL    HW216440   4.421   0.720   2.898
 5302SOL     OW16441   4.027   0.072   2.514
 5302SOL    HW116442   4.009   0.166   2.521
 5302SOL    HW216443   4.071   0.050   2.596
 5303SOL     OW16444   0.029   0.408   2.227
 5303SOL    HW116445   0.059   0.346   2.293
 5303SOL    HW216446   0.006   0.486   2.276
 5304SOL     OW16447   4.752   0.759   2.822
 5304SOL    HW116448   4.749   0.777   2.916
 5304SOL    HW216449   4.725   0.667   2.814
 5305SOL     OW16450   4.698   1.561   3.576
 5305SOL    HW116451   4.687   1.609   3.493
 5305SOL    HW216452   4.746   1.482   3.551
 5306SOL     OW16453   4.077   0.916   3.670
 5306SOL    HW116454   4.159   0.935   3.716
 5306SOL    HW216455   4.101   0.853   3.602
 5307SOL     OW16456   5.028   0.829   1.899
 5307SOL    HW116457   5.063   0.740   1.899
 5307SOL    HW216458   5.054   0.865   1.814
 5308SOL     OW16459   4.789   1.334   2.717
 5308SOL    HW116460   4.793   1.262   2.654
 5308SOL    HW216461   4.847   1.401   2.681
 5309SOL     OW16462   4.033   0.809   2.810
 5309SOL    HW116463   4.126   0.830   2.802
 5309SOL    HW216464   4.031   0.719   2.841
 5310SOL     OW16465   4.056   0.526   2.874
 5310SOL    HW116466   4.020   0.439   2.859
 5310SOL    HW216467   4.133   0.531   2.817
 5311SOL     OW16468   4.861   0.377   3.552
 5311SOL    HW116469   4.811   0.431   3.613
 5311SOL    HW216470   4.946   0.422   3.544
 5312SOL     OW16471   4.847   0.233   3.321
 5312SOL    HW116472   4.858   0.283   3.401
 5312SOL    HW216473   4.911   0.270   3.260
 5313SOL     OW16474   3.729   1.321   2.057
 5313SOL    HW116475   3.642   1.335   2.019
 5313SOL    HW216476   3.726   1.232   2.091
 5314SOL     OW16477   3.814   1.787   2.800
 5314SOL    HW116478   3.784   1.707   2.756
 5314SOL    HW216479   3.904   1.799   2.769
 5315SOL     OW16480   4.220   1.574   2.768
 5315SOL    HW116481   4.289   1.636   2.792
 5315SOL    HW216482   4.265   1.510   2.711
 5316SOL     OW16483   4.707   0.793   3.089
 5316SOL    HW116484   4.762   0.769   3.163
 5316SOL    HW216485   4.622   0.754   3.108
 5317SOL     OW16486   3.759   0.544   2.979
 5317SOL    HW116487   3.839   0.529   2.928
 5317SOL    HW216488   3.789   0.548   3.070
 5318SOL     OW16489   3.911   0.522   3.589
 5318SOL    HW116490   3.974   0.486   3.527
 5318SOL    HW216491   3.871   0.596   3.543
 5319SOL     OW16492   5.113   0.938   3.528
 5319SOL    HW116493   5.121   1.032   3.516
 5319SOL    HW216494   5.115   0.902   3.439
 5320SOL     OW16495   4.539   0.573   2.222
 5320SOL    HW116496   4.541   0.498   2.164
 5320SOL    HW216497   4.464   0.625   2.192
 5321SOL     OW16498   3.967   1.551   3.589
 5321SOL    HW116499   3.945   1.616   3.656
 5321SOL    HW216500   3.969   1.468   3.636
 5322SOL     OW16501   4.422   0.452   3.123
 5322SOL    HW116502   4.372   0.378   3.089
 5322SOL    HW216503   4.422   0.516   3.051
 5323SOL     OW16504   4.645   1.680   3.330
 5323SOL    HW116505   4.623   1.647   3.243
 5323SOL    HW216506   4.646   1.775   3.321
 5324SOL     OW16507   4.187   0.493   2.045
 5324SOL    HW116508   4.247   0.564   2.069
 5324SOL    HW216509   4.102   0.535   2.036
 5325SOL     OW16510   3.870   1.141   3.334
 5325SOL    HW116511   3.872   1.089   3.415
 5325SOL    HW216512   3.887   1.077   3.265
 5326SOL     OW16513   5.054   1.049   3.086
 5326SOL    HW116514   5.075   0.984   3.019
 5326SOL    HW216515   4.982   1.100   3.048
 5327SOL     OW16516   5.036   0.858   2.178
 5327SOL    HW116517   4.953   0.827   2.216
 5327SOL    HW216518   5.023   0.851   2.084
 5328SOL     OW16519   4.959   1.731   2.983
 5328SOL    HW116520   5.045   1.752   2.946
 5328SOL    HW216521   4.960   1.636   2.993
 5329SOL     OW16522   3.808   1.267   2.874
 5329SOL    HW116523   3.793   1.279   2.968
 5329SOL    HW216524   3.735   1.212   2.845
 5330SOL     OW16525   4.401   1.665   3.591
 5330SOL    HW116526   4.349   1.745   3.585
 5330SOL    HW216527   4.470   1.676   3.525
 5331SOL     OW16528   5.111   1.570   2.343
 5331SOL    HW116529   5.181   1.611   2.291
 5331SOL    HW216530   5.061   1.644   2.378
 5332SOL     OW16531   3.860   1.796   3.705
 5332SOL    HW116532   3.810   1.731   3.754
 5332SOL    HW216533   3.908   1.845   3.773
 5333SOL     OW16534   5.016   0.920   2.534
 5333SOL    HW116535   5.094   0.865   2.521
 5333SOL    HW216536   5.035   1.000   2.486
 5334SOL     OW16537   4.538   1.273   3.292
 5334SOL    HW116538   4.510   1.313   3.375
 5334SOL    HW216539   4.469   1.296   3.230
 5335SOL     OW16540   4.395   1.620   2.017
 5335SOL    HW116541   4.406   1.632   1.923
 5335SOL    HW216542   4.340   1.542   2.025
 5336SOL     OW16543   3.986   0.329   2.581
 5336SOL    HW116544   3.898   0.360   2.559
 5336SOL    HW216545   3.984   0.317   2.676
 5337SOL     OW16546   4.908   1.609   1.904
 5337SOL    HW116547   4.920   1.514   1.914
 5337SOL    HW216548   4.854   1.618   1.825
 5338SOL     OW16549   4.548   1.006   3.235
 5338SOL    HW116550   4.591   1.001   3.150
 5338SOL    HW216551   4.547   1.099   3.256
 5339SOL     OW16552   4.641   0.912   2.152
 5339SOL    HW116553   4.702   0.943   2.086
 5339SOL    HW216554   4.687   0.840   2.196
 5340SOL     OW16555   4.093   1.303   3.354
 5340SOL    HW116556   4.080   1.380   3.299
 5340SOL    HW216557   4.016   1.248   3.337
 5341SOL     OW16558   4.776   1.107   2.569
 5341SOL    HW116559   4.705   1.057   2.609
 5341SOL    HW216560   4.834   1.040   2.531
 5342SOL     OW16561   4.738   0.242   2.833
 5342SOL    HW116562   4.719   0.197   2.751
 5342SOL    HW216563   4.733   0.174   2.900
 5343SOL     OW16564   4.327   1.488   2.344
 5343SOL    HW116565   4.371   1.438   2.275
 5343SOL    HW216566   4.258   1.536   2.297
 5344SOL     OW16567   3.983   1.345   2.150
 5344SOL    HW116568   3.890   1.343   2.128
 5344SOL    HW216569   3.986   1.382   2.239
 5345SOL     OW16570   3.836   1.022   3.581
 5345SOL    HW116571   3.760   0.999   3.634
 5345SOL    HW216572   3.911   0.984   3.628
 5346SOL     OW16573   4.396   0.213   3.352
 5346SOL    HW116574   4.479   0.192   3.308
 5346SOL    HW216575   4.422   0.261   3.430
 5347SOL     OW16576   3.801   0.339   1.904
 5347SOL    HW116577   3.718   0.306   1.870
 5347SOL    HW216578   3.822   0.413   1.846
 5348SOL     OW16579   5.163   0.860   3.265
 5348SOL    HW116580   5.110   0.916   3.209
 5348SOL    HW216581   5.252   0.869   3.232
 5349SOL     OW16582   3.796   0.167   2.177
 5349SOL    HW116583   3.797   0.250   2.129
 5349SOL    HW216584   3.881   0.127   2.158
 5350SOL     OW16585   4.907   1.329   1.976
 5350SOL    HW116586   4.813   1.311   1.977
 5350SOL    HW216587   4.931   1.336   2.068
 5351SOL     OW16588   4.343   0.831   3.295
 5351SOL    HW116589   4.399   0.907   3.280
 5351SOL    HW216590   4.404   0.757   3.303
 5352SOL     OW16591   4.440   0.571   3.565
 5352SOL    HW116592   4.480   0.633   3.625
 5352SOL    HW216593   4.469   0.485   3.595
 5353SOL     OW16594   5.182   1.204   3.494
 5353SOL    HW116595   5.173   1.217   3.588
 5353SOL    HW216596   5.276   1.212   3.478
 5354SOL     OW16597   4.103   1.739   3.426
 5354SOL    HW116598   4.018   1.781   3.412
 5354SOL    HW216599   4.083   1.656   3.468
 5355SOL     OW16600   4.941   0.323   2.323
 5355SOL    HW116601   4.997   0.246   2.316
 5355SOL    HW216602   4.972   0.369   2.402
 5356SOL     OW16603   4.314   0.738   2.532
 5356SOL    HW116604   4.353   0.824   2.515
 5356SOL    HW216605   4.246   0.729   2.465
 5357SOL     OW16606   4.591   1.366   1.897
 5357SOL    HW116607   4.549   1.396   1.978
 5357SOL    HW216608   4.606   1.446   1.847
 5358SOL     OW16609   4.384   1.791   2.806
 5358SOL    HW116610   4.364   1.882   2.783
 5358SOL    HW216611   4.479   1.785   2.800
 5359SOL     OW16612   4.592   0.967   2.717
 5359SOL    HW116613   4.641   0.895   2.757
 5359SOL    HW216614   4.557   1.016   2.792
 5360SOL     OW16615   4.807   0.988   1.952
 5360SOL    HW116616   4.782   1.037   1.874
 5360SOL    HW216617   4.881   0.934   1.924
 5361SOL     OW16618   3.949   1.303   3.718
 5361SOL    HW116619   3.882   1.242   3.689
 5361SOL    HW216620   3.931   1.315   3.811
 5362SOL     OW16621   3.808   1.234   2.527
 5362SOL    HW116622   3.813   1.185   2.609
 5362SOL    HW216623   3.876   1.195   2.472
 5363SOL     OW16624   4.405   1.402   3.491
 5363SOL    HW116625   4.325   1.360   3.521
 5363SOL    HW216626   4.401   1.491   3.526
 5364SOL     OW16627   4.154   0.436   2.386
 5364SOL    HW116628   4.186   0.363   2.332
 5364SOL    HW216629   4.107   0.393   2.458
 5365SOL     OW16630   0.095   1.520   2.961
 5365SOL    HW116631   0.027   1.497   2.898
 5365SOL    HW216632   0.101   1.445   3.020
 5366SOL     OW16633   4.053   0.556   3.152
 5366SOL    HW116634   4.109   0.501   3.208
 5366SOL    HW216635   4.073   0.528   3.063
 5367SOL     OW16636   4.552   1.577   2.539
 5367SOL    HW116637   4.540   1.631   2.461
 5367SOL    HW216638   4.475   1.521   2.541
 5368SOL     OW16639   5.150   0.216   2.982
 5368SOL    HW116640   5.159   0.133   3.030
 5368SOL    HW216641   5.104   0.274   3.043
 5369SOL     OW16642   4.725   0.020   3.001
 5369SOL    HW116643   4.674   5.251   2.959
 5369SOL    HW216644   4.812   5.282   3.013
 5370SOL     OW16645   4.495   1.333   2.177
 5370SOL    HW116646   4.464   1.242   2.183
 5370SOL    HW216647   4.577   1.333   2.226
 5371SOL     OW16648   4.344   1.556   3.147
 5371SOL    HW116649   4.346   1.639   3.196
 5371SOL    HW216650   4.431   1.549   3.109
 5372SOL     OW16651   5.035   0.034   2.021
 5372SOL    HW116652   5.117   0.027   1.972
 5372SOL    HW216653   4.984   5.258   1.994
 5373SOL     OW16654   5.028   0.461   2.547
 5373SOL    HW116655   4.972   0.538   2.552
 5373SOL    HW216656   5.016   0.418   2.632
 5374SOL     OW16657   5.295   0.214   2.745
 5374SOL    HW116658   5.237   0.215   2.821
 5374SOL    HW216659   5.276   0.295   2.698
 5375SOL     OW16660   3.768   1.071   2.168
 5375SOL    HW116661   3.861   1.062   2.150
 5375SOL    HW216662   3.739   0.982   2.191
 5376SOL     OW16663   4.604   1.650   2.208
 5376SOL    HW116664   4.533   1.635   2.145
 5376SOL    HW216665   4.577   1.727   2.257
 5377SOL     OW16666   3.952   0.626   3.847
 5377SOL    HW116667   3.863   0.622   3.883
 5377SOL    HW216668   3.942   0.599   3.755
 5378SOL     OW16669   3.942   0.284   4.717
 5378SOL    HW116670   3.971   0.249   4.801
 5378SOL    HW216671   3.857   0.243   4.701
 5379SOL     OW16672   3.728   0.386   4.362
 5379SOL    HW116673   3.643   0.407   4.402
 5379SOL    HW216674   3.710   0.309   4.309
 5380SOL     OW16675   4.291   1.288   4.899
 5380SOL    HW116676   4.203   1.291   4.861
 5380SOL    HW216677   4.306   1.376   4.932
 5381SOL     OW16678   5.285   1.535   4.430
 5381SOL    HW116679   5.246   1.493   4.506
 5381SOL    HW216680   5.220   1.527   4.361
 5382SOL     OW16681   4.860   0.698   4.425
 5382SOL    HW116682   4.909   0.780   4.415
 5382SOL    HW216683   4.810   0.710   4.505
 5383SOL     OW16684   4.479   1.142   4.765
 5383SOL    HW116685   4.410   1.177   4.822
 5383SOL    HW216686   4.514   1.219   4.720
 5384SOL     OW16687   4.592   0.776   5.547
 5384SOL    HW116688   4.574   0.848   5.608
 5384SOL    HW216689   4.614   0.820   5.465
 5385SOL     OW16690   4.411   1.003   4.371
 5385SOL    HW116691   4.475   0.991   4.441
 5385SOL    HW216692   4.341   1.055   4.411
 5386SOL     OW16693   4.435   1.151   5.537
 5386SOL    HW116694   4.482   1.230   5.564
 5386SOL    HW216695   4.352   1.184   5.501
 5387SOL     OW16696   4.054   1.425   4.792
 5387SOL    HW116697   3.982   1.387   4.742
 5387SOL    HW216698   4.104   1.476   4.727
 5388SOL     OW16699   5.161   1.481   5.075
 5388SOL    HW116700   5.206   1.561   5.100
 5388SOL    HW216701   5.105   1.460   5.150
 5389SOL     OW16702   4.168   0.398   5.210
 5389SOL    HW116703   4.244   0.339   5.209
 5389SOL    HW216704   4.093   0.341   5.225
 5390SOL     OW16705   3.943   1.714   4.196
 5390SOL    HW116706   3.965   1.790   4.249
 5390SOL    HW216707   4.016   1.706   4.134
 5391SOL     OW16708   4.860   1.340   5.418
 5391SOL    HW116709   4.898   1.336   5.505
 5391SOL    HW216710   4.807   1.260   5.411
 5392SOL     OW16711   3.954   1.441   4.259
 5392SOL    HW116712   3.937   1.535   4.263
 5392SOL    HW216713   3.894   1.403   4.323
 5393SOL     OW16714   3.982   1.090   4.615
 5393SOL    HW116715   3.978   1.004   4.656
 5393SOL    HW216716   3.924   1.144   4.669
 5394SOL     OW16717   4.333   1.792   5.151
 5394SOL    HW116718   4.252   1.774   5.199
 5394SOL    HW216719   4.358   1.881   5.178
 5395SOL     OW16720   4.310   0.982   3.858
 5395SOL    HW116721   4.355   1.031   3.790
 5395SOL    HW216722   4.349   1.012   3.940
 5396SOL     OW16723   5.251   0.143   5.203
 5396SOL    HW116724   5.298   0.224   5.184
 5396SOL    HW216725   5.275   0.123   5.293
 5397SOL     OW16726   3.839   0.654   4.283
 5397SOL    HW116727   3.811   0.564   4.305
 5397SOL    HW216728   3.831   0.701   4.366
 5398SOL     OW16729   3.755   1.595   3.848
 5398SOL    HW116730   3.739   1.503   3.868
 5398SOL    HW216731   3.732   1.642   3.928
 5399SOL     OW16732   0.112   0.940   4.299
 5399SOL    HW116733   0.200   0.904   4.315
 5399SOL    HW216734   0.128   1.026   4.260
 5400SOL     OW16735   3.846   0.744   5.308
 5400SOL    HW116736   3.938   0.770   5.317
 5400SOL    HW216737   3.797   0.826   5.317
 5401SOL     OW16738   4.337   1.386   4.459
 5401SOL    HW116739   4.291   1.302   4.469
 5401SOL    HW216740   4.321   1.412   4.369
 5402SOL     OW16741   5.007   1.237   5.149
 5402SOL    HW116742   5.040   1.170   5.089
 5402SOL    HW216743   5.062   1.228   5.227
 5403SOL     OW16744   4.535   0.027   4.253
 5403SOL    HW116745   4.563   0.114   4.227
 5403SOL    HW216746   4.439   0.029   4.246
 5404SOL     OW16747   3.914   0.966   4.995
 5404SOL    HW116748   3.999   0.924   4.980
 5404SOL    HW216749   3.851   0.912   4.948
 5405SOL     OW16750   4.897   1.807   5.347
 5405SOL    HW116751   4.918   1.866   5.275
 5405SOL    HW216752   4.919   1.720   5.315
 5406SOL     OW16753   4.050   0.266   5.535
 5406SOL    HW116754   4.102   0.341   5.564
 5406SOL    HW216755   3.964   0.281   5.574
 5407SOL     OW16756   5.169   1.435   4.660
 5407SOL    HW116757   5.106   1.442   4.733
 5407SOL    HW216758   5.162   1.344   4.632
 5408SOL     OW16759   4.319   0.722   3.990
 5408SOL    HW116760   4.323   0.803   3.940
 5408SOL    HW216761   4.253   0.739   4.058
 5409SOL     OW16762   4.996   0.329   4.642
 5409SOL    HW116763   4.907   0.305   4.666
 5409SOL    HW216764   5.049   0.301   4.717
 5410SOL     OW16765   4.518   0.618   5.174
 5410SOL    HW116766   4.490   0.596   5.263
 5410SOL    HW216767   4.476   0.552   5.119
 5411SOL     OW16768   5.117   0.487   5.404
 5411SOL    HW116769   5.118   0.521   5.493
 5411SOL    HW216770   5.183   0.418   5.403
 5412SOL     OW16771   4.679   0.888   5.306
 5412SOL    HW116772   4.731   0.816   5.271
 5412SOL    HW216773   4.630   0.922   5.231
 5413SOL     OW16774   4.718   0.422   4.955
 5413SOL    HW116775   4.633   0.437   4.997
 5413SOL    HW216776   4.698   0.367   4.879
 5414SOL     OW16777   4.775   0.698   4.149
 5414SOL    HW116778   4.790   0.691   4.244
 5414SOL    HW216779   4.692   0.652   4.135
 5415SOL     OW16780   3.812   0.821   4.501
 5415SOL    HW116781   3.893   0.814   4.551
 5415SOL    HW216782   3.769   0.899   4.535
 5416SOL     OW16783   3.851   1.848   5.302
 5416SOL    HW116784   3.851   1.827   5.395
 5416SOL    HW216785   3.759   1.840   5.275
 5417SOL     OW16786   4.599   0.362   3.914
 5417SOL    HW116787   4.635   0.419   3.846
 5417SOL    HW216788   4.651   0.282   3.910
 5418SOL     OW16789   5.092   1.147   4.272
 5418SOL    HW116790   5.180   1.148   4.233
 5418SOL    HW216791   5.041   1.206   4.217
 5419SOL     OW16792   4.250   0.202   4.606
 5419SOL    HW116793   4.272   0.217   4.698
 5419SOL    HW216794   4.272   0.284   4.563
 5420SOL     OW16795   4.730   1.443   4.196
 5420SOL    HW116796   4.692   1.516   4.147
 5420SOL    HW216797   4.712   1.465   4.288
 5421SOL     OW16798   4.079   1.809   4.586
 5421SOL    HW116799   4.123   1.724   4.594
 5421SOL    HW216800   4.148   1.873   4.604
 5422SOL     OW16801   4.940   1.542   5.243
 5422SOL    HW116802   4.927   1.469   5.303
 5422SOL    HW216803   4.883   1.523   5.169
 5423SOL     OW16804   4.044   0.957   3.974
 5423SOL    HW116805   4.126   0.976   3.928
 5423SOL    HW216806   4.013   0.875   3.936
 5424SOL     OW16807   4.190   1.264   5.462
 5424SOL    HW116808   4.163   1.269   5.370
 5424SOL    HW216809   4.108   1.262   5.511
 5425SOL     OW16810   4.832   1.775   3.961
 5425SOL    HW116811   4.760   1.730   4.005
 5425SOL    HW216812   4.857   1.715   3.890
 5426SOL     OW16813   3.921   0.278   5.227
 5426SOL    HW116814   3.842   0.332   5.223
 5426SOL    HW216815   3.913   0.229   5.309
 5427SOL     OW16816   4.190   1.737   4.045
 5427SOL    HW116817   4.232   1.794   4.109
 5427SOL    HW216818   4.261   1.706   3.989
 5428SOL     OW16819   5.098   0.099   4.144
 5428SOL    HW116820   5.084   0.082   4.051
 5428SOL    HW216821   5.192   0.118   4.151
 5429SOL     OW16822   3.979   1.791   4.956
 5429SOL    HW116823   4.031   1.726   5.002
 5429SOL    HW216824   3.970   1.756   4.867
 5430SOL     OW16825   4.662   1.698   4.623
 5430SOL    HW116826   4.741   1.648   4.641
 5430SOL    HW216827   4.617   1.649   4.554
 5431SOL     OW16828   4.117   0.696   4.200
 5431SOL    HW116829   4.138   0.603   4.211
 5431SOL    HW216830   4.023   0.702   4.218
 5432SOL     OW16831   4.346   0.133   3.831
 5432SOL    HW116832   4.418   0.073   3.851
 5432SOL    HW216833   4.297   0.091   3.761
 5433SOL     OW16834   4.508   0.311   5.491
 5433SOL    HW116835   4.571   0.239   5.490
 5433SOL    HW216836   4.459   0.299   5.572
 5434SOL     OW16837   4.600   1.522   4.918
 5434SOL    HW116838   4.584   1.486   4.830
 5434SOL    HW216839   4.670   1.468   4.954
 5435SOL     OW16840   5.060   0.591   5.155
 5435SOL    HW116841   5.090   0.561   5.241
 5435SOL    HW216842   5.099   0.678   5.145
 5436SOL     OW16843   4.538   1.395   4.663
 5436SOL    HW116844   4.623   1.383   4.620
 5436SOL    HW216845   4.474   1.396   4.592
 5437SOL     OW16846   4.651   0.511   4.627
 5437SOL    HW116847   4.628   0.501   4.534
 5437SOL    HW216848   4.682   0.424   4.653
 5438SOL     OW16849   4.266   0.062   4.232
 5438SOL    HW116850   4.180   0.061   4.275
 5438SOL    HW216851   4.259   0.132   4.167
 5439SOL     OW16852   5.136   1.180   3.768
 5439SOL    HW116853   5.145   1.102   3.823
 5439SOL    HW216854   5.049   1.214   3.788
 5440SOL     OW16855   4.026   0.062   3.915
 5440SOL    HW116856   4.085   0.131   3.885
 5440SOL    HW216857   4.082   5.285   3.925
 5441SOL     OW16858   4.661   0.262   4.187
 5441SOL    HW116859   4.632   0.296   4.102
 5441SOL    HW216860   4.756   0.276   4.187
 5442SOL     OW16861   4.802   0.681   5.185
 5442SOL    HW116862   4.733   0.615   5.187
 5442SOL    HW216863   4.883   0.631   5.174
 5443SOL     OW16864   4.940   1.571   4.518
 5443SOL    HW116865   4.962   1.638   4.453
 5443SOL    HW216866   5.021   1.560   4.569
 5444SOL     OW16867   4.193   1.149   4.457
 5444SOL    HW116868   4.124   1.130   4.521
 5444SOL    HW216869   4.153   1.133   4.372
 5445SOL     OW16870   4.996   1.794   4.329
 5445SOL    HW116871   5.038   1.855   4.269
 5445SOL    HW216872   4.929   1.846   4.374
 5446SOL     OW16873   4.753   0.550   3.743
 5446SOL    HW116874   4.705   0.632   3.726
 5446SOL    HW216875   4.806   0.570   3.820
 5447SOL     OW16876   3.803   0.553   5.117
 5447SOL    HW116877   3.894   0.553   5.089
 5447SOL    HW216878   3.797   0.624   5.181
 5448SOL     OW16879   4.279   0.238   4.882
 5448SOL    HW116880   4.312   0.152   4.911
 5448SOL    HW216881   4.187   0.239   4.908
 5449SOL     OW16882   4.593   0.464   4.364
 5449SOL    HW116883   4.543   0.516   4.301
 5449SOL    HW216884   4.613   0.383   4.318
 5450SOL     OW16885   4.699   0.063   4.487
 5450SOL    HW116886   4.635   0.055   4.417
 5450SOL    HW216887   4.714   5.273   4.517
 5451SOL     OW16888   5.157   1.176   4.575
 5451SOL    HW116889   5.101   1.100   4.588
 5451SOL    HW216890   5.168   1.181   4.480
 5452SOL     OW16891   4.215   1.418   3.880
 5452SOL    HW116892   4.140   1.389   3.933
 5452SOL    HW216893   4.200   1.379   3.794
 5453SOL     OW16894   5.128   0.559   3.805
 5453SOL    HW116895   5.051   0.551   3.863
 5453SOL    HW216896   5.202   0.532   3.860
 5454SOL     OW16897   4.248   0.265   4.046
 5454SOL    HW116898   4.291   0.215   3.977
 5454SOL    HW216899   4.227   0.349   4.005
 5455SOL     OW16900   4.780   1.354   5.057
 5455SOL    HW116901   4.705   1.323   5.108
 5455SOL    HW216902   4.856   1.311   5.098
 5456SOL     OW16903   0.006   1.604   5.340
 5456SOL    HW116904   0.040   1.609   5.251
 5456SOL    HW216905   0.083   1.584   5.394
 5457SOL     OW16906   4.853   1.203   4.830
 5457SOL    HW116907   4.791   1.238   4.894
 5457SOL    HW216908   4.819   1.232   4.746
 5458SOL     OW16909   4.625   0.105   5.111
 5458SOL    HW116910   4.658   0.070   5.028
 5458SOL    HW216911   4.700   0.148   5.151
 5459SOL     OW16912   4.709   1.113   5.449
 5459SOL    HW116913   4.617   1.130   5.469
 5459SOL    HW216914   4.706   1.036   5.392
 5460SOL     OW16915   4.433   1.062   4.095
 5460SOL    HW116916   4.418   1.045   4.188
 5460SOL    HW216917   4.508   1.008   4.072
 5461SOL     OW16918   4.143   0.815   4.975
 5461SOL    HW116919   4.211   0.824   5.042
 5461SOL    HW216920   4.107   0.727   4.989
 5462SOL     OW16921   4.991   0.380   4.994
 5462SOL    HW116922   5.024   0.458   5.038
 5462SOL    HW216923   4.901   0.402   4.972
 5463SOL     OW16924   3.794   1.573   5.077
 5463SOL    HW116925   3.765   1.646   5.023
 5463SOL    HW216926   3.890   1.577   5.071
 5464SOL     OW16927   4.073   1.109   4.214
 5464SOL    HW116928   4.078   1.183   4.153
 5464SOL    HW216929   4.070   1.032   4.159
 5465SOL     OW16930   4.278   0.537   4.584
 5465SOL    HW116931   4.293   0.596   4.510
 5465SOL    HW216932   4.343   0.564   4.649
 5466SOL     OW16933   4.972   1.349   4.111
 5466SOL    HW116934   5.026   1.422   4.142
 5466SOL    HW216935   4.884   1.369   4.145
 5467SOL     OW16936   4.994   1.456   4.863
 5467SOL    HW116937   5.049   1.458   4.942
 5467SOL    HW216938   4.940   1.378   4.874
 5468SOL     OW16939   4.071   1.527   5.039
 5468SOL    HW116940   4.058   1.485   4.954
 5468SOL    HW216941   4.165   1.539   5.046
 5469SOL     OW16942   4.138   0.745   5.326
 5469SOL    HW116943   4.200   0.789   5.268
 5469SOL    HW216944   4.179   0.660   5.343
 5470SOL     OW16945   4.754   0.118   5.481
 5470SOL    HW116946   4.796   0.199   5.454
 5470SOL    HW216947   4.794   0.050   5.426
 5471SOL     OW16948   4.203   0.058   5.461
 5471SOL    HW116949   4.144   5.293   5.422
 5471SOL    HW216950   4.147   0.131   5.483
 5472SOL     OW16951   4.308   0.873   4.755
 5472SOL    HW116952   4.337   0.964   4.754
 5472SOL    HW216953   4.251   0.867   4.832
 5473SOL     OW16954   5.086   0.857   4.761
 5473SOL    HW116955   5.008   0.839   4.707
 5473SOL    HW216956   5.138   0.777   4.755
 5474SOL     OW16957   4.929   0.531   3.990
 5474SOL    HW116958   4.933   0.451   4.041
 5474SOL    HW216959   4.885   0.594   4.047
 5475SOL     OW16960   4.020   0.204   4.972
 5475SOL    HW116961   3.981   0.243   5.050
 5475SOL    HW216962   4.020   0.110   4.989
 5476SOL     OW16963   3.771   1.311   5.000
 5476SOL    HW116964   3.803   1.256   5.072
 5476SOL    HW216965   3.777   1.400   5.033
 5477SOL     OW16966   4.449   0.632   4.784
 5477SOL    HW116967   4.523   0.615   4.725
 5477SOL    HW216968   4.421   0.720   4.761
 5478SOL     OW16969   4.027   0.072   4.376
 5478SOL    HW116970   4.009   0.166   4.383
 5478SOL    HW216971   4.071   0.050   4.458
 5479SOL     OW16972   0.029   0.408   4.089
 5479SOL    HW116973   0.059   0.346   4.155
 5479SOL    HW216974   0.006   0.486   4.138
 5480SOL     OW16975   4.752   0.759   4.684
 5480SOL    HW116976   4.749   0.777   4.778
 5480SOL    HW216977   4.725   0.667   4.676
 5481SOL     OW16978   4.698   1.562   5.438
 5481SOL    HW116979   4.687   1.609   5.355
 5481SOL    HW216980   4.746   1.482   5.413
 5482SOL     OW16981   4.077   0.916   5.533
 5482SOL    HW116982   4.160   0.935   5.578
 5482SOL    HW216983   4.101   0.853   5.465
 5483SOL     OW16984   5.028   0.829   3.761
 5483SOL    HW116985   5.063   0.740   3.761
 5483SOL    HW216986   5.054   0.865   3.676
 5484SOL     OW16987   4.789   1.334   4.579
 5484SOL    HW116988   4.793   1.262   4.516
 5484SOL    HW216989   4.847   1.401   4.543
 5485SOL     OW16990   4.033   0.809   4.671
 5485SOL    HW116991   4.126   0.830   4.664
 5485SOL    HW216992   4.031   0.719   4.703
 5486SOL     OW16993   4.056   0.526   4.736
 5486SOL    HW116994   4.020   0.439   4.721
 5486SOL    HW216995   4.133   0.530   4.679
 5487SOL     OW16996   4.861   0.377   5.414
 5487SOL    HW116997   4.811   0.431   5.475
 5487SOL    HW216998   4.946   0.422   5.406
 5488SOL     OW16999   4.847   0.233   5.183
 5488SOL    HW117000   4.858   0.283   5.263
 5488SOL    HW217001   4.911   0.270   5.122
 5489SOL     OW17002   3.729   1.321   3.919
 5489SOL    HW117003   3.642   1.335   3.881
 5489SOL    HW217004   3.726   1.232   3.953
 5490SOL     OW17005   3.817   1.785   4.663
 5490SOL    HW117006   3.785   1.707   4.619
 5490SOL    HW217007   3.906   1.797   4.631
 5491SOL     OW17008   4.220   1.574   4.629
 5491SOL    HW117009   4.289   1.636   4.654
 5491SOL    HW217010   4.265   1.510   4.573
 5492SOL     OW17011   4.707   0.793   4.951
 5492SOL    HW117012   4.762   0.769   5.025
 5492SOL    HW217013   4.622   0.754   4.970
 5493SOL     OW17014   3.759   0.544   4.841
 5493SOL    HW117015   3.839   0.530   4.790
 5493SOL    HW217016   3.789   0.548   4.932
 5494SOL     OW17017   3.911   0.522   5.451
 5494SOL    HW117018   3.974   0.486   5.389
 5494SOL    HW217019   3.871   0.596   5.405
 5495SOL     OW17020   5.113   0.938   5.390
 5495SOL    HW117021   5.121   1.032   5.378
 5495SOL    HW217022   5.115   0.902   5.301
 5496SOL     OW17023   4.539   0.573   4.084
 5496SOL    HW117024   4.541   0.498   4.026
 5496SOL    HW217025   4.464   0.625   4.054
 5497SOL     OW17026   3.968   1.551   5.452
 5497SOL    HW117027   3.944   1.615   5.519
 5497SOL    HW217028   3.969   1.468   5.498
 5498SOL     OW17029   4.422   0.452   4.985
 5498SOL    HW117030   4.372   0.378   4.951
 5498SOL    HW217031   4.422   0.516   4.913
 5499SOL     OW17032   4.645   1.680   5.192
 5499SOL    HW117033   4.623   1.647   5.105
 5499SOL    HW217034   4.646   1.775   5.183
 5500SOL     OW17035   4.187   0.493   3.907
 5500SOL    HW117036   4.247   0.564   3.931
 5500SOL    HW217037   4.102   0.535   3.898
 5501SOL     OW17038   3.870   1.141   5.197
 5501SOL    HW117039   3.872   1.089   5.277
 5501SOL    HW217040   3.887   1.077   5.127
 5502SOL     OW17041   5.054   1.049   4.948
 5502SOL    HW117042   5.075   0.984   4.881
 5502SOL    HW217043   4.982   1.100   4.911
 5503SOL     OW17044   5.036   0.858   4.040
 5503SOL    HW117045   4.953   0.827   4.078
 5503SOL    HW217046   5.023   0.851   3.946
 5504SOL     OW17047   4.959   1.731   4.845
 5504SOL    HW117048   5.045   1.752   4.809
 5504SOL    HW217049   4.960   1.636   4.855
 5505SOL     OW17050   3.808   1.267   4.736
 5505SOL    HW117051   3.794   1.280   4.830
 5505SOL    HW217052   3.735   1.212   4.708
 5506SOL     OW17053   4.401   1.665   5.453
 5506SOL    HW117054   4.349   1.745   5.446
 5506SOL    HW217055   4.470   1.676   5.387
 5507SOL     OW17056   5.111   1.570   4.205
 5507SOL    HW117057   5.181   1.611   4.153
 5507SOL    HW217058   5.061   1.644   4.240
 5508SOL     OW17059   3.860   1.797   5.567
 5508SOL    HW117060   3.810   1.731   5.615
 5508SOL    HW217061   3.908   1.844   5.635
 5509SOL     OW17062   5.016   0.920   4.396
 5509SOL    HW117063   5.094   0.865   4.383
 5509SOL    HW217064   5.035   1.000   4.348
 5510SOL     OW17065   4.538   1.273   5.154
 5510SOL    HW117066   4.510   1.313   5.237
 5510SOL    HW217067   4.468   1.296   5.092
 5511SOL     OW17068   4.395   1.620   3.879
 5511SOL    HW117069   4.406   1.632   3.785
 5511SOL    HW217070   4.340   1.542   3.887
 5512SOL     OW17071   3.986   0.329   4.443
 5512SOL    HW117072   3.898   0.360   4.421
 5512SOL    HW217073   3.984   0.317   4.538
 5513SOL     OW17074   4.908   1.609   3.766
 5513SOL    HW117075   4.920   1.514   3.776
 5513SOL    HW217076   4.854   1.618   3.688
 5514SOL     OW17077   4.548   1.006   5.097
 5514SOL    HW117078   4.591   1.001   5.012
 5514SOL    HW217079   4.547   1.099   5.118
 5515SOL     OW17080   4.641   0.912   4.014
 5515SOL    HW117081   4.702   0.943   3.948
 5515SOL    HW217082   4.687   0.840   4.058
 5516SOL     OW17083   4.093   1.303   5.216
 5516SOL    HW117084   4.079   1.380   5.161
 5516SOL    HW217085   4.016   1.248   5.200
 5517SOL     OW17086   4.776   1.107   4.431
 5517SOL    HW117087   4.705   1.057   4.471
 5517SOL    HW217088   4.834   1.040   4.393
 5518SOL     OW17089   4.738   0.242   4.695
 5518SOL    HW117090   4.719   0.197   4.613
 5518SOL    HW217091   4.733   0.174   4.762
 5519SOL     OW17092   4.327   1.488   4.206
 5519SOL    HW117093   4.371   1.438   4.137
 5519SOL    HW217094   4.258   1.536   4.159
 5520SOL     OW17095   3.983   1.345   4.012
 5520SOL    HW117096   3.890   1.343   3.990
 5520SOL    HW217097   3.986   1.382   4.101
 5521SOL     OW17098   3.837   1.022   5.443
 5521SOL    HW117099   3.760   0.999   5.496
 5521SOL    HW217100   3.911   0.984   5.491
 5522SOL     OW17101   4.396   0.212   5.214
 5522SOL    HW117102   4.479   0.192   5.170
 5522SOL    HW217103   4.422   0.261   5.292
 5523SOL     OW17104   3.801   0.339   3.766
 5523SOL    HW117105   3.718   0.306   3.732
 5523SOL    HW217106   3.822   0.413   3.708
 5524SOL     OW17107   5.163   0.860   5.127
 5524SOL    HW117108   5.110   0.916   5.071
 5524SOL    HW217109   5.252   0.870   5.094
 5525SOL     OW17110   3.796   0.167   4.039
 5525SOL    HW117111   3.797   0.250   3.991
 5525SOL    HW217112   3.881   0.126   4.019
 5526SOL     OW17113   4.907   1.329   3.838
 5526SOL    HW117114   4.813   1.311   3.839
 5526SOL    HW217115   4.931   1.336   3.930
 5527SOL     OW17116   4.343   0.831   5.157
 5527SOL    HW117117   4.399   0.907   5.142
 5527SOL    HW217118   4.404   0.757   5.165
 5528SOL     OW17119   4.440   0.571   5.427
 5528SOL    HW117120   4.480   0.633   5.487
 5528SOL    HW217121   4.469   0.485   5.457
 5529SOL     OW17122   5.182   1.204   5.356
 5529SOL    HW117123   5.173   1.217   5.450
 5529SOL    HW217124   5.276   1.212   5.340
 5530SOL     OW17125   4.103   1.739   5.289
 5530SOL    HW117126   4.018   1.781   5.275
 5530SOL    HW217127   4.082   1.656   5.330
 5531SOL     OW17128   4.941   0.323   4.185
 5531SOL    HW117129   4.997   0.246   4.178
 5531SOL    HW217130   4.972   0.369   4.264
 5532SOL     OW17131   4.314   0.738   4.393
 5532SOL    HW117132   4.353   0.824   4.377
 5532SOL    HW217133   4.246   0.729   4.327
 5533SOL     OW17134   4.591   1.366   3.759
 5533SOL    HW117135   4.549   1.396   3.840
 5533SOL    HW217136   4.606   1.446   3.709
 5534SOL     OW17137   4.384   1.791   4.668
 5534SOL    HW117138   4.365   1.882   4.645
 5534SOL    HW217139   4.479   1.785   4.662
 5535SOL     OW17140   4.592   0.967   4.579
 5535SOL    HW117141   4.641   0.895   4.619
 5535SOL    HW217142   4.556   1.016   4.654
 5536SOL     OW17143   4.807   0.988   3.814
 5536SOL    HW117144   4.782   1.037   3.736
 5536SOL    HW217145   4.881   0.934   3.786
 5537SOL     OW17146   3.949   1.303   5.580
 5537SOL    HW117147   3.881   1.242   5.550
 5537SOL    HW217148   3.931   1.315   5.673
 5538SOL     OW17149   3.808   1.233   4.389
 5538SOL    HW117150   3.813   1.185   4.471
 5538SOL    HW217151   3.876   1.195   4.334
 5539SOL     OW17152   4.405   1.402   5.353
 5539SOL    HW117153   4.325   1.360   5.383
 5539SOL    HW217154   4.401   1.491   5.388
 5540SOL     OW17155   4.154   0.436   4.248
 5540SOL    HW117156   4.186   0.363   4.195
 5540SOL    HW217157   4.107   0.393   4.320
 5541SOL     OW17158   0.095   1.520   4.823
 5541SOL    HW117159   0.027   1.497   4.760
 5541SOL    HW217160   0.101   1.445   4.881
 5542SOL     OW17161   4.053   0.556   5.014
 5542SOL    HW117162   4.109   0.501   5.070
 5542SOL    HW217163   4.073   0.528   4.925
 5543SOL     OW17164   4.552   1.577   4.401
 5543SOL    HW117165   4.540   1.631   4.323
 5543SOL    HW217166   4.475   1.521   4.403
 5544SOL     OW17167   5.150   0.216   4.844
 5544SOL    HW117168   5.159   0.133   4.892
 5544SOL    HW217169   5.104   0.274   4.905
 5545SOL     OW17170   4.725   0.020   4.863
 5545SOL    HW117171   4.674   5.251   4.821
 5545SOL    HW217172   4.812   5.282   4.875
 5546SOL     OW17173   4.495   1.333   4.039
 5546SOL    HW117174   4.464   1.242   4.045
 5546SOL    HW217175   4.577   1.333   4.088
 5547SOL     OW17176   4.344   1.556   5.009
 5547SOL    HW117177   4.346   1.638   5.058
 5547SOL    HW217178   4.431   1.549   4.971
 5548SOL     OW17179   5.035   0.034   3.883
 5548SOL    HW117180   5.117   0.027   3.835
 5548SOL    HW217181   4.984   5.258   3.856
 5549SOL     OW17182   5.028   0.461   4.409
 5549SOL    HW117183   4.972   0.538   4.414
 5549SOL    HW217184   5.016   0.418   4.494
 5550SOL     OW17185   5.295   0.214   4.607
 5550SOL    HW117186   5.237   0.215   4.683
 5550SOL    HW217187   5.276   0.295   4.561
 5551SOL     OW17188   3.768   1.071   4.030
 5551SOL    HW117189   3.861   1.063   4.012
 5551SOL    HW217190   3.739   0.982   4.053
 5552SOL     OW17191   4.604   1.650   4.070
 5552SOL    HW117192   4.533   1.635   4.007
 5552SOL    HW217193   4.577   1.727   4.119
 5553SOL     OW17194   3.952   0.625   5.709
 5553SOL    HW117195   3.863   0.622   5.745
 5553SOL    HW217196   3.942   0.599   5.617
 5554SOL     OW17197   3.942   0.284   6.579
 5554SOL    HW117198   3.971   0.249   6.663
 5554SOL    HW217199   3.857   0.243   6.563
 5555SOL     OW17200   3.728   0.386   6.224
 5555SOL    HW117201   3.643   0.407   6.264
 5555SOL    HW217202   3.710   0.309   6.171
 5556SOL     OW17203   4.291   1.288   6.761
 5556SOL    HW117204   4.203   1.291   6.723
 5556SOL    HW217205   4.306   1.376   6.794
 5557SOL     OW17206   5.286   1.535   6.292
 5557SOL    HW117207   5.246   1.493   6.368
 5557SOL    HW217208   5.220   1.527   6.223
 5558SOL     OW17209   4.860   0.698   6.287
 5558SOL    HW117210   4.909   0.780   6.277
 5558SOL    HW217211   4.810   0.710   6.367
 5559SOL     OW17212   4.479   1.142   6.627
 5559SOL    HW117213   4.410   1.177   6.684
 5559SOL    HW217214   4.514   1.219   6.582
 5560SOL     OW17215   4.592   0.778   7.408
 5560SOL    HW117216   4.569   0.853   7.463
 5560SOL    HW217217   4.616   0.817   7.324
 5561SOL     OW17218   4.411   1.003   6.233
 5561SOL    HW117219   4.475   0.991   6.303
 5561SOL    HW217220   4.341   1.055   6.273
 5562SOL     OW17221   4.435   1.151   7.398
 5562SOL    HW117222   4.482   1.230   7.425
 5562SOL    HW217223   4.352   1.184   7.362
 5563SOL     OW17224   4.055   1.425   6.654
 5563SOL    HW117225   3.982   1.388   6.604
 5563SOL    HW217226   4.104   1.476   6.589
 5564SOL     OW17227   5.161   1.480   6.938
 5564SOL    HW117228   5.206   1.561   6.963
 5564SOL    HW217229   5.104   1.460   7.012
 5565SOL     OW17230   4.168   0.398   7.074
 5565SOL    HW117231   4.244   0.340   7.072
 5565SOL    HW217232   4.093   0.341   7.087
 5566SOL     OW17233   3.943   1.714   6.058
 5566SOL    HW117234   3.965   1.790   6.112
 5566SOL    HW217235   4.016   1.706   5.997
 5567SOL     OW17236   4.859   1.339   7.278
 5567SOL    HW117237   4.898   1.337   7.365
 5567SOL    HW217238   4.807   1.259   7.273
 5568SOL     OW17239   3.955   1.441   6.121
 5568SOL    HW117240   3.937   1.535   6.125
 5568SOL    HW217241   3.894   1.403   6.185
 5569SOL     OW17242   3.982   1.090   6.477
 5569SOL    HW117243   3.978   1.004   6.518
 5569SOL    HW217244   3.924   1.144   6.531
 5570SOL     OW17245   4.333   1.793   7.012
 5570SOL    HW117246   4.253   1.774   7.061
 5570SOL    HW217247   4.358   1.881   7.039
 5571SOL     OW17248   4.310   0.981   5.720
 5571SOL    HW117249   4.355   1.031   5.652
 5571SOL    HW217250   4.349   1.012   5.802
 5572SOL     OW17251   5.251   0.144   7.064
 5572SOL    HW117252   5.296   0.225   7.045
 5572SOL    HW217253   5.275   0.124   7.155
 5573SOL     OW17254   3.839   0.653   6.145
 5573SOL    HW117255   3.811   0.564   6.167
 5573SOL    HW217256   3.831   0.701   6.228
 5574SOL     OW17257   3.757   1.595   5.710
 5574SOL    HW117258   3.738   1.503   5.729
 5574SOL    HW217259   3.732   1.642   5.789
 5575SOL     OW17260   0.113   0.940   6.161
 5575SOL    HW117261   0.200   0.904   6.177
 5575SOL    HW217262   0.128   1.026   6.122
 5576SOL     OW17263   3.846   0.743   7.171
 5576SOL    HW117264   3.938   0.770   7.179
 5576SOL    HW217265   3.797   0.825   7.179
 5577SOL     OW17266   4.337   1.385   6.321
 5577SOL    HW117267   4.291   1.302   6.331
 5577SOL    HW217268   4.321   1.412   6.231
 5578SOL     OW17269   5.007   1.236   7.010
 5578SOL    HW117270   5.040   1.170   6.950
 5578SOL    HW217271   5.062   1.229   7.088
 5579SOL     OW17272   4.535   0.027   6.115
 5579SOL    HW117273   4.563   0.114   6.089
 5579SOL    HW217274   4.439   0.029   6.108
 5580SOL     OW17275   3.914   0.966   6.858
 5580SOL    HW117276   3.999   0.924   6.842
 5580SOL    HW217277   3.851   0.912   6.809
 5581SOL     OW17278   4.898   1.808   7.209
 5581SOL    HW117279   4.918   1.866   7.136
 5581SOL    HW217280   4.920   1.721   7.177
 5582SOL     OW17281   4.049   0.263   7.402
 5582SOL    HW117282   4.101   0.340   7.425
 5582SOL    HW217283   3.962   0.282   7.438
 5583SOL     OW17284   5.169   1.435   6.522
 5583SOL    HW117285   5.106   1.442   6.595
 5583SOL    HW217286   5.162   1.344   6.494
 5584SOL     OW17287   4.319   0.722   5.852
 5584SOL    HW117288   4.323   0.803   5.802
 5584SOL    HW217289   4.253   0.739   5.920
 5585SOL     OW17290   4.997   0.329   6.504
 5585SOL    HW117291   4.907   0.305   6.528
 5585SOL    HW217292   5.049   0.301   6.579
 5586SOL     OW17293   4.518   0.618   7.036
 5586SOL    HW117294   4.490   0.596   7.125
 5586SOL    HW217295   4.476   0.552   6.981
 5587SOL     OW17296   5.117   0.488   7.265
 5587SOL    HW117297   5.118   0.522   7.354
 5587SOL    HW217298   5.181   0.417   7.266
 5588SOL     OW17299   4.679   0.888   7.168
 5588SOL    HW117300   4.732   0.816   7.132
 5588SOL    HW217301   4.631   0.922   7.093
 5589SOL     OW17302   4.718   0.422   6.817
 5589SOL    HW117303   4.633   0.437   6.859
 5589SOL    HW217304   4.698   0.367   6.741
 5590SOL     OW17305   4.775   0.697   6.011
 5590SOL    HW117306   4.790   0.691   6.106
 5590SOL    HW217307   4.692   0.652   5.997
 5591SOL     OW17308   3.812   0.821   6.363
 5591SOL    HW117309   3.893   0.814   6.413
 5591SOL    HW217310   3.769   0.899   6.397
 5592SOL     OW17311   3.851   1.849   7.165
 5592SOL    HW117312   3.851   1.827   7.258
 5592SOL    HW217313   3.759   1.839   7.138
 5593SOL     OW17314   4.599   0.362   5.776
 5593SOL    HW117315   4.635   0.419   5.708
 5593SOL    HW217316   4.651   0.282   5.772
 5594SOL     OW17317   5.092   1.147   6.133
 5594SOL    HW117318   5.180   1.148   6.095
 5594SOL    HW217319   5.041   1.206   6.078
 5595SOL     OW17320   4.250   0.202   6.468
 5595SOL    HW117321   4.272   0.217   6.560
 5595SOL    HW217322   4.272   0.284   6.425
 5596SOL     OW17323   4.730   1.443   6.058
 5596SOL    HW117324   4.692   1.516   6.009
 5596SOL    HW217325   4.712   1.465   6.150
 5597SOL     OW17326   4.078   1.809   6.448
 5597SOL    HW117327   4.122   1.724   6.456
 5597SOL    HW217328   4.147   1.873   6.466
 5598SOL     OW17329   4.940   1.542   7.104
 5598SOL    HW117330   4.927   1.469   7.165
 5598SOL    HW217331   4.882   1.523   7.031
 5599SOL     OW17332   4.044   0.957   5.836
 5599SOL    HW117333   4.126   0.976   5.790
 5599SOL    HW217334   4.013   0.875   5.798
 5600SOL     OW17335   4.189   1.263   7.323
 5600SOL    HW117336   4.162   1.268   7.232
 5600SOL    HW217337   4.107   1.262   7.373
 5601SOL     OW17338   4.832   1.775   5.823
 5601SOL    HW117339   4.760   1.730   5.867
 5601SOL    HW217340   4.857   1.715   5.752
 5602SOL     OW17341   3.921   0.278   7.088
 5602SOL    HW117342   3.842   0.332   7.083
 5602SOL    HW217343   3.911   0.228   7.169
 5603SOL     OW17344   4.190   1.737   5.907
 5603SOL    HW117345   4.232   1.794   5.971
 5603SOL    HW217346   4.261   1.706   5.851
 5604SOL     OW17347   5.098   0.098   6.006
 5604SOL    HW117348   5.084   0.082   5.913
 5604SOL    HW217349   5.192   0.118   6.013
 5605SOL     OW17350   3.979   1.791   6.818
 5605SOL    HW117351   4.031   1.726   6.864
 5605SOL    HW217352   3.970   1.757   6.729
 5606SOL     OW17353   4.662   1.698   6.485
 5606SOL    HW117354   4.741   1.648   6.503
 5606SOL    HW217355   4.617   1.649   6.416
 5607SOL     OW17356   4.117   0.696   6.062
 5607SOL    HW117357   4.138   0.603   6.073
 5607SOL    HW217358   4.023   0.702   6.080
 5608SOL     OW17359   4.346   0.133   5.693
 5608SOL    HW117360   4.418   0.072   5.713
 5608SOL    HW217361   4.297   0.091   5.623
 5609SOL     OW17362   4.507   0.310   7.350
 5609SOL    HW117363   4.572   0.240   7.351
 5609SOL    HW217364   4.464   0.304   7.435
 5610SOL     OW17365   4.599   1.522   6.779
 5610SOL    HW117366   4.584   1.486   6.692
 5610SOL    HW217367   4.670   1.468   6.816
 5611SOL     OW17368   5.061   0.592   7.017
 5611SOL    HW117369   5.090   0.562   7.102
 5611SOL    HW217370   5.099   0.679   7.007
 5612SOL     OW17371   4.538   1.395   6.525
 5612SOL    HW117372   4.623   1.383   6.482
 5612SOL    HW217373   4.474   1.396   6.454
 5613SOL     OW17374   4.651   0.511   6.489
 5613SOL    HW117375   4.628   0.501   6.396
 5613SOL    HW217376   4.682   0.424   6.515
 5614SOL     OW17377   4.266   0.062   6.094
 5614SOL    HW117378   4.180   0.061   6.137
 5614SOL    HW217379   4.259   0.132   6.029
 5615SOL     OW17380   5.136   1.180   5.630
 5615SOL    HW117381   5.145   1.102   5.685
 5615SOL    HW217382   5.049   1.214   5.650
 5616SOL     OW17383   4.026   0.062   5.777
 5616SOL    HW117384   4.084   0.131   5.746
 5616SOL    HW217385   4.082   5.286   5.787
 5617SOL     OW17386   4.661   0.262   6.049
 5617SOL    HW117387   4.632   0.296   5.964
 5617SOL    HW217388   4.756   0.276   6.049
 5618SOL     OW17389   4.802   0.681   7.047
 5618SOL    HW117390   4.733   0.615   7.049
 5618SOL    HW217391   4.883   0.630   7.036
 5619SOL     OW17392   4.940   1.571   6.380
 5619SOL    HW117393   4.962   1.638   6.315
 5619SOL    HW217394   5.021   1.560   6.431
 5620SOL     OW17395   4.193   1.149   6.319
 5620SOL    HW117396   4.124   1.130   6.383
 5620SOL    HW217397   4.153   1.133   6.234
 5621SOL     OW17398   4.996   1.794   6.191
 5621SOL    HW117399   5.038   1.855   6.131
 5621SOL    HW217400   4.929   1.846   6.236
 5622SOL     OW17401   4.753   0.550   5.605
 5622SOL    HW117402   4.705   0.632   5.588
 5622SOL    HW217403   4.806   0.570   5.682
 5623SOL     OW17404   3.803   0.553   6.979
 5623SOL    HW117405   3.894   0.553   6.951
 5623SOL    HW217406   3.797   0.624   7.043
 5624SOL     OW17407   4.280   0.238   6.744
 5624SOL    HW117408   4.312   0.153   6.773
 5624SOL    HW217409   4.188   0.239   6.770
 5625SOL     OW17410   4.593   0.464   6.226
 5625SOL    HW117411   4.543   0.516   6.163
 5625SOL    HW217412   4.613   0.383   6.180
 5626SOL     OW17413   4.699   0.063   6.349
 5626SOL    HW117414   4.635   0.055   6.279
 5626SOL    HW217415   4.713   5.273   6.379
 5627SOL     OW17416   5.157   1.176   6.437
 5627SOL    HW117417   5.101   1.100   6.450
 5627SOL    HW217418   5.168   1.181   6.342
 5628SOL     OW17419   4.215   1.418   5.743
 5628SOL    HW117420   4.140   1.389   5.795
 5628SOL    HW217421   4.200   1.379   5.656
 5629SOL     OW17422   5.128   0.559   5.667
 5629SOL    HW117423   5.051   0.551   5.725
 5629SOL    HW217424   5.202   0.532   5.722
 5630SOL     OW17425   4.248   0.265   5.908
 5630SOL    HW117426   4.291   0.215   5.839
 5630SOL    HW217427   4.227   0.349   5.867
 5631SOL     OW17428   4.780   1.354   6.919
 5631SOL    HW117429   4.705   1.323   6.970
 5631SOL    HW217430   4.856   1.312   6.960
 5632SOL     OW17431   0.007   1.605   7.202
 5632SOL    HW117432   0.040   1.609   7.113
 5632SOL    HW217433   0.083   1.585   7.256
 5633SOL     OW17434   4.853   1.203   6.692
 5633SOL    HW117435   4.791   1.239   6.757
 5633SOL    HW217436   4.819   1.232   6.608
 5634SOL     OW17437   4.624   0.105   6.973
 5634SOL    HW117438   4.658   0.070   6.890
 5634SOL    HW217439   4.700   0.148   7.013
 5635SOL     OW17440   4.709   1.112   7.313
 5635SOL    HW117441   4.617   1.131   7.331
 5635SOL    HW217442   4.706   1.036   7.255
 5636SOL     OW17443   4.433   1.062   5.957
 5636SOL    HW117444   4.418   1.045   6.050
 5636SOL    HW217445   4.508   1.008   5.934
 5637SOL     OW17446   4.143   0.815   6.837
 5637SOL    HW117447   4.211   0.824   6.904
 5637SOL    HW217448   4.107   0.727   6.851
 5638SOL     OW17449   4.991   0.380   6.856
 5638SOL    HW117450   5.024   0.459   6.900
 5638SOL    HW217451   4.901   0.401   6.834
 5639SOL     OW17452   3.794   1.573   6.939
 5639SOL    HW117453   3.765   1.646   6.884
 5639SOL    HW217454   3.890   1.577   6.933
 5640SOL     OW17455   4.073   1.109   6.076
 5640SOL    HW117456   4.077   1.183   6.015
 5640SOL    HW217457   4.070   1.032   6.021
 5641SOL     OW17458   4.277   0.538   6.447
 5641SOL    HW117459   4.293   0.596   6.372
 5641SOL    HW217460   4.343   0.564   6.511
 5642SOL     OW17461   4.972   1.349   5.973
 5642SOL    HW117462   5.026   1.422   6.004
 5642SOL    HW217463   4.884   1.369   6.007
 5643SOL     OW17464   4.995   1.456   6.726
 5643SOL    HW117465   5.049   1.458   6.804
 5643SOL    HW217466   4.940   1.378   6.736
 5644SOL     OW17467   4.071   1.527   6.901
 5644SOL    HW117468   4.058   1.484   6.816
 5644SOL    HW217469   4.165   1.539   6.908
 5645SOL     OW17470   4.138   0.745   7.188
 5645SOL    HW117471   4.200   0.790   7.130
 5645SOL    HW217472   4.179   0.660   7.205
 5646SOL     OW17473   4.750   0.117   7.338
 5646SOL    HW117474   4.796   0.198   7.317
 5646SOL    HW217475   4.795   0.050   7.286
 5647SOL     OW17476   4.203   0.058   7.322
 5647SOL    HW117477   4.144   5.293   7.284
 5647SOL    HW217478   4.146   0.131   7.346
 5648SOL     OW17479   4.308   0.873   6.618
 5648SOL    HW117480   4.337   0.964   6.616
 5648SOL    HW217481   4.251   0.867   6.694
 5649SOL     OW17482   5.086   0.857   6.623
 5649SOL    HW117483   5.008   0.839   6.569
 5649SOL    HW217484   5.138   0.777   6.617
 5650SOL     OW17485   4.929   0.531   5.852
 5650SOL    HW117486   4.933   0.451   5.903
 5650SOL    HW217487   4.885   0.594   5.909
 5651SOL     OW17488   4.020   0.204   6.833
 5651SOL    HW117489   3.981   0.243   6.911
 5651SOL    HW217490   4.020   0.109   6.851
 5652SOL     OW17491   3.770   1.311   6.862
 5652SOL    HW117492   3.803   1.256   6.934
 5652SOL    HW217493   3.777   1.400   6.895
 5653SOL     OW17494   4.450   0.632   6.646
 5653SOL    HW117495   4.523   0.615   6.587
 5653SOL    HW217496   4.421   0.720   6.623
 5654SOL     OW17497   4.027   0.072   6.238
 5654SOL    HW117498   4.009   0.166   6.245
 5654SOL    HW217499   4.070   0.050   6.320
 5655SOL     OW17500   0.028   0.408   5.951
 5655SOL    HW117501   0.059   0.346   6.017
 5655SOL    HW217502   0.006   0.486   6.000
 5656SOL     OW17503   4.752   0.759   6.546
 5656SOL    HW117504   4.749   0.777   6.640
 5656SOL    HW217505   4.725   0.667   6.538
 5657SOL     OW17506   4.699   1.562   7.300
 5657SOL    HW117507   4.687   1.609   7.218
 5657SOL    HW217508   4.746   1.482   7.275
 5658SOL     OW17509   4.077   0.914   7.396
 5658SOL    HW117510   4.161   0.935   7.439
 5658SOL    HW217511   4.101   0.852   7.327
 5659SOL     OW17512   5.028   0.829   5.623
 5659SOL    HW117513   5.063   0.740   5.623
 5659SOL    HW217514   5.054   0.865   5.538
 5660SOL     OW17515   4.789   1.334   6.441
 5660SOL    HW117516   4.793   1.262   6.378
 5660SOL    HW217517   4.847   1.401   6.405
 5661SOL     OW17518   4.033   0.809   6.534
 5661SOL    HW117519   4.126   0.830   6.526
 5661SOL    HW217520   4.031   0.719   6.565
 5662SOL     OW17521   4.056   0.526   6.599
 5662SOL    HW117522   4.020   0.439   6.583
 5662SOL    HW217523   4.133   0.531   6.541
 5663SOL     OW17524   4.862   0.377   7.275
 5663SOL    HW117525   4.812   0.431   7.336
 5663SOL    HW217526   4.946   0.422   7.266
 5664SOL     OW17527   4.848   0.232   7.044
 5664SOL    HW117528   4.858   0.283   7.125
 5664SOL    HW217529   4.911   0.271   6.984
 5665SOL     OW17530   3.729   1.321   5.781
 5665SOL    HW117531   3.642   1.335   5.743
 5665SOL    HW217532   3.726   1.232   5.815
 5666SOL     OW17533   3.814   1.787   6.524
 5666SOL    HW117534   3.784   1.708   6.480
 5666SOL    HW217535   3.904   1.799   6.493
 5667SOL     OW17536   4.220   1.574   6.492
 5667SOL    HW117537   4.289   1.636   6.516
 5667SOL    HW217538   4.264   1.510   6.435
 5668SOL     OW17539   4.707   0.793   6.813
 5668SOL    HW117540   4.762   0.769   6.887
 5668SOL    HW217541   4.622   0.754   6.832
 5669SOL     OW17542   3.759   0.543   6.703
 5669SOL    HW117543   3.839   0.530   6.652
 5669SOL    HW217544   3.789   0.548   6.794
 5670SOL     OW17545   3.912   0.521   7.313
 5670SOL    HW117546   3.974   0.486   7.249
 5670SOL    HW217547   3.871   0.595   7.268
 5671SOL     OW17548   5.111   0.937   7.253
 5671SOL    HW117549   5.120   1.032   7.241
 5671SOL    HW217550   5.114   0.902   7.164
 5672SOL     OW17551   4.539   0.573   5.946
 5672SOL    HW117552   4.541   0.498   5.888
 5672SOL    HW217553   4.464   0.625   5.916
 5673SOL     OW17554   3.967   1.551   7.313
 5673SOL    HW117555   3.945   1.616   7.381
 5673SOL    HW217556   3.969   1.468   7.360
 5674SOL     OW17557   4.422   0.452   6.847
 5674SOL    HW117558   4.372   0.378   6.813
 5674SOL    HW217559   4.422   0.516   6.775
 5675SOL     OW17560   4.646   1.680   7.054
 5675SOL    HW117561   4.623   1.647   6.967
 5675SOL    HW217562   4.646   1.775   7.045
 5676SOL     OW17563   4.187   0.493   5.769
 5676SOL    HW117564   4.247   0.564   5.793
 5676SOL    HW217565   4.102   0.535   5.760
 5677SOL     OW17566   3.870   1.140   7.059
 5677SOL    HW117567   3.872   1.089   7.139
 5677SOL    HW217568   3.887   1.077   6.989
 5678SOL     OW17569   5.054   1.049   6.810
 5678SOL    HW117570   5.075   0.984   6.743
 5678SOL    HW217571   4.982   1.100   6.773
 5679SOL     OW17572   5.036   0.858   5.902
 5679SOL    HW117573   4.953   0.827   5.940
 5679SOL    HW217574   5.023   0.851   5.808
 5680SOL     OW17575   4.960   1.731   6.707
 5680SOL    HW117576   5.046   1.752   6.670
 5680SOL    HW217577   4.960   1.636   6.717
 5681SOL     OW17578   3.808   1.267   6.598
 5681SOL    HW117579   3.794   1.279   6.692
 5681SOL    HW217580   3.735   1.212   6.570
 5682SOL     OW17581   4.400   1.664   7.313
 5682SOL    HW117582   4.350   1.745   7.309
 5682SOL    HW217583   4.470   1.676   7.248
 5683SOL     OW17584   5.111   1.570   6.067
 5683SOL    HW117585   5.181   1.611   6.015
 5683SOL    HW217586   5.061   1.644   6.102
 5684SOL     OW17587   3.860   1.796   7.430
 5684SOL    HW117588   3.809   1.731   7.479
 5684SOL    HW217589   3.908   1.845   7.497
 5685SOL     OW17590   5.016   0.920   6.258
 5685SOL    HW117591   5.094   0.865   6.245
 5685SOL    HW217592   5.035   1.000   6.210
 5686SOL     OW17593   4.538   1.273   7.016
 5686SOL    HW117594   4.509   1.313   7.099
 5686SOL    HW217595   4.469   1.296   6.954
 5687SOL     OW17596   4.395   1.620   5.741
 5687SOL    HW117597   4.406   1.632   5.647
 5687SOL    HW217598   4.340   1.542   5.749
 5688SOL     OW17599   3.986   0.329   6.305
 5688SOL    HW117600   3.898   0.360   6.283
 5688SOL    HW217601   3.984   0.317   6.400
 5689SOL     OW17602   4.908   1.609   5.628
 5689SOL    HW117603   4.920   1.514   5.638
 5689SOL    HW217604   4.854   1.618   5.550
 5690SOL     OW17605   4.548   1.006   6.959
 5690SOL    HW117606   4.591   1.001   6.874
 5690SOL    HW217607   4.547   1.099   6.980
 5691SOL     OW17608   4.641   0.912   5.876
 5691SOL    HW117609   4.702   0.943   5.810
 5691SOL    HW217610   4.687   0.840   5.920
 5692SOL     OW17611   4.093   1.303   7.078
 5692SOL    HW117612   4.080   1.380   7.023
 5692SOL    HW217613   4.016   1.248   7.061
 5693SOL     OW17614   4.776   1.107   6.293
 5693SOL    HW117615   4.705   1.057   6.333
 5693SOL    HW217616   4.834   1.040   6.255
 5694SOL     OW17617   4.738   0.242   6.557
 5694SOL    HW117618   4.719   0.197   6.475
 5694SOL    HW217619   4.733   0.174   6.624
 5695SOL     OW17620   4.327   1.488   6.068
 5695SOL    HW117621   4.371   1.438   5.999
 5695SOL    HW217622   4.257   1.535   6.022
 5696SOL     OW17623   3.983   1.345   5.875
 5696SOL    HW117624   3.890   1.343   5.852
 5696SOL    HW217625   3.985   1.382   5.963
 5697SOL     OW17626   3.837   1.021   7.305
 5697SOL    HW117627   3.760   0.999   7.358
 5697SOL    HW217628   3.911   0.983   7.353
 5698SOL     OW17629   4.396   0.213   7.076
 5698SOL    HW117630   4.479   0.192   7.033
 5698SOL    HW217631   4.422   0.260   7.155
 5699SOL     OW17632   3.801   0.339   5.627
 5699SOL    HW117633   3.718   0.306   5.594
 5699SOL    HW217634   3.822   0.413   5.570
 5700SOL     OW17635   5.163   0.860   6.989
 5700SOL    HW117636   5.110   0.916   6.933
 5700SOL    HW217637   5.252   0.870   6.956
 5701SOL     OW17638   3.796   0.167   5.901
 5701SOL    HW117639   3.797   0.250   5.853
 5701SOL    HW217640   3.881   0.126   5.881
 5702SOL     OW17641   4.907   1.329   5.700
 5702SOL    HW117642   4.813   1.311   5.701
 5702SOL    HW217643   4.931   1.336   5.792
 5703SOL     OW17644   4.343   0.831   7.019
 5703SOL    HW117645   4.399   0.907   7.004
 5703SOL    HW217646   4.404   0.757   7.027
 5704SOL     OW17647   4.439   0.572   7.289
 5704SOL    HW117648   4.480   0.632   7.350
 5704SOL    HW217649   4.468   0.485   7.318
 5705SOL     OW17650   5.182   1.203   7.217
 5705SOL    HW117651   5.172   1.215   7.311
 5705SOL    HW217652   5.276   1.213   7.201
 5706SOL     OW17653   4.103   1.740   7.150
 5706SOL    HW117654   4.018   1.781   7.137
 5706SOL    HW217655   4.083   1.656   7.192
 5707SOL     OW17656   4.941   0.323   6.047
 5707SOL    HW117657   4.997   0.246   6.040
 5707SOL    HW217658   4.972   0.369   6.126
 5708SOL     OW17659   4.314   0.738   6.256
 5708SOL    HW117660   4.353   0.824   6.239
 5708SOL    HW217661   4.246   0.729   6.189
 5709SOL     OW17662   4.591   1.366   5.621
 5709SOL    HW117663   4.549   1.396   5.702
 5709SOL    HW217664   4.606   1.446   5.571
 5710SOL     OW17665   4.384   1.791   6.530
 5710SOL    HW117666   4.364   1.882   6.507
 5710SOL    HW217667   4.479   1.785   6.524
 5711SOL     OW17668   4.592   0.967   6.441
 5711SOL    HW117669   4.641   0.896   6.481
 5711SOL    HW217670   4.556   1.016   6.516
 5712SOL     OW17671   4.807   0.988   5.677
 5712SOL    HW117672   4.782   1.037   5.598
 5712SOL    HW217673   4.881   0.934   5.648
 5713SOL     OW17674   3.949   1.303   7.443
 5713SOL    HW117675   3.882   1.243   7.412
 5713SOL    HW217676   3.929   1.317   7.535
 5714SOL     OW17677   3.808   1.234   6.251
 5714SOL    HW117678   3.813   1.185   6.333
 5714SOL    HW217679   3.876   1.195   6.196
 5715SOL     OW17680   4.405   1.401   7.214
 5715SOL    HW117681   4.324   1.360   7.245
 5715SOL    HW217682   4.401   1.490   7.250
 5716SOL     OW17683   4.154   0.436   6.110
 5716SOL    HW117684   4.186   0.363   6.057
 5716SOL    HW217685   4.107   0.393   6.182
 5717SOL     OW17686   0.095   1.520   6.686
 5717SOL    HW117687   0.027   1.497   6.622
 5717SOL    HW217688   0.101   1.445   6.744
 5718SOL     OW17689   4.053   0.556   6.877
 5718SOL    HW117690   4.109   0.501   6.931
 5718SOL    HW217691   4.073   0.529   6.787
 5719SOL     OW17692   4.552   1.577   6.263
 5719SOL    HW117693   4.540   1.631   6.185
 5719SOL    HW217694   4.475   1.521   6.265
 5720SOL     OW17695   5.150   0.216   6.706
 5720SOL    HW117696   5.158   0.133   6.754
 5720SOL    HW217697   5.104   0.274   6.767
 5721SOL     OW17698   4.725   0.020   6.725
 5721SOL    HW117699   4.674   5.251   6.683
 5721SOL    HW217700   4.812   5.282   6.737
 5722SOL     OW17701   4.495   1.333   5.901
 5722SOL    HW117702   4.464   1.242   5.907
 5722SOL    HW217703   4.577   1.333   5.950
 5723SOL     OW17704   4.344   1.556   6.871
 5723SOL    HW117705   4.346   1.638   6.920
 5723SOL    HW217706   4.431   1.549   6.833
 5724SOL     OW17707   5.035   0.034   5.745
 5724SOL    HW117708   5.117   0.027   5.697
 5724SOL    HW217709   4.984   5.258   5.718
 5725SOL     OW17710   5.028   0.461   6.271
 5725SOL    HW117711   4.972   0.538   6.276
 5725SOL    HW217712   5.016   0.418   6.356
 5726SOL     OW17713   5.295   0.214   6.469
 5726SOL    HW117714   5.237   0.215   6.545
 5726SOL    HW217715   5.276   0.295   6.422
 5727SOL     OW17716   3.768   1.071   5.892
 5727SOL    HW117717   3.861   1.062   5.874
 5727SOL    HW217718   3.739   0.982   5.915
 5728SOL     OW17719   4.604   1.650   5.932
 5728SOL    HW117720   4.533   1.635   5.869
 5728SOL    HW217721   4.577   1.727   5.981
 5729SOL     OW17722   3.951   0.620   7.572
 5729SOL    HW117723   3.861   0.628   7.604
 5729SOL    HW217724   3.942   0.597   7.479
 5730SOL     OW17725   3.945   1.718   7.919
 5730SOL    HW117726   3.974   1.759   8.000
 5730SOL    HW217727   4.023   1.715   7.864
 5731SOL     OW17728   3.941   1.438   7.991
 5731SOL    HW117729   3.926   1.533   7.990
 5731SOL    HW217730   3.881   1.405   8.058
 5732SOL     OW17731   4.311   0.982   7.579
 5732SOL    HW117732   4.354   1.033   7.511
 5732SOL    HW217733   4.349   1.014   7.661
 5733SOL     OW17734   3.754   1.599   7.578
 5733SOL    HW117735   3.738   1.506   7.593
 5733SOL    HW217736   3.727   1.641   7.659
 5734SOL     OW17737   0.118   0.925   8.015
 5734SOL    HW117738   0.211   0.917   8.034
 5734SOL    HW217739   0.104   1.018   7.999
 5735SOL     OW17740   4.534   5.289   7.946
 5735SOL    HW117741   4.576   0.074   7.930
 5735SOL    HW217742   4.440   0.008   7.942
 5736SOL     OW17743   4.315   0.725   7.709
 5736SOL    HW117744   4.317   0.807   7.659
 5736SOL    HW217745   4.254   0.742   7.781
 5737SOL     OW17746   3.785   0.864   0.089
 5737SOL    HW117747   3.848   0.797   0.116
 5737SOL    HW217748   3.780   0.924   0.163
 5738SOL     OW17749   4.590   0.357   7.634
 5738SOL    HW117750   4.631   0.417   7.571
 5738SOL    HW217751   4.649   0.282   7.637
 5739SOL     OW17752   4.047   0.956   7.698
 5739SOL    HW117753   4.126   0.973   7.647
 5739SOL    HW217754   4.010   0.878   7.658
 5740SOL     OW17755   4.837   1.776   7.684
 5740SOL    HW117756   4.763   1.733   7.727
 5740SOL    HW217757   4.861   1.716   7.614
 5741SOL     OW17758   4.191   1.738   7.769
 5741SOL    HW117759   4.239   1.791   7.833
 5741SOL    HW217760   4.258   1.702   7.711
 5742SOL     OW17761   5.114   0.113   7.872
 5742SOL    HW117762   5.086   0.089   7.784
 5742SOL    HW217763   5.209   0.100   7.871
 5743SOL     OW17764   4.115   0.695   7.918
 5743SOL    HW117765   4.120   0.600   7.927
 5743SOL    HW217766   4.025   0.717   7.940
 5744SOL     OW17767   4.341   0.132   7.560
 5744SOL    HW117768   4.420   0.079   7.574
 5744SOL    HW217769   4.297   0.088   7.487
 5745SOL     OW17770   4.271   0.064   7.952
 5745SOL    HW117771   4.179   0.047   7.973
 5745SOL    HW217772   4.269   0.136   7.889
 5746SOL     OW17773   5.136   1.179   7.488
 5746SOL    HW117774   5.152   1.109   7.552
 5746SOL    HW217775   5.050   1.212   7.511
 5747SOL     OW17776   4.029   0.073   7.660
 5747SOL    HW117777   4.080   0.130   7.603
 5747SOL    HW217778   4.077   5.290   7.660
 5748SOL     OW17779   4.673   0.230   7.911
 5748SOL    HW117780   4.620   0.293   7.863
 5748SOL    HW217781   4.759   0.272   7.919
 5749SOL     OW17782   4.164   1.149   0.100
 5749SOL    HW117783   4.089   1.187   0.145
 5749SOL    HW217784   4.133   1.136   0.010
 5750SOL     OW17785   5.008   1.805   8.012
 5750SOL    HW117786   5.048   1.871   7.955
 5750SOL    HW217787   4.937   1.851   8.056
 5751SOL     OW17788   4.756   0.552   7.464
 5751SOL    HW117789   4.705   0.632   7.449
 5751SOL    HW217790   4.802   0.568   7.546
 5752SOL     OW17791   4.212   1.416   7.604
 5752SOL    HW117792   4.138   1.387   7.658
 5752SOL    HW217793   4.196   1.378   7.518
 5753SOL     OW17794   5.127   0.559   7.530
 5753SOL    HW117795   5.051   0.551   7.587
 5753SOL    HW217796   5.199   0.523   7.582
 5754SOL     OW17797   4.249   0.272   7.773
 5754SOL    HW117798   4.289   0.218   7.705
 5754SOL    HW217799   4.228   0.354   7.730
 5755SOL     OW17800   4.437   1.062   7.811
 5755SOL    HW117801   4.410   1.048   7.902
 5755SOL    HW217802   4.516   1.009   7.801
 5756SOL     OW17803   4.090   1.103   7.927
 5756SOL    HW117804   4.070   1.182   7.876
 5756SOL    HW217805   4.076   1.031   7.865
 5757SOL     OW17806   4.958   1.358   7.819
 5757SOL    HW117807   5.016   1.429   7.847
 5757SOL    HW217808   4.903   1.339   7.895
 5758SOL     OW17809   0.027   0.639   7.936
 5758SOL    HW117810   5.275   0.677   8.007
 5758SOL    HW217811   0.048   0.712   7.879
 5759SOL     OW17812   4.928   0.530   7.715
 5759SOL    HW117813   4.931   0.444   7.758
 5759SOL    HW217814   4.894   0.589   7.782
 5760SOL     OW17815   0.028   0.405   7.803
 5760SOL    HW117816   0.031   0.340   7.872
 5760SOL    HW217817   0.022   0.489   7.848
 5761SOL     OW17818   5.035   0.832   7.490
 5761SOL    HW117819   5.063   0.741   7.486
 5761SOL    HW217820   5.057   0.868   7.405
 5762SOL     OW17821   3.730   1.324   7.640
 5762SOL    HW117822   3.643   1.337   7.603
 5762SOL    HW217823   3.729   1.235   7.674
 5763SOL     OW17824   4.563   0.604   7.761
 5763SOL    HW117825   4.553   0.512   7.734
 5763SOL    HW217826   4.474   0.638   7.763
 5764SOL     OW17827   4.185   0.495   7.637
 5764SOL    HW117828   4.245   0.567   7.654
 5764SOL    HW217829   4.100   0.537   7.622
 5765SOL     OW17830   5.032   0.847   7.774
 5765SOL    HW117831   4.939   0.861   7.791
 5765SOL    HW217832   5.039   0.846   7.678
 5766SOL     OW17833   5.103   1.573   7.907
 5766SOL    HW117834   5.198   1.584   7.907
 5766SOL    HW217835   5.070   1.654   7.945
 5767SOL     OW17836   4.390   1.620   7.603
 5767SOL    HW117837   4.403   1.631   7.509
 5767SOL    HW217838   4.338   1.540   7.611
 5768SOL     OW17839   4.911   1.611   7.487
 5768SOL    HW117840   4.920   1.516   7.501
 5768SOL    HW217841   4.852   1.618   7.412
 5769SOL     OW17842   4.655   0.908   7.759
 5769SOL    HW117843   4.705   0.933   7.681
 5769SOL    HW217844   4.643   0.814   7.751
 5770SOL     OW17845   4.329   1.507   7.936
 5770SOL    HW117846   4.374   1.446   7.877
 5770SOL    HW217847   4.256   1.540   7.884
 5771SOL     OW17848   3.982   1.346   7.742
 5771SOL    HW117849   3.890   1.344   7.716
 5771SOL    HW217850   3.981   1.382   7.830
 5772SOL     OW17851   3.798   0.339   7.490
 5772SOL    HW117852   3.716   0.307   7.453
 5772SOL    HW217853   3.822   0.413   7.435
 5773SOL     OW17854   3.788   0.182   7.745
 5773SOL    HW117855   3.785   0.258   7.686
 5773SOL    HW217856   3.868   0.136   7.721
 5774SOL     OW17857   4.905   1.329   7.555
 5774SOL    HW117858   4.810   1.315   7.555
 5774SOL    HW217859   4.927   1.341   7.647
 5775SOL     OW17860   5.268   1.743   0.322
 5775SOL    HW117861   5.271   1.829   0.281
 5775SOL    HW217862   0.042   1.742   0.383
 5776SOL     OW17863   4.943   0.325   7.909
 5776SOL    HW117864   5.006   0.253   7.906
 5776SOL    HW217865   4.954   0.363   7.996
 5777SOL     OW17866   4.351   0.737   8.054
 5777SOL    HW117867   4.355   0.818   0.024
 5777SOL    HW217868   4.263   0.735   8.016
 5778SOL     OW17869   4.591   1.366   7.483
 5778SOL    HW117870   4.551   1.394   7.565
 5778SOL    HW217871   4.606   1.447   7.435
 5779SOL     OW17872   4.802   0.978   7.540
 5779SOL    HW117873   4.778   1.033   7.465
 5779SOL    HW217874   4.880   0.931   7.512
 5780SOL     OW17875   4.113   0.421   7.984
 5780SOL    HW117876   4.165   0.369   7.923
 5780SOL    HW217877   4.161   0.418   8.066
 5781SOL     OW17878   4.489   1.335   7.759
 5781SOL    HW117879   4.459   1.244   7.763
 5781SOL    HW217880   4.568   1.336   7.814
 5782SOL     OW17881   5.036   0.039   7.612
 5782SOL    HW117882   5.115   0.029   7.558
 5782SOL    HW217883   4.986   5.259   7.595
 5783SOL     OW17884   3.775   1.078   7.750
 5783SOL    HW117885   3.869   1.068   7.736
 5783SOL    HW217886   3.743   0.990   7.765
 5784SOL     OW17887   4.613   1.647   7.783
 5784SOL    HW117888   4.537   1.627   7.729
 5784SOL    HW217889   4.582   1.711   7.846
 5785SOL     OW17890   3.944   2.485   0.123
 5785SOL    HW117891   3.863   2.450   0.161
 5785SOL    HW217892   3.966   2.424   0.052
 5786SOL     OW17893   3.949   2.143   0.992
 5786SOL    HW117894   3.977   2.109   1.076
 5786SOL    HW217895   3.859   2.111   0.982
 5787SOL     OW17896   3.728   2.245   0.638
 5787SOL    HW117897   3.646   2.271   0.679
 5787SOL    HW217898   3.707   2.165   0.590
 5788SOL     OW17899   4.291   3.150   1.175
 5788SOL    HW117900   4.203   3.154   1.137
 5788SOL    HW217901   4.307   3.238   1.208
 5789SOL     OW17902   5.283   3.409   0.707
 5789SOL    HW117903   5.248   3.356   0.778
 5789SOL    HW217904   5.225   3.392   0.633
 5790SOL     OW17905   4.859   2.561   0.700
 5790SOL    HW117906   4.909   2.642   0.690
 5790SOL    HW217907   4.810   2.574   0.782
 5791SOL     OW17908   4.479   3.004   1.041
 5791SOL    HW117909   4.410   3.039   1.097
 5791SOL    HW217910   4.514   3.081   0.996
 5792SOL     OW17911   4.592   2.636   1.822
 5792SOL    HW117912   4.575   2.707   1.884
 5792SOL    HW217913   4.614   2.679   1.740
 5793SOL     OW17914   4.408   2.863   0.650
 5793SOL    HW117915   4.474   2.853   0.719
 5793SOL    HW217916   4.340   2.916   0.690
 5794SOL     OW17917   4.435   3.013   1.813
 5794SOL    HW117918   4.482   3.091   1.840
 5794SOL    HW217919   4.352   3.046   1.777
 5795SOL     OW17920   4.055   3.287   1.068
 5795SOL    HW117921   3.982   3.250   1.018
 5795SOL    HW217922   4.105   3.338   1.004
 5796SOL     OW17923   5.161   3.343   1.352
 5796SOL    HW117924   5.206   3.423   1.376
 5796SOL    HW217925   5.105   3.322   1.427
 5797SOL     OW17926   4.173   2.260   1.487
 5797SOL    HW117927   4.248   2.201   1.493
 5797SOL    HW217928   4.097   2.204   1.500
 5798SOL     OW17929   3.944   3.576   0.471
 5798SOL    HW117930   3.965   3.652   0.526
 5798SOL    HW217931   4.019   3.568   0.412
 5799SOL     OW17932   4.860   3.202   1.694
 5799SOL    HW117933   4.899   3.198   1.781
 5799SOL    HW217934   4.807   3.122   1.688
 5800SOL     OW17935   3.950   3.302   0.529
 5800SOL    HW117936   3.938   3.397   0.533
 5800SOL    HW217937   3.891   3.268   0.597
 5801SOL     OW17938   3.981   2.952   0.890
 5801SOL    HW117939   3.978   2.866   0.932
 5801SOL    HW217940   3.924   3.006   0.945
 5802SOL     OW17941   4.333   3.655   1.426
 5802SOL    HW117942   4.252   3.637   1.475
 5802SOL    HW217943   4.358   3.743   1.453
 5803SOL     OW17944   4.354   2.822   0.133
 5803SOL    HW117945   4.301   2.898   0.108
 5803SOL    HW217946   4.404   2.852   0.209
 5804SOL     OW17947   3.839   2.512   0.562
 5804SOL    HW117948   3.809   2.424   0.583
 5804SOL    HW217949   3.831   2.561   0.644
 5805SOL     OW17950   3.753   3.458   0.111
 5805SOL    HW117951   3.740   3.369   0.146
 5805SOL    HW217952   3.737   3.516   0.185
 5806SOL     OW17953   0.115   2.808   0.594
 5806SOL    HW117954   0.203   2.772   0.591
 5806SOL    HW217955   0.112   2.873   0.524
 5807SOL     OW17956   3.847   2.604   1.586
 5807SOL    HW117957   3.939   2.630   1.593
 5807SOL    HW217958   3.798   2.687   1.594
 5808SOL     OW17959   4.337   3.248   0.735
 5808SOL    HW117960   4.291   3.164   0.744
 5808SOL    HW217961   4.321   3.274   0.644
 5809SOL     OW17962   5.007   3.099   1.425
 5809SOL    HW117963   5.040   3.032   1.365
 5809SOL    HW217964   5.062   3.091   1.503
 5810SOL     OW17965   4.540   1.864   0.511
 5810SOL    HW117966   4.579   1.949   0.489
 5810SOL    HW217967   4.446   1.883   0.519
 5811SOL     OW17968   3.914   2.828   1.271
 5811SOL    HW117969   3.999   2.786   1.256
 5811SOL    HW217970   3.852   2.773   1.225
 5812SOL     OW17971   4.896   3.669   1.623
 5812SOL    HW117972   4.918   3.728   1.551
 5812SOL    HW217973   4.919   3.582   1.591
 5813SOL     OW17974   4.057   2.112   1.812
 5813SOL    HW117975   4.102   2.195   1.828
 5813SOL    HW217976   3.968   2.126   1.843
 5814SOL     OW17977   5.169   3.297   0.936
 5814SOL    HW117978   5.106   3.303   1.008
 5814SOL    HW217979   5.162   3.206   0.907
 5815SOL     OW17980   4.322   2.576   0.283
 5815SOL    HW117981   4.340   2.653   0.229
 5815SOL    HW217982   4.257   2.605   0.346
 5816SOL     OW17983   4.996   2.199   0.919
 5816SOL    HW117984   4.907   2.169   0.941
 5816SOL    HW217985   5.051   2.164   0.990
 5817SOL     OW17986   4.515   2.480   1.451
 5817SOL    HW117987   4.489   2.456   1.540
 5817SOL    HW217988   4.475   2.413   1.395
 5818SOL     OW17989   5.115   2.342   1.680
 5818SOL    HW117990   5.116   2.380   1.768
 5818SOL    HW217991   5.190   2.283   1.678
 5819SOL     OW17992   4.678   2.750   1.582
 5819SOL    HW117993   4.731   2.678   1.547
 5819SOL    HW217994   4.630   2.784   1.507
 5820SOL     OW17995   4.715   2.275   1.238
 5820SOL    HW117996   4.629   2.296   1.274
 5820SOL    HW217997   4.696   2.228   1.157
 5821SOL     OW17998   4.777   2.559   0.426
 5821SOL    HW117999   4.792   2.555   0.520
 5821SOL    HW218000   4.694   2.514   0.413
 5822SOL     OW18001   3.813   2.684   0.776
 5822SOL    HW118002   3.894   2.676   0.827
 5822SOL    HW218003   3.769   2.761   0.811
 5823SOL     OW18004   3.851   3.709   1.578
 5823SOL    HW118005   3.851   3.689   1.671
 5823SOL    HW218006   3.759   3.702   1.552
 5824SOL     OW18007   4.609   2.219   0.200
 5824SOL    HW118008   4.654   2.268   0.131
 5824SOL    HW218009   4.610   2.128   0.170
 5825SOL     OW18010   5.095   3.009   0.549
 5825SOL    HW118011   5.178   3.002   0.501
 5825SOL    HW218012   5.042   3.068   0.495
 5826SOL     OW18013   4.273   2.044   0.893
 5826SOL    HW118014   4.276   2.072   0.984
 5826SOL    HW218015   4.276   2.125   0.843
 5827SOL     OW18016   4.729   3.306   0.473
 5827SOL    HW118017   4.690   3.378   0.423
 5827SOL    HW218018   4.711   3.328   0.565
 5828SOL     OW18019   4.078   3.671   0.862
 5828SOL    HW118020   4.122   3.586   0.870
 5828SOL    HW218021   4.147   3.735   0.880
 5829SOL     OW18022   4.940   3.404   1.519
 5829SOL    HW118023   4.927   3.331   1.579
 5829SOL    HW218024   4.883   3.384   1.445
 5830SOL     OW18025   4.050   2.803   0.255
 5830SOL    HW118026   4.117   2.847   0.203
 5830SOL    HW218027   4.052   2.712   0.225
 5831SOL     OW18028   4.190   3.126   1.738
 5831SOL    HW118029   4.163   3.131   1.646
 5831SOL    HW218030   4.108   3.125   1.787
 5832SOL     OW18031   4.825   3.636   0.225
 5832SOL    HW118032   4.770   3.596   0.292
 5832SOL    HW218033   4.840   3.565   0.162
 5833SOL     OW18034   3.925   2.143   1.501
 5833SOL    HW118035   3.843   2.192   1.497
 5833SOL    HW218036   3.907   2.073   1.563
 5834SOL     OW18037   4.189   3.599   0.323
 5834SOL    HW118038   4.231   3.658   0.386
 5834SOL    HW218039   4.259   3.573   0.264
 5835SOL     OW18040   5.117   1.987   0.439
 5835SOL    HW118041   5.100   1.969   0.346
 5835SOL    HW218042   5.212   1.994   0.445
 5836SOL     OW18043   3.978   3.653   1.232
 5836SOL    HW118044   4.031   3.588   1.278
 5836SOL    HW218045   3.971   3.619   1.143
 5837SOL     OW18046   4.662   3.560   0.899
 5837SOL    HW118047   4.742   3.511   0.916
 5837SOL    HW218048   4.618   3.511   0.830
 5838SOL     OW18049   4.110   2.559   0.477
 5838SOL    HW118050   4.134   2.467   0.488
 5838SOL    HW218051   4.017   2.562   0.499
 5839SOL     OW18052   4.354   1.973   0.136
 5839SOL    HW118053   4.449   1.961   0.142
 5839SOL    HW218054   4.333   1.953   0.044
 5840SOL     OW18055   4.490   2.141   1.754
 5840SOL    HW118056   4.566   2.083   1.755
 5840SOL    HW218057   4.441   2.117   1.834
 5841SOL     OW18058   4.599   3.383   1.194
 5841SOL    HW118059   4.585   3.348   1.106
 5841SOL    HW218060   4.670   3.330   1.230
 5842SOL     OW18061   5.057   2.453   1.432
 5842SOL    HW118062   5.090   2.421   1.516
 5842SOL    HW218063   5.100   2.538   1.421
 5843SOL     OW18064   4.538   3.256   0.939
 5843SOL    HW118065   4.623   3.245   0.896
 5843SOL    HW218066   4.475   3.259   0.868
 5844SOL     OW18067   4.651   2.371   0.902
 5844SOL    HW118068   4.628   2.362   0.810
 5844SOL    HW218069   4.683   2.284   0.927
 5845SOL     OW18070   4.273   1.925   0.505
 5845SOL    HW118071   4.193   1.924   0.557
 5845SOL    HW218072   4.267   2.004   0.451
 5846SOL     OW18073   5.140   3.035   0.044
 5846SOL    HW118074   5.138   2.962   0.106
 5846SOL    HW218075   5.056   3.078   0.056
 5847SOL     OW18076   4.035   1.918   0.169
 5847SOL    HW118077   4.100   1.986   0.185
 5847SOL    HW218078   4.071   1.840   0.212
 5848SOL     OW18079   4.662   2.109   0.459
 5848SOL    HW118080   4.634   2.150   0.377
 5848SOL    HW218081   4.756   2.126   0.463
 5849SOL     OW18082   4.801   2.543   1.461
 5849SOL    HW118083   4.734   2.475   1.463
 5849SOL    HW218084   4.883   2.495   1.451
 5850SOL     OW18085   4.940   3.434   0.796
 5850SOL    HW118086   4.963   3.499   0.730
 5850SOL    HW218087   5.021   3.420   0.844
 5851SOL     OW18088   4.192   3.012   0.733
 5851SOL    HW118089   4.123   2.992   0.797
 5851SOL    HW218090   4.151   2.996   0.648
 5852SOL     OW18091   4.992   3.656   0.605
 5852SOL    HW118092   5.037   3.719   0.549
 5852SOL    HW218093   4.927   3.708   0.652
 5853SOL     OW18094   4.758   2.392   0.029
 5853SOL    HW118095   4.711   2.471   0.003
 5853SOL    HW218096   4.818   2.421   0.098
 5854SOL     OW18097   3.803   2.417   1.392
 5854SOL    HW118098   3.895   2.415   1.365
 5854SOL    HW218099   3.798   2.487   1.457
 5855SOL     OW18100   4.283   2.089   1.166
 5855SOL    HW118101   4.325   2.013   1.206
 5855SOL    HW218102   4.192   2.085   1.196
 5856SOL     OW18103   4.591   2.321   0.639
 5856SOL    HW118104   4.549   2.376   0.573
 5856SOL    HW218105   4.613   2.240   0.591
 5857SOL     OW18106   4.739   1.915   0.751
 5857SOL    HW118107   4.680   1.908   0.676
 5857SOL    HW218108   4.717   1.839   0.806
 5858SOL     OW18109   5.157   3.038   0.850
 5858SOL    HW118110   5.102   2.961   0.863
 5858SOL    HW218111   5.168   3.044   0.755
 5859SOL     OW18112   4.207   3.301   0.172
 5859SOL    HW118113   4.134   3.259   0.219
 5859SOL    HW218114   4.212   3.254   0.089
 5860SOL     OW18115   5.126   2.446   0.076
 5860SOL    HW118116   5.067   2.421   0.147
 5860SOL    HW218117   5.194   2.379   0.077
 5861SOL     OW18118   4.241   2.125   0.323
 5861SOL    HW118119   4.292   2.073   0.261
 5861SOL    HW218120   4.229   2.210   0.280
 5862SOL     OW18121   4.780   3.216   1.333
 5862SOL    HW118122   4.705   3.185   1.384
 5862SOL    HW218123   4.856   3.173   1.374
 5863SOL     OW18124   0.006   3.466   1.616
 5863SOL    HW118125   0.040   3.471   1.527
 5863SOL    HW218126   0.083   3.446   1.670
 5864SOL     OW18127   4.853   3.065   1.106
 5864SOL    HW118128   4.791   3.101   1.170
 5864SOL    HW218129   4.819   3.095   1.022
 5865SOL     OW18130   4.642   1.960   1.396
 5865SOL    HW118131   4.664   1.941   1.305
 5865SOL    HW218132   4.721   1.999   1.433
 5866SOL     OW18133   4.709   2.975   1.725
 5866SOL    HW118134   4.617   2.993   1.745
 5866SOL    HW218135   4.706   2.898   1.668
 5867SOL     OW18136   4.439   2.925   0.380
 5867SOL    HW118137   4.421   2.907   0.473
 5867SOL    HW218138   4.516   2.873   0.360
 5868SOL     OW18139   4.142   2.677   1.251
 5868SOL    HW118140   4.211   2.686   1.318
 5868SOL    HW218141   4.107   2.589   1.266
 5869SOL     OW18142   4.989   2.237   1.276
 5869SOL    HW118143   5.023   2.316   1.317
 5869SOL    HW218144   4.899   2.260   1.252
 5870SOL     OW18145   3.795   3.435   1.352
 5870SOL    HW118146   3.765   3.509   1.299
 5870SOL    HW218147   3.890   3.438   1.348
 5871SOL     OW18148   4.068   2.972   0.491
 5871SOL    HW118149   4.075   3.045   0.430
 5871SOL    HW218150   4.077   2.893   0.437
 5872SOL     OW18151   4.276   2.398   0.860
 5872SOL    HW118152   4.292   2.457   0.785
 5872SOL    HW218153   4.341   2.425   0.925
 5873SOL     OW18154   4.971   3.209   0.392
 5873SOL    HW118155   5.026   3.281   0.419
 5873SOL    HW218156   4.883   3.232   0.424
 5874SOL     OW18157   4.994   3.318   1.139
 5874SOL    HW118158   5.049   3.320   1.218
 5874SOL    HW218159   4.941   3.240   1.150
 5875SOL     OW18160   4.071   3.389   1.315
 5875SOL    HW118161   4.058   3.346   1.230
 5875SOL    HW218162   4.165   3.401   1.322
 5876SOL     OW18163   4.138   2.607   1.602
 5876SOL    HW118164   4.200   2.651   1.544
 5876SOL    HW218165   4.178   2.521   1.618
 5877SOL     OW18166   4.718   1.987   1.755
 5877SOL    HW118167   4.775   2.059   1.729
 5877SOL    HW218168   4.765   1.908   1.730
 5878SOL     OW18169   4.222   1.903   1.748
 5878SOL    HW118170   4.179   1.848   1.682
 5878SOL    HW218171   4.163   1.977   1.760
 5879SOL     OW18172   4.307   2.735   1.031
 5879SOL    HW118173   4.338   2.825   1.031
 5879SOL    HW218174   4.251   2.729   1.109
 5880SOL     OW18175   5.085   2.718   1.039
 5880SOL    HW118176   5.010   2.702   0.982
 5880SOL    HW218177   5.139   2.640   1.031
 5881SOL     OW18178   4.933   2.393   0.269
 5881SOL    HW118179   4.935   2.313   0.321
 5881SOL    HW218180   4.886   2.456   0.324
 5882SOL     OW18181   4.023   2.060   1.247
 5882SOL    HW118182   3.986   2.093   1.329
 5882SOL    HW218183   4.004   1.967   1.247
 5883SOL     OW18184   3.770   3.173   1.276
 5883SOL    HW118185   3.803   3.118   1.348
 5883SOL    HW218186   3.777   3.262   1.309
 5884SOL     OW18187   4.447   2.493   1.057
 5884SOL    HW118188   4.523   2.477   1.000
 5884SOL    HW218189   4.420   2.582   1.036
 5885SOL     OW18190   4.026   1.927   0.623
 5885SOL    HW118191   4.008   2.017   0.647
 5885SOL    HW218192   4.034   1.881   0.707
 5886SOL     OW18193   0.047   2.239   0.357
 5886SOL    HW118194   0.062   2.182   0.432
 5886SOL    HW218195   0.017   2.322   0.395
 5887SOL     OW18196   4.751   2.621   0.960
 5887SOL    HW118197   4.749   2.639   1.054
 5887SOL    HW218198   4.725   2.529   0.952
 5888SOL     OW18199   4.697   3.423   1.714
 5888SOL    HW118200   4.686   3.471   1.632
 5888SOL    HW218201   4.746   3.344   1.690
 5889SOL     OW18202   4.077   2.777   1.809
 5889SOL    HW118203   4.159   2.797   1.854
 5889SOL    HW218204   4.101   2.715   1.740
 5890SOL     OW18205   5.030   2.696   0.027
 5890SOL    HW118206   5.062   2.608   0.045
 5890SOL    HW218207   5.059   2.714   8.018
 5891SOL     OW18208   4.789   3.196   0.856
 5891SOL    HW118209   4.793   3.124   0.793
 5891SOL    HW218210   4.847   3.263   0.820
 5892SOL     OW18211   4.033   2.671   0.947
 5892SOL    HW118212   4.126   2.693   0.941
 5892SOL    HW218213   4.031   2.581   0.980
 5893SOL     OW18214   4.055   2.388   1.012
 5893SOL    HW118215   4.020   2.300   0.997
 5893SOL    HW218216   4.132   2.394   0.955
 5894SOL     OW18217   4.856   2.238   1.681
 5894SOL    HW118218   4.809   2.293   1.743
 5894SOL    HW218219   4.944   2.277   1.676
 5895SOL     OW18220   4.885   2.064   1.469
 5895SOL    HW118221   4.874   2.126   1.541
 5895SOL    HW218222   4.924   2.116   1.398
 5896SOL     OW18223   3.735   3.186   0.190
 5896SOL    HW118224   3.648   3.200   0.152
 5896SOL    HW218225   3.733   3.095   0.222
 5897SOL     OW18226   3.814   3.649   0.938
 5897SOL    HW118227   3.784   3.569   0.894
 5897SOL    HW218228   3.904   3.662   0.907
 5898SOL     OW18229   4.220   3.436   0.906
 5898SOL    HW118230   4.289   3.498   0.930
 5898SOL    HW218231   4.265   3.372   0.849
 5899SOL     OW18232   4.706   2.654   1.227
 5899SOL    HW118233   4.762   2.631   1.301
 5899SOL    HW218234   4.621   2.617   1.248
 5900SOL     OW18235   3.760   2.406   1.117
 5900SOL    HW118236   3.841   2.393   1.067
 5900SOL    HW218237   3.788   2.410   1.208
 5901SOL     OW18238   3.915   2.381   1.727
 5901SOL    HW118239   3.972   2.343   1.661
 5901SOL    HW218240   3.873   2.455   1.683
 5902SOL     OW18241   5.112   2.800   1.666
 5902SOL    HW118242   5.121   2.895   1.654
 5902SOL    HW218243   5.115   2.764   1.577
 5903SOL     OW18244   4.543   2.431   0.367
 5903SOL    HW118245   4.551   2.360   0.304
 5903SOL    HW218246   4.467   2.481   0.337
 5904SOL     OW18247   3.967   3.413   1.727
 5904SOL    HW118248   3.945   3.478   1.795
 5904SOL    HW218249   3.969   3.330   1.774
 5905SOL     OW18250   4.424   2.312   1.259
 5905SOL    HW118251   4.372   2.238   1.229
 5905SOL    HW218252   4.421   2.375   1.187
 5906SOL     OW18253   4.644   3.542   1.469
 5906SOL    HW118254   4.623   3.509   1.381
 5906SOL    HW218255   4.646   3.637   1.459
 5907SOL     OW18256   4.192   2.353   0.179
 5907SOL    HW118257   4.259   2.419   0.198
 5907SOL    HW218258   4.109   2.398   0.189
 5908SOL     OW18259   3.870   3.002   1.472
 5908SOL    HW118260   3.872   2.951   1.553
 5908SOL    HW218261   3.887   2.939   1.403
 5909SOL     OW18262   5.053   2.911   1.224
 5909SOL    HW118263   5.075   2.846   1.158
 5909SOL    HW218264   4.982   2.962   1.186
 5910SOL     OW18265   5.023   2.732   0.319
 5910SOL    HW118266   4.946   2.687   0.353
 5910SOL    HW218267   5.024   2.712   0.226
 5911SOL     OW18268   4.960   3.593   1.121
 5911SOL    HW118269   5.045   3.614   1.084
 5911SOL    HW218270   4.960   3.498   1.131
 5912SOL     OW18271   3.808   3.129   1.012
 5912SOL    HW118272   3.794   3.142   1.106
 5912SOL    HW218273   3.735   3.074   0.984
 5913SOL     OW18274   4.401   3.527   1.728
 5913SOL    HW118275   4.349   3.607   1.722
 5913SOL    HW218276   4.470   3.538   1.663
 5914SOL     OW18277   4.630   1.953   0.133
 5914SOL    HW118278   4.647   1.936   0.041
 5914SOL    HW218279   4.693   1.899   0.180
 5915SOL     OW18280   0.081   2.012   0.523
 5915SOL    HW118281   0.172   2.005   0.494
 5915SOL    HW218282   0.071   1.943   0.588
 5916SOL     OW18283   5.108   3.433   0.478
 5916SOL    HW118284   5.162   3.475   0.412
 5916SOL    HW218285   5.060   3.505   0.519
 5917SOL     OW18286   3.860   3.659   1.843
 5917SOL    HW118287   3.809   3.593   1.891
 5917SOL    HW218288   3.908   3.706   1.911
 5918SOL     OW18289   5.017   2.781   0.672
 5918SOL    HW118290   5.094   2.727   0.658
 5918SOL    HW218291   5.034   2.862   0.624
 5919SOL     OW18292   4.538   3.135   1.430
 5919SOL    HW118293   4.510   3.174   1.513
 5919SOL    HW218294   4.469   3.158   1.368
 5920SOL     OW18295   4.400   3.483   0.157
 5920SOL    HW118296   4.407   3.489   0.061
 5920SOL    HW218297   4.340   3.410   0.171
 5921SOL     OW18298   3.986   2.178   0.717
 5921SOL    HW118299   3.900   2.214   0.694
 5921SOL    HW218300   3.983   2.170   0.813
 5922SOL     OW18301   4.860   3.441   0.045
 5922SOL    HW118302   4.900   3.356   0.060
 5922SOL    HW218303   4.899   3.472   8.043
 5923SOL     OW18304   4.548   2.868   1.372
 5923SOL    HW118305   4.592   2.864   1.288
 5923SOL    HW218306   4.547   2.961   1.394
 5924SOL     OW18307   4.643   2.776   0.300
 5924SOL    HW118308   4.696   2.800   0.223
 5924SOL    HW218309   4.691   2.703   0.340
 5925SOL     OW18310   4.093   3.165   1.492
 5925SOL    HW118311   4.080   3.242   1.437
 5925SOL    HW218312   4.016   3.110   1.475
 5926SOL     OW18313   4.776   2.969   0.707
 5926SOL    HW118314   4.705   2.918   0.747
 5926SOL    HW218315   4.833   2.904   0.667
 5927SOL     OW18316   4.739   2.101   0.968
 5927SOL    HW118317   4.737   2.054   0.885
 5927SOL    HW218318   4.736   2.032   1.035
 5928SOL     OW18319   4.326   3.348   0.480
 5928SOL    HW118320   4.371   3.299   0.411
 5928SOL    HW218321   4.258   3.398   0.434
 5929SOL     OW18322   3.991   3.181   0.293
 5929SOL    HW118323   3.905   3.193   0.253
 5929SOL    HW218324   3.984   3.227   0.377
 5930SOL     OW18325   3.837   2.884   1.719
 5930SOL    HW118326   3.761   2.861   1.772
 5930SOL    HW218327   3.911   2.846   1.766
 5931SOL     OW18328   4.398   2.058   1.499
 5931SOL    HW118329   4.482   2.038   1.458
 5931SOL    HW218330   4.421   2.090   1.587
 5932SOL     OW18331   3.780   2.225   0.039
 5932SOL    HW118332   3.706   2.170   0.014
 5932SOL    HW218333   3.830   2.237   8.038
 5933SOL     OW18334   5.163   2.722   1.404
 5933SOL    HW118335   5.111   2.779   1.347
 5933SOL    HW218336   5.252   2.728   1.369
 5934SOL     OW18337   3.795   2.016   0.305
 5934SOL    HW118338   3.780   2.101   0.262
 5934SOL    HW218339   3.879   1.987   0.270
 5935SOL     OW18340   4.913   3.176   0.120
 5935SOL    HW118341   4.818   3.176   0.114
 5935SOL    HW218342   4.932   3.182   0.213
 5936SOL     OW18343   4.343   2.693   1.433
 5936SOL    HW118344   4.399   2.769   1.418
 5936SOL    HW218345   4.403   2.619   1.442
 5937SOL     OW18346   4.441   2.425   1.704
 5937SOL    HW118347   4.482   2.487   1.765
 5937SOL    HW218348   4.468   2.339   1.736
 5938SOL     OW18349   5.182   3.066   1.632
 5938SOL    HW118350   5.173   3.079   1.727
 5938SOL    HW218351   5.276   3.073   1.616
 5939SOL     OW18352   4.103   3.601   1.565
 5939SOL    HW118353   4.018   3.643   1.551
 5939SOL    HW218354   4.083   3.518   1.606
 5940SOL     OW18355   4.933   2.187   0.461
 5940SOL    HW118356   4.996   2.115   0.450
 5940SOL    HW218357   4.963   2.233   0.539
 5941SOL     OW18358   4.312   2.599   0.669
 5941SOL    HW118359   4.353   2.685   0.655
 5941SOL    HW218360   4.244   2.594   0.602
 5942SOL     OW18361   4.620   3.231   0.033
 5942SOL    HW118362   4.555   3.226   0.104
 5942SOL    HW218363   4.617   3.322   0.004
 5943SOL     OW18364   4.384   3.653   0.944
 5943SOL    HW118365   4.365   3.744   0.921
 5943SOL    HW218366   4.479   3.647   0.938
 5944SOL     OW18367   4.591   2.829   0.855
 5944SOL    HW118368   4.642   2.757   0.895
 5944SOL    HW218369   4.557   2.878   0.930
 5945SOL     OW18370   4.799   2.835   0.085
 5945SOL    HW118371   4.790   2.900   0.016
 5945SOL    HW218372   4.882   2.791   0.066
 5946SOL     OW18373   3.949   3.165   1.856
 5946SOL    HW118374   3.881   3.104   1.827
 5946SOL    HW218375   3.931   3.177   1.949
 5947SOL     OW18376   3.808   3.093   0.664
 5947SOL    HW118377   3.814   3.046   0.747
 5947SOL    HW218378   3.881   3.059   0.612
 5948SOL     OW18379   4.405   3.264   1.628
 5948SOL    HW118380   4.325   3.222   1.660
 5948SOL    HW218381   4.401   3.353   1.664
 5949SOL     OW18382   4.149   2.298   0.523
 5949SOL    HW118383   4.182   2.227   0.469
 5949SOL    HW218384   4.104   2.254   0.596
 5950SOL     OW18385   0.094   3.384   1.100
 5950SOL    HW118386   0.027   3.359   1.036
 5950SOL    HW218387   0.102   3.307   1.157
 5951SOL     OW18388   4.054   2.417   1.292
 5951SOL    HW118389   4.109   2.362   1.347
 5951SOL    HW218390   4.074   2.389   1.202
 5952SOL     OW18391   4.551   3.440   0.677
 5952SOL    HW118392   4.540   3.493   0.599
 5952SOL    HW218393   4.474   3.383   0.679
 5953SOL     OW18394   5.148   2.081   1.115
 5953SOL    HW118395   5.192   2.015   1.169
 5953SOL    HW218396   5.102   2.136   1.177
 5954SOL     OW18397   4.730   1.880   1.142
 5954SOL    HW118398   4.677   1.812   1.101
 5954SOL    HW218399   4.818   1.843   1.147
 5955SOL     OW18400   4.494   3.190   0.309
 5955SOL    HW118401   4.463   3.100   0.323
 5955SOL    HW218402   4.576   3.195   0.357
 5956SOL     OW18403   4.344   3.418   1.285
 5956SOL    HW118404   4.346   3.501   1.334
 5956SOL    HW218405   4.431   3.410   1.248
 5957SOL     OW18406   5.051   1.923   0.186
 5957SOL    HW118407   5.093   1.874   0.115
 5957SOL    HW218408   4.973   1.872   0.208
 5958SOL     OW18409   5.028   2.323   0.684
 5958SOL    HW118410   4.973   2.401   0.688
 5958SOL    HW218411   5.016   2.281   0.769
 5959SOL     OW18412   0.000   2.087   0.877
 5959SOL    HW118413   5.237   2.073   0.948
 5959SOL    HW218414   5.274   2.171   0.839
 5960SOL     OW18415   3.766   2.928   0.303
 5960SOL    HW118416   3.862   2.929   0.307
 5960SOL    HW218417   3.741   2.845   0.344
 5961SOL     OW18418   4.604   3.514   0.350
 5961SOL    HW118419   4.537   3.498   0.283
 5961SOL    HW218420   4.573   3.591   0.398
 5962SOL     OW18421   3.953   2.485   1.985
 5962SOL    HW118422   3.864   2.484   2.019
 5962SOL    HW218423   3.944   2.460   1.893
 5963SOL     OW18424   3.950   2.142   2.853
 5963SOL    HW118425   3.977   2.109   2.938
 5963SOL    HW218426   3.859   2.112   2.843
 5964SOL     OW18427   3.728   2.245   2.500
 5964SOL    HW118428   3.646   2.270   2.541
 5964SOL    HW218429   3.707   2.165   2.451
 5965SOL     OW18430   4.291   3.150   3.037
 5965SOL    HW118431   4.203   3.152   3.000
 5965SOL    HW218432   4.306   3.238   3.070
 5966SOL     OW18433   5.285   3.397   2.568
 5966SOL    HW118434   5.246   3.355   2.644
 5966SOL    HW218435   5.220   3.389   2.499
 5967SOL     OW18436   4.858   2.561   2.562
 5967SOL    HW118437   4.909   2.642   2.552
 5967SOL    HW218438   4.810   2.573   2.643
 5968SOL     OW18439   4.480   3.004   2.903
 5968SOL    HW118440   4.410   3.039   2.959
 5968SOL    HW218441   4.514   3.082   2.858
 5969SOL     OW18442   4.593   2.636   3.685
 5969SOL    HW118443   4.575   2.707   3.746
 5969SOL    HW218444   4.614   2.679   3.602
 5970SOL     OW18445   4.410   2.864   2.509
 5970SOL    HW118446   4.475   2.853   2.579
 5970SOL    HW218447   4.340   2.916   2.549
 5971SOL     OW18448   4.435   3.013   3.675
 5971SOL    HW118449   4.482   3.092   3.701
 5971SOL    HW218450   4.352   3.046   3.639
 5972SOL     OW18451   4.055   3.288   2.930
 5972SOL    HW118452   3.982   3.250   2.881
 5972SOL    HW218453   4.104   3.338   2.865
 5973SOL     OW18454   5.161   3.343   3.213
 5973SOL    HW118455   5.206   3.423   3.239
 5973SOL    HW218456   5.105   3.322   3.289
 5974SOL     OW18457   4.173   2.260   3.350
 5974SOL    HW118458   4.248   2.201   3.355
 5974SOL    HW218459   4.097   2.203   3.362
 5975SOL     OW18460   3.943   3.576   2.334
 5975SOL    HW118461   3.965   3.652   2.388
 5975SOL    HW218462   4.017   3.568   2.273
 5976SOL     OW18463   4.860   3.202   3.556
 5976SOL    HW118464   4.899   3.198   3.643
 5976SOL    HW218465   4.807   3.122   3.549
 5977SOL     OW18466   3.954   3.303   2.397
 5977SOL    HW118467   3.937   3.397   2.401
 5977SOL    HW218468   3.893   3.266   2.461
 5978SOL     OW18469   3.982   2.952   2.753
 5978SOL    HW118470   3.977   2.866   2.794
 5978SOL    HW218471   3.924   3.007   2.805
 5979SOL     OW18472   4.333   3.654   3.289
 5979SOL    HW118473   4.253   3.636   3.337
 5979SOL    HW218474   4.358   3.743   3.316
 5980SOL     OW18475   4.310   2.843   1.996
 5980SOL    HW118476   4.355   2.893   1.928
 5980SOL    HW218477   4.349   2.874   2.078
 5981SOL     OW18478   3.839   2.515   2.421
 5981SOL    HW118479   3.810   2.426   2.443
 5981SOL    HW218480   3.831   2.563   2.504
 5982SOL     OW18481   3.756   3.457   1.986
 5982SOL    HW118482   3.739   3.365   2.006
 5982SOL    HW218483   3.732   3.504   2.066
 5983SOL     OW18484   0.112   2.802   2.437
 5983SOL    HW118485   0.198   2.765   2.453
 5983SOL    HW218486   0.129   2.887   2.397
 5984SOL     OW18487   3.843   2.600   3.454
 5984SOL    HW118488   3.931   2.636   3.459
 5984SOL    HW218489   3.787   2.676   3.440
 5985SOL     OW18490   4.337   3.247   2.597
 5985SOL    HW118491   4.291   3.164   2.607
 5985SOL    HW218492   4.321   3.274   2.507
 5986SOL     OW18493   5.007   3.099   3.287
 5986SOL    HW118494   5.040   3.032   3.227
 5986SOL    HW218495   5.062   3.091   3.365
 5987SOL     OW18496   4.538   1.862   2.371
 5987SOL    HW118497   4.579   1.947   2.351
 5987SOL    HW218498   4.445   1.882   2.380
 5988SOL     OW18499   3.914   2.829   3.135
 5988SOL    HW118500   3.994   2.782   3.114
 5988SOL    HW218501   3.845   2.778   3.092
 5989SOL     OW18502   4.897   3.669   3.485
 5989SOL    HW118503   4.918   3.728   3.413
 5989SOL    HW218504   4.919   3.582   3.453
 5990SOL     OW18505   4.058   2.111   3.674
 5990SOL    HW118506   4.101   2.195   3.689
 5990SOL    HW218507   3.968   2.125   3.704
 5991SOL     OW18508   5.168   3.297   2.798
 5991SOL    HW118509   5.106   3.304   2.871
 5991SOL    HW218510   5.162   3.206   2.770
 5992SOL     OW18511   4.320   2.583   2.128
 5992SOL    HW118512   4.325   2.665   2.078
 5992SOL    HW218513   4.255   2.601   2.196
 5993SOL     OW18514   4.996   2.199   2.781
 5993SOL    HW118515   4.907   2.169   2.803
 5993SOL    HW218516   5.050   2.164   2.852
 5994SOL     OW18517   4.515   2.480   3.313
 5994SOL    HW118518   4.489   2.456   3.402
 5994SOL    HW218519   4.475   2.413   3.257
 5995SOL     OW18520   5.115   2.342   3.542
 5995SOL    HW118521   5.116   2.380   3.630
 5995SOL    HW218522   5.190   2.283   3.540
 5996SOL     OW18523   4.678   2.750   3.444
 5996SOL    HW118524   4.731   2.678   3.409
 5996SOL    HW218525   4.630   2.784   3.369
 5997SOL     OW18526   4.715   2.275   3.100
 5997SOL    HW118527   4.629   2.296   3.136
 5997SOL    HW218528   4.696   2.228   3.019
 5998SOL     OW18529   4.775   2.560   2.287
 5998SOL    HW118530   4.790   2.554   2.382
 5998SOL    HW218531   4.692   2.514   2.274
 5999SOL     OW18532   3.812   2.684   2.638
 5999SOL    HW118533   3.893   2.676   2.688
 5999SOL    HW218534   3.768   2.761   2.674
 6000SOL     OW18535   3.852   3.712   3.441
 6000SOL    HW118536   3.852   3.690   3.534
 6000SOL    HW218537   3.761   3.700   3.413
 6001SOL     OW18538   4.617   2.209   2.056
 6001SOL    HW118539   4.657   2.271   1.994
 6001SOL    HW218540   4.632   2.123   2.018
 6002SOL     OW18541   5.092   3.009   2.410
 6002SOL    HW118542   5.180   3.009   2.371
 6002SOL    HW218543   5.042   3.068   2.354
 6003SOL     OW18544   4.274   2.044   2.755
 6003SOL    HW118545   4.276   2.072   2.846
 6003SOL    HW218546   4.275   2.125   2.704
 6004SOL     OW18547   4.730   3.305   2.334
 6004SOL    HW118548   4.692   3.378   2.285
 6004SOL    HW218549   4.712   3.327   2.426
 6005SOL     OW18550   4.078   3.671   2.724
 6005SOL    HW118551   4.122   3.586   2.732
 6005SOL    HW218552   4.147   3.735   2.742
 6006SOL     OW18553   4.940   3.404   3.381
 6006SOL    HW118554   4.927   3.331   3.441
 6006SOL    HW218555   4.883   3.385   3.307
 6007SOL     OW18556   4.044   2.819   2.112
 6007SOL    HW118557   4.126   2.839   2.067
 6007SOL    HW218558   4.013   2.738   2.073
 6008SOL     OW18559   4.190   3.126   3.600
 6008SOL    HW118560   4.163   3.131   3.508
 6008SOL    HW218561   4.108   3.125   3.649
 6009SOL     OW18562   4.832   3.637   2.099
 6009SOL    HW118563   4.760   3.592   2.143
 6009SOL    HW218564   4.857   3.577   2.028
 6010SOL     OW18565   3.925   2.143   3.362
 6010SOL    HW118566   3.844   2.195   3.358
 6010SOL    HW218567   3.906   2.075   3.426
 6011SOL     OW18568   4.190   3.599   2.183
 6011SOL    HW118569   4.232   3.656   2.247
 6011SOL    HW218570   4.261   3.568   2.127
 6012SOL     OW18571   5.121   1.969   2.286
 6012SOL    HW118572   5.101   1.951   2.194
 6012SOL    HW218573   5.215   1.985   2.288
 6013SOL     OW18574   3.979   3.654   3.093
 6013SOL    HW118575   4.030   3.587   3.141
 6013SOL    HW218576   3.971   3.618   3.005
 6014SOL     OW18577   4.662   3.560   2.761
 6014SOL    HW118578   4.741   3.510   2.779
 6014SOL    HW218579   4.618   3.511   2.692
 6015SOL     OW18580   4.117   2.557   2.338
 6015SOL    HW118581   4.137   2.465   2.349
 6015SOL    HW218582   4.023   2.564   2.356
 6016SOL     OW18583   4.359   1.985   1.967
 6016SOL    HW118584   4.429   1.920   1.979
 6016SOL    HW218585   4.310   1.953   1.891
 6017SOL     OW18586   4.490   2.141   3.616
 6017SOL    HW118587   4.566   2.082   3.617
 6017SOL    HW218588   4.441   2.118   3.696
 6018SOL     OW18589   4.599   3.384   3.056
 6018SOL    HW118590   4.584   3.348   2.968
 6018SOL    HW218591   4.670   3.330   3.092
 6019SOL     OW18592   5.058   2.453   3.294
 6019SOL    HW118593   5.090   2.421   3.378
 6019SOL    HW218594   5.100   2.538   3.283
 6020SOL     OW18595   4.539   3.257   2.802
 6020SOL    HW118596   4.623   3.246   2.758
 6020SOL    HW218597   4.475   3.258   2.730
 6021SOL     OW18598   4.652   2.371   2.765
 6021SOL    HW118599   4.628   2.362   2.672
 6021SOL    HW218600   4.683   2.284   2.790
 6022SOL     OW18601   4.273   1.925   2.364
 6022SOL    HW118602   4.192   1.926   2.416
 6022SOL    HW218603   4.267   2.003   2.309
 6023SOL     OW18604   5.136   3.042   1.906
 6023SOL    HW118605   5.146   2.964   1.960
 6023SOL    HW218606   5.049   3.076   1.926
 6024SOL     OW18607   4.016   1.910   2.047
 6024SOL    HW118608   4.075   1.974   2.007
 6024SOL    HW218609   4.074   1.846   2.088
 6025SOL     OW18610   4.661   2.108   2.322
 6025SOL    HW118611   4.635   2.149   2.239
 6025SOL    HW218612   4.756   2.121   2.325
 6026SOL     OW18613   4.801   2.543   3.323
 6026SOL    HW118614   4.733   2.476   3.325
 6026SOL    HW218615   4.883   2.495   3.313
 6027SOL     OW18616   4.940   3.432   2.656
 6027SOL    HW118617   4.962   3.500   2.591
 6027SOL    HW218618   5.020   3.421   2.707
 6028SOL     OW18619   4.193   3.011   2.595
 6028SOL    HW118620   4.124   2.992   2.659
 6028SOL    HW218621   4.152   2.995   2.510
 6029SOL     OW18622   4.996   3.656   2.467
 6029SOL    HW118623   5.038   3.717   2.407
 6029SOL    HW218624   4.929   3.708   2.512
 6030SOL     OW18625   4.748   2.405   1.884
 6030SOL    HW118626   4.704   2.488   1.864
 6030SOL    HW218627   4.809   2.427   1.954
 6031SOL     OW18628   3.804   2.418   3.254
 6031SOL    HW118629   3.895   2.416   3.227
 6031SOL    HW218630   3.799   2.486   3.321
 6032SOL     OW18631   4.283   2.089   3.028
 6032SOL    HW118632   4.325   2.013   3.068
 6032SOL    HW218633   4.192   2.086   3.058
 6033SOL     OW18634   4.593   2.321   2.501
 6033SOL    HW118635   4.546   2.376   2.438
 6033SOL    HW218636   4.613   2.241   2.453
 6034SOL     OW18637   4.739   1.915   2.614
 6034SOL    HW118638   4.681   1.908   2.538
 6034SOL    HW218639   4.717   1.839   2.668
 6035SOL     OW18640   5.157   3.038   2.713
 6035SOL    HW118641   5.101   2.961   2.726
 6035SOL    HW218642   5.168   3.043   2.618
 6036SOL     OW18643   4.215   3.280   2.019
 6036SOL    HW118644   4.140   3.251   2.071
 6036SOL    HW218645   4.200   3.241   1.932
 6037SOL     OW18646   5.127   2.424   1.942
 6037SOL    HW118647   5.055   2.414   2.003
 6037SOL    HW218648   5.202   2.386   1.987
 6038SOL     OW18649   4.250   2.125   2.180
 6038SOL    HW118650   4.294   2.077   2.110
 6038SOL    HW218651   4.227   2.209   2.141
 6039SOL     OW18652   4.780   3.216   3.195
 6039SOL    HW118653   4.705   3.185   3.246
 6039SOL    HW218654   4.856   3.173   3.236
 6040SOL     OW18655   0.006   3.466   3.478
 6040SOL    HW118656   0.040   3.471   3.389
 6040SOL    HW218657   0.083   3.446   3.532
 6041SOL     OW18658   4.853   3.065   2.968
 6041SOL    HW118659   4.791   3.101   3.033
 6041SOL    HW218660   4.819   3.095   2.884
 6042SOL     OW18661   4.642   1.960   3.258
 6042SOL    HW118662   4.664   1.941   3.167
 6042SOL    HW218663   4.721   1.998   3.295
 6043SOL     OW18664   4.708   2.975   3.587
 6043SOL    HW118665   4.617   2.993   3.607
 6043SOL    HW218666   4.706   2.898   3.530
 6044SOL     OW18667   4.432   2.923   2.233
 6044SOL    HW118668   4.418   2.907   2.326
 6044SOL    HW218669   4.508   2.870   2.210
 6045SOL     OW18670   4.142   2.676   3.112
 6045SOL    HW118671   4.210   2.686   3.179
 6045SOL    HW218672   4.107   2.588   3.127
 6046SOL     OW18673   4.988   2.237   3.138
 6046SOL    HW118674   5.023   2.316   3.180
 6046SOL    HW218675   4.899   2.260   3.114
 6047SOL     OW18676   3.793   3.437   3.217
 6047SOL    HW118677   3.765   3.507   3.158
 6047SOL    HW218678   3.889   3.436   3.210
 6048SOL     OW18679   4.073   2.971   2.352
 6048SOL    HW118680   4.078   3.045   2.292
 6048SOL    HW218681   4.070   2.894   2.296
 6049SOL     OW18682   4.277   2.398   2.722
 6049SOL    HW118683   4.292   2.457   2.647
 6049SOL    HW218684   4.341   2.425   2.787
 6050SOL     OW18685   4.972   3.211   2.249
 6050SOL    HW118686   5.026   3.284   2.280
 6050SOL    HW218687   4.884   3.231   2.283
 6051SOL     OW18688   4.994   3.318   3.001
 6051SOL    HW118689   5.049   3.320   3.080
 6051SOL    HW218690   4.940   3.240   3.012
 6052SOL     OW18691   4.070   3.390   3.177
 6052SOL    HW118692   4.057   3.346   3.093
 6052SOL    HW218693   4.164   3.402   3.184
 6053SOL     OW18694   4.139   2.608   3.464
 6053SOL    HW118695   4.201   2.652   3.405
 6053SOL    HW218696   4.177   2.521   3.479
 6054SOL     OW18697   4.718   1.987   3.618
 6054SOL    HW118698   4.775   2.059   3.591
 6054SOL    HW218699   4.765   1.908   3.592
 6055SOL     OW18700   4.222   1.902   3.610
 6055SOL    HW118701   4.179   1.848   3.544
 6055SOL    HW218702   4.163   1.977   3.622
 6056SOL     OW18703   4.308   2.735   2.894
 6056SOL    HW118704   4.337   2.826   2.892
 6056SOL    HW218705   4.250   2.728   2.970
 6057SOL     OW18706   5.086   2.719   2.899
 6057SOL    HW118707   5.009   2.701   2.845
 6057SOL    HW218708   5.138   2.639   2.894
 6058SOL     OW18709   4.928   2.393   2.127
 6058SOL    HW118710   4.935   2.313   2.179
 6058SOL    HW218711   4.885   2.456   2.184
 6059SOL     OW18712   4.023   2.060   3.109
 6059SOL    HW118713   3.985   2.093   3.190
 6059SOL    HW218714   4.003   1.966   3.109
 6060SOL     OW18715   3.794   3.174   3.133
 6060SOL    HW118716   3.813   3.118   3.209
 6060SOL    HW218717   3.781   3.261   3.171
 6061SOL     OW18718   4.447   2.493   2.920
 6061SOL    HW118719   4.522   2.477   2.862
 6061SOL    HW218720   4.419   2.582   2.899
 6062SOL     OW18721   4.027   1.926   2.485
 6062SOL    HW118722   4.008   2.017   2.508
 6062SOL    HW218723   4.034   1.881   2.569
 6063SOL     OW18724   0.035   2.256   2.221
 6063SOL    HW118725   0.054   2.181   2.278
 6063SOL    HW218726   0.018   2.328   2.281
 6064SOL     OW18727   4.751   2.621   2.822
 6064SOL    HW118728   4.749   2.639   2.916
 6064SOL    HW218729   4.725   2.529   2.814
 6065SOL     OW18730   4.698   3.423   3.576
 6065SOL    HW118731   4.686   3.471   3.493
 6065SOL    HW218732   4.746   3.344   3.552
 6066SOL     OW18733   4.080   2.775   3.673
 6066SOL    HW118734   4.163   2.794   3.716
 6066SOL    HW218735   4.103   2.713   3.604
 6067SOL     OW18736   5.027   2.691   1.899
 6067SOL    HW118737   5.065   2.603   1.901
 6067SOL    HW218738   5.054   2.727   1.814
 6068SOL     OW18739   4.789   3.196   2.717
 6068SOL    HW118740   4.793   3.124   2.654
 6068SOL    HW218741   4.847   3.263   2.681
 6069SOL     OW18742   4.033   2.670   2.808
 6069SOL    HW118743   4.126   2.692   2.802
 6069SOL    HW218744   4.031   2.581   2.843
 6070SOL     OW18745   4.055   2.388   2.875
 6070SOL    HW118746   4.020   2.300   2.859
 6070SOL    HW218747   4.132   2.393   2.817
 6071SOL     OW18748   4.856   2.238   3.543
 6071SOL    HW118749   4.809   2.293   3.605
 6071SOL    HW218750   4.943   2.277   3.538
 6072SOL     OW18751   4.885   2.064   3.331
 6072SOL    HW118752   4.874   2.126   3.403
 6072SOL    HW218753   4.924   2.116   3.260
 6073SOL     OW18754   3.729   3.183   2.057
 6073SOL    HW118755   3.642   3.197   2.019
 6073SOL    HW218756   3.726   3.094   2.091
 6074SOL     OW18757   3.814   3.649   2.800
 6074SOL    HW118758   3.784   3.570   2.756
 6074SOL    HW218759   3.904   3.662   2.769
 6075SOL     OW18760   4.220   3.436   2.767
 6075SOL    HW118761   4.289   3.498   2.791
 6075SOL    HW218762   4.265   3.372   2.711
 6076SOL     OW18763   4.707   2.654   3.088
 6076SOL    HW118764   4.762   2.631   3.163
 6076SOL    HW218765   4.621   2.617   3.110
 6077SOL     OW18766   3.761   2.398   2.980
 6077SOL    HW118767   3.843   2.393   2.930
 6077SOL    HW218768   3.789   2.411   3.071
 6078SOL     OW18769   3.920   2.379   3.590
 6078SOL    HW118770   3.976   2.342   3.522
 6078SOL    HW218771   3.878   2.455   3.547
 6079SOL     OW18772   5.112   2.800   3.528
 6079SOL    HW118773   5.121   2.894   3.516
 6079SOL    HW218774   5.115   2.764   3.440
 6080SOL     OW18775   4.540   2.431   2.221
 6080SOL    HW118776   4.543   2.356   2.162
 6080SOL    HW218777   4.466   2.483   2.190
 6081SOL     OW18778   3.967   3.413   3.589
 6081SOL    HW118779   3.945   3.477   3.657
 6081SOL    HW218780   3.969   3.329   3.635
 6082SOL     OW18781   4.425   2.312   3.121
 6082SOL    HW118782   4.372   2.238   3.091
 6082SOL    HW218783   4.421   2.375   3.049
 6083SOL     OW18784   4.645   3.542   3.330
 6083SOL    HW118785   4.623   3.509   3.243
 6083SOL    HW218786   4.646   3.637   3.321
 6084SOL     OW18787   4.188   2.354   2.049
 6084SOL    HW118788   4.247   2.427   2.071
 6084SOL    HW218789   4.103   2.395   2.036
 6085SOL     OW18790   3.873   3.003   3.336
 6085SOL    HW118791   3.878   2.952   3.416
 6085SOL    HW218792   3.889   2.939   3.266
 6086SOL     OW18793   5.054   2.911   3.086
 6086SOL    HW118794   5.075   2.846   3.019
 6086SOL    HW218795   4.982   2.962   3.048
 6087SOL     OW18796   5.034   2.722   2.178
 6087SOL    HW118797   4.953   2.689   2.215
 6087SOL    HW218798   5.023   2.713   2.084
 6088SOL     OW18799   4.959   3.593   2.983
 6088SOL    HW118800   5.045   3.614   2.947
 6088SOL    HW218801   4.960   3.498   2.993
 6089SOL     OW18802   3.808   3.131   2.870
 6089SOL    HW118803   3.801   3.144   2.964
 6089SOL    HW218804   3.734   3.075   2.847
 6090SOL     OW18805   4.401   3.527   3.591
 6090SOL    HW118806   4.349   3.607   3.584
 6090SOL    HW218807   4.470   3.538   3.525
 6091SOL     OW18808   0.081   2.022   2.392
 6091SOL    HW118809   0.165   2.008   2.349
 6091SOL    HW218810   0.067   1.942   2.443
 6092SOL     OW18811   5.111   3.432   2.342
 6092SOL    HW118812   5.181   3.473   2.292
 6092SOL    HW218813   5.061   3.506   2.378
 6093SOL     OW18814   3.859   3.659   3.706
 6093SOL    HW118815   3.808   3.593   3.754
 6093SOL    HW218816   3.907   3.706   3.773
 6094SOL     OW18817   5.016   2.781   2.534
 6094SOL    HW118818   5.094   2.727   2.521
 6094SOL    HW218819   5.035   2.862   2.485
 6095SOL     OW18820   4.538   3.135   3.292
 6095SOL    HW118821   4.510   3.175   3.375
 6095SOL    HW218822   4.468   3.158   3.230
 6096SOL     OW18823   4.395   3.482   2.017
 6096SOL    HW118824   4.406   3.494   1.923
 6096SOL    HW218825   4.340   3.404   2.025
 6097SOL     OW18826   3.986   2.178   2.579
 6097SOL    HW118827   3.901   2.214   2.555
 6097SOL    HW218828   3.983   2.170   2.674
 6098SOL     OW18829   4.908   3.471   1.904
 6098SOL    HW118830   4.920   3.377   1.914
 6098SOL    HW218831   4.854   3.480   1.825
 6099SOL     OW18832   4.548   2.868   3.234
 6099SOL    HW118833   4.591   2.864   3.149
 6099SOL    HW218834   4.547   2.961   3.256
 6100SOL     OW18835   4.640   2.773   2.152
 6100SOL    HW118836   4.702   2.805   2.086
 6100SOL    HW218837   4.687   2.702   2.197
 6101SOL     OW18838   4.094   3.166   3.354
 6101SOL    HW118839   4.079   3.242   3.298
 6101SOL    HW218840   4.018   3.110   3.337
 6102SOL     OW18841   4.776   2.969   2.569
 6102SOL    HW118842   4.705   2.919   2.609
 6102SOL    HW218843   4.834   2.902   2.532
 6103SOL     OW18844   4.739   2.101   2.830
 6103SOL    HW118845   4.737   2.054   2.747
 6103SOL    HW218846   4.736   2.033   2.897
 6104SOL     OW18847   4.326   3.350   2.344
 6104SOL    HW118848   4.371   3.300   2.275
 6104SOL    HW218849   4.258   3.398   2.298
 6105SOL     OW18850   3.983   3.207   2.150
 6105SOL    HW118851   3.890   3.205   2.128
 6105SOL    HW218852   3.986   3.244   2.239
 6106SOL     OW18853   3.849   2.896   3.586
 6106SOL    HW118854   3.771   2.867   3.633
 6106SOL    HW218855   3.922   2.851   3.629
 6107SOL     OW18856   4.398   2.058   3.361
 6107SOL    HW118857   4.482   2.038   3.320
 6107SOL    HW218858   4.421   2.090   3.449
 6108SOL     OW18859   3.802   2.196   1.897
 6108SOL    HW118860   3.715   2.176   1.862
 6108SOL    HW218861   3.832   2.271   1.846
 6109SOL     OW18862   5.162   2.722   3.266
 6109SOL    HW118863   5.111   2.779   3.209
 6109SOL    HW218864   5.252   2.729   3.232
 6110SOL     OW18865   3.792   2.018   2.172
 6110SOL    HW118866   3.778   2.098   2.121
 6110SOL    HW218867   3.877   1.985   2.143
 6111SOL     OW18868   4.907   3.191   1.976
 6111SOL    HW118869   4.813   3.173   1.977
 6111SOL    HW218870   4.931   3.198   2.068
 6112SOL     OW18871   4.343   2.693   3.295
 6112SOL    HW118872   4.399   2.769   3.280
 6112SOL    HW218873   4.403   2.619   3.303
 6113SOL     OW18874   4.442   2.425   3.566
 6113SOL    HW118875   4.482   2.487   3.627
 6113SOL    HW218876   4.468   2.339   3.598
 6114SOL     OW18877   5.182   3.066   3.494
 6114SOL    HW118878   5.173   3.079   3.589
 6114SOL    HW218879   5.276   3.073   3.478
 6115SOL     OW18880   4.103   3.601   3.427
 6115SOL    HW118881   4.018   3.643   3.413
 6115SOL    HW218882   4.083   3.517   3.468
 6116SOL     OW18883   4.940   2.182   2.318
 6116SOL    HW118884   5.002   2.110   2.305
 6116SOL    HW218885   4.970   2.226   2.397
 6117SOL     OW18886   4.315   2.599   2.531
 6117SOL    HW118887   4.353   2.686   2.516
 6117SOL    HW218888   4.246   2.592   2.464
 6118SOL     OW18889   4.590   3.228   1.897
 6118SOL    HW118890   4.549   3.258   1.978
 6118SOL    HW218891   4.606   3.308   1.847
 6119SOL     OW18892   4.384   3.653   2.806
 6119SOL    HW118893   4.365   3.744   2.783
 6119SOL    HW218894   4.479   3.647   2.800
 6120SOL     OW18895   4.592   2.829   2.717
 6120SOL    HW118896   4.642   2.758   2.757
 6120SOL    HW218897   4.557   2.878   2.792
 6121SOL     OW18898   4.806   2.849   1.952
 6121SOL    HW118899   4.782   2.899   1.874
 6121SOL    HW218900   4.881   2.796   1.925
 6122SOL     OW18901   3.948   3.165   3.717
 6122SOL    HW118902   3.886   3.100   3.686
 6122SOL    HW218903   3.929   3.175   3.810
 6123SOL     OW18904   3.806   3.094   2.526
 6123SOL    HW118905   3.813   3.049   2.610
 6123SOL    HW218906   3.876   3.056   2.473
 6124SOL     OW18907   4.405   3.264   3.491
 6124SOL    HW118908   4.325   3.222   3.521
 6124SOL    HW218909   4.401   3.353   3.526
 6125SOL     OW18910   4.153   2.296   2.387
 6125SOL    HW118911   4.183   2.225   2.331
 6125SOL    HW218912   4.105   2.252   2.458
 6126SOL     OW18913   0.095   3.382   2.961
 6126SOL    HW118914   0.028   3.359   2.898
 6126SOL    HW218915   0.101   3.307   3.020
 6127SOL     OW18916   4.054   2.417   3.154
 6127SOL    HW118917   4.110   2.362   3.209
 6127SOL    HW218918   4.073   2.389   3.064
 6128SOL     OW18919   4.552   3.439   2.539
 6128SOL    HW118920   4.540   3.493   2.461
 6128SOL    HW218921   4.475   3.383   2.542
 6129SOL     OW18922   5.147   2.081   2.977
 6129SOL    HW118923   5.193   2.016   3.031
 6129SOL    HW218924   5.101   2.136   3.040
 6130SOL     OW18925   4.730   1.881   3.004
 6130SOL    HW118926   4.677   1.812   2.964
 6130SOL    HW218927   4.818   1.843   3.009
 6131SOL     OW18928   4.495   3.195   2.177
 6131SOL    HW118929   4.464   3.104   2.183
 6131SOL    HW218930   4.577   3.196   2.226
 6132SOL     OW18931   4.344   3.418   3.147
 6132SOL    HW118932   4.346   3.500   3.196
 6132SOL    HW218933   4.431   3.411   3.109
 6133SOL     OW18934   5.058   1.908   2.029
 6133SOL    HW118935   5.081   1.867   1.946
 6133SOL    HW218936   4.973   1.870   2.051
 6134SOL     OW18937   5.028   2.320   2.544
 6134SOL    HW118938   4.973   2.399   2.548
 6134SOL    HW218939   5.017   2.279   2.630
 6135SOL     OW18940   0.002   2.087   2.742
 6135SOL    HW118941   5.236   2.075   2.811
 6135SOL    HW218942   5.275   2.167   2.697
 6136SOL     OW18943   3.767   2.933   2.168
 6136SOL    HW118944   3.861   2.925   2.151
 6136SOL    HW218945   3.739   2.844   2.190
 6137SOL     OW18946   4.604   3.512   2.208
 6137SOL    HW118947   4.533   3.497   2.145
 6137SOL    HW218948   4.577   3.589   2.257
 6138SOL     OW18949   3.954   2.483   3.848
 6138SOL    HW118950   3.865   2.484   3.883
 6138SOL    HW218951   3.943   2.459   3.756
 6139SOL     OW18952   3.952   2.144   4.716
 6139SOL    HW118953   3.980   2.110   4.801
 6139SOL    HW218954   3.862   2.111   4.706
 6140SOL     OW18955   3.737   2.245   4.363
 6140SOL    HW118956   3.658   2.273   4.409
 6140SOL    HW218957   3.708   2.171   4.309
 6141SOL     OW18958   4.291   3.150   4.899
 6141SOL    HW118959   4.204   3.154   4.860
 6141SOL    HW218960   4.307   3.238   4.932
 6142SOL     OW18961   5.285   3.398   4.430
 6142SOL    HW118962   5.246   3.355   4.506
 6142SOL    HW218963   5.220   3.389   4.361
 6143SOL     OW18964   4.858   2.561   4.424
 6143SOL    HW118965   4.909   2.642   4.414
 6143SOL    HW218966   4.810   2.573   4.505
 6144SOL     OW18967   4.479   3.004   4.765
 6144SOL    HW118968   4.410   3.039   4.822
 6144SOL    HW218969   4.514   3.081   4.720
 6145SOL     OW18970   4.592   2.636   5.547
 6145SOL    HW118971   4.575   2.708   5.608
 6145SOL    HW218972   4.614   2.679   5.464
 6146SOL     OW18973   4.410   2.865   4.371
 6146SOL    HW118974   4.475   2.853   4.441
 6146SOL    HW218975   4.341   2.916   4.411
 6147SOL     OW18976   4.435   3.013   5.537
 6147SOL    HW118977   4.482   3.091   5.564
 6147SOL    HW218978   4.352   3.046   5.501
 6148SOL     OW18979   4.055   3.287   4.792
 6148SOL    HW118980   3.982   3.250   4.743
 6148SOL    HW218981   4.104   3.338   4.727
 6149SOL     OW18982   5.160   3.343   5.075
 6149SOL    HW118983   5.206   3.423   5.100
 6149SOL    HW218984   5.106   3.322   5.151
 6150SOL     OW18985   4.173   2.260   5.211
 6150SOL    HW118986   4.248   2.201   5.217
 6150SOL    HW218987   4.097   2.204   5.224
 6151SOL     OW18988   3.943   3.577   4.196
 6151SOL    HW118989   3.965   3.653   4.250
 6151SOL    HW218990   4.016   3.568   4.135
 6152SOL     OW18991   4.860   3.202   5.418
 6152SOL    HW118992   4.899   3.198   5.505
 6152SOL    HW218993   4.807   3.122   5.411
 6153SOL     OW18994   3.957   3.305   4.258
 6153SOL    HW118995   3.937   3.398   4.263
 6153SOL    HW218996   3.898   3.264   4.321
 6154SOL     OW18997   3.979   2.950   4.613
 6154SOL    HW118998   3.979   2.865   4.656
 6154SOL    HW218999   3.926   3.006   4.669
 6155SOL     OW19000   4.333   3.655   5.150
 6155SOL    HW119001   4.252   3.637   5.199
 6155SOL    HW219002   4.358   3.743   5.177
 6156SOL     OW19003   4.311   2.843   3.858
 6156SOL    HW119004   4.356   2.893   3.790
 6156SOL    HW219005   4.350   2.874   3.940
 6157SOL     OW19006   3.843   2.514   4.284
 6157SOL    HW119007   3.816   2.425   4.304
 6157SOL    HW219008   3.834   2.562   4.366
 6158SOL     OW19009   3.753   3.457   3.847
 6158SOL    HW119010   3.740   3.364   3.869
 6158SOL    HW219011   3.732   3.504   3.928
 6159SOL     OW19012   0.112   2.803   4.300
 6159SOL    HW119013   0.198   2.765   4.315
 6159SOL    HW219014   0.129   2.887   4.258
 6160SOL     OW19015   3.847   2.604   5.309
 6160SOL    HW119016   3.939   2.629   5.317
 6160SOL    HW219017   3.800   2.687   5.319
 6161SOL     OW19018   4.337   3.247   4.460
 6161SOL    HW119019   4.291   3.164   4.468
 6161SOL    HW219020   4.321   3.274   4.369
 6162SOL     OW19021   5.007   3.099   5.149
 6162SOL    HW119022   5.040   3.032   5.089
 6162SOL    HW219023   5.062   3.091   5.227
 6163SOL     OW19024   4.538   1.862   4.233
 6163SOL    HW119025   4.579   1.947   4.213
 6163SOL    HW219026   4.445   1.882   4.242
 6164SOL     OW19027   3.914   2.828   4.994
 6164SOL    HW119028   3.999   2.787   4.980
 6164SOL    HW219029   3.852   2.770   4.950
 6165SOL     OW19030   4.896   3.669   5.347
 6165SOL    HW119031   4.918   3.728   5.275
 6165SOL    HW219032   4.919   3.582   5.315
 6166SOL     OW19033   4.057   2.112   5.537
 6166SOL    HW119034   4.101   2.196   5.552
 6166SOL    HW219035   3.968   2.126   5.567
 6167SOL     OW19036   5.168   3.297   4.660
 6167SOL    HW119037   5.106   3.304   4.732
 6167SOL    HW219038   5.162   3.206   4.632
 6168SOL     OW19039   4.320   2.583   3.990
 6168SOL    HW119040   4.325   2.665   3.940
 6168SOL    HW219041   4.254   2.601   4.058
 6169SOL     OW19042   4.996   2.199   4.643
 6169SOL    HW119043   4.907   2.169   4.665
 6169SOL    HW219044   5.050   2.164   4.714
 6170SOL     OW19045   4.515   2.480   5.175
 6170SOL    HW119046   4.489   2.456   5.264
 6170SOL    HW219047   4.475   2.413   5.119
 6171SOL     OW19048   5.115   2.342   5.404
 6171SOL    HW119049   5.116   2.380   5.492
 6171SOL    HW219050   5.190   2.283   5.402
 6172SOL     OW19051   4.678   2.750   5.306
 6172SOL    HW119052   4.731   2.678   5.271
 6172SOL    HW219053   4.630   2.784   5.231
 6173SOL     OW19054   4.715   2.275   4.962
 6173SOL    HW119055   4.629   2.296   4.998
 6173SOL    HW219056   4.696   2.228   4.881
 6174SOL     OW19057   4.775   2.560   4.149
 6174SOL    HW119058   4.790   2.554   4.244
 6174SOL    HW219059   4.692   2.514   4.136
 6175SOL     OW19060   3.819   2.669   4.506
 6175SOL    HW119061   3.898   2.674   4.558
 6175SOL    HW219062   3.773   2.751   4.523
 6176SOL     OW19063   3.851   3.710   5.302
 6176SOL    HW119064   3.851   3.689   5.395
 6176SOL    HW219065   3.759   3.701   5.276
 6177SOL     OW19066   4.617   2.209   3.918
 6177SOL    HW119067   4.657   2.271   3.856
 6177SOL    HW219068   4.632   2.123   3.880
 6178SOL     OW19069   5.092   3.009   4.272
 6178SOL    HW119070   5.180   3.009   4.233
 6178SOL    HW219071   5.041   3.068   4.216
 6179SOL     OW19072   4.274   2.043   4.617
 6179SOL    HW119073   4.276   2.072   4.708
 6179SOL    HW219074   4.275   2.124   4.566
 6180SOL     OW19075   4.730   3.305   4.196
 6180SOL    HW119076   4.692   3.377   4.147
 6180SOL    HW219077   4.712   3.327   4.288
 6181SOL     OW19078   4.078   3.671   4.587
 6181SOL    HW119079   4.122   3.586   4.594
 6181SOL    HW219080   4.147   3.735   4.604
 6182SOL     OW19081   4.940   3.404   5.244
 6182SOL    HW119082   4.927   3.331   5.303
 6182SOL    HW219083   4.883   3.384   5.169
 6183SOL     OW19084   4.045   2.820   3.975
 6183SOL    HW119085   4.126   2.838   3.928
 6183SOL    HW219086   4.012   2.739   3.936
 6184SOL     OW19087   4.190   3.126   5.462
 6184SOL    HW119088   4.163   3.131   5.370
 6184SOL    HW219089   4.108   3.125   5.511
 6185SOL     OW19090   4.832   3.637   3.961
 6185SOL    HW119091   4.760   3.592   4.005
 6185SOL    HW219092   4.857   3.577   3.890
 6186SOL     OW19093   3.925   2.144   5.225
 6186SOL    HW119094   3.842   2.192   5.217
 6186SOL    HW219095   3.906   2.073   5.287
 6187SOL     OW19096   4.190   3.599   4.045
 6187SOL    HW119097   4.232   3.656   4.109
 6187SOL    HW219098   4.261   3.568   3.989
 6188SOL     OW19099   5.121   1.969   4.148
 6188SOL    HW119100   5.101   1.951   4.056
 6188SOL    HW219101   5.215   1.985   4.150
 6189SOL     OW19102   3.978   3.653   4.956
 6189SOL    HW119103   4.031   3.588   5.002
 6189SOL    HW219104   3.970   3.619   4.867
 6190SOL     OW19105   4.662   3.560   4.623
 6190SOL    HW119106   4.742   3.510   4.640
 6190SOL    HW219107   4.618   3.511   4.554
 6191SOL     OW19108   4.118   2.558   4.200
 6191SOL    HW119109   4.138   2.465   4.211
 6191SOL    HW219110   4.024   2.564   4.217
 6192SOL     OW19111   4.359   1.984   3.829
 6192SOL    HW119112   4.429   1.920   3.841
 6192SOL    HW219113   4.310   1.953   3.754
 6193SOL     OW19114   4.490   2.141   5.479
 6193SOL    HW119115   4.566   2.083   5.479
 6193SOL    HW219116   4.441   2.117   5.557
 6194SOL     OW19117   4.599   3.383   4.918
 6194SOL    HW119118   4.585   3.348   4.830
 6194SOL    HW219119   4.670   3.329   4.954
 6195SOL     OW19120   5.057   2.453   5.156
 6195SOL    HW119121   5.090   2.421   5.240
 6195SOL    HW219122   5.100   2.538   5.145
 6196SOL     OW19123   4.538   3.256   4.663
 6196SOL    HW119124   4.623   3.245   4.620
 6196SOL    HW219125   4.474   3.258   4.592
 6197SOL     OW19126   4.651   2.371   4.627
 6197SOL    HW119127   4.628   2.362   4.534
 6197SOL    HW219128   4.683   2.284   4.652
 6198SOL     OW19129   4.273   1.925   4.226
 6198SOL    HW119130   4.192   1.926   4.278
 6198SOL    HW219131   4.267   2.003   4.171
 6199SOL     OW19132   5.136   3.043   3.768
 6199SOL    HW119133   5.145   2.964   3.822
 6199SOL    HW219134   5.049   3.076   3.788
 6200SOL     OW19135   4.015   1.910   3.909
 6200SOL    HW119136   4.073   1.974   3.869
 6200SOL    HW219137   4.074   1.847   3.950
 6201SOL     OW19138   4.661   2.108   4.184
 6201SOL    HW119139   4.634   2.149   4.101
 6201SOL    HW219140   4.756   2.121   4.187
 6202SOL     OW19141   4.801   2.543   5.185
 6202SOL    HW119142   4.734   2.475   5.187
 6202SOL    HW219143   4.883   2.495   5.175
 6203SOL     OW19144   4.940   3.433   4.518
 6203SOL    HW119145   4.962   3.500   4.453
 6203SOL    HW219146   5.021   3.421   4.569
 6204SOL     OW19147   4.192   3.011   4.457
 6204SOL    HW119148   4.122   2.991   4.520
 6204SOL    HW219149   4.153   2.995   4.372
 6205SOL     OW19150   4.996   3.656   4.329
 6205SOL    HW119151   5.038   3.717   4.269
 6205SOL    HW219152   4.929   3.708   4.374
 6206SOL     OW19153   4.748   2.405   3.746
 6206SOL    HW119154   4.704   2.488   3.726
 6206SOL    HW219155   4.809   2.428   3.816
 6207SOL     OW19156   3.804   2.416   5.114
 6207SOL    HW119157   3.896   2.415   5.088
 6207SOL    HW219158   3.798   2.486   5.179
 6208SOL     OW19159   4.283   2.089   4.890
 6208SOL    HW119160   4.325   2.013   4.930
 6208SOL    HW219161   4.193   2.085   4.920
 6209SOL     OW19162   4.592   2.321   4.363
 6209SOL    HW119163   4.546   2.376   4.300
 6209SOL    HW219164   4.613   2.241   4.315
 6210SOL     OW19165   4.739   1.915   4.476
 6210SOL    HW119166   4.681   1.908   4.400
 6210SOL    HW219167   4.717   1.839   4.530
 6211SOL     OW19168   5.157   3.038   4.575
 6211SOL    HW119169   5.101   2.961   4.588
 6211SOL    HW219170   5.169   3.043   4.480
 6212SOL     OW19171   4.214   3.280   3.880
 6212SOL    HW119172   4.139   3.251   3.932
 6212SOL    HW219173   4.200   3.241   3.794
 6213SOL     OW19174   5.127   2.424   3.804
 6213SOL    HW119175   5.054   2.414   3.865
 6213SOL    HW219176   5.202   2.386   3.850
 6214SOL     OW19177   4.250   2.125   4.042
 6214SOL    HW119178   4.294   2.077   3.972
 6214SOL    HW219179   4.227   2.209   4.003
 6215SOL     OW19180   4.781   3.216   5.057
 6215SOL    HW119181   4.705   3.185   5.108
 6215SOL    HW219182   4.856   3.173   5.098
 6216SOL     OW19183   0.006   3.466   5.340
 6216SOL    HW119184   0.040   3.471   5.251
 6216SOL    HW219185   0.083   3.446   5.394
 6217SOL     OW19186   4.853   3.065   4.830
 6217SOL    HW119187   4.791   3.101   4.894
 6217SOL    HW219188   4.819   3.095   4.746
 6218SOL     OW19189   4.642   1.960   5.120
 6218SOL    HW119190   4.664   1.941   5.029
 6218SOL    HW219191   4.721   1.998   5.157
 6219SOL     OW19192   4.708   2.975   5.449
 6219SOL    HW119193   4.617   2.992   5.469
 6219SOL    HW219194   4.706   2.898   5.392
 6220SOL     OW19195   4.433   2.924   4.095
 6220SOL    HW119196   4.418   2.907   4.188
 6220SOL    HW219197   4.509   2.870   4.072
 6221SOL     OW19198   4.143   2.677   4.976
 6221SOL    HW119199   4.211   2.687   5.042
 6221SOL    HW219200   4.108   2.589   4.989
 6222SOL     OW19201   4.988   2.237   5.001
 6222SOL    HW119202   5.023   2.316   5.042
 6222SOL    HW219203   4.899   2.260   4.976
 6223SOL     OW19204   3.795   3.434   5.077
 6223SOL    HW119205   3.765   3.506   5.022
 6223SOL    HW219206   3.891   3.438   5.072
 6224SOL     OW19207   4.074   2.972   4.214
 6224SOL    HW119208   4.077   3.045   4.153
 6224SOL    HW219209   4.070   2.894   4.159
 6225SOL     OW19210   4.277   2.399   4.584
 6225SOL    HW119211   4.292   2.457   4.509
 6225SOL    HW219212   4.342   2.425   4.649
 6226SOL     OW19213   4.972   3.211   4.111
 6226SOL    HW119214   5.026   3.284   4.142
 6226SOL    HW219215   4.884   3.231   4.145
 6227SOL     OW19216   4.994   3.318   4.863
 6227SOL    HW119217   5.049   3.320   4.942
 6227SOL    HW219218   4.940   3.240   4.874
 6228SOL     OW19219   4.071   3.389   5.039
 6228SOL    HW119220   4.059   3.347   4.954
 6228SOL    HW219221   4.166   3.401   5.047
 6229SOL     OW19222   4.138   2.607   5.326
 6229SOL    HW119223   4.200   2.651   5.268
 6229SOL    HW219224   4.177   2.521   5.341
 6230SOL     OW19225   4.718   1.987   5.480
 6230SOL    HW119226   4.775   2.059   5.453
 6230SOL    HW219227   4.765   1.908   5.454
 6231SOL     OW19228   4.222   1.903   5.472
 6231SOL    HW119229   4.179   1.848   5.406
 6231SOL    HW219230   4.163   1.977   5.484
 6232SOL     OW19231   4.308   2.735   4.756
 6232SOL    HW119232   4.338   2.826   4.755
 6232SOL    HW219233   4.251   2.730   4.833
 6233SOL     OW19234   5.086   2.719   4.761
 6233SOL    HW119235   5.009   2.701   4.707
 6233SOL    HW219236   5.138   2.639   4.756
 6234SOL     OW19237   4.928   2.393   3.989
 6234SOL    HW119238   4.935   2.313   4.041
 6234SOL    HW219239   4.885   2.456   4.046
 6235SOL     OW19240   4.023   2.060   4.971
 6235SOL    HW119241   3.985   2.093   5.052
 6235SOL    HW219242   4.004   1.967   4.971
 6236SOL     OW19243   3.759   3.171   5.003
 6236SOL    HW119244   3.799   3.118   5.071
 6236SOL    HW219245   3.772   3.261   5.032
 6237SOL     OW19246   4.448   2.493   4.782
 6237SOL    HW119247   4.523   2.477   4.724
 6237SOL    HW219248   4.420   2.582   4.761
 6238SOL     OW19249   4.027   1.925   4.347
 6238SOL    HW119250   4.009   2.017   4.370
 6238SOL    HW219251   4.035   1.880   4.431
 6239SOL     OW19252   0.035   2.256   4.083
 6239SOL    HW119253   0.054   2.181   4.140
 6239SOL    HW219254   0.018   2.328   4.144
 6240SOL     OW19255   4.751   2.621   4.684
 6240SOL    HW119256   4.749   2.639   4.778
 6240SOL    HW219257   4.725   2.529   4.676
 6241SOL     OW19258   4.697   3.423   5.438
 6241SOL    HW119259   4.686   3.471   5.356
 6241SOL    HW219260   4.746   3.344   5.414
 6242SOL     OW19261   4.077   2.778   5.533
 6242SOL    HW119262   4.160   2.797   5.578
 6242SOL    HW219263   4.101   2.715   5.464
 6243SOL     OW19264   5.027   2.691   3.761
 6243SOL    HW119265   5.065   2.603   3.763
 6243SOL    HW219266   5.054   2.726   3.676
 6244SOL     OW19267   4.789   3.196   4.579
 6244SOL    HW119268   4.793   3.124   4.516
 6244SOL    HW219269   4.847   3.263   4.543
 6245SOL     OW19270   4.035   2.673   4.675
 6245SOL    HW119271   4.129   2.692   4.667
 6245SOL    HW219272   4.032   2.582   4.705
 6246SOL     OW19273   4.055   2.389   4.736
 6246SOL    HW119274   4.021   2.301   4.722
 6246SOL    HW219275   4.132   2.395   4.679
 6247SOL     OW19276   4.856   2.238   5.405
 6247SOL    HW119277   4.809   2.293   5.467
 6247SOL    HW219278   4.944   2.277   5.400
 6248SOL     OW19279   4.885   2.064   5.193
 6248SOL    HW119280   4.874   2.126   5.265
 6248SOL    HW219281   4.924   2.116   5.122
 6249SOL     OW19282   3.727   3.184   3.919
 6249SOL    HW119283   3.641   3.194   3.879
 6249SOL    HW219284   3.727   3.095   3.953
 6250SOL     OW19285   3.814   3.650   4.662
 6250SOL    HW119286   3.783   3.570   4.618
 6250SOL    HW219287   3.904   3.661   4.631
 6251SOL     OW19288   4.221   3.436   4.630
 6251SOL    HW119289   4.289   3.498   4.654
 6251SOL    HW219290   4.264   3.372   4.573
 6252SOL     OW19291   4.707   2.654   4.951
 6252SOL    HW119292   4.762   2.631   5.025
 6252SOL    HW219293   4.621   2.617   4.972
 6253SOL     OW19294   3.761   2.402   4.839
 6253SOL    HW119295   3.842   2.394   4.790
 6253SOL    HW219296   3.789   2.405   4.931
 6254SOL     OW19297   3.916   2.381   5.452
 6254SOL    HW119298   3.970   2.341   5.384
 6254SOL    HW219299   3.873   2.455   5.407
 6255SOL     OW19300   5.112   2.800   5.390
 6255SOL    HW119301   5.121   2.895   5.378
 6255SOL    HW219302   5.115   2.764   5.302
 6256SOL     OW19303   4.540   2.432   4.083
 6256SOL    HW119304   4.543   2.356   4.024
 6256SOL    HW219305   4.466   2.484   4.053
 6257SOL     OW19306   3.967   3.413   5.451
 6257SOL    HW119307   3.945   3.477   5.519
 6257SOL    HW219308   3.969   3.330   5.498
 6258SOL     OW19309   4.425   2.312   4.983
 6258SOL    HW119310   4.372   2.238   4.953
 6258SOL    HW219311   4.421   2.375   4.911
 6259SOL     OW19312   4.644   3.542   5.193
 6259SOL    HW119313   4.623   3.509   5.105
 6259SOL    HW219314   4.646   3.637   5.183
 6260SOL     OW19315   4.189   2.354   3.912
 6260SOL    HW119316   4.246   2.428   3.933
 6260SOL    HW219317   4.103   2.394   3.898
 6261SOL     OW19318   3.870   3.002   5.195
 6261SOL    HW119319   3.873   2.951   5.276
 6261SOL    HW219320   3.887   2.939   5.126
 6262SOL     OW19321   5.054   2.911   4.948
 6262SOL    HW119322   5.075   2.846   4.881
 6262SOL    HW219323   4.982   2.962   4.910
 6263SOL     OW19324   5.034   2.722   4.040
 6263SOL    HW119325   4.953   2.689   4.077
 6263SOL    HW219326   5.023   2.713   3.946
 6264SOL     OW19327   4.959   3.593   4.845
 6264SOL    HW119328   5.045   3.614   4.809
 6264SOL    HW219329   4.961   3.498   4.855
 6265SOL     OW19330   3.812   3.131   4.737
 6265SOL    HW119331   3.791   3.142   4.830
 6265SOL    HW219332   3.743   3.074   4.703
 6266SOL     OW19333   4.401   3.527   5.453
 6266SOL    HW119334   4.349   3.607   5.446
 6266SOL    HW219335   4.470   3.538   5.387
 6267SOL     OW19336   0.081   2.022   4.254
 6267SOL    HW119337   0.165   2.009   4.211
 6267SOL    HW219338   0.067   1.943   4.306
 6268SOL     OW19339   5.111   3.432   4.205
 6268SOL    HW119340   5.181   3.473   4.153
 6268SOL    HW219341   5.061   3.506   4.240
 6269SOL     OW19342   3.860   3.659   5.567
 6269SOL    HW119343   3.809   3.593   5.616
 6269SOL    HW219344   3.908   3.706   5.635
 6270SOL     OW19345   5.016   2.781   4.396
 6270SOL    HW119346   5.094   2.727   4.383
 6270SOL    HW219347   5.035   2.862   4.347
 6271SOL     OW19348   4.538   3.135   5.154
 6271SOL    HW119349   4.510   3.175   5.237
 6271SOL    HW219350   4.469   3.158   5.092
 6272SOL     OW19351   4.395   3.482   3.879
 6272SOL    HW119352   4.406   3.494   3.785
 6272SOL    HW219353   4.340   3.404   3.887
 6273SOL     OW19354   3.991   2.176   4.442
 6273SOL    HW119355   3.906   2.213   4.416
 6273SOL    HW219356   3.987   2.170   4.537
 6274SOL     OW19357   4.908   3.471   3.766
 6274SOL    HW119358   4.920   3.377   3.776
 6274SOL    HW219359   4.854   3.480   3.687
 6275SOL     OW19360   4.548   2.868   5.096
 6275SOL    HW119361   4.591   2.863   5.011
 6275SOL    HW219362   4.547   2.961   5.118
 6276SOL     OW19363   4.640   2.773   4.014
 6276SOL    HW119364   4.702   2.805   3.948
 6276SOL    HW219365   4.688   2.702   4.059
 6277SOL     OW19366   4.093   3.165   5.216
 6277SOL    HW119367   4.080   3.242   5.161
 6277SOL    HW219368   4.016   3.110   5.199
 6278SOL     OW19369   4.776   2.969   4.431
 6278SOL    HW119370   4.705   2.919   4.471
 6278SOL    HW219371   4.834   2.903   4.393
 6279SOL     OW19372   4.739   2.101   4.692
 6279SOL    HW119373   4.737   2.054   4.609
 6279SOL    HW219374   4.736   2.033   4.759
 6280SOL     OW19375   4.327   3.350   4.206
 6280SOL    HW119376   4.371   3.300   4.137
 6280SOL    HW219377   4.257   3.397   4.160
 6281SOL     OW19378   3.983   3.207   4.012
 6281SOL    HW119379   3.890   3.204   3.990
 6281SOL    HW219380   3.986   3.244   4.100
 6282SOL     OW19381   3.837   2.884   5.443
 6282SOL    HW119382   3.761   2.861   5.496
 6282SOL    HW219383   3.911   2.846   5.490
 6283SOL     OW19384   4.398   2.058   5.223
 6283SOL    HW119385   4.482   2.038   5.182
 6283SOL    HW219386   4.421   2.090   5.311
 6284SOL     OW19387   3.804   2.192   3.757
 6284SOL    HW119388   3.714   2.179   3.730
 6284SOL    HW219389   3.833   2.269   3.709
 6285SOL     OW19390   5.162   2.722   5.128
 6285SOL    HW119391   5.111   2.779   5.071
 6285SOL    HW219392   5.252   2.728   5.094
 6286SOL     OW19393   3.791   2.019   4.035
 6286SOL    HW119394   3.777   2.099   3.985
 6286SOL    HW219395   3.876   1.987   4.005
 6287SOL     OW19396   4.906   3.191   3.838
 6287SOL    HW119397   4.812   3.173   3.839
 6287SOL    HW219398   4.931   3.198   3.930
 6288SOL     OW19399   4.343   2.693   5.158
 6288SOL    HW119400   4.399   2.769   5.142
 6288SOL    HW219401   4.403   2.619   5.166
 6289SOL     OW19402   4.442   2.425   5.428
 6289SOL    HW119403   4.482   2.487   5.489
 6289SOL    HW219404   4.468   2.339   5.460
 6290SOL     OW19405   5.182   3.066   5.356
 6290SOL    HW119406   5.173   3.079   5.451
 6290SOL    HW219407   5.276   3.073   5.340
 6291SOL     OW19408   4.103   3.601   5.289
 6291SOL    HW119409   4.018   3.643   5.275
 6291SOL    HW219410   4.083   3.518   5.330
 6292SOL     OW19411   4.940   2.182   4.180
 6292SOL    HW119412   5.002   2.110   4.167
 6292SOL    HW219413   4.970   2.226   4.259
 6293SOL     OW19414   4.314   2.600   4.394
 6293SOL    HW119415   4.353   2.686   4.378
 6293SOL    HW219416   4.246   2.592   4.327
 6294SOL     OW19417   4.591   3.228   3.759
 6294SOL    HW119418   4.549   3.258   3.840
 6294SOL    HW219419   4.606   3.308   3.709
 6295SOL     OW19420   4.384   3.653   4.668
 6295SOL    HW119421   4.365   3.744   4.645
 6295SOL    HW219422   4.479   3.647   4.662
 6296SOL     OW19423   4.592   2.829   4.579
 6296SOL    HW119424   4.642   2.758   4.619
 6296SOL    HW219425   4.557   2.878   4.654
 6297SOL     OW19426   4.806   2.849   3.814
 6297SOL    HW119427   4.782   2.899   3.736
 6297SOL    HW219428   4.881   2.796   3.787
 6298SOL     OW19429   3.949   3.165   5.580
 6298SOL    HW119430   3.881   3.104   5.551
 6298SOL    HW219431   3.931   3.177   5.673
 6299SOL     OW19432   3.815   3.099   4.388
 6299SOL    HW119433   3.822   3.051   4.470
 6299SOL    HW219434   3.877   3.056   4.329
 6300SOL     OW19435   4.405   3.264   5.352
 6300SOL    HW119436   4.325   3.222   5.384
 6300SOL    HW219437   4.401   3.353   5.388
 6301SOL     OW19438   4.154   2.296   4.249
 6301SOL    HW119439   4.183   2.225   4.192
 6301SOL    HW219440   4.107   2.251   4.320
 6302SOL     OW19441   0.095   3.383   4.824
 6302SOL    HW119442   0.027   3.359   4.760
 6302SOL    HW219443   0.102   3.307   4.881
 6303SOL     OW19444   4.055   2.418   5.016
 6303SOL    HW119445   4.110   2.362   5.071
 6303SOL    HW219446   4.075   2.389   4.926
 6304SOL     OW19447   4.552   3.440   4.401
 6304SOL    HW119448   4.540   3.493   4.323
 6304SOL    HW219449   4.474   3.383   4.403
 6305SOL     OW19450   5.147   2.081   4.839
 6305SOL    HW119451   5.193   2.016   4.893
 6305SOL    HW219452   5.101   2.136   4.902
 6306SOL     OW19453   4.730   1.881   4.866
 6306SOL    HW119454   4.677   1.812   4.826
 6306SOL    HW219455   4.818   1.843   4.871
 6307SOL     OW19456   4.494   3.195   4.039
 6307SOL    HW119457   4.464   3.104   4.045
 6307SOL    HW219458   4.577   3.195   4.087
 6308SOL     OW19459   4.344   3.418   5.009
 6308SOL    HW119460   4.346   3.501   5.058
 6308SOL    HW219461   4.431   3.411   4.972
 6309SOL     OW19462   5.058   1.908   3.891
 6309SOL    HW119463   5.081   1.867   3.808
 6309SOL    HW219464   4.973   1.870   3.913
 6310SOL     OW19465   5.028   2.320   4.406
 6310SOL    HW119466   4.973   2.399   4.410
 6310SOL    HW219467   5.017   2.279   4.492
 6311SOL     OW19468   0.002   2.087   4.604
 6311SOL    HW119469   5.236   2.075   4.673
 6311SOL    HW219470   5.276   2.167   4.559
 6312SOL     OW19471   3.774   2.935   4.027
 6312SOL    HW119472   3.866   2.920   4.010
 6312SOL    HW219473   3.739   2.850   4.052
 6313SOL     OW19474   4.604   3.512   4.070
 6313SOL    HW119475   4.533   3.497   4.007
 6313SOL    HW219476   4.577   3.589   4.119
 6314SOL     OW19477   3.953   2.485   5.709
 6314SOL    HW119478   3.864   2.484   5.743
 6314SOL    HW219479   3.945   2.460   5.617
 6315SOL     OW19480   3.949   2.143   6.578
 6315SOL    HW119481   3.977   2.109   6.662
 6315SOL    HW219482   3.859   2.111   6.568
 6316SOL     OW19483   3.728   2.245   6.224
 6316SOL    HW119484   3.645   2.270   6.265
 6316SOL    HW219485   3.707   2.165   6.175
 6317SOL     OW19486   4.291   3.150   6.761
 6317SOL    HW119487   4.203   3.153   6.723
 6317SOL    HW219488   4.306   3.238   6.794
 6318SOL     OW19489   5.285   3.398   6.292
 6318SOL    HW119490   5.246   3.355   6.368
 6318SOL    HW219491   5.220   3.389   6.223
 6319SOL     OW19492   4.858   2.561   6.286
 6319SOL    HW119493   4.909   2.642   6.276
 6319SOL    HW219494   4.810   2.573   6.367
 6320SOL     OW19495   4.479   3.004   6.627
 6320SOL    HW119496   4.410   3.039   6.683
 6320SOL    HW219497   4.514   3.081   6.582
 6321SOL     OW19498   4.592   2.638   7.407
 6321SOL    HW119499   4.570   2.712   7.463
 6321SOL    HW219500   4.616   2.677   7.323
 6322SOL     OW19501   4.410   2.865   6.233
 6322SOL    HW119502   4.475   2.853   6.303
 6322SOL    HW219503   4.341   2.916   6.273
 6323SOL     OW19504   4.434   3.013   7.398
 6323SOL    HW119505   4.482   3.092   7.425
 6323SOL    HW219506   4.352   3.047   7.362
 6324SOL     OW19507   4.055   3.287   6.654
 6324SOL    HW119508   3.982   3.250   6.604
 6324SOL    HW219509   4.104   3.338   6.589
 6325SOL     OW19510   5.161   3.342   6.938
 6325SOL    HW119511   5.205   3.423   6.963
 6325SOL    HW219512   5.105   3.322   7.012
 6326SOL     OW19513   4.173   2.260   7.074
 6326SOL    HW119514   4.248   2.201   7.079
 6326SOL    HW219515   4.097   2.204   7.086
 6327SOL     OW19516   3.943   3.576   6.058
 6327SOL    HW119517   3.965   3.652   6.112
 6327SOL    HW219518   4.017   3.568   5.997
 6328SOL     OW19519   4.859   3.201   7.278
 6328SOL    HW119520   4.899   3.199   7.365
 6328SOL    HW219521   4.807   3.121   7.273
 6329SOL     OW19522   3.954   3.303   6.121
 6329SOL    HW119523   3.937   3.397   6.125
 6329SOL    HW219524   3.893   3.266   6.185
 6330SOL     OW19525   3.981   2.952   6.477
 6330SOL    HW119526   3.978   2.866   6.518
 6330SOL    HW219527   3.924   3.006   6.531
 6331SOL     OW19528   4.333   3.655   7.012
 6331SOL    HW119529   4.253   3.636   7.061
 6331SOL    HW219530   4.358   3.743   7.039
 6332SOL     OW19531   4.310   2.843   5.720
 6332SOL    HW119532   4.355   2.893   5.652
 6332SOL    HW219533   4.349   2.874   5.802
 6333SOL     OW19534   3.839   2.515   6.145
 6333SOL    HW119535   3.810   2.426   6.166
 6333SOL    HW219536   3.831   2.563   6.228
 6334SOL     OW19537   3.755   3.457   5.710
 6334SOL    HW119538   3.739   3.365   5.730
 6334SOL    HW219539   3.732   3.504   5.790
 6335SOL     OW19540   0.112   2.803   6.162
 6335SOL    HW119541   0.198   2.764   6.177
 6335SOL    HW219542   0.130   2.887   6.120
 6336SOL     OW19543   3.846   2.604   7.172
 6336SOL    HW119544   3.938   2.631   7.179
 6336SOL    HW219545   3.797   2.686   7.179
 6337SOL     OW19546   4.337   3.247   6.321
 6337SOL    HW119547   4.291   3.164   6.331
 6337SOL    HW219548   4.321   3.274   6.231
 6338SOL     OW19549   5.007   3.099   7.010
 6338SOL    HW119550   5.040   3.032   6.950
 6338SOL    HW219551   5.062   3.091   7.088
 6339SOL     OW19552   4.538   1.862   6.095
 6339SOL    HW119553   4.579   1.947   6.075
 6339SOL    HW219554   4.445   1.882   6.104
 6340SOL     OW19555   3.914   2.828   6.857
 6340SOL    HW119556   3.999   2.786   6.842
 6340SOL    HW219557   3.851   2.773   6.811
 6341SOL     OW19558   4.897   3.670   7.209
 6341SOL    HW119559   4.918   3.728   7.136
 6341SOL    HW219560   4.919   3.582   7.177
 6342SOL     OW19561   4.057   2.111   7.399
 6342SOL    HW119562   4.101   2.195   7.412
 6342SOL    HW219563   3.967   2.126   7.429
 6343SOL     OW19564   5.168   3.297   6.522
 6343SOL    HW119565   5.106   3.304   6.595
 6343SOL    HW219566   5.162   3.206   6.494
 6344SOL     OW19567   4.320   2.583   5.852
 6344SOL    HW119568   4.325   2.665   5.802
 6344SOL    HW219569   4.255   2.601   5.920
 6345SOL     OW19570   4.996   2.199   6.505
 6345SOL    HW119571   4.907   2.169   6.527
 6345SOL    HW219572   5.050   2.164   6.576
 6346SOL     OW19573   4.515   2.480   7.037
 6346SOL    HW119574   4.489   2.455   7.126
 6346SOL    HW219575   4.475   2.413   6.981
 6347SOL     OW19576   5.115   2.343   7.266
 6347SOL    HW119577   5.116   2.380   7.354
 6347SOL    HW219578   5.191   2.284   7.263
 6348SOL     OW19579   4.678   2.750   7.168
 6348SOL    HW119580   4.731   2.679   7.132
 6348SOL    HW219581   4.630   2.784   7.093
 6349SOL     OW19582   4.715   2.275   6.824
 6349SOL    HW119583   4.629   2.296   6.860
 6349SOL    HW219584   4.696   2.228   6.743
 6350SOL     OW19585   4.775   2.560   6.011
 6350SOL    HW119586   4.790   2.554   6.106
 6350SOL    HW219587   4.692   2.514   5.998
 6351SOL     OW19588   3.812   2.683   6.362
 6351SOL    HW119589   3.893   2.676   6.413
 6351SOL    HW219590   3.769   2.761   6.397
 6352SOL     OW19591   3.850   3.711   7.165
 6352SOL    HW119592   3.851   3.690   7.258
 6352SOL    HW219593   3.759   3.700   7.138
 6353SOL     OW19594   4.617   2.210   5.780
 6353SOL    HW119595   4.657   2.271   5.718
 6353SOL    HW219596   4.632   2.123   5.742
 6354SOL     OW19597   5.092   3.009   6.134
 6354SOL    HW119598   5.180   3.009   6.095
 6354SOL    HW219599   5.042   3.068   6.078
 6355SOL     OW19600   4.274   2.043   6.479
 6355SOL    HW119601   4.276   2.072   6.570
 6355SOL    HW219602   4.275   2.125   6.428
 6356SOL     OW19603   4.730   3.305   6.058
 6356SOL    HW119604   4.692   3.378   6.009
 6356SOL    HW219605   4.712   3.327   6.150
 6357SOL     OW19606   4.078   3.671   6.448
 6357SOL    HW119607   4.122   3.586   6.456
 6357SOL    HW219608   4.147   3.735   6.466
 6358SOL     OW19609   4.940   3.404   7.105
 6358SOL    HW119610   4.927   3.331   7.165
 6358SOL    HW219611   4.882   3.385   7.031
 6359SOL     OW19612   4.044   2.819   5.836
 6359SOL    HW119613   4.126   2.838   5.791
 6359SOL    HW219614   4.013   2.738   5.797
 6360SOL     OW19615   4.189   3.125   7.323
 6360SOL    HW119616   4.162   3.130   7.232
 6360SOL    HW219617   4.107   3.124   7.373
 6361SOL     OW19618   4.832   3.637   5.823
 6361SOL    HW119619   4.760   3.592   5.867
 6361SOL    HW219620   4.857   3.577   5.752
 6362SOL     OW19621   3.925   2.143   7.088
 6362SOL    HW119622   3.843   2.192   7.082
 6362SOL    HW219623   3.906   2.072   7.148
 6363SOL     OW19624   4.190   3.599   5.907
 6363SOL    HW119625   4.232   3.656   5.971
 6363SOL    HW219626   4.261   3.568   5.851
 6364SOL     OW19627   5.121   1.969   6.010
 6364SOL    HW119628   5.101   1.951   5.918
 6364SOL    HW219629   5.215   1.985   6.012
 6365SOL     OW19630   3.979   3.653   6.818
 6365SOL    HW119631   4.031   3.588   6.864
 6365SOL    HW219632   3.970   3.619   6.729
 6366SOL     OW19633   4.662   3.560   6.485
 6366SOL    HW119634   4.742   3.510   6.503
 6366SOL    HW219635   4.618   3.511   6.416
 6367SOL     OW19636   4.117   2.557   6.062
 6367SOL    HW119637   4.137   2.464   6.074
 6367SOL    HW219638   4.023   2.563   6.079
 6368SOL     OW19639   4.360   1.985   5.691
 6368SOL    HW119640   4.429   1.920   5.703
 6368SOL    HW219641   4.310   1.953   5.615
 6369SOL     OW19642   4.489   2.139   7.340
 6369SOL    HW119643   4.566   2.082   7.341
 6369SOL    HW219644   4.445   2.122   7.423
 6370SOL     OW19645   4.599   3.383   6.780
 6370SOL    HW119646   4.585   3.348   6.692
 6370SOL    HW219647   4.670   3.330   6.816
 6371SOL     OW19648   5.058   2.454   7.018
 6371SOL    HW119649   5.090   2.422   7.102
 6371SOL    HW219650   5.100   2.539   7.007
 6372SOL     OW19651   4.538   3.257   6.525
 6372SOL    HW119652   4.623   3.245   6.482
 6372SOL    HW219653   4.475   3.258   6.454
 6373SOL     OW19654   4.651   2.371   6.489
 6373SOL    HW119655   4.628   2.362   6.396
 6373SOL    HW219656   4.683   2.284   6.514
 6374SOL     OW19657   4.273   1.925   6.088
 6374SOL    HW119658   4.192   1.926   6.140
 6374SOL    HW219659   4.267   2.003   6.033
 6375SOL     OW19660   5.136   3.043   5.630
 6375SOL    HW119661   5.146   2.964   5.684
 6375SOL    HW219662   5.049   3.076   5.650
 6376SOL     OW19663   4.016   1.910   5.771
 6376SOL    HW119664   4.074   1.974   5.730
 6376SOL    HW219665   4.074   1.846   5.812
 6377SOL     OW19666   4.661   2.109   6.046
 6377SOL    HW119667   4.634   2.149   5.963
 6377SOL    HW219668   4.756   2.121   6.049
 6378SOL     OW19669   4.801   2.543   7.047
 6378SOL    HW119670   4.734   2.475   7.049
 6378SOL    HW219671   4.883   2.495   7.037
 6379SOL     OW19672   4.940   3.433   6.380
 6379SOL    HW119673   4.962   3.500   6.315
 6379SOL    HW219674   5.021   3.421   6.431
 6380SOL     OW19675   4.193   3.011   6.319
 6380SOL    HW119676   4.124   2.992   6.383
 6380SOL    HW219677   4.153   2.995   6.234
 6381SOL     OW19678   4.996   3.656   6.191
 6381SOL    HW119679   5.038   3.717   6.131
 6381SOL    HW219680   4.929   3.708   6.236
 6382SOL     OW19681   4.748   2.405   5.608
 6382SOL    HW119682   4.704   2.488   5.588
 6382SOL    HW219683   4.809   2.427   5.678
 6383SOL     OW19684   3.803   2.417   6.978
 6383SOL    HW119685   3.895   2.415   6.951
 6383SOL    HW219686   3.798   2.487   7.043
 6384SOL     OW19687   4.283   2.089   6.752
 6384SOL    HW119688   4.325   2.013   6.792
 6384SOL    HW219689   4.192   2.085   6.782
 6385SOL     OW19690   4.593   2.321   6.225
 6385SOL    HW119691   4.546   2.376   6.162
 6385SOL    HW219692   4.613   2.241   6.177
 6386SOL     OW19693   4.739   1.915   6.338
 6386SOL    HW119694   4.681   1.908   6.262
 6386SOL    HW219695   4.717   1.839   6.392
 6387SOL     OW19696   5.157   3.038   6.437
 6387SOL    HW119697   5.101   2.961   6.450
 6387SOL    HW219698   5.169   3.043   6.342
 6388SOL     OW19699   4.215   3.280   5.743
 6388SOL    HW119700   4.140   3.251   5.795
 6388SOL    HW219701   4.200   3.241   5.656
 6389SOL     OW19702   5.127   2.424   5.666
 6389SOL    HW119703   5.055   2.414   5.728
 6389SOL    HW219704   5.202   2.386   5.711
 6390SOL     OW19705   4.250   2.125   5.904
 6390SOL    HW119706   4.294   2.077   5.834
 6390SOL    HW219707   4.227   2.209   5.865
 6391SOL     OW19708   4.780   3.216   6.919
 6391SOL    HW119709   4.705   3.185   6.970
 6391SOL    HW219710   4.856   3.173   6.960
 6392SOL     OW19711   0.007   3.467   7.202
 6392SOL    HW119712   0.040   3.472   7.113
 6392SOL    HW219713   0.083   3.447   7.256
 6393SOL     OW19714   4.853   3.065   6.692
 6393SOL    HW119715   4.792   3.101   6.757
 6393SOL    HW219716   4.819   3.095   6.608
 6394SOL     OW19717   4.642   1.960   6.982
 6394SOL    HW119718   4.664   1.941   6.891
 6394SOL    HW219719   4.721   1.998   7.019
 6395SOL     OW19720   4.709   2.974   7.313
 6395SOL    HW119721   4.617   2.993   7.331
 6395SOL    HW219722   4.706   2.898   7.255
 6396SOL     OW19723   4.433   2.923   5.957
 6396SOL    HW119724   4.419   2.907   6.050
 6396SOL    HW219725   4.508   2.870   5.934
 6397SOL     OW19726   4.143   2.677   6.837
 6397SOL    HW119727   4.211   2.686   6.903
 6397SOL    HW219728   4.108   2.589   6.851
 6398SOL     OW19729   4.988   2.237   6.862
 6398SOL    HW119730   5.023   2.317   6.903
 6398SOL    HW219731   4.899   2.261   6.838
 6399SOL     OW19732   3.794   3.435   6.939
 6399SOL    HW119733   3.765   3.508   6.885
 6399SOL    HW219734   3.890   3.439   6.933
 6400SOL     OW19735   4.073   2.971   6.076
 6400SOL    HW119736   4.078   3.045   6.016
 6400SOL    HW219737   4.070   2.894   6.020
 6401SOL     OW19738   4.277   2.399   6.446
 6401SOL    HW119739   4.292   2.457   6.371
 6401SOL    HW219740   4.342   2.425   6.511
 6402SOL     OW19741   4.972   3.211   5.973
 6402SOL    HW119742   5.026   3.284   6.004
 6402SOL    HW219743   4.884   3.231   6.007
 6403SOL     OW19744   4.994   3.318   6.726
 6403SOL    HW119745   5.049   3.320   6.804
 6403SOL    HW219746   4.940   3.240   6.736
 6404SOL     OW19747   4.071   3.389   6.901
 6404SOL    HW119748   4.058   3.346   6.816
 6404SOL    HW219749   4.165   3.401   6.908
 6405SOL     OW19750   4.138   2.607   7.188
 6405SOL    HW119751   4.200   2.652   7.130
 6405SOL    HW219752   4.177   2.521   7.203
 6406SOL     OW19753   4.718   1.987   7.341
 6406SOL    HW119754   4.775   2.059   7.313
 6406SOL    HW219755   4.766   1.908   7.316
 6407SOL     OW19756   4.222   1.902   7.334
 6407SOL    HW119757   4.179   1.848   7.268
 6407SOL    HW219758   4.163   1.977   7.346
 6408SOL     OW19759   4.307   2.735   6.617
 6408SOL    HW119760   4.337   2.826   6.616
 6408SOL    HW219761   4.251   2.729   6.694
 6409SOL     OW19762   5.086   2.719   6.623
 6409SOL    HW119763   5.009   2.701   6.569
 6409SOL    HW219764   5.138   2.639   6.618
 6410SOL     OW19765   4.928   2.393   5.851
 6410SOL    HW119766   4.935   2.313   5.903
 6410SOL    HW219767   4.885   2.456   5.908
 6411SOL     OW19768   4.023   2.060   6.833
 6411SOL    HW119769   3.985   2.093   6.914
 6411SOL    HW219770   4.004   1.967   6.833
 6412SOL     OW19771   3.771   3.173   6.862
 6412SOL    HW119772   3.803   3.118   6.934
 6412SOL    HW219773   3.777   3.262   6.895
 6413SOL     OW19774   4.448   2.493   6.644
 6413SOL    HW119775   4.523   2.477   6.586
 6413SOL    HW219776   4.420   2.582   6.623
 6414SOL     OW19777   4.027   1.926   6.209
 6414SOL    HW119778   4.008   2.017   6.232
 6414SOL    HW219779   4.034   1.881   6.293
 6415SOL     OW19780   0.035   2.256   5.945
 6415SOL    HW119781   0.054   2.181   6.002
 6415SOL    HW219782   0.018   2.328   6.006
 6416SOL     OW19783   4.751   2.621   6.546
 6416SOL    HW119784   4.749   2.639   6.640
 6416SOL    HW219785   4.725   2.529   6.538
 6417SOL     OW19786   4.698   3.423   7.300
 6417SOL    HW119787   4.687   3.471   7.218
 6417SOL    HW219788   4.746   3.344   7.275
 6418SOL     OW19789   4.077   2.776   7.397
 6418SOL    HW119790   4.161   2.797   7.438
 6418SOL    HW219791   4.100   2.714   7.327
 6419SOL     OW19792   5.027   2.691   5.623
 6419SOL    HW119793   5.065   2.603   5.625
 6419SOL    HW219794   5.054   2.726   5.538
 6420SOL     OW19795   4.789   3.196   6.441
 6420SOL    HW119796   4.793   3.124   6.378
 6420SOL    HW219797   4.847   3.263   6.405
 6421SOL     OW19798   4.033   2.671   6.533
 6421SOL    HW119799   4.126   2.692   6.527
 6421SOL    HW219800   4.031   2.581   6.566
 6422SOL     OW19801   4.055   2.388   6.598
 6422SOL    HW119802   4.020   2.300   6.583
 6422SOL    HW219803   4.132   2.393   6.541
 6423SOL     OW19804   4.857   2.238   7.266
 6423SOL    HW119805   4.809   2.293   7.328
 6423SOL    HW219806   4.944   2.278   7.261
 6424SOL     OW19807   4.885   2.064   7.054
 6424SOL    HW119808   4.874   2.126   7.126
 6424SOL    HW219809   4.924   2.116   6.984
 6425SOL     OW19810   3.729   3.183   5.781
 6425SOL    HW119811   3.642   3.197   5.743
 6425SOL    HW219812   3.726   3.094   5.815
 6426SOL     OW19813   3.814   3.649   6.524
 6426SOL    HW119814   3.784   3.569   6.480
 6426SOL    HW219815   3.904   3.661   6.493
 6427SOL     OW19816   4.220   3.436   6.491
 6427SOL    HW119817   4.289   3.498   6.516
 6427SOL    HW219818   4.265   3.372   6.435
 6428SOL     OW19819   4.707   2.654   6.812
 6428SOL    HW119820   4.762   2.631   6.887
 6428SOL    HW219821   4.621   2.617   6.834
 6429SOL     OW19822   3.759   2.406   6.703
 6429SOL    HW119823   3.840   2.393   6.653
 6429SOL    HW219824   3.788   2.410   6.794
 6430SOL     OW19825   3.917   2.381   7.313
 6430SOL    HW119826   3.971   2.342   7.245
 6430SOL    HW219827   3.873   2.455   7.270
 6431SOL     OW19828   5.111   2.800   7.253
 6431SOL    HW119829   5.119   2.894   7.241
 6431SOL    HW219830   5.115   2.764   7.164
 6432SOL     OW19831   4.540   2.431   5.945
 6432SOL    HW119832   4.543   2.356   5.886
 6432SOL    HW219833   4.466   2.483   5.914
 6433SOL     OW19834   3.967   3.413   7.314
 6433SOL    HW119835   3.945   3.478   7.381
 6433SOL    HW219836   3.969   3.330   7.360
 6434SOL     OW19837   4.425   2.312   6.845
 6434SOL    HW119838   4.372   2.238   6.815
 6434SOL    HW219839   4.421   2.375   6.773
 6435SOL     OW19840   4.645   3.542   7.054
 6435SOL    HW119841   4.623   3.510   6.967
 6435SOL    HW219842   4.646   3.637   7.045
 6436SOL     OW19843   4.188   2.354   5.773
 6436SOL    HW119844   4.246   2.427   5.795
 6436SOL    HW219845   4.103   2.395   5.760
 6437SOL     OW19846   3.870   3.002   7.059
 6437SOL    HW119847   3.872   2.951   7.139
 6437SOL    HW219848   3.887   2.939   6.989
 6438SOL     OW19849   5.054   2.911   6.810
 6438SOL    HW119850   5.075   2.846   6.743
 6438SOL    HW219851   4.982   2.962   6.772
 6439SOL     OW19852   5.034   2.722   5.902
 6439SOL    HW119853   4.953   2.689   5.939
 6439SOL    HW219854   5.023   2.713   5.808
 6440SOL     OW19855   4.960   3.593   6.707
 6440SOL    HW119856   5.045   3.614   6.670
 6440SOL    HW219857   4.960   3.498   6.717
 6441SOL     OW19858   3.808   3.129   6.598
 6441SOL    HW119859   3.794   3.142   6.692
 6441SOL    HW219860   3.735   3.074   6.570
 6442SOL     OW19861   4.400   3.526   7.313
 6442SOL    HW119862   4.350   3.607   7.309
 6442SOL    HW219863   4.470   3.538   7.249
 6443SOL     OW19864   0.081   2.022   6.116
 6443SOL    HW119865   0.165   2.009   6.073
 6443SOL    HW219866   0.067   1.942   6.167
 6444SOL     OW19867   5.111   3.432   6.066
 6444SOL    HW119868   5.181   3.473   6.016
 6444SOL    HW219869   5.061   3.506   6.102
 6445SOL     OW19870   3.860   3.658   7.430
 6445SOL    HW119871   3.809   3.593   7.479
 6445SOL    HW219872   3.908   3.707   7.497
 6446SOL     OW19873   5.016   2.781   6.258
 6446SOL    HW119874   5.094   2.727   6.245
 6446SOL    HW219875   5.035   2.862   6.209
 6447SOL     OW19876   4.538   3.135   7.016
 6447SOL    HW119877   4.510   3.175   7.099
 6447SOL    HW219878   4.469   3.158   6.954
 6448SOL     OW19879   4.395   3.482   5.741
 6448SOL    HW119880   4.406   3.494   5.647
 6448SOL    HW219881   4.340   3.404   5.749
 6449SOL     OW19882   3.986   2.178   6.303
 6449SOL    HW119883   3.900   2.213   6.279
 6449SOL    HW219884   3.983   2.170   6.398
 6450SOL     OW19885   4.908   3.471   5.628
 6450SOL    HW119886   4.920   3.377   5.638
 6450SOL    HW219887   4.854   3.480   5.549
 6451SOL     OW19888   4.548   2.868   6.959
 6451SOL    HW119889   4.591   2.864   6.873
 6451SOL    HW219890   4.547   2.961   6.980
 6452SOL     OW19891   4.640   2.773   5.876
 6452SOL    HW119892   4.702   2.805   5.810
 6452SOL    HW219893   4.687   2.702   5.921
 6453SOL     OW19894   4.093   3.165   7.078
 6453SOL    HW119895   4.080   3.242   7.023
 6453SOL    HW219896   4.016   3.110   7.061
 6454SOL     OW19897   4.776   2.969   6.293
 6454SOL    HW119898   4.705   2.919   6.333
 6454SOL    HW219899   4.834   2.902   6.255
 6455SOL     OW19900   4.739   2.101   6.554
 6455SOL    HW119901   4.737   2.054   6.471
 6455SOL    HW219902   4.736   2.033   6.621
 6456SOL     OW19903   4.326   3.350   6.068
 6456SOL    HW119904   4.371   3.300   5.999
 6456SOL    HW219905   4.258   3.398   6.021
 6457SOL     OW19906   3.983   3.207   5.874
 6457SOL    HW119907   3.890   3.205   5.852
 6457SOL    HW219908   3.986   3.244   5.963
 6458SOL     OW19909   3.837   2.884   7.306
 6458SOL    HW119910   3.760   2.861   7.358
 6458SOL    HW219911   3.911   2.846   7.354
 6459SOL     OW19912   4.398   2.058   7.085
 6459SOL    HW119913   4.482   2.038   7.044
 6459SOL    HW219914   4.421   2.089   7.173
 6460SOL     OW19915   3.802   2.196   5.621
 6460SOL    HW119916   3.716   2.176   5.585
 6460SOL    HW219917   3.832   2.271   5.570
 6461SOL     OW19918   5.163   2.722   6.990
 6461SOL    HW119919   5.111   2.779   6.933
 6461SOL    HW219920   5.252   2.729   6.956
 6462SOL     OW19921   3.792   2.018   5.896
 6462SOL    HW119922   3.778   2.098   5.845
 6462SOL    HW219923   3.877   1.985   5.866
 6463SOL     OW19924   4.907   3.191   5.700
 6463SOL    HW119925   4.813   3.173   5.701
 6463SOL    HW219926   4.931   3.198   5.792
 6464SOL     OW19927   4.343   2.693   7.019
 6464SOL    HW119928   4.399   2.769   7.004
 6464SOL    HW219929   4.403   2.619   7.027
 6465SOL     OW19930   4.442   2.425   7.290
 6465SOL    HW119931   4.482   2.486   7.352
 6465SOL    HW219932   4.468   2.338   7.322
 6466SOL     OW19933   5.182   3.066   7.217
 6466SOL    HW119934   5.172   3.077   7.311
 6466SOL    HW219935   5.276   3.073   7.202
 6467SOL     OW19936   4.103   3.602   7.150
 6467SOL    HW119937   4.018   3.643   7.137
 6467SOL    HW219938   4.083   3.518   7.192
 6468SOL     OW19939   4.940   2.182   6.042
 6468SOL    HW119940   5.002   2.110   6.029
 6468SOL    HW219941   4.970   2.226   6.121
 6469SOL     OW19942   4.314   2.599   6.255
 6469SOL    HW119943   4.353   2.686   6.240
 6469SOL    HW219944   4.246   2.592   6.188
 6470SOL     OW19945   4.590   3.228   5.621
 6470SOL    HW119946   4.549   3.259   5.702
 6470SOL    HW219947   4.606   3.308   5.571
 6471SOL     OW19948   4.384   3.653   6.530
 6471SOL    HW119949   4.365   3.744   6.507
 6471SOL    HW219950   4.479   3.647   6.524
 6472SOL     OW19951   4.592   2.829   6.441
 6472SOL    HW119952   4.642   2.758   6.481
 6472SOL    HW219953   4.557   2.878   6.516
 6473SOL     OW19954   4.806   2.849   5.676
 6473SOL    HW119955   4.782   2.899   5.598
 6473SOL    HW219956   4.881   2.796   5.649
 6474SOL     OW19957   3.949   3.165   7.443
 6474SOL    HW119958   3.882   3.104   7.411
 6474SOL    HW219959   3.928   3.179   7.535
 6475SOL     OW19960   3.807   3.095   6.251
 6475SOL    HW119961   3.813   3.047   6.333
 6475SOL    HW219962   3.876   3.057   6.196
 6476SOL     OW19963   4.405   3.263   7.214
 6476SOL    HW119964   4.324   3.222   7.245
 6476SOL    HW219965   4.401   3.352   7.249
 6477SOL     OW19966   4.154   2.296   6.112
 6477SOL    HW119967   4.183   2.225   6.054
 6477SOL    HW219968   4.105   2.252   6.182
 6478SOL     OW19969   0.095   3.383   6.686
 6478SOL    HW119970   0.027   3.359   6.622
 6478SOL    HW219971   0.102   3.307   6.744
 6479SOL     OW19972   4.054   2.417   6.878
 6479SOL    HW119973   4.110   2.362   6.933
 6479SOL    HW219974   4.073   2.389   6.788
 6480SOL     OW19975   4.552   3.439   6.263
 6480SOL    HW119976   4.540   3.493   6.185
 6480SOL    HW219977   4.474   3.383   6.265
 6481SOL     OW19978   5.147   2.081   6.701
 6481SOL    HW119979   5.192   2.016   6.755
 6481SOL    HW219980   5.101   2.136   6.764
 6482SOL     OW19981   4.730   1.881   6.728
 6482SOL    HW119982   4.677   1.812   6.688
 6482SOL    HW219983   4.818   1.843   6.733
 6483SOL     OW19984   4.495   3.195   5.901
 6483SOL    HW119985   4.464   3.104   5.907
 6483SOL    HW219986   4.577   3.196   5.950
 6484SOL     OW19987   4.344   3.418   6.871
 6484SOL    HW119988   4.346   3.501   6.920
 6484SOL    HW219989   4.431   3.411   6.833
 6485SOL     OW19990   5.058   1.908   5.753
 6485SOL    HW119991   5.081   1.867   5.670
 6485SOL    HW219992   4.973   1.870   5.775
 6486SOL     OW19993   5.028   2.320   6.268
 6486SOL    HW119994   4.973   2.399   6.272
 6486SOL    HW219995   5.017   2.279   6.354
 6487SOL     OW19996   0.002   2.087   6.466
 6487SOL    HW119997   5.236   2.075   6.535
 6487SOL    HW219998   5.276   2.167   6.421
 6488SOL     OW19999   3.767   2.933   5.892
 6488SOL    HW120000   3.861   2.925   5.875
 6488SOL    HW220001   3.739   2.844   5.915
 6489SOL     OW20002   4.604   3.512   5.932
 6489SOL    HW120003   4.533   3.497   5.869
 6489SOL    HW220004   4.577   3.589   5.981
 6490SOL     OW20005   3.953   2.481   7.572
 6490SOL    HW120006   3.862   2.489   7.602
 6490SOL    HW220007   3.945   2.458   7.479
 6491SOL     OW20008   3.945   3.579   7.919
 6491SOL    HW120009   3.973   3.621   8.000
 6491SOL    HW220010   4.023   3.578   7.864
 6492SOL     OW20011   3.941   3.300   7.991
 6492SOL    HW120012   3.927   3.395   7.989
 6492SOL    HW220013   3.881   3.268   8.058
 6493SOL     OW20014   4.311   2.843   7.579
 6493SOL    HW120015   4.354   2.894   7.510
 6493SOL    HW220016   4.349   2.876   7.661
 6494SOL     OW20017   3.754   3.461   7.578
 6494SOL    HW120018   3.738   3.368   7.593
 6494SOL    HW220019   3.727   3.504   7.659
 6495SOL     OW20020   0.117   2.789   8.016
 6495SOL    HW120021   0.210   2.779   8.035
 6495SOL    HW220022   0.105   2.882   8.000
 6496SOL     OW20023   4.525   1.856   7.938
 6496SOL    HW120024   4.575   1.937   7.922
 6496SOL    HW220025   4.434   1.885   7.947
 6497SOL     OW20026   4.315   2.587   7.709
 6497SOL    HW120027   4.318   2.669   7.659
 6497SOL    HW220028   4.254   2.605   7.780
 6498SOL     OW20029   3.784   2.724   0.090
 6498SOL    HW120030   3.850   2.660   0.119
 6498SOL    HW220031   3.780   2.788   0.161
 6499SOL     OW20032   4.607   2.207   7.639
 6499SOL    HW120033   4.650   2.266   7.577
 6499SOL    HW220034   4.638   2.120   7.614
 6500SOL     OW20035   4.047   2.817   7.698
 6500SOL    HW120036   4.127   2.836   7.647
 6500SOL    HW220037   4.010   2.740   7.656
 6501SOL     OW20038   4.837   3.638   7.684
 6501SOL    HW120039   4.763   3.595   7.728
 6501SOL    HW220040   4.861   3.578   7.614
 6502SOL     OW20041   4.191   3.600   7.770
 6502SOL    HW120042   4.239   3.653   7.833
 6502SOL    HW220043   4.258   3.564   7.711
 6503SOL     OW20044   5.132   1.988   7.857
 6503SOL    HW120045   5.096   1.964   7.771
 6503SOL    HW220046   5.227   1.988   7.843
 6504SOL     OW20047   4.116   2.560   7.918
 6504SOL    HW120048   4.119   2.465   7.926
 6504SOL    HW220049   4.024   2.583   7.933
 6505SOL     OW20050   4.354   1.982   7.559
 6505SOL    HW120051   4.428   1.923   7.569
 6505SOL    HW220052   4.309   1.951   7.480
 6506SOL     OW20053   4.256   1.936   7.959
 6506SOL    HW120054   4.170   1.940   8.002
 6506SOL    HW220055   4.254   2.007   7.895
 6507SOL     OW20056   5.137   3.041   7.488
 6507SOL    HW120057   5.153   2.971   7.551
 6507SOL    HW220058   5.050   3.074   7.511
 6508SOL     OW20059   4.016   1.911   7.633
 6508SOL    HW120060   4.075   1.972   7.587
 6508SOL    HW220061   4.075   1.846   7.672
 6509SOL     OW20062   4.666   2.089   7.910
 6509SOL    HW120063   4.624   2.152   7.852
 6509SOL    HW220064   4.758   2.116   7.913
 6510SOL     OW20065   4.163   3.009   0.100
 6510SOL    HW120066   4.089   3.051   0.145
 6510SOL    HW220067   4.133   2.998   0.010
 6511SOL     OW20068   5.008   3.667   8.012
 6511SOL    HW120069   5.047   3.732   7.955
 6511SOL    HW220070   4.937   3.713   8.057
 6512SOL     OW20071   4.751   2.407   7.465
 6512SOL    HW120072   4.704   2.488   7.449
 6512SOL    HW220073   4.805   2.426   7.543
 6513SOL     OW20074   4.212   3.278   7.604
 6513SOL    HW120075   4.138   3.249   7.658
 6513SOL    HW220076   4.196   3.240   7.518
 6514SOL     OW20077   5.128   2.423   7.530
 6514SOL    HW120078   5.053   2.414   7.589
 6514SOL    HW220079   5.201   2.383   7.577
 6515SOL     OW20080   4.250   2.128   7.770
 6515SOL    HW120081   4.294   2.078   7.701
 6515SOL    HW220082   4.227   2.211   7.729
 6516SOL     OW20083   4.437   2.924   7.811
 6516SOL    HW120084   4.411   2.911   7.902
 6516SOL    HW220085   4.516   2.871   7.801
 6517SOL     OW20086   4.089   2.965   7.927
 6517SOL    HW120087   4.070   3.044   7.877
 6517SOL    HW220088   4.076   2.893   7.865
 6518SOL     OW20089   4.958   3.220   7.819
 6518SOL    HW120090   5.016   3.291   7.847
 6518SOL    HW220091   4.904   3.201   7.895
 6519SOL     OW20092   0.037   2.510   7.925
 6519SOL    HW120093   5.279   2.528   7.999
 6519SOL    HW220094   0.039   2.592   7.874
 6520SOL     OW20095   4.927   2.391   7.713
 6520SOL    HW120096   4.931   2.307   7.759
 6520SOL    HW220097   4.897   2.454   7.779
 6521SOL     OW20098   0.025   2.264   7.806
 6521SOL    HW120099   0.038   2.196   7.872
 6521SOL    HW220100   0.023   2.346   7.857
 6522SOL     OW20101   5.034   2.694   7.490
 6522SOL    HW120102   5.065   2.603   7.487
 6522SOL    HW220103   5.057   2.730   7.405
 6523SOL     OW20104   3.730   3.186   7.640
 6523SOL    HW120105   3.643   3.199   7.603
 6523SOL    HW220106   3.729   3.097   7.674
 6524SOL     OW20107   4.564   2.463   7.759
 6524SOL    HW120108   4.556   2.371   7.734
 6524SOL    HW220109   4.474   2.496   7.760
 6525SOL     OW20110   4.186   2.355   7.642
 6525SOL    HW120111   4.245   2.430   7.657
 6525SOL    HW220112   4.101   2.395   7.623
 6526SOL     OW20113   5.032   2.709   7.773
 6526SOL    HW120114   4.939   2.725   7.791
 6526SOL    HW220115   5.038   2.707   7.677
 6527SOL     OW20116   0.181   2.004   7.990
 6527SOL    HW120117   0.157   1.987   7.899
 6527SOL    HW220118   0.138   1.935   8.040
 6528SOL     OW20119   5.103   3.435   7.907
 6528SOL    HW120120   5.198   3.445   7.907
 6528SOL    HW220121   5.070   3.516   7.945
 6529SOL     OW20122   4.390   3.482   7.604
 6529SOL    HW120123   4.403   3.493   7.509
 6529SOL    HW220124   4.338   3.402   7.611
 6530SOL     OW20125   4.911   3.473   7.487
 6530SOL    HW120126   4.920   3.378   7.501
 6530SOL    HW220127   4.852   3.480   7.412
 6531SOL     OW20128   4.655   2.770   7.758
 6531SOL    HW120129   4.705   2.795   7.681
 6531SOL    HW220130   4.643   2.676   7.750
 6532SOL     OW20131   4.328   3.368   7.936
 6532SOL    HW120132   4.374   3.308   7.878
 6532SOL    HW220133   4.256   3.402   7.883
 6533SOL     OW20134   3.982   3.208   7.742
 6533SOL    HW120135   3.890   3.206   7.716
 6533SOL    HW220136   3.981   3.244   7.830
 6534SOL     OW20137   3.801   2.195   7.483
 6534SOL    HW120138   3.715   2.176   7.447
 6534SOL    HW220139   3.832   2.271   7.433
 6535SOL     OW20140   3.794   2.019   7.758
 6535SOL    HW120141   3.777   2.095   7.702
 6535SOL    HW220142   3.877   1.984   7.726
 6536SOL     OW20143   4.905   3.191   7.555
 6536SOL    HW120144   4.810   3.177   7.555
 6536SOL    HW220145   4.927   3.203   7.648
 6537SOL     OW20146   5.268   3.605   0.322
 6537SOL    HW120147   5.271   3.691   0.281
 6537SOL    HW220148   0.041   3.604   0.383
 6538SOL     OW20149   4.938   2.182   7.901
 6538SOL    HW120150   5.010   2.119   7.890
 6538SOL    HW220151   4.956   2.225   7.985
 6539SOL     OW20152   4.349   2.596   8.057
 6539SOL    HW120153   4.355   2.679   0.024
 6539SOL    HW220154   4.263   2.597   8.016
 6540SOL     OW20155   4.591   3.228   7.483
 6540SOL    HW120156   4.551   3.257   7.565
 6540SOL    HW220157   4.607   3.309   7.434
 6541SOL     OW20158   4.801   2.840   7.540
 6541SOL    HW120159   4.778   2.895   7.465
 6541SOL    HW220160   4.880   2.793   7.512
 6542SOL     OW20161   4.111   2.288   7.983
 6542SOL    HW120162   4.161   2.237   7.919
 6542SOL    HW220163   4.162   2.282   8.064
 6543SOL     OW20164   4.489   3.197   7.760
 6543SOL    HW120165   4.459   3.106   7.763
 6543SOL    HW220166   4.568   3.199   7.814
 6544SOL     OW20167   5.061   1.906   7.610
 6544SOL    HW120168   5.082   1.862   7.528
 6544SOL    HW220169   4.977   1.869   7.638
 6545SOL     OW20170   3.775   2.940   7.750
 6545SOL    HW120171   3.869   2.930   7.736
 6545SOL    HW220172   3.743   2.851   7.766
 6546SOL     OW20173   4.613   3.509   7.783
 6546SOL    HW120174   4.537   3.489   7.729
 6546SOL    HW220175   4.582   3.573   7.846
 6547SOL     OW20176   3.943   4.347   0.122
 6547SOL    HW120177   3.863   4.313   0.161
 6547SOL    HW220178   3.965   4.285   0.052
 6548SOL     OW20179   3.949   4.005   0.992
 6548SOL    HW120180   3.977   3.971   1.076
 6548SOL    HW220181   3.859   3.973   0.982
 6549SOL     OW20182   3.728   4.107   0.638
 6549SOL    HW120183   3.645   4.133   0.679
 6549SOL    HW220184   3.707   4.027   0.590
 6550SOL     OW20185   4.290   5.005   1.179
 6550SOL    HW120186   4.205   5.005   1.135
 6550SOL    HW220187   4.303   5.097   1.205
 6551SOL     OW20188   5.276   5.233   0.692
 6551SOL    HW120189   5.264   5.216   0.785
 6551SOL    HW220190   5.187   5.230   0.656
 6552SOL     OW20191   4.858   4.423   0.700
 6552SOL    HW120192   4.909   4.504   0.690
 6552SOL    HW220193   4.810   4.436   0.782
 6553SOL     OW20194   4.479   4.867   1.038
 6553SOL    HW120195   4.412   4.899   1.098
 6553SOL    HW220196   4.510   4.946   0.992
 6554SOL     OW20197   4.592   4.498   1.822
 6554SOL    HW120198   4.575   4.570   1.883
 6554SOL    HW220199   4.614   4.542   1.740
 6555SOL     OW20200   4.408   4.725   0.651
 6555SOL    HW120201   4.474   4.715   0.720
 6555SOL    HW220202   4.340   4.780   0.691
 6556SOL     OW20203   4.433   4.873   1.813
 6556SOL    HW120204   4.481   4.953   1.836
 6556SOL    HW220205   4.350   4.905   1.777
 6557SOL     OW20206   4.061   5.151   1.060
 6557SOL    HW120207   3.984   5.107   1.024
 6557SOL    HW220208   4.101   5.194   0.985
 6558SOL     OW20209   5.128   5.238   1.341
 6558SOL    HW120210   5.149   0.008   1.403
 6558SOL    HW220211   5.109   5.162   1.396
 6559SOL     OW20212   4.173   4.122   1.487
 6559SOL    HW120213   4.248   4.063   1.493
 6559SOL    HW220214   4.097   4.066   1.500
 6560SOL     OW20215   4.865   5.051   1.700
 6560SOL    HW120216   4.886   5.065   1.792
 6560SOL    HW220217   4.803   4.977   1.701
 6561SOL     OW20218   3.931   5.155   0.515
 6561SOL    HW120219   3.960   5.237   0.556
 6561SOL    HW220220   3.880   5.112   0.583
 6562SOL     OW20221   3.981   4.811   0.891
 6562SOL    HW120222   3.979   4.724   0.931
 6562SOL    HW220223   3.924   4.864   0.947
 6563SOL     OW20224   4.353   4.685   0.132
 6563SOL    HW120225   4.301   4.761   0.107
 6563SOL    HW220226   4.403   4.713   0.209
 6564SOL     OW20227   3.839   4.374   0.562
 6564SOL    HW120228   3.809   4.286   0.583
 6564SOL    HW220229   3.831   4.423   0.644
 6565SOL     OW20230   3.701   0.020   0.095
 6565SOL    HW120231   3.717   5.229   0.122
 6565SOL    HW220232   3.731   0.073   0.169
 6566SOL     OW20233   0.115   4.655   0.583
 6566SOL    HW120234   0.208   4.634   0.589
 6566SOL    HW220235   0.113   4.744   0.546
 6567SOL     OW20236   3.847   4.466   1.586
 6567SOL    HW120237   3.939   4.492   1.593
 6567SOL    HW220238   3.799   4.549   1.594
 6568SOL     OW20239   4.345   5.099   0.737
 6568SOL    HW120240   4.291   5.020   0.735
 6568SOL    HW220241   4.328   5.142   0.654
 6569SOL     OW20242   5.020   4.971   1.420
 6569SOL    HW120243   5.048   4.899   1.363
 6569SOL    HW220244   5.067   4.956   1.502
 6570SOL     OW20245   4.539   3.726   0.511
 6570SOL    HW120246   4.579   3.811   0.489
 6570SOL    HW220247   4.446   3.745   0.519
 6571SOL     OW20248   3.914   4.690   1.270
 6571SOL    HW120249   3.999   4.647   1.256
 6571SOL    HW220250   3.852   4.635   1.223
 6572SOL     OW20251   4.057   3.974   1.811
 6572SOL    HW120252   4.102   4.057   1.828
 6572SOL    HW220253   3.968   3.988   1.843
 6573SOL     OW20254   5.178   5.153   0.951
 6573SOL    HW120255   5.110   5.163   1.017
 6573SOL    HW220256   5.164   5.066   0.914
 6574SOL     OW20257   0.050   0.163   0.563
 6574SOL    HW120258   0.091   0.122   0.487
 6574SOL    HW220259   0.038   0.092   0.626
 6575SOL     OW20260   4.322   4.438   0.282
 6575SOL    HW120261   4.341   4.516   0.230
 6575SOL    HW220262   4.258   4.467   0.347
 6576SOL     OW20263   4.996   4.060   0.919
 6576SOL    HW120264   4.907   4.031   0.941
 6576SOL    HW220265   5.051   4.026   0.990
 6577SOL     OW20266   4.514   4.342   1.451
 6577SOL    HW120267   4.489   4.318   1.540
 6577SOL    HW220268   4.475   4.274   1.395
 6578SOL     OW20269   5.115   4.204   1.680
 6578SOL    HW120270   5.116   4.242   1.768
 6578SOL    HW220271   5.191   4.146   1.678
 6579SOL     OW20272   4.677   4.612   1.582
 6579SOL    HW120273   4.731   4.541   1.547
 6579SOL    HW220274   4.630   4.646   1.506
 6580SOL     OW20275   4.715   4.137   1.238
 6580SOL    HW120276   4.629   4.158   1.274
 6580SOL    HW220277   4.696   4.090   1.157
 6581SOL     OW20278   4.777   4.422   0.426
 6581SOL    HW120279   4.792   4.417   0.520
 6581SOL    HW220280   4.693   4.376   0.413
 6582SOL     OW20281   3.813   4.545   0.776
 6582SOL    HW120282   3.893   4.538   0.827
 6582SOL    HW220283   3.768   4.622   0.811
 6583SOL     OW20284   4.609   4.081   0.200
 6583SOL    HW120285   4.654   4.129   0.131
 6583SOL    HW220286   4.610   3.990   0.170
 6584SOL     OW20287   5.092   4.869   0.547
 6584SOL    HW120288   5.180   4.865   0.510
 6584SOL    HW220289   5.044   4.928   0.489
 6585SOL     OW20290   4.273   3.906   0.893
 6585SOL    HW120291   4.276   3.934   0.984
 6585SOL    HW220292   4.276   3.987   0.843
 6586SOL     OW20293   4.741   5.165   0.468
 6586SOL    HW120294   4.665   5.224   0.469
 6586SOL    HW220295   4.766   5.157   0.560
 6587SOL     OW20296   4.937   5.262   1.556
 6587SOL    HW120297   4.915   5.178   1.598
 6587SOL    HW220298   4.902   5.255   1.468
 6588SOL     OW20299   4.051   4.665   0.254
 6588SOL    HW120300   4.120   4.707   0.203
 6588SOL    HW220301   4.052   4.574   0.225
 6589SOL     OW20302   4.188   4.987   1.741
 6589SOL    HW120303   4.162   4.990   1.649
 6589SOL    HW220304   4.106   4.986   1.790
 6590SOL     OW20305   4.875   0.190   0.217
 6590SOL    HW120306   4.799   0.181   0.276
 6590SOL    HW220307   4.846   0.150   0.135
 6591SOL     OW20308   3.925   4.005   1.501
 6591SOL    HW120309   3.843   4.055   1.497
 6591SOL    HW220310   3.907   3.935   1.564
 6592SOL     OW20311   5.116   3.849   0.439
 6592SOL    HW120312   5.100   3.831   0.346
 6592SOL    HW220313   5.212   3.857   0.446
 6593SOL     OW20314   4.110   4.421   0.477
 6593SOL    HW120315   4.134   4.329   0.488
 6593SOL    HW220316   4.017   4.425   0.499
 6594SOL     OW20317   4.354   3.835   0.136
 6594SOL    HW120318   4.449   3.823   0.142
 6594SOL    HW220319   4.334   3.815   0.044
 6595SOL     OW20320   4.490   4.002   1.754
 6595SOL    HW120321   4.566   3.945   1.755
 6595SOL    HW220322   4.442   3.980   1.834
 6596SOL     OW20323   5.057   4.316   1.432
 6596SOL    HW120324   5.090   4.284   1.516
 6596SOL    HW220325   5.100   4.400   1.420
 6597SOL     OW20326   4.536   5.119   0.936
 6597SOL    HW120327   4.617   5.107   0.888
 6597SOL    HW220328   4.468   5.126   0.869
 6598SOL     OW20329   4.651   4.233   0.903
 6598SOL    HW120330   4.627   4.224   0.810
 6598SOL    HW220331   4.683   4.146   0.927
 6599SOL     OW20332   4.273   3.787   0.505
 6599SOL    HW120333   4.193   3.786   0.557
 6599SOL    HW220334   4.267   3.866   0.451
 6600SOL     OW20335   5.128   4.895   0.031
 6600SOL    HW120336   5.146   4.832   0.100
 6600SOL    HW220337   5.047   4.937   0.058
 6601SOL     OW20338   4.035   3.779   0.169
 6601SOL    HW120339   4.099   3.848   0.185
 6601SOL    HW220340   4.071   3.702   0.211
 6602SOL     OW20341   4.662   3.971   0.459
 6602SOL    HW120342   4.634   4.012   0.377
 6602SOL    HW220343   4.756   3.988   0.463
 6603SOL     OW20344   4.801   4.405   1.461
 6603SOL    HW120345   4.734   4.337   1.463
 6603SOL    HW220346   4.884   4.358   1.451
 6604SOL     OW20347   4.981   5.265   0.773
 6604SOL    HW120348   4.954   0.053   0.746
 6604SOL    HW220349   5.037   5.280   0.849
 6605SOL     OW20350   4.189   4.873   0.731
 6605SOL    HW120351   4.121   4.852   0.795
 6605SOL    HW220352   4.148   4.855   0.646
 6606SOL     OW20353   4.758   4.254   0.029
 6606SOL    HW120354   4.712   4.334   0.003
 6606SOL    HW220355   4.818   4.283   0.098
 6607SOL     OW20356   3.803   4.279   1.392
 6607SOL    HW120357   3.895   4.277   1.365
 6607SOL    HW220358   3.798   4.349   1.457
 6608SOL     OW20359   4.283   3.951   1.166
 6608SOL    HW120360   4.325   3.875   1.206
 6608SOL    HW220361   4.192   3.947   1.196
 6609SOL     OW20362   4.591   4.182   0.639
 6609SOL    HW120363   4.549   4.238   0.574
 6609SOL    HW220364   4.613   4.102   0.591
 6610SOL     OW20365   4.739   3.776   0.751
 6610SOL    HW120366   4.680   3.770   0.676
 6610SOL    HW220367   4.717   3.701   0.806
 6611SOL     OW20368   5.152   4.902   0.849
 6611SOL    HW120369   5.100   4.822   0.859
 6611SOL    HW220370   5.172   4.907   0.756
 6612SOL     OW20371   4.190   5.161   0.155
 6612SOL    HW120372   4.143   5.104   0.216
 6612SOL    HW220373   4.229   5.100   0.092
 6613SOL     OW20374   5.125   4.307   0.075
 6613SOL    HW120375   5.067   4.283   0.147
 6613SOL    HW220376   5.195   4.241   0.077
 6614SOL     OW20377   4.241   3.987   0.323
 6614SOL    HW120378   4.292   3.935   0.261
 6614SOL    HW220379   4.229   4.072   0.280
 6615SOL     OW20380   4.786   5.073   1.330
 6615SOL    HW120381   4.709   5.049   1.380
 6615SOL    HW220382   4.860   5.036   1.379
 6616SOL     OW20383   4.848   4.922   1.109
 6616SOL    HW120384   4.797   4.966   1.177
 6616SOL    HW220385   4.807   4.951   1.027
 6617SOL     OW20386   4.642   3.822   1.396
 6617SOL    HW120387   4.664   3.803   1.305
 6617SOL    HW220388   4.721   3.861   1.433
 6618SOL     OW20389   4.705   4.833   1.730
 6618SOL    HW120390   4.613   4.852   1.746
 6618SOL    HW220391   4.704   4.759   1.670
 6619SOL     OW20392   4.434   4.783   0.381
 6619SOL    HW120393   4.418   4.767   0.474
 6619SOL    HW220394   4.513   4.734   0.361
 6620SOL     OW20395   4.142   4.539   1.252
 6620SOL    HW120396   4.211   4.548   1.318
 6620SOL    HW220397   4.108   4.451   1.266
 6621SOL     OW20398   4.989   4.099   1.276
 6621SOL    HW120399   5.024   4.178   1.317
 6621SOL    HW220400   4.899   4.122   1.252
 6622SOL     OW20401   4.066   4.832   0.490
 6622SOL    HW120402   4.070   4.904   0.428
 6622SOL    HW220403   4.076   4.753   0.437
 6623SOL     OW20404   4.276   4.260   0.860
 6623SOL    HW120405   4.292   4.319   0.785
 6623SOL    HW220406   4.341   4.287   0.925
 6624SOL     OW20407   4.981   5.069   0.385
 6624SOL    HW120408   5.032   5.150   0.387
 6624SOL    HW220409   4.893   5.095   0.413
 6625SOL     OW20410   4.978   5.181   1.131
 6625SOL    HW120411   5.033   5.204   1.206
 6625SOL    HW220412   4.940   5.096   1.154
 6626SOL     OW20413   4.072   5.236   1.314
 6626SOL    HW120414   4.061   5.201   1.226
 6626SOL    HW220415   4.166   5.256   1.321
 6627SOL     OW20416   4.138   4.469   1.602
 6627SOL    HW120417   4.200   4.513   1.544
 6627SOL    HW220418   4.178   4.383   1.618
 6628SOL     OW20419   4.718   3.849   1.756
 6628SOL    HW120420   4.775   3.921   1.729
 6628SOL    HW220421   4.765   3.770   1.730
 6629SOL     OW20422   4.222   3.765   1.748
 6629SOL    HW120423   4.179   3.710   1.682
 6629SOL    HW220424   4.163   3.839   1.760
 6630SOL     OW20425   4.306   4.597   1.031
 6630SOL    HW120426   4.339   4.687   1.030
 6630SOL    HW220427   4.251   4.592   1.109
 6631SOL     OW20428   5.085   4.580   1.038
 6631SOL    HW120429   5.010   4.563   0.981
 6631SOL    HW220430   5.139   4.501   1.030
 6632SOL     OW20431   4.932   4.255   0.269
 6632SOL    HW120432   4.935   4.175   0.321
 6632SOL    HW220433   4.886   4.318   0.324
 6633SOL     OW20434   4.023   3.922   1.247
 6633SOL    HW120435   3.986   3.955   1.329
 6633SOL    HW220436   4.003   3.828   1.247
 6634SOL     OW20437   3.777   5.047   1.284
 6634SOL    HW120438   3.801   4.982   1.351
 6634SOL    HW220439   3.812   5.129   1.317
 6635SOL     OW20440   4.447   4.354   1.057
 6635SOL    HW120441   4.523   4.338   1.001
 6635SOL    HW220442   4.420   4.444   1.036
 6636SOL     OW20443   4.026   3.788   0.623
 6636SOL    HW120444   4.008   3.879   0.647
 6636SOL    HW220445   4.034   3.743   0.707
 6637SOL     OW20446   0.046   4.101   0.357
 6637SOL    HW120447   0.061   4.045   0.433
 6637SOL    HW220448   0.019   4.185   0.394
 6638SOL     OW20449   4.750   4.483   0.960
 6638SOL    HW120450   4.749   4.501   1.054
 6638SOL    HW220451   4.725   4.391   0.953
 6639SOL     OW20452   4.077   4.640   1.809
 6639SOL    HW120453   4.159   4.659   1.854
 6639SOL    HW220454   4.102   4.577   1.740
 6640SOL     OW20455   5.028   4.556   0.026
 6640SOL    HW120456   5.061   4.468   0.044
 6640SOL    HW220457   5.060   4.577   8.019
 6641SOL     OW20458   4.781   5.079   0.828
 6641SOL    HW120459   4.788   4.994   0.784
 6641SOL    HW220460   4.866   5.120   0.813
 6642SOL     OW20461   4.033   4.533   0.947
 6642SOL    HW120462   4.126   4.554   0.942
 6642SOL    HW220463   4.031   4.443   0.980
 6643SOL     OW20464   4.055   4.250   1.012
 6643SOL    HW120465   4.020   4.162   0.997
 6643SOL    HW220466   4.132   4.256   0.955
 6644SOL     OW20467   4.856   4.100   1.681
 6644SOL    HW120468   4.809   4.155   1.743
 6644SOL    HW220469   4.943   4.139   1.676
 6645SOL     OW20470   4.885   3.926   1.469
 6645SOL    HW120471   4.874   3.988   1.541
 6645SOL    HW220472   4.924   3.978   1.398
 6646SOL     OW20473   3.735   5.044   0.178
 6646SOL    HW120474   3.647   5.057   0.144
 6646SOL    HW220475   3.733   4.957   0.219
 6647SOL     OW20476   4.706   4.516   1.226
 6647SOL    HW120477   4.763   4.494   1.300
 6647SOL    HW220478   4.621   4.478   1.250
 6648SOL     OW20479   3.760   4.268   1.116
 6648SOL    HW120480   3.841   4.255   1.067
 6648SOL    HW220481   3.788   4.272   1.208
 6649SOL     OW20482   3.915   4.243   1.727
 6649SOL    HW120483   3.972   4.205   1.661
 6649SOL    HW220484   3.873   4.317   1.683
 6650SOL     OW20485   5.113   4.662   1.666
 6650SOL    HW120486   5.120   4.756   1.654
 6650SOL    HW220487   5.115   4.626   1.577
 6651SOL     OW20488   4.542   4.293   0.367
 6651SOL    HW120489   4.551   4.222   0.304
 6651SOL    HW220490   4.467   4.343   0.337
 6652SOL     OW20491   3.929   5.277   1.745
 6652SOL    HW120492   3.916   0.029   1.824
 6652SOL    HW220493   3.941   5.187   1.778
 6653SOL     OW20494   4.424   4.174   1.259
 6653SOL    HW120495   4.372   4.100   1.229
 6653SOL    HW220496   4.421   4.237   1.187
 6654SOL     OW20497   4.192   4.215   0.178
 6654SOL    HW120498   4.258   4.281   0.198
 6654SOL    HW220499   4.109   4.260   0.190
 6655SOL     OW20500   3.869   4.863   1.471
 6655SOL    HW120501   3.871   4.812   1.552
 6655SOL    HW220502   3.886   4.799   1.401
 6656SOL     OW20503   5.050   4.770   1.227
 6656SOL    HW120504   5.074   4.708   1.159
 6656SOL    HW220505   4.979   4.822   1.188
 6657SOL     OW20506   5.022   4.595   0.319
 6657SOL    HW120507   4.945   4.548   0.352
 6657SOL    HW220508   5.024   4.574   0.226
 6658SOL     OW20509   3.817   4.987   1.021
 6658SOL    HW120510   3.796   5.004   1.113
 6658SOL    HW220511   3.737   4.948   0.986
 6659SOL     OW20512   4.470   0.033   1.713
 6659SOL    HW120513   4.378   0.060   1.716
 6659SOL    HW220514   4.501   0.065   1.629
 6660SOL     OW20515   4.629   3.815   0.133
 6660SOL    HW120516   4.648   3.798   0.041
 6660SOL    HW220517   4.693   3.761   0.180
 6661SOL     OW20518   0.081   3.874   0.522
 6661SOL    HW120519   0.172   3.867   0.495
 6661SOL    HW220520   0.071   3.805   0.588
 6662SOL     OW20521   5.017   4.642   0.673
 6662SOL    HW120522   5.095   4.588   0.658
 6662SOL    HW220523   5.034   4.723   0.623
 6663SOL     OW20524   4.543   4.992   1.422
 6663SOL    HW120525   4.513   5.029   1.505
 6663SOL    HW220526   4.468   5.004   1.362
 6664SOL     OW20527   3.986   4.040   0.717
 6664SOL    HW120528   3.900   4.076   0.694
 6664SOL    HW220529   3.983   4.032   0.813
 6665SOL     OW20530   4.857   0.019   0.006
 6665SOL    HW120531   4.882   5.231   0.034
 6665SOL    HW220532   4.867   0.018   7.991
 6666SOL     OW20533   4.549   4.728   1.370
 6666SOL    HW120534   4.596   4.721   1.287
 6666SOL    HW220535   4.552   4.821   1.392
 6667SOL     OW20536   4.643   4.638   0.300
 6667SOL    HW120537   4.696   4.665   0.225
 6667SOL    HW220538   4.691   4.566   0.340
 6668SOL     OW20539   4.089   5.026   1.497
 6668SOL    HW120540   4.078   5.100   1.437
 6668SOL    HW220541   4.013   4.970   1.479
 6669SOL     OW20542   4.777   4.834   0.712
 6669SOL    HW120543   4.706   4.781   0.750
 6669SOL    HW220544   4.835   4.770   0.671
 6670SOL     OW20545   4.739   3.963   0.968
 6670SOL    HW120546   4.738   3.916   0.885
 6670SOL    HW220547   4.736   3.894   1.035
 6671SOL     OW20548   3.988   5.027   0.288
 6671SOL    HW120549   3.907   5.044   0.241
 6671SOL    HW220550   3.979   5.078   0.369
 6672SOL     OW20551   3.836   4.745   1.718
 6672SOL    HW120552   3.760   4.722   1.772
 6672SOL    HW220553   3.911   4.708   1.765
 6673SOL     OW20554   4.398   3.920   1.499
 6673SOL    HW120555   4.482   3.900   1.458
 6673SOL    HW220556   4.421   3.952   1.587
 6674SOL     OW20557   3.781   4.086   0.039
 6674SOL    HW120558   3.706   4.033   0.015
 6674SOL    HW220559   3.829   4.098   8.037
 6675SOL     OW20560   5.164   4.584   1.404
 6675SOL    HW120561   5.111   4.641   1.348
 6675SOL    HW220562   5.252   4.591   1.368
 6676SOL     OW20563   3.795   3.878   0.305
 6676SOL    HW120564   3.779   3.962   0.263
 6676SOL    HW220565   3.879   3.849   0.270
 6677SOL     OW20566   4.906   5.052   0.107
 6677SOL    HW120567   4.811   5.047   0.106
 6677SOL    HW220568   4.928   5.060   0.200
 6678SOL     OW20569   4.343   4.555   1.433
 6678SOL    HW120570   4.399   4.631   1.417
 6678SOL    HW220571   4.403   4.481   1.442
 6679SOL     OW20572   4.441   4.287   1.704
 6679SOL    HW120573   4.482   4.350   1.765
 6679SOL    HW220574   4.468   4.201   1.736
 6680SOL     OW20575   5.184   4.928   1.633
 6680SOL    HW120576   5.173   4.939   1.727
 6680SOL    HW220577   5.278   4.932   1.618
 6681SOL     OW20578   4.933   4.049   0.461
 6681SOL    HW120579   4.996   3.977   0.450
 6681SOL    HW220580   4.963   4.095   0.539
 6682SOL     OW20581   4.312   4.461   0.669
 6682SOL    HW120582   4.352   4.547   0.656
 6682SOL    HW220583   4.244   4.456   0.602
 6683SOL     OW20584   4.635   5.096   0.038
 6683SOL    HW120585   4.574   5.078   0.110
 6683SOL    HW220586   4.588   5.159   8.063
 6684SOL     OW20587   4.592   4.691   0.855
 6684SOL    HW120588   4.642   4.620   0.895
 6684SOL    HW220589   4.558   4.741   0.930
 6685SOL     OW20590   4.801   4.700   0.087
 6685SOL    HW120591   4.787   4.758   0.012
 6685SOL    HW220592   4.883   4.654   0.068
 6686SOL     OW20593   3.947   5.024   1.853
 6686SOL    HW120594   3.878   4.962   1.828
 6686SOL    HW220595   3.936   5.035   1.947
 6687SOL     OW20596   3.811   4.954   0.669
 6687SOL    HW120597   3.809   4.902   0.750
 6687SOL    HW220598   3.879   4.914   0.616
 6688SOL     OW20599   4.394   5.104   1.609
 6688SOL    HW120600   4.318   5.073   1.657
 6688SOL    HW220601   4.425   5.180   1.659
 6689SOL     OW20602   4.148   4.160   0.523
 6689SOL    HW120603   4.182   4.089   0.469
 6689SOL    HW220604   4.104   4.116   0.596
 6690SOL     OW20605   0.123   5.229   1.051
 6690SOL    HW120606   0.038   5.205   1.012
 6690SOL    HW220607   0.106   5.235   1.145
 6691SOL     OW20608   4.054   4.279   1.292
 6691SOL    HW120609   4.109   4.224   1.347
 6691SOL    HW220610   4.074   4.251   1.202
 6692SOL     OW20611   5.148   3.942   1.115
 6692SOL    HW120612   5.193   3.878   1.169
 6692SOL    HW220613   5.102   3.998   1.177
 6693SOL     OW20614   4.730   3.742   1.142
 6693SOL    HW120615   4.677   3.674   1.101
 6693SOL    HW220616   4.818   3.705   1.147
 6694SOL     OW20617   4.518   5.039   0.282
 6694SOL    HW120618   4.465   4.964   0.308
 6694SOL    HW220619   4.578   5.054   0.356
 6695SOL     OW20620   4.346   5.299   1.291
 6695SOL    HW120621   4.353   0.053   1.370
 6695SOL    HW220622   4.437   5.280   1.267
 6696SOL     OW20623   5.051   3.785   0.186
 6696SOL    HW120624   5.093   3.736   0.116
 6696SOL    HW220625   4.973   3.734   0.208
 6697SOL     OW20626   5.028   4.185   0.683
 6697SOL    HW120627   4.973   4.263   0.688
 6697SOL    HW220628   5.016   4.143   0.768
 6698SOL     OW20629   0.000   3.949   0.878
 6698SOL    HW120630   5.237   3.935   0.948
 6698SOL    HW220631   5.275   4.033   0.839
 6699SOL     OW20632   3.765   4.791   0.304
 6699SOL    HW120633   3.861   4.794   0.308
 6699SOL    HW220634   3.742   4.707   0.343
 6700SOL     OW20635   3.953   4.347   1.985
 6700SOL    HW120636   3.864   4.346   2.019
 6700SOL    HW220637   3.944   4.322   1.893
 6701SOL     OW20638   3.949   4.005   2.854
 6701SOL    HW120639   3.977   3.971   2.938
 6701SOL    HW220640   3.859   3.973   2.844
 6702SOL     OW20641   3.728   4.107   2.500
 6702SOL    HW120642   3.645   4.132   2.541
 6702SOL    HW220643   3.707   4.027   2.451
 6703SOL     OW20644   4.290   5.005   3.041
 6703SOL    HW120645   4.205   5.004   2.997
 6703SOL    HW220646   4.302   5.097   3.067
 6704SOL     OW20647   5.275   5.232   2.555
 6704SOL    HW120648   5.266   5.216   2.649
 6704SOL    HW220649   5.185   5.231   2.522
 6705SOL     OW20650   4.858   4.423   2.562
 6705SOL    HW120651   4.909   4.504   2.552
 6705SOL    HW220652   4.810   4.435   2.643
 6706SOL     OW20653   4.480   4.868   2.900
 6706SOL    HW120654   4.412   4.899   2.960
 6706SOL    HW220655   4.510   4.946   2.854
 6707SOL     OW20656   4.592   4.498   3.684
 6707SOL    HW120657   4.575   4.570   3.745
 6707SOL    HW220658   4.614   4.542   3.602
 6708SOL     OW20659   4.410   4.726   2.510
 6708SOL    HW120660   4.475   4.716   2.580
 6708SOL    HW220661   4.341   4.779   2.549
 6709SOL     OW20662   4.433   4.873   3.675
 6709SOL    HW120663   4.481   4.953   3.698
 6709SOL    HW220664   4.350   4.905   3.639
 6710SOL     OW20665   4.061   5.151   2.922
 6710SOL    HW120666   3.984   5.106   2.886
 6710SOL    HW220667   4.101   5.194   2.846
 6711SOL     OW20668   5.130   5.237   3.203
 6711SOL    HW120669   5.149   0.007   3.265
 6711SOL    HW220670   5.108   5.162   3.258
 6712SOL     OW20671   4.173   4.122   3.350
 6712SOL    HW120672   4.248   4.063   3.355
 6712SOL    HW220673   4.097   4.066   3.362
 6713SOL     OW20674   4.864   5.052   3.562
 6713SOL    HW120675   4.886   5.065   3.654
 6713SOL    HW220676   4.803   4.978   3.563
 6714SOL     OW20677   3.934   5.156   2.382
 6714SOL    HW120678   3.960   5.238   2.424
 6714SOL    HW220679   3.882   5.110   2.449
 6715SOL     OW20680   3.982   4.811   2.754
 6715SOL    HW120681   3.980   4.724   2.793
 6715SOL    HW220682   3.925   4.864   2.809
 6716SOL     OW20683   4.309   4.705   1.996
 6716SOL    HW120684   4.356   4.755   1.928
 6716SOL    HW220685   4.348   4.735   2.078
 6717SOL     OW20686   3.839   4.377   2.421
 6717SOL    HW120687   3.810   4.288   2.443
 6717SOL    HW220688   3.831   4.425   2.504
 6718SOL     OW20689   3.710   0.014   1.961
 6718SOL    HW120690   3.726   5.224   1.991
 6718SOL    HW220691   3.732   0.069   2.036
 6719SOL     OW20692   0.112   4.658   2.428
 6719SOL    HW120693   0.199   4.626   2.452
 6719SOL    HW220694   0.126   4.749   2.402
 6720SOL     OW20695   3.847   4.466   3.448
 6720SOL    HW120696   3.939   4.492   3.455
 6720SOL    HW220697   3.799   4.549   3.456
 6721SOL     OW20698   4.346   5.098   2.599
 6721SOL    HW120699   4.292   5.019   2.597
 6721SOL    HW220700   4.327   5.141   2.516
 6722SOL     OW20701   5.021   4.971   3.282
 6722SOL    HW120702   5.048   4.899   3.225
 6722SOL    HW220703   5.067   4.956   3.364
 6723SOL     OW20704   4.538   3.724   2.370
 6723SOL    HW120705   4.579   3.809   2.351
 6723SOL    HW220706   4.445   3.744   2.380
 6724SOL     OW20707   3.914   4.690   3.132
 6724SOL    HW120708   3.999   4.647   3.118
 6724SOL    HW220709   3.852   4.635   3.085
 6725SOL     OW20710   4.057   3.974   3.674
 6725SOL    HW120711   4.102   4.057   3.690
 6725SOL    HW220712   3.968   3.988   3.705
 6726SOL     OW20713   5.178   5.153   2.813
 6726SOL    HW120714   5.110   5.162   2.880
 6726SOL    HW220715   5.164   5.066   2.777
 6727SOL     OW20716   0.045   0.164   2.427
 6727SOL    HW120717   0.086   0.124   2.350
 6727SOL    HW220718   0.034   0.091   2.488
 6728SOL     OW20719   4.320   4.445   2.128
 6728SOL    HW120720   4.326   4.527   2.078
 6728SOL    HW220721   4.255   4.463   2.196
 6729SOL     OW20722   4.996   4.061   2.781
 6729SOL    HW120723   4.907   4.031   2.803
 6729SOL    HW220724   5.050   4.026   2.852
 6730SOL     OW20725   4.514   4.342   3.313
 6730SOL    HW120726   4.489   4.318   3.402
 6730SOL    HW220727   4.475   4.275   3.257
 6731SOL     OW20728   5.115   4.204   3.542
 6731SOL    HW120729   5.116   4.242   3.630
 6731SOL    HW220730   5.191   4.146   3.540
 6732SOL     OW20731   4.678   4.612   3.444
 6732SOL    HW120732   4.731   4.540   3.409
 6732SOL    HW220733   4.630   4.646   3.368
 6733SOL     OW20734   4.715   4.137   3.100
 6733SOL    HW120735   4.629   4.158   3.136
 6733SOL    HW220736   4.696   4.090   3.019
 6734SOL     OW20737   4.775   4.422   2.287
 6734SOL    HW120738   4.791   4.416   2.381
 6734SOL    HW220739   4.692   4.376   2.274
 6735SOL     OW20740   3.812   4.545   2.638
 6735SOL    HW120741   3.893   4.538   2.689
 6735SOL    HW220742   3.769   4.623   2.673
 6736SOL     OW20743   4.617   4.071   2.056
 6736SOL    HW120744   4.657   4.133   1.994
 6736SOL    HW220745   4.633   3.985   2.018
 6737SOL     OW20746   5.092   4.868   2.408
 6737SOL    HW120747   5.182   4.868   2.375
 6737SOL    HW220748   5.046   4.928   2.350
 6738SOL     OW20749   4.274   3.906   2.755
 6738SOL    HW120750   4.276   3.934   2.846
 6738SOL    HW220751   4.275   3.987   2.704
 6739SOL     OW20752   4.745   5.168   2.332
 6739SOL    HW120753   4.668   5.224   2.325
 6739SOL    HW220754   4.761   5.160   2.426
 6740SOL     OW20755   4.939   5.261   3.417
 6740SOL    HW120756   4.915   5.178   3.460
 6740SOL    HW220757   4.901   5.254   3.330
 6741SOL     OW20758   4.044   4.680   2.112
 6741SOL    HW120759   4.126   4.700   2.067
 6741SOL    HW220760   4.014   4.599   2.072
 6742SOL     OW20761   4.188   4.987   3.603
 6742SOL    HW120762   4.162   4.990   3.511
 6742SOL    HW220763   4.106   4.986   3.652
 6743SOL     OW20764   4.790   0.173   2.073
 6743SOL    HW120765   4.803   0.117   2.150
 6743SOL    HW220766   4.866   0.156   2.018
 6744SOL     OW20767   3.925   4.005   3.363
 6744SOL    HW120768   3.843   4.054   3.359
 6744SOL    HW220769   3.907   3.934   3.425
 6745SOL     OW20770   5.121   3.831   2.286
 6745SOL    HW120771   5.101   3.813   2.194
 6745SOL    HW220772   5.215   3.847   2.288
 6746SOL     OW20773   4.117   4.419   2.338
 6746SOL    HW120774   4.137   4.326   2.350
 6746SOL    HW220775   4.023   4.425   2.355
 6747SOL     OW20776   4.359   3.846   1.967
 6747SOL    HW120777   4.429   3.782   1.979
 6747SOL    HW220778   4.310   3.815   1.891
 6748SOL     OW20779   4.490   4.003   3.616
 6748SOL    HW120780   4.566   3.945   3.617
 6748SOL    HW220781   4.441   3.979   3.696
 6749SOL     OW20782   5.058   4.316   3.294
 6749SOL    HW120783   5.090   4.284   3.378
 6749SOL    HW220784   5.100   4.400   3.283
 6750SOL     OW20785   4.536   5.119   2.798
 6750SOL    HW120786   4.617   5.106   2.748
 6750SOL    HW220787   4.468   5.126   2.731
 6751SOL     OW20788   4.651   4.233   2.765
 6751SOL    HW120789   4.628   4.224   2.672
 6751SOL    HW220790   4.683   4.146   2.790
 6752SOL     OW20791   4.273   3.787   2.364
 6752SOL    HW120792   4.192   3.788   2.416
 6752SOL    HW220793   4.267   3.865   2.309
 6753SOL     OW20794   5.136   4.904   1.905
 6753SOL    HW120795   5.143   4.825   1.959
 6753SOL    HW220796   5.047   4.936   1.921
 6754SOL     OW20797   4.016   3.771   2.046
 6754SOL    HW120798   4.075   3.836   2.007
 6754SOL    HW220799   4.074   3.708   2.088
 6755SOL     OW20800   4.661   3.970   2.322
 6755SOL    HW120801   4.635   4.011   2.239
 6755SOL    HW220802   4.756   3.983   2.325
 6756SOL     OW20803   4.801   4.405   3.323
 6756SOL    HW120804   4.734   4.337   3.325
 6756SOL    HW220805   4.884   4.358   3.313
 6757SOL     OW20806   4.984   5.266   2.633
 6757SOL    HW120807   4.948   0.052   2.612
 6757SOL    HW220808   5.038   5.279   2.711
 6758SOL     OW20809   4.190   4.872   2.592
 6758SOL    HW120810   4.121   4.852   2.656
 6758SOL    HW220811   4.149   4.854   2.507
 6759SOL     OW20812   4.748   4.267   1.884
 6759SOL    HW120813   4.704   4.350   1.864
 6759SOL    HW220814   4.809   4.289   1.954
 6760SOL     OW20815   3.803   4.279   3.254
 6760SOL    HW120816   3.895   4.277   3.227
 6760SOL    HW220817   3.798   4.349   3.319
 6761SOL     OW20818   4.283   3.951   3.028
 6761SOL    HW120819   4.325   3.874   3.068
 6761SOL    HW220820   4.192   3.947   3.058
 6762SOL     OW20821   4.592   4.183   2.501
 6762SOL    HW120822   4.546   4.238   2.438
 6762SOL    HW220823   4.613   4.103   2.453
 6763SOL     OW20824   4.739   3.777   2.614
 6763SOL    HW120825   4.681   3.770   2.538
 6763SOL    HW220826   4.717   3.701   2.668
 6764SOL     OW20827   5.152   4.901   2.712
 6764SOL    HW120828   5.100   4.822   2.723
 6764SOL    HW220829   5.169   4.906   2.618
 6765SOL     OW20830   4.204   5.147   2.016
 6765SOL    HW120831   4.142   5.094   2.067
 6765SOL    HW220832   4.207   5.104   1.930
 6766SOL     OW20833   5.127   4.286   1.942
 6766SOL    HW120834   5.055   4.276   2.003
 6766SOL    HW220835   5.202   4.248   1.988
 6767SOL     OW20836   4.249   3.987   2.180
 6767SOL    HW120837   4.294   3.939   2.110
 6767SOL    HW220838   4.227   4.071   2.141
 6768SOL     OW20839   4.787   5.074   3.192
 6768SOL    HW120840   4.709   5.049   3.242
 6768SOL    HW220841   4.860   5.036   3.241
 6769SOL     OW20842   4.848   4.923   2.971
 6769SOL    HW120843   4.798   4.965   3.040
 6769SOL    HW220844   4.805   4.950   2.889
 6770SOL     OW20845   4.642   3.822   3.258
 6770SOL    HW120846   4.664   3.803   3.167
 6770SOL    HW220847   4.721   3.861   3.295
 6771SOL     OW20848   4.706   4.833   3.592
 6771SOL    HW120849   4.613   4.852   3.608
 6771SOL    HW220850   4.704   4.759   3.532
 6772SOL     OW20851   4.428   4.782   2.234
 6772SOL    HW120852   4.416   4.766   2.328
 6772SOL    HW220853   4.506   4.732   2.211
 6773SOL     OW20854   4.143   4.539   3.113
 6773SOL    HW120855   4.211   4.548   3.180
 6773SOL    HW220856   4.108   4.451   3.127
 6774SOL     OW20857   4.988   4.099   3.139
 6774SOL    HW120858   5.023   4.178   3.180
 6774SOL    HW220859   4.899   4.123   3.114
 6775SOL     OW20860   4.071   4.832   2.351
 6775SOL    HW120861   4.074   4.906   2.289
 6775SOL    HW220862   4.070   4.754   2.296
 6776SOL     OW20863   4.276   4.261   2.722
 6776SOL    HW120864   4.292   4.319   2.647
 6776SOL    HW220865   4.342   4.287   2.787
 6777SOL     OW20866   4.985   5.077   2.249
 6777SOL    HW120867   5.037   5.153   2.276
 6777SOL    HW220868   4.896   5.099   2.277
 6778SOL     OW20869   4.978   5.181   2.993
 6778SOL    HW120870   5.033   5.204   3.068
 6778SOL    HW220871   4.940   5.097   3.016
 6779SOL     OW20872   4.072   5.236   3.176
 6779SOL    HW120873   4.061   5.201   3.088
 6779SOL    HW220874   4.166   5.257   3.183
 6780SOL     OW20875   4.138   4.469   3.464
 6780SOL    HW120876   4.200   4.513   3.406
 6780SOL    HW220877   4.178   4.383   3.480
 6781SOL     OW20878   4.718   3.849   3.618
 6781SOL    HW120879   4.775   3.921   3.591
 6781SOL    HW220880   4.765   3.770   3.592
 6782SOL     OW20881   4.222   3.765   3.610
 6782SOL    HW120882   4.179   3.710   3.544
 6782SOL    HW220883   4.163   3.839   3.622
 6783SOL     OW20884   4.307   4.596   2.893
 6783SOL    HW120885   4.338   4.687   2.892
 6783SOL    HW220886   4.251   4.591   2.970
 6784SOL     OW20887   5.086   4.581   2.897
 6784SOL    HW120888   5.009   4.562   2.845
 6784SOL    HW220889   5.138   4.501   2.894
 6785SOL     OW20890   4.928   4.255   2.127
 6785SOL    HW120891   4.935   4.175   2.179
 6785SOL    HW220892   4.885   4.318   2.184
 6786SOL     OW20893   4.023   3.922   3.108
 6786SOL    HW120894   3.986   3.955   3.191
 6786SOL    HW220895   4.004   3.829   3.109
 6787SOL     OW20896   3.776   5.047   3.147
 6787SOL    HW120897   3.801   4.982   3.213
 6787SOL    HW220898   3.812   5.129   3.179
 6788SOL     OW20899   4.448   4.355   2.920
 6788SOL    HW120900   4.523   4.339   2.863
 6788SOL    HW220901   4.420   4.444   2.898
 6789SOL     OW20902   4.027   3.788   2.485
 6789SOL    HW120903   4.008   3.879   2.508
 6789SOL    HW220904   4.034   3.743   2.569
 6790SOL     OW20905   0.034   4.118   2.221
 6790SOL    HW120906   0.054   4.043   2.278
 6790SOL    HW220907   0.019   4.191   2.281
 6791SOL     OW20908   4.751   4.483   2.822
 6791SOL    HW120909   4.749   4.501   2.916
 6791SOL    HW220910   4.725   4.391   2.815
 6792SOL     OW20911   4.077   4.640   3.671
 6792SOL    HW120912   4.159   4.659   3.716
 6792SOL    HW220913   4.102   4.577   3.602
 6793SOL     OW20914   5.027   4.553   1.898
 6793SOL    HW120915   5.065   4.465   1.900
 6793SOL    HW220916   5.054   4.588   1.814
 6794SOL     OW20917   4.781   5.079   2.688
 6794SOL    HW120918   4.787   4.994   2.645
 6794SOL    HW220919   4.866   5.120   2.674
 6795SOL     OW20920   4.033   4.533   2.809
 6795SOL    HW120921   4.126   4.554   2.803
 6795SOL    HW220922   4.031   4.443   2.842
 6796SOL     OW20923   4.055   4.250   2.874
 6796SOL    HW120924   4.020   4.162   2.859
 6796SOL    HW220925   4.132   4.256   2.817
 6797SOL     OW20926   4.856   4.100   3.543
 6797SOL    HW120927   4.809   4.155   3.605
 6797SOL    HW220928   4.943   4.139   3.538
 6798SOL     OW20929   4.885   3.926   3.331
 6798SOL    HW120930   4.874   3.988   3.403
 6798SOL    HW220931   4.924   3.978   3.260
 6799SOL     OW20932   3.730   5.041   2.052
 6799SOL    HW120933   3.640   5.058   2.026
 6799SOL    HW220934   3.728   4.953   2.090
 6800SOL     OW20935   4.706   4.516   3.088
 6800SOL    HW120936   4.762   4.494   3.162
 6800SOL    HW220937   4.621   4.478   3.111
 6801SOL     OW20938   3.760   4.268   2.979
 6801SOL    HW120939   3.840   4.255   2.929
 6801SOL    HW220940   3.788   4.272   3.070
 6802SOL     OW20941   3.915   4.243   3.589
 6802SOL    HW120942   3.972   4.205   3.523
 6802SOL    HW220943   3.873   4.317   3.545
 6803SOL     OW20944   5.113   4.662   3.528
 6803SOL    HW120945   5.120   4.757   3.516
 6803SOL    HW220946   5.115   4.626   3.439
 6804SOL     OW20947   4.540   4.293   2.221
 6804SOL    HW120948   4.543   4.218   2.162
 6804SOL    HW220949   4.466   4.346   2.190
 6805SOL     OW20950   3.929   5.277   3.607
 6805SOL    HW120951   3.916   0.029   3.686
 6805SOL    HW220952   3.941   5.187   3.640
 6806SOL     OW20953   4.424   4.174   3.121
 6806SOL    HW120954   4.372   4.100   3.091
 6806SOL    HW220955   4.421   4.237   3.049
 6807SOL     OW20956   4.188   4.216   2.049
 6807SOL    HW120957   4.246   4.289   2.071
 6807SOL    HW220958   4.103   4.257   2.036
 6808SOL     OW20959   3.869   4.863   3.333
 6808SOL    HW120960   3.871   4.812   3.414
 6808SOL    HW220961   3.886   4.799   3.264
 6809SOL     OW20962   5.050   4.770   3.089
 6809SOL    HW120963   5.075   4.708   3.020
 6809SOL    HW220964   4.979   4.822   3.050
 6810SOL     OW20965   5.034   4.584   2.178
 6810SOL    HW120966   4.952   4.550   2.215
 6810SOL    HW220967   5.023   4.575   2.084
 6811SOL     OW20968   3.818   4.987   2.884
 6811SOL    HW120969   3.796   5.004   2.975
 6811SOL    HW220970   3.738   4.948   2.847
 6812SOL     OW20971   4.470   0.033   3.575
 6812SOL    HW120972   4.378   0.060   3.578
 6812SOL    HW220973   4.501   0.065   3.490
 6813SOL     OW20974   0.081   3.884   2.392
 6813SOL    HW120975   0.165   3.871   2.349
 6813SOL    HW220976   0.067   3.804   2.444
 6814SOL     OW20977   5.016   4.643   2.535
 6814SOL    HW120978   5.094   4.588   2.522
 6814SOL    HW220979   5.035   4.723   2.485
 6815SOL     OW20980   4.543   4.993   3.283
 6815SOL    HW120981   4.513   5.029   3.367
 6815SOL    HW220982   4.468   5.004   3.224
 6816SOL     OW20983   3.986   4.040   2.579
 6816SOL    HW120984   3.900   4.075   2.555
 6816SOL    HW220985   3.983   4.032   2.674
 6817SOL     OW20986   4.549   4.728   3.232
 6817SOL    HW120987   4.595   4.721   3.149
 6817SOL    HW220988   4.552   4.821   3.254
 6818SOL     OW20989   4.640   4.636   2.153
 6818SOL    HW120990   4.702   4.668   2.087
 6818SOL    HW220991   4.687   4.565   2.197
 6819SOL     OW20992   4.089   5.026   3.359
 6819SOL    HW120993   4.078   5.100   3.299
 6819SOL    HW220994   4.013   4.970   3.341
 6820SOL     OW20995   4.778   4.833   2.574
 6820SOL    HW120996   4.706   4.783   2.612
 6820SOL    HW220997   4.835   4.768   2.535
 6821SOL     OW20998   4.739   3.963   2.830
 6821SOL    HW120999   4.737   3.916   2.747
 6821SOL    HW221000   4.736   3.895   2.897
 6822SOL     OW21001   3.982   5.052   2.145
 6822SOL    HW121002   3.890   5.054   2.118
 6822SOL    HW221003   3.983   5.095   2.230
 6823SOL     OW21004   3.836   4.746   3.580
 6823SOL    HW121005   3.760   4.722   3.634
 6823SOL    HW221006   3.911   4.708   3.627
 6824SOL     OW21007   4.398   3.920   3.361
 6824SOL    HW121008   4.482   3.900   3.320
 6824SOL    HW221009   4.421   3.952   3.449
 6825SOL     OW21010   3.802   4.058   1.897
 6825SOL    HW121011   3.715   4.038   1.863
 6825SOL    HW221012   3.832   4.133   1.846
 6826SOL     OW21013   5.163   4.584   3.266
 6826SOL    HW121014   5.111   4.641   3.210
 6826SOL    HW221015   5.252   4.591   3.231
 6827SOL     OW21016   3.792   3.880   2.172
 6827SOL    HW121017   3.778   3.960   2.121
 6827SOL    HW221018   3.877   3.847   2.142
 6828SOL     OW21019   4.909   5.059   1.983
 6828SOL    HW121020   4.815   5.041   1.982
 6828SOL    HW221021   4.933   5.055   2.075
 6829SOL     OW21022   4.343   4.555   3.295
 6829SOL    HW121023   4.399   4.631   3.280
 6829SOL    HW221024   4.403   4.481   3.304
 6830SOL     OW21025   4.441   4.287   3.566
 6830SOL    HW121026   4.482   4.349   3.627
 6830SOL    HW221027   4.468   4.201   3.598
 6831SOL     OW21028   5.184   4.928   3.495
 6831SOL    HW121029   5.173   4.939   3.589
 6831SOL    HW221030   5.279   4.931   3.481
 6832SOL     OW21031   4.940   4.044   2.318
 6832SOL    HW121032   5.002   3.972   2.305
 6832SOL    HW221033   4.970   4.088   2.397
 6833SOL     OW21034   4.314   4.461   2.531
 6833SOL    HW121035   4.353   4.548   2.517
 6833SOL    HW221036   4.246   4.454   2.464
 6834SOL     OW21037   4.580   5.095   1.882
 6834SOL    HW121038   4.557   5.098   1.974
 6834SOL    HW221039   4.589   5.186   1.856
 6835SOL     OW21040   4.592   4.691   2.717
 6835SOL    HW121041   4.642   4.620   2.757
 6835SOL    HW221042   4.557   4.741   2.792
 6836SOL     OW21043   4.808   4.712   1.954
 6836SOL    HW121044   4.781   4.760   1.876
 6836SOL    HW221045   4.882   4.658   1.925
 6837SOL     OW21046   3.947   5.024   3.715
 6837SOL    HW121047   3.879   4.961   3.690
 6837SOL    HW221048   3.936   5.035   3.809
 6838SOL     OW21049   3.810   4.955   2.532
 6838SOL    HW121050   3.810   4.903   2.612
 6838SOL    HW221051   3.874   4.912   2.475
 6839SOL     OW21052   4.394   5.104   3.471
 6839SOL    HW121053   4.318   5.073   3.519
 6839SOL    HW221054   4.425   5.180   3.521
 6840SOL     OW21055   4.153   4.158   2.388
 6840SOL    HW121056   4.183   4.087   2.330
 6840SOL    HW221057   4.105   4.114   2.458
 6841SOL     OW21058   0.123   5.229   2.912
 6841SOL    HW121059   0.038   5.204   2.875
 6841SOL    HW221060   0.107   5.238   3.005
 6842SOL     OW21061   4.054   4.279   3.154
 6842SOL    HW121062   4.109   4.224   3.209
 6842SOL    HW221063   4.073   4.251   3.064
 6843SOL     OW21064   5.147   3.942   2.977
 6843SOL    HW121065   5.193   3.878   3.031
 6843SOL    HW221066   5.101   3.998   3.040
 6844SOL     OW21067   4.730   3.743   3.004
 6844SOL    HW121068   4.677   3.674   2.964
 6844SOL    HW221069   4.818   3.705   3.009
 6845SOL     OW21070   4.526   5.046   2.146
 6845SOL    HW121071   4.466   4.975   2.166
 6845SOL    HW221072   4.581   5.054   2.224
 6846SOL     OW21073   4.346   5.299   3.153
 6846SOL    HW121074   4.353   0.054   3.232
 6846SOL    HW221075   4.437   5.280   3.130
 6847SOL     OW21076   5.058   3.770   2.029
 6847SOL    HW121077   5.082   3.729   1.946
 6847SOL    HW221078   4.973   3.732   2.051
 6848SOL     OW21079   5.028   4.182   2.544
 6848SOL    HW121080   4.973   4.261   2.548
 6848SOL    HW221081   5.016   4.141   2.630
 6849SOL     OW21082   0.002   3.949   2.742
 6849SOL    HW121083   5.236   3.937   2.811
 6849SOL    HW221084   5.276   4.029   2.697
 6850SOL     OW21085   3.766   4.794   2.169
 6850SOL    HW121086   3.860   4.788   2.152
 6850SOL    HW221087   3.740   4.705   2.191
 6851SOL     OW21088   3.953   4.347   3.847
 6851SOL    HW121089   3.864   4.346   3.881
 6851SOL    HW221090   3.944   4.322   3.755
 6852SOL     OW21091   3.949   4.005   4.716
 6852SOL    HW121092   3.977   3.971   4.800
 6852SOL    HW221093   3.859   3.973   4.706
 6853SOL     OW21094   3.728   4.107   4.362
 6853SOL    HW121095   3.645   4.131   4.403
 6853SOL    HW221096   3.707   4.027   4.313
 6854SOL     OW21097   4.290   5.005   4.903
 6854SOL    HW121098   4.205   5.004   4.859
 6854SOL    HW221099   4.302   5.097   4.929
 6855SOL     OW21100   5.275   5.232   4.417
 6855SOL    HW121101   5.266   5.216   4.511
 6855SOL    HW221102   5.185   5.231   4.384
 6856SOL     OW21103   4.858   4.423   4.424
 6856SOL    HW121104   4.909   4.504   4.414
 6856SOL    HW221105   4.810   4.435   4.505
 6857SOL     OW21106   4.480   4.868   4.762
 6857SOL    HW121107   4.412   4.899   4.822
 6857SOL    HW221108   4.510   4.946   4.716
 6858SOL     OW21109   4.592   4.498   5.546
 6858SOL    HW121110   4.575   4.570   5.607
 6858SOL    HW221111   4.614   4.542   5.464
 6859SOL     OW21112   4.410   4.726   4.372
 6859SOL    HW121113   4.475   4.716   4.442
 6859SOL    HW221114   4.341   4.779   4.411
 6860SOL     OW21115   4.433   4.873   5.537
 6860SOL    HW121116   4.481   4.953   5.560
 6860SOL    HW221117   4.350   4.905   5.501
 6861SOL     OW21118   4.061   5.151   4.784
 6861SOL    HW121119   3.984   5.106   4.748
 6861SOL    HW221120   4.101   5.194   4.708
 6862SOL     OW21121   5.130   5.237   5.065
 6862SOL    HW121122   5.149   0.007   5.127
 6862SOL    HW221123   5.108   5.162   5.120
 6863SOL     OW21124   4.173   4.122   5.212
 6863SOL    HW121125   4.248   4.063   5.217
 6863SOL    HW221126   4.097   4.066   5.224
 6864SOL     OW21127   4.864   5.052   5.424
 6864SOL    HW121128   4.886   5.065   5.516
 6864SOL    HW221129   4.803   4.978   5.425
 6865SOL     OW21130   3.934   5.156   4.244
 6865SOL    HW121131   3.960   5.238   4.286
 6865SOL    HW221132   3.882   5.110   4.311
 6866SOL     OW21133   3.982   4.811   4.616
 6866SOL    HW121134   3.980   4.724   4.655
 6866SOL    HW221135   3.925   4.864   4.671
 6867SOL     OW21136   4.310   4.705   3.858
 6867SOL    HW121137   4.356   4.755   3.790
 6867SOL    HW221138   4.348   4.735   3.940
 6868SOL     OW21139   3.839   4.377   4.283
 6868SOL    HW121140   3.810   4.288   4.305
 6868SOL    HW221141   3.831   4.425   4.366
 6869SOL     OW21142   3.710   0.014   3.822
 6869SOL    HW121143   3.726   5.224   3.853
 6869SOL    HW221144   3.732   0.069   3.897
 6870SOL     OW21145   0.112   4.658   4.290
 6870SOL    HW121146   0.199   4.626   4.314
 6870SOL    HW221147   0.127   4.749   4.264
 6871SOL     OW21148   3.847   4.467   5.310
 6871SOL    HW121149   3.939   4.492   5.317
 6871SOL    HW221150   3.799   4.549   5.318
 6872SOL     OW21151   4.346   5.098   4.461
 6872SOL    HW121152   4.292   5.019   4.459
 6872SOL    HW221153   4.327   5.141   4.378
 6873SOL     OW21154   5.021   4.971   5.144
 6873SOL    HW121155   5.048   4.899   5.087
 6873SOL    HW221156   5.067   4.956   5.226
 6874SOL     OW21157   4.538   3.724   4.233
 6874SOL    HW121158   4.579   3.809   4.213
 6874SOL    HW221159   4.445   3.744   4.242
 6875SOL     OW21160   3.914   4.690   4.994
 6875SOL    HW121161   3.999   4.647   4.980
 6875SOL    HW221162   3.852   4.635   4.947
 6876SOL     OW21163   4.057   3.974   5.536
 6876SOL    HW121164   4.102   4.057   5.552
 6876SOL    HW221165   3.968   3.988   5.567
 6877SOL     OW21166   5.178   5.153   4.675
 6877SOL    HW121167   5.110   5.162   4.742
 6877SOL    HW221168   5.164   5.066   4.639
 6878SOL     OW21169   0.044   0.163   4.289
 6878SOL    HW121170   0.087   0.124   4.212
 6878SOL    HW221171   0.034   0.091   4.350
 6879SOL     OW21172   4.320   4.445   3.990
 6879SOL    HW121173   4.326   4.527   3.940
 6879SOL    HW221174   4.255   4.463   4.058
 6880SOL     OW21175   4.996   4.061   4.643
 6880SOL    HW121176   4.907   4.031   4.665
 6880SOL    HW221177   5.050   4.026   4.714
 6881SOL     OW21178   4.514   4.342   5.175
 6881SOL    HW121179   4.489   4.318   5.264
 6881SOL    HW221180   4.475   4.275   5.119
 6882SOL     OW21181   5.115   4.204   5.404
 6882SOL    HW121182   5.116   4.242   5.492
 6882SOL    HW221183   5.191   4.146   5.402
 6883SOL     OW21184   4.678   4.612   5.306
 6883SOL    HW121185   4.731   4.540   5.271
 6883SOL    HW221186   4.630   4.646   5.230
 6884SOL     OW21187   4.715   4.137   4.962
 6884SOL    HW121188   4.629   4.158   4.998
 6884SOL    HW221189   4.696   4.090   4.881
 6885SOL     OW21190   4.775   4.422   4.149
 6885SOL    HW121191   4.791   4.416   4.243
 6885SOL    HW221192   4.692   4.376   4.136
 6886SOL     OW21193   3.812   4.545   4.500
 6886SOL    HW121194   3.893   4.538   4.551
 6886SOL    HW221195   3.769   4.623   4.535
 6887SOL     OW21196   4.617   4.072   3.918
 6887SOL    HW121197   4.657   4.133   3.856
 6887SOL    HW221198   4.632   3.985   3.880
 6888SOL     OW21199   5.092   4.868   4.270
 6888SOL    HW121200   5.182   4.868   4.238
 6888SOL    HW221201   5.046   4.928   4.212
 6889SOL     OW21202   4.274   3.905   4.617
 6889SOL    HW121203   4.276   3.934   4.708
 6889SOL    HW221204   4.275   3.986   4.566
 6890SOL     OW21205   4.745   5.168   4.194
 6890SOL    HW121206   4.668   5.224   4.187
 6890SOL    HW221207   4.761   5.160   4.288
 6891SOL     OW21208   4.939   5.261   5.279
 6891SOL    HW121209   4.915   5.178   5.322
 6891SOL    HW221210   4.901   5.254   5.192
 6892SOL     OW21211   4.044   4.680   3.974
 6892SOL    HW121212   4.126   4.700   3.929
 6892SOL    HW221213   4.014   4.599   3.934
 6893SOL     OW21214   4.188   4.987   5.465
 6893SOL    HW121215   4.162   4.990   5.373
 6893SOL    HW221216   4.106   4.986   5.514
 6894SOL     OW21217   4.790   0.173   3.935
 6894SOL    HW121218   4.803   0.117   4.012
 6894SOL    HW221219   4.867   0.156   3.880
 6895SOL     OW21220   3.925   4.005   5.225
 6895SOL    HW121221   3.843   4.055   5.221
 6895SOL    HW221222   3.907   3.935   5.288
 6896SOL     OW21223   5.120   3.831   4.148
 6896SOL    HW121224   5.101   3.813   4.056
 6896SOL    HW221225   5.215   3.847   4.150
 6897SOL     OW21226   4.117   4.419   4.200
 6897SOL    HW121227   4.137   4.326   4.212
 6897SOL    HW221228   4.023   4.425   4.217
 6898SOL     OW21229   4.359   3.846   3.829
 6898SOL    HW121230   4.429   3.782   3.841
 6898SOL    HW221231   4.310   3.815   3.753
 6899SOL     OW21232   4.490   4.002   5.478
 6899SOL    HW121233   4.566   3.945   5.479
 6899SOL    HW221234   4.442   3.980   5.558
 6900SOL     OW21235   5.058   4.316   5.156
 6900SOL    HW121236   5.090   4.284   5.240
 6900SOL    HW221237   5.100   4.400   5.145
 6901SOL     OW21238   4.536   5.119   4.660
 6901SOL    HW121239   4.617   5.106   4.610
 6901SOL    HW221240   4.468   5.126   4.593
 6902SOL     OW21241   4.651   4.233   4.627
 6902SOL    HW121242   4.628   4.224   4.534
 6902SOL    HW221243   4.683   4.146   4.652
 6903SOL     OW21244   4.273   3.787   4.226
 6903SOL    HW121245   4.192   3.788   4.278
 6903SOL    HW221246   4.267   3.865   4.171
 6904SOL     OW21247   5.136   4.904   3.767
 6904SOL    HW121248   5.143   4.825   3.821
 6904SOL    HW221249   5.047   4.936   3.783
 6905SOL     OW21250   4.016   3.771   3.909
 6905SOL    HW121251   4.074   3.835   3.868
 6905SOL    HW221252   4.074   3.708   3.950
 6906SOL     OW21253   4.661   3.970   4.184
 6906SOL    HW121254   4.635   4.011   4.101
 6906SOL    HW221255   4.756   3.983   4.187
 6907SOL     OW21256   4.801   4.405   5.185
 6907SOL    HW121257   4.734   4.337   5.187
 6907SOL    HW221258   4.884   4.358   5.175
 6908SOL     OW21259   4.984   5.266   4.495
 6908SOL    HW121260   4.948   0.052   4.475
 6908SOL    HW221261   5.038   5.279   4.573
 6909SOL     OW21262   4.190   4.872   4.454
 6909SOL    HW121263   4.121   4.852   4.518
 6909SOL    HW221264   4.149   4.854   4.369
 6910SOL     OW21265   4.748   4.267   3.746
 6910SOL    HW121266   4.704   4.350   3.726
 6910SOL    HW221267   4.809   4.289   3.816
 6911SOL     OW21268   3.803   4.278   5.116
 6911SOL    HW121269   3.895   4.277   5.089
 6911SOL    HW221270   3.798   4.349   5.181
 6912SOL     OW21271   4.283   3.951   4.890
 6912SOL    HW121272   4.325   3.875   4.930
 6912SOL    HW221273   4.192   3.947   4.920
 6913SOL     OW21274   4.592   4.183   4.363
 6913SOL    HW121275   4.546   4.238   4.300
 6913SOL    HW221276   4.613   4.103   4.315
 6914SOL     OW21277   4.739   3.777   4.476
 6914SOL    HW121278   4.681   3.770   4.400
 6914SOL    HW221279   4.717   3.701   4.530
 6915SOL     OW21280   5.152   4.901   4.574
 6915SOL    HW121281   5.100   4.822   4.585
 6915SOL    HW221282   5.169   4.906   4.480
 6916SOL     OW21283   4.204   5.147   3.878
 6916SOL    HW121284   4.142   5.094   3.929
 6916SOL    HW221285   4.207   5.103   3.792
 6917SOL     OW21286   5.127   4.286   3.804
 6917SOL    HW121287   5.055   4.276   3.865
 6917SOL    HW221288   5.203   4.248   3.849
 6918SOL     OW21289   4.250   3.987   4.042
 6918SOL    HW121290   4.294   3.939   3.972
 6918SOL    HW221291   4.227   4.071   4.003
 6919SOL     OW21292   4.787   5.073   5.054
 6919SOL    HW121293   4.709   5.049   5.104
 6919SOL    HW221294   4.860   5.036   5.103
 6920SOL     OW21295   4.848   4.923   4.833
 6920SOL    HW121296   4.798   4.965   4.902
 6920SOL    HW221297   4.805   4.950   4.751
 6921SOL     OW21298   4.642   3.822   5.120
 6921SOL    HW121299   4.664   3.803   5.029
 6921SOL    HW221300   4.721   3.861   5.157
 6922SOL     OW21301   4.706   4.833   5.454
 6922SOL    HW121302   4.613   4.852   5.470
 6922SOL    HW221303   4.704   4.759   5.394
 6923SOL     OW21304   4.428   4.782   4.096
 6923SOL    HW121305   4.416   4.766   4.190
 6923SOL    HW221306   4.506   4.732   4.073
 6924SOL     OW21307   4.143   4.539   4.975
 6924SOL    HW121308   4.211   4.548   5.042
 6924SOL    HW221309   4.108   4.451   4.990
 6925SOL     OW21310   4.988   4.099   5.001
 6925SOL    HW121311   5.023   4.178   5.042
 6925SOL    HW221312   4.899   4.123   4.976
 6926SOL     OW21313   4.071   4.832   4.213
 6926SOL    HW121314   4.074   4.906   4.151
 6926SOL    HW221315   4.070   4.754   4.157
 6927SOL     OW21316   4.276   4.261   4.584
 6927SOL    HW121317   4.292   4.319   4.509
 6927SOL    HW221318   4.342   4.287   4.649
 6928SOL     OW21319   4.985   5.077   4.111
 6928SOL    HW121320   5.037   5.153   4.138
 6928SOL    HW221321   4.896   5.099   4.139
 6929SOL     OW21322   4.978   5.181   4.855
 6929SOL    HW121323   5.033   5.204   4.930
 6929SOL    HW221324   4.940   5.097   4.878
 6930SOL     OW21325   4.072   5.236   5.038
 6930SOL    HW121326   4.061   5.201   4.950
 6930SOL    HW221327   4.166   5.257   5.044
 6931SOL     OW21328   4.138   4.468   5.326
 6931SOL    HW121329   4.200   4.513   5.268
 6931SOL    HW221330   4.178   4.383   5.342
 6932SOL     OW21331   4.718   3.849   5.480
 6932SOL    HW121332   4.775   3.921   5.453
 6932SOL    HW221333   4.765   3.770   5.454
 6933SOL     OW21334   4.222   3.765   5.472
 6933SOL    HW121335   4.179   3.710   5.406
 6933SOL    HW221336   4.163   3.839   5.484
 6934SOL     OW21337   4.307   4.596   4.755
 6934SOL    HW121338   4.338   4.687   4.754
 6934SOL    HW221339   4.251   4.591   4.832
 6935SOL     OW21340   5.086   4.581   4.759
 6935SOL    HW121341   5.009   4.562   4.706
 6935SOL    HW221342   5.138   4.501   4.756
 6936SOL     OW21343   4.928   4.255   3.989
 6936SOL    HW121344   4.935   4.175   4.041
 6936SOL    HW221345   4.885   4.318   4.046
 6937SOL     OW21346   4.023   3.922   4.971
 6937SOL    HW121347   3.986   3.955   5.053
 6937SOL    HW221348   4.003   3.828   4.971
 6938SOL     OW21349   3.776   5.047   5.009
 6938SOL    HW121350   3.801   4.982   5.075
 6938SOL    HW221351   3.812   5.129   5.041
 6939SOL     OW21352   4.448   4.355   4.782
 6939SOL    HW121353   4.523   4.339   4.725
 6939SOL    HW221354   4.420   4.444   4.761
 6940SOL     OW21355   4.027   3.788   4.347
 6940SOL    HW121356   4.008   3.879   4.370
 6940SOL    HW221357   4.034   3.743   4.431
 6941SOL     OW21358   0.034   4.118   4.083
 6941SOL    HW121359   0.054   4.043   4.140
 6941SOL    HW221360   0.019   4.190   4.144
 6942SOL     OW21361   4.751   4.483   4.684
 6942SOL    HW121362   4.749   4.501   4.778
 6942SOL    HW221363   4.725   4.391   4.676
 6943SOL     OW21364   4.077   4.640   5.533
 6943SOL    HW121365   4.159   4.659   5.578
 6943SOL    HW221366   4.102   4.577   5.464
 6944SOL     OW21367   5.027   4.553   3.760
 6944SOL    HW121368   5.065   4.465   3.763
 6944SOL    HW221369   5.054   4.588   3.676
 6945SOL     OW21370   4.781   5.079   4.550
 6945SOL    HW121371   4.787   4.994   4.507
 6945SOL    HW221372   4.866   5.120   4.536
 6946SOL     OW21373   4.033   4.533   4.671
 6946SOL    HW121374   4.126   4.554   4.665
 6946SOL    HW221375   4.031   4.443   4.704
 6947SOL     OW21376   4.055   4.250   4.736
 6947SOL    HW121377   4.020   4.162   4.721
 6947SOL    HW221378   4.132   4.256   4.679
 6948SOL     OW21379   4.856   4.100   5.405
 6948SOL    HW121380   4.809   4.155   5.467
 6948SOL    HW221381   4.943   4.139   5.400
 6949SOL     OW21382   4.885   3.926   5.193
 6949SOL    HW121383   4.874   3.988   5.265
 6949SOL    HW221384   4.924   3.978   5.122
 6950SOL     OW21385   3.730   5.041   3.914
 6950SOL    HW121386   3.640   5.058   3.888
 6950SOL    HW221387   3.728   4.953   3.952
 6951SOL     OW21388   4.706   4.516   4.950
 6951SOL    HW121389   4.763   4.494   5.024
 6951SOL    HW221390   4.621   4.478   4.973
 6952SOL     OW21391   3.760   4.268   4.841
 6952SOL    HW121392   3.840   4.255   4.791
 6952SOL    HW221393   3.788   4.272   4.932
 6953SOL     OW21394   3.915   4.243   5.451
 6953SOL    HW121395   3.973   4.205   5.385
 6953SOL    HW221396   3.873   4.317   5.407
 6954SOL     OW21397   5.113   4.662   5.390
 6954SOL    HW121398   5.120   4.757   5.378
 6954SOL    HW221399   5.115   4.626   5.301
 6955SOL     OW21400   4.540   4.293   4.083
 6955SOL    HW121401   4.543   4.218   4.024
 6955SOL    HW221402   4.466   4.345   4.052
 6956SOL     OW21403   3.929   5.276   5.469
 6956SOL    HW121404   3.915   0.029   5.548
 6956SOL    HW221405   3.941   5.187   5.502
 6957SOL     OW21406   4.424   4.174   4.983
 6957SOL    HW121407   4.372   4.100   4.953
 6957SOL    HW221408   4.421   4.237   4.911
 6958SOL     OW21409   4.188   4.216   3.911
 6958SOL    HW121410   4.246   4.289   3.933
 6958SOL    HW221411   4.103   4.257   3.898
 6959SOL     OW21412   3.869   4.863   5.195
 6959SOL    HW121413   3.871   4.812   5.276
 6959SOL    HW221414   3.886   4.799   5.126
 6960SOL     OW21415   5.050   4.770   4.951
 6960SOL    HW121416   5.075   4.708   4.882
 6960SOL    HW221417   4.979   4.822   4.913
 6961SOL     OW21418   5.033   4.585   4.040
 6961SOL    HW121419   4.952   4.550   4.077
 6961SOL    HW221420   5.023   4.575   3.946
 6962SOL     OW21421   3.818   4.987   4.746
 6962SOL    HW121422   3.796   5.004   4.837
 6962SOL    HW221423   3.738   4.948   4.709
 6963SOL     OW21424   4.470   0.033   5.437
 6963SOL    HW121425   4.378   0.060   5.440
 6963SOL    HW221426   4.501   0.065   5.352
 6964SOL     OW21427   0.081   3.884   4.254
 6964SOL    HW121428   0.165   3.870   4.210
 6964SOL    HW221429   0.067   3.804   4.306
 6965SOL     OW21430   5.016   4.643   4.397
 6965SOL    HW121431   5.094   4.588   4.384
 6965SOL    HW221432   5.035   4.723   4.347
 6966SOL     OW21433   4.543   4.993   5.145
 6966SOL    HW121434   4.513   5.029   5.229
 6966SOL    HW221435   4.468   5.004   5.086
 6967SOL     OW21436   3.986   4.040   4.441
 6967SOL    HW121437   3.900   4.076   4.417
 6967SOL    HW221438   3.983   4.032   4.536
 6968SOL     OW21439   4.549   4.728   5.094
 6968SOL    HW121440   4.595   4.721   5.011
 6968SOL    HW221441   4.552   4.821   5.116
 6969SOL     OW21442   4.640   4.636   4.014
 6969SOL    HW121443   4.702   4.668   3.949
 6969SOL    HW221444   4.687   4.565   4.059
 6970SOL     OW21445   4.089   5.026   5.221
 6970SOL    HW121446   4.078   5.100   5.161
 6970SOL    HW221447   4.013   4.970   5.203
 6971SOL     OW21448   4.778   4.833   4.436
 6971SOL    HW121449   4.706   4.783   4.474
 6971SOL    HW221450   4.835   4.768   4.397
 6972SOL     OW21451   4.739   3.963   4.692
 6972SOL    HW121452   4.737   3.916   4.609
 6972SOL    HW221453   4.736   3.894   4.759
 6973SOL     OW21454   3.982   5.052   4.007
 6973SOL    HW121455   3.890   5.054   3.980
 6973SOL    HW221456   3.983   5.095   4.092
 6974SOL     OW21457   3.836   4.745   5.442
 6974SOL    HW121458   3.760   4.722   5.496
 6974SOL    HW221459   3.911   4.708   5.489
 6975SOL     OW21460   4.398   3.920   5.223
 6975SOL    HW121461   4.482   3.900   5.182
 6975SOL    HW221462   4.421   3.952   5.311
 6976SOL     OW21463   3.802   4.058   3.759
 6976SOL    HW121464   3.715   4.038   3.725
 6976SOL    HW221465   3.832   4.133   3.708
 6977SOL     OW21466   5.163   4.584   5.128
 6977SOL    HW121467   5.111   4.641   5.072
 6977SOL    HW221468   5.252   4.591   5.093
 6978SOL     OW21469   3.792   3.881   4.034
 6978SOL    HW121470   3.778   3.960   3.983
 6978SOL    HW221471   3.877   3.848   4.004
 6979SOL     OW21472   4.909   5.059   3.845
 6979SOL    HW121473   4.815   5.041   3.844
 6979SOL    HW221474   4.933   5.055   3.937
 6980SOL     OW21475   4.343   4.555   5.157
 6980SOL    HW121476   4.399   4.631   5.142
 6980SOL    HW221477   4.403   4.481   5.166
 6981SOL     OW21478   4.441   4.287   5.428
 6981SOL    HW121479   4.482   4.349   5.489
 6981SOL    HW221480   4.468   4.201   5.460
 6982SOL     OW21481   5.184   4.928   5.357
 6982SOL    HW121482   5.173   4.939   5.451
 6982SOL    HW221483   5.279   4.931   5.343
 6983SOL     OW21484   4.940   4.044   4.180
 6983SOL    HW121485   5.002   3.972   4.167
 6983SOL    HW221486   4.970   4.088   4.259
 6984SOL     OW21487   4.314   4.461   4.393
 6984SOL    HW121488   4.353   4.548   4.379
 6984SOL    HW221489   4.246   4.454   4.326
 6985SOL     OW21490   4.580   5.095   3.744
 6985SOL    HW121491   4.557   5.098   3.836
 6985SOL    HW221492   4.589   5.187   3.718
 6986SOL     OW21493   4.592   4.691   4.579
 6986SOL    HW121494   4.642   4.620   4.619
 6986SOL    HW221495   4.557   4.741   4.654
 6987SOL     OW21496   4.808   4.712   3.816
 6987SOL    HW121497   4.781   4.760   3.738
 6987SOL    HW221498   4.882   4.658   3.787
 6988SOL     OW21499   3.947   5.024   5.577
 6988SOL    HW121500   3.878   4.962   5.552
 6988SOL    HW221501   3.936   5.035   5.671
 6989SOL     OW21502   3.810   4.955   4.394
 6989SOL    HW121503   3.810   4.903   4.474
 6989SOL    HW221504   3.874   4.912   4.337
 6990SOL     OW21505   4.394   5.104   5.333
 6990SOL    HW121506   4.318   5.073   5.381
 6990SOL    HW221507   4.425   5.180   5.383
 6991SOL     OW21508   4.153   4.158   4.250
 6991SOL    HW121509   4.183   4.087   4.192
 6991SOL    HW221510   4.105   4.113   4.320
 6992SOL     OW21511   0.123   5.229   4.774
 6992SOL    HW121512   0.038   5.204   4.737
 6992SOL    HW221513   0.107   5.238   4.867
 6993SOL     OW21514   4.054   4.279   5.016
 6993SOL    HW121515   4.109   4.224   5.071
 6993SOL    HW221516   4.073   4.251   4.926
 6994SOL     OW21517   5.147   3.942   4.839
 6994SOL    HW121518   5.193   3.878   4.893
 6994SOL    HW221519   5.101   3.998   4.902
 6995SOL     OW21520   4.730   3.742   4.866
 6995SOL    HW121521   4.677   3.674   4.825
 6995SOL    HW221522   4.818   3.705   4.871
 6996SOL     OW21523   4.526   5.046   4.008
 6996SOL    HW121524   4.466   4.975   4.028
 6996SOL    HW221525   4.581   5.054   4.086
 6997SOL     OW21526   4.346   5.299   5.015
 6997SOL    HW121527   4.353   0.054   5.094
 6997SOL    HW221528   4.437   5.280   4.992
 6998SOL     OW21529   5.058   3.770   3.891
 6998SOL    HW121530   5.082   3.729   3.808
 6998SOL    HW221531   4.973   3.732   3.913
 6999SOL     OW21532   5.028   4.182   4.406
 6999SOL    HW121533   4.973   4.261   4.410
 6999SOL    HW221534   5.017   4.141   4.492
 7000SOL     OW21535   0.002   3.949   4.604
 7000SOL    HW121536   5.236   3.938   4.673
 7000SOL    HW221537   5.276   4.029   4.559
 7001SOL     OW21538   3.766   4.794   4.031
 7001SOL    HW121539   3.860   4.788   4.014
 7001SOL    HW221540   3.740   4.705   4.053
 7002SOL     OW21541   3.953   4.347   5.709
 7002SOL    HW121542   3.864   4.346   5.743
 7002SOL    HW221543   3.944   4.322   5.617
 7003SOL     OW21544   3.949   4.005   6.578
 7003SOL    HW121545   3.977   3.971   6.662
 7003SOL    HW221546   3.859   3.973   6.568
 7004SOL     OW21547   3.728   4.107   6.224
 7004SOL    HW121548   3.645   4.132   6.265
 7004SOL    HW221549   3.707   4.027   6.175
 7005SOL     OW21550   4.290   5.005   6.765
 7005SOL    HW121551   4.205   5.004   6.721
 7005SOL    HW221552   4.302   5.097   6.791
 7006SOL     OW21553   5.275   5.232   6.279
 7006SOL    HW121554   5.266   5.216   6.373
 7006SOL    HW221555   5.185   5.231   6.246
 7007SOL     OW21556   4.858   4.423   6.286
 7007SOL    HW121557   4.909   4.504   6.276
 7007SOL    HW221558   4.810   4.435   6.367
 7008SOL     OW21559   4.480   4.868   6.624
 7008SOL    HW121560   4.412   4.899   6.684
 7008SOL    HW221561   4.510   4.946   6.579
 7009SOL     OW21562   4.592   4.500   7.407
 7009SOL    HW121563   4.569   4.575   7.463
 7009SOL    HW221564   4.616   4.539   7.323
 7010SOL     OW21565   4.410   4.726   6.234
 7010SOL    HW121566   4.475   4.716   6.304
 7010SOL    HW221567   4.341   4.779   6.273
 7011SOL     OW21568   4.433   4.874   7.399
 7011SOL    HW121569   4.482   4.953   7.421
 7011SOL    HW221570   4.350   4.906   7.362
 7012SOL     OW21571   4.061   5.151   6.646
 7012SOL    HW121572   3.984   5.106   6.611
 7012SOL    HW221573   4.100   5.194   6.570
 7013SOL     OW21574   5.130   5.236   6.927
 7013SOL    HW121575   5.149   0.007   6.988
 7013SOL    HW221576   5.107   5.162   6.982
 7014SOL     OW21577   4.173   4.122   7.074
 7014SOL    HW121578   4.248   4.063   7.079
 7014SOL    HW221579   4.097   4.066   7.086
 7015SOL     OW21580   4.864   5.051   7.285
 7015SOL    HW121581   4.888   5.064   7.376
 7015SOL    HW221582   4.803   4.977   7.286
 7016SOL     OW21583   3.934   5.156   6.106
 7016SOL    HW121584   3.960   5.238   6.148
 7016SOL    HW221585   3.882   5.110   6.173
 7017SOL     OW21586   3.982   4.811   6.478
 7017SOL    HW121587   3.980   4.724   6.517
 7017SOL    HW221588   3.925   4.864   6.533
 7018SOL     OW21589   4.310   4.705   5.720
 7018SOL    HW121590   4.356   4.755   5.652
 7018SOL    HW221591   4.348   4.735   5.802
 7019SOL     OW21592   3.839   4.377   6.145
 7019SOL    HW121593   3.810   4.288   6.167
 7019SOL    HW221594   3.831   4.425   6.228
 7020SOL     OW21595   3.710   0.014   5.684
 7020SOL    HW121596   3.726   5.224   5.715
 7020SOL    HW221597   3.732   0.069   5.759
 7021SOL     OW21598   0.112   4.658   6.153
 7021SOL    HW121599   0.199   4.626   6.175
 7021SOL    HW221600   0.126   4.749   6.126
 7022SOL     OW21601   3.847   4.466   7.172
 7022SOL    HW121602   3.939   4.492   7.179
 7022SOL    HW221603   3.798   4.548   7.179
 7023SOL     OW21604   4.346   5.098   6.323
 7023SOL    HW121605   4.292   5.019   6.321
 7023SOL    HW221606   4.327   5.141   6.240
 7024SOL     OW21607   5.020   4.971   7.006
 7024SOL    HW121608   5.048   4.899   6.949
 7024SOL    HW221609   5.067   4.956   7.088
 7025SOL     OW21610   4.538   3.724   6.095
 7025SOL    HW121611   4.579   3.809   6.075
 7025SOL    HW221612   4.445   3.744   6.104
 7026SOL     OW21613   3.914   4.690   6.856
 7026SOL    HW121614   3.999   4.647   6.842
 7026SOL    HW221615   3.851   4.635   6.809
 7027SOL     OW21616   4.057   3.973   7.399
 7027SOL    HW121617   4.101   4.057   7.412
 7027SOL    HW221618   3.967   3.988   7.429
 7028SOL     OW21619   5.178   5.153   6.537
 7028SOL    HW121620   5.110   5.162   6.604
 7028SOL    HW221621   5.164   5.066   6.500
 7029SOL     OW21622   0.045   0.163   6.151
 7029SOL    HW121623   0.086   0.124   6.074
 7029SOL    HW221624   0.034   0.091   6.212
 7030SOL     OW21625   4.320   4.445   5.852
 7030SOL    HW121626   4.326   4.527   5.802
 7030SOL    HW221627   4.255   4.463   5.920
 7031SOL     OW21628   4.996   4.061   6.505
 7031SOL    HW121629   4.907   4.031   6.527
 7031SOL    HW221630   5.050   4.026   6.576
 7032SOL     OW21631   4.514   4.342   7.037
 7032SOL    HW121632   4.489   4.317   7.126
 7032SOL    HW221633   4.475   4.275   6.981
 7033SOL     OW21634   5.115   4.205   7.266
 7033SOL    HW121635   5.116   4.242   7.355
 7033SOL    HW221636   5.191   4.146   7.263
 7034SOL     OW21637   4.678   4.612   7.168
 7034SOL    HW121638   4.731   4.540   7.132
 7034SOL    HW221639   4.630   4.646   7.092
 7035SOL     OW21640   4.715   4.137   6.824
 7035SOL    HW121641   4.629   4.157   6.860
 7035SOL    HW221642   4.697   4.090   6.743
 7036SOL     OW21643   4.775   4.422   6.011
 7036SOL    HW121644   4.791   4.416   6.105
 7036SOL    HW221645   4.692   4.376   5.998
 7037SOL     OW21646   3.812   4.545   6.362
 7037SOL    HW121647   3.893   4.538   6.413
 7037SOL    HW221648   3.768   4.622   6.397
 7038SOL     OW21649   4.617   4.071   5.780
 7038SOL    HW121650   4.657   4.133   5.718
 7038SOL    HW221651   4.633   3.985   5.742
 7039SOL     OW21652   5.092   4.868   6.132
 7039SOL    HW121653   5.182   4.868   6.099
 7039SOL    HW221654   5.046   4.928   6.074
 7040SOL     OW21655   4.274   3.905   6.479
 7040SOL    HW121656   4.276   3.934   6.570
 7040SOL    HW221657   4.275   3.987   6.428
 7041SOL     OW21658   4.745   5.168   6.056
 7041SOL    HW121659   4.668   5.224   6.049
 7041SOL    HW221660   4.761   5.160   6.150
 7042SOL     OW21661   4.940   5.260   7.141
 7042SOL    HW121662   4.916   5.178   7.183
 7042SOL    HW221663   4.901   5.256   7.054
 7043SOL     OW21664   4.044   4.680   5.836
 7043SOL    HW121665   4.126   4.700   5.791
 7043SOL    HW221666   4.014   4.599   5.796
 7044SOL     OW21667   4.187   4.986   7.328
 7044SOL    HW121668   4.160   4.990   7.236
 7044SOL    HW221669   4.105   4.986   7.377
 7045SOL     OW21670   4.790   0.173   5.797
 7045SOL    HW121671   4.803   0.117   5.874
 7045SOL    HW221672   4.866   0.156   5.742
 7046SOL     OW21673   3.925   4.005   7.087
 7046SOL    HW121674   3.843   4.053   7.082
 7046SOL    HW221675   3.906   3.933   7.148
 7047SOL     OW21676   5.120   3.831   6.010
 7047SOL    HW121677   5.101   3.813   5.918
 7047SOL    HW221678   5.215   3.847   6.012
 7048SOL     OW21679   4.117   4.419   6.062
 7048SOL    HW121680   4.137   4.326   6.074
 7048SOL    HW221681   4.023   4.425   6.079
 7049SOL     OW21682   4.359   3.846   5.691
 7049SOL    HW121683   4.429   3.782   5.703
 7049SOL    HW221684   4.310   3.815   5.615
 7050SOL     OW21685   4.489   4.001   7.340
 7050SOL    HW121686   4.566   3.944   7.341
 7050SOL    HW221687   4.445   3.984   7.423
 7051SOL     OW21688   5.058   4.316   7.018
 7051SOL    HW121689   5.090   4.284   7.102
 7051SOL    HW221690   5.100   4.401   7.006
 7052SOL     OW21691   4.536   5.119   6.522
 7052SOL    HW121692   4.617   5.106   6.472
 7052SOL    HW221693   4.468   5.126   6.455
 7053SOL     OW21694   4.651   4.233   6.489
 7053SOL    HW121695   4.628   4.224   6.396
 7053SOL    HW221696   4.683   4.146   6.514
 7054SOL     OW21697   4.273   3.787   6.088
 7054SOL    HW121698   4.192   3.788   6.140
 7054SOL    HW221699   4.267   3.865   6.033
 7055SOL     OW21700   5.136   4.904   5.629
 7055SOL    HW121701   5.143   4.825   5.683
 7055SOL    HW221702   5.047   4.936   5.645
 7056SOL     OW21703   4.016   3.771   5.771
 7056SOL    HW121704   4.075   3.836   5.731
 7056SOL    HW221705   4.074   3.708   5.812
 7057SOL     OW21706   4.661   3.970   6.046
 7057SOL    HW121707   4.635   4.011   5.963
 7057SOL    HW221708   4.756   3.983   6.049
 7058SOL     OW21709   4.801   4.405   7.047
 7058SOL    HW121710   4.734   4.337   7.049
 7058SOL    HW221711   4.884   4.357   7.037
 7059SOL     OW21712   4.984   5.266   6.357
 7059SOL    HW121713   4.948   0.052   6.336
 7059SOL    HW221714   5.038   5.280   6.435
 7060SOL     OW21715   4.190   4.872   6.316
 7060SOL    HW121716   4.121   4.852   6.380
 7060SOL    HW221717   4.149   4.854   6.231
 7061SOL     OW21718   4.748   4.267   5.608
 7061SOL    HW121719   4.704   4.350   5.588
 7061SOL    HW221720   4.809   4.289   5.678
 7062SOL     OW21721   3.803   4.279   6.978
 7062SOL    HW121722   3.895   4.277   6.951
 7062SOL    HW221723   3.798   4.349   7.043
 7063SOL     OW21724   4.283   3.951   6.752
 7063SOL    HW121725   4.325   3.875   6.792
 7063SOL    HW221726   4.192   3.947   6.782
 7064SOL     OW21727   4.592   4.183   6.225
 7064SOL    HW121728   4.546   4.238   6.162
 7064SOL    HW221729   4.613   4.103   6.177
 7065SOL     OW21730   4.739   3.777   6.338
 7065SOL    HW121731   4.681   3.770   6.262
 7065SOL    HW221732   4.717   3.701   6.392
 7066SOL     OW21733   5.152   4.901   6.436
 7066SOL    HW121734   5.100   4.822   6.446
 7066SOL    HW221735   5.169   4.906   6.342
 7067SOL     OW21736   4.204   5.146   5.740
 7067SOL    HW121737   4.142   5.094   5.791
 7067SOL    HW221738   4.207   5.104   5.654
 7068SOL     OW21739   5.127   4.286   5.666
 7068SOL    HW121740   5.055   4.276   5.728
 7068SOL    HW221741   5.203   4.248   5.711
 7069SOL     OW21742   4.249   3.987   5.904
 7069SOL    HW121743   4.294   3.939   5.834
 7069SOL    HW221744   4.227   4.071   5.865
 7070SOL     OW21745   4.786   5.074   6.916
 7070SOL    HW121746   4.709   5.049   6.966
 7070SOL    HW221747   4.859   5.036   6.965
 7071SOL     OW21748   4.848   4.923   6.695
 7071SOL    HW121749   4.798   4.965   6.764
 7071SOL    HW221750   4.805   4.950   6.613
 7072SOL     OW21751   4.641   3.822   6.982
 7072SOL    HW121752   4.664   3.803   6.891
 7072SOL    HW221753   4.721   3.860   7.019
 7073SOL     OW21754   4.706   4.832   7.318
 7073SOL    HW121755   4.614   4.853   7.332
 7073SOL    HW221756   4.705   4.758   7.257
 7074SOL     OW21757   4.428   4.782   5.958
 7074SOL    HW121758   4.416   4.766   6.052
 7074SOL    HW221759   4.506   4.732   5.935
 7075SOL     OW21760   4.143   4.539   6.837
 7075SOL    HW121761   4.211   4.548   6.904
 7075SOL    HW221762   4.108   4.451   6.851
 7076SOL     OW21763   4.988   4.099   6.862
 7076SOL    HW121764   5.023   4.179   6.903
 7076SOL    HW221765   4.899   4.123   6.838
 7077SOL     OW21766   4.071   4.832   6.075
 7077SOL    HW121767   4.074   4.906   6.013
 7077SOL    HW221768   4.070   4.754   6.019
 7078SOL     OW21769   4.276   4.261   6.446
 7078SOL    HW121770   4.292   4.319   6.371
 7078SOL    HW221771   4.342   4.287   6.511
 7079SOL     OW21772   4.985   5.077   5.973
 7079SOL    HW121773   5.037   5.153   6.000
 7079SOL    HW221774   4.896   5.099   6.001
 7080SOL     OW21775   4.978   5.181   6.717
 7080SOL    HW121776   5.033   5.204   6.792
 7080SOL    HW221777   4.940   5.097   6.740
 7081SOL     OW21778   4.072   5.236   6.901
 7081SOL    HW121779   4.061   5.201   6.812
 7081SOL    HW221780   4.166   5.257   6.906
 7082SOL     OW21781   4.138   4.469   7.188
 7082SOL    HW121782   4.200   4.513   7.130
 7082SOL    HW221783   4.177   4.383   7.203
 7083SOL     OW21784   4.718   3.849   7.340
 7083SOL    HW121785   4.775   3.921   7.313
 7083SOL    HW221786   4.765   3.770   7.316
 7084SOL     OW21787   4.222   3.764   7.334
 7084SOL    HW121788   4.179   3.710   7.268
 7084SOL    HW221789   4.164   3.839   7.346
 7085SOL     OW21790   4.307   4.596   6.617
 7085SOL    HW121791   4.337   4.687   6.615
 7085SOL    HW221792   4.251   4.591   6.694
 7086SOL     OW21793   5.086   4.581   6.622
 7086SOL    HW121794   5.009   4.562   6.568
 7086SOL    HW221795   5.138   4.500   6.617
 7087SOL     OW21796   4.928   4.255   5.851
 7087SOL    HW121797   4.935   4.175   5.903
 7087SOL    HW221798   4.885   4.318   5.908
 7088SOL     OW21799   4.023   3.922   6.833
 7088SOL    HW121800   3.986   3.955   6.915
 7088SOL    HW221801   4.004   3.829   6.833
 7089SOL     OW21802   3.777   5.046   6.870
 7089SOL    HW121803   3.801   4.982   6.937
 7089SOL    HW221804   3.812   5.129   6.903
 7090SOL     OW21805   4.448   4.355   6.644
 7090SOL    HW121806   4.523   4.339   6.586
 7090SOL    HW221807   4.420   4.444   6.622
 7091SOL     OW21808   4.027   3.788   6.209
 7091SOL    HW121809   4.007   3.879   6.232
 7091SOL    HW221810   4.034   3.743   6.293
 7092SOL     OW21811   0.034   4.118   5.945
 7092SOL    HW121812   0.054   4.043   6.002
 7092SOL    HW221813   0.019   4.190   6.006
 7093SOL     OW21814   4.751   4.483   6.546
 7093SOL    HW121815   4.749   4.501   6.640
 7093SOL    HW221816   4.725   4.391   6.539
 7094SOL     OW21817   4.077   4.639   7.396
 7094SOL    HW121818   4.160   4.659   7.439
 7094SOL    HW221819   4.101   4.577   7.327
 7095SOL     OW21820   5.027   4.553   5.623
 7095SOL    HW121821   5.065   4.465   5.625
 7095SOL    HW221822   5.054   4.588   5.538
 7096SOL     OW21823   4.781   5.079   6.412
 7096SOL    HW121824   4.787   4.994   6.369
 7096SOL    HW221825   4.866   5.120   6.398
 7097SOL     OW21826   4.033   4.533   6.533
 7097SOL    HW121827   4.126   4.554   6.527
 7097SOL    HW221828   4.031   4.443   6.566
 7098SOL     OW21829   4.055   4.250   6.598
 7098SOL    HW121830   4.020   4.162   6.583
 7098SOL    HW221831   4.132   4.256   6.541
 7099SOL     OW21832   4.857   4.100   7.266
 7099SOL    HW121833   4.809   4.155   7.328
 7099SOL    HW221834   4.944   4.140   7.261
 7100SOL     OW21835   4.885   3.926   7.054
 7100SOL    HW121836   4.874   3.988   7.126
 7100SOL    HW221837   4.924   3.978   6.984
 7101SOL     OW21838   3.730   5.041   5.776
 7101SOL    HW121839   3.640   5.058   5.750
 7101SOL    HW221840   3.728   4.953   5.814
 7102SOL     OW21841   4.706   4.516   6.812
 7102SOL    HW121842   4.762   4.493   6.887
 7102SOL    HW221843   4.621   4.477   6.834
 7103SOL     OW21844   3.760   4.269   6.702
 7103SOL    HW121845   3.840   4.255   6.653
 7103SOL    HW221846   3.788   4.272   6.794
 7104SOL     OW21847   3.916   4.243   7.313
 7104SOL    HW121848   3.971   4.203   7.246
 7104SOL    HW221849   3.874   4.317   7.270
 7105SOL     OW21850   5.112   4.662   7.253
 7105SOL    HW121851   5.119   4.757   7.240
 7105SOL    HW221852   5.115   4.626   7.164
 7106SOL     OW21853   4.540   4.293   5.945
 7106SOL    HW121854   4.543   4.218   5.886
 7106SOL    HW221855   4.466   4.346   5.914
 7107SOL     OW21856   3.930   5.275   7.329
 7107SOL    HW121857   3.900   0.025   7.405
 7107SOL    HW221858   3.943   5.187   7.363
 7108SOL     OW21859   4.424   4.174   6.845
 7108SOL    HW121860   4.372   4.100   6.815
 7108SOL    HW221861   4.421   4.237   6.773
 7109SOL     OW21862   4.188   4.216   5.773
 7109SOL    HW121863   4.246   4.289   5.795
 7109SOL    HW221864   4.103   4.257   5.760
 7110SOL     OW21865   3.869   4.863   7.057
 7110SOL    HW121866   3.871   4.812   7.138
 7110SOL    HW221867   3.886   4.799   6.988
 7111SOL     OW21868   5.050   4.770   6.813
 7111SOL    HW121869   5.075   4.708   6.744
 7111SOL    HW221870   4.980   4.822   6.774
 7112SOL     OW21871   5.034   4.584   5.902
 7112SOL    HW121872   4.952   4.550   5.939
 7112SOL    HW221873   5.023   4.575   5.808
 7113SOL     OW21874   3.818   4.987   6.607
 7113SOL    HW121875   3.796   5.004   6.699
 7113SOL    HW221876   3.738   4.948   6.571
 7114SOL     OW21877   4.469   0.031   7.301
 7114SOL    HW121878   4.377   0.059   7.302
 7114SOL    HW221879   4.503   0.066   7.218
 7115SOL     OW21880   0.081   3.884   6.116
 7115SOL    HW121881   0.165   3.871   6.072
 7115SOL    HW221882   0.067   3.804   6.167
 7116SOL     OW21883   5.016   4.643   6.259
 7116SOL    HW121884   5.094   4.588   6.246
 7116SOL    HW221885   5.035   4.723   6.209
 7117SOL     OW21886   4.543   4.993   7.007
 7117SOL    HW121887   4.512   5.029   7.091
 7117SOL    HW221888   4.468   5.004   6.948
 7118SOL     OW21889   3.986   4.040   6.303
 7118SOL    HW121890   3.900   4.075   6.279
 7118SOL    HW221891   3.983   4.032   6.398
 7119SOL     OW21892   4.549   4.728   6.957
 7119SOL    HW121893   4.595   4.721   6.873
 7119SOL    HW221894   4.552   4.821   6.978
 7120SOL     OW21895   4.640   4.636   5.877
 7120SOL    HW121896   4.702   4.668   5.811
 7120SOL    HW221897   4.687   4.565   5.921
 7121SOL     OW21898   4.089   5.026   7.083
 7121SOL    HW121899   4.079   5.100   7.023
 7121SOL    HW221900   4.013   4.970   7.065
 7122SOL     OW21901   4.778   4.833   6.298
 7122SOL    HW121902   4.706   4.783   6.336
 7122SOL    HW221903   4.835   4.768   6.259
 7123SOL     OW21904   4.739   3.963   6.554
 7123SOL    HW121905   4.737   3.916   6.471
 7123SOL    HW221906   4.736   3.894   6.621
 7124SOL     OW21907   3.982   5.052   5.869
 7124SOL    HW121908   3.890   5.054   5.842
 7124SOL    HW221909   3.983   5.095   5.954
 7125SOL     OW21910   3.837   4.746   7.305
 7125SOL    HW121911   3.760   4.723   7.357
 7125SOL    HW221912   3.911   4.708   7.352
 7126SOL     OW21913   4.398   3.920   7.085
 7126SOL    HW121914   4.482   3.900   7.044
 7126SOL    HW221915   4.421   3.951   7.173
 7127SOL     OW21916   3.802   4.058   5.621
 7127SOL    HW121917   3.715   4.038   5.587
 7127SOL    HW221918   3.832   4.133   5.570
 7128SOL     OW21919   5.164   4.584   6.990
 7128SOL    HW121920   5.111   4.641   6.934
 7128SOL    HW221921   5.252   4.591   6.954
 7129SOL     OW21922   3.792   3.880   5.896
 7129SOL    HW121923   3.778   3.960   5.845
 7129SOL    HW221924   3.877   3.847   5.866
 7130SOL     OW21925   4.909   5.059   5.707
 7130SOL    HW121926   4.815   5.041   5.706
 7130SOL    HW221927   4.933   5.055   5.799
 7131SOL     OW21928   4.343   4.555   7.020
 7131SOL    HW121929   4.399   4.630   7.003
 7131SOL    HW221930   4.403   4.481   7.028
 7132SOL     OW21931   4.442   4.287   7.290
 7132SOL    HW121932   4.482   4.348   7.352
 7132SOL    HW221933   4.468   4.200   7.322
 7133SOL     OW21934   5.184   4.927   7.218
 7133SOL    HW121935   5.173   4.939   7.312
 7133SOL    HW221936   5.278   4.931   7.204
 7134SOL     OW21937   4.940   4.044   6.042
 7134SOL    HW121938   5.002   3.972   6.029
 7134SOL    HW221939   4.970   4.088   6.121
 7135SOL     OW21940   4.314   4.461   6.255
 7135SOL    HW121941   4.353   4.548   6.241
 7135SOL    HW221942   4.246   4.454   6.188
 7136SOL     OW21943   4.580   5.095   5.606
 7136SOL    HW121944   4.557   5.098   5.698
 7136SOL    HW221945   4.589   5.187   5.580
 7137SOL     OW21946   4.592   4.692   6.441
 7137SOL    HW121947   4.642   4.620   6.481
 7137SOL    HW221948   4.557   4.741   6.516
 7138SOL     OW21949   4.808   4.712   5.678
 7138SOL    HW121950   4.781   4.760   5.600
 7138SOL    HW221951   4.882   4.658   5.649
 7139SOL     OW21952   3.946   5.023   7.442
 7139SOL    HW121953   3.880   4.960   7.411
 7139SOL    HW221954   3.925   5.037   7.534
 7140SOL     OW21955   3.810   4.955   6.256
 7140SOL    HW121956   3.809   4.903   6.336
 7140SOL    HW221957   3.874   4.912   6.199
 7141SOL     OW21958   4.394   5.103   7.195
 7141SOL    HW121959   4.317   5.073   7.243
 7141SOL    HW221960   4.425   5.179   7.244
 7142SOL     OW21961   4.153   4.158   6.112
 7142SOL    HW121962   4.183   4.087   6.054
 7142SOL    HW221963   4.105   4.114   6.182
 7143SOL     OW21964   0.123   5.229   6.636
 7143SOL    HW121965   0.038   5.204   6.599
 7143SOL    HW221966   0.107   5.237   6.730
 7144SOL     OW21967   4.054   4.279   6.878
 7144SOL    HW121968   4.110   4.224   6.933
 7144SOL    HW221969   4.073   4.251   6.788
 7145SOL     OW21970   5.147   3.943   6.701
 7145SOL    HW121971   5.192   3.878   6.755
 7145SOL    HW221972   5.101   3.998   6.764
 7146SOL     OW21973   4.730   3.743   6.728
 7146SOL    HW121974   4.677   3.674   6.688
 7146SOL    HW221975   4.818   3.705   6.733
 7147SOL     OW21976   4.526   5.046   5.870
 7147SOL    HW121977   4.466   4.975   5.890
 7147SOL    HW221978   4.581   5.054   5.948
 7148SOL     OW21979   4.346   5.299   6.878
 7148SOL    HW121980   4.353   0.054   6.956
 7148SOL    HW221981   4.437   5.280   6.854
 7149SOL     OW21982   5.058   3.770   5.753
 7149SOL    HW121983   5.082   3.729   5.670
 7149SOL    HW221984   4.973   3.732   5.775
 7150SOL     OW21985   5.028   4.182   6.268
 7150SOL    HW121986   4.973   4.261   6.272
 7150SOL    HW221987   5.017   4.141   6.354
 7151SOL     OW21988   0.002   3.949   6.466
 7151SOL    HW121989   5.236   3.938   6.535
 7151SOL    HW221990   5.276   4.029   6.421
 7152SOL     OW21991   3.766   4.794   5.893
 7152SOL    HW121992   3.860   4.788   5.876
 7152SOL    HW221993   3.740   4.705   5.915
 7153SOL     OW21994   3.953   4.343   7.572
 7153SOL    HW121995   3.862   4.350   7.602
 7153SOL    HW221996   3.945   4.320   7.479
 7154SOL     OW21997   4.001   0.125   7.958
 7154SOL    HW121998   3.975   0.210   7.992
 7154SOL    HW221999   4.006   0.139   7.863
 7155SOL     OW22000   3.941   5.156   7.990
 7155SOL    HW122001   3.954   5.251   7.997
 7155SOL    HW222002   3.883   5.135   8.063
 7156SOL     OW22003   4.310   4.705   7.579
 7156SOL    HW122004   4.355   4.756   7.511
 7156SOL    HW222005   4.348   4.736   7.661
 7157SOL     OW22006   3.723   0.010   7.538
 7157SOL    HW122007   3.727   5.221   7.573
 7157SOL    HW222008   3.723   0.067   7.615
 7158SOL     OW22009   0.118   4.650   8.013
 7158SOL    HW122010   0.210   4.639   8.039
 7158SOL    HW222011   0.109   4.744   7.998
 7159SOL     OW22012   4.525   3.718   7.938
 7159SOL    HW122013   4.575   3.798   7.922
 7159SOL    HW222014   4.434   3.747   7.947
 7160SOL     OW22015   4.315   4.449   7.709
 7160SOL    HW122016   4.318   4.531   7.659
 7160SOL    HW222017   4.255   4.467   7.781
 7161SOL     OW22018   3.784   4.587   0.089
 7161SOL    HW122019   3.849   4.522   0.118
 7161SOL    HW222020   3.780   4.650   0.161
 7162SOL     OW22021   4.607   4.069   7.639
 7162SOL    HW122022   4.650   4.128   7.577
 7162SOL    HW222023   4.638   3.982   7.615
 7163SOL     OW22024   4.047   4.680   7.697
 7163SOL    HW122025   4.127   4.697   7.648
 7163SOL    HW222026   4.010   4.601   7.656
 7164SOL     OW22027   4.795   0.183   7.648
 7164SOL    HW122028   4.791   0.139   7.733
 7164SOL    HW222029   4.877   0.152   7.609
 7165SOL     OW22030   5.132   3.850   7.857
 7165SOL    HW122031   5.096   3.826   7.771
 7165SOL    HW222032   5.227   3.850   7.843
 7166SOL     OW22033   4.115   4.422   7.918
 7166SOL    HW122034   4.119   4.327   7.926
 7166SOL    HW222035   4.024   4.444   7.936
 7167SOL     OW22036   4.354   3.844   7.559
 7167SOL    HW122037   4.428   3.785   7.569
 7167SOL    HW222038   4.309   3.813   7.480
 7168SOL     OW22039   4.256   3.798   7.959
 7168SOL    HW122040   4.171   3.802   8.002
 7168SOL    HW222041   4.254   3.869   7.895
 7169SOL     OW22042   5.137   4.906   7.490
 7169SOL    HW122043   5.149   4.830   7.547
 7169SOL    HW222044   5.049   4.937   7.508
 7170SOL     OW22045   4.017   3.773   7.633
 7170SOL    HW122046   4.075   3.834   7.587
 7170SOL    HW222047   4.075   3.708   7.672
 7171SOL     OW22048   4.666   3.950   7.910
 7171SOL    HW122049   4.624   4.014   7.853
 7171SOL    HW222050   4.758   3.978   7.913
 7172SOL     OW22051   4.164   4.874   0.099
 7172SOL    HW122052   4.089   4.910   0.146
 7172SOL    HW222053   4.133   4.860   0.010
 7173SOL     OW22054   4.751   4.269   7.465
 7173SOL    HW122055   4.704   4.350   7.449
 7173SOL    HW222056   4.805   4.288   7.543
 7174SOL     OW22057   4.196   5.150   7.602
 7174SOL    HW122058   4.139   5.097   7.656
 7174SOL    HW222059   4.204   5.102   7.519
 7175SOL     OW22060   5.128   4.285   7.530
 7175SOL    HW122061   5.053   4.276   7.589
 7175SOL    HW222062   5.201   4.245   7.577
 7176SOL     OW22063   4.250   3.990   7.770
 7176SOL    HW122064   4.294   3.940   7.701
 7176SOL    HW222065   4.227   4.073   7.729
 7177SOL     OW22066   4.432   4.782   7.812
 7177SOL    HW122067   4.409   4.770   7.904
 7177SOL    HW222068   4.513   4.733   7.801
 7178SOL     OW22069   4.089   4.826   7.927
 7178SOL    HW122070   4.067   4.905   7.878
 7178SOL    HW222071   4.076   4.755   7.864
 7179SOL     OW22072   4.954   5.103   7.832
 7179SOL    HW122073   5.034   5.128   7.878
 7179SOL    HW222074   4.901   5.058   7.898
 7180SOL     OW22075   0.036   4.372   7.924
 7180SOL    HW122076   5.280   4.390   7.999
 7180SOL    HW222077   0.040   4.456   7.877
 7181SOL     OW22078   4.926   4.254   7.713
 7181SOL    HW122079   4.932   4.169   7.759
 7181SOL    HW222080   4.895   4.315   7.780
 7182SOL     OW22081   0.025   4.126   7.806
 7182SOL    HW122082   0.037   4.058   7.872
 7182SOL    HW222083   0.023   4.208   7.856
 7183SOL     OW22084   5.034   4.556   7.490
 7183SOL    HW122085   5.065   4.465   7.487
 7183SOL    HW222086   5.057   4.591   7.404
 7184SOL     OW22087   3.732   5.045   7.640
 7184SOL    HW122088   3.642   5.058   7.610
 7184SOL    HW222089   3.733   4.956   7.675
 7185SOL     OW22090   4.564   4.325   7.758
 7185SOL    HW122091   4.556   4.233   7.734
 7185SOL    HW222092   4.475   4.358   7.760
 7186SOL     OW22093   4.186   4.217   7.642
 7186SOL    HW122094   4.244   4.291   7.657
 7186SOL    HW222095   4.101   4.257   7.623
 7187SOL     OW22096   5.033   4.574   7.772
 7187SOL    HW122097   4.939   4.584   7.791
 7187SOL    HW222098   5.037   4.571   7.676
 7188SOL     OW22099   0.181   3.866   7.990
 7188SOL    HW122100   0.157   3.849   7.899
 7188SOL    HW222101   0.138   3.797   8.040
 7189SOL     OW22102   4.655   4.633   7.760
 7189SOL    HW122103   4.706   4.659   7.682
 7189SOL    HW222104   4.644   4.539   7.751
 7190SOL     OW22105   3.982   5.057   7.746
 7190SOL    HW122106   3.890   5.060   7.717
 7190SOL    HW222107   3.981   5.097   7.833
 7191SOL     OW22108   3.802   4.057   7.483
 7191SOL    HW122109   3.715   4.038   7.447
 7191SOL    HW222110   3.832   4.133   7.433
 7192SOL     OW22111   3.794   3.881   7.758
 7192SOL    HW122112   3.777   3.957   7.703
 7192SOL    HW222113   3.877   3.846   7.726
 7193SOL     OW22114   4.908   5.055   7.567
 7193SOL    HW122115   4.813   5.040   7.560
 7193SOL    HW222116   4.923   5.067   7.661
 7194SOL     OW22117   4.938   4.044   7.901
 7194SOL    HW122118   5.010   3.981   7.890
 7194SOL    HW222119   4.956   4.087   7.984
 7195SOL     OW22120   4.350   4.459   8.055
 7195SOL    HW122121   4.355   4.541   0.024
 7195SOL    HW222122   4.263   4.459   8.016
 7196SOL     OW22123   4.583   5.094   7.466
 7196SOL    HW122124   4.560   5.097   7.559
 7196SOL    HW222125   4.588   5.186   7.440
 7197SOL     OW22126   4.804   4.703   7.542
 7197SOL    HW122127   4.777   4.756   7.466
 7197SOL    HW222128   4.880   4.654   7.512
 7198SOL     OW22129   4.111   4.150   7.983
 7198SOL    HW122130   4.162   4.099   7.919
 7198SOL    HW222131   4.161   4.145   8.064
 7199SOL     OW22132   4.529   5.047   7.730
 7199SOL    HW122133   4.472   4.972   7.750
 7199SOL    HW222134   4.548   5.086   7.815
 7200SOL     OW22135   5.061   3.769   7.610
 7200SOL    HW122136   5.082   3.724   7.528
 7200SOL    HW222137   4.977   3.732   7.638
 7201SOL     OW22138   3.774   4.801   7.751
 7201SOL    HW122139   3.869   4.793   7.738
 7201SOL    HW222140   3.744   4.711   7.765
   5.30000   5.30000   8.08000
