Built with Packmol
22029
    1LIG      O    1   2.411   2.337   0.053
    1LIG      C    2   2.339   2.375   0.173
    1LIG     C1    3   2.416   2.333   0.301
    1LIG     O1    4   2.345   2.370   0.423
    1LIG     C2    5   2.416   2.332   0.544
    1LIG     C3    6   2.336   2.373   0.670
    1LIG     O2    7   2.407   2.335   0.791
    1LIG     C4    8   2.335   2.372   0.912
    1LIG     C5    9   2.415   2.329   1.038
    1LIG     O3   10   2.343   2.365   1.160
    1LIG     C6   11   2.414   2.327   1.280
    1LIG     C7   12   2.334   2.369   1.406
    1LIG     O4   13   2.404   2.331   1.528
    1LIG     C8   14   2.333   2.368   1.649
    1LIG     C9   15   2.413   2.325   1.774
    1LIG     O5   16   2.342   2.362   1.895
    1LIG    C10   17   2.413   2.324   2.016
    1LIG    C11   18   2.332   2.367   2.141
    1LIG     O6   19   2.403   2.329   2.263
    1LIG    C12   20   2.332   2.366   2.384
    1LIG    C13   21   2.413   2.323   2.509
    1LIG     O7   22   2.341   2.360   2.630
    1LIG    C14   23   2.412   2.323   2.752
    1LIG    C15   24   2.333   2.365   2.878
    1LIG     O8   25   2.403   2.327   3.000
    1LIG    C16   26   2.331   2.365   3.121
    1LIG    C17   27   2.411   2.322   3.247
    1LIG     O9   28   2.340   2.359   3.369
    1LIG    C18   29   2.412   2.321   3.489
    1LIG    C19   30   2.332   2.364   3.614
    1LIG    O10   31   2.403   2.326   3.736
    1LIG    C20   32   2.331   2.364   3.857
    1LIG    C21   33   2.412   2.321   3.982
    1LIG    O11   34   2.341   2.359   4.103
    1LIG    C22   35   2.412   2.321   4.224
    1LIG    C23   36   2.331   2.363   4.350
    1LIG    O12   37   2.402   2.325   4.471
    1LIG    C24   38   2.331   2.363   4.593
    1LIG    C25   39   2.411   2.320   4.719
    1LIG    O13   40   2.340   2.358   4.840
    1LIG    C26   41   2.412   2.320   4.961
    1LIG    C27   42   2.332   2.362   5.086
    1LIG    O14   43   2.403   2.325   5.208
    1LIG    C28   44   2.332   2.363   5.329
    1LIG    C29   45   2.412   2.321   5.455
    1LIG    O15   46   2.340   2.359   5.577
    1LIG    C30   47   2.412   2.321   5.697
    1LIG    C31   48   2.332   2.364   5.822
    1LIG    O16   49   2.403   2.326   5.943
    1LIG    C32   50   2.332   2.363   6.065
    1LIG    C33   51   2.412   2.321   6.190
    1LIG    O17   52   2.341   2.359   6.312
    1LIG    C34   53   2.413   2.321   6.433
    1LIG    C35   54   2.333   2.363   6.559
    1LIG    O18   55   2.404   2.326   6.680
    1LIG    C36   56   2.332   2.364   6.801
    1LIG    C37   57   2.412   2.322   6.927
    1LIG    O19   58   2.341   2.360   7.049
    1LIG    C38   59   2.413   2.323   7.169
    1LIG    C39   60   2.334   2.365   7.295
    1LIG    O20   61   2.405   2.327   7.417
    1LIG    C40   62   2.333   2.365   7.538
    1LIG    C41   63   2.413   2.324   7.664
    1LIG    O21   64   2.342   2.361   7.785
    1LIG    C42   65   2.414   2.323   7.906
    1LIG    C43   66   2.334   2.366   8.031
    1LIG    O22   67   2.405   2.329   8.153
    1LIG    C44   68   2.334   2.366   8.274
    1LIG    C45   69   2.415   2.324   8.399
    1LIG    O23   70   2.344   2.362   8.521
    1LIG    C46   71   2.415   2.325   8.642
    1LIG    C47   72   2.334   2.367   8.767
    1LIG    O24   73   2.406   2.330   8.888
    1LIG    C48   74   2.335   2.367   9.010
    1LIG    C49   75   2.416   2.325   9.135
    1LIG    O25   76   2.345   2.363   9.256
    1LIG    C50   77   2.416   2.326   9.378
    1LIG    C51   78   2.335   2.368   9.503
    1LIG    O26   79   2.407   2.331   9.624
    1LIG    C52   80   2.336   2.368   9.745
    1LIG    C53   81   2.417   2.327   9.870
    1LIG    O27   82   2.345   2.364   9.991
    1LIG    C54   83   2.416   2.327  10.113
    1LIG    C55   84   2.336   2.370  10.240
    1LIG    O28   85   2.408   2.333  10.361
    1LIG    C56   86   2.337   2.370  10.482
    1LIG    C57   87   2.417   2.329  10.609
    1LIG    O29   88   2.346   2.367  10.731
    1LIG    C58   89   2.418   2.329  10.852
    1LIG    C59   90   2.339   2.371  10.978
    1LIG      H   91   2.240   2.327   0.171
    1LIG     H1   92   2.323   2.483   0.172
    1LIG     H2   93   2.515   2.381   0.301
    1LIG     H3   94   2.432   2.225   0.300
    1LIG     H4   95   2.515   2.380   0.546
    1LIG     H5   96   2.432   2.223   0.545
    1LIG     H6   97   2.237   2.326   0.667
    1LIG     H7   98   2.321   2.482   0.669
    1LIG     H8   99   2.237   2.324   0.913
    1LIG     H9  100   2.320   2.480   0.914
    1LIG    H10  101   2.513   2.377   1.037
    1LIG    H11  102   2.430   2.220   1.036
    1LIG    H12  103   2.513   2.375   1.282
    1LIG    H13  104   2.430   2.218   1.281
    1LIG    H14  105   2.235   2.321   1.404
    1LIG    H15  106   2.318   2.477   1.405
    1LIG    H16  107   2.234   2.320   1.650
    1LIG    H17  108   2.317   2.477   1.651
    1LIG    H18  109   2.512   2.373   1.772
    1LIG    H19  110   2.429   2.216   1.772
    1LIG    H20  111   2.511   2.372   2.018
    1LIG    H21  112   2.428   2.216   2.018
    1LIG    H22  113   2.234   2.318   2.140
    1LIG    H23  114   2.317   2.475   2.140
    1LIG    H24  115   2.234   2.318   2.385
    1LIG    H25  116   2.317   2.474   2.386
    1LIG    H26  117   2.511   2.371   2.508
    1LIG    H27  118   2.428   2.214   2.508
    1LIG    H28  119   2.511   2.371   2.754
    1LIG    H29  120   2.428   2.214   2.753
    1LIG    H30  121   2.234   2.316   2.877
    1LIG    H31  122   2.317   2.473   2.877
    1LIG    H32  123   2.233   2.316   3.122
    1LIG    H33  124   2.316   2.473   3.122
    1LIG    H34  125   2.510   2.370   3.245
    1LIG    H35  126   2.427   2.214   3.245
    1LIG    H36  127   2.511   2.370   3.490
    1LIG    H37  128   2.428   2.213   3.490
    1LIG    H38  129   2.234   2.315   3.613
    1LIG    H39  130   2.316   2.472   3.613
    1LIG    H40  131   2.233   2.316   3.858
    1LIG    H41  132   2.316   2.472   3.858
    1LIG    H42  133   2.510   2.369   3.980
    1LIG    H43  134   2.427   2.213   3.980
    1LIG    H44  135   2.510   2.369   4.226
    1LIG    H45  136   2.427   2.212   4.226
    1LIG    H46  137   2.233   2.315   4.348
    1LIG    H47  138   2.316   2.472   4.348
    1LIG    H48  139   2.233   2.315   4.594
    1LIG    H49  140   2.316   2.471   4.594
    1LIG    H50  141   2.510   2.369   4.717
    1LIG    H51  142   2.427   2.212   4.717
    1LIG    H52  143   2.510   2.368   4.963
    1LIG    H53  144   2.427   2.211   4.963
    1LIG    H54  145   2.233   2.314   5.085
    1LIG    H55  146   2.316   2.471   5.085
    1LIG    H56  147   2.233   2.315   5.331
    1LIG    H57  148   2.316   2.471   5.330
    1LIG    H58  149   2.510   2.369   5.453
    1LIG    H59  150   2.428   2.212   5.454
    1LIG    H60  151   2.511   2.369   5.699
    1LIG    H61  152   2.428   2.213   5.699
    1LIG    H62  153   2.233   2.315   5.821
    1LIG    H63  154   2.316   2.472   5.821
    1LIG    H64  155   2.234   2.315   6.066
    1LIG    H65  156   2.317   2.472   6.066
    1LIG    H66  157   2.511   2.370   6.189
    1LIG    H67  158   2.428   2.213   6.189
    1LIG    H68  159   2.511   2.370   6.434
    1LIG    H69  160   2.428   2.213   6.434
    1LIG    H70  161   2.234   2.315   6.558
    1LIG    H71  162   2.317   2.472   6.557
    1LIG    H72  163   2.234   2.316   6.802
    1LIG    H73  164   2.317   2.473   6.802
    1LIG    H74  165   2.511   2.370   6.926
    1LIG    H75  166   2.428   2.214   6.926
    1LIG    H76  167   2.512   2.371   7.170
    1LIG    H77  168   2.429   2.214   7.171
    1LIG    H78  169   2.236   2.316   7.294
    1LIG    H79  170   2.318   2.473   7.294
    1LIG    H80  171   2.235   2.317   7.539
    1LIG    H81  172   2.317   2.474   7.539
    1LIG    H82  173   2.512   2.372   7.662
    1LIG    H83  174   2.429   2.215   7.663
    1LIG    H84  175   2.513   2.372   7.907
    1LIG    H85  176   2.430   2.215   7.907
    1LIG    H86  177   2.236   2.317   8.030
    1LIG    H87  178   2.318   2.474   8.029
    1LIG    H88  179   2.236   2.318   8.276
    1LIG    H89  180   2.318   2.475   8.275
    1LIG    H90  181   2.513   2.373   8.397
    1LIG    H91  182   2.431   2.216   8.398
    1LIG    H92  183   2.513   2.373   8.644
    1LIG    H93  184   2.431   2.216   8.644
    1LIG    H94  185   2.236   2.319   8.766
    1LIG    H95  186   2.318   2.476   8.766
    1LIG    H96  187   2.237   2.319   9.012
    1LIG    H97  188   2.319   2.476   9.011
    1LIG    H98  189   2.514   2.374   9.133
    1LIG    H99  190   2.432   2.217   9.134
    1LIG   H100  191   2.514   2.374   9.379
    1LIG   H101  192   2.432   2.217   9.380
    1LIG   H102  193   2.237   2.319   9.502
    1LIG   H103  194   2.319   2.477   9.501
    1LIG   H104  195   2.238   2.320   9.747
    1LIG   H105  196   2.320   2.477   9.747
    1LIG   H106  197   2.515   2.375   9.869
    1LIG   H107  198   2.433   2.218   9.869
    1LIG   H108  199   2.515   2.376  10.114
    1LIG   H109  200   2.432   2.219  10.115
    1LIG   H110  201   2.238   2.321  10.238
    1LIG   H111  202   2.320   2.478  10.238
    1LIG   H112  203   2.238   2.321  10.484
    1LIG   H113  204   2.320   2.479  10.483
    1LIG   H114  205   2.515   2.378  10.607
    1LIG   H115  206   2.433   2.221  10.608
    1LIG   H116  207   2.516   2.379  10.852
    1LIG   H117  208   2.433   2.221  10.853
    1LIG   H118  209   2.322   2.479  10.978
    1LIG   H119  210   2.392   2.344  11.073
    1LIG      O  211   2.111   2.116   0.053
    1LIG      C  212   2.176   2.166   0.173
    1LIG     C1  213   2.106   2.113   0.301
    1LIG     O1  214   2.169   2.162   0.423
    1LIG     C2  215   2.104   2.113   0.544
    1LIG     C3  216   2.176   2.169   0.670
    1LIG     O2  217   2.111   2.121   0.791
    1LIG     C4  218   2.175   2.170   0.912
    1LIG     C5  219   2.102   2.116   1.038
    1LIG     O3  220   2.166   2.166   1.160
    1LIG     C6  221   2.101   2.117   1.280
    1LIG     C7  222   2.172   2.173   1.406
    1LIG     O4  223   2.109   2.125   1.528
    1LIG     C8  224   2.172   2.174   1.649
    1LIG     C9  225   2.099   2.119   1.774
    1LIG     O5  226   2.163   2.168   1.895
    1LIG    C10  227   2.099   2.120   2.016
    1LIG    C11  228   2.171   2.175   2.141
    1LIG     O6  229   2.107   2.126   2.263
    1LIG    C12  230   2.170   2.175   2.384
    1LIG    C13  231   2.098   2.120   2.509
    1LIG     O7  232   2.162   2.169   2.630
    1LIG    C14  233   2.098   2.121   2.752
    1LIG    C15  234   2.169   2.176   2.878
    1LIG     O8  235   2.105   2.127   3.000
    1LIG    C16  236   2.170   2.177   3.121
    1LIG    C17  237   2.098   2.122   3.247
    1LIG     O9  238   2.161   2.171   3.369
    1LIG    C18  239   2.097   2.121   3.489
    1LIG    C19  240   2.168   2.177   3.614
    1LIG    O10  241   2.105   2.128   3.736
    1LIG    C20  242   2.169   2.177   3.857
    1LIG    C21  243   2.097   2.122   3.982
    1LIG    O11  244   2.160   2.171   4.103
    1LIG    C22  245   2.097   2.122   4.224
    1LIG    C23  246   2.169   2.178   4.350
    1LIG    O12  247   2.104   2.128   4.471
    1LIG    C24  248   2.168   2.177   4.593
    1LIG    C25  249   2.096   2.123   4.719
    1LIG    O13  250   2.160   2.172   4.840
    1LIG    C26  251   2.096   2.122   4.961
    1LIG    C27  252   2.168   2.178   5.086
    1LIG    O14  253   2.104   2.128   5.208
    1LIG    C28  254   2.168   2.177   5.329
    1LIG    C29  255   2.097   2.122   5.455
    1LIG    O15  256   2.160   2.171   5.577
    1LIG    C30  257   2.096   2.122   5.697
    1LIG    C31  258   2.169   2.177   5.822
    1LIG    O16  259   2.105   2.128   5.943
    1LIG    C32  260   2.168   2.177   6.065
    1LIG    C33  261   2.097   2.121   6.190
    1LIG    O17  262   2.161   2.170   6.312
    1LIG    C34  263   2.097   2.121   6.433
    1LIG    C35  264   2.168   2.176   6.559
    1LIG    O18  265   2.104   2.127   6.680
    1LIG    C36  266   2.169   2.176   6.801
    1LIG    C37  267   2.097   2.121   6.927
    1LIG    O19  268   2.162   2.170   7.049
    1LIG    C38  269   2.097   2.120   7.169
    1LIG    C39  270   2.169   2.174   7.295
    1LIG    O20  271   2.105   2.125   7.417
    1LIG    C40  272   2.169   2.175   7.538
    1LIG    C41  273   2.098   2.119   7.664
    1LIG    O21  274   2.162   2.168   7.785
    1LIG    C42  275   2.098   2.118   7.906
    1LIG    C43  276   2.170   2.174   8.031
    1LIG    O22  277   2.107   2.125   8.153
    1LIG    C44  278   2.170   2.174   8.274
    1LIG    C45  279   2.098   2.118   8.399
    1LIG    O23  280   2.162   2.167   8.521
    1LIG    C46  281   2.099   2.117   8.642
    1LIG    C47  282   2.171   2.173   8.767
    1LIG    O24  283   2.107   2.124   8.888
    1LIG    C48  284   2.171   2.172   9.010
    1LIG    C49  285   2.099   2.116   9.135
    1LIG    O25  286   2.162   2.166   9.256
    1LIG    C50  287   2.099   2.116   9.378
    1LIG    C51  288   2.172   2.172   9.503
    1LIG    O26  289   2.108   2.122   9.624
    1LIG    C52  290   2.171   2.171   9.745
    1LIG    C53  291   2.100   2.115   9.870
    1LIG    O27  292   2.164   2.164   9.991
    1LIG    C54  293   2.101   2.115  10.113
    1LIG    C55  294   2.172   2.170  10.240
    1LIG    O28  295   2.109   2.120  10.361
    1LIG    C56  296   2.173   2.170  10.482
    1LIG    C57  297   2.102   2.114  10.609
    1LIG    O29  298   2.165   2.163  10.731
    1LIG    C58  299   2.101   2.113  10.852
    1LIG    C59  300   2.172   2.167  10.978
    1LIG      H  301   2.174   2.275   0.171
    1LIG     H1  302   2.281   2.135   0.172
    1LIG     H2  303   2.108   2.003   0.301
    1LIG     H3  304   2.001   2.144   0.300
    1LIG     H4  305   2.107   2.004   0.546
    1LIG     H5  306   1.999   2.145   0.545
    1LIG     H6  307   2.173   2.279   0.667
    1LIG     H7  308   2.281   2.138   0.669
    1LIG     H8  309   2.172   2.280   0.913
    1LIG     H9  310   2.280   2.139   0.914
    1LIG    H10  311   2.105   2.006   1.037
    1LIG    H11  312   1.997   2.147   1.036
    1LIG    H12  313   2.104   2.007   1.282
    1LIG    H13  314   1.996   2.148   1.281
    1LIG    H14  315   2.170   2.282   1.404
    1LIG    H15  316   2.278   2.142   1.405
    1LIG    H16  317   2.169   2.284   1.650
    1LIG    H17  318   2.277   2.143   1.651
    1LIG    H18  319   2.102   2.009   1.772
    1LIG    H19  320   1.994   2.150   1.772
    1LIG    H20  321   2.102   2.010   2.018
    1LIG    H21  322   1.994   2.151   2.018
    1LIG    H22  323   2.168   2.285   2.140
    1LIG    H23  324   2.276   2.144   2.140
    1LIG    H24  325   2.168   2.285   2.385
    1LIG    H25  326   2.276   2.144   2.386
    1LIG    H26  327   2.101   2.011   2.508
    1LIG    H27  328   1.993   2.151   2.508
    1LIG    H28  329   2.101   2.011   2.754
    1LIG    H29  330   1.993   2.152   2.753
    1LIG    H30  331   2.166   2.285   2.877
    1LIG    H31  332   2.274   2.145   2.877
    1LIG    H32  333   2.167   2.286   3.122
    1LIG    H33  334   2.275   2.146   3.122
    1LIG    H34  335   2.101   2.012   3.245
    1LIG    H35  336   1.993   2.153   3.245
    1LIG    H36  337   2.100   2.012   3.490
    1LIG    H37  338   1.991   2.152   3.490
    1LIG    H38  339   2.166   2.286   3.613
    1LIG    H39  340   2.274   2.146   3.613
    1LIG    H40  341   2.166   2.287   3.858
    1LIG    H41  342   2.274   2.146   3.858
    1LIG    H42  343   2.100   2.012   3.980
    1LIG    H43  344   1.992   2.153   3.980
    1LIG    H44  345   2.099   2.012   4.226
    1LIG    H45  346   1.991   2.153   4.226
    1LIG    H46  347   2.166   2.287   4.348
    1LIG    H47  348   2.274   2.146   4.348
    1LIG    H48  349   2.165   2.287   4.594
    1LIG    H49  350   2.273   2.146   4.594
    1LIG    H50  351   2.099   2.013   4.717
    1LIG    H51  352   1.991   2.153   4.717
    1LIG    H52  353   2.098   2.013   4.963
    1LIG    H53  354   1.990   2.153   4.963
    1LIG    H54  355   2.165   2.287   5.085
    1LIG    H55  356   2.273   2.147   5.085
    1LIG    H56  357   2.165   2.287   5.331
    1LIG    H57  358   2.273   2.146   5.330
    1LIG    H58  359   2.100   2.012   5.453
    1LIG    H59  360   1.991   2.153   5.454
    1LIG    H60  361   2.099   2.012   5.699
    1LIG    H61  362   1.991   2.152   5.699
    1LIG    H62  363   2.166   2.287   5.821
    1LIG    H63  364   2.274   2.146   5.821
    1LIG    H64  365   2.165   2.286   6.066
    1LIG    H65  366   2.273   2.146   6.066
    1LIG    H66  367   2.100   2.012   6.189
    1LIG    H67  368   1.991   2.152   6.189
    1LIG    H68  369   2.100   2.011   6.434
    1LIG    H69  370   1.991   2.152   6.434
    1LIG    H70  371   2.165   2.286   6.558
    1LIG    H71  372   2.273   2.145   6.557
    1LIG    H72  373   2.166   2.286   6.802
    1LIG    H73  374   2.274   2.145   6.802
    1LIG    H74  375   2.100   2.011   6.926
    1LIG    H75  376   1.992   2.152   6.926
    1LIG    H76  377   2.101   2.010   7.170
    1LIG    H77  378   1.992   2.150   7.171
    1LIG    H78  379   2.166   2.284   7.294
    1LIG    H79  380   2.274   2.144   7.294
    1LIG    H80  381   2.166   2.284   7.539
    1LIG    H81  382   2.275   2.144   7.539
    1LIG    H82  383   2.101   2.010   7.662
    1LIG    H83  384   1.993   2.150   7.663
    1LIG    H84  385   2.101   2.009   7.907
    1LIG    H85  386   1.992   2.149   7.907
    1LIG    H86  387   2.166   2.284   8.030
    1LIG    H87  388   2.275   2.144   8.029
    1LIG    H88  389   2.167   2.283   8.276
    1LIG    H89  390   2.276   2.143   8.275
    1LIG    H90  391   2.102   2.008   8.397
    1LIG    H91  392   1.993   2.148   8.398
    1LIG    H92  393   2.102   2.008   8.644
    1LIG    H93  394   1.993   2.148   8.644
    1LIG    H94  395   2.168   2.283   8.766
    1LIG    H95  396   2.276   2.143   8.766
    1LIG    H96  397   2.167   2.282   9.012
    1LIG    H97  398   2.276   2.142   9.011
    1LIG    H98  399   2.102   2.007   9.133
    1LIG    H99  400   1.993   2.147   9.134
    1LIG   H100  401   2.103   2.007   9.379
    1LIG   H101  402   1.994   2.147   9.380
    1LIG   H102  403   2.168   2.282   9.502
    1LIG   H103  404   2.277   2.142   9.501
    1LIG   H104  405   2.168   2.281   9.747
    1LIG   H105  406   2.277   2.141   9.747
    1LIG   H106  407   2.103   2.005   9.869
    1LIG   H107  408   1.994   2.146   9.869
    1LIG   H108  409   2.104   2.005  10.114
    1LIG   H109  410   1.995   2.145  10.115
    1LIG   H110  411   2.169   2.280  10.238
    1LIG   H111  412   2.277   2.140  10.238
    1LIG   H112  413   2.169   2.279  10.484
    1LIG   H113  414   2.278   2.139  10.483
    1LIG   H114  415   2.105   2.004  10.607
    1LIG   H115  416   1.996   2.144  10.608
    1LIG   H116  417   2.106   2.003  10.852
    1LIG   H117  418   1.996   2.144  10.853
    1LIG   H118  419   2.278   2.137  10.978
    1LIG   H119  420   2.125   2.130  11.073
    1MOL     C1  421   1.565   2.453   4.964
    1MOL     H1  422   1.460   2.423   4.972
    1MOL     O1  423   1.597   2.513   5.088
    1MOL     C2  424   1.731   2.566   5.097
    1MOL     H2  425   1.803   2.484   5.085
    1MOL     C3  426   1.748   2.623   5.237
    1MOL     H3  427   1.855   2.644   5.252
    1MOL     H4  428   1.717   2.546   5.310
    1MOL     O2  429   1.670   2.741   5.250
    1MOL     H5  430   1.694   2.783   5.334
    1MOL     C4  431   1.583   2.554   4.849
    1MOL     H6  432   1.515   2.637   4.868
    1MOL     O3  433   1.549   2.503   4.722
    1MOL     H7  434   1.582   2.410   4.713
    1MOL     C5  435   1.726   2.609   4.851
    1MOL     H8  436   1.797   2.527   4.832
    1MOL     O4  437   1.740   2.708   4.750
    1MOL     H9  438   1.693   2.674   4.672
    1MOL     C6  439   1.755   2.670   4.986
    1MOL    H10  440   1.688   2.755   5.002
    1MOL     O5  441   1.891   2.714   4.987
    1MOL     C7  442   1.920   2.841   5.043
    1MOL    H11  443   1.830   2.883   5.090
    1MOL     O6  444   2.014   2.829   5.147
    1MOL     C8  445   2.143   2.778   5.107
    1MOL    H12  446   2.128   2.679   5.061
    1MOL     C9  447   2.229   2.759   5.234
    1MOL    H13  448   2.301   2.679   5.214
    1MOL    H14  449   2.162   2.725   5.314
    1MOL     O7  450   2.294   2.876   5.279
    1MOL    H15  451   2.381   2.879   5.236
    1MOL    C10  452   1.973   2.933   4.932
    1MOL    H16  453   1.985   3.034   4.974
    1MOL     O8  454   1.884   2.947   4.822
    1MOL    H17  455   1.852   2.859   4.795
    1MOL    C11  456   2.111   2.886   4.885
    1MOL    H18  457   2.101   2.786   4.838
    1MOL     O9  458   2.167   2.978   4.792
    1MOL    H19  459   2.095   3.001   4.731
    1MOL    C12  460   2.204   2.874   5.005
    1MOL    H20  461   2.214   2.972   5.053
    1MOL    O10  462   2.332   2.830   4.959
    1MOL    C13  463   2.443   2.911   4.986
    1MOL    H21  464   2.412   3.011   5.018
    1MOL    O11  465   2.520   2.859   5.094
    1MOL    C14  466   2.575   2.727   5.070
    1MOL    H22  467   2.492   2.659   5.048
    1MOL    C15  468   2.644   2.680   5.199
    1MOL    H23  469   2.637   2.570   5.203
    1MOL    H24  470   2.586   2.718   5.284
    1MOL    O12  471   2.777   2.723   5.214
    1MOL    H25  472   2.834   2.653   5.179
    1MOL    C16  473   2.528   2.920   4.859
    1MOL    H26  474   2.610   2.991   4.878
    1MOL    O13  475   2.457   2.970   4.747
    1MOL    H27  476   2.362   2.949   4.757
    1MOL    C17  477   2.590   2.784   4.828
    1MOL    H28  478   2.510   2.712   4.805
    1MOL    O14  479   2.679   2.793   4.717
    1MOL    H29  480   2.632   2.844   4.648
    1MOL    C18  481   2.668   2.735   4.949
    1MOL    H30  482   2.749   2.806   4.972
    1MOL    O15  483   2.724   2.607   4.917
    1MOL    C19  484   2.863   2.588   4.932
    1MOL    H31  485   2.913   2.684   4.946
    1MOL    O16  486   2.893   2.513   5.048
    1MOL    C20  487   2.836   2.379   5.049
    1MOL    H32  488   2.727   2.389   5.038
    1MOL    C21  489   2.865   2.314   5.185
    1MOL    H33  490   2.783   2.245   5.208
    1MOL    H34  491   2.864   2.393   5.261
    1MOL    O17  492   2.990   2.249   5.193
    1MOL    H35  493   2.974   2.155   5.172
    1MOL    C22  494   2.914   2.518   4.806
    1MOL    H36  495   3.024   2.511   4.814
    1MOL    O18  496   2.887   2.588   4.687
    1MOL    H37  497   2.803   2.638   4.697
    1MOL    C23  498   2.859   2.375   4.800
    1MOL    H38  499   2.749   2.380   4.789
    1MOL    O19  500   2.916   2.304   4.691
    1MOL    H39  501   2.911   2.364   4.614
    1MOL    C24  502   2.892   2.302   4.929
    1MOL    H40  503   3.001   2.295   4.941
    1MOL    O20  504   2.836   2.171   4.922
    1MOL    C25  505   2.921   2.060   4.940
    1MOL    H41  506   3.026   2.091   4.938
    1MOL    O21  507   2.901   2.000   5.067
    1MOL    C26  508   2.768   1.948   5.089
    1MOL    H42  509   2.696   2.031   5.083
    1MOL    C27  510   2.762   1.892   5.230
    1MOL    H43  511   2.656   1.871   5.254
    1MOL    H44  512   2.800   1.968   5.300
    1MOL    O22  513   2.840   1.773   5.236
    1MOL    H45  514   2.831   1.735   5.325
    1MOL    C28  515   2.893   1.959   4.828
    1MOL    H46  516   2.962   1.875   4.840
    1MOL    O23  517   2.914   2.012   4.698
    1MOL    H47  518   2.891   2.107   4.697
    1MOL    C29  519   2.750   1.905   4.842
    1MOL    H48  520   2.679   1.988   4.829
    1MOL    O24  521   2.726   1.805   4.744
    1MOL    H49  522   2.764   1.839   4.661
    1MOL    C30  523   2.731   1.845   4.981
    1MOL    H50  524   2.796   1.757   4.991
    1MOL    O25  525   2.594   1.808   4.993
    1MOL    C31  526   2.563   1.683   5.055
    1MOL    H51  527   2.651   1.644   5.106
    1MOL    O26  528   2.466   1.702   5.155
    1MOL    C32  529   2.338   1.753   5.108
    1MOL    H52  530   2.356   1.849   5.057
    1MOL    C33  531   2.250   1.778   5.230
    1MOL    H53  532   2.173   1.852   5.202
    1MOL    H54  533   2.313   1.823   5.307
    1MOL    O27  534   2.190   1.660   5.281
    1MOL    H55  535   2.093   1.672   5.274
    1MOL    C34  536   2.513   1.585   4.947
    1MOL    H56  537   2.499   1.487   4.995
    1MOL    O28  538   2.605   1.564   4.842
    1MOL    H57  539   2.633   1.650   4.805
    1MOL    C35  540   2.378   1.632   4.893
    1MOL    H58  541   2.392   1.728   4.842
    1MOL    O29  542   2.324   1.536   4.802
    1MOL    H59  543   2.399   1.508   4.747
    1MOL    C36  544   2.280   1.651   5.008
    1MOL    H60  545   2.265   1.557   5.062
    1MOL    O30  546   2.156   1.697   4.954
    1MOL    C37  547   2.048   1.605   4.957
    1MOL    H61  548   2.085   1.504   4.976
    1MOL    O31  549   1.958   1.633   5.062
    1MOL    C38  550   1.898   1.763   5.057
    1MOL    H62  551   1.976   1.841   5.054
    1MOL    C39  552   1.821   1.779   5.186
    1MOL    H63  553   1.753   1.694   5.199
    1MOL    H64  554   1.762   1.872   5.185
    1MOL    O32  555   1.919   1.782   5.291
    1MOL    H65  556   1.874   1.803   5.374
    1MOL    C40  557   1.974   1.611   4.823
    1MOL    H66  558   1.896   1.534   4.826
    1MOL    O33  559   2.056   1.587   4.710
    1MOL    H67  560   2.150   1.587   4.736
    1MOL    C41  561   1.905   1.747   4.809
    1MOL    H68  562   1.982   1.826   4.805
    1MOL    O34  563   1.827   1.751   4.690
    1MOL    H69  564   1.884   1.717   4.619
    1MOL    C42  565   1.814   1.774   4.928
    1MOL    H70  566   1.733   1.700   4.930
    1MOL    O35  567   1.759   1.905   4.912
    1MOL    C43  568   1.619   1.922   4.916
    1MOL    H71  569   1.569   1.825   4.919
    1MOL    O36  570   1.578   1.988   5.034
    1MOL    C44  571   1.630   2.122   5.051
    1MOL    H72  572   1.740   2.119   5.053
    1MOL    C45  573   1.580   2.171   5.185
    1MOL    H73  574   1.472   2.151   5.192
    1MOL    H74  575   1.596   2.279   5.193
    1MOL    O37  576   1.652   2.101   5.287
    1MOL    H75  577   1.615   2.127   5.372
    1MOL    C46  578   1.576   2.002   4.793
    1MOL    H76  579   1.466   2.007   4.793
    1MOL    O38  580   1.613   1.942   4.670
    1MOL    H77  581   1.698   1.895   4.680
    1MOL    C47  582   1.630   2.145   4.802
    1MOL    H78  583   1.740   2.142   4.800
    1MOL    O39  584   1.582   2.222   4.692
    1MOL    H79  585   1.593   2.165   4.614
    1MOL    C48  586   1.586   2.210   4.932
    1MOL    H80  587   1.476   2.220   4.932
    1MOL    O40  588   1.646   2.340   4.939
    1MOL     C1  589   1.565   2.453   6.104
    1MOL     H1  590   1.460   2.423   6.112
    1MOL     O1  591   1.597   2.513   6.228
    1MOL     C2  592   1.731   2.566   6.237
    1MOL     H2  593   1.803   2.484   6.225
    1MOL     C3  594   1.748   2.623   6.377
    1MOL     H3  595   1.855   2.644   6.392
    1MOL     H4  596   1.717   2.546   6.450
    1MOL     O2  597   1.670   2.741   6.390
    1MOL     H5  598   1.694   2.783   6.474
    1MOL     C4  599   1.583   2.554   5.989
    1MOL     H6  600   1.515   2.637   6.008
    1MOL     O3  601   1.549   2.503   5.862
    1MOL     H7  602   1.582   2.410   5.853
    1MOL     C5  603   1.726   2.609   5.991
    1MOL     H8  604   1.797   2.527   5.972
    1MOL     O4  605   1.740   2.708   5.890
    1MOL     H9  606   1.693   2.674   5.812
    1MOL     C6  607   1.755   2.670   6.126
    1MOL    H10  608   1.688   2.755   6.142
    1MOL     O5  609   1.891   2.714   6.127
    1MOL     C7  610   1.920   2.841   6.183
    1MOL    H11  611   1.830   2.883   6.230
    1MOL     O6  612   2.014   2.829   6.287
    1MOL     C8  613   2.143   2.778   6.247
    1MOL    H12  614   2.128   2.679   6.201
    1MOL     C9  615   2.229   2.759   6.374
    1MOL    H13  616   2.301   2.679   6.354
    1MOL    H14  617   2.162   2.725   6.454
    1MOL     O7  618   2.294   2.876   6.419
    1MOL    H15  619   2.381   2.879   6.376
    1MOL    C10  620   1.973   2.933   6.072
    1MOL    H16  621   1.985   3.034   6.114
    1MOL     O8  622   1.884   2.947   5.962
    1MOL    H17  623   1.852   2.859   5.935
    1MOL    C11  624   2.111   2.886   6.025
    1MOL    H18  625   2.101   2.786   5.978
    1MOL     O9  626   2.167   2.978   5.932
    1MOL    H19  627   2.095   3.001   5.871
    1MOL    C12  628   2.204   2.874   6.145
    1MOL    H20  629   2.214   2.972   6.193
    1MOL    O10  630   2.332   2.830   6.099
    1MOL    C13  631   2.443   2.911   6.126
    1MOL    H21  632   2.412   3.011   6.158
    1MOL    O11  633   2.520   2.859   6.234
    1MOL    C14  634   2.575   2.727   6.210
    1MOL    H22  635   2.492   2.659   6.188
    1MOL    C15  636   2.644   2.680   6.339
    1MOL    H23  637   2.637   2.570   6.343
    1MOL    H24  638   2.586   2.718   6.424
    1MOL    O12  639   2.777   2.723   6.354
    1MOL    H25  640   2.834   2.653   6.319
    1MOL    C16  641   2.528   2.920   5.999
    1MOL    H26  642   2.610   2.991   6.018
    1MOL    O13  643   2.457   2.970   5.887
    1MOL    H27  644   2.362   2.949   5.897
    1MOL    C17  645   2.590   2.784   5.968
    1MOL    H28  646   2.510   2.712   5.945
    1MOL    O14  647   2.679   2.793   5.857
    1MOL    H29  648   2.632   2.844   5.788
    1MOL    C18  649   2.668   2.735   6.089
    1MOL    H30  650   2.749   2.806   6.112
    1MOL    O15  651   2.724   2.607   6.057
    1MOL    C19  652   2.863   2.588   6.072
    1MOL    H31  653   2.913   2.684   6.086
    1MOL    O16  654   2.893   2.513   6.188
    1MOL    C20  655   2.836   2.379   6.189
    1MOL    H32  656   2.727   2.389   6.178
    1MOL    C21  657   2.865   2.314   6.325
    1MOL    H33  658   2.783   2.245   6.348
    1MOL    H34  659   2.864   2.393   6.401
    1MOL    O17  660   2.990   2.249   6.333
    1MOL    H35  661   2.974   2.155   6.312
    1MOL    C22  662   2.914   2.518   5.946
    1MOL    H36  663   3.024   2.511   5.954
    1MOL    O18  664   2.887   2.588   5.827
    1MOL    H37  665   2.803   2.638   5.837
    1MOL    C23  666   2.859   2.375   5.940
    1MOL    H38  667   2.749   2.380   5.929
    1MOL    O19  668   2.916   2.304   5.831
    1MOL    H39  669   2.911   2.364   5.754
    1MOL    C24  670   2.892   2.302   6.069
    1MOL    H40  671   3.001   2.295   6.081
    1MOL    O20  672   2.836   2.171   6.062
    1MOL    C25  673   2.921   2.060   6.080
    1MOL    H41  674   3.026   2.091   6.078
    1MOL    O21  675   2.901   2.000   6.207
    1MOL    C26  676   2.768   1.948   6.229
    1MOL    H42  677   2.696   2.031   6.223
    1MOL    C27  678   2.762   1.892   6.370
    1MOL    H43  679   2.656   1.871   6.394
    1MOL    H44  680   2.800   1.968   6.440
    1MOL    O22  681   2.840   1.773   6.376
    1MOL    H45  682   2.831   1.735   6.465
    1MOL    C28  683   2.893   1.959   5.968
    1MOL    H46  684   2.962   1.875   5.980
    1MOL    O23  685   2.914   2.012   5.838
    1MOL    H47  686   2.891   2.107   5.837
    1MOL    C29  687   2.750   1.905   5.982
    1MOL    H48  688   2.679   1.988   5.969
    1MOL    O24  689   2.726   1.805   5.884
    1MOL    H49  690   2.764   1.839   5.801
    1MOL    C30  691   2.731   1.845   6.121
    1MOL    H50  692   2.796   1.757   6.131
    1MOL    O25  693   2.594   1.808   6.133
    1MOL    C31  694   2.563   1.683   6.195
    1MOL    H51  695   2.651   1.644   6.246
    1MOL    O26  696   2.466   1.702   6.295
    1MOL    C32  697   2.338   1.753   6.248
    1MOL    H52  698   2.356   1.849   6.197
    1MOL    C33  699   2.250   1.778   6.370
    1MOL    H53  700   2.173   1.852   6.342
    1MOL    H54  701   2.313   1.823   6.447
    1MOL    O27  702   2.190   1.660   6.421
    1MOL    H55  703   2.093   1.672   6.414
    1MOL    C34  704   2.513   1.585   6.087
    1MOL    H56  705   2.499   1.487   6.135
    1MOL    O28  706   2.605   1.564   5.982
    1MOL    H57  707   2.633   1.650   5.945
    1MOL    C35  708   2.378   1.632   6.033
    1MOL    H58  709   2.392   1.728   5.982
    1MOL    O29  710   2.324   1.536   5.942
    1MOL    H59  711   2.399   1.508   5.887
    1MOL    C36  712   2.280   1.651   6.148
    1MOL    H60  713   2.265   1.557   6.202
    1MOL    O30  714   2.156   1.697   6.094
    1MOL    C37  715   2.048   1.605   6.097
    1MOL    H61  716   2.085   1.504   6.116
    1MOL    O31  717   1.958   1.633   6.202
    1MOL    C38  718   1.898   1.763   6.197
    1MOL    H62  719   1.976   1.841   6.194
    1MOL    C39  720   1.821   1.779   6.326
    1MOL    H63  721   1.753   1.694   6.339
    1MOL    H64  722   1.762   1.872   6.325
    1MOL    O32  723   1.919   1.782   6.431
    1MOL    H65  724   1.874   1.803   6.514
    1MOL    C40  725   1.974   1.611   5.963
    1MOL    H66  726   1.896   1.534   5.966
    1MOL    O33  727   2.056   1.587   5.850
    1MOL    H67  728   2.150   1.587   5.876
    1MOL    C41  729   1.905   1.747   5.949
    1MOL    H68  730   1.982   1.826   5.945
    1MOL    O34  731   1.827   1.751   5.830
    1MOL    H69  732   1.884   1.717   5.759
    1MOL    C42  733   1.814   1.774   6.068
    1MOL    H70  734   1.733   1.700   6.070
    1MOL    O35  735   1.759   1.905   6.052
    1MOL    C43  736   1.619   1.922   6.056
    1MOL    H71  737   1.569   1.825   6.059
    1MOL    O36  738   1.578   1.988   6.174
    1MOL    C44  739   1.630   2.122   6.191
    1MOL    H72  740   1.740   2.119   6.193
    1MOL    C45  741   1.580   2.171   6.325
    1MOL    H73  742   1.472   2.151   6.332
    1MOL    H74  743   1.596   2.279   6.333
    1MOL    O37  744   1.652   2.101   6.427
    1MOL    H75  745   1.615   2.127   6.512
    1MOL    C46  746   1.576   2.002   5.933
    1MOL    H76  747   1.466   2.007   5.933
    1MOL    O38  748   1.613   1.942   5.810
    1MOL    H77  749   1.698   1.895   5.820
    1MOL    C47  750   1.630   2.145   5.942
    1MOL    H78  751   1.740   2.142   5.940
    1MOL    O39  752   1.582   2.222   5.832
    1MOL    H79  753   1.593   2.165   5.754
    1MOL    C48  754   1.586   2.210   6.072
    1MOL    H80  755   1.476   2.220   6.072
    1MOL    O40  756   1.646   2.340   6.079
    2SOL     OW  757   0.230   0.628   0.113
    2SOL    HW1  758   0.137   0.626   0.150
    2SOL    HW2  759   0.231   0.589   0.021
    3SOL     OW  760   0.225   0.275   0.996
    3SOL    HW1  761   0.260   0.258   1.088
    3SOL    HW2  762   0.137   0.230   0.984
    4SOL     OW  763   0.019   0.368   0.647
    4SOL    HW1  764  -0.063   0.411   0.686
    4SOL    HW2  765  -0.009   0.295   0.584
    5SOL     OW  766   0.569   1.275   1.165
    5SOL    HW1  767   0.476   1.268   1.128
    5SOL    HW2  768   0.580   1.364   1.209
    6SOL     OW  769   1.555   1.511   0.703
    6SOL    HW1  770   1.498   1.495   0.784
    6SOL    HW2  771   1.496   1.521   0.623
    7SOL     OW  772   1.135   0.703   0.717
    7SOL    HW1  773   1.192   0.781   0.692
    7SOL    HW2  774   1.075   0.729   0.793
    8SOL     OW  775   1.755   0.607   0.231
    8SOL    HW1  776   1.743   0.594   0.132
    8SOL    HW2  777   1.725   0.526   0.280
    9SOL     OW  778   0.768   1.144   1.023
    9SOL    HW1  779   0.690   1.161   1.083
    9SOL    HW2  780   0.802   1.231   0.987
   10SOL     OW  781   0.850   0.798   1.823
   10SOL    HW1  782   0.846   0.874   1.888
   10SOL    HW2  783   0.872   0.834   1.732
   11SOL     OW  784   0.685   1.012   0.665
   11SOL    HW1  785   0.754   0.996   0.735
   11SOL    HW2  786   0.612   1.069   0.703
   12SOL     OW  787   0.686   1.161   1.803
   12SOL    HW1  788   0.746   1.240   1.817
   12SOL    HW2  789   0.600   1.192   1.762
   13SOL     OW  790   0.335   1.435   1.061
   13SOL    HW1  791   0.257   1.404   1.008
   13SOL    HW2  792   0.393   1.493   1.004
   14SOL     OW  793   1.460   1.505   1.339
   14SOL    HW1  794   1.484   1.599   1.365
   14SOL    HW2  795   1.444   1.451   1.421
   15SOL     OW  796   0.438   0.392   1.499
   15SOL    HW1  797   0.520   0.336   1.508
   15SOL    HW2  798   0.357   0.334   1.503
   16SOL     OW  799   1.603   0.447   0.737
   16SOL    HW1  800   1.529   0.493   0.687
   16SOL    HW2  801   1.654   0.515   0.790
   17SOL     OW  802   0.231   1.713   0.483
   17SOL    HW1  803   0.265   1.790   0.537
   17SOL    HW2  804   0.275   1.713   0.393
   18SOL     OW  805   1.127   1.341   1.690
   18SOL    HW1  806   1.174   1.341   1.778
   18SOL    HW2  807   1.079   1.254   1.679
   19SOL     OW  808   0.230   1.434   0.538
   19SOL    HW1  809   0.204   1.530   0.538
   19SOL    HW2  810   0.159   1.380   0.583
   20SOL     OW  811   0.240   1.091   0.886
   20SOL    HW1  812   0.254   1.007   0.938
   20SOL    HW2  813   0.185   1.155   0.941
   21SOL     OW  814   0.620   1.786   1.439
   21SOL    HW1  815   0.528   1.769   1.474
   21SOL    HW2  816   0.648   1.878   1.465
   22SOL     OW  817   0.606   0.964   0.123
   22SOL    HW1  818   0.613   1.048   0.069
   22SOL    HW2  819   0.652   0.977   0.211
   23SOL     OW  820   1.594   0.114   1.480
   23SOL    HW1  821   1.576   0.181   1.408
   23SOL    HW2  822   1.591   0.160   1.569
   24SOL     OW  823   0.122   0.643   0.563
   24SOL    HW1  824   0.077   0.555   0.580
   24SOL    HW2  825   0.121   0.697   0.647
   25SOL     OW  826   1.842   1.767   0.359
   25SOL    HW1  827   1.896   1.738   0.439
   25SOL    HW2  828   1.872   1.857   0.330
   26SOL     OW  829   0.027   1.596   0.117
   26SOL    HW1  830   0.008   1.500   0.138
   26SOL    HW2  831  -0.006   1.654   0.192
   27SOL     OW  832   1.689   0.922   0.612
   27SOL    HW1  833   1.784   0.893   0.620
   27SOL    HW2  834   1.681   0.987   0.537
   28SOL     OW  835   1.641   1.108   0.432
   28SOL    HW1  836   1.727   1.110   0.380
   28SOL    HW2  837   1.655   1.155   0.520
   29SOL     OW  838   0.113   0.737   1.597
   29SOL    HW1  839   0.201   0.724   1.642
   29SOL    HW2  840   0.100   0.834   1.575
   30SOL     OW  841   0.613   1.365   0.726
   30SOL    HW1  842   0.564   1.278   0.735
   30SOL    HW2  843   0.590   1.408   0.639
   31SOL     OW  844   1.293   1.228   1.423
   31SOL    HW1  845   1.330   1.155   1.365
   31SOL    HW2  846   1.345   1.233   1.508
   32SOL     OW  847   0.809   0.004   0.502
   32SOL    HW1  848   0.849   0.095   0.493
   32SOL    HW2  849   0.709   0.012   0.508
   33SOL     OW  850   0.197   0.976   1.264
   33SOL    HW1  851   0.286   0.931   1.250
   33SOL    HW2  852   0.124   0.911   1.245
   34SOL     OW  853   1.525   0.999   0.190
   34SOL    HW1  854   1.462   0.923   0.203
   34SOL    HW2  855   1.573   1.017   0.276
   35SOL     OW  856   1.187   1.792   1.616
   35SOL    HW1  857   1.211   1.852   1.540
   35SOL    HW2  858   1.194   1.697   1.586
   36SOL     OW  859   0.317   0.251   1.801
   36SOL    HW1  860   0.388   0.322   1.807
   36SOL    HW2  861   0.229   0.290   1.829
   37SOL     OW  862   1.466   1.417   0.953
   37SOL    HW1  863   1.407   1.423   1.033
   37SOL    HW2  864   1.451   1.329   0.907
   38SOL     OW  865   1.667   1.714   0.572
   38SOL    HW1  866   1.626   1.691   0.484
   38SOL    HW2  867   1.649   1.640   0.637
   39SOL     OW  868   0.598   0.729   0.270
   39SOL    HW1  869   0.622   0.798   0.202
   39SOL    HW2  870   0.520   0.762   0.324
   40SOL     OW  871   1.281   0.345   0.944
   40SOL    HW1  872   1.195   0.295   0.931
   40SOL    HW2  873   1.343   0.291   1.000
   41SOL     OW  874   1.576   1.662   0.307
   41SOL    HW1  875   1.665   1.708   0.310
   41SOL    HW2  876   1.555   1.638   0.212
   42SOL     OW  877   0.807   0.605   1.465
   42SOL    HW1  878   0.760   0.602   1.554
   42SOL    HW2  879   0.756   0.550   1.399
   43SOL     OW  880   1.394   0.469   1.674
   43SOL    HW1  881   1.374   0.512   1.762
   43SOL    HW2  882   1.472   0.407   1.683
   44SOL     OW  883   0.973   0.890   1.572
   44SOL    HW1  884   1.019   0.806   1.543
   44SOL    HW2  885   0.917   0.924   1.497
   45SOL     OW  886   0.991   0.410   1.242
   45SOL    HW1  887   0.914   0.444   1.296
   45SOL    HW2  888   0.957   0.359   1.163
   46SOL     OW  889   1.041   0.701   0.429
   46SOL    HW1  890   1.067   0.697   0.525
   46SOL    HW2  891   0.956   0.650   0.415
   47SOL     OW  892   0.076   0.811   0.789
   47SOL    HW1  893   0.175   0.799   0.798
   47SOL    HW2  894   0.052   0.906   0.810
   48SOL     OW  895   0.130   1.821   1.571
   48SOL    HW1  896   0.120   1.806   1.670
   48SOL    HW2  897   0.044   1.857   1.535
   49SOL     OW  898   0.865   0.348   0.195
   49SOL    HW1  899   0.924   0.411   0.146
   49SOL    HW2  900   0.884   0.254   0.166
   50SOL     OW  901   1.719   0.585   1.831
   50SOL    HW1  902   1.693   0.674   1.795
   50SOL    HW2  903   1.717   0.517   1.758
   51SOL     OW  904   1.362   1.144   0.545
   51SOL    HW1  905   1.445   1.115   0.497
   51SOL    HW2  906   1.313   1.211   0.489
   52SOL     OW  907   0.550   0.196   0.885
   52SOL    HW1  908   0.545   0.191   0.985
   52SOL    HW2  909   0.552   0.292   0.856
   53SOL     OW  910   1.008   1.456   0.477
   53SOL    HW1  911   0.962   1.528   0.425
   53SOL    HW2  912   1.004   1.476   0.575
   54SOL     OW  913   0.351   1.801   0.853
   54SOL    HW1  914   0.401   1.715   0.859
   54SOL    HW2  915   0.416   1.878   0.850
   55SOL     OW  916   1.795   1.066   0.873
   55SOL    HW1  917   1.733   1.051   0.797
   55SOL    HW2  918   1.743   1.077   0.958
   56SOL     OW  919   1.227   1.550   1.506
   56SOL    HW1  920   1.233   1.473   1.570
   56SOL    HW2  921   1.175   1.524   1.426
   57SOL     OW  922   0.321   0.943   0.242
   57SOL    HW1  923   0.403   0.982   0.200
   57SOL    HW2  924   0.294   0.861   0.193
   58SOL     OW  925   1.458   0.735   0.728
   58SOL    HW1  926   1.453   0.670   0.803
   58SOL    HW2  927   1.538   0.794   0.741
   59SOL     OW  928   0.461   1.266   1.727
   59SOL    HW1  929   0.411   1.267   1.641
   59SOL    HW2  930   0.398   1.248   1.803
   60SOL     OW  931   1.111   1.776   0.237
   60SOL    HW1  932   1.051   1.714   0.287
   60SOL    HW2  933   1.142   1.732   0.152
   61SOL     OW  934   0.202   0.285   1.498
   61SOL    HW1  935   0.122   0.345   1.485
   61SOL    HW2  936   0.192   0.236   1.584
   62SOL     OW  937   1.632   1.377   0.081
   62SOL    HW1  938   1.600   1.471   0.071
   62SOL    HW2  939   1.556   1.314   0.069
   63SOL     OW  940   0.464   1.743   0.323
   63SOL    HW1  941   0.497   1.782   0.409
   63SOL    HW2  942   0.540   1.736   0.258
   64SOL     OW  943   1.400   0.107   0.426
   64SOL    HW1  944   1.376   0.070   0.336
   64SOL    HW2  945   1.499   0.123   0.430
   65SOL     OW  946   0.249   1.785   1.241
   65SOL    HW1  947   0.306   1.720   1.291
   65SOL    HW2  948   0.233   1.752   1.148
   66SOL     OW  949   0.940   1.698   0.904
   66SOL    HW1  950   1.020   1.641   0.925
   66SOL    HW2  951   0.891   1.658   0.827
   67SOL     OW  952   0.382   0.700   0.480
   67SOL    HW1  953   0.427   0.610   0.477
   67SOL    HW2  954   0.288   0.689   0.513
   68SOL     OW  955   1.547   0.222   1.729
   68SOL    HW1  956   1.542   0.259   1.821
   68SOL    HW2  957   1.475   0.153   1.717
   69SOL     OW  958   0.614   0.122   0.117
   69SOL    HW1  959   0.712   0.100   0.124
   69SOL    HW2  960   0.583   0.105   0.024
   70SOL     OW  961   0.781   0.264   1.749
   70SOL    HW1  962   0.848   0.203   1.792
   70SOL    HW2  963   0.708   0.283   1.814
   71SOL     OW  964   0.888   1.514   1.195
   71SOL    HW1  965   0.865   1.489   1.101
   71SOL    HW2  966   0.949   1.445   1.234
   72SOL     OW  967   1.351   0.590   1.433
   72SOL    HW1  968   1.379   0.547   1.518
   72SOL    HW2  969   1.376   0.686   1.434
   73SOL     OW  970   0.803   1.402   0.924
   73SOL    HW1  971   0.893   1.416   0.882
   73SOL    HW2  972   0.732   1.404   0.853
   74SOL     OW  973   0.922   0.503   0.899
   74SOL    HW1  974   0.897   0.494   0.803
   74SOL    HW2  975   0.970   0.421   0.930
   75SOL     OW  976   0.539   0.064   0.512
   75SOL    HW1  977   0.458   0.065   0.570
   75SOL    HW2  978   0.542   0.147   0.457
   76SOL     OW  979   1.434   1.188   0.041
   76SOL    HW1  980   1.466   1.112   0.098
   76SOL    HW2  981   1.342   1.215   0.071
   77SOL     OW  982   0.297   0.035   0.171
   77SOL    HW1  983   0.346   0.119   0.150
   77SOL    HW2  984   0.359  -0.030   0.216
   78SOL     OW  985   0.935   0.236   0.480
   78SOL    HW1  986   0.887   0.277   0.402
   78SOL    HW2  987   1.034   0.234   0.461
   79SOL     OW  988   1.076   0.683   1.464
   79SOL    HW1  989   0.996   0.622   1.467
   79SOL    HW2  990   1.157   0.630   1.440
   80SOL     OW  991   1.227   1.570   0.793
   80SOL    HW1  992   1.248   1.644   0.728
   80SOL    HW2  993   1.295   1.570   0.866
   81SOL     OW  994   0.459   1.152   0.741
   81SOL    HW1  995   0.388   1.125   0.806
   81SOL    HW2  996   0.433   1.124   0.648
   82SOL     OW  997   1.271   1.797   0.591
   82SOL    HW1  998   1.315   1.861   0.527
   82SOL    HW2  999   1.221   1.849   0.661
   83SOL     OW 1000   1.032   0.549   0.016
   83SOL    HW1 1001   0.991   0.631  -0.023
   83SOL    HW2 1002   1.096   0.575   0.089
   84SOL     OW 1003   0.078   0.556   1.386
   84SOL    HW1 1004   0.170   0.555   1.345
   84SOL    HW2 1005   0.072   0.630   1.453
   85SOL     OW 1006   0.561   0.222   1.147
   85SOL    HW1 1007   0.599   0.138   1.184
   85SOL    HW2 1008   0.473   0.241   1.191
   86SOL     OW 1009   0.866   0.454   0.642
   86SOL    HW1 1010   0.834   0.526   0.580
   86SOL    HW2 1011   0.890   0.373   0.589
   87SOL     OW 1012   1.017   0.039   0.753
   87SOL    HW1 1013   0.945   0.044   0.684
   87SOL    HW2 1014   0.993  -0.030   0.822
   88SOL     OW 1015   1.429   1.173   0.867
   88SOL    HW1 1016   1.374   1.089   0.860
   88SOL    HW2 1017   1.455   1.202   0.775
   89SOL     OW 1018   1.466   0.590   0.992
   89SOL    HW1 1019   1.436   0.495   0.999
   89SOL    HW2 1020   1.539   0.606   1.058
   90SOL     OW 1021   1.857   0.833   0.377
   90SOL    HW1 1022   1.899   0.769   0.441
   90SOL    HW2 1023   1.819   0.782   0.299
   91SOL     OW 1024   0.488   1.385   0.174
   91SOL    HW1 1025   0.401   1.370   0.221
   91SOL    HW2 1026   0.471   1.411   0.079
   92SOL     OW 1027   1.664   1.280   0.657
   92SOL    HW1 1028   1.763   1.288   0.671
   92SOL    HW2 1029   1.619   1.364   0.688
   93SOL     OW 1030   1.390   0.575   0.078
   93SOL    HW1 1031   1.336   0.554   0.159
   93SOL    HW2 1032   1.481   0.534   0.087
   94SOL     OW 1033   0.527   0.256   0.328
   94SOL    HW1 1034   0.554   0.197   0.253
   94SOL    HW2 1035   0.527   0.351   0.297
   95SOL     OW 1036   1.754   1.223   1.588
   95SOL    HW1 1037   1.845   1.184   1.575
   95SOL    HW2 1038   1.762   1.319   1.612
   96SOL     OW 1039   1.064   1.347   1.340
   96SOL    HW1 1040   0.984   1.324   1.395
   96SOL    HW2 1041   1.147   1.321   1.389
   97SOL     OW 1042   1.592   1.629   1.625
   97SOL    HW1 1043   1.619   1.663   1.535
   97SOL    HW2 1044   1.671   1.591   1.671
   98SOL     OW 1045   1.111   1.195   1.100
   98SOL    HW1 1046   1.071   1.239   1.181
   98SOL    HW2 1047   1.070   1.232   1.017
   99SOL     OW 1048   1.638   1.099   1.079
   99SOL    HW1 1049   1.643   1.180   1.138
   99SOL    HW2 1050   1.552   1.101   1.028
  100SOL     OW 1051   0.915   0.089   1.402
  100SOL    HW1 1052   0.940   0.069   1.307
  100SOL    HW2 1053   0.987   0.145   1.444
  101SOL     OW 1054   0.980   1.116   1.719
  101SOL    HW1 1055   0.881   1.122   1.729
  101SOL    HW2 1056   1.003   1.036   1.663
  102SOL     OW 1057   0.705   1.050   0.368
  102SOL    HW1 1058   0.691   1.057   0.467
  102SOL    HW2 1059   0.789   0.999   0.350
  103SOL     OW 1060   0.410   0.813   1.251
  103SOL    HW1 1061   0.496   0.825   1.301
  103SOL    HW2 1062   0.368   0.726   1.278
  104SOL     OW 1063   1.274   0.386   1.262
  104SOL    HW1 1064   1.295   0.460   1.326
  104SOL    HW2 1065   1.185   0.403   1.219
  105SOL     OW 1066   0.064   1.564   1.331
  105SOL    HW1 1067   0.018   1.646   1.297
  105SOL    HW2 1068   0.162   1.583   1.340
  106SOL     OW 1069   0.367   1.100   0.501
  106SOL    HW1 1070   0.360   1.183   0.445
  106SOL    HW2 1071   0.371   1.020   0.441
  107SOL     OW 1072   0.566   0.537   0.865
  107SOL    HW1 1073   0.578   0.603   0.791
  107SOL    HW2 1074   0.612   0.571   0.948
  108SOL     OW 1075   1.252   1.348   0.388
  108SOL    HW1 1076   1.302   1.425   0.428
  108SOL    HW2 1077   1.157   1.350   0.420
  109SOL     OW 1078   1.272   1.445   1.142
  109SOL    HW1 1079   1.319   1.458   1.229
  109SOL    HW2 1080   1.206   1.371   1.151
  110SOL     OW 1081   1.582   0.639   0.472
  110SOL    HW1 1082   1.551   0.700   0.545
  110SOL    HW2 1083   1.632   0.691   0.403
  111SOL     OW 1084   0.354   1.510   1.329
  111SOL    HW1 1085   0.333   1.466   1.242
  111SOL    HW2 1086   0.451   1.536   1.332
  112SOL     OW 1087   0.402   0.751   1.598
  112SOL    HW1 1088   0.470   0.806   1.551
  112SOL    HW2 1089   0.442   0.663   1.625
  113SOL     OW 1090   1.587   0.779   1.670
  113SOL    HW1 1091   1.495   0.817   1.665
  113SOL    HW2 1092   1.647   0.826   1.605
  114SOL     OW 1093   1.013   0.105   1.770
  114SOL    HW1 1094   1.019   0.190   1.718
  114SOL    HW2 1095   1.045   0.029   1.713
  115SOL     OW 1096   0.504   0.050   1.740
  115SOL    HW1 1097   0.462  -0.007   1.670
  115SOL    HW2 1098   0.438   0.119   1.772
  116SOL     OW 1099   0.573   0.870   1.029
  116SOL    HW1 1100   0.617   0.959   1.020
  116SOL    HW2 1101   0.510   0.870   1.106
  117SOL     OW 1102   1.360   0.862   1.045
  117SOL    HW1 1103   1.285   0.862   0.979
  117SOL    HW2 1104   1.397   0.770   1.054
  118SOL     OW 1105   1.209   0.525   0.275
  118SOL    HW1 1106   1.222   0.441   0.329
  118SOL    HW2 1107   1.180   0.599   0.335
  119SOL     OW 1108   0.307   0.213   1.231
  119SOL    HW1 1109   0.284   0.250   1.321
  119SOL    HW2 1110   0.277   0.118   1.225
  120SOL     OW 1111   0.037   1.310   1.282
  120SOL    HW1 1112   0.090   1.261   1.350
  120SOL    HW2 1113   0.059   1.408   1.287
  121SOL     OW 1114   0.732   0.634   1.064
  121SOL    HW1 1115   0.791   0.608   0.988
  121SOL    HW2 1116   0.704   0.730   1.053
  122SOL     OW 1117   1.728   0.935   1.854
  122SOL    HW1 1118   1.682   0.928   1.765
  122SOL    HW2 1119   1.666   0.979   1.920
  123SOL     OW 1120   0.307   0.063   0.618
  123SOL    HW1 1121   0.296   0.157   0.651
  123SOL    HW2 1122   0.302   0.000   0.695
  124SOL     OW 1123   1.622   0.367   0.374
  124SOL    HW1 1124   1.624   0.291   0.438
  124SOL    HW2 1125   1.574   0.444   0.414
  125SOL     OW 1126   1.023   0.766   0.966
  125SOL    HW1 1127   1.038   0.787   1.062
  125SOL    HW2 1128   0.993   0.671   0.957
  126SOL     OW 1129   0.980   1.573   1.700
  126SOL    HW1 1130   0.960   1.617   1.612
  126SOL    HW2 1131   1.019   1.482   1.684
  127SOL     OW 1132   1.859   1.518   1.605
  127SOL    HW1 1133   1.873   1.545   1.510
  127SOL    HW2 1134   1.942   1.540   1.658
  128SOL     OW 1135   0.350   0.898   1.804
  128SOL    HW1 1136   0.426   0.942   1.852
  128SOL    HW2 1137   0.385   0.851   1.722
  129SOL     OW 1138   1.540   0.274   0.125
  129SOL    HW1 1139   1.479   0.199   0.148
  129SOL    HW2 1140   1.562   0.326   0.208
  130SOL     OW 1141   1.303   0.838   0.042
  130SOL    HW1 1142   1.337   0.745   0.057
  130SOL    HW2 1143   1.321   0.865  -0.053
  131SOL     OW 1144   1.068   1.333   0.849
  131SOL    HW1 1145   1.075   1.249   0.794
  131SOL    HW2 1146   1.130   1.402   0.813
  132SOL     OW 1147   0.319   0.810   0.949
  132SOL    HW1 1148   0.412   0.846   0.954
  132SOL    HW2 1149   0.313   0.725   1.001
  133SOL     OW 1150   0.339   0.509   1.006
  133SOL    HW1 1151   0.287   0.426   0.989
  133SOL    HW2 1152   0.416   0.514   0.942
  134SOL     OW 1153   1.138   0.380   1.678
  134SOL    HW1 1154   1.093   0.443   1.742
  134SOL    HW2 1155   1.231   0.411   1.661
  135SOL     OW 1156   1.160   0.207   1.477
  135SOL    HW1 1157   1.160   0.271   1.554
  135SOL    HW2 1158   1.188   0.255   1.394
  136SOL     OW 1159   0.008   1.326   0.200
  136SOL    HW1 1160  -0.085   1.347   0.169
  136SOL    HW2 1161   0.018   1.227   0.213
  137SOL     OW 1162   0.088   1.801   0.927
  137SOL    HW1 1163   0.046   1.715   0.900
  137SOL    HW2 1164   0.182   1.804   0.893
  138SOL     OW 1165   0.504   1.568   0.910
  138SOL    HW1 1166   0.570   1.642   0.919
  138SOL    HW2 1167   0.548   1.489   0.868
  139SOL     OW 1168   1.002   0.796   1.238
  139SOL    HW1 1169   1.043   0.764   1.324
  139SOL    HW2 1170   0.906   0.769   1.235
  140SOL     OW 1171   0.040   0.544   1.114
  140SOL    HW1 1172   0.125   0.511   1.073
  140SOL    HW2 1173   0.053   0.559   1.212
  141SOL     OW 1174   0.189   0.520   1.722
  141SOL    HW1 1175   0.248   0.480   1.652
  141SOL    HW2 1176   0.131   0.591   1.681
  142SOL     OW 1177   1.369   0.950   1.660
  142SOL    HW1 1178   1.408   1.039   1.680
  142SOL    HW2 1179   1.379   0.930   1.563
  143SOL     OW 1180   0.815   0.572   0.325
  143SOL    HW1 1181   0.822   0.483   0.279
  143SOL    HW2 1182   0.721   0.606   0.317
  144SOL     OW 1183   1.657   0.604   1.206
  144SOL    HW1 1184   1.619   0.535   1.268
  144SOL    HW2 1185   1.739   0.568   1.162
  145SOL     OW 1186   0.252   1.564   1.744
  145SOL    HW1 1187   0.222   1.621   1.820
  145SOL    HW2 1188   0.245   1.467   1.770
  146SOL     OW 1189   0.671   0.464   1.269
  146SOL    HW1 1190   0.637   0.375   1.239
  146SOL    HW2 1191   0.697   0.518   1.189
  147SOL     OW 1192   0.930   1.678   1.465
  147SOL    HW1 1193   0.906   1.660   1.370
  147SOL    HW2 1194   0.960   1.772   1.475
  148SOL     OW 1195   0.473   0.500   0.191
  148SOL    HW1 1196   0.534   0.580   0.195
  148SOL    HW2 1197   0.378   0.531   0.198
  149SOL     OW 1198   0.159   1.137   1.466
  149SOL    HW1 1199   0.181   1.076   1.542
  149SOL    HW2 1200   0.169   1.088   1.380
  150SOL     OW 1201   1.347   1.059   1.234
  150SOL    HW1 1202   1.371   0.996   1.160
  150SOL    HW2 1203   1.257   1.099   1.216
  151SOL     OW 1204   1.302   0.855   0.309
  151SOL    HW1 1205   1.216   0.824   0.351
  151SOL    HW2 1206   1.298   0.841   0.210
  152SOL     OW 1207   1.759   1.747   1.154
  152SOL    HW1 1208   1.820   1.777   1.081
  152SOL    HW2 1209   1.721   1.658   1.132
  153SOL     OW 1210   1.252   1.731   1.128
  153SOL    HW1 1211   1.336   1.736   1.074
  153SOL    HW2 1212   1.229   1.635   1.146
  154SOL     OW 1213   0.083   1.258   1.022
  154SOL    HW1 1214   0.078   1.257   1.122
  154SOL    HW2 1215   0.000   1.217   0.984
  155SOL     OW 1216   0.688   1.662   1.716
  155SOL    HW1 1217   0.632   1.743   1.725
  155SOL    HW2 1218   0.740   1.666   1.630
  156SOL     OW 1219   0.903   0.086   0.133
  156SOL    HW1 1220   0.954   0.087   0.047
  156SOL    HW2 1221   0.959   0.044   0.204
  157SOL     OW 1222   1.726   0.135   0.523
  157SOL    HW1 1223   1.799   0.118   0.456
  157SOL    HW2 1224   1.695   0.048   0.561
  158SOL     OW 1225   1.388   1.573   0.477
  158SOL    HW1 1226   1.455   1.585   0.403
  158SOL    HW2 1227   1.348   1.662   0.500
  159SOL     OW 1228   0.130   1.794   1.851
  159SOL    HW1 1229   0.089   1.720   1.904
  159SOL    HW2 1230   0.194   1.845   1.909
  160SOL     OW 1231   1.280   0.927   0.672
  160SOL    HW1 1232   1.340   0.846   0.674
  160SOL    HW2 1233   1.320   0.996   0.612
  161SOL     OW 1234   0.830   1.273   1.422
  161SOL    HW1 1235   0.825   1.306   1.517
  161SOL    HW2 1236   0.744   1.292   1.376
  162SOL     OW 1237   0.672   1.616   0.154
  162SOL    HW1 1238   0.681   1.626   0.055
  162SOL    HW2 1239   0.632   1.527   0.175
  163SOL     OW 1240   1.650   1.720   1.394
  163SOL    HW1 1241   1.703   1.730   1.310
  163SOL    HW2 1242   1.623   1.810   1.428
  164SOL     OW 1243   1.841   0.175   0.963
  164SOL    HW1 1244   1.880   0.090   0.927
  164SOL    HW2 1245   1.743   0.177   0.944
  165SOL     OW 1246   0.263   0.326   0.720
  165SOL    HW1 1247   0.184   0.377   0.686
  165SOL    HW2 1248   0.254   0.311   0.818
  166SOL     OW 1249   1.194   1.612   0.031
  166SOL    HW1 1250   1.200   1.519   0.068
  166SOL    HW2 1251   1.135   1.612  -0.049
  167SOL     OW 1252   0.822   1.002   1.372
  167SOL    HW1 1253   0.862   1.001   1.280
  167SOL    HW2 1254   0.832   1.094   1.412
  168SOL     OW 1255   0.916   0.910   0.291
  168SOL    HW1 1256   0.979   0.948   0.223
  168SOL    HW2 1257   0.956   0.827   0.330
  169SOL     OW 1258   1.504   1.607   0.044
  169SOL    HW1 1259   1.412   1.644   0.051
  169SOL    HW2 1260   1.542   1.627  -0.046
  170SOL     OW 1261   0.372   1.288   1.490
  170SOL    HW1 1262   0.359   1.381   1.456
  170SOL    HW2 1263   0.288   1.236   1.477
  171SOL     OW 1264   1.614   1.292   1.289
  171SOL    HW1 1265   1.674   1.295   1.369
  171SOL    HW2 1266   1.539   1.356   1.302
  172SOL     OW 1267   1.039   1.098   0.696
  172SOL    HW1 1268   0.969   1.051   0.750
  172SOL    HW2 1269   1.098   1.030   0.653
  173SOL     OW 1270   1.014   0.236   0.971
  173SOL    HW1 1271   1.006   0.200   0.878
  173SOL    HW2 1272   1.012   0.160   1.036
  174SOL     OW 1273   0.590   1.487   0.491
  174SOL    HW1 1274   0.632   1.429   0.421
  174SOL    HW2 1275   0.546   1.566   0.447
  175SOL     OW 1276   1.709   0.385   1.381
  175SOL    HW1 1277   1.782   0.454   1.385
  175SOL    HW2 1278   1.737   0.310   1.322
  176SOL     OW 1279   0.255   1.348   0.290
  176SOL    HW1 1280   0.159   1.349   0.263
  176SOL    HW2 1281   0.267   1.401   0.374
  177SOL     OW 1282   0.105   1.013   1.726
  177SOL    HW1 1283   0.028   0.980   1.780
  177SOL    HW2 1284   0.190   0.983   1.768
  178SOL     OW 1285   0.672   0.203   1.489
  178SOL    HW1 1286   0.762   0.187   1.449
  178SOL    HW2 1287   0.680   0.208   1.588
  179SOL     OW 1288   0.075   0.345   0.033
  179SOL    HW1 1289  -0.017   0.317   0.004
  179SOL    HW2 1290   0.106   0.422  -0.023
  180SOL     OW 1291   1.440   0.856   1.398
  180SOL    HW1 1292   1.383   0.908   1.335
  180SOL    HW2 1293   1.536   0.868   1.374
  181SOL     OW 1294   0.072   0.166   0.318
  181SOL    HW1 1295   0.055   0.249   0.264
  181SOL    HW2 1296   0.162   0.129   0.296
  182SOL     OW 1297   1.183   1.335   0.119
  182SOL    HW1 1298   1.084   1.324   0.121
  182SOL    HW2 1299   1.217   1.350   0.212
  183SOL     OW 1300   0.613   0.842   1.431
  183SOL    HW1 1301   0.669   0.923   1.414
  183SOL    HW2 1302   0.672   0.762   1.434
  184SOL     OW 1303   1.493   1.767   0.959
  184SOL    HW1 1304   1.526   1.831   0.890
  184SOL    HW2 1305   1.559   1.761   1.034
  185SOL     OW 1306   0.716   0.565   1.708
  185SOL    HW1 1307   0.735   0.630   1.782
  185SOL    HW2 1308   0.776   0.485   1.717
  186SOL     OW 1309   1.450   1.220   1.633
  186SOL    HW1 1310   1.441   1.210   1.732
  186SOL    HW2 1311   1.546   1.213   1.607
  187SOL     OW 1312   0.390   1.741   1.560
  187SOL    HW1 1313   0.299   1.782   1.558
  187SOL    HW2 1314   0.383   1.647   1.592
  188SOL     OW 1315   1.674   0.883   1.254
  188SOL    HW1 1316   1.647   0.794   1.217
  188SOL    HW2 1317   1.675   0.951   1.181
  189SOL     OW 1318   1.225   0.325   0.449
  189SOL    HW1 1319   1.290   0.251   0.438
  189SOL    HW2 1320   1.245   0.375   0.533
  190SOL     OW 1321   0.594   0.745   0.652
  190SOL    HW1 1322   0.644   0.830   0.633
  190SOL    HW2 1323   0.506   0.747   0.604
  191SOL     OW 1324   1.777   0.342   1.642
  191SOL    HW1 1325   1.760   0.373   1.548
  191SOL    HW2 1326   1.693   0.305   1.680
  192SOL     OW 1327   1.730   0.934   1.517
  192SOL    HW1 1328   1.768   1.025   1.532
  192SOL    HW2 1329   1.722   0.917   1.418
  193SOL     OW 1330   0.859   1.374   0.016
  193SOL    HW1 1331   0.813   1.389   0.104
  193SOL    HW2 1332   0.903   1.459  -0.014
  194SOL     OW 1333   0.661   1.790   0.953
  194SOL    HW1 1334   0.615   1.878   0.940
  194SOL    HW2 1335   0.760   1.802   0.946
  195SOL     OW 1336   0.859   0.956   0.861
  195SOL    HW1 1337   0.913   0.887   0.909
  195SOL    HW2 1338   0.827   1.025   0.927
  196SOL     OW 1339   1.083   0.984   0.087
  196SOL    HW1 1340   1.060   1.037   0.005
  196SOL    HW2 1341   1.164   0.928   0.068
  197SOL     OW 1342   1.861   1.569   0.851
  197SOL    HW1 1343   1.790   1.557   0.781
  197SOL    HW2 1344   1.862   1.490   0.911
  198SOL     OW 1345   0.221   1.314   1.844
  198SOL    HW1 1346   0.156   1.241   1.823
  198SOL    HW2 1347   0.225   1.328   1.942
  199SOL     OW 1348   0.079   1.240   0.653
  199SOL    HW1 1349   0.078   1.193   0.741
  199SOL    HW2 1350   0.161   1.212   0.602
  200SOL     OW 1351   0.672   1.391   1.624
  200SOL    HW1 1352   0.594   1.341   1.662
  200SOL    HW2 1353   0.669   1.486   1.655
  201SOL     OW 1354   1.824   0.192   1.227
  201SOL    HW1 1355   1.820   0.102   1.271
  201SOL    HW2 1356   1.827   0.181   1.128
  202SOL     OW 1357   0.428   0.424   0.520
  202SOL    HW1 1358   0.458   0.352   0.458
  202SOL    HW2 1359   0.389   0.384   0.603
  203SOL     OW 1360   1.705   1.487   1.104
  203SOL    HW1 1361   1.612   1.462   1.077
  203SOL    HW2 1362   1.731   1.437   1.186
  204SOL     OW 1363   0.317   0.547   1.280
  204SOL    HW1 1364   0.355   0.488   1.352
  204SOL    HW2 1365   0.357   0.521   1.192
  205SOL     OW 1366   0.812   1.586   0.687
  205SOL    HW1 1367   0.844   1.596   0.593
  205SOL    HW2 1368   0.733   1.524   0.689
  206SOL     OW 1369   1.424   0.214   1.112
  206SOL    HW1 1370   1.476   0.149   1.167
  206SOL    HW2 1371   1.375   0.277   1.173
  207SOL     OW 1372   1.001   0.034   1.154
  207SOL    HW1 1373   0.938  -0.038   1.123
  207SOL    HW2 1374   1.094  -0.002   1.154
  208SOL     OW 1375   0.770   1.330   0.301
  208SOL    HW1 1376   0.724   1.243   0.318
  208SOL    HW2 1377   0.861   1.327   0.342
  209SOL     OW 1378   0.618   1.567   1.284
  209SOL    HW1 1379   0.613   1.649   1.341
  209SOL    HW2 1380   0.707   1.564   1.239
  210SOL     OW 1381   1.352   0.052   0.168
  210SOL    HW1 1382   1.387   0.011   0.084
  210SOL    HW2 1383   1.262   0.014   0.188
  211SOL     OW 1384   1.300   0.453   0.691
  211SOL    HW1 1385   1.241   0.533   0.695
  211SOL    HW2 1386   1.315   0.418   0.784
  212SOL     OW 1387   1.593   0.221   0.882
  212SOL    HW1 1388   1.509   0.220   0.936
  212SOL    HW2 1389   1.595   0.304   0.826
  213SOL     OW 1390   0.039   1.077   0.300
  213SOL    HW1 1391   0.138   1.066   0.291
  213SOL    HW2 1392  -0.001   0.991   0.332
  214SOL     OW 1393   0.875   1.646   0.337
  214SOL    HW1 1394   0.798   1.611   0.283
  214SOL    HW2 1395   0.843   1.717   0.399
  215SOL     OW 1396   0.230   0.628   1.975
  215SOL    HW1 1397   0.137   0.626   2.012
  215SOL    HW2 1398   0.231   0.589   1.883
  216SOL     OW 1399   0.225   0.275   2.858
  216SOL    HW1 1400   0.260   0.258   2.950
  216SOL    HW2 1401   0.137   0.230   2.846
  217SOL     OW 1402   0.019   0.368   2.509
  217SOL    HW1 1403  -0.063   0.411   2.548
  217SOL    HW2 1404  -0.009   0.295   2.446
  218SOL     OW 1405   0.569   1.275   3.027
  218SOL    HW1 1406   0.476   1.268   2.990
  218SOL    HW2 1407   0.580   1.364   3.071
  219SOL     OW 1408   1.555   1.511   2.565
  219SOL    HW1 1409   1.498   1.495   2.646
  219SOL    HW2 1410   1.496   1.521   2.485
  220SOL     OW 1411   1.135   0.703   2.579
  220SOL    HW1 1412   1.192   0.781   2.554
  220SOL    HW2 1413   1.075   0.729   2.655
  221SOL     OW 1414   1.755   0.607   2.093
  221SOL    HW1 1415   1.743   0.594   1.994
  221SOL    HW2 1416   1.725   0.526   2.142
  222SOL     OW 1417   0.768   1.144   2.885
  222SOL    HW1 1418   0.690   1.161   2.945
  222SOL    HW2 1419   0.802   1.231   2.849
  223SOL     OW 1420   0.850   0.798   3.685
  223SOL    HW1 1421   0.846   0.874   3.750
  223SOL    HW2 1422   0.872   0.834   3.594
  224SOL     OW 1423   0.685   1.012   2.527
  224SOL    HW1 1424   0.754   0.996   2.597
  224SOL    HW2 1425   0.612   1.069   2.565
  225SOL     OW 1426   0.686   1.161   3.665
  225SOL    HW1 1427   0.746   1.240   3.679
  225SOL    HW2 1428   0.600   1.192   3.624
  226SOL     OW 1429   0.335   1.435   2.923
  226SOL    HW1 1430   0.257   1.404   2.870
  226SOL    HW2 1431   0.393   1.493   2.866
  227SOL     OW 1432   1.460   1.505   3.201
  227SOL    HW1 1433   1.484   1.599   3.227
  227SOL    HW2 1434   1.444   1.451   3.283
  228SOL     OW 1435   0.438   0.392   3.361
  228SOL    HW1 1436   0.520   0.336   3.370
  228SOL    HW2 1437   0.357   0.334   3.365
  229SOL     OW 1438   1.603   0.447   2.599
  229SOL    HW1 1439   1.529   0.493   2.549
  229SOL    HW2 1440   1.654   0.515   2.652
  230SOL     OW 1441   0.231   1.713   2.345
  230SOL    HW1 1442   0.265   1.790   2.399
  230SOL    HW2 1443   0.275   1.713   2.255
  231SOL     OW 1444   1.127   1.341   3.552
  231SOL    HW1 1445   1.174   1.341   3.640
  231SOL    HW2 1446   1.079   1.254   3.541
  232SOL     OW 1447   0.230   1.434   2.400
  232SOL    HW1 1448   0.204   1.530   2.400
  232SOL    HW2 1449   0.159   1.380   2.445
  233SOL     OW 1450   0.240   1.091   2.748
  233SOL    HW1 1451   0.254   1.007   2.800
  233SOL    HW2 1452   0.185   1.155   2.803
  234SOL     OW 1453   0.620   1.786   3.301
  234SOL    HW1 1454   0.528   1.769   3.336
  234SOL    HW2 1455   0.648   1.878   3.327
  235SOL     OW 1456   0.606   0.964   1.985
  235SOL    HW1 1457   0.613   1.048   1.931
  235SOL    HW2 1458   0.652   0.977   2.073
  236SOL     OW 1459   1.594   0.114   3.342
  236SOL    HW1 1460   1.576   0.181   3.270
  236SOL    HW2 1461   1.591   0.160   3.431
  237SOL     OW 1462   0.122   0.643   2.425
  237SOL    HW1 1463   0.077   0.555   2.442
  237SOL    HW2 1464   0.121   0.697   2.509
  238SOL     OW 1465   1.842   1.767   2.221
  238SOL    HW1 1466   1.896   1.738   2.301
  238SOL    HW2 1467   1.872   1.857   2.192
  239SOL     OW 1468   0.027   1.596   1.979
  239SOL    HW1 1469   0.008   1.500   2.000
  239SOL    HW2 1470  -0.006   1.654   2.054
  240SOL     OW 1471   1.689   0.922   2.474
  240SOL    HW1 1472   1.784   0.893   2.482
  240SOL    HW2 1473   1.681   0.987   2.399
  241SOL     OW 1474   1.641   1.108   2.294
  241SOL    HW1 1475   1.727   1.110   2.242
  241SOL    HW2 1476   1.655   1.155   2.382
  242SOL     OW 1477   0.113   0.737   3.459
  242SOL    HW1 1478   0.201   0.724   3.504
  242SOL    HW2 1479   0.100   0.834   3.437
  243SOL     OW 1480   0.613   1.365   2.588
  243SOL    HW1 1481   0.564   1.278   2.597
  243SOL    HW2 1482   0.590   1.408   2.501
  244SOL     OW 1483   1.293   1.228   3.285
  244SOL    HW1 1484   1.330   1.155   3.227
  244SOL    HW2 1485   1.345   1.233   3.370
  245SOL     OW 1486   0.809   0.004   2.364
  245SOL    HW1 1487   0.849   0.095   2.355
  245SOL    HW2 1488   0.709   0.012   2.370
  246SOL     OW 1489   0.197   0.976   3.126
  246SOL    HW1 1490   0.286   0.931   3.112
  246SOL    HW2 1491   0.124   0.911   3.107
  247SOL     OW 1492   1.525   0.999   2.052
  247SOL    HW1 1493   1.462   0.923   2.065
  247SOL    HW2 1494   1.573   1.017   2.138
  248SOL     OW 1495   1.187   1.792   3.478
  248SOL    HW1 1496   1.211   1.852   3.402
  248SOL    HW2 1497   1.194   1.697   3.448
  249SOL     OW 1498   0.317   0.251   3.663
  249SOL    HW1 1499   0.388   0.322   3.669
  249SOL    HW2 1500   0.229   0.290   3.691
  250SOL     OW 1501   1.466   1.417   2.815
  250SOL    HW1 1502   1.407   1.423   2.895
  250SOL    HW2 1503   1.451   1.329   2.769
  251SOL     OW 1504   1.667   1.714   2.434
  251SOL    HW1 1505   1.626   1.691   2.346
  251SOL    HW2 1506   1.649   1.640   2.499
  252SOL     OW 1507   0.598   0.729   2.132
  252SOL    HW1 1508   0.622   0.798   2.064
  252SOL    HW2 1509   0.520   0.762   2.186
  253SOL     OW 1510   1.281   0.345   2.806
  253SOL    HW1 1511   1.195   0.295   2.793
  253SOL    HW2 1512   1.343   0.291   2.862
  254SOL     OW 1513   1.576   1.662   2.169
  254SOL    HW1 1514   1.665   1.708   2.172
  254SOL    HW2 1515   1.555   1.638   2.074
  255SOL     OW 1516   0.807   0.605   3.327
  255SOL    HW1 1517   0.760   0.602   3.416
  255SOL    HW2 1518   0.756   0.550   3.261
  256SOL     OW 1519   1.394   0.469   3.536
  256SOL    HW1 1520   1.374   0.512   3.624
  256SOL    HW2 1521   1.472   0.407   3.545
  257SOL     OW 1522   0.973   0.890   3.434
  257SOL    HW1 1523   1.019   0.806   3.405
  257SOL    HW2 1524   0.917   0.924   3.359
  258SOL     OW 1525   0.991   0.410   3.104
  258SOL    HW1 1526   0.914   0.444   3.158
  258SOL    HW2 1527   0.957   0.359   3.025
  259SOL     OW 1528   1.041   0.701   2.291
  259SOL    HW1 1529   1.067   0.697   2.387
  259SOL    HW2 1530   0.956   0.650   2.277
  260SOL     OW 1531   0.076   0.811   2.651
  260SOL    HW1 1532   0.175   0.799   2.660
  260SOL    HW2 1533   0.052   0.906   2.672
  261SOL     OW 1534   0.130   1.821   3.433
  261SOL    HW1 1535   0.120   1.806   3.532
  261SOL    HW2 1536   0.044   1.857   3.397
  262SOL     OW 1537   0.865   0.348   2.057
  262SOL    HW1 1538   0.924   0.411   2.008
  262SOL    HW2 1539   0.884   0.254   2.028
  263SOL     OW 1540   1.719   0.585   3.693
  263SOL    HW1 1541   1.693   0.674   3.657
  263SOL    HW2 1542   1.717   0.517   3.620
  264SOL     OW 1543   1.362   1.144   2.407
  264SOL    HW1 1544   1.445   1.115   2.359
  264SOL    HW2 1545   1.313   1.211   2.351
  265SOL     OW 1546   0.550   0.196   2.747
  265SOL    HW1 1547   0.545   0.191   2.847
  265SOL    HW2 1548   0.552   0.292   2.718
  266SOL     OW 1549   1.008   1.456   2.339
  266SOL    HW1 1550   0.962   1.528   2.287
  266SOL    HW2 1551   1.004   1.476   2.437
  267SOL     OW 1552   0.351   1.801   2.715
  267SOL    HW1 1553   0.401   1.715   2.721
  267SOL    HW2 1554   0.416   1.878   2.712
  268SOL     OW 1555   1.795   1.066   2.735
  268SOL    HW1 1556   1.733   1.051   2.659
  268SOL    HW2 1557   1.743   1.077   2.820
  269SOL     OW 1558   1.227   1.550   3.368
  269SOL    HW1 1559   1.233   1.473   3.432
  269SOL    HW2 1560   1.175   1.524   3.288
  270SOL     OW 1561   0.321   0.943   2.104
  270SOL    HW1 1562   0.403   0.982   2.062
  270SOL    HW2 1563   0.294   0.861   2.055
  271SOL     OW 1564   1.458   0.735   2.590
  271SOL    HW1 1565   1.453   0.670   2.665
  271SOL    HW2 1566   1.538   0.794   2.603
  272SOL     OW 1567   0.461   1.266   3.589
  272SOL    HW1 1568   0.411   1.267   3.503
  272SOL    HW2 1569   0.398   1.248   3.665
  273SOL     OW 1570   1.111   1.776   2.099
  273SOL    HW1 1571   1.051   1.714   2.149
  273SOL    HW2 1572   1.142   1.732   2.014
  274SOL     OW 1573   0.202   0.285   3.360
  274SOL    HW1 1574   0.122   0.345   3.347
  274SOL    HW2 1575   0.192   0.236   3.446
  275SOL     OW 1576   1.632   1.377   1.943
  275SOL    HW1 1577   1.600   1.471   1.933
  275SOL    HW2 1578   1.556   1.314   1.931
  276SOL     OW 1579   0.464   1.743   2.185
  276SOL    HW1 1580   0.497   1.782   2.271
  276SOL    HW2 1581   0.540   1.736   2.120
  277SOL     OW 1582   1.400   0.107   2.288
  277SOL    HW1 1583   1.376   0.070   2.198
  277SOL    HW2 1584   1.499   0.123   2.292
  278SOL     OW 1585   0.249   1.785   3.103
  278SOL    HW1 1586   0.306   1.720   3.153
  278SOL    HW2 1587   0.233   1.752   3.010
  279SOL     OW 1588   0.940   1.698   2.766
  279SOL    HW1 1589   1.020   1.641   2.787
  279SOL    HW2 1590   0.891   1.658   2.689
  280SOL     OW 1591   0.382   0.700   2.342
  280SOL    HW1 1592   0.427   0.610   2.339
  280SOL    HW2 1593   0.288   0.689   2.375
  281SOL     OW 1594   1.547   0.222   3.591
  281SOL    HW1 1595   1.542   0.259   3.683
  281SOL    HW2 1596   1.475   0.153   3.579
  282SOL     OW 1597   0.614   0.122   1.979
  282SOL    HW1 1598   0.712   0.100   1.986
  282SOL    HW2 1599   0.583   0.105   1.886
  283SOL     OW 1600   0.781   0.264   3.611
  283SOL    HW1 1601   0.848   0.203   3.654
  283SOL    HW2 1602   0.708   0.283   3.676
  284SOL     OW 1603   0.888   1.514   3.057
  284SOL    HW1 1604   0.865   1.489   2.963
  284SOL    HW2 1605   0.949   1.445   3.096
  285SOL     OW 1606   1.351   0.590   3.295
  285SOL    HW1 1607   1.379   0.547   3.380
  285SOL    HW2 1608   1.376   0.686   3.296
  286SOL     OW 1609   0.803   1.402   2.786
  286SOL    HW1 1610   0.893   1.416   2.744
  286SOL    HW2 1611   0.732   1.404   2.715
  287SOL     OW 1612   0.922   0.503   2.761
  287SOL    HW1 1613   0.897   0.494   2.665
  287SOL    HW2 1614   0.970   0.421   2.792
  288SOL     OW 1615   0.539   0.064   2.374
  288SOL    HW1 1616   0.458   0.065   2.432
  288SOL    HW2 1617   0.542   0.147   2.319
  289SOL     OW 1618   1.434   1.188   1.903
  289SOL    HW1 1619   1.466   1.112   1.960
  289SOL    HW2 1620   1.342   1.215   1.933
  290SOL     OW 1621   0.297   0.035   2.033
  290SOL    HW1 1622   0.346   0.119   2.012
  290SOL    HW2 1623   0.359  -0.030   2.078
  291SOL     OW 1624   0.935   0.236   2.342
  291SOL    HW1 1625   0.887   0.277   2.264
  291SOL    HW2 1626   1.034   0.234   2.323
  292SOL     OW 1627   1.076   0.683   3.326
  292SOL    HW1 1628   0.996   0.622   3.329
  292SOL    HW2 1629   1.157   0.630   3.302
  293SOL     OW 1630   1.227   1.570   2.655
  293SOL    HW1 1631   1.248   1.644   2.590
  293SOL    HW2 1632   1.295   1.570   2.728
  294SOL     OW 1633   0.459   1.152   2.603
  294SOL    HW1 1634   0.388   1.125   2.668
  294SOL    HW2 1635   0.433   1.124   2.510
  295SOL     OW 1636   1.271   1.797   2.453
  295SOL    HW1 1637   1.315   1.861   2.389
  295SOL    HW2 1638   1.221   1.849   2.523
  296SOL     OW 1639   1.032   0.549   1.878
  296SOL    HW1 1640   0.991   0.631   1.839
  296SOL    HW2 1641   1.096   0.575   1.951
  297SOL     OW 1642   0.078   0.556   3.248
  297SOL    HW1 1643   0.170   0.555   3.207
  297SOL    HW2 1644   0.072   0.630   3.315
  298SOL     OW 1645   0.561   0.222   3.009
  298SOL    HW1 1646   0.599   0.138   3.046
  298SOL    HW2 1647   0.473   0.241   3.053
  299SOL     OW 1648   0.866   0.454   2.504
  299SOL    HW1 1649   0.834   0.526   2.442
  299SOL    HW2 1650   0.890   0.373   2.451
  300SOL     OW 1651   1.017   0.039   2.615
  300SOL    HW1 1652   0.945   0.044   2.546
  300SOL    HW2 1653   0.993  -0.030   2.684
  301SOL     OW 1654   1.429   1.173   2.729
  301SOL    HW1 1655   1.374   1.089   2.722
  301SOL    HW2 1656   1.455   1.202   2.637
  302SOL     OW 1657   1.466   0.590   2.854
  302SOL    HW1 1658   1.436   0.495   2.861
  302SOL    HW2 1659   1.539   0.606   2.920
  303SOL     OW 1660   1.857   0.833   2.239
  303SOL    HW1 1661   1.899   0.769   2.303
  303SOL    HW2 1662   1.819   0.782   2.161
  304SOL     OW 1663   0.488   1.385   2.036
  304SOL    HW1 1664   0.401   1.370   2.083
  304SOL    HW2 1665   0.471   1.411   1.941
  305SOL     OW 1666   1.664   1.280   2.519
  305SOL    HW1 1667   1.763   1.288   2.533
  305SOL    HW2 1668   1.619   1.364   2.550
  306SOL     OW 1669   1.390   0.575   1.940
  306SOL    HW1 1670   1.336   0.554   2.021
  306SOL    HW2 1671   1.481   0.534   1.949
  307SOL     OW 1672   0.527   0.256   2.190
  307SOL    HW1 1673   0.554   0.197   2.115
  307SOL    HW2 1674   0.527   0.351   2.159
  308SOL     OW 1675   1.754   1.223   3.450
  308SOL    HW1 1676   1.845   1.184   3.437
  308SOL    HW2 1677   1.762   1.319   3.474
  309SOL     OW 1678   1.064   1.347   3.202
  309SOL    HW1 1679   0.984   1.324   3.257
  309SOL    HW2 1680   1.147   1.321   3.251
  310SOL     OW 1681   1.592   1.629   3.487
  310SOL    HW1 1682   1.619   1.663   3.397
  310SOL    HW2 1683   1.671   1.591   3.533
  311SOL     OW 1684   1.111   1.195   2.962
  311SOL    HW1 1685   1.071   1.239   3.043
  311SOL    HW2 1686   1.070   1.232   2.879
  312SOL     OW 1687   1.638   1.099   2.941
  312SOL    HW1 1688   1.643   1.180   3.000
  312SOL    HW2 1689   1.552   1.101   2.890
  313SOL     OW 1690   0.915   0.089   3.264
  313SOL    HW1 1691   0.940   0.069   3.169
  313SOL    HW2 1692   0.987   0.145   3.306
  314SOL     OW 1693   0.980   1.116   3.581
  314SOL    HW1 1694   0.881   1.122   3.591
  314SOL    HW2 1695   1.003   1.036   3.525
  315SOL     OW 1696   0.705   1.050   2.230
  315SOL    HW1 1697   0.691   1.057   2.329
  315SOL    HW2 1698   0.789   0.999   2.212
  316SOL     OW 1699   0.410   0.813   3.113
  316SOL    HW1 1700   0.496   0.825   3.163
  316SOL    HW2 1701   0.368   0.726   3.140
  317SOL     OW 1702   1.274   0.386   3.124
  317SOL    HW1 1703   1.295   0.460   3.188
  317SOL    HW2 1704   1.185   0.403   3.081
  318SOL     OW 1705   0.064   1.564   3.193
  318SOL    HW1 1706   0.018   1.646   3.159
  318SOL    HW2 1707   0.162   1.583   3.202
  319SOL     OW 1708   0.367   1.100   2.363
  319SOL    HW1 1709   0.360   1.183   2.307
  319SOL    HW2 1710   0.371   1.020   2.303
  320SOL     OW 1711   0.566   0.537   2.727
  320SOL    HW1 1712   0.578   0.603   2.653
  320SOL    HW2 1713   0.612   0.571   2.810
  321SOL     OW 1714   1.252   1.348   2.250
  321SOL    HW1 1715   1.302   1.425   2.290
  321SOL    HW2 1716   1.157   1.350   2.282
  322SOL     OW 1717   1.272   1.445   3.004
  322SOL    HW1 1718   1.319   1.458   3.091
  322SOL    HW2 1719   1.206   1.371   3.013
  323SOL     OW 1720   1.582   0.639   2.334
  323SOL    HW1 1721   1.551   0.700   2.407
  323SOL    HW2 1722   1.632   0.691   2.265
  324SOL     OW 1723   0.354   1.510   3.191
  324SOL    HW1 1724   0.333   1.466   3.104
  324SOL    HW2 1725   0.451   1.536   3.194
  325SOL     OW 1726   0.402   0.751   3.460
  325SOL    HW1 1727   0.470   0.806   3.413
  325SOL    HW2 1728   0.442   0.663   3.487
  326SOL     OW 1729   1.587   0.779   3.532
  326SOL    HW1 1730   1.495   0.817   3.527
  326SOL    HW2 1731   1.647   0.826   3.467
  327SOL     OW 1732   1.013   0.105   3.632
  327SOL    HW1 1733   1.019   0.190   3.580
  327SOL    HW2 1734   1.045   0.029   3.575
  328SOL     OW 1735   0.504   0.050   3.602
  328SOL    HW1 1736   0.462  -0.007   3.532
  328SOL    HW2 1737   0.438   0.119   3.634
  329SOL     OW 1738   0.573   0.870   2.891
  329SOL    HW1 1739   0.617   0.959   2.882
  329SOL    HW2 1740   0.510   0.870   2.968
  330SOL     OW 1741   1.360   0.862   2.907
  330SOL    HW1 1742   1.285   0.862   2.841
  330SOL    HW2 1743   1.397   0.770   2.916
  331SOL     OW 1744   1.209   0.525   2.137
  331SOL    HW1 1745   1.222   0.441   2.191
  331SOL    HW2 1746   1.180   0.599   2.197
  332SOL     OW 1747   0.307   0.213   3.093
  332SOL    HW1 1748   0.284   0.250   3.183
  332SOL    HW2 1749   0.277   0.118   3.087
  333SOL     OW 1750   0.037   1.310   3.144
  333SOL    HW1 1751   0.090   1.261   3.212
  333SOL    HW2 1752   0.059   1.408   3.149
  334SOL     OW 1753   0.732   0.634   2.926
  334SOL    HW1 1754   0.791   0.608   2.850
  334SOL    HW2 1755   0.704   0.730   2.915
  335SOL     OW 1756   1.728   0.935   3.716
  335SOL    HW1 1757   1.682   0.928   3.627
  335SOL    HW2 1758   1.666   0.979   3.782
  336SOL     OW 1759   0.307   0.063   2.480
  336SOL    HW1 1760   0.296   0.157   2.513
  336SOL    HW2 1761   0.302   0.000   2.557
  337SOL     OW 1762   1.622   0.367   2.236
  337SOL    HW1 1763   1.624   0.291   2.300
  337SOL    HW2 1764   1.574   0.444   2.276
  338SOL     OW 1765   1.023   0.766   2.828
  338SOL    HW1 1766   1.038   0.787   2.924
  338SOL    HW2 1767   0.993   0.671   2.819
  339SOL     OW 1768   0.980   1.573   3.562
  339SOL    HW1 1769   0.960   1.617   3.474
  339SOL    HW2 1770   1.019   1.482   3.546
  340SOL     OW 1771   1.859   1.518   3.467
  340SOL    HW1 1772   1.873   1.545   3.372
  340SOL    HW2 1773   1.942   1.540   3.520
  341SOL     OW 1774   0.350   0.898   3.666
  341SOL    HW1 1775   0.426   0.942   3.714
  341SOL    HW2 1776   0.385   0.851   3.584
  342SOL     OW 1777   1.540   0.274   1.987
  342SOL    HW1 1778   1.479   0.199   2.010
  342SOL    HW2 1779   1.562   0.326   2.070
  343SOL     OW 1780   1.303   0.838   1.904
  343SOL    HW1 1781   1.337   0.745   1.919
  343SOL    HW2 1782   1.321   0.865   1.809
  344SOL     OW 1783   1.068   1.333   2.711
  344SOL    HW1 1784   1.075   1.249   2.656
  344SOL    HW2 1785   1.130   1.402   2.675
  345SOL     OW 1786   0.319   0.810   2.811
  345SOL    HW1 1787   0.412   0.846   2.816
  345SOL    HW2 1788   0.313   0.725   2.863
  346SOL     OW 1789   0.339   0.509   2.868
  346SOL    HW1 1790   0.287   0.426   2.851
  346SOL    HW2 1791   0.416   0.514   2.804
  347SOL     OW 1792   1.138   0.380   3.540
  347SOL    HW1 1793   1.093   0.443   3.604
  347SOL    HW2 1794   1.231   0.411   3.523
  348SOL     OW 1795   1.160   0.207   3.339
  348SOL    HW1 1796   1.160   0.271   3.416
  348SOL    HW2 1797   1.188   0.255   3.256
  349SOL     OW 1798   0.008   1.326   2.062
  349SOL    HW1 1799  -0.085   1.347   2.031
  349SOL    HW2 1800   0.018   1.227   2.075
  350SOL     OW 1801   0.088   1.801   2.789
  350SOL    HW1 1802   0.046   1.715   2.762
  350SOL    HW2 1803   0.182   1.804   2.755
  351SOL     OW 1804   0.504   1.568   2.772
  351SOL    HW1 1805   0.570   1.642   2.781
  351SOL    HW2 1806   0.548   1.489   2.730
  352SOL     OW 1807   1.002   0.796   3.100
  352SOL    HW1 1808   1.043   0.764   3.186
  352SOL    HW2 1809   0.906   0.769   3.097
  353SOL     OW 1810   0.040   0.544   2.976
  353SOL    HW1 1811   0.125   0.511   2.935
  353SOL    HW2 1812   0.053   0.559   3.074
  354SOL     OW 1813   0.189   0.520   3.584
  354SOL    HW1 1814   0.248   0.480   3.514
  354SOL    HW2 1815   0.131   0.591   3.543
  355SOL     OW 1816   1.369   0.950   3.522
  355SOL    HW1 1817   1.408   1.039   3.542
  355SOL    HW2 1818   1.379   0.930   3.425
  356SOL     OW 1819   0.815   0.572   2.187
  356SOL    HW1 1820   0.822   0.483   2.141
  356SOL    HW2 1821   0.721   0.606   2.179
  357SOL     OW 1822   1.657   0.604   3.068
  357SOL    HW1 1823   1.619   0.535   3.130
  357SOL    HW2 1824   1.739   0.568   3.024
  358SOL     OW 1825   0.252   1.564   3.606
  358SOL    HW1 1826   0.222   1.621   3.682
  358SOL    HW2 1827   0.245   1.467   3.632
  359SOL     OW 1828   0.671   0.464   3.131
  359SOL    HW1 1829   0.637   0.375   3.101
  359SOL    HW2 1830   0.697   0.518   3.051
  360SOL     OW 1831   0.930   1.678   3.327
  360SOL    HW1 1832   0.906   1.660   3.232
  360SOL    HW2 1833   0.960   1.772   3.337
  361SOL     OW 1834   0.473   0.500   2.053
  361SOL    HW1 1835   0.534   0.580   2.057
  361SOL    HW2 1836   0.378   0.531   2.060
  362SOL     OW 1837   0.159   1.137   3.328
  362SOL    HW1 1838   0.181   1.076   3.404
  362SOL    HW2 1839   0.169   1.088   3.242
  363SOL     OW 1840   1.347   1.059   3.096
  363SOL    HW1 1841   1.371   0.996   3.022
  363SOL    HW2 1842   1.257   1.099   3.078
  364SOL     OW 1843   1.302   0.855   2.171
  364SOL    HW1 1844   1.216   0.824   2.213
  364SOL    HW2 1845   1.298   0.841   2.072
  365SOL     OW 1846   1.759   1.747   3.016
  365SOL    HW1 1847   1.820   1.777   2.943
  365SOL    HW2 1848   1.721   1.658   2.994
  366SOL     OW 1849   1.252   1.731   2.990
  366SOL    HW1 1850   1.336   1.736   2.936
  366SOL    HW2 1851   1.229   1.635   3.008
  367SOL     OW 1852   0.083   1.258   2.884
  367SOL    HW1 1853   0.078   1.257   2.984
  367SOL    HW2 1854   0.000   1.217   2.846
  368SOL     OW 1855   0.688   1.662   3.578
  368SOL    HW1 1856   0.632   1.743   3.587
  368SOL    HW2 1857   0.740   1.666   3.492
  369SOL     OW 1858   1.726   0.135   2.385
  369SOL    HW1 1859   1.799   0.118   2.318
  369SOL    HW2 1860   1.695   0.048   2.423
  370SOL     OW 1861   1.388   1.573   2.339
  370SOL    HW1 1862   1.455   1.585   2.265
  370SOL    HW2 1863   1.348   1.662   2.362
  371SOL     OW 1864   0.130   1.794   3.713
  371SOL    HW1 1865   0.089   1.720   3.766
  371SOL    HW2 1866   0.194   1.845   3.771
  372SOL     OW 1867   1.280   0.927   2.534
  372SOL    HW1 1868   1.340   0.846   2.536
  372SOL    HW2 1869   1.320   0.996   2.474
  373SOL     OW 1870   0.830   1.273   3.284
  373SOL    HW1 1871   0.825   1.306   3.379
  373SOL    HW2 1872   0.744   1.292   3.238
  374SOL     OW 1873   0.672   1.616   2.016
  374SOL    HW1 1874   0.681   1.626   1.917
  374SOL    HW2 1875   0.632   1.527   2.037
  375SOL     OW 1876   1.650   1.720   3.256
  375SOL    HW1 1877   1.703   1.730   3.172
  375SOL    HW2 1878   1.623   1.810   3.290
  376SOL     OW 1879   1.841   0.175   2.825
  376SOL    HW1 1880   1.880   0.090   2.789
  376SOL    HW2 1881   1.743   0.177   2.806
  377SOL     OW 1882   0.263   0.326   2.582
  377SOL    HW1 1883   0.184   0.377   2.548
  377SOL    HW2 1884   0.254   0.311   2.680
  378SOL     OW 1885   1.194   1.612   1.893
  378SOL    HW1 1886   1.200   1.519   1.930
  378SOL    HW2 1887   1.135   1.612   1.813
  379SOL     OW 1888   0.822   1.002   3.234
  379SOL    HW1 1889   0.862   1.001   3.142
  379SOL    HW2 1890   0.832   1.094   3.274
  380SOL     OW 1891   0.916   0.910   2.153
  380SOL    HW1 1892   0.979   0.948   2.085
  380SOL    HW2 1893   0.956   0.827   2.192
  381SOL     OW 1894   1.504   1.607   1.906
  381SOL    HW1 1895   1.412   1.644   1.913
  381SOL    HW2 1896   1.542   1.627   1.816
  382SOL     OW 1897   0.372   1.288   3.352
  382SOL    HW1 1898   0.359   1.381   3.318
  382SOL    HW2 1899   0.288   1.236   3.339
  383SOL     OW 1900   1.614   1.292   3.151
  383SOL    HW1 1901   1.674   1.295   3.231
  383SOL    HW2 1902   1.539   1.356   3.164
  384SOL     OW 1903   1.039   1.098   2.558
  384SOL    HW1 1904   0.969   1.051   2.612
  384SOL    HW2 1905   1.098   1.030   2.515
  385SOL     OW 1906   1.014   0.236   2.833
  385SOL    HW1 1907   1.006   0.200   2.740
  385SOL    HW2 1908   1.012   0.160   2.898
  386SOL     OW 1909   0.590   1.487   2.353
  386SOL    HW1 1910   0.632   1.429   2.283
  386SOL    HW2 1911   0.546   1.566   2.309
  387SOL     OW 1912   1.709   0.385   3.243
  387SOL    HW1 1913   1.782   0.454   3.247
  387SOL    HW2 1914   1.737   0.310   3.184
  388SOL     OW 1915   0.255   1.348   2.152
  388SOL    HW1 1916   0.159   1.349   2.125
  388SOL    HW2 1917   0.267   1.401   2.236
  389SOL     OW 1918   0.105   1.013   3.588
  389SOL    HW1 1919   0.028   0.980   3.642
  389SOL    HW2 1920   0.190   0.983   3.630
  390SOL     OW 1921   0.672   0.203   3.351
  390SOL    HW1 1922   0.762   0.187   3.311
  390SOL    HW2 1923   0.680   0.208   3.450
  391SOL     OW 1924   0.075   0.345   1.895
  391SOL    HW1 1925  -0.017   0.317   1.866
  391SOL    HW2 1926   0.106   0.422   1.839
  392SOL     OW 1927   1.440   0.856   3.260
  392SOL    HW1 1928   1.383   0.908   3.197
  392SOL    HW2 1929   1.536   0.868   3.236
  393SOL     OW 1930   0.072   0.166   2.180
  393SOL    HW1 1931   0.055   0.249   2.126
  393SOL    HW2 1932   0.162   0.129   2.158
  394SOL     OW 1933   1.183   1.335   1.981
  394SOL    HW1 1934   1.084   1.324   1.983
  394SOL    HW2 1935   1.217   1.350   2.074
  395SOL     OW 1936   0.613   0.842   3.293
  395SOL    HW1 1937   0.669   0.923   3.276
  395SOL    HW2 1938   0.672   0.762   3.296
  396SOL     OW 1939   1.493   1.767   2.821
  396SOL    HW1 1940   1.526   1.831   2.752
  396SOL    HW2 1941   1.559   1.761   2.896
  397SOL     OW 1942   0.716   0.565   3.570
  397SOL    HW1 1943   0.735   0.630   3.644
  397SOL    HW2 1944   0.776   0.485   3.579
  398SOL     OW 1945   1.450   1.220   3.495
  398SOL    HW1 1946   1.441   1.210   3.594
  398SOL    HW2 1947   1.546   1.213   3.469
  399SOL     OW 1948   0.390   1.741   3.422
  399SOL    HW1 1949   0.299   1.782   3.420
  399SOL    HW2 1950   0.383   1.647   3.454
  400SOL     OW 1951   1.674   0.883   3.116
  400SOL    HW1 1952   1.647   0.794   3.079
  400SOL    HW2 1953   1.675   0.951   3.043
  401SOL     OW 1954   1.225   0.325   2.311
  401SOL    HW1 1955   1.290   0.251   2.300
  401SOL    HW2 1956   1.245   0.375   2.395
  402SOL     OW 1957   0.594   0.745   2.514
  402SOL    HW1 1958   0.644   0.830   2.495
  402SOL    HW2 1959   0.506   0.747   2.466
  403SOL     OW 1960   1.777   0.342   3.504
  403SOL    HW1 1961   1.760   0.373   3.410
  403SOL    HW2 1962   1.693   0.305   3.542
  404SOL     OW 1963   1.730   0.934   3.379
  404SOL    HW1 1964   1.768   1.025   3.394
  404SOL    HW2 1965   1.722   0.917   3.280
  405SOL     OW 1966   0.859   1.374   1.878
  405SOL    HW1 1967   0.813   1.389   1.966
  405SOL    HW2 1968   0.903   1.459   1.848
  406SOL     OW 1969   0.661   1.790   2.815
  406SOL    HW1 1970   0.615   1.878   2.802
  406SOL    HW2 1971   0.760   1.802   2.808
  407SOL     OW 1972   0.859   0.956   2.723
  407SOL    HW1 1973   0.913   0.887   2.771
  407SOL    HW2 1974   0.827   1.025   2.789
  408SOL     OW 1975   1.083   0.984   1.949
  408SOL    HW1 1976   1.060   1.037   1.867
  408SOL    HW2 1977   1.164   0.928   1.930
  409SOL     OW 1978   1.861   1.569   2.713
  409SOL    HW1 1979   1.790   1.557   2.643
  409SOL    HW2 1980   1.862   1.490   2.773
  410SOL     OW 1981   0.221   1.314   3.706
  410SOL    HW1 1982   0.156   1.241   3.685
  410SOL    HW2 1983   0.225   1.328   3.804
  411SOL     OW 1984   0.079   1.240   2.515
  411SOL    HW1 1985   0.078   1.193   2.603
  411SOL    HW2 1986   0.161   1.212   2.464
  412SOL     OW 1987   0.672   1.391   3.486
  412SOL    HW1 1988   0.594   1.341   3.524
  412SOL    HW2 1989   0.669   1.486   3.517
  413SOL     OW 1990   1.824   0.192   3.089
  413SOL    HW1 1991   1.820   0.102   3.133
  413SOL    HW2 1992   1.827   0.181   2.990
  414SOL     OW 1993   0.428   0.424   2.382
  414SOL    HW1 1994   0.458   0.352   2.320
  414SOL    HW2 1995   0.389   0.384   2.465
  415SOL     OW 1996   1.705   1.487   2.966
  415SOL    HW1 1997   1.612   1.462   2.939
  415SOL    HW2 1998   1.731   1.437   3.048
  416SOL     OW 1999   0.317   0.547   3.142
  416SOL    HW1 2000   0.355   0.488   3.214
  416SOL    HW2 2001   0.357   0.521   3.054
  417SOL     OW 2002   0.812   1.586   2.549
  417SOL    HW1 2003   0.844   1.596   2.455
  417SOL    HW2 2004   0.733   1.524   2.551
  418SOL     OW 2005   1.424   0.214   2.974
  418SOL    HW1 2006   1.476   0.149   3.029
  418SOL    HW2 2007   1.375   0.277   3.035
  419SOL     OW 2008   1.001   0.034   3.016
  419SOL    HW1 2009   0.938  -0.038   2.985
  419SOL    HW2 2010   1.094  -0.002   3.016
  420SOL     OW 2011   0.770   1.330   2.163
  420SOL    HW1 2012   0.724   1.243   2.180
  420SOL    HW2 2013   0.861   1.327   2.204
  421SOL     OW 2014   0.618   1.567   3.146
  421SOL    HW1 2015   0.613   1.649   3.203
  421SOL    HW2 2016   0.707   1.564   3.101
  422SOL     OW 2017   1.352   0.052   2.030
  422SOL    HW1 2018   1.387   0.011   1.946
  422SOL    HW2 2019   1.262   0.014   2.050
  423SOL     OW 2020   1.300   0.453   2.553
  423SOL    HW1 2021   1.241   0.533   2.557
  423SOL    HW2 2022   1.315   0.418   2.646
  424SOL     OW 2023   1.593   0.221   2.744
  424SOL    HW1 2024   1.509   0.220   2.798
  424SOL    HW2 2025   1.595   0.304   2.688
  425SOL     OW 2026   0.039   1.077   2.162
  425SOL    HW1 2027   0.138   1.066   2.153
  425SOL    HW2 2028  -0.001   0.991   2.194
  426SOL     OW 2029   0.875   1.646   2.199
  426SOL    HW1 2030   0.798   1.611   2.145
  426SOL    HW2 2031   0.843   1.717   2.261
  427SOL     OW 2032   0.230   0.628   3.837
  427SOL    HW1 2033   0.137   0.626   3.874
  427SOL    HW2 2034   0.231   0.589   3.745
  428SOL     OW 2035   0.225   0.275   4.720
  428SOL    HW1 2036   0.260   0.258   4.812
  428SOL    HW2 2037   0.137   0.230   4.708
  429SOL     OW 2038   0.019   0.368   4.371
  429SOL    HW1 2039  -0.063   0.411   4.410
  429SOL    HW2 2040  -0.009   0.295   4.308
  430SOL     OW 2041   0.569   1.275   4.889
  430SOL    HW1 2042   0.476   1.268   4.852
  430SOL    HW2 2043   0.580   1.364   4.933
  431SOL     OW 2044   1.555   1.511   4.427
  431SOL    HW1 2045   1.498   1.495   4.508
  431SOL    HW2 2046   1.496   1.521   4.347
  432SOL     OW 2047   1.135   0.703   4.441
  432SOL    HW1 2048   1.192   0.781   4.416
  432SOL    HW2 2049   1.075   0.729   4.517
  433SOL     OW 2050   1.755   0.607   3.955
  433SOL    HW1 2051   1.743   0.594   3.856
  433SOL    HW2 2052   1.725   0.526   4.004
  434SOL     OW 2053   0.768   1.144   4.747
  434SOL    HW1 2054   0.690   1.161   4.807
  434SOL    HW2 2055   0.802   1.231   4.711
  435SOL     OW 2056   0.850   0.798   5.547
  435SOL    HW1 2057   0.846   0.874   5.612
  435SOL    HW2 2058   0.872   0.834   5.456
  436SOL     OW 2059   0.685   1.012   4.389
  436SOL    HW1 2060   0.754   0.996   4.459
  436SOL    HW2 2061   0.612   1.069   4.427
  437SOL     OW 2062   0.686   1.161   5.527
  437SOL    HW1 2063   0.746   1.240   5.541
  437SOL    HW2 2064   0.600   1.192   5.486
  438SOL     OW 2065   0.335   1.435   4.785
  438SOL    HW1 2066   0.257   1.404   4.732
  438SOL    HW2 2067   0.393   1.493   4.728
  439SOL     OW 2068   1.460   1.505   5.063
  439SOL    HW1 2069   1.484   1.599   5.089
  439SOL    HW2 2070   1.444   1.451   5.145
  440SOL     OW 2071   0.438   0.392   5.223
  440SOL    HW1 2072   0.520   0.336   5.232
  440SOL    HW2 2073   0.357   0.334   5.227
  441SOL     OW 2074   1.603   0.447   4.461
  441SOL    HW1 2075   1.529   0.493   4.411
  441SOL    HW2 2076   1.654   0.515   4.514
  442SOL     OW 2077   0.231   1.713   4.207
  442SOL    HW1 2078   0.265   1.790   4.261
  442SOL    HW2 2079   0.275   1.713   4.117
  443SOL     OW 2080   1.127   1.341   5.414
  443SOL    HW1 2081   1.174   1.341   5.502
  443SOL    HW2 2082   1.079   1.254   5.403
  444SOL     OW 2083   0.230   1.434   4.262
  444SOL    HW1 2084   0.204   1.530   4.262
  444SOL    HW2 2085   0.159   1.380   4.307
  445SOL     OW 2086   0.240   1.091   4.610
  445SOL    HW1 2087   0.254   1.007   4.662
  445SOL    HW2 2088   0.185   1.155   4.665
  446SOL     OW 2089   0.620   1.786   5.163
  446SOL    HW1 2090   0.528   1.769   5.198
  446SOL    HW2 2091   0.648   1.878   5.189
  447SOL     OW 2092   0.606   0.964   3.847
  447SOL    HW1 2093   0.613   1.048   3.793
  447SOL    HW2 2094   0.652   0.977   3.935
  448SOL     OW 2095   1.594   0.114   5.204
  448SOL    HW1 2096   1.576   0.181   5.132
  448SOL    HW2 2097   1.591   0.160   5.293
  449SOL     OW 2098   0.122   0.643   4.287
  449SOL    HW1 2099   0.077   0.555   4.304
  449SOL    HW2 2100   0.121   0.697   4.371
  450SOL     OW 2101   1.842   1.767   4.083
  450SOL    HW1 2102   1.896   1.738   4.163
  450SOL    HW2 2103   1.872   1.857   4.054
  451SOL     OW 2104   0.027   1.596   3.841
  451SOL    HW1 2105   0.008   1.500   3.862
  451SOL    HW2 2106  -0.006   1.654   3.916
  452SOL     OW 2107   1.689   0.922   4.336
  452SOL    HW1 2108   1.784   0.893   4.344
  452SOL    HW2 2109   1.681   0.987   4.261
  453SOL     OW 2110   1.641   1.108   4.156
  453SOL    HW1 2111   1.727   1.110   4.104
  453SOL    HW2 2112   1.655   1.155   4.244
  454SOL     OW 2113   0.113   0.737   5.321
  454SOL    HW1 2114   0.201   0.724   5.366
  454SOL    HW2 2115   0.100   0.834   5.299
  455SOL     OW 2116   0.613   1.365   4.450
  455SOL    HW1 2117   0.564   1.278   4.459
  455SOL    HW2 2118   0.590   1.408   4.363
  456SOL     OW 2119   1.293   1.228   5.147
  456SOL    HW1 2120   1.330   1.155   5.089
  456SOL    HW2 2121   1.345   1.233   5.232
  457SOL     OW 2122   0.809   0.004   4.226
  457SOL    HW1 2123   0.849   0.095   4.217
  457SOL    HW2 2124   0.709   0.012   4.232
  458SOL     OW 2125   0.197   0.976   4.988
  458SOL    HW1 2126   0.286   0.931   4.974
  458SOL    HW2 2127   0.124   0.911   4.969
  459SOL     OW 2128   1.525   0.999   3.914
  459SOL    HW1 2129   1.462   0.923   3.927
  459SOL    HW2 2130   1.573   1.017   4.000
  460SOL     OW 2131   1.187   1.792   5.340
  460SOL    HW1 2132   1.211   1.852   5.264
  460SOL    HW2 2133   1.194   1.697   5.310
  461SOL     OW 2134   0.317   0.251   5.525
  461SOL    HW1 2135   0.388   0.322   5.531
  461SOL    HW2 2136   0.229   0.290   5.553
  462SOL     OW 2137   1.466   1.417   4.677
  462SOL    HW1 2138   1.407   1.423   4.757
  462SOL    HW2 2139   1.451   1.329   4.631
  463SOL     OW 2140   1.667   1.714   4.296
  463SOL    HW1 2141   1.626   1.691   4.208
  463SOL    HW2 2142   1.649   1.640   4.361
  464SOL     OW 2143   0.598   0.729   3.994
  464SOL    HW1 2144   0.622   0.798   3.926
  464SOL    HW2 2145   0.520   0.762   4.048
  465SOL     OW 2146   1.281   0.345   4.668
  465SOL    HW1 2147   1.195   0.295   4.655
  465SOL    HW2 2148   1.343   0.291   4.724
  466SOL     OW 2149   1.576   1.662   4.031
  466SOL    HW1 2150   1.665   1.708   4.034
  466SOL    HW2 2151   1.555   1.638   3.936
  467SOL     OW 2152   0.807   0.605   5.189
  467SOL    HW1 2153   0.760   0.602   5.278
  467SOL    HW2 2154   0.756   0.550   5.123
  468SOL     OW 2155   1.394   0.469   5.398
  468SOL    HW1 2156   1.374   0.512   5.486
  468SOL    HW2 2157   1.472   0.407   5.407
  469SOL     OW 2158   0.973   0.890   5.296
  469SOL    HW1 2159   1.019   0.806   5.267
  469SOL    HW2 2160   0.917   0.924   5.221
  470SOL     OW 2161   0.991   0.410   4.966
  470SOL    HW1 2162   0.914   0.444   5.020
  470SOL    HW2 2163   0.957   0.359   4.887
  471SOL     OW 2164   1.041   0.701   4.153
  471SOL    HW1 2165   1.067   0.697   4.249
  471SOL    HW2 2166   0.956   0.650   4.139
  472SOL     OW 2167   0.076   0.811   4.513
  472SOL    HW1 2168   0.175   0.799   4.522
  472SOL    HW2 2169   0.052   0.906   4.534
  473SOL     OW 2170   0.130   1.821   5.295
  473SOL    HW1 2171   0.120   1.806   5.394
  473SOL    HW2 2172   0.044   1.857   5.259
  474SOL     OW 2173   0.865   0.348   3.919
  474SOL    HW1 2174   0.924   0.411   3.870
  474SOL    HW2 2175   0.884   0.254   3.890
  475SOL     OW 2176   1.719   0.585   5.555
  475SOL    HW1 2177   1.693   0.674   5.519
  475SOL    HW2 2178   1.717   0.517   5.482
  476SOL     OW 2179   1.362   1.144   4.269
  476SOL    HW1 2180   1.445   1.115   4.221
  476SOL    HW2 2181   1.313   1.211   4.213
  477SOL     OW 2182   0.550   0.196   4.609
  477SOL    HW1 2183   0.545   0.191   4.709
  477SOL    HW2 2184   0.552   0.292   4.580
  478SOL     OW 2185   1.008   1.456   4.201
  478SOL    HW1 2186   0.962   1.528   4.149
  478SOL    HW2 2187   1.004   1.476   4.299
  479SOL     OW 2188   0.351   1.801   4.577
  479SOL    HW1 2189   0.401   1.715   4.583
  479SOL    HW2 2190   0.416   1.878   4.574
  480SOL     OW 2191   1.795   1.066   4.597
  480SOL    HW1 2192   1.733   1.051   4.521
  480SOL    HW2 2193   1.743   1.077   4.682
  481SOL     OW 2194   1.227   1.550   5.230
  481SOL    HW1 2195   1.233   1.473   5.294
  481SOL    HW2 2196   1.175   1.524   5.150
  482SOL     OW 2197   0.321   0.943   3.966
  482SOL    HW1 2198   0.403   0.982   3.924
  482SOL    HW2 2199   0.294   0.861   3.917
  483SOL     OW 2200   1.458   0.735   4.452
  483SOL    HW1 2201   1.453   0.670   4.527
  483SOL    HW2 2202   1.538   0.794   4.465
  484SOL     OW 2203   0.461   1.266   5.451
  484SOL    HW1 2204   0.411   1.267   5.365
  484SOL    HW2 2205   0.398   1.248   5.527
  485SOL     OW 2206   1.111   1.776   3.961
  485SOL    HW1 2207   1.051   1.714   4.011
  485SOL    HW2 2208   1.142   1.732   3.876
  486SOL     OW 2209   0.202   0.285   5.222
  486SOL    HW1 2210   0.122   0.345   5.209
  486SOL    HW2 2211   0.192   0.236   5.308
  487SOL     OW 2212   1.632   1.377   3.805
  487SOL    HW1 2213   1.600   1.471   3.795
  487SOL    HW2 2214   1.556   1.314   3.793
  488SOL     OW 2215   0.464   1.743   4.047
  488SOL    HW1 2216   0.497   1.782   4.133
  488SOL    HW2 2217   0.540   1.736   3.982
  489SOL     OW 2218   1.400   0.107   4.150
  489SOL    HW1 2219   1.376   0.070   4.060
  489SOL    HW2 2220   1.499   0.123   4.154
  490SOL     OW 2221   0.249   1.785   4.965
  490SOL    HW1 2222   0.306   1.720   5.015
  490SOL    HW2 2223   0.233   1.752   4.872
  491SOL     OW 2224   0.940   1.698   4.628
  491SOL    HW1 2225   1.020   1.641   4.649
  491SOL    HW2 2226   0.891   1.658   4.551
  492SOL     OW 2227   0.382   0.700   4.204
  492SOL    HW1 2228   0.427   0.610   4.201
  492SOL    HW2 2229   0.288   0.689   4.237
  493SOL     OW 2230   1.547   0.222   5.453
  493SOL    HW1 2231   1.542   0.259   5.545
  493SOL    HW2 2232   1.475   0.153   5.441
  494SOL     OW 2233   0.614   0.122   3.841
  494SOL    HW1 2234   0.712   0.100   3.848
  494SOL    HW2 2235   0.583   0.105   3.748
  495SOL     OW 2236   0.781   0.264   5.473
  495SOL    HW1 2237   0.848   0.203   5.516
  495SOL    HW2 2238   0.708   0.283   5.538
  496SOL     OW 2239   0.888   1.514   4.919
  496SOL    HW1 2240   0.865   1.489   4.825
  496SOL    HW2 2241   0.949   1.445   4.958
  497SOL     OW 2242   1.351   0.590   5.157
  497SOL    HW1 2243   1.379   0.547   5.242
  497SOL    HW2 2244   1.376   0.686   5.158
  498SOL     OW 2245   0.803   1.402   4.648
  498SOL    HW1 2246   0.893   1.416   4.606
  498SOL    HW2 2247   0.732   1.404   4.577
  499SOL     OW 2248   0.922   0.503   4.623
  499SOL    HW1 2249   0.897   0.494   4.527
  499SOL    HW2 2250   0.970   0.421   4.654
  500SOL     OW 2251   0.539   0.064   4.236
  500SOL    HW1 2252   0.458   0.065   4.294
  500SOL    HW2 2253   0.542   0.147   4.181
  501SOL     OW 2254   1.434   1.188   3.765
  501SOL    HW1 2255   1.466   1.112   3.822
  501SOL    HW2 2256   1.342   1.215   3.795
  502SOL     OW 2257   0.297   0.035   3.895
  502SOL    HW1 2258   0.346   0.119   3.874
  502SOL    HW2 2259   0.359  -0.030   3.940
  503SOL     OW 2260   0.935   0.236   4.204
  503SOL    HW1 2261   0.887   0.277   4.126
  503SOL    HW2 2262   1.034   0.234   4.185
  504SOL     OW 2263   1.076   0.683   5.188
  504SOL    HW1 2264   0.996   0.622   5.191
  504SOL    HW2 2265   1.157   0.630   5.164
  505SOL     OW 2266   1.227   1.570   4.517
  505SOL    HW1 2267   1.248   1.644   4.452
  505SOL    HW2 2268   1.295   1.570   4.590
  506SOL     OW 2269   0.459   1.152   4.465
  506SOL    HW1 2270   0.388   1.125   4.530
  506SOL    HW2 2271   0.433   1.124   4.372
  507SOL     OW 2272   1.271   1.797   4.315
  507SOL    HW1 2273   1.315   1.861   4.251
  507SOL    HW2 2274   1.221   1.849   4.385
  508SOL     OW 2275   1.032   0.549   3.740
  508SOL    HW1 2276   0.991   0.631   3.701
  508SOL    HW2 2277   1.096   0.575   3.813
  509SOL     OW 2278   0.078   0.556   5.110
  509SOL    HW1 2279   0.170   0.555   5.069
  509SOL    HW2 2280   0.072   0.630   5.177
  510SOL     OW 2281   0.561   0.222   4.871
  510SOL    HW1 2282   0.599   0.138   4.908
  510SOL    HW2 2283   0.473   0.241   4.915
  511SOL     OW 2284   0.866   0.454   4.366
  511SOL    HW1 2285   0.834   0.526   4.304
  511SOL    HW2 2286   0.890   0.373   4.313
  512SOL     OW 2287   1.017   0.039   4.477
  512SOL    HW1 2288   0.945   0.044   4.408
  512SOL    HW2 2289   0.993  -0.030   4.546
  513SOL     OW 2290   1.429   1.173   4.591
  513SOL    HW1 2291   1.374   1.089   4.584
  513SOL    HW2 2292   1.455   1.202   4.499
  514SOL     OW 2293   1.466   0.590   4.716
  514SOL    HW1 2294   1.436   0.495   4.723
  514SOL    HW2 2295   1.539   0.606   4.782
  515SOL     OW 2296   1.857   0.833   4.101
  515SOL    HW1 2297   1.899   0.769   4.165
  515SOL    HW2 2298   1.819   0.782   4.023
  516SOL     OW 2299   0.488   1.385   3.898
  516SOL    HW1 2300   0.401   1.370   3.945
  516SOL    HW2 2301   0.471   1.411   3.803
  517SOL     OW 2302   1.664   1.280   4.381
  517SOL    HW1 2303   1.763   1.288   4.395
  517SOL    HW2 2304   1.619   1.364   4.412
  518SOL     OW 2305   1.390   0.575   3.802
  518SOL    HW1 2306   1.336   0.554   3.883
  518SOL    HW2 2307   1.481   0.534   3.811
  519SOL     OW 2308   0.527   0.256   4.052
  519SOL    HW1 2309   0.554   0.197   3.977
  519SOL    HW2 2310   0.527   0.351   4.021
  520SOL     OW 2311   1.754   1.223   5.312
  520SOL    HW1 2312   1.845   1.184   5.299
  520SOL    HW2 2313   1.762   1.319   5.336
  521SOL     OW 2314   1.064   1.347   5.064
  521SOL    HW1 2315   0.984   1.324   5.119
  521SOL    HW2 2316   1.147   1.321   5.113
  522SOL     OW 2317   1.592   1.629   5.349
  522SOL    HW1 2318   1.619   1.663   5.259
  522SOL    HW2 2319   1.671   1.591   5.395
  523SOL     OW 2320   1.111   1.195   4.824
  523SOL    HW1 2321   1.071   1.239   4.905
  523SOL    HW2 2322   1.070   1.232   4.741
  524SOL     OW 2323   1.638   1.099   4.803
  524SOL    HW1 2324   1.643   1.180   4.862
  524SOL    HW2 2325   1.552   1.101   4.752
  525SOL     OW 2326   0.915   0.089   5.126
  525SOL    HW1 2327   0.940   0.069   5.031
  525SOL    HW2 2328   0.987   0.145   5.168
  526SOL     OW 2329   0.980   1.116   5.443
  526SOL    HW1 2330   0.881   1.122   5.453
  526SOL    HW2 2331   1.003   1.036   5.387
  527SOL     OW 2332   0.705   1.050   4.092
  527SOL    HW1 2333   0.691   1.057   4.191
  527SOL    HW2 2334   0.789   0.999   4.074
  528SOL     OW 2335   0.410   0.813   4.975
  528SOL    HW1 2336   0.496   0.825   5.025
  528SOL    HW2 2337   0.368   0.726   5.002
  529SOL     OW 2338   1.274   0.386   4.986
  529SOL    HW1 2339   1.295   0.460   5.050
  529SOL    HW2 2340   1.185   0.403   4.943
  530SOL     OW 2341   0.064   1.564   5.055
  530SOL    HW1 2342   0.018   1.646   5.021
  530SOL    HW2 2343   0.162   1.583   5.064
  531SOL     OW 2344   0.367   1.100   4.225
  531SOL    HW1 2345   0.360   1.183   4.169
  531SOL    HW2 2346   0.371   1.020   4.165
  532SOL     OW 2347   0.566   0.537   4.589
  532SOL    HW1 2348   0.578   0.603   4.515
  532SOL    HW2 2349   0.612   0.571   4.672
  533SOL     OW 2350   1.252   1.348   4.112
  533SOL    HW1 2351   1.302   1.425   4.152
  533SOL    HW2 2352   1.157   1.350   4.144
  534SOL     OW 2353   1.272   1.445   4.866
  534SOL    HW1 2354   1.319   1.458   4.953
  534SOL    HW2 2355   1.206   1.371   4.875
  535SOL     OW 2356   1.582   0.639   4.196
  535SOL    HW1 2357   1.551   0.700   4.269
  535SOL    HW2 2358   1.632   0.691   4.127
  536SOL     OW 2359   0.354   1.510   5.053
  536SOL    HW1 2360   0.333   1.466   4.966
  536SOL    HW2 2361   0.451   1.536   5.056
  537SOL     OW 2362   0.402   0.751   5.322
  537SOL    HW1 2363   0.470   0.806   5.275
  537SOL    HW2 2364   0.442   0.663   5.349
  538SOL     OW 2365   1.587   0.779   5.394
  538SOL    HW1 2366   1.495   0.817   5.389
  538SOL    HW2 2367   1.647   0.826   5.329
  539SOL     OW 2368   1.013   0.105   5.494
  539SOL    HW1 2369   1.019   0.190   5.442
  539SOL    HW2 2370   1.045   0.029   5.437
  540SOL     OW 2371   0.504   0.050   5.464
  540SOL    HW1 2372   0.462  -0.007   5.394
  540SOL    HW2 2373   0.438   0.119   5.496
  541SOL     OW 2374   0.573   0.870   4.753
  541SOL    HW1 2375   0.617   0.959   4.744
  541SOL    HW2 2376   0.510   0.870   4.830
  542SOL     OW 2377   1.360   0.862   4.769
  542SOL    HW1 2378   1.285   0.862   4.703
  542SOL    HW2 2379   1.397   0.770   4.778
  543SOL     OW 2380   1.209   0.525   3.999
  543SOL    HW1 2381   1.222   0.441   4.053
  543SOL    HW2 2382   1.180   0.599   4.059
  544SOL     OW 2383   0.307   0.213   4.955
  544SOL    HW1 2384   0.284   0.250   5.045
  544SOL    HW2 2385   0.277   0.118   4.949
  545SOL     OW 2386   0.037   1.310   5.006
  545SOL    HW1 2387   0.090   1.261   5.074
  545SOL    HW2 2388   0.059   1.408   5.011
  546SOL     OW 2389   0.732   0.634   4.788
  546SOL    HW1 2390   0.791   0.608   4.712
  546SOL    HW2 2391   0.704   0.730   4.777
  547SOL     OW 2392   1.728   0.935   5.578
  547SOL    HW1 2393   1.682   0.928   5.489
  547SOL    HW2 2394   1.666   0.979   5.644
  548SOL     OW 2395   0.307   0.063   4.342
  548SOL    HW1 2396   0.296   0.157   4.375
  548SOL    HW2 2397   0.302   0.000   4.419
  549SOL     OW 2398   1.622   0.367   4.098
  549SOL    HW1 2399   1.624   0.291   4.162
  549SOL    HW2 2400   1.574   0.444   4.138
  550SOL     OW 2401   1.023   0.766   4.690
  550SOL    HW1 2402   1.038   0.787   4.786
  550SOL    HW2 2403   0.993   0.671   4.681
  551SOL     OW 2404   0.980   1.573   5.424
  551SOL    HW1 2405   0.960   1.617   5.336
  551SOL    HW2 2406   1.019   1.482   5.408
  552SOL     OW 2407   1.859   1.518   5.329
  552SOL    HW1 2408   1.873   1.545   5.234
  552SOL    HW2 2409   1.942   1.540   5.382
  553SOL     OW 2410   0.350   0.898   5.528
  553SOL    HW1 2411   0.426   0.942   5.576
  553SOL    HW2 2412   0.385   0.851   5.446
  554SOL     OW 2413   1.540   0.274   3.849
  554SOL    HW1 2414   1.479   0.199   3.872
  554SOL    HW2 2415   1.562   0.326   3.932
  555SOL     OW 2416   1.303   0.838   3.766
  555SOL    HW1 2417   1.337   0.745   3.781
  555SOL    HW2 2418   1.321   0.865   3.671
  556SOL     OW 2419   1.068   1.333   4.573
  556SOL    HW1 2420   1.075   1.249   4.518
  556SOL    HW2 2421   1.130   1.402   4.537
  557SOL     OW 2422   0.319   0.810   4.673
  557SOL    HW1 2423   0.412   0.846   4.678
  557SOL    HW2 2424   0.313   0.725   4.725
  558SOL     OW 2425   0.339   0.509   4.730
  558SOL    HW1 2426   0.287   0.426   4.713
  558SOL    HW2 2427   0.416   0.514   4.666
  559SOL     OW 2428   1.138   0.380   5.402
  559SOL    HW1 2429   1.093   0.443   5.466
  559SOL    HW2 2430   1.231   0.411   5.385
  560SOL     OW 2431   1.160   0.207   5.201
  560SOL    HW1 2432   1.160   0.271   5.278
  560SOL    HW2 2433   1.188   0.255   5.118
  561SOL     OW 2434   0.008   1.326   3.924
  561SOL    HW1 2435  -0.085   1.347   3.893
  561SOL    HW2 2436   0.018   1.227   3.937
  562SOL     OW 2437   0.088   1.801   4.651
  562SOL    HW1 2438   0.046   1.715   4.624
  562SOL    HW2 2439   0.182   1.804   4.617
  563SOL     OW 2440   0.504   1.568   4.634
  563SOL    HW1 2441   0.570   1.642   4.643
  563SOL    HW2 2442   0.548   1.489   4.592
  564SOL     OW 2443   1.002   0.796   4.962
  564SOL    HW1 2444   1.043   0.764   5.048
  564SOL    HW2 2445   0.906   0.769   4.959
  565SOL     OW 2446   0.040   0.544   4.838
  565SOL    HW1 2447   0.125   0.511   4.797
  565SOL    HW2 2448   0.053   0.559   4.936
  566SOL     OW 2449   0.189   0.520   5.446
  566SOL    HW1 2450   0.248   0.480   5.376
  566SOL    HW2 2451   0.131   0.591   5.405
  567SOL     OW 2452   1.369   0.950   5.384
  567SOL    HW1 2453   1.408   1.039   5.404
  567SOL    HW2 2454   1.379   0.930   5.287
  568SOL     OW 2455   0.815   0.572   4.049
  568SOL    HW1 2456   0.822   0.483   4.003
  568SOL    HW2 2457   0.721   0.606   4.041
  569SOL     OW 2458   1.657   0.604   4.930
  569SOL    HW1 2459   1.619   0.535   4.992
  569SOL    HW2 2460   1.739   0.568   4.886
  570SOL     OW 2461   0.252   1.564   5.468
  570SOL    HW1 2462   0.222   1.621   5.544
  570SOL    HW2 2463   0.245   1.467   5.494
  571SOL     OW 2464   0.671   0.464   4.993
  571SOL    HW1 2465   0.637   0.375   4.963
  571SOL    HW2 2466   0.697   0.518   4.913
  572SOL     OW 2467   0.930   1.678   5.189
  572SOL    HW1 2468   0.906   1.660   5.094
  572SOL    HW2 2469   0.960   1.772   5.199
  573SOL     OW 2470   0.473   0.500   3.915
  573SOL    HW1 2471   0.534   0.580   3.919
  573SOL    HW2 2472   0.378   0.531   3.922
  574SOL     OW 2473   0.159   1.137   5.190
  574SOL    HW1 2474   0.181   1.076   5.266
  574SOL    HW2 2475   0.169   1.088   5.104
  575SOL     OW 2476   1.347   1.059   4.958
  575SOL    HW1 2477   1.371   0.996   4.884
  575SOL    HW2 2478   1.257   1.099   4.940
  576SOL     OW 2479   1.302   0.855   4.033
  576SOL    HW1 2480   1.216   0.824   4.075
  576SOL    HW2 2481   1.298   0.841   3.934
  577SOL     OW 2482   1.252   1.731   4.852
  577SOL    HW1 2483   1.336   1.736   4.798
  577SOL    HW2 2484   1.229   1.635   4.870
  578SOL     OW 2485   0.083   1.258   4.746
  578SOL    HW1 2486   0.078   1.257   4.846
  578SOL    HW2 2487   0.000   1.217   4.708
  579SOL     OW 2488   0.688   1.662   5.440
  579SOL    HW1 2489   0.632   1.743   5.449
  579SOL    HW2 2490   0.740   1.666   5.354
  580SOL     OW 2491   1.726   0.135   4.247
  580SOL    HW1 2492   1.799   0.118   4.180
  580SOL    HW2 2493   1.695   0.048   4.285
  581SOL     OW 2494   1.388   1.573   4.201
  581SOL    HW1 2495   1.455   1.585   4.127
  581SOL    HW2 2496   1.348   1.662   4.224
  582SOL     OW 2497   0.130   1.794   5.575
  582SOL    HW1 2498   0.089   1.720   5.628
  582SOL    HW2 2499   0.194   1.845   5.633
  583SOL     OW 2500   1.280   0.927   4.396
  583SOL    HW1 2501   1.340   0.846   4.398
  583SOL    HW2 2502   1.320   0.996   4.336
  584SOL     OW 2503   0.830   1.273   5.146
  584SOL    HW1 2504   0.825   1.306   5.241
  584SOL    HW2 2505   0.744   1.292   5.100
  585SOL     OW 2506   0.672   1.616   3.878
  585SOL    HW1 2507   0.681   1.626   3.779
  585SOL    HW2 2508   0.632   1.527   3.899
  586SOL     OW 2509   1.841   0.175   4.687
  586SOL    HW1 2510   1.880   0.090   4.651
  586SOL    HW2 2511   1.743   0.177   4.668
  587SOL     OW 2512   0.263   0.326   4.444
  587SOL    HW1 2513   0.184   0.377   4.410
  587SOL    HW2 2514   0.254   0.311   4.542
  588SOL     OW 2515   1.194   1.612   3.755
  588SOL    HW1 2516   1.200   1.519   3.792
  588SOL    HW2 2517   1.135   1.612   3.675
  589SOL     OW 2518   0.822   1.002   5.096
  589SOL    HW1 2519   0.862   1.001   5.004
  589SOL    HW2 2520   0.832   1.094   5.136
  590SOL     OW 2521   0.916   0.910   4.015
  590SOL    HW1 2522   0.979   0.948   3.947
  590SOL    HW2 2523   0.956   0.827   4.054
  591SOL     OW 2524   1.504   1.607   3.768
  591SOL    HW1 2525   1.412   1.644   3.775
  591SOL    HW2 2526   1.542   1.627   3.678
  592SOL     OW 2527   0.372   1.288   5.214
  592SOL    HW1 2528   0.359   1.381   5.180
  592SOL    HW2 2529   0.288   1.236   5.201
  593SOL     OW 2530   1.614   1.292   5.013
  593SOL    HW1 2531   1.674   1.295   5.093
  593SOL    HW2 2532   1.539   1.356   5.026
  594SOL     OW 2533   1.039   1.098   4.420
  594SOL    HW1 2534   0.969   1.051   4.474
  594SOL    HW2 2535   1.098   1.030   4.377
  595SOL     OW 2536   1.014   0.236   4.695
  595SOL    HW1 2537   1.006   0.200   4.602
  595SOL    HW2 2538   1.012   0.160   4.760
  596SOL     OW 2539   0.590   1.487   4.215
  596SOL    HW1 2540   0.632   1.429   4.145
  596SOL    HW2 2541   0.546   1.566   4.171
  597SOL     OW 2542   1.709   0.385   5.105
  597SOL    HW1 2543   1.782   0.454   5.109
  597SOL    HW2 2544   1.737   0.310   5.046
  598SOL     OW 2545   0.255   1.348   4.014
  598SOL    HW1 2546   0.159   1.349   3.987
  598SOL    HW2 2547   0.267   1.401   4.098
  599SOL     OW 2548   0.105   1.013   5.450
  599SOL    HW1 2549   0.028   0.980   5.504
  599SOL    HW2 2550   0.190   0.983   5.492
  600SOL     OW 2551   0.672   0.203   5.213
  600SOL    HW1 2552   0.762   0.187   5.173
  600SOL    HW2 2553   0.680   0.208   5.312
  601SOL     OW 2554   0.075   0.345   3.757
  601SOL    HW1 2555  -0.017   0.317   3.728
  601SOL    HW2 2556   0.106   0.422   3.701
  602SOL     OW 2557   1.440   0.856   5.122
  602SOL    HW1 2558   1.383   0.908   5.059
  602SOL    HW2 2559   1.536   0.868   5.098
  603SOL     OW 2560   0.072   0.166   4.042
  603SOL    HW1 2561   0.055   0.249   3.988
  603SOL    HW2 2562   0.162   0.129   4.020
  604SOL     OW 2563   1.183   1.335   3.843
  604SOL    HW1 2564   1.084   1.324   3.845
  604SOL    HW2 2565   1.217   1.350   3.936
  605SOL     OW 2566   0.613   0.842   5.155
  605SOL    HW1 2567   0.669   0.923   5.138
  605SOL    HW2 2568   0.672   0.762   5.158
  606SOL     OW 2569   0.716   0.565   5.432
  606SOL    HW1 2570   0.735   0.630   5.506
  606SOL    HW2 2571   0.776   0.485   5.441
  607SOL     OW 2572   1.450   1.220   5.357
  607SOL    HW1 2573   1.441   1.210   5.456
  607SOL    HW2 2574   1.546   1.213   5.331
  608SOL     OW 2575   0.390   1.741   5.284
  608SOL    HW1 2576   0.299   1.782   5.282
  608SOL    HW2 2577   0.383   1.647   5.316
  609SOL     OW 2578   1.674   0.883   4.978
  609SOL    HW1 2579   1.647   0.794   4.941
  609SOL    HW2 2580   1.675   0.951   4.905
  610SOL     OW 2581   1.225   0.325   4.173
  610SOL    HW1 2582   1.290   0.251   4.162
  610SOL    HW2 2583   1.245   0.375   4.257
  611SOL     OW 2584   0.594   0.745   4.376
  611SOL    HW1 2585   0.644   0.830   4.357
  611SOL    HW2 2586   0.506   0.747   4.328
  612SOL     OW 2587   1.777   0.342   5.366
  612SOL    HW1 2588   1.760   0.373   5.272
  612SOL    HW2 2589   1.693   0.305   5.404
  613SOL     OW 2590   1.730   0.934   5.241
  613SOL    HW1 2591   1.768   1.025   5.256
  613SOL    HW2 2592   1.722   0.917   5.142
  614SOL     OW 2593   0.859   1.374   3.740
  614SOL    HW1 2594   0.813   1.389   3.828
  614SOL    HW2 2595   0.903   1.459   3.710
  615SOL     OW 2596   0.661   1.790   4.677
  615SOL    HW1 2597   0.615   1.878   4.664
  615SOL    HW2 2598   0.760   1.802   4.670
  616SOL     OW 2599   0.859   0.956   4.585
  616SOL    HW1 2600   0.913   0.887   4.633
  616SOL    HW2 2601   0.827   1.025   4.651
  617SOL     OW 2602   1.083   0.984   3.811
  617SOL    HW1 2603   1.060   1.037   3.729
  617SOL    HW2 2604   1.164   0.928   3.792
  618SOL     OW 2605   1.861   1.569   4.575
  618SOL    HW1 2606   1.790   1.557   4.505
  618SOL    HW2 2607   1.862   1.490   4.635
  619SOL     OW 2608   0.221   1.314   5.568
  619SOL    HW1 2609   0.156   1.241   5.547
  619SOL    HW2 2610   0.225   1.328   5.666
  620SOL     OW 2611   0.079   1.240   4.377
  620SOL    HW1 2612   0.078   1.193   4.465
  620SOL    HW2 2613   0.161   1.212   4.326
  621SOL     OW 2614   0.672   1.391   5.348
  621SOL    HW1 2615   0.594   1.341   5.386
  621SOL    HW2 2616   0.669   1.486   5.379
  622SOL     OW 2617   1.824   0.192   4.951
  622SOL    HW1 2618   1.820   0.102   4.995
  622SOL    HW2 2619   1.827   0.181   4.852
  623SOL     OW 2620   0.428   0.424   4.244
  623SOL    HW1 2621   0.458   0.352   4.182
  623SOL    HW2 2622   0.389   0.384   4.327
  624SOL     OW 2623   1.705   1.487   4.828
  624SOL    HW1 2624   1.612   1.462   4.801
  624SOL    HW2 2625   1.731   1.437   4.910
  625SOL     OW 2626   0.317   0.547   5.004
  625SOL    HW1 2627   0.355   0.488   5.076
  625SOL    HW2 2628   0.357   0.521   4.916
  626SOL     OW 2629   0.812   1.586   4.411
  626SOL    HW1 2630   0.844   1.596   4.317
  626SOL    HW2 2631   0.733   1.524   4.413
  627SOL     OW 2632   1.424   0.214   4.836
  627SOL    HW1 2633   1.476   0.149   4.891
  627SOL    HW2 2634   1.375   0.277   4.897
  628SOL     OW 2635   1.001   0.034   4.878
  628SOL    HW1 2636   0.938  -0.038   4.847
  628SOL    HW2 2637   1.094  -0.002   4.878
  629SOL     OW 2638   0.770   1.330   4.025
  629SOL    HW1 2639   0.724   1.243   4.042
  629SOL    HW2 2640   0.861   1.327   4.066
  630SOL     OW 2641   0.618   1.567   5.008
  630SOL    HW1 2642   0.613   1.649   5.065
  630SOL    HW2 2643   0.707   1.564   4.963
  631SOL     OW 2644   1.352   0.052   3.892
  631SOL    HW1 2645   1.387   0.011   3.808
  631SOL    HW2 2646   1.262   0.014   3.912
  632SOL     OW 2647   1.300   0.453   4.415
  632SOL    HW1 2648   1.241   0.533   4.419
  632SOL    HW2 2649   1.315   0.418   4.508
  633SOL     OW 2650   1.593   0.221   4.606
  633SOL    HW1 2651   1.509   0.220   4.660
  633SOL    HW2 2652   1.595   0.304   4.550
  634SOL     OW 2653   0.039   1.077   4.024
  634SOL    HW1 2654   0.138   1.066   4.015
  634SOL    HW2 2655  -0.001   0.991   4.056
  635SOL     OW 2656   0.875   1.646   4.061
  635SOL    HW1 2657   0.798   1.611   4.007
  635SOL    HW2 2658   0.843   1.717   4.123
  636SOL     OW 2659   0.230   0.628   5.699
  636SOL    HW1 2660   0.137   0.626   5.736
  636SOL    HW2 2661   0.231   0.589   5.607
  637SOL     OW 2662   0.225   0.275   6.582
  637SOL    HW1 2663   0.260   0.258   6.674
  637SOL    HW2 2664   0.137   0.230   6.570
  638SOL     OW 2665   0.019   0.368   6.233
  638SOL    HW1 2666  -0.063   0.411   6.272
  638SOL    HW2 2667  -0.009   0.295   6.170
  639SOL     OW 2668   0.569   1.275   6.751
  639SOL    HW1 2669   0.476   1.268   6.714
  639SOL    HW2 2670   0.580   1.364   6.795
  640SOL     OW 2671   1.555   1.511   6.289
  640SOL    HW1 2672   1.498   1.495   6.370
  640SOL    HW2 2673   1.496   1.521   6.209
  641SOL     OW 2674   1.135   0.703   6.303
  641SOL    HW1 2675   1.192   0.781   6.278
  641SOL    HW2 2676   1.075   0.729   6.379
  642SOL     OW 2677   1.755   0.607   5.817
  642SOL    HW1 2678   1.743   0.594   5.718
  642SOL    HW2 2679   1.725   0.526   5.866
  643SOL     OW 2680   0.768   1.144   6.609
  643SOL    HW1 2681   0.690   1.161   6.669
  643SOL    HW2 2682   0.802   1.231   6.573
  644SOL     OW 2683   0.850   0.798   7.409
  644SOL    HW1 2684   0.846   0.874   7.474
  644SOL    HW2 2685   0.872   0.834   7.318
  645SOL     OW 2686   0.685   1.012   6.251
  645SOL    HW1 2687   0.754   0.996   6.321
  645SOL    HW2 2688   0.612   1.069   6.289
  646SOL     OW 2689   0.686   1.161   7.389
  646SOL    HW1 2690   0.746   1.240   7.403
  646SOL    HW2 2691   0.600   1.192   7.348
  647SOL     OW 2692   0.335   1.435   6.647
  647SOL    HW1 2693   0.257   1.404   6.594
  647SOL    HW2 2694   0.393   1.493   6.590
  648SOL     OW 2695   1.460   1.505   6.925
  648SOL    HW1 2696   1.484   1.599   6.951
  648SOL    HW2 2697   1.444   1.451   7.007
  649SOL     OW 2698   0.438   0.392   7.085
  649SOL    HW1 2699   0.520   0.336   7.094
  649SOL    HW2 2700   0.357   0.334   7.089
  650SOL     OW 2701   1.603   0.447   6.323
  650SOL    HW1 2702   1.529   0.493   6.273
  650SOL    HW2 2703   1.654   0.515   6.376
  651SOL     OW 2704   0.231   1.713   6.069
  651SOL    HW1 2705   0.265   1.790   6.123
  651SOL    HW2 2706   0.275   1.713   5.979
  652SOL     OW 2707   1.127   1.341   7.276
  652SOL    HW1 2708   1.174   1.341   7.364
  652SOL    HW2 2709   1.079   1.254   7.265
  653SOL     OW 2710   0.230   1.434   6.124
  653SOL    HW1 2711   0.204   1.530   6.124
  653SOL    HW2 2712   0.159   1.380   6.169
  654SOL     OW 2713   0.240   1.091   6.472
  654SOL    HW1 2714   0.254   1.007   6.524
  654SOL    HW2 2715   0.185   1.155   6.527
  655SOL     OW 2716   0.620   1.786   7.025
  655SOL    HW1 2717   0.528   1.769   7.060
  655SOL    HW2 2718   0.648   1.878   7.051
  656SOL     OW 2719   0.606   0.964   5.709
  656SOL    HW1 2720   0.613   1.048   5.655
  656SOL    HW2 2721   0.652   0.977   5.797
  657SOL     OW 2722   1.594   0.114   7.066
  657SOL    HW1 2723   1.576   0.181   6.994
  657SOL    HW2 2724   1.591   0.160   7.155
  658SOL     OW 2725   0.122   0.643   6.149
  658SOL    HW1 2726   0.077   0.555   6.166
  658SOL    HW2 2727   0.121   0.697   6.233
  659SOL     OW 2728   0.027   1.596   5.703
  659SOL    HW1 2729   0.008   1.500   5.724
  659SOL    HW2 2730  -0.006   1.654   5.778
  660SOL     OW 2731   1.689   0.922   6.198
  660SOL    HW1 2732   1.784   0.893   6.206
  660SOL    HW2 2733   1.681   0.987   6.123
  661SOL     OW 2734   1.641   1.108   6.018
  661SOL    HW1 2735   1.727   1.110   5.966
  661SOL    HW2 2736   1.655   1.155   6.106
  662SOL     OW 2737   0.113   0.737   7.183
  662SOL    HW1 2738   0.201   0.724   7.228
  662SOL    HW2 2739   0.100   0.834   7.161
  663SOL     OW 2740   0.613   1.365   6.312
  663SOL    HW1 2741   0.564   1.278   6.321
  663SOL    HW2 2742   0.590   1.408   6.225
  664SOL     OW 2743   1.293   1.228   7.009
  664SOL    HW1 2744   1.330   1.155   6.951
  664SOL    HW2 2745   1.345   1.233   7.094
  665SOL     OW 2746   0.809   0.004   6.088
  665SOL    HW1 2747   0.849   0.095   6.079
  665SOL    HW2 2748   0.709   0.012   6.094
  666SOL     OW 2749   0.197   0.976   6.850
  666SOL    HW1 2750   0.286   0.931   6.836
  666SOL    HW2 2751   0.124   0.911   6.831
  667SOL     OW 2752   1.525   0.999   5.776
  667SOL    HW1 2753   1.462   0.923   5.789
  667SOL    HW2 2754   1.573   1.017   5.862
  668SOL     OW 2755   1.187   1.792   7.202
  668SOL    HW1 2756   1.211   1.852   7.126
  668SOL    HW2 2757   1.194   1.697   7.172
  669SOL     OW 2758   0.317   0.251   7.387
  669SOL    HW1 2759   0.388   0.322   7.393
  669SOL    HW2 2760   0.229   0.290   7.415
  670SOL     OW 2761   1.466   1.417   6.539
  670SOL    HW1 2762   1.407   1.423   6.619
  670SOL    HW2 2763   1.451   1.329   6.493
  671SOL     OW 2764   0.598   0.729   5.856
  671SOL    HW1 2765   0.622   0.798   5.788
  671SOL    HW2 2766   0.520   0.762   5.910
  672SOL     OW 2767   1.281   0.345   6.530
  672SOL    HW1 2768   1.195   0.295   6.517
  672SOL    HW2 2769   1.343   0.291   6.586
  673SOL     OW 2770   1.576   1.662   5.893
  673SOL    HW1 2771   1.665   1.708   5.896
  673SOL    HW2 2772   1.555   1.638   5.798
  674SOL     OW 2773   0.807   0.605   7.051
  674SOL    HW1 2774   0.760   0.602   7.140
  674SOL    HW2 2775   0.756   0.550   6.985
  675SOL     OW 2776   1.394   0.469   7.260
  675SOL    HW1 2777   1.374   0.512   7.348
  675SOL    HW2 2778   1.472   0.407   7.269
  676SOL     OW 2779   0.973   0.890   7.158
  676SOL    HW1 2780   1.019   0.806   7.129
  676SOL    HW2 2781   0.917   0.924   7.083
  677SOL     OW 2782   0.991   0.410   6.828
  677SOL    HW1 2783   0.914   0.444   6.882
  677SOL    HW2 2784   0.957   0.359   6.749
  678SOL     OW 2785   1.041   0.701   6.015
  678SOL    HW1 2786   1.067   0.697   6.111
  678SOL    HW2 2787   0.956   0.650   6.001
  679SOL     OW 2788   0.076   0.811   6.375
  679SOL    HW1 2789   0.175   0.799   6.384
  679SOL    HW2 2790   0.052   0.906   6.396
  680SOL     OW 2791   0.130   1.821   7.157
  680SOL    HW1 2792   0.120   1.806   7.256
  680SOL    HW2 2793   0.044   1.857   7.121
  681SOL     OW 2794   0.865   0.348   5.781
  681SOL    HW1 2795   0.924   0.411   5.732
  681SOL    HW2 2796   0.884   0.254   5.752
  682SOL     OW 2797   1.719   0.585   7.417
  682SOL    HW1 2798   1.693   0.674   7.381
  682SOL    HW2 2799   1.717   0.517   7.344
  683SOL     OW 2800   1.362   1.144   6.131
  683SOL    HW1 2801   1.445   1.115   6.083
  683SOL    HW2 2802   1.313   1.211   6.075
  684SOL     OW 2803   0.550   0.196   6.471
  684SOL    HW1 2804   0.545   0.191   6.571
  684SOL    HW2 2805   0.552   0.292   6.442
  685SOL     OW 2806   1.008   1.456   6.063
  685SOL    HW1 2807   0.962   1.528   6.011
  685SOL    HW2 2808   1.004   1.476   6.161
  686SOL     OW 2809   0.351   1.801   6.439
  686SOL    HW1 2810   0.401   1.715   6.445
  686SOL    HW2 2811   0.416   1.878   6.436
  687SOL     OW 2812   1.795   1.066   6.459
  687SOL    HW1 2813   1.733   1.051   6.383
  687SOL    HW2 2814   1.743   1.077   6.544
  688SOL     OW 2815   1.227   1.550   7.092
  688SOL    HW1 2816   1.233   1.473   7.156
  688SOL    HW2 2817   1.175   1.524   7.012
  689SOL     OW 2818   0.321   0.943   5.828
  689SOL    HW1 2819   0.403   0.982   5.786
  689SOL    HW2 2820   0.294   0.861   5.779
  690SOL     OW 2821   1.458   0.735   6.314
  690SOL    HW1 2822   1.453   0.670   6.389
  690SOL    HW2 2823   1.538   0.794   6.327
  691SOL     OW 2824   0.461   1.266   7.313
  691SOL    HW1 2825   0.411   1.267   7.227
  691SOL    HW2 2826   0.398   1.248   7.389
  692SOL     OW 2827   1.111   1.776   5.823
  692SOL    HW1 2828   1.051   1.714   5.873
  692SOL    HW2 2829   1.142   1.732   5.738
  693SOL     OW 2830   0.202   0.285   7.084
  693SOL    HW1 2831   0.122   0.345   7.071
  693SOL    HW2 2832   0.192   0.236   7.170
  694SOL     OW 2833   1.632   1.377   5.667
  694SOL    HW1 2834   1.600   1.471   5.657
  694SOL    HW2 2835   1.556   1.314   5.655
  695SOL     OW 2836   0.464   1.743   5.909
  695SOL    HW1 2837   0.497   1.782   5.995
  695SOL    HW2 2838   0.540   1.736   5.844
  696SOL     OW 2839   1.400   0.107   6.012
  696SOL    HW1 2840   1.376   0.070   5.922
  696SOL    HW2 2841   1.499   0.123   6.016
  697SOL     OW 2842   0.249   1.785   6.827
  697SOL    HW1 2843   0.306   1.720   6.877
  697SOL    HW2 2844   0.233   1.752   6.734
  698SOL     OW 2845   0.940   1.698   6.490
  698SOL    HW1 2846   1.020   1.641   6.511
  698SOL    HW2 2847   0.891   1.658   6.413
  699SOL     OW 2848   0.382   0.700   6.066
  699SOL    HW1 2849   0.427   0.610   6.063
  699SOL    HW2 2850   0.288   0.689   6.099
  700SOL     OW 2851   1.547   0.222   7.315
  700SOL    HW1 2852   1.542   0.259   7.407
  700SOL    HW2 2853   1.475   0.153   7.303
  701SOL     OW 2854   0.614   0.122   5.703
  701SOL    HW1 2855   0.712   0.100   5.710
  701SOL    HW2 2856   0.583   0.105   5.610
  702SOL     OW 2857   0.781   0.264   7.335
  702SOL    HW1 2858   0.848   0.203   7.378
  702SOL    HW2 2859   0.708   0.283   7.400
  703SOL     OW 2860   0.888   1.514   6.781
  703SOL    HW1 2861   0.865   1.489   6.687
  703SOL    HW2 2862   0.949   1.445   6.820
  704SOL     OW 2863   1.351   0.590   7.019
  704SOL    HW1 2864   1.379   0.547   7.104
  704SOL    HW2 2865   1.376   0.686   7.020
  705SOL     OW 2866   0.803   1.402   6.510
  705SOL    HW1 2867   0.893   1.416   6.468
  705SOL    HW2 2868   0.732   1.404   6.439
  706SOL     OW 2869   0.922   0.503   6.485
  706SOL    HW1 2870   0.897   0.494   6.389
  706SOL    HW2 2871   0.970   0.421   6.516
  707SOL     OW 2872   0.539   0.064   6.098
  707SOL    HW1 2873   0.458   0.065   6.156
  707SOL    HW2 2874   0.542   0.147   6.043
  708SOL     OW 2875   1.434   1.188   5.627
  708SOL    HW1 2876   1.466   1.112   5.684
  708SOL    HW2 2877   1.342   1.215   5.657
  709SOL     OW 2878   0.297   0.035   5.757
  709SOL    HW1 2879   0.346   0.119   5.736
  709SOL    HW2 2880   0.359  -0.030   5.802
  710SOL     OW 2881   0.935   0.236   6.066
  710SOL    HW1 2882   0.887   0.277   5.988
  710SOL    HW2 2883   1.034   0.234   6.047
  711SOL     OW 2884   1.076   0.683   7.050
  711SOL    HW1 2885   0.996   0.622   7.053
  711SOL    HW2 2886   1.157   0.630   7.026
  712SOL     OW 2887   1.227   1.570   6.379
  712SOL    HW1 2888   1.248   1.644   6.314
  712SOL    HW2 2889   1.295   1.570   6.452
  713SOL     OW 2890   0.459   1.152   6.327
  713SOL    HW1 2891   0.388   1.125   6.392
  713SOL    HW2 2892   0.433   1.124   6.234
  714SOL     OW 2893   1.271   1.797   6.177
  714SOL    HW1 2894   1.315   1.861   6.113
  714SOL    HW2 2895   1.221   1.849   6.247
  715SOL     OW 2896   1.032   0.549   5.602
  715SOL    HW1 2897   0.991   0.631   5.563
  715SOL    HW2 2898   1.096   0.575   5.675
  716SOL     OW 2899   0.078   0.556   6.972
  716SOL    HW1 2900   0.170   0.555   6.931
  716SOL    HW2 2901   0.072   0.630   7.039
  717SOL     OW 2902   0.561   0.222   6.733
  717SOL    HW1 2903   0.599   0.138   6.770
  717SOL    HW2 2904   0.473   0.241   6.777
  718SOL     OW 2905   0.866   0.454   6.228
  718SOL    HW1 2906   0.834   0.526   6.166
  718SOL    HW2 2907   0.890   0.373   6.175
  719SOL     OW 2908   1.017   0.039   6.339
  719SOL    HW1 2909   0.945   0.044   6.270
  719SOL    HW2 2910   0.993  -0.030   6.408
  720SOL     OW 2911   1.429   1.173   6.453
  720SOL    HW1 2912   1.374   1.089   6.446
  720SOL    HW2 2913   1.455   1.202   6.361
  721SOL     OW 2914   1.466   0.590   6.578
  721SOL    HW1 2915   1.436   0.495   6.585
  721SOL    HW2 2916   1.539   0.606   6.644
  722SOL     OW 2917   1.857   0.833   5.963
  722SOL    HW1 2918   1.899   0.769   6.027
  722SOL    HW2 2919   1.819   0.782   5.885
  723SOL     OW 2920   0.488   1.385   5.760
  723SOL    HW1 2921   0.401   1.370   5.807
  723SOL    HW2 2922   0.471   1.411   5.665
  724SOL     OW 2923   1.664   1.280   6.243
  724SOL    HW1 2924   1.763   1.288   6.257
  724SOL    HW2 2925   1.619   1.364   6.274
  725SOL     OW 2926   1.390   0.575   5.664
  725SOL    HW1 2927   1.336   0.554   5.745
  725SOL    HW2 2928   1.481   0.534   5.673
  726SOL     OW 2929   0.527   0.256   5.914
  726SOL    HW1 2930   0.554   0.197   5.839
  726SOL    HW2 2931   0.527   0.351   5.883
  727SOL     OW 2932   1.754   1.223   7.174
  727SOL    HW1 2933   1.845   1.184   7.161
  727SOL    HW2 2934   1.762   1.319   7.198
  728SOL     OW 2935   1.064   1.347   6.926
  728SOL    HW1 2936   0.984   1.324   6.981
  728SOL    HW2 2937   1.147   1.321   6.975
  729SOL     OW 2938   1.592   1.629   7.211
  729SOL    HW1 2939   1.619   1.663   7.121
  729SOL    HW2 2940   1.671   1.591   7.257
  730SOL     OW 2941   1.111   1.195   6.686
  730SOL    HW1 2942   1.071   1.239   6.767
  730SOL    HW2 2943   1.070   1.232   6.603
  731SOL     OW 2944   1.638   1.099   6.665
  731SOL    HW1 2945   1.643   1.180   6.724
  731SOL    HW2 2946   1.552   1.101   6.614
  732SOL     OW 2947   0.915   0.089   6.988
  732SOL    HW1 2948   0.940   0.069   6.893
  732SOL    HW2 2949   0.987   0.145   7.030
  733SOL     OW 2950   0.980   1.116   7.305
  733SOL    HW1 2951   0.881   1.122   7.315
  733SOL    HW2 2952   1.003   1.036   7.249
  734SOL     OW 2953   0.705   1.050   5.954
  734SOL    HW1 2954   0.691   1.057   6.053
  734SOL    HW2 2955   0.789   0.999   5.936
  735SOL     OW 2956   0.410   0.813   6.837
  735SOL    HW1 2957   0.496   0.825   6.887
  735SOL    HW2 2958   0.368   0.726   6.864
  736SOL     OW 2959   1.274   0.386   6.848
  736SOL    HW1 2960   1.295   0.460   6.912
  736SOL    HW2 2961   1.185   0.403   6.805
  737SOL     OW 2962   0.064   1.564   6.917
  737SOL    HW1 2963   0.018   1.646   6.883
  737SOL    HW2 2964   0.162   1.583   6.926
  738SOL     OW 2965   0.367   1.100   6.087
  738SOL    HW1 2966   0.360   1.183   6.031
  738SOL    HW2 2967   0.371   1.020   6.027
  739SOL     OW 2968   0.566   0.537   6.451
  739SOL    HW1 2969   0.578   0.603   6.377
  739SOL    HW2 2970   0.612   0.571   6.534
  740SOL     OW 2971   1.252   1.348   5.974
  740SOL    HW1 2972   1.302   1.425   6.014
  740SOL    HW2 2973   1.157   1.350   6.006
  741SOL     OW 2974   1.272   1.445   6.728
  741SOL    HW1 2975   1.319   1.458   6.815
  741SOL    HW2 2976   1.206   1.371   6.737
  742SOL     OW 2977   1.582   0.639   6.058
  742SOL    HW1 2978   1.551   0.700   6.131
  742SOL    HW2 2979   1.632   0.691   5.989
  743SOL     OW 2980   0.354   1.510   6.915
  743SOL    HW1 2981   0.333   1.466   6.828
  743SOL    HW2 2982   0.451   1.536   6.918
  744SOL     OW 2983   0.402   0.751   7.184
  744SOL    HW1 2984   0.470   0.806   7.137
  744SOL    HW2 2985   0.442   0.663   7.211
  745SOL     OW 2986   1.587   0.779   7.256
  745SOL    HW1 2987   1.495   0.817   7.251
  745SOL    HW2 2988   1.647   0.826   7.191
  746SOL     OW 2989   1.013   0.105   7.356
  746SOL    HW1 2990   1.019   0.190   7.304
  746SOL    HW2 2991   1.045   0.029   7.299
  747SOL     OW 2992   0.504   0.050   7.326
  747SOL    HW1 2993   0.462  -0.007   7.256
  747SOL    HW2 2994   0.438   0.119   7.358
  748SOL     OW 2995   0.573   0.870   6.615
  748SOL    HW1 2996   0.617   0.959   6.606
  748SOL    HW2 2997   0.510   0.870   6.692
  749SOL     OW 2998   1.360   0.862   6.631
  749SOL    HW1 2999   1.285   0.862   6.565
  749SOL    HW2 3000   1.397   0.770   6.640
  750SOL     OW 3001   1.209   0.525   5.861
  750SOL    HW1 3002   1.222   0.441   5.915
  750SOL    HW2 3003   1.180   0.599   5.921
  751SOL     OW 3004   0.307   0.213   6.817
  751SOL    HW1 3005   0.284   0.250   6.907
  751SOL    HW2 3006   0.277   0.118   6.811
  752SOL     OW 3007   0.037   1.310   6.868
  752SOL    HW1 3008   0.090   1.261   6.936
  752SOL    HW2 3009   0.059   1.408   6.873
  753SOL     OW 3010   0.732   0.634   6.650
  753SOL    HW1 3011   0.791   0.608   6.574
  753SOL    HW2 3012   0.704   0.730   6.639
  754SOL     OW 3013   1.728   0.935   7.440
  754SOL    HW1 3014   1.682   0.928   7.351
  754SOL    HW2 3015   1.666   0.979   7.506
  755SOL     OW 3016   0.307   0.063   6.204
  755SOL    HW1 3017   0.296   0.157   6.237
  755SOL    HW2 3018   0.302   0.000   6.281
  756SOL     OW 3019   1.622   0.367   5.960
  756SOL    HW1 3020   1.624   0.291   6.024
  756SOL    HW2 3021   1.574   0.444   6.000
  757SOL     OW 3022   1.023   0.766   6.552
  757SOL    HW1 3023   1.038   0.787   6.648
  757SOL    HW2 3024   0.993   0.671   6.543
  758SOL     OW 3025   0.980   1.573   7.286
  758SOL    HW1 3026   0.960   1.617   7.198
  758SOL    HW2 3027   1.019   1.482   7.270
  759SOL     OW 3028   1.859   1.518   7.191
  759SOL    HW1 3029   1.873   1.545   7.096
  759SOL    HW2 3030   1.942   1.540   7.244
  760SOL     OW 3031   0.350   0.898   7.390
  760SOL    HW1 3032   0.426   0.942   7.438
  760SOL    HW2 3033   0.385   0.851   7.308
  761SOL     OW 3034   1.540   0.274   5.711
  761SOL    HW1 3035   1.479   0.199   5.734
  761SOL    HW2 3036   1.562   0.326   5.794
  762SOL     OW 3037   1.303   0.838   5.628
  762SOL    HW1 3038   1.337   0.745   5.643
  762SOL    HW2 3039   1.321   0.865   5.533
  763SOL     OW 3040   1.068   1.333   6.435
  763SOL    HW1 3041   1.075   1.249   6.380
  763SOL    HW2 3042   1.130   1.402   6.399
  764SOL     OW 3043   0.319   0.810   6.535
  764SOL    HW1 3044   0.412   0.846   6.540
  764SOL    HW2 3045   0.313   0.725   6.587
  765SOL     OW 3046   0.339   0.509   6.592
  765SOL    HW1 3047   0.287   0.426   6.575
  765SOL    HW2 3048   0.416   0.514   6.528
  766SOL     OW 3049   1.138   0.380   7.264
  766SOL    HW1 3050   1.093   0.443   7.328
  766SOL    HW2 3051   1.231   0.411   7.247
  767SOL     OW 3052   1.160   0.207   7.063
  767SOL    HW1 3053   1.160   0.271   7.140
  767SOL    HW2 3054   1.188   0.255   6.980
  768SOL     OW 3055   0.008   1.326   5.786
  768SOL    HW1 3056  -0.085   1.347   5.755
  768SOL    HW2 3057   0.018   1.227   5.799
  769SOL     OW 3058   0.088   1.801   6.513
  769SOL    HW1 3059   0.046   1.715   6.486
  769SOL    HW2 3060   0.182   1.804   6.479
  770SOL     OW 3061   0.504   1.568   6.496
  770SOL    HW1 3062   0.570   1.642   6.505
  770SOL    HW2 3063   0.548   1.489   6.454
  771SOL     OW 3064   1.002   0.796   6.824
  771SOL    HW1 3065   1.043   0.764   6.910
  771SOL    HW2 3066   0.906   0.769   6.821
  772SOL     OW 3067   0.040   0.544   6.700
  772SOL    HW1 3068   0.125   0.511   6.659
  772SOL    HW2 3069   0.053   0.559   6.798
  773SOL     OW 3070   0.189   0.520   7.308
  773SOL    HW1 3071   0.248   0.480   7.238
  773SOL    HW2 3072   0.131   0.591   7.267
  774SOL     OW 3073   1.369   0.950   7.246
  774SOL    HW1 3074   1.408   1.039   7.266
  774SOL    HW2 3075   1.379   0.930   7.149
  775SOL     OW 3076   0.815   0.572   5.911
  775SOL    HW1 3077   0.822   0.483   5.865
  775SOL    HW2 3078   0.721   0.606   5.903
  776SOL     OW 3079   1.657   0.604   6.792
  776SOL    HW1 3080   1.619   0.535   6.854
  776SOL    HW2 3081   1.739   0.568   6.748
  777SOL     OW 3082   0.252   1.564   7.330
  777SOL    HW1 3083   0.222   1.621   7.406
  777SOL    HW2 3084   0.245   1.467   7.356
  778SOL     OW 3085   0.671   0.464   6.855
  778SOL    HW1 3086   0.637   0.375   6.825
  778SOL    HW2 3087   0.697   0.518   6.775
  779SOL     OW 3088   0.930   1.678   7.051
  779SOL    HW1 3089   0.906   1.660   6.956
  779SOL    HW2 3090   0.960   1.772   7.061
  780SOL     OW 3091   0.473   0.500   5.777
  780SOL    HW1 3092   0.534   0.580   5.781
  780SOL    HW2 3093   0.378   0.531   5.784
  781SOL     OW 3094   0.159   1.137   7.052
  781SOL    HW1 3095   0.181   1.076   7.128
  781SOL    HW2 3096   0.169   1.088   6.966
  782SOL     OW 3097   1.347   1.059   6.820
  782SOL    HW1 3098   1.371   0.996   6.746
  782SOL    HW2 3099   1.257   1.099   6.802
  783SOL     OW 3100   1.302   0.855   5.895
  783SOL    HW1 3101   1.216   0.824   5.937
  783SOL    HW2 3102   1.298   0.841   5.796
  784SOL     OW 3103   1.759   1.747   6.740
  784SOL    HW1 3104   1.820   1.777   6.667
  784SOL    HW2 3105   1.721   1.658   6.718
  785SOL     OW 3106   1.252   1.731   6.714
  785SOL    HW1 3107   1.336   1.736   6.660
  785SOL    HW2 3108   1.229   1.635   6.732
  786SOL     OW 3109   0.083   1.258   6.608
  786SOL    HW1 3110   0.078   1.257   6.708
  786SOL    HW2 3111   0.000   1.217   6.570
  787SOL     OW 3112   0.688   1.662   7.302
  787SOL    HW1 3113   0.632   1.743   7.311
  787SOL    HW2 3114   0.740   1.666   7.216
  788SOL     OW 3115   1.726   0.135   6.109
  788SOL    HW1 3116   1.799   0.118   6.042
  788SOL    HW2 3117   1.695   0.048   6.147
  789SOL     OW 3118   1.388   1.573   6.063
  789SOL    HW1 3119   1.455   1.585   5.989
  789SOL    HW2 3120   1.348   1.662   6.086
  790SOL     OW 3121   0.130   1.794   7.437
  790SOL    HW1 3122   0.089   1.720   7.490
  790SOL    HW2 3123   0.194   1.845   7.495
  791SOL     OW 3124   1.280   0.927   6.258
  791SOL    HW1 3125   1.340   0.846   6.260
  791SOL    HW2 3126   1.320   0.996   6.198
  792SOL     OW 3127   0.830   1.273   7.008
  792SOL    HW1 3128   0.825   1.306   7.103
  792SOL    HW2 3129   0.744   1.292   6.962
  793SOL     OW 3130   0.672   1.616   5.740
  793SOL    HW1 3131   0.681   1.626   5.641
  793SOL    HW2 3132   0.632   1.527   5.761
  794SOL     OW 3133   1.650   1.720   6.980
  794SOL    HW1 3134   1.703   1.730   6.896
  794SOL    HW2 3135   1.623   1.810   7.014
  795SOL     OW 3136   1.841   0.175   6.549
  795SOL    HW1 3137   1.880   0.090   6.513
  795SOL    HW2 3138   1.743   0.177   6.530
  796SOL     OW 3139   0.263   0.326   6.306
  796SOL    HW1 3140   0.184   0.377   6.272
  796SOL    HW2 3141   0.254   0.311   6.404
  797SOL     OW 3142   1.194   1.612   5.617
  797SOL    HW1 3143   1.200   1.519   5.654
  797SOL    HW2 3144   1.135   1.612   5.537
  798SOL     OW 3145   0.822   1.002   6.958
  798SOL    HW1 3146   0.862   1.001   6.866
  798SOL    HW2 3147   0.832   1.094   6.998
  799SOL     OW 3148   0.916   0.910   5.877
  799SOL    HW1 3149   0.979   0.948   5.809
  799SOL    HW2 3150   0.956   0.827   5.916
  800SOL     OW 3151   1.504   1.607   5.630
  800SOL    HW1 3152   1.412   1.644   5.637
  800SOL    HW2 3153   1.542   1.627   5.540
  801SOL     OW 3154   0.372   1.288   7.076
  801SOL    HW1 3155   0.359   1.381   7.042
  801SOL    HW2 3156   0.288   1.236   7.063
  802SOL     OW 3157   1.614   1.292   6.875
  802SOL    HW1 3158   1.674   1.295   6.955
  802SOL    HW2 3159   1.539   1.356   6.888
  803SOL     OW 3160   1.039   1.098   6.282
  803SOL    HW1 3161   0.969   1.051   6.336
  803SOL    HW2 3162   1.098   1.030   6.239
  804SOL     OW 3163   1.014   0.236   6.557
  804SOL    HW1 3164   1.006   0.200   6.464
  804SOL    HW2 3165   1.012   0.160   6.622
  805SOL     OW 3166   0.590   1.487   6.077
  805SOL    HW1 3167   0.632   1.429   6.007
  805SOL    HW2 3168   0.546   1.566   6.033
  806SOL     OW 3169   1.709   0.385   6.967
  806SOL    HW1 3170   1.782   0.454   6.971
  806SOL    HW2 3171   1.737   0.310   6.908
  807SOL     OW 3172   0.255   1.348   5.876
  807SOL    HW1 3173   0.159   1.349   5.849
  807SOL    HW2 3174   0.267   1.401   5.960
  808SOL     OW 3175   0.105   1.013   7.312
  808SOL    HW1 3176   0.028   0.980   7.366
  808SOL    HW2 3177   0.190   0.983   7.354
  809SOL     OW 3178   0.672   0.203   7.075
  809SOL    HW1 3179   0.762   0.187   7.035
  809SOL    HW2 3180   0.680   0.208   7.174
  810SOL     OW 3181   0.075   0.345   5.619
  810SOL    HW1 3182  -0.017   0.317   5.590
  810SOL    HW2 3183   0.106   0.422   5.563
  811SOL     OW 3184   1.440   0.856   6.984
  811SOL    HW1 3185   1.383   0.908   6.921
  811SOL    HW2 3186   1.536   0.868   6.960
  812SOL     OW 3187   0.072   0.166   5.904
  812SOL    HW1 3188   0.055   0.249   5.850
  812SOL    HW2 3189   0.162   0.129   5.882
  813SOL     OW 3190   1.183   1.335   5.705
  813SOL    HW1 3191   1.084   1.324   5.707
  813SOL    HW2 3192   1.217   1.350   5.798
  814SOL     OW 3193   0.613   0.842   7.017
  814SOL    HW1 3194   0.669   0.923   7.000
  814SOL    HW2 3195   0.672   0.762   7.020
  815SOL     OW 3196   1.493   1.767   6.545
  815SOL    HW1 3197   1.526   1.831   6.476
  815SOL    HW2 3198   1.559   1.761   6.620
  816SOL     OW 3199   0.716   0.565   7.294
  816SOL    HW1 3200   0.735   0.630   7.368
  816SOL    HW2 3201   0.776   0.485   7.303
  817SOL     OW 3202   1.450   1.220   7.219
  817SOL    HW1 3203   1.441   1.210   7.318
  817SOL    HW2 3204   1.546   1.213   7.193
  818SOL     OW 3205   0.390   1.741   7.146
  818SOL    HW1 3206   0.299   1.782   7.144
  818SOL    HW2 3207   0.383   1.647   7.178
  819SOL     OW 3208   1.674   0.883   6.840
  819SOL    HW1 3209   1.647   0.794   6.803
  819SOL    HW2 3210   1.675   0.951   6.767
  820SOL     OW 3211   1.225   0.325   6.035
  820SOL    HW1 3212   1.290   0.251   6.024
  820SOL    HW2 3213   1.245   0.375   6.119
  821SOL     OW 3214   0.594   0.745   6.238
  821SOL    HW1 3215   0.644   0.830   6.219
  821SOL    HW2 3216   0.506   0.747   6.190
  822SOL     OW 3217   1.777   0.342   7.228
  822SOL    HW1 3218   1.760   0.373   7.134
  822SOL    HW2 3219   1.693   0.305   7.266
  823SOL     OW 3220   1.730   0.934   7.103
  823SOL    HW1 3221   1.768   1.025   7.118
  823SOL    HW2 3222   1.722   0.917   7.004
  824SOL     OW 3223   0.859   1.374   5.602
  824SOL    HW1 3224   0.813   1.389   5.690
  824SOL    HW2 3225   0.903   1.459   5.572
  825SOL     OW 3226   0.661   1.790   6.539
  825SOL    HW1 3227   0.615   1.878   6.526
  825SOL    HW2 3228   0.760   1.802   6.532
  826SOL     OW 3229   0.859   0.956   6.447
  826SOL    HW1 3230   0.913   0.887   6.495
  826SOL    HW2 3231   0.827   1.025   6.513
  827SOL     OW 3232   1.083   0.984   5.673
  827SOL    HW1 3233   1.060   1.037   5.591
  827SOL    HW2 3234   1.164   0.928   5.654
  828SOL     OW 3235   1.861   1.569   6.437
  828SOL    HW1 3236   1.790   1.557   6.367
  828SOL    HW2 3237   1.862   1.490   6.497
  829SOL     OW 3238   0.221   1.314   7.430
  829SOL    HW1 3239   0.156   1.241   7.409
  829SOL    HW2 3240   0.225   1.328   7.528
  830SOL     OW 3241   0.079   1.240   6.239
  830SOL    HW1 3242   0.078   1.193   6.327
  830SOL    HW2 3243   0.161   1.212   6.188
  831SOL     OW 3244   0.672   1.391   7.210
  831SOL    HW1 3245   0.594   1.341   7.248
  831SOL    HW2 3246   0.669   1.486   7.241
  832SOL     OW 3247   1.824   0.192   6.813
  832SOL    HW1 3248   1.820   0.102   6.857
  832SOL    HW2 3249   1.827   0.181   6.714
  833SOL     OW 3250   0.428   0.424   6.106
  833SOL    HW1 3251   0.458   0.352   6.044
  833SOL    HW2 3252   0.389   0.384   6.189
  834SOL     OW 3253   1.705   1.487   6.690
  834SOL    HW1 3254   1.612   1.462   6.663
  834SOL    HW2 3255   1.731   1.437   6.772
  835SOL     OW 3256   0.317   0.547   6.866
  835SOL    HW1 3257   0.355   0.488   6.938
  835SOL    HW2 3258   0.357   0.521   6.778
  836SOL     OW 3259   0.812   1.586   6.273
  836SOL    HW1 3260   0.844   1.596   6.179
  836SOL    HW2 3261   0.733   1.524   6.275
  837SOL     OW 3262   1.424   0.214   6.698
  837SOL    HW1 3263   1.476   0.149   6.753
  837SOL    HW2 3264   1.375   0.277   6.759
  838SOL     OW 3265   1.001   0.034   6.740
  838SOL    HW1 3266   0.938  -0.038   6.709
  838SOL    HW2 3267   1.094  -0.002   6.740
  839SOL     OW 3268   0.770   1.330   5.887
  839SOL    HW1 3269   0.724   1.243   5.904
  839SOL    HW2 3270   0.861   1.327   5.928
  840SOL     OW 3271   0.618   1.567   6.870
  840SOL    HW1 3272   0.613   1.649   6.927
  840SOL    HW2 3273   0.707   1.564   6.825
  841SOL     OW 3274   1.352   0.052   5.754
  841SOL    HW1 3275   1.387   0.011   5.670
  841SOL    HW2 3276   1.262   0.014   5.774
  842SOL     OW 3277   1.300   0.453   6.277
  842SOL    HW1 3278   1.241   0.533   6.281
  842SOL    HW2 3279   1.315   0.418   6.370
  843SOL     OW 3280   1.593   0.221   6.468
  843SOL    HW1 3281   1.509   0.220   6.522
  843SOL    HW2 3282   1.595   0.304   6.412
  844SOL     OW 3283   0.039   1.077   5.886
  844SOL    HW1 3284   0.138   1.066   5.877
  844SOL    HW2 3285  -0.001   0.991   5.918
  845SOL     OW 3286   0.875   1.646   5.923
  845SOL    HW1 3287   0.798   1.611   5.869
  845SOL    HW2 3288   0.843   1.717   5.985
  846SOL     OW 3289   0.230   0.628   7.561
  846SOL    HW1 3290   0.137   0.626   7.598
  846SOL    HW2 3291   0.231   0.589   7.469
  847SOL     OW 3292   0.225   0.275   8.444
  847SOL    HW1 3293   0.260   0.258   8.536
  847SOL    HW2 3294   0.137   0.230   8.432
  848SOL     OW 3295   0.019   0.368   8.095
  848SOL    HW1 3296  -0.063   0.411   8.134
  848SOL    HW2 3297  -0.009   0.295   8.032
  849SOL     OW 3298   0.569   1.275   8.613
  849SOL    HW1 3299   0.476   1.268   8.576
  849SOL    HW2 3300   0.580   1.364   8.657
  850SOL     OW 3301   1.555   1.511   8.151
  850SOL    HW1 3302   1.498   1.495   8.232
  850SOL    HW2 3303   1.496   1.521   8.071
  851SOL     OW 3304   1.135   0.703   8.165
  851SOL    HW1 3305   1.192   0.781   8.140
  851SOL    HW2 3306   1.075   0.729   8.241
  852SOL     OW 3307   1.755   0.607   7.679
  852SOL    HW1 3308   1.743   0.594   7.580
  852SOL    HW2 3309   1.725   0.526   7.728
  853SOL     OW 3310   0.768   1.144   8.471
  853SOL    HW1 3311   0.690   1.161   8.531
  853SOL    HW2 3312   0.802   1.231   8.435
  854SOL     OW 3313   0.850   0.798   9.271
  854SOL    HW1 3314   0.846   0.874   9.336
  854SOL    HW2 3315   0.872   0.834   9.180
  855SOL     OW 3316   0.685   1.012   8.113
  855SOL    HW1 3317   0.754   0.996   8.183
  855SOL    HW2 3318   0.612   1.069   8.151
  856SOL     OW 3319   0.686   1.161   9.251
  856SOL    HW1 3320   0.746   1.240   9.265
  856SOL    HW2 3321   0.600   1.192   9.210
  857SOL     OW 3322   0.335   1.435   8.509
  857SOL    HW1 3323   0.257   1.404   8.456
  857SOL    HW2 3324   0.393   1.493   8.452
  858SOL     OW 3325   1.460   1.505   8.787
  858SOL    HW1 3326   1.484   1.599   8.813
  858SOL    HW2 3327   1.444   1.451   8.869
  859SOL     OW 3328   0.438   0.392   8.947
  859SOL    HW1 3329   0.520   0.336   8.956
  859SOL    HW2 3330   0.357   0.334   8.951
  860SOL     OW 3331   1.603   0.447   8.185
  860SOL    HW1 3332   1.529   0.493   8.135
  860SOL    HW2 3333   1.654   0.515   8.238
  861SOL     OW 3334   0.231   1.713   7.931
  861SOL    HW1 3335   0.265   1.790   7.985
  861SOL    HW2 3336   0.275   1.713   7.841
  862SOL     OW 3337   1.127   1.341   9.138
  862SOL    HW1 3338   1.174   1.341   9.226
  862SOL    HW2 3339   1.079   1.254   9.127
  863SOL     OW 3340   0.230   1.434   7.986
  863SOL    HW1 3341   0.204   1.530   7.986
  863SOL    HW2 3342   0.159   1.380   8.031
  864SOL     OW 3343   0.240   1.091   8.334
  864SOL    HW1 3344   0.254   1.007   8.386
  864SOL    HW2 3345   0.185   1.155   8.389
  865SOL     OW 3346   0.620   1.786   8.887
  865SOL    HW1 3347   0.528   1.769   8.922
  865SOL    HW2 3348   0.648   1.878   8.913
  866SOL     OW 3349   0.606   0.964   7.571
  866SOL    HW1 3350   0.613   1.048   7.517
  866SOL    HW2 3351   0.652   0.977   7.659
  867SOL     OW 3352   1.594   0.114   8.928
  867SOL    HW1 3353   1.576   0.181   8.856
  867SOL    HW2 3354   1.591   0.160   9.017
  868SOL     OW 3355   0.122   0.643   8.011
  868SOL    HW1 3356   0.077   0.555   8.028
  868SOL    HW2 3357   0.121   0.697   8.095
  869SOL     OW 3358   1.842   1.767   7.807
  869SOL    HW1 3359   1.896   1.738   7.887
  869SOL    HW2 3360   1.872   1.857   7.778
  870SOL     OW 3361   0.027   1.596   7.565
  870SOL    HW1 3362   0.008   1.500   7.586
  870SOL    HW2 3363  -0.006   1.654   7.640
  871SOL     OW 3364   1.689   0.922   8.060
  871SOL    HW1 3365   1.784   0.893   8.068
  871SOL    HW2 3366   1.681   0.987   7.985
  872SOL     OW 3367   1.641   1.108   7.880
  872SOL    HW1 3368   1.727   1.110   7.828
  872SOL    HW2 3369   1.655   1.155   7.968
  873SOL     OW 3370   0.113   0.737   9.045
  873SOL    HW1 3371   0.201   0.724   9.090
  873SOL    HW2 3372   0.100   0.834   9.023
  874SOL     OW 3373   0.613   1.365   8.174
  874SOL    HW1 3374   0.564   1.278   8.183
  874SOL    HW2 3375   0.590   1.408   8.087
  875SOL     OW 3376   1.293   1.228   8.871
  875SOL    HW1 3377   1.330   1.155   8.813
  875SOL    HW2 3378   1.345   1.233   8.956
  876SOL     OW 3379   0.809   0.004   7.950
  876SOL    HW1 3380   0.849   0.095   7.941
  876SOL    HW2 3381   0.709   0.012   7.956
  877SOL     OW 3382   0.197   0.976   8.712
  877SOL    HW1 3383   0.286   0.931   8.698
  877SOL    HW2 3384   0.124   0.911   8.693
  878SOL     OW 3385   1.525   0.999   7.638
  878SOL    HW1 3386   1.462   0.923   7.651
  878SOL    HW2 3387   1.573   1.017   7.724
  879SOL     OW 3388   1.187   1.792   9.064
  879SOL    HW1 3389   1.211   1.852   8.988
  879SOL    HW2 3390   1.194   1.697   9.034
  880SOL     OW 3391   0.317   0.251   9.249
  880SOL    HW1 3392   0.388   0.322   9.255
  880SOL    HW2 3393   0.229   0.290   9.277
  881SOL     OW 3394   1.466   1.417   8.401
  881SOL    HW1 3395   1.407   1.423   8.481
  881SOL    HW2 3396   1.451   1.329   8.355
  882SOL     OW 3397   1.667   1.714   8.020
  882SOL    HW1 3398   1.626   1.691   7.932
  882SOL    HW2 3399   1.649   1.640   8.085
  883SOL     OW 3400   0.598   0.729   7.718
  883SOL    HW1 3401   0.622   0.798   7.650
  883SOL    HW2 3402   0.520   0.762   7.772
  884SOL     OW 3403   1.281   0.345   8.392
  884SOL    HW1 3404   1.195   0.295   8.379
  884SOL    HW2 3405   1.343   0.291   8.448
  885SOL     OW 3406   1.576   1.662   7.755
  885SOL    HW1 3407   1.665   1.708   7.758
  885SOL    HW2 3408   1.555   1.638   7.660
  886SOL     OW 3409   0.807   0.605   8.913
  886SOL    HW1 3410   0.760   0.602   9.002
  886SOL    HW2 3411   0.756   0.550   8.847
  887SOL     OW 3412   1.394   0.469   9.122
  887SOL    HW1 3413   1.374   0.512   9.210
  887SOL    HW2 3414   1.472   0.407   9.131
  888SOL     OW 3415   0.973   0.890   9.020
  888SOL    HW1 3416   1.019   0.806   8.991
  888SOL    HW2 3417   0.917   0.924   8.945
  889SOL     OW 3418   0.991   0.410   8.690
  889SOL    HW1 3419   0.914   0.444   8.744
  889SOL    HW2 3420   0.957   0.359   8.611
  890SOL     OW 3421   1.041   0.701   7.877
  890SOL    HW1 3422   1.067   0.697   7.973
  890SOL    HW2 3423   0.956   0.650   7.863
  891SOL     OW 3424   0.076   0.811   8.237
  891SOL    HW1 3425   0.175   0.799   8.246
  891SOL    HW2 3426   0.052   0.906   8.258
  892SOL     OW 3427   0.130   1.821   9.019
  892SOL    HW1 3428   0.120   1.806   9.118
  892SOL    HW2 3429   0.044   1.857   8.983
  893SOL     OW 3430   0.865   0.348   7.643
  893SOL    HW1 3431   0.924   0.411   7.594
  893SOL    HW2 3432   0.884   0.254   7.614
  894SOL     OW 3433   1.719   0.585   9.279
  894SOL    HW1 3434   1.693   0.674   9.243
  894SOL    HW2 3435   1.717   0.517   9.206
  895SOL     OW 3436   1.362   1.144   7.993
  895SOL    HW1 3437   1.445   1.115   7.945
  895SOL    HW2 3438   1.313   1.211   7.937
  896SOL     OW 3439   0.550   0.196   8.333
  896SOL    HW1 3440   0.545   0.191   8.433
  896SOL    HW2 3441   0.552   0.292   8.304
  897SOL     OW 3442   1.008   1.456   7.925
  897SOL    HW1 3443   0.962   1.528   7.873
  897SOL    HW2 3444   1.004   1.476   8.023
  898SOL     OW 3445   0.351   1.801   8.301
  898SOL    HW1 3446   0.401   1.715   8.307
  898SOL    HW2 3447   0.416   1.878   8.298
  899SOL     OW 3448   1.795   1.066   8.321
  899SOL    HW1 3449   1.733   1.051   8.245
  899SOL    HW2 3450   1.743   1.077   8.406
  900SOL     OW 3451   1.227   1.550   8.954
  900SOL    HW1 3452   1.233   1.473   9.018
  900SOL    HW2 3453   1.175   1.524   8.874
  901SOL     OW 3454   0.321   0.943   7.690
  901SOL    HW1 3455   0.403   0.982   7.648
  901SOL    HW2 3456   0.294   0.861   7.641
  902SOL     OW 3457   1.458   0.735   8.176
  902SOL    HW1 3458   1.453   0.670   8.251
  902SOL    HW2 3459   1.538   0.794   8.189
  903SOL     OW 3460   0.461   1.266   9.175
  903SOL    HW1 3461   0.411   1.267   9.089
  903SOL    HW2 3462   0.398   1.248   9.251
  904SOL     OW 3463   1.111   1.776   7.685
  904SOL    HW1 3464   1.051   1.714   7.735
  904SOL    HW2 3465   1.142   1.732   7.600
  905SOL     OW 3466   0.202   0.285   8.946
  905SOL    HW1 3467   0.122   0.345   8.933
  905SOL    HW2 3468   0.192   0.236   9.032
  906SOL     OW 3469   1.632   1.377   7.529
  906SOL    HW1 3470   1.600   1.471   7.519
  906SOL    HW2 3471   1.556   1.314   7.517
  907SOL     OW 3472   0.464   1.743   7.771
  907SOL    HW1 3473   0.497   1.782   7.857
  907SOL    HW2 3474   0.540   1.736   7.706
  908SOL     OW 3475   1.400   0.107   7.874
  908SOL    HW1 3476   1.376   0.070   7.784
  908SOL    HW2 3477   1.499   0.123   7.878
  909SOL     OW 3478   0.249   1.785   8.689
  909SOL    HW1 3479   0.306   1.720   8.739
  909SOL    HW2 3480   0.233   1.752   8.596
  910SOL     OW 3481   0.940   1.698   8.352
  910SOL    HW1 3482   1.020   1.641   8.373
  910SOL    HW2 3483   0.891   1.658   8.275
  911SOL     OW 3484   0.382   0.700   7.928
  911SOL    HW1 3485   0.427   0.610   7.925
  911SOL    HW2 3486   0.288   0.689   7.961
  912SOL     OW 3487   1.547   0.222   9.177
  912SOL    HW1 3488   1.542   0.259   9.269
  912SOL    HW2 3489   1.475   0.153   9.165
  913SOL     OW 3490   0.614   0.122   7.565
  913SOL    HW1 3491   0.712   0.100   7.572
  913SOL    HW2 3492   0.583   0.105   7.472
  914SOL     OW 3493   0.781   0.264   9.197
  914SOL    HW1 3494   0.848   0.203   9.240
  914SOL    HW2 3495   0.708   0.283   9.262
  915SOL     OW 3496   0.888   1.514   8.643
  915SOL    HW1 3497   0.865   1.489   8.549
  915SOL    HW2 3498   0.949   1.445   8.682
  916SOL     OW 3499   1.351   0.590   8.881
  916SOL    HW1 3500   1.379   0.547   8.966
  916SOL    HW2 3501   1.376   0.686   8.882
  917SOL     OW 3502   0.803   1.402   8.372
  917SOL    HW1 3503   0.893   1.416   8.330
  917SOL    HW2 3504   0.732   1.404   8.301
  918SOL     OW 3505   0.922   0.503   8.347
  918SOL    HW1 3506   0.897   0.494   8.251
  918SOL    HW2 3507   0.970   0.421   8.378
  919SOL     OW 3508   0.539   0.064   7.960
  919SOL    HW1 3509   0.458   0.065   8.018
  919SOL    HW2 3510   0.542   0.147   7.905
  920SOL     OW 3511   1.434   1.188   7.489
  920SOL    HW1 3512   1.466   1.112   7.546
  920SOL    HW2 3513   1.342   1.215   7.519
  921SOL     OW 3514   0.297   0.035   7.619
  921SOL    HW1 3515   0.346   0.119   7.598
  921SOL    HW2 3516   0.359  -0.030   7.664
  922SOL     OW 3517   0.935   0.236   7.928
  922SOL    HW1 3518   0.887   0.277   7.850
  922SOL    HW2 3519   1.034   0.234   7.909
  923SOL     OW 3520   1.076   0.683   8.912
  923SOL    HW1 3521   0.996   0.622   8.915
  923SOL    HW2 3522   1.157   0.630   8.888
  924SOL     OW 3523   1.227   1.570   8.241
  924SOL    HW1 3524   1.248   1.644   8.176
  924SOL    HW2 3525   1.295   1.570   8.314
  925SOL     OW 3526   0.459   1.152   8.189
  925SOL    HW1 3527   0.388   1.125   8.254
  925SOL    HW2 3528   0.433   1.124   8.096
  926SOL     OW 3529   1.271   1.797   8.039
  926SOL    HW1 3530   1.315   1.861   7.975
  926SOL    HW2 3531   1.221   1.849   8.109
  927SOL     OW 3532   1.032   0.549   7.464
  927SOL    HW1 3533   0.991   0.631   7.425
  927SOL    HW2 3534   1.096   0.575   7.537
  928SOL     OW 3535   0.078   0.556   8.834
  928SOL    HW1 3536   0.170   0.555   8.793
  928SOL    HW2 3537   0.072   0.630   8.901
  929SOL     OW 3538   0.561   0.222   8.595
  929SOL    HW1 3539   0.599   0.138   8.632
  929SOL    HW2 3540   0.473   0.241   8.639
  930SOL     OW 3541   0.866   0.454   8.090
  930SOL    HW1 3542   0.834   0.526   8.028
  930SOL    HW2 3543   0.890   0.373   8.037
  931SOL     OW 3544   1.017   0.039   8.201
  931SOL    HW1 3545   0.945   0.044   8.132
  931SOL    HW2 3546   0.993  -0.030   8.270
  932SOL     OW 3547   1.429   1.173   8.315
  932SOL    HW1 3548   1.374   1.089   8.308
  932SOL    HW2 3549   1.455   1.202   8.223
  933SOL     OW 3550   1.466   0.590   8.440
  933SOL    HW1 3551   1.436   0.495   8.447
  933SOL    HW2 3552   1.539   0.606   8.506
  934SOL     OW 3553   1.857   0.833   7.825
  934SOL    HW1 3554   1.899   0.769   7.889
  934SOL    HW2 3555   1.819   0.782   7.747
  935SOL     OW 3556   0.488   1.385   7.622
  935SOL    HW1 3557   0.401   1.370   7.669
  935SOL    HW2 3558   0.471   1.411   7.527
  936SOL     OW 3559   1.664   1.280   8.105
  936SOL    HW1 3560   1.763   1.288   8.119
  936SOL    HW2 3561   1.619   1.364   8.136
  937SOL     OW 3562   1.390   0.575   7.526
  937SOL    HW1 3563   1.336   0.554   7.607
  937SOL    HW2 3564   1.481   0.534   7.535
  938SOL     OW 3565   0.527   0.256   7.776
  938SOL    HW1 3566   0.554   0.197   7.701
  938SOL    HW2 3567   0.527   0.351   7.745
  939SOL     OW 3568   1.754   1.223   9.036
  939SOL    HW1 3569   1.845   1.184   9.023
  939SOL    HW2 3570   1.762   1.319   9.060
  940SOL     OW 3571   1.064   1.347   8.788
  940SOL    HW1 3572   0.984   1.324   8.843
  940SOL    HW2 3573   1.147   1.321   8.837
  941SOL     OW 3574   1.592   1.629   9.073
  941SOL    HW1 3575   1.619   1.663   8.983
  941SOL    HW2 3576   1.671   1.591   9.119
  942SOL     OW 3577   1.111   1.195   8.548
  942SOL    HW1 3578   1.071   1.239   8.629
  942SOL    HW2 3579   1.070   1.232   8.465
  943SOL     OW 3580   1.638   1.099   8.527
  943SOL    HW1 3581   1.643   1.180   8.586
  943SOL    HW2 3582   1.552   1.101   8.476
  944SOL     OW 3583   0.915   0.089   8.850
  944SOL    HW1 3584   0.940   0.069   8.755
  944SOL    HW2 3585   0.987   0.145   8.892
  945SOL     OW 3586   0.980   1.116   9.167
  945SOL    HW1 3587   0.881   1.122   9.177
  945SOL    HW2 3588   1.003   1.036   9.111
  946SOL     OW 3589   0.705   1.050   7.816
  946SOL    HW1 3590   0.691   1.057   7.915
  946SOL    HW2 3591   0.789   0.999   7.798
  947SOL     OW 3592   0.410   0.813   8.699
  947SOL    HW1 3593   0.496   0.825   8.749
  947SOL    HW2 3594   0.368   0.726   8.726
  948SOL     OW 3595   1.274   0.386   8.710
  948SOL    HW1 3596   1.295   0.460   8.774
  948SOL    HW2 3597   1.185   0.403   8.667
  949SOL     OW 3598   0.064   1.564   8.779
  949SOL    HW1 3599   0.018   1.646   8.745
  949SOL    HW2 3600   0.162   1.583   8.788
  950SOL     OW 3601   0.367   1.100   7.949
  950SOL    HW1 3602   0.360   1.183   7.893
  950SOL    HW2 3603   0.371   1.020   7.889
  951SOL     OW 3604   0.566   0.537   8.313
  951SOL    HW1 3605   0.578   0.603   8.239
  951SOL    HW2 3606   0.612   0.571   8.396
  952SOL     OW 3607   1.252   1.348   7.836
  952SOL    HW1 3608   1.302   1.425   7.876
  952SOL    HW2 3609   1.157   1.350   7.868
  953SOL     OW 3610   1.272   1.445   8.590
  953SOL    HW1 3611   1.319   1.458   8.677
  953SOL    HW2 3612   1.206   1.371   8.599
  954SOL     OW 3613   1.582   0.639   7.920
  954SOL    HW1 3614   1.551   0.700   7.993
  954SOL    HW2 3615   1.632   0.691   7.851
  955SOL     OW 3616   0.354   1.510   8.777
  955SOL    HW1 3617   0.333   1.466   8.690
  955SOL    HW2 3618   0.451   1.536   8.780
  956SOL     OW 3619   0.402   0.751   9.046
  956SOL    HW1 3620   0.470   0.806   8.999
  956SOL    HW2 3621   0.442   0.663   9.073
  957SOL     OW 3622   1.587   0.779   9.118
  957SOL    HW1 3623   1.495   0.817   9.113
  957SOL    HW2 3624   1.647   0.826   9.053
  958SOL     OW 3625   1.013   0.105   9.218
  958SOL    HW1 3626   1.019   0.190   9.166
  958SOL    HW2 3627   1.045   0.029   9.161
  959SOL     OW 3628   0.504   0.050   9.188
  959SOL    HW1 3629   0.462  -0.007   9.118
  959SOL    HW2 3630   0.438   0.119   9.220
  960SOL     OW 3631   0.573   0.870   8.477
  960SOL    HW1 3632   0.617   0.959   8.468
  960SOL    HW2 3633   0.510   0.870   8.554
  961SOL     OW 3634   1.360   0.862   8.493
  961SOL    HW1 3635   1.285   0.862   8.427
  961SOL    HW2 3636   1.397   0.770   8.502
  962SOL     OW 3637   1.209   0.525   7.723
  962SOL    HW1 3638   1.222   0.441   7.777
  962SOL    HW2 3639   1.180   0.599   7.783
  963SOL     OW 3640   0.307   0.213   8.679
  963SOL    HW1 3641   0.284   0.250   8.769
  963SOL    HW2 3642   0.277   0.118   8.673
  964SOL     OW 3643   0.037   1.310   8.730
  964SOL    HW1 3644   0.090   1.261   8.798
  964SOL    HW2 3645   0.059   1.408   8.735
  965SOL     OW 3646   0.732   0.634   8.512
  965SOL    HW1 3647   0.791   0.608   8.436
  965SOL    HW2 3648   0.704   0.730   8.501
  966SOL     OW 3649   1.728   0.935   9.302
  966SOL    HW1 3650   1.682   0.928   9.213
  966SOL    HW2 3651   1.666   0.979   9.368
  967SOL     OW 3652   0.307   0.063   8.066
  967SOL    HW1 3653   0.296   0.157   8.099
  967SOL    HW2 3654   0.302   0.000   8.143
  968SOL     OW 3655   1.622   0.367   7.822
  968SOL    HW1 3656   1.624   0.291   7.886
  968SOL    HW2 3657   1.574   0.444   7.862
  969SOL     OW 3658   1.023   0.766   8.414
  969SOL    HW1 3659   1.038   0.787   8.510
  969SOL    HW2 3660   0.993   0.671   8.405
  970SOL     OW 3661   0.980   1.573   9.148
  970SOL    HW1 3662   0.960   1.617   9.060
  970SOL    HW2 3663   1.019   1.482   9.132
  971SOL     OW 3664   1.859   1.518   9.053
  971SOL    HW1 3665   1.873   1.545   8.958
  971SOL    HW2 3666   1.942   1.540   9.106
  972SOL     OW 3667   0.350   0.898   9.252
  972SOL    HW1 3668   0.426   0.942   9.300
  972SOL    HW2 3669   0.385   0.851   9.170
  973SOL     OW 3670   1.540   0.274   7.573
  973SOL    HW1 3671   1.479   0.199   7.596
  973SOL    HW2 3672   1.562   0.326   7.656
  974SOL     OW 3673   1.303   0.838   7.490
  974SOL    HW1 3674   1.337   0.745   7.505
  974SOL    HW2 3675   1.321   0.865   7.395
  975SOL     OW 3676   1.068   1.333   8.297
  975SOL    HW1 3677   1.075   1.249   8.242
  975SOL    HW2 3678   1.130   1.402   8.261
  976SOL     OW 3679   0.319   0.810   8.397
  976SOL    HW1 3680   0.412   0.846   8.402
  976SOL    HW2 3681   0.313   0.725   8.449
  977SOL     OW 3682   0.339   0.509   8.454
  977SOL    HW1 3683   0.287   0.426   8.437
  977SOL    HW2 3684   0.416   0.514   8.390
  978SOL     OW 3685   1.138   0.380   9.126
  978SOL    HW1 3686   1.093   0.443   9.190
  978SOL    HW2 3687   1.231   0.411   9.109
  979SOL     OW 3688   1.160   0.207   8.925
  979SOL    HW1 3689   1.160   0.271   9.002
  979SOL    HW2 3690   1.188   0.255   8.842
  980SOL     OW 3691   0.008   1.326   7.648
  980SOL    HW1 3692  -0.085   1.347   7.617
  980SOL    HW2 3693   0.018   1.227   7.661
  981SOL     OW 3694   0.088   1.801   8.375
  981SOL    HW1 3695   0.046   1.715   8.348
  981SOL    HW2 3696   0.182   1.804   8.341
  982SOL     OW 3697   0.504   1.568   8.358
  982SOL    HW1 3698   0.570   1.642   8.367
  982SOL    HW2 3699   0.548   1.489   8.316
  983SOL     OW 3700   1.002   0.796   8.686
  983SOL    HW1 3701   1.043   0.764   8.772
  983SOL    HW2 3702   0.906   0.769   8.683
  984SOL     OW 3703   0.040   0.544   8.562
  984SOL    HW1 3704   0.125   0.511   8.521
  984SOL    HW2 3705   0.053   0.559   8.660
  985SOL     OW 3706   0.189   0.520   9.170
  985SOL    HW1 3707   0.248   0.480   9.100
  985SOL    HW2 3708   0.131   0.591   9.129
  986SOL     OW 3709   1.369   0.950   9.108
  986SOL    HW1 3710   1.408   1.039   9.128
  986SOL    HW2 3711   1.379   0.930   9.011
  987SOL     OW 3712   0.815   0.572   7.773
  987SOL    HW1 3713   0.822   0.483   7.727
  987SOL    HW2 3714   0.721   0.606   7.765
  988SOL     OW 3715   1.657   0.604   8.654
  988SOL    HW1 3716   1.619   0.535   8.716
  988SOL    HW2 3717   1.739   0.568   8.610
  989SOL     OW 3718   0.252   1.564   9.192
  989SOL    HW1 3719   0.222   1.621   9.268
  989SOL    HW2 3720   0.245   1.467   9.218
  990SOL     OW 3721   0.671   0.464   8.717
  990SOL    HW1 3722   0.637   0.375   8.687
  990SOL    HW2 3723   0.697   0.518   8.637
  991SOL     OW 3724   0.930   1.678   8.913
  991SOL    HW1 3725   0.906   1.660   8.818
  991SOL    HW2 3726   0.960   1.772   8.923
  992SOL     OW 3727   0.473   0.500   7.639
  992SOL    HW1 3728   0.534   0.580   7.643
  992SOL    HW2 3729   0.378   0.531   7.646
  993SOL     OW 3730   0.159   1.137   8.914
  993SOL    HW1 3731   0.181   1.076   8.990
  993SOL    HW2 3732   0.169   1.088   8.828
  994SOL     OW 3733   1.347   1.059   8.682
  994SOL    HW1 3734   1.371   0.996   8.608
  994SOL    HW2 3735   1.257   1.099   8.664
  995SOL     OW 3736   1.302   0.855   7.757
  995SOL    HW1 3737   1.216   0.824   7.799
  995SOL    HW2 3738   1.298   0.841   7.658
  996SOL     OW 3739   1.759   1.747   8.602
  996SOL    HW1 3740   1.820   1.777   8.529
  996SOL    HW2 3741   1.721   1.658   8.580
  997SOL     OW 3742   1.252   1.731   8.576
  997SOL    HW1 3743   1.336   1.736   8.522
  997SOL    HW2 3744   1.229   1.635   8.594
  998SOL     OW 3745   0.083   1.258   8.470
  998SOL    HW1 3746   0.078   1.257   8.570
  998SOL    HW2 3747   0.000   1.217   8.432
  999SOL     OW 3748   0.688   1.662   9.164
  999SOL    HW1 3749   0.632   1.743   9.173
  999SOL    HW2 3750   0.740   1.666   9.078
 1000SOL     OW 3751   1.726   0.135   7.971
 1000SOL    HW1 3752   1.799   0.118   7.904
 1000SOL    HW2 3753   1.695   0.048   8.009
 1001SOL     OW 3754   1.388   1.573   7.925
 1001SOL    HW1 3755   1.455   1.585   7.851
 1001SOL    HW2 3756   1.348   1.662   7.948
 1002SOL     OW 3757   0.130   1.794   9.299
 1002SOL    HW1 3758   0.089   1.720   9.352
 1002SOL    HW2 3759   0.194   1.845   9.357
 1003SOL     OW 3760   1.280   0.927   8.120
 1003SOL    HW1 3761   1.340   0.846   8.122
 1003SOL    HW2 3762   1.320   0.996   8.060
 1004SOL     OW 3763   0.830   1.273   8.870
 1004SOL    HW1 3764   0.825   1.306   8.965
 1004SOL    HW2 3765   0.744   1.292   8.824
 1005SOL     OW 3766   0.672   1.616   7.602
 1005SOL    HW1 3767   0.681   1.626   7.503
 1005SOL    HW2 3768   0.632   1.527   7.623
 1006SOL     OW 3769   1.650   1.720   8.842
 1006SOL    HW1 3770   1.703   1.730   8.758
 1006SOL    HW2 3771   1.623   1.810   8.876
 1007SOL     OW 3772   1.841   0.175   8.411
 1007SOL    HW1 3773   1.880   0.090   8.375
 1007SOL    HW2 3774   1.743   0.177   8.392
 1008SOL     OW 3775   0.263   0.326   8.168
 1008SOL    HW1 3776   0.184   0.377   8.134
 1008SOL    HW2 3777   0.254   0.311   8.266
 1009SOL     OW 3778   1.194   1.612   7.479
 1009SOL    HW1 3779   1.200   1.519   7.516
 1009SOL    HW2 3780   1.135   1.612   7.399
 1010SOL     OW 3781   0.822   1.002   8.820
 1010SOL    HW1 3782   0.862   1.001   8.728
 1010SOL    HW2 3783   0.832   1.094   8.860
 1011SOL     OW 3784   0.916   0.910   7.739
 1011SOL    HW1 3785   0.979   0.948   7.671
 1011SOL    HW2 3786   0.956   0.827   7.778
 1012SOL     OW 3787   1.504   1.607   7.492
 1012SOL    HW1 3788   1.412   1.644   7.499
 1012SOL    HW2 3789   1.542   1.627   7.402
 1013SOL     OW 3790   0.372   1.288   8.938
 1013SOL    HW1 3791   0.359   1.381   8.904
 1013SOL    HW2 3792   0.288   1.236   8.925
 1014SOL     OW 3793   1.614   1.292   8.737
 1014SOL    HW1 3794   1.674   1.295   8.817
 1014SOL    HW2 3795   1.539   1.356   8.750
 1015SOL     OW 3796   1.039   1.098   8.144
 1015SOL    HW1 3797   0.969   1.051   8.198
 1015SOL    HW2 3798   1.098   1.030   8.101
 1016SOL     OW 3799   1.014   0.236   8.419
 1016SOL    HW1 3800   1.006   0.200   8.326
 1016SOL    HW2 3801   1.012   0.160   8.484
 1017SOL     OW 3802   0.590   1.487   7.939
 1017SOL    HW1 3803   0.632   1.429   7.869
 1017SOL    HW2 3804   0.546   1.566   7.895
 1018SOL     OW 3805   1.709   0.385   8.829
 1018SOL    HW1 3806   1.782   0.454   8.833
 1018SOL    HW2 3807   1.737   0.310   8.770
 1019SOL     OW 3808   0.255   1.348   7.738
 1019SOL    HW1 3809   0.159   1.349   7.711
 1019SOL    HW2 3810   0.267   1.401   7.822
 1020SOL     OW 3811   0.105   1.013   9.174
 1020SOL    HW1 3812   0.028   0.980   9.228
 1020SOL    HW2 3813   0.190   0.983   9.216
 1021SOL     OW 3814   0.672   0.203   8.937
 1021SOL    HW1 3815   0.762   0.187   8.897
 1021SOL    HW2 3816   0.680   0.208   9.036
 1022SOL     OW 3817   0.075   0.345   7.481
 1022SOL    HW1 3818  -0.017   0.317   7.452
 1022SOL    HW2 3819   0.106   0.422   7.425
 1023SOL     OW 3820   1.440   0.856   8.846
 1023SOL    HW1 3821   1.383   0.908   8.783
 1023SOL    HW2 3822   1.536   0.868   8.822
 1024SOL     OW 3823   0.072   0.166   7.766
 1024SOL    HW1 3824   0.055   0.249   7.712
 1024SOL    HW2 3825   0.162   0.129   7.744
 1025SOL     OW 3826   1.183   1.335   7.567
 1025SOL    HW1 3827   1.084   1.324   7.569
 1025SOL    HW2 3828   1.217   1.350   7.660
 1026SOL     OW 3829   0.613   0.842   8.879
 1026SOL    HW1 3830   0.669   0.923   8.862
 1026SOL    HW2 3831   0.672   0.762   8.882
 1027SOL     OW 3832   1.493   1.767   8.407
 1027SOL    HW1 3833   1.526   1.831   8.338
 1027SOL    HW2 3834   1.559   1.761   8.482
 1028SOL     OW 3835   0.716   0.565   9.156
 1028SOL    HW1 3836   0.735   0.630   9.230
 1028SOL    HW2 3837   0.776   0.485   9.165
 1029SOL     OW 3838   1.450   1.220   9.081
 1029SOL    HW1 3839   1.441   1.210   9.180
 1029SOL    HW2 3840   1.546   1.213   9.055
 1030SOL     OW 3841   0.390   1.741   9.008
 1030SOL    HW1 3842   0.299   1.782   9.006
 1030SOL    HW2 3843   0.383   1.647   9.040
 1031SOL     OW 3844   1.674   0.883   8.702
 1031SOL    HW1 3845   1.647   0.794   8.665
 1031SOL    HW2 3846   1.675   0.951   8.629
 1032SOL     OW 3847   1.225   0.325   7.897
 1032SOL    HW1 3848   1.290   0.251   7.886
 1032SOL    HW2 3849   1.245   0.375   7.981
 1033SOL     OW 3850   0.594   0.745   8.100
 1033SOL    HW1 3851   0.644   0.830   8.081
 1033SOL    HW2 3852   0.506   0.747   8.052
 1034SOL     OW 3853   1.777   0.342   9.090
 1034SOL    HW1 3854   1.760   0.373   8.996
 1034SOL    HW2 3855   1.693   0.305   9.128
 1035SOL     OW 3856   1.730   0.934   8.965
 1035SOL    HW1 3857   1.768   1.025   8.980
 1035SOL    HW2 3858   1.722   0.917   8.866
 1036SOL     OW 3859   0.859   1.374   7.464
 1036SOL    HW1 3860   0.813   1.389   7.552
 1036SOL    HW2 3861   0.903   1.459   7.434
 1037SOL     OW 3862   0.661   1.790   8.401
 1037SOL    HW1 3863   0.615   1.878   8.388
 1037SOL    HW2 3864   0.760   1.802   8.394
 1038SOL     OW 3865   0.859   0.956   8.309
 1038SOL    HW1 3866   0.913   0.887   8.357
 1038SOL    HW2 3867   0.827   1.025   8.375
 1039SOL     OW 3868   1.083   0.984   7.535
 1039SOL    HW1 3869   1.060   1.037   7.453
 1039SOL    HW2 3870   1.164   0.928   7.516
 1040SOL     OW 3871   1.861   1.569   8.299
 1040SOL    HW1 3872   1.790   1.557   8.229
 1040SOL    HW2 3873   1.862   1.490   8.359
 1041SOL     OW 3874   0.221   1.314   9.292
 1041SOL    HW1 3875   0.156   1.241   9.271
 1041SOL    HW2 3876   0.225   1.328   9.390
 1042SOL     OW 3877   0.079   1.240   8.101
 1042SOL    HW1 3878   0.078   1.193   8.189
 1042SOL    HW2 3879   0.161   1.212   8.050
 1043SOL     OW 3880   0.672   1.391   9.072
 1043SOL    HW1 3881   0.594   1.341   9.110
 1043SOL    HW2 3882   0.669   1.486   9.103
 1044SOL     OW 3883   1.824   0.192   8.675
 1044SOL    HW1 3884   1.820   0.102   8.719
 1044SOL    HW2 3885   1.827   0.181   8.576
 1045SOL     OW 3886   0.428   0.424   7.968
 1045SOL    HW1 3887   0.458   0.352   7.906
 1045SOL    HW2 3888   0.389   0.384   8.051
 1046SOL     OW 3889   1.705   1.487   8.552
 1046SOL    HW1 3890   1.612   1.462   8.525
 1046SOL    HW2 3891   1.731   1.437   8.634
 1047SOL     OW 3892   0.317   0.547   8.728
 1047SOL    HW1 3893   0.355   0.488   8.800
 1047SOL    HW2 3894   0.357   0.521   8.640
 1048SOL     OW 3895   0.812   1.586   8.135
 1048SOL    HW1 3896   0.844   1.596   8.041
 1048SOL    HW2 3897   0.733   1.524   8.137
 1049SOL     OW 3898   1.424   0.214   8.560
 1049SOL    HW1 3899   1.476   0.149   8.615
 1049SOL    HW2 3900   1.375   0.277   8.621
 1050SOL     OW 3901   1.001   0.034   8.602
 1050SOL    HW1 3902   0.938  -0.038   8.571
 1050SOL    HW2 3903   1.094  -0.002   8.602
 1051SOL     OW 3904   0.770   1.330   7.749
 1051SOL    HW1 3905   0.724   1.243   7.766
 1051SOL    HW2 3906   0.861   1.327   7.790
 1052SOL     OW 3907   0.618   1.567   8.732
 1052SOL    HW1 3908   0.613   1.649   8.789
 1052SOL    HW2 3909   0.707   1.564   8.687
 1053SOL     OW 3910   1.352   0.052   7.616
 1053SOL    HW1 3911   1.387   0.011   7.532
 1053SOL    HW2 3912   1.262   0.014   7.636
 1054SOL     OW 3913   1.300   0.453   8.139
 1054SOL    HW1 3914   1.241   0.533   8.143
 1054SOL    HW2 3915   1.315   0.418   8.232
 1055SOL     OW 3916   1.593   0.221   8.330
 1055SOL    HW1 3917   1.509   0.220   8.384
 1055SOL    HW2 3918   1.595   0.304   8.274
 1056SOL     OW 3919   0.039   1.077   7.748
 1056SOL    HW1 3920   0.138   1.066   7.739
 1056SOL    HW2 3921  -0.001   0.991   7.780
 1057SOL     OW 3922   0.875   1.646   7.785
 1057SOL    HW1 3923   0.798   1.611   7.731
 1057SOL    HW2 3924   0.843   1.717   7.847
 1058SOL     OW 3925   0.230   0.628   9.423
 1058SOL    HW1 3926   0.137   0.626   9.460
 1058SOL    HW2 3927   0.231   0.589   9.331
 1059SOL     OW 3928   0.225   0.275  10.306
 1059SOL    HW1 3929   0.260   0.258  10.398
 1059SOL    HW2 3930   0.137   0.230  10.294
 1060SOL     OW 3931   0.019   0.368   9.957
 1060SOL    HW1 3932  -0.063   0.411   9.996
 1060SOL    HW2 3933  -0.009   0.295   9.894
 1061SOL     OW 3934   0.569   1.275  10.475
 1061SOL    HW1 3935   0.476   1.268  10.438
 1061SOL    HW2 3936   0.580   1.364  10.519
 1062SOL     OW 3937   1.555   1.511  10.013
 1062SOL    HW1 3938   1.498   1.495  10.094
 1062SOL    HW2 3939   1.496   1.521   9.933
 1063SOL     OW 3940   1.135   0.703  10.027
 1063SOL    HW1 3941   1.192   0.781  10.002
 1063SOL    HW2 3942   1.075   0.729  10.103
 1064SOL     OW 3943   1.755   0.607   9.541
 1064SOL    HW1 3944   1.743   0.594   9.442
 1064SOL    HW2 3945   1.725   0.526   9.590
 1065SOL     OW 3946   0.768   1.144  10.333
 1065SOL    HW1 3947   0.690   1.161  10.393
 1065SOL    HW2 3948   0.802   1.231  10.297
 1066SOL     OW 3949   0.850   0.798  11.133
 1066SOL    HW1 3950   0.846   0.874  11.198
 1066SOL    HW2 3951   0.872   0.834  11.042
 1067SOL     OW 3952   0.685   1.012   9.975
 1067SOL    HW1 3953   0.754   0.996  10.045
 1067SOL    HW2 3954   0.612   1.069  10.013
 1068SOL     OW 3955   0.335   1.435  10.371
 1068SOL    HW1 3956   0.257   1.404  10.318
 1068SOL    HW2 3957   0.393   1.493  10.314
 1069SOL     OW 3958   1.460   1.505  10.649
 1069SOL    HW1 3959   1.484   1.599  10.675
 1069SOL    HW2 3960   1.444   1.451  10.731
 1070SOL     OW 3961   0.438   0.392  10.809
 1070SOL    HW1 3962   0.520   0.336  10.818
 1070SOL    HW2 3963   0.357   0.334  10.813
 1071SOL     OW 3964   1.603   0.447  10.047
 1071SOL    HW1 3965   1.529   0.493   9.997
 1071SOL    HW2 3966   1.654   0.515  10.100
 1072SOL     OW 3967   0.231   1.713   9.793
 1072SOL    HW1 3968   0.265   1.790   9.847
 1072SOL    HW2 3969   0.275   1.713   9.703
 1073SOL     OW 3970   0.230   1.434   9.848
 1073SOL    HW1 3971   0.204   1.530   9.848
 1073SOL    HW2 3972   0.159   1.380   9.893
 1074SOL     OW 3973   0.240   1.091  10.196
 1074SOL    HW1 3974   0.254   1.007  10.248
 1074SOL    HW2 3975   0.185   1.155  10.251
 1075SOL     OW 3976   0.620   1.786  10.749
 1075SOL    HW1 3977   0.528   1.769  10.784
 1075SOL    HW2 3978   0.648   1.878  10.775
 1076SOL     OW 3979   0.606   0.964   9.433
 1076SOL    HW1 3980   0.613   1.048   9.379
 1076SOL    HW2 3981   0.652   0.977   9.521
 1077SOL     OW 3982   1.594   0.114  10.790
 1077SOL    HW1 3983   1.576   0.181  10.718
 1077SOL    HW2 3984   1.591   0.160  10.879
 1078SOL     OW 3985   0.122   0.643   9.873
 1078SOL    HW1 3986   0.077   0.555   9.890
 1078SOL    HW2 3987   0.121   0.697   9.957
 1079SOL     OW 3988   1.842   1.767   9.669
 1079SOL    HW1 3989   1.896   1.738   9.749
 1079SOL    HW2 3990   1.872   1.857   9.640
 1080SOL     OW 3991   0.027   1.596   9.427
 1080SOL    HW1 3992   0.008   1.500   9.448
 1080SOL    HW2 3993  -0.006   1.654   9.502
 1081SOL     OW 3994   1.689   0.922   9.922
 1081SOL    HW1 3995   1.784   0.893   9.930
 1081SOL    HW2 3996   1.681   0.987   9.847
 1082SOL     OW 3997   1.641   1.108   9.742
 1082SOL    HW1 3998   1.727   1.110   9.690
 1082SOL    HW2 3999   1.655   1.155   9.830
 1083SOL     OW 4000   0.113   0.737  10.907
 1083SOL    HW1 4001   0.201   0.724  10.952
 1083SOL    HW2 4002   0.100   0.834  10.885
 1084SOL     OW 4003   0.613   1.365  10.036
 1084SOL    HW1 4004   0.564   1.278  10.045
 1084SOL    HW2 4005   0.590   1.408   9.949
 1085SOL     OW 4006   1.293   1.228  10.733
 1085SOL    HW1 4007   1.330   1.155  10.675
 1085SOL    HW2 4008   1.345   1.233  10.818
 1086SOL     OW 4009   0.809   0.004   9.812
 1086SOL    HW1 4010   0.849   0.095   9.803
 1086SOL    HW2 4011   0.709   0.012   9.818
 1087SOL     OW 4012   0.197   0.976  10.574
 1087SOL    HW1 4013   0.286   0.931  10.560
 1087SOL    HW2 4014   0.124   0.911  10.555
 1088SOL     OW 4015   1.525   0.999   9.500
 1088SOL    HW1 4016   1.462   0.923   9.513
 1088SOL    HW2 4017   1.573   1.017   9.586
 1089SOL     OW 4018   1.187   1.792  10.926
 1089SOL    HW1 4019   1.211   1.852  10.850
 1089SOL    HW2 4020   1.194   1.697  10.896
 1090SOL     OW 4021   0.317   0.251  11.111
 1090SOL    HW1 4022   0.388   0.322  11.117
 1090SOL    HW2 4023   0.229   0.290  11.139
 1091SOL     OW 4024   1.466   1.417  10.263
 1091SOL    HW1 4025   1.407   1.423  10.343
 1091SOL    HW2 4026   1.451   1.329  10.217
 1092SOL     OW 4027   1.667   1.714   9.882
 1092SOL    HW1 4028   1.626   1.691   9.794
 1092SOL    HW2 4029   1.649   1.640   9.947
 1093SOL     OW 4030   0.598   0.729   9.580
 1093SOL    HW1 4031   0.622   0.798   9.512
 1093SOL    HW2 4032   0.520   0.762   9.634
 1094SOL     OW 4033   1.281   0.345  10.254
 1094SOL    HW1 4034   1.195   0.295  10.241
 1094SOL    HW2 4035   1.343   0.291  10.310
 1095SOL     OW 4036   1.576   1.662   9.617
 1095SOL    HW1 4037   1.665   1.708   9.620
 1095SOL    HW2 4038   1.555   1.638   9.522
 1096SOL     OW 4039   0.807   0.605  10.775
 1096SOL    HW1 4040   0.760   0.602  10.864
 1096SOL    HW2 4041   0.756   0.550  10.709
 1097SOL     OW 4042   0.973   0.890  10.882
 1097SOL    HW1 4043   1.019   0.806  10.853
 1097SOL    HW2 4044   0.917   0.924  10.807
 1098SOL     OW 4045   0.991   0.410  10.552
 1098SOL    HW1 4046   0.914   0.444  10.606
 1098SOL    HW2 4047   0.957   0.359  10.473
 1099SOL     OW 4048   1.041   0.701   9.739
 1099SOL    HW1 4049   1.067   0.697   9.835
 1099SOL    HW2 4050   0.956   0.650   9.725
 1100SOL     OW 4051   0.076   0.811  10.099
 1100SOL    HW1 4052   0.175   0.799  10.108
 1100SOL    HW2 4053   0.052   0.906  10.120
 1101SOL     OW 4054   0.130   1.821  10.881
 1101SOL    HW1 4055   0.120   1.806  10.980
 1101SOL    HW2 4056   0.044   1.857  10.845
 1102SOL     OW 4057   0.865   0.348   9.505
 1102SOL    HW1 4058   0.924   0.411   9.456
 1102SOL    HW2 4059   0.884   0.254   9.476
 1103SOL     OW 4060   1.362   1.144   9.855
 1103SOL    HW1 4061   1.445   1.115   9.807
 1103SOL    HW2 4062   1.313   1.211   9.799
 1104SOL     OW 4063   0.550   0.196  10.195
 1104SOL    HW1 4064   0.545   0.191  10.295
 1104SOL    HW2 4065   0.552   0.292  10.166
 1105SOL     OW 4066   1.008   1.456   9.787
 1105SOL    HW1 4067   0.962   1.528   9.735
 1105SOL    HW2 4068   1.004   1.476   9.885
 1106SOL     OW 4069   0.351   1.801  10.163
 1106SOL    HW1 4070   0.401   1.715  10.169
 1106SOL    HW2 4071   0.416   1.878  10.160
 1107SOL     OW 4072   1.795   1.066  10.183
 1107SOL    HW1 4073   1.733   1.051  10.107
 1107SOL    HW2 4074   1.743   1.077  10.268
 1108SOL     OW 4075   1.227   1.550  10.816
 1108SOL    HW1 4076   1.233   1.473  10.880
 1108SOL    HW2 4077   1.175   1.524  10.736
 1109SOL     OW 4078   0.321   0.943   9.552
 1109SOL    HW1 4079   0.403   0.982   9.510
 1109SOL    HW2 4080   0.294   0.861   9.503
 1110SOL     OW 4081   1.458   0.735  10.038
 1110SOL    HW1 4082   1.453   0.670  10.113
 1110SOL    HW2 4083   1.538   0.794  10.051
 1111SOL     OW 4084   0.461   1.266  11.037
 1111SOL    HW1 4085   0.411   1.267  10.951
 1111SOL    HW2 4086   0.398   1.248  11.113
 1112SOL     OW 4087   1.111   1.776   9.547
 1112SOL    HW1 4088   1.051   1.714   9.597
 1112SOL    HW2 4089   1.142   1.732   9.462
 1113SOL     OW 4090   0.202   0.285  10.808
 1113SOL    HW1 4091   0.122   0.345  10.795
 1113SOL    HW2 4092   0.192   0.236  10.894
 1114SOL     OW 4093   1.632   1.377   9.391
 1114SOL    HW1 4094   1.600   1.471   9.381
 1114SOL    HW2 4095   1.556   1.314   9.379
 1115SOL     OW 4096   0.464   1.743   9.633
 1115SOL    HW1 4097   0.497   1.782   9.719
 1115SOL    HW2 4098   0.540   1.736   9.568
 1116SOL     OW 4099   1.400   0.107   9.736
 1116SOL    HW1 4100   1.376   0.070   9.646
 1116SOL    HW2 4101   1.499   0.123   9.740
 1117SOL     OW 4102   0.249   1.785  10.551
 1117SOL    HW1 4103   0.306   1.720  10.601
 1117SOL    HW2 4104   0.233   1.752  10.458
 1118SOL     OW 4105   0.940   1.698  10.214
 1118SOL    HW1 4106   1.020   1.641  10.235
 1118SOL    HW2 4107   0.891   1.658  10.137
 1119SOL     OW 4108   0.382   0.700   9.790
 1119SOL    HW1 4109   0.427   0.610   9.787
 1119SOL    HW2 4110   0.288   0.689   9.823
 1120SOL     OW 4111   0.614   0.122   9.427
 1120SOL    HW1 4112   0.712   0.100   9.434
 1120SOL    HW2 4113   0.583   0.105   9.334
 1121SOL     OW 4114   0.781   0.264  11.059
 1121SOL    HW1 4115   0.848   0.203  11.102
 1121SOL    HW2 4116   0.708   0.283  11.124
 1122SOL     OW 4117   0.888   1.514  10.505
 1122SOL    HW1 4118   0.865   1.489  10.411
 1122SOL    HW2 4119   0.949   1.445  10.544
 1123SOL     OW 4120   1.351   0.590  10.743
 1123SOL    HW1 4121   1.379   0.547  10.828
 1123SOL    HW2 4122   1.376   0.686  10.744
 1124SOL     OW 4123   0.803   1.402  10.234
 1124SOL    HW1 4124   0.893   1.416  10.192
 1124SOL    HW2 4125   0.732   1.404  10.163
 1125SOL     OW 4126   0.922   0.503  10.209
 1125SOL    HW1 4127   0.897   0.494  10.113
 1125SOL    HW2 4128   0.970   0.421  10.240
 1126SOL     OW 4129   0.539   0.064   9.822
 1126SOL    HW1 4130   0.458   0.065   9.880
 1126SOL    HW2 4131   0.542   0.147   9.767
 1127SOL     OW 4132   1.434   1.188   9.351
 1127SOL    HW1 4133   1.466   1.112   9.408
 1127SOL    HW2 4134   1.342   1.215   9.381
 1128SOL     OW 4135   0.297   0.035   9.481
 1128SOL    HW1 4136   0.346   0.119   9.460
 1128SOL    HW2 4137   0.359  -0.030   9.526
 1129SOL     OW 4138   0.935   0.236   9.790
 1129SOL    HW1 4139   0.887   0.277   9.712
 1129SOL    HW2 4140   1.034   0.234   9.771
 1130SOL     OW 4141   1.076   0.683  10.774
 1130SOL    HW1 4142   0.996   0.622  10.777
 1130SOL    HW2 4143   1.157   0.630  10.750
 1131SOL     OW 4144   1.227   1.570  10.103
 1131SOL    HW1 4145   1.248   1.644  10.038
 1131SOL    HW2 4146   1.295   1.570  10.176
 1132SOL     OW 4147   0.459   1.152  10.051
 1132SOL    HW1 4148   0.388   1.125  10.116
 1132SOL    HW2 4149   0.433   1.124   9.958
 1133SOL     OW 4150   1.271   1.797   9.901
 1133SOL    HW1 4151   1.315   1.861   9.837
 1133SOL    HW2 4152   1.221   1.849   9.971
 1134SOL     OW 4153   1.032   0.549   9.326
 1134SOL    HW1 4154   0.991   0.631   9.287
 1134SOL    HW2 4155   1.096   0.575   9.399
 1135SOL     OW 4156   0.078   0.556  10.696
 1135SOL    HW1 4157   0.170   0.555  10.655
 1135SOL    HW2 4158   0.072   0.630  10.763
 1136SOL     OW 4159   0.561   0.222  10.457
 1136SOL    HW1 4160   0.599   0.138  10.494
 1136SOL    HW2 4161   0.473   0.241  10.501
 1137SOL     OW 4162   0.866   0.454   9.952
 1137SOL    HW1 4163   0.834   0.526   9.890
 1137SOL    HW2 4164   0.890   0.373   9.899
 1138SOL     OW 4165   1.017   0.039  10.063
 1138SOL    HW1 4166   0.945   0.044   9.994
 1138SOL    HW2 4167   0.993  -0.030  10.132
 1139SOL     OW 4168   1.429   1.173  10.177
 1139SOL    HW1 4169   1.374   1.089  10.170
 1139SOL    HW2 4170   1.455   1.202  10.085
 1140SOL     OW 4171   1.466   0.590  10.302
 1140SOL    HW1 4172   1.436   0.495  10.309
 1140SOL    HW2 4173   1.539   0.606  10.368
 1141SOL     OW 4174   1.857   0.833   9.687
 1141SOL    HW1 4175   1.899   0.769   9.751
 1141SOL    HW2 4176   1.819   0.782   9.609
 1142SOL     OW 4177   0.488   1.385   9.484
 1142SOL    HW1 4178   0.401   1.370   9.531
 1142SOL    HW2 4179   0.471   1.411   9.389
 1143SOL     OW 4180   1.664   1.280   9.967
 1143SOL    HW1 4181   1.763   1.288   9.981
 1143SOL    HW2 4182   1.619   1.364   9.998
 1144SOL     OW 4183   1.390   0.575   9.388
 1144SOL    HW1 4184   1.336   0.554   9.469
 1144SOL    HW2 4185   1.481   0.534   9.397
 1145SOL     OW 4186   0.527   0.256   9.638
 1145SOL    HW1 4187   0.554   0.197   9.563
 1145SOL    HW2 4188   0.527   0.351   9.607
 1146SOL     OW 4189   1.754   1.223  10.898
 1146SOL    HW1 4190   1.845   1.184  10.885
 1146SOL    HW2 4191   1.762   1.319  10.922
 1147SOL     OW 4192   1.064   1.347  10.650
 1147SOL    HW1 4193   0.984   1.324  10.705
 1147SOL    HW2 4194   1.147   1.321  10.699
 1148SOL     OW 4195   1.111   1.195  10.410
 1148SOL    HW1 4196   1.071   1.239  10.491
 1148SOL    HW2 4197   1.070   1.232  10.327
 1149SOL     OW 4198   1.638   1.099  10.389
 1149SOL    HW1 4199   1.643   1.180  10.448
 1149SOL    HW2 4200   1.552   1.101  10.338
 1150SOL     OW 4201   0.915   0.089  10.712
 1150SOL    HW1 4202   0.940   0.069  10.617
 1150SOL    HW2 4203   0.987   0.145  10.754
 1151SOL     OW 4204   0.705   1.050   9.678
 1151SOL    HW1 4205   0.691   1.057   9.777
 1151SOL    HW2 4206   0.789   0.999   9.660
 1152SOL     OW 4207   0.410   0.813  10.561
 1152SOL    HW1 4208   0.496   0.825  10.611
 1152SOL    HW2 4209   0.368   0.726  10.588
 1153SOL     OW 4210   1.274   0.386  10.572
 1153SOL    HW1 4211   1.295   0.460  10.636
 1153SOL    HW2 4212   1.185   0.403  10.529
 1154SOL     OW 4213   0.064   1.564  10.641
 1154SOL    HW1 4214   0.018   1.646  10.607
 1154SOL    HW2 4215   0.162   1.583  10.650
 1155SOL     OW 4216   0.367   1.100   9.811
 1155SOL    HW1 4217   0.360   1.183   9.755
 1155SOL    HW2 4218   0.371   1.020   9.751
 1156SOL     OW 4219   0.566   0.537  10.175
 1156SOL    HW1 4220   0.578   0.603  10.101
 1156SOL    HW2 4221   0.612   0.571  10.258
 1157SOL     OW 4222   1.252   1.348   9.698
 1157SOL    HW1 4223   1.302   1.425   9.738
 1157SOL    HW2 4224   1.157   1.350   9.730
 1158SOL     OW 4225   1.272   1.445  10.452
 1158SOL    HW1 4226   1.319   1.458  10.539
 1158SOL    HW2 4227   1.206   1.371  10.461
 1159SOL     OW 4228   1.582   0.639   9.782
 1159SOL    HW1 4229   1.551   0.700   9.855
 1159SOL    HW2 4230   1.632   0.691   9.713
 1160SOL     OW 4231   0.354   1.510  10.639
 1160SOL    HW1 4232   0.333   1.466  10.552
 1160SOL    HW2 4233   0.451   1.536  10.642
 1161SOL     OW 4234   0.402   0.751  10.908
 1161SOL    HW1 4235   0.470   0.806  10.861
 1161SOL    HW2 4236   0.442   0.663  10.935
 1162SOL     OW 4237   1.587   0.779  10.980
 1162SOL    HW1 4238   1.495   0.817  10.975
 1162SOL    HW2 4239   1.647   0.826  10.915
 1163SOL     OW 4240   0.573   0.870  10.339
 1163SOL    HW1 4241   0.617   0.959  10.330
 1163SOL    HW2 4242   0.510   0.870  10.416
 1164SOL     OW 4243   1.360   0.862  10.355
 1164SOL    HW1 4244   1.285   0.862  10.289
 1164SOL    HW2 4245   1.397   0.770  10.364
 1165SOL     OW 4246   1.209   0.525   9.585
 1165SOL    HW1 4247   1.222   0.441   9.639
 1165SOL    HW2 4248   1.180   0.599   9.645
 1166SOL     OW 4249   0.307   0.213  10.541
 1166SOL    HW1 4250   0.284   0.250  10.631
 1166SOL    HW2 4251   0.277   0.118  10.535
 1167SOL     OW 4252   0.037   1.310  10.592
 1167SOL    HW1 4253   0.090   1.261  10.660
 1167SOL    HW2 4254   0.059   1.408  10.597
 1168SOL     OW 4255   0.732   0.634  10.374
 1168SOL    HW1 4256   0.791   0.608  10.298
 1168SOL    HW2 4257   0.704   0.730  10.363
 1169SOL     OW 4258   0.307   0.063   9.928
 1169SOL    HW1 4259   0.296   0.157   9.961
 1169SOL    HW2 4260   0.302   0.000  10.005
 1170SOL     OW 4261   1.622   0.367   9.684
 1170SOL    HW1 4262   1.624   0.291   9.748
 1170SOL    HW2 4263   1.574   0.444   9.724
 1171SOL     OW 4264   1.023   0.766  10.276
 1171SOL    HW1 4265   1.038   0.787  10.372
 1171SOL    HW2 4266   0.993   0.671  10.267
 1172SOL     OW 4267   0.980   1.573  11.010
 1172SOL    HW1 4268   0.960   1.617  10.922
 1172SOL    HW2 4269   1.019   1.482  10.994
 1173SOL     OW 4270   1.859   1.518  10.915
 1173SOL    HW1 4271   1.873   1.545  10.820
 1173SOL    HW2 4272   1.942   1.540  10.968
 1174SOL     OW 4273   0.350   0.898  11.114
 1174SOL    HW1 4274   0.426   0.942  11.162
 1174SOL    HW2 4275   0.385   0.851  11.032
 1175SOL     OW 4276   1.540   0.274   9.435
 1175SOL    HW1 4277   1.479   0.199   9.458
 1175SOL    HW2 4278   1.562   0.326   9.518
 1176SOL     OW 4279   1.303   0.838   9.352
 1176SOL    HW1 4280   1.337   0.745   9.367
 1176SOL    HW2 4281   1.321   0.865   9.257
 1177SOL     OW 4282   1.068   1.333  10.159
 1177SOL    HW1 4283   1.075   1.249  10.104
 1177SOL    HW2 4284   1.130   1.402  10.123
 1178SOL     OW 4285   0.319   0.810  10.259
 1178SOL    HW1 4286   0.412   0.846  10.264
 1178SOL    HW2 4287   0.313   0.725  10.311
 1179SOL     OW 4288   0.339   0.509  10.316
 1179SOL    HW1 4289   0.287   0.426  10.299
 1179SOL    HW2 4290   0.416   0.514  10.252
 1180SOL     OW 4291   1.160   0.207  10.787
 1180SOL    HW1 4292   1.160   0.271  10.864
 1180SOL    HW2 4293   1.188   0.255  10.704
 1181SOL     OW 4294   0.008   1.326   9.510
 1181SOL    HW1 4295  -0.085   1.347   9.479
 1181SOL    HW2 4296   0.018   1.227   9.523
 1182SOL     OW 4297   0.088   1.801  10.237
 1182SOL    HW1 4298   0.046   1.715  10.210
 1182SOL    HW2 4299   0.182   1.804  10.203
 1183SOL     OW 4300   0.504   1.568  10.220
 1183SOL    HW1 4301   0.570   1.642  10.229
 1183SOL    HW2 4302   0.548   1.489  10.178
 1184SOL     OW 4303   1.002   0.796  10.548
 1184SOL    HW1 4304   1.043   0.764  10.634
 1184SOL    HW2 4305   0.906   0.769  10.545
 1185SOL     OW 4306   0.040   0.544  10.424
 1185SOL    HW1 4307   0.125   0.511  10.383
 1185SOL    HW2 4308   0.053   0.559  10.522
 1186SOL     OW 4309   0.815   0.572   9.635
 1186SOL    HW1 4310   0.822   0.483   9.589
 1186SOL    HW2 4311   0.721   0.606   9.627
 1187SOL     OW 4312   1.657   0.604  10.516
 1187SOL    HW1 4313   1.619   0.535  10.578
 1187SOL    HW2 4314   1.739   0.568  10.472
 1188SOL     OW 4315   0.252   1.564  11.054
 1188SOL    HW1 4316   0.222   1.621  11.130
 1188SOL    HW2 4317   0.245   1.467  11.080
 1189SOL     OW 4318   0.671   0.464  10.579
 1189SOL    HW1 4319   0.637   0.375  10.549
 1189SOL    HW2 4320   0.697   0.518  10.499
 1190SOL     OW 4321   0.930   1.678  10.775
 1190SOL    HW1 4322   0.906   1.660  10.680
 1190SOL    HW2 4323   0.960   1.772  10.785
 1191SOL     OW 4324   0.473   0.500   9.501
 1191SOL    HW1 4325   0.534   0.580   9.505
 1191SOL    HW2 4326   0.378   0.531   9.508
 1192SOL     OW 4327   0.159   1.137  10.776
 1192SOL    HW1 4328   0.181   1.076  10.852
 1192SOL    HW2 4329   0.169   1.088  10.690
 1193SOL     OW 4330   1.347   1.059  10.544
 1193SOL    HW1 4331   1.371   0.996  10.470
 1193SOL    HW2 4332   1.257   1.099  10.526
 1194SOL     OW 4333   1.302   0.855   9.619
 1194SOL    HW1 4334   1.216   0.824   9.661
 1194SOL    HW2 4335   1.298   0.841   9.520
 1195SOL     OW 4336   1.759   1.747  10.464
 1195SOL    HW1 4337   1.820   1.777  10.391
 1195SOL    HW2 4338   1.721   1.658  10.442
 1196SOL     OW 4339   1.252   1.731  10.438
 1196SOL    HW1 4340   1.336   1.736  10.384
 1196SOL    HW2 4341   1.229   1.635  10.456
 1197SOL     OW 4342   0.083   1.258  10.332
 1197SOL    HW1 4343   0.078   1.257  10.432
 1197SOL    HW2 4344   0.000   1.217  10.294
 1198SOL     OW 4345   1.726   0.135   9.833
 1198SOL    HW1 4346   1.799   0.118   9.766
 1198SOL    HW2 4347   1.695   0.048   9.871
 1199SOL     OW 4348   1.388   1.573   9.787
 1199SOL    HW1 4349   1.455   1.585   9.713
 1199SOL    HW2 4350   1.348   1.662   9.810
 1200SOL     OW 4351   1.280   0.927   9.982
 1200SOL    HW1 4352   1.340   0.846   9.984
 1200SOL    HW2 4353   1.320   0.996   9.922
 1201SOL     OW 4354   0.830   1.273  10.732
 1201SOL    HW1 4355   0.825   1.306  10.827
 1201SOL    HW2 4356   0.744   1.292  10.686
 1202SOL     OW 4357   0.672   1.616   9.464
 1202SOL    HW1 4358   0.681   1.626   9.365
 1202SOL    HW2 4359   0.632   1.527   9.485
 1203SOL     OW 4360   1.650   1.720  10.704
 1203SOL    HW1 4361   1.703   1.730  10.620
 1203SOL    HW2 4362   1.623   1.810  10.738
 1204SOL     OW 4363   1.841   0.175  10.273
 1204SOL    HW1 4364   1.880   0.090  10.237
 1204SOL    HW2 4365   1.743   0.177  10.254
 1205SOL     OW 4366   0.263   0.326  10.030
 1205SOL    HW1 4367   0.184   0.377   9.996
 1205SOL    HW2 4368   0.254   0.311  10.128
 1206SOL     OW 4369   1.194   1.612   9.341
 1206SOL    HW1 4370   1.200   1.519   9.378
 1206SOL    HW2 4371   1.135   1.612   9.261
 1207SOL     OW 4372   0.822   1.002  10.682
 1207SOL    HW1 4373   0.862   1.001  10.590
 1207SOL    HW2 4374   0.832   1.094  10.722
 1208SOL     OW 4375   0.916   0.910   9.601
 1208SOL    HW1 4376   0.979   0.948   9.533
 1208SOL    HW2 4377   0.956   0.827   9.640
 1209SOL     OW 4378   1.504   1.607   9.354
 1209SOL    HW1 4379   1.412   1.644   9.361
 1209SOL    HW2 4380   1.542   1.627   9.264
 1210SOL     OW 4381   0.372   1.288  10.800
 1210SOL    HW1 4382   0.359   1.381  10.766
 1210SOL    HW2 4383   0.288   1.236  10.787
 1211SOL     OW 4384   1.614   1.292  10.599
 1211SOL    HW1 4385   1.674   1.295  10.679
 1211SOL    HW2 4386   1.539   1.356  10.612
 1212SOL     OW 4387   1.039   1.098  10.006
 1212SOL    HW1 4388   0.969   1.051  10.060
 1212SOL    HW2 4389   1.098   1.030   9.963
 1213SOL     OW 4390   1.014   0.236  10.281
 1213SOL    HW1 4391   1.006   0.200  10.188
 1213SOL    HW2 4392   1.012   0.160  10.346
 1214SOL     OW 4393   0.590   1.487   9.801
 1214SOL    HW1 4394   0.632   1.429   9.731
 1214SOL    HW2 4395   0.546   1.566   9.757
 1215SOL     OW 4396   1.709   0.385  10.691
 1215SOL    HW1 4397   1.782   0.454  10.695
 1215SOL    HW2 4398   1.737   0.310  10.632
 1216SOL     OW 4399   0.255   1.348   9.600
 1216SOL    HW1 4400   0.159   1.349   9.573
 1216SOL    HW2 4401   0.267   1.401   9.684
 1217SOL     OW 4402   0.105   1.013  11.036
 1217SOL    HW1 4403   0.028   0.980  11.090
 1217SOL    HW2 4404   0.190   0.983  11.078
 1218SOL     OW 4405   0.672   0.203  10.799
 1218SOL    HW1 4406   0.762   0.187  10.759
 1218SOL    HW2 4407   0.680   0.208  10.898
 1219SOL     OW 4408   0.075   0.345   9.343
 1219SOL    HW1 4409  -0.017   0.317   9.314
 1219SOL    HW2 4410   0.106   0.422   9.287
 1220SOL     OW 4411   1.440   0.856  10.708
 1220SOL    HW1 4412   1.383   0.908  10.645
 1220SOL    HW2 4413   1.536   0.868  10.684
 1221SOL     OW 4414   0.072   0.166   9.628
 1221SOL    HW1 4415   0.055   0.249   9.574
 1221SOL    HW2 4416   0.162   0.129   9.606
 1222SOL     OW 4417   1.183   1.335   9.429
 1222SOL    HW1 4418   1.084   1.324   9.431
 1222SOL    HW2 4419   1.217   1.350   9.522
 1223SOL     OW 4420   0.613   0.842  10.741
 1223SOL    HW1 4421   0.669   0.923  10.724
 1223SOL    HW2 4422   0.672   0.762  10.744
 1224SOL     OW 4423   1.493   1.767  10.269
 1224SOL    HW1 4424   1.526   1.831  10.200
 1224SOL    HW2 4425   1.559   1.761  10.344
 1225SOL     OW 4426   0.716   0.565  11.018
 1225SOL    HW1 4427   0.735   0.630  11.092
 1225SOL    HW2 4428   0.776   0.485  11.027
 1226SOL     OW 4429   0.390   1.741  10.870
 1226SOL    HW1 4430   0.299   1.782  10.868
 1226SOL    HW2 4431   0.383   1.647  10.902
 1227SOL     OW 4432   1.674   0.883  10.564
 1227SOL    HW1 4433   1.647   0.794  10.527
 1227SOL    HW2 4434   1.675   0.951  10.491
 1228SOL     OW 4435   1.225   0.325   9.759
 1228SOL    HW1 4436   1.290   0.251   9.748
 1228SOL    HW2 4437   1.245   0.375   9.843
 1229SOL     OW 4438   0.594   0.745   9.962
 1229SOL    HW1 4439   0.644   0.830   9.943
 1229SOL    HW2 4440   0.506   0.747   9.914
 1230SOL     OW 4441   1.777   0.342  10.952
 1230SOL    HW1 4442   1.760   0.373  10.858
 1230SOL    HW2 4443   1.693   0.305  10.990
 1231SOL     OW 4444   1.730   0.934  10.827
 1231SOL    HW1 4445   1.768   1.025  10.842
 1231SOL    HW2 4446   1.722   0.917  10.728
 1232SOL     OW 4447   0.859   1.374   9.326
 1232SOL    HW1 4448   0.813   1.389   9.414
 1232SOL    HW2 4449   0.903   1.459   9.296
 1233SOL     OW 4450   0.661   1.790  10.263
 1233SOL    HW1 4451   0.615   1.878  10.250
 1233SOL    HW2 4452   0.760   1.802  10.256
 1234SOL     OW 4453   0.859   0.956  10.171
 1234SOL    HW1 4454   0.913   0.887  10.219
 1234SOL    HW2 4455   0.827   1.025  10.237
 1235SOL     OW 4456   1.083   0.984   9.397
 1235SOL    HW1 4457   1.060   1.037   9.315
 1235SOL    HW2 4458   1.164   0.928   9.378
 1236SOL     OW 4459   1.861   1.569  10.161
 1236SOL    HW1 4460   1.790   1.557  10.091
 1236SOL    HW2 4461   1.862   1.490  10.221
 1237SOL     OW 4462   0.079   1.240   9.963
 1237SOL    HW1 4463   0.078   1.193  10.051
 1237SOL    HW2 4464   0.161   1.212   9.912
 1238SOL     OW 4465   0.672   1.391  10.934
 1238SOL    HW1 4466   0.594   1.341  10.972
 1238SOL    HW2 4467   0.669   1.486  10.965
 1239SOL     OW 4468   1.824   0.192  10.537
 1239SOL    HW1 4469   1.820   0.102  10.581
 1239SOL    HW2 4470   1.827   0.181  10.438
 1240SOL     OW 4471   0.428   0.424   9.830
 1240SOL    HW1 4472   0.458   0.352   9.768
 1240SOL    HW2 4473   0.389   0.384   9.913
 1241SOL     OW 4474   1.705   1.487  10.414
 1241SOL    HW1 4475   1.612   1.462  10.387
 1241SOL    HW2 4476   1.731   1.437  10.496
 1242SOL     OW 4477   0.317   0.547  10.590
 1242SOL    HW1 4478   0.355   0.488  10.662
 1242SOL    HW2 4479   0.357   0.521  10.502
 1243SOL     OW 4480   0.812   1.586   9.997
 1243SOL    HW1 4481   0.844   1.596   9.903
 1243SOL    HW2 4482   0.733   1.524   9.999
 1244SOL     OW 4483   1.424   0.214  10.422
 1244SOL    HW1 4484   1.476   0.149  10.477
 1244SOL    HW2 4485   1.375   0.277  10.483
 1245SOL     OW 4486   1.001   0.034  10.464
 1245SOL    HW1 4487   0.938  -0.038  10.433
 1245SOL    HW2 4488   1.094  -0.002  10.464
 1246SOL     OW 4489   0.770   1.330   9.611
 1246SOL    HW1 4490   0.724   1.243   9.628
 1246SOL    HW2 4491   0.861   1.327   9.652
 1247SOL     OW 4492   0.618   1.567  10.594
 1247SOL    HW1 4493   0.613   1.649  10.651
 1247SOL    HW2 4494   0.707   1.564  10.549
 1248SOL     OW 4495   1.352   0.052   9.478
 1248SOL    HW1 4496   1.387   0.011   9.394
 1248SOL    HW2 4497   1.262   0.014   9.498
 1249SOL     OW 4498   1.300   0.453  10.001
 1249SOL    HW1 4499   1.241   0.533  10.005
 1249SOL    HW2 4500   1.315   0.418  10.094
 1250SOL     OW 4501   1.593   0.221  10.192
 1250SOL    HW1 4502   1.509   0.220  10.246
 1250SOL    HW2 4503   1.595   0.304  10.136
 1251SOL     OW 4504   0.039   1.077   9.610
 1251SOL    HW1 4505   0.138   1.066   9.601
 1251SOL    HW2 4506  -0.001   0.991   9.642
 1252SOL     OW 4507   0.875   1.646   9.647
 1252SOL    HW1 4508   0.798   1.611   9.593
 1252SOL    HW2 4509   0.843   1.717   9.709
 1253SOL     OW 4510   0.230   2.490   0.113
 1253SOL    HW1 4511   0.137   2.488   0.150
 1253SOL    HW2 4512   0.231   2.451   0.021
 1254SOL     OW 4513   0.225   2.137   0.996
 1254SOL    HW1 4514   0.260   2.120   1.088
 1254SOL    HW2 4515   0.137   2.092   0.984
 1255SOL     OW 4516   0.019   2.230   0.647
 1255SOL    HW1 4517  -0.063   2.273   0.686
 1255SOL    HW2 4518  -0.009   2.157   0.584
 1256SOL     OW 4519   0.569   3.137   1.165
 1256SOL    HW1 4520   0.476   3.130   1.128
 1256SOL    HW2 4521   0.580   3.226   1.209
 1257SOL     OW 4522   1.555   3.373   0.703
 1257SOL    HW1 4523   1.498   3.357   0.784
 1257SOL    HW2 4524   1.496   3.383   0.623
 1258SOL     OW 4525   1.135   2.565   0.717
 1258SOL    HW1 4526   1.192   2.643   0.692
 1258SOL    HW2 4527   1.075   2.591   0.793
 1259SOL     OW 4528   1.755   2.469   0.231
 1259SOL    HW1 4529   1.743   2.456   0.132
 1259SOL    HW2 4530   1.725   2.388   0.280
 1260SOL     OW 4531   0.768   3.006   1.023
 1260SOL    HW1 4532   0.690   3.023   1.083
 1260SOL    HW2 4533   0.802   3.093   0.987
 1261SOL     OW 4534   0.850   2.660   1.823
 1261SOL    HW1 4535   0.846   2.736   1.888
 1261SOL    HW2 4536   0.872   2.696   1.732
 1262SOL     OW 4537   0.685   2.874   0.665
 1262SOL    HW1 4538   0.754   2.858   0.735
 1262SOL    HW2 4539   0.612   2.931   0.703
 1263SOL     OW 4540   0.686   3.023   1.803
 1263SOL    HW1 4541   0.746   3.102   1.817
 1263SOL    HW2 4542   0.600   3.054   1.762
 1264SOL     OW 4543   0.335   3.297   1.061
 1264SOL    HW1 4544   0.257   3.266   1.008
 1264SOL    HW2 4545   0.393   3.355   1.004
 1265SOL     OW 4546   1.460   3.367   1.339
 1265SOL    HW1 4547   1.484   3.461   1.365
 1265SOL    HW2 4548   1.444   3.313   1.421
 1266SOL     OW 4549   0.438   2.254   1.499
 1266SOL    HW1 4550   0.520   2.198   1.508
 1266SOL    HW2 4551   0.357   2.196   1.503
 1267SOL     OW 4552   1.603   2.309   0.737
 1267SOL    HW1 4553   1.529   2.355   0.687
 1267SOL    HW2 4554   1.654   2.377   0.790
 1268SOL     OW 4555   0.231   3.575   0.483
 1268SOL    HW1 4556   0.265   3.652   0.537
 1268SOL    HW2 4557   0.275   3.575   0.393
 1269SOL     OW 4558   1.127   3.203   1.690
 1269SOL    HW1 4559   1.174   3.203   1.778
 1269SOL    HW2 4560   1.079   3.116   1.679
 1270SOL     OW 4561   0.230   3.296   0.538
 1270SOL    HW1 4562   0.204   3.392   0.538
 1270SOL    HW2 4563   0.159   3.242   0.583
 1271SOL     OW 4564   0.240   2.953   0.886
 1271SOL    HW1 4565   0.254   2.869   0.938
 1271SOL    HW2 4566   0.185   3.017   0.941
 1272SOL     OW 4567   0.620   3.648   1.439
 1272SOL    HW1 4568   0.528   3.631   1.474
 1272SOL    HW2 4569   0.648   3.740   1.465
 1273SOL     OW 4570   0.606   2.826   0.123
 1273SOL    HW1 4571   0.613   2.910   0.069
 1273SOL    HW2 4572   0.652   2.839   0.211
 1274SOL     OW 4573   1.594   1.976   1.480
 1274SOL    HW1 4574   1.576   2.043   1.408
 1274SOL    HW2 4575   1.591   2.022   1.569
 1275SOL     OW 4576   0.122   2.505   0.563
 1275SOL    HW1 4577   0.077   2.417   0.580
 1275SOL    HW2 4578   0.121   2.559   0.647
 1276SOL     OW 4579   1.842   3.629   0.359
 1276SOL    HW1 4580   1.896   3.600   0.439
 1276SOL    HW2 4581   1.872   3.719   0.330
 1277SOL     OW 4582   0.027   3.458   0.117
 1277SOL    HW1 4583   0.008   3.362   0.138
 1277SOL    HW2 4584  -0.006   3.516   0.192
 1278SOL     OW 4585   1.689   2.784   0.612
 1278SOL    HW1 4586   1.784   2.755   0.620
 1278SOL    HW2 4587   1.681   2.849   0.537
 1279SOL     OW 4588   1.641   2.970   0.432
 1279SOL    HW1 4589   1.727   2.972   0.380
 1279SOL    HW2 4590   1.655   3.017   0.520
 1280SOL     OW 4591   0.113   2.599   1.597
 1280SOL    HW1 4592   0.201   2.586   1.642
 1280SOL    HW2 4593   0.100   2.696   1.575
 1281SOL     OW 4594   0.613   3.227   0.726
 1281SOL    HW1 4595   0.564   3.140   0.735
 1281SOL    HW2 4596   0.590   3.270   0.639
 1282SOL     OW 4597   1.293   3.090   1.423
 1282SOL    HW1 4598   1.330   3.017   1.365
 1282SOL    HW2 4599   1.345   3.095   1.508
 1283SOL     OW 4600   0.809   1.866   0.502
 1283SOL    HW1 4601   0.849   1.957   0.493
 1283SOL    HW2 4602   0.709   1.874   0.508
 1284SOL     OW 4603   0.197   2.838   1.264
 1284SOL    HW1 4604   0.286   2.793   1.250
 1284SOL    HW2 4605   0.124   2.773   1.245
 1285SOL     OW 4606   1.525   2.861   0.190
 1285SOL    HW1 4607   1.462   2.785   0.203
 1285SOL    HW2 4608   1.573   2.879   0.276
 1286SOL     OW 4609   1.187   3.654   1.616
 1286SOL    HW1 4610   1.211   3.714   1.540
 1286SOL    HW2 4611   1.194   3.559   1.586
 1287SOL     OW 4612   0.317   2.113   1.801
 1287SOL    HW1 4613   0.388   2.184   1.807
 1287SOL    HW2 4614   0.229   2.152   1.829
 1288SOL     OW 4615   1.466   3.279   0.953
 1288SOL    HW1 4616   1.407   3.285   1.033
 1288SOL    HW2 4617   1.451   3.191   0.907
 1289SOL     OW 4618   1.667   3.576   0.572
 1289SOL    HW1 4619   1.626   3.553   0.484
 1289SOL    HW2 4620   1.649   3.502   0.637
 1290SOL     OW 4621   0.598   2.591   0.270
 1290SOL    HW1 4622   0.622   2.660   0.202
 1290SOL    HW2 4623   0.520   2.624   0.324
 1291SOL     OW 4624   1.281   2.207   0.944
 1291SOL    HW1 4625   1.195   2.157   0.931
 1291SOL    HW2 4626   1.343   2.153   1.000
 1292SOL     OW 4627   1.576   3.524   0.307
 1292SOL    HW1 4628   1.665   3.570   0.310
 1292SOL    HW2 4629   1.555   3.500   0.212
 1293SOL     OW 4630   0.807   2.467   1.465
 1293SOL    HW1 4631   0.760   2.464   1.554
 1293SOL    HW2 4632   0.756   2.412   1.399
 1294SOL     OW 4633   1.394   2.331   1.674
 1294SOL    HW1 4634   1.374   2.374   1.762
 1294SOL    HW2 4635   1.472   2.269   1.683
 1295SOL     OW 4636   0.973   2.752   1.572
 1295SOL    HW1 4637   1.019   2.668   1.543
 1295SOL    HW2 4638   0.917   2.786   1.497
 1296SOL     OW 4639   0.991   2.272   1.242
 1296SOL    HW1 4640   0.914   2.306   1.296
 1296SOL    HW2 4641   0.957   2.221   1.163
 1297SOL     OW 4642   1.041   2.563   0.429
 1297SOL    HW1 4643   1.067   2.559   0.525
 1297SOL    HW2 4644   0.956   2.512   0.415
 1298SOL     OW 4645   0.076   2.673   0.789
 1298SOL    HW1 4646   0.175   2.661   0.798
 1298SOL    HW2 4647   0.052   2.768   0.810
 1299SOL     OW 4648   0.130   3.683   1.571
 1299SOL    HW1 4649   0.120   3.668   1.670
 1299SOL    HW2 4650   0.044   3.719   1.535
 1300SOL     OW 4651   0.865   2.210   0.195
 1300SOL    HW1 4652   0.924   2.273   0.146
 1300SOL    HW2 4653   0.884   2.116   0.166
 1301SOL     OW 4654   1.719   2.447   1.831
 1301SOL    HW1 4655   1.693   2.536   1.795
 1301SOL    HW2 4656   1.717   2.379   1.758
 1302SOL     OW 4657   1.362   3.006   0.545
 1302SOL    HW1 4658   1.445   2.977   0.497
 1302SOL    HW2 4659   1.313   3.073   0.489
 1303SOL     OW 4660   0.550   2.058   0.885
 1303SOL    HW1 4661   0.545   2.053   0.985
 1303SOL    HW2 4662   0.552   2.154   0.856
 1304SOL     OW 4663   1.008   3.318   0.477
 1304SOL    HW1 4664   0.962   3.390   0.425
 1304SOL    HW2 4665   1.004   3.338   0.575
 1305SOL     OW 4666   0.351   3.663   0.853
 1305SOL    HW1 4667   0.401   3.577   0.859
 1305SOL    HW2 4668   0.416   3.740   0.850
 1306SOL     OW 4669   1.795   2.928   0.873
 1306SOL    HW1 4670   1.733   2.913   0.797
 1306SOL    HW2 4671   1.743   2.939   0.958
 1307SOL     OW 4672   1.227   3.412   1.506
 1307SOL    HW1 4673   1.233   3.335   1.570
 1307SOL    HW2 4674   1.175   3.386   1.426
 1308SOL     OW 4675   0.321   2.805   0.242
 1308SOL    HW1 4676   0.403   2.844   0.200
 1308SOL    HW2 4677   0.294   2.723   0.193
 1309SOL     OW 4678   1.458   2.597   0.728
 1309SOL    HW1 4679   1.453   2.532   0.803
 1309SOL    HW2 4680   1.538   2.656   0.741
 1310SOL     OW 4681   0.461   3.128   1.727
 1310SOL    HW1 4682   0.411   3.129   1.641
 1310SOL    HW2 4683   0.398   3.110   1.803
 1311SOL     OW 4684   1.111   3.638   0.237
 1311SOL    HW1 4685   1.051   3.576   0.287
 1311SOL    HW2 4686   1.142   3.594   0.152
 1312SOL     OW 4687   0.202   2.147   1.498
 1312SOL    HW1 4688   0.122   2.207   1.485
 1312SOL    HW2 4689   0.192   2.098   1.584
 1313SOL     OW 4690   1.632   3.239   0.081
 1313SOL    HW1 4691   1.600   3.333   0.071
 1313SOL    HW2 4692   1.556   3.176   0.069
 1314SOL     OW 4693   0.464   3.605   0.323
 1314SOL    HW1 4694   0.497   3.644   0.409
 1314SOL    HW2 4695   0.540   3.598   0.258
 1315SOL     OW 4696   1.400   1.969   0.426
 1315SOL    HW1 4697   1.376   1.932   0.336
 1315SOL    HW2 4698   1.499   1.985   0.430
 1316SOL     OW 4699   0.249   3.647   1.241
 1316SOL    HW1 4700   0.306   3.582   1.291
 1316SOL    HW2 4701   0.233   3.614   1.148
 1317SOL     OW 4702   0.940   3.560   0.904
 1317SOL    HW1 4703   1.020   3.503   0.925
 1317SOL    HW2 4704   0.891   3.520   0.827
 1318SOL     OW 4705   0.382   2.562   0.480
 1318SOL    HW1 4706   0.427   2.472   0.477
 1318SOL    HW2 4707   0.288   2.551   0.513
 1319SOL     OW 4708   1.547   2.084   1.729
 1319SOL    HW1 4709   1.542   2.121   1.821
 1319SOL    HW2 4710   1.475   2.015   1.717
 1320SOL     OW 4711   0.614   1.984   0.117
 1320SOL    HW1 4712   0.712   1.962   0.124
 1320SOL    HW2 4713   0.583   1.967   0.024
 1321SOL     OW 4714   0.781   2.126   1.749
 1321SOL    HW1 4715   0.848   2.065   1.792
 1321SOL    HW2 4716   0.708   2.145   1.814
 1322SOL     OW 4717   0.888   3.376   1.195
 1322SOL    HW1 4718   0.865   3.351   1.101
 1322SOL    HW2 4719   0.949   3.307   1.234
 1323SOL     OW 4720   1.351   2.452   1.433
 1323SOL    HW1 4721   1.379   2.409   1.518
 1323SOL    HW2 4722   1.376   2.548   1.434
 1324SOL     OW 4723   0.803   3.264   0.924
 1324SOL    HW1 4724   0.893   3.278   0.882
 1324SOL    HW2 4725   0.732   3.266   0.853
 1325SOL     OW 4726   0.922   2.365   0.899
 1325SOL    HW1 4727   0.897   2.356   0.803
 1325SOL    HW2 4728   0.970   2.283   0.930
 1326SOL     OW 4729   0.539   1.926   0.512
 1326SOL    HW1 4730   0.458   1.927   0.570
 1326SOL    HW2 4731   0.542   2.009   0.457
 1327SOL     OW 4732   1.434   3.050   0.041
 1327SOL    HW1 4733   1.466   2.974   0.098
 1327SOL    HW2 4734   1.342   3.077   0.071
 1328SOL     OW 4735   0.297   1.897   0.171
 1328SOL    HW1 4736   0.346   1.981   0.150
 1328SOL    HW2 4737   0.359   1.832   0.216
 1329SOL     OW 4738   0.935   2.098   0.480
 1329SOL    HW1 4739   0.887   2.139   0.402
 1329SOL    HW2 4740   1.034   2.096   0.461
 1330SOL     OW 4741   1.076   2.545   1.464
 1330SOL    HW1 4742   0.996   2.484   1.467
 1330SOL    HW2 4743   1.157   2.492   1.440
 1331SOL     OW 4744   1.227   3.432   0.793
 1331SOL    HW1 4745   1.248   3.506   0.728
 1331SOL    HW2 4746   1.295   3.432   0.866
 1332SOL     OW 4747   0.459   3.014   0.741
 1332SOL    HW1 4748   0.388   2.987   0.806
 1332SOL    HW2 4749   0.433   2.986   0.648
 1333SOL     OW 4750   1.271   3.659   0.591
 1333SOL    HW1 4751   1.315   3.723   0.527
 1333SOL    HW2 4752   1.221   3.711   0.661
 1334SOL     OW 4753   1.032   2.411   0.016
 1334SOL    HW1 4754   0.991   2.493  -0.023
 1334SOL    HW2 4755   1.096   2.437   0.089
 1335SOL     OW 4756   0.078   2.418   1.386
 1335SOL    HW1 4757   0.170   2.417   1.345
 1335SOL    HW2 4758   0.072   2.492   1.453
 1336SOL     OW 4759   0.561   2.084   1.147
 1336SOL    HW1 4760   0.599   2.000   1.184
 1336SOL    HW2 4761   0.473   2.103   1.191
 1337SOL     OW 4762   0.866   2.316   0.642
 1337SOL    HW1 4763   0.834   2.388   0.580
 1337SOL    HW2 4764   0.890   2.235   0.589
 1338SOL     OW 4765   1.017   1.901   0.753
 1338SOL    HW1 4766   0.945   1.906   0.684
 1338SOL    HW2 4767   0.993   1.832   0.822
 1339SOL     OW 4768   1.429   3.035   0.867
 1339SOL    HW1 4769   1.374   2.951   0.860
 1339SOL    HW2 4770   1.455   3.064   0.775
 1340SOL     OW 4771   1.466   2.452   0.992
 1340SOL    HW1 4772   1.436   2.357   0.999
 1340SOL    HW2 4773   1.539   2.468   1.058
 1341SOL     OW 4774   1.857   2.695   0.377
 1341SOL    HW1 4775   1.899   2.631   0.441
 1341SOL    HW2 4776   1.819   2.644   0.299
 1342SOL     OW 4777   0.488   3.247   0.174
 1342SOL    HW1 4778   0.401   3.232   0.221
 1342SOL    HW2 4779   0.471   3.273   0.079
 1343SOL     OW 4780   1.664   3.142   0.657
 1343SOL    HW1 4781   1.763   3.150   0.671
 1343SOL    HW2 4782   1.619   3.226   0.688
 1344SOL     OW 4783   1.390   2.437   0.078
 1344SOL    HW1 4784   1.336   2.416   0.159
 1344SOL    HW2 4785   1.481   2.396   0.087
 1345SOL     OW 4786   0.527   2.118   0.328
 1345SOL    HW1 4787   0.554   2.059   0.253
 1345SOL    HW2 4788   0.527   2.213   0.297
 1346SOL     OW 4789   1.754   3.085   1.588
 1346SOL    HW1 4790   1.845   3.046   1.575
 1346SOL    HW2 4791   1.762   3.181   1.612
 1347SOL     OW 4792   1.064   3.209   1.340
 1347SOL    HW1 4793   0.984   3.186   1.395
 1347SOL    HW2 4794   1.147   3.183   1.389
 1348SOL     OW 4795   1.592   3.491   1.625
 1348SOL    HW1 4796   1.619   3.525   1.535
 1348SOL    HW2 4797   1.671   3.453   1.671
 1349SOL     OW 4798   1.111   3.057   1.100
 1349SOL    HW1 4799   1.071   3.101   1.181
 1349SOL    HW2 4800   1.070   3.094   1.017
 1350SOL     OW 4801   1.638   2.961   1.079
 1350SOL    HW1 4802   1.643   3.042   1.138
 1350SOL    HW2 4803   1.552   2.963   1.028
 1351SOL     OW 4804   0.915   1.951   1.402
 1351SOL    HW1 4805   0.940   1.931   1.307
 1351SOL    HW2 4806   0.987   2.007   1.444
 1352SOL     OW 4807   0.980   2.978   1.719
 1352SOL    HW1 4808   0.881   2.984   1.729
 1352SOL    HW2 4809   1.003   2.898   1.663
 1353SOL     OW 4810   0.705   2.912   0.368
 1353SOL    HW1 4811   0.691   2.919   0.467
 1353SOL    HW2 4812   0.789   2.861   0.350
 1354SOL     OW 4813   0.410   2.675   1.251
 1354SOL    HW1 4814   0.496   2.687   1.301
 1354SOL    HW2 4815   0.368   2.588   1.278
 1355SOL     OW 4816   1.274   2.248   1.262
 1355SOL    HW1 4817   1.295   2.322   1.326
 1355SOL    HW2 4818   1.185   2.265   1.219
 1356SOL     OW 4819   0.064   3.426   1.331
 1356SOL    HW1 4820   0.018   3.508   1.297
 1356SOL    HW2 4821   0.162   3.445   1.340
 1357SOL     OW 4822   0.367   2.962   0.501
 1357SOL    HW1 4823   0.360   3.045   0.445
 1357SOL    HW2 4824   0.371   2.882   0.441
 1358SOL     OW 4825   0.566   2.399   0.865
 1358SOL    HW1 4826   0.578   2.465   0.791
 1358SOL    HW2 4827   0.612   2.433   0.948
 1359SOL     OW 4828   1.252   3.210   0.388
 1359SOL    HW1 4829   1.302   3.287   0.428
 1359SOL    HW2 4830   1.157   3.212   0.420
 1360SOL     OW 4831   1.272   3.307   1.142
 1360SOL    HW1 4832   1.319   3.320   1.229
 1360SOL    HW2 4833   1.206   3.233   1.151
 1361SOL     OW 4834   1.582   2.501   0.472
 1361SOL    HW1 4835   1.551   2.562   0.545
 1361SOL    HW2 4836   1.632   2.553   0.403
 1362SOL     OW 4837   0.354   3.372   1.329
 1362SOL    HW1 4838   0.333   3.328   1.242
 1362SOL    HW2 4839   0.451   3.398   1.332
 1363SOL     OW 4840   0.402   2.613   1.598
 1363SOL    HW1 4841   0.470   2.668   1.551
 1363SOL    HW2 4842   0.442   2.525   1.625
 1364SOL     OW 4843   1.587   2.641   1.670
 1364SOL    HW1 4844   1.495   2.679   1.665
 1364SOL    HW2 4845   1.647   2.688   1.605
 1365SOL     OW 4846   1.013   1.967   1.770
 1365SOL    HW1 4847   1.019   2.052   1.718
 1365SOL    HW2 4848   1.045   1.891   1.713
 1366SOL     OW 4849   0.504   1.912   1.740
 1366SOL    HW1 4850   0.462   1.855   1.670
 1366SOL    HW2 4851   0.438   1.981   1.772
 1367SOL     OW 4852   0.573   2.732   1.029
 1367SOL    HW1 4853   0.617   2.821   1.020
 1367SOL    HW2 4854   0.510   2.732   1.106
 1368SOL     OW 4855   1.360   2.724   1.045
 1368SOL    HW1 4856   1.285   2.724   0.979
 1368SOL    HW2 4857   1.397   2.632   1.054
 1369SOL     OW 4858   1.209   2.387   0.275
 1369SOL    HW1 4859   1.222   2.303   0.329
 1369SOL    HW2 4860   1.180   2.461   0.335
 1370SOL     OW 4861   0.307   2.075   1.231
 1370SOL    HW1 4862   0.284   2.112   1.321
 1370SOL    HW2 4863   0.277   1.980   1.225
 1371SOL     OW 4864   0.037   3.172   1.282
 1371SOL    HW1 4865   0.090   3.123   1.350
 1371SOL    HW2 4866   0.059   3.270   1.287
 1372SOL     OW 4867   0.732   2.496   1.064
 1372SOL    HW1 4868   0.791   2.470   0.988
 1372SOL    HW2 4869   0.704   2.592   1.053
 1373SOL     OW 4870   1.728   2.797   1.854
 1373SOL    HW1 4871   1.682   2.790   1.765
 1373SOL    HW2 4872   1.666   2.841   1.920
 1374SOL     OW 4873   0.307   1.925   0.618
 1374SOL    HW1 4874   0.296   2.019   0.651
 1374SOL    HW2 4875   0.302   1.862   0.695
 1375SOL     OW 4876   1.622   2.229   0.374
 1375SOL    HW1 4877   1.624   2.153   0.438
 1375SOL    HW2 4878   1.574   2.306   0.414
 1376SOL     OW 4879   1.023   2.628   0.966
 1376SOL    HW1 4880   1.038   2.649   1.062
 1376SOL    HW2 4881   0.993   2.533   0.957
 1377SOL     OW 4882   0.980   3.435   1.700
 1377SOL    HW1 4883   0.960   3.479   1.612
 1377SOL    HW2 4884   1.019   3.344   1.684
 1378SOL     OW 4885   1.859   3.380   1.605
 1378SOL    HW1 4886   1.873   3.407   1.510
 1378SOL    HW2 4887   1.942   3.402   1.658
 1379SOL     OW 4888   0.350   2.760   1.804
 1379SOL    HW1 4889   0.426   2.804   1.852
 1379SOL    HW2 4890   0.385   2.713   1.722
 1380SOL     OW 4891   1.540   2.136   0.125
 1380SOL    HW1 4892   1.479   2.061   0.148
 1380SOL    HW2 4893   1.562   2.188   0.208
 1381SOL     OW 4894   1.303   2.700   0.042
 1381SOL    HW1 4895   1.337   2.607   0.057
 1381SOL    HW2 4896   1.321   2.727  -0.053
 1382SOL     OW 4897   1.068   3.195   0.849
 1382SOL    HW1 4898   1.075   3.111   0.794
 1382SOL    HW2 4899   1.130   3.264   0.813
 1383SOL     OW 4900   0.319   2.672   0.949
 1383SOL    HW1 4901   0.412   2.708   0.954
 1383SOL    HW2 4902   0.313   2.587   1.001
 1384SOL     OW 4903   0.339   2.371   1.006
 1384SOL    HW1 4904   0.287   2.288   0.989
 1384SOL    HW2 4905   0.416   2.376   0.942
 1385SOL     OW 4906   1.138   2.242   1.678
 1385SOL    HW1 4907   1.093   2.305   1.742
 1385SOL    HW2 4908   1.231   2.273   1.661
 1386SOL     OW 4909   1.160   2.069   1.477
 1386SOL    HW1 4910   1.160   2.133   1.554
 1386SOL    HW2 4911   1.188   2.117   1.394
 1387SOL     OW 4912   0.008   3.188   0.200
 1387SOL    HW1 4913  -0.085   3.209   0.169
 1387SOL    HW2 4914   0.018   3.089   0.213
 1388SOL     OW 4915   0.088   3.663   0.927
 1388SOL    HW1 4916   0.046   3.577   0.900
 1388SOL    HW2 4917   0.182   3.666   0.893
 1389SOL     OW 4918   0.504   3.430   0.910
 1389SOL    HW1 4919   0.570   3.504   0.919
 1389SOL    HW2 4920   0.548   3.351   0.868
 1390SOL     OW 4921   1.002   2.658   1.238
 1390SOL    HW1 4922   1.043   2.626   1.324
 1390SOL    HW2 4923   0.906   2.631   1.235
 1391SOL     OW 4924   0.040   2.406   1.114
 1391SOL    HW1 4925   0.125   2.373   1.073
 1391SOL    HW2 4926   0.053   2.421   1.212
 1392SOL     OW 4927   0.189   2.382   1.722
 1392SOL    HW1 4928   0.248   2.342   1.652
 1392SOL    HW2 4929   0.131   2.453   1.681
 1393SOL     OW 4930   1.369   2.812   1.660
 1393SOL    HW1 4931   1.408   2.901   1.680
 1393SOL    HW2 4932   1.379   2.792   1.563
 1394SOL     OW 4933   0.815   2.434   0.325
 1394SOL    HW1 4934   0.822   2.345   0.279
 1394SOL    HW2 4935   0.721   2.468   0.317
 1395SOL     OW 4936   1.657   2.466   1.206
 1395SOL    HW1 4937   1.619   2.397   1.268
 1395SOL    HW2 4938   1.739   2.430   1.162
 1396SOL     OW 4939   0.252   3.426   1.744
 1396SOL    HW1 4940   0.222   3.483   1.820
 1396SOL    HW2 4941   0.245   3.329   1.770
 1397SOL     OW 4942   0.671   2.326   1.269
 1397SOL    HW1 4943   0.637   2.237   1.239
 1397SOL    HW2 4944   0.697   2.380   1.189
 1398SOL     OW 4945   0.930   3.540   1.465
 1398SOL    HW1 4946   0.906   3.522   1.370
 1398SOL    HW2 4947   0.960   3.634   1.475
 1399SOL     OW 4948   0.473   2.362   0.191
 1399SOL    HW1 4949   0.534   2.442   0.195
 1399SOL    HW2 4950   0.378   2.393   0.198
 1400SOL     OW 4951   0.159   2.999   1.466
 1400SOL    HW1 4952   0.181   2.938   1.542
 1400SOL    HW2 4953   0.169   2.950   1.380
 1401SOL     OW 4954   1.347   2.921   1.234
 1401SOL    HW1 4955   1.371   2.858   1.160
 1401SOL    HW2 4956   1.257   2.961   1.216
 1402SOL     OW 4957   1.302   2.717   0.309
 1402SOL    HW1 4958   1.216   2.686   0.351
 1402SOL    HW2 4959   1.298   2.703   0.210
 1403SOL     OW 4960   1.759   3.609   1.154
 1403SOL    HW1 4961   1.820   3.639   1.081
 1403SOL    HW2 4962   1.721   3.520   1.132
 1404SOL     OW 4963   1.252   3.593   1.128
 1404SOL    HW1 4964   1.336   3.598   1.074
 1404SOL    HW2 4965   1.229   3.497   1.146
 1405SOL     OW 4966   0.083   3.120   1.022
 1405SOL    HW1 4967   0.078   3.119   1.122
 1405SOL    HW2 4968   0.000   3.079   0.984
 1406SOL     OW 4969   0.688   3.524   1.716
 1406SOL    HW1 4970   0.632   3.605   1.725
 1406SOL    HW2 4971   0.740   3.528   1.630
 1407SOL     OW 4972   0.903   1.948   0.133
 1407SOL    HW1 4973   0.954   1.949   0.047
 1407SOL    HW2 4974   0.959   1.906   0.204
 1408SOL     OW 4975   1.726   1.997   0.523
 1408SOL    HW1 4976   1.799   1.980   0.456
 1408SOL    HW2 4977   1.695   1.910   0.561
 1409SOL     OW 4978   1.388   3.435   0.477
 1409SOL    HW1 4979   1.455   3.447   0.403
 1409SOL    HW2 4980   1.348   3.524   0.500
 1410SOL     OW 4981   0.130   3.656   1.851
 1410SOL    HW1 4982   0.089   3.582   1.904
 1410SOL    HW2 4983   0.194   3.707   1.909
 1411SOL     OW 4984   1.280   2.789   0.672
 1411SOL    HW1 4985   1.340   2.708   0.674
 1411SOL    HW2 4986   1.320   2.858   0.612
 1412SOL     OW 4987   0.830   3.135   1.422
 1412SOL    HW1 4988   0.825   3.168   1.517
 1412SOL    HW2 4989   0.744   3.154   1.376
 1413SOL     OW 4990   0.672   3.478   0.154
 1413SOL    HW1 4991   0.681   3.488   0.055
 1413SOL    HW2 4992   0.632   3.389   0.175
 1414SOL     OW 4993   1.650   3.582   1.394
 1414SOL    HW1 4994   1.703   3.592   1.310
 1414SOL    HW2 4995   1.623   3.672   1.428
 1415SOL     OW 4996   1.841   2.037   0.963
 1415SOL    HW1 4997   1.880   1.952   0.927
 1415SOL    HW2 4998   1.743   2.039   0.944
 1416SOL     OW 4999   0.263   2.188   0.720
 1416SOL    HW1 5000   0.184   2.239   0.686
 1416SOL    HW2 5001   0.254   2.173   0.818
 1417SOL     OW 5002   1.194   3.474   0.031
 1417SOL    HW1 5003   1.200   3.381   0.068
 1417SOL    HW2 5004   1.135   3.474  -0.049
 1418SOL     OW 5005   0.822   2.864   1.372
 1418SOL    HW1 5006   0.862   2.863   1.280
 1418SOL    HW2 5007   0.832   2.956   1.412
 1419SOL     OW 5008   0.916   2.772   0.291
 1419SOL    HW1 5009   0.979   2.810   0.223
 1419SOL    HW2 5010   0.956   2.689   0.330
 1420SOL     OW 5011   1.504   3.469   0.044
 1420SOL    HW1 5012   1.412   3.506   0.051
 1420SOL    HW2 5013   1.542   3.489  -0.046
 1421SOL     OW 5014   0.372   3.150   1.490
 1421SOL    HW1 5015   0.359   3.243   1.456
 1421SOL    HW2 5016   0.288   3.098   1.477
 1422SOL     OW 5017   1.614   3.154   1.289
 1422SOL    HW1 5018   1.674   3.157   1.369
 1422SOL    HW2 5019   1.539   3.218   1.302
 1423SOL     OW 5020   1.039   2.960   0.696
 1423SOL    HW1 5021   0.969   2.913   0.750
 1423SOL    HW2 5022   1.098   2.892   0.653
 1424SOL     OW 5023   1.014   2.098   0.971
 1424SOL    HW1 5024   1.006   2.062   0.878
 1424SOL    HW2 5025   1.012   2.022   1.036
 1425SOL     OW 5026   0.590   3.349   0.491
 1425SOL    HW1 5027   0.632   3.291   0.421
 1425SOL    HW2 5028   0.546   3.428   0.447
 1426SOL     OW 5029   1.709   2.247   1.381
 1426SOL    HW1 5030   1.782   2.316   1.385
 1426SOL    HW2 5031   1.737   2.172   1.322
 1427SOL     OW 5032   0.255   3.210   0.290
 1427SOL    HW1 5033   0.159   3.211   0.263
 1427SOL    HW2 5034   0.267   3.263   0.374
 1428SOL     OW 5035   0.105   2.875   1.726
 1428SOL    HW1 5036   0.028   2.842   1.780
 1428SOL    HW2 5037   0.190   2.845   1.768
 1429SOL     OW 5038   0.672   2.065   1.489
 1429SOL    HW1 5039   0.762   2.049   1.449
 1429SOL    HW2 5040   0.680   2.070   1.588
 1430SOL     OW 5041   0.075   2.207   0.033
 1430SOL    HW1 5042  -0.017   2.179   0.004
 1430SOL    HW2 5043   0.106   2.284  -0.023
 1431SOL     OW 5044   1.440   2.718   1.398
 1431SOL    HW1 5045   1.383   2.770   1.335
 1431SOL    HW2 5046   1.536   2.730   1.374
 1432SOL     OW 5047   0.072   2.028   0.318
 1432SOL    HW1 5048   0.055   2.111   0.264
 1432SOL    HW2 5049   0.162   1.991   0.296
 1433SOL     OW 5050   1.183   3.197   0.119
 1433SOL    HW1 5051   1.084   3.186   0.121
 1433SOL    HW2 5052   1.217   3.212   0.212
 1434SOL     OW 5053   0.613   2.704   1.431
 1434SOL    HW1 5054   0.669   2.785   1.414
 1434SOL    HW2 5055   0.672   2.624   1.434
 1435SOL     OW 5056   1.493   3.629   0.959
 1435SOL    HW1 5057   1.526   3.693   0.890
 1435SOL    HW2 5058   1.559   3.623   1.034
 1436SOL     OW 5059   0.716   2.427   1.708
 1436SOL    HW1 5060   0.735   2.492   1.782
 1436SOL    HW2 5061   0.776   2.347   1.717
 1437SOL     OW 5062   1.450   3.082   1.633
 1437SOL    HW1 5063   1.441   3.072   1.732
 1437SOL    HW2 5064   1.546   3.075   1.607
 1438SOL     OW 5065   0.390   3.603   1.560
 1438SOL    HW1 5066   0.299   3.644   1.558
 1438SOL    HW2 5067   0.383   3.509   1.592
 1439SOL     OW 5068   1.674   2.745   1.254
 1439SOL    HW1 5069   1.647   2.656   1.217
 1439SOL    HW2 5070   1.675   2.813   1.181
 1440SOL     OW 5071   1.225   2.187   0.449
 1440SOL    HW1 5072   1.290   2.113   0.438
 1440SOL    HW2 5073   1.245   2.237   0.533
 1441SOL     OW 5074   0.594   2.607   0.652
 1441SOL    HW1 5075   0.644   2.692   0.633
 1441SOL    HW2 5076   0.506   2.609   0.604
 1442SOL     OW 5077   1.777   2.204   1.642
 1442SOL    HW1 5078   1.760   2.235   1.548
 1442SOL    HW2 5079   1.693   2.167   1.680
 1443SOL     OW 5080   1.730   2.796   1.517
 1443SOL    HW1 5081   1.768   2.887   1.532
 1443SOL    HW2 5082   1.722   2.779   1.418
 1444SOL     OW 5083   0.859   3.236   0.016
 1444SOL    HW1 5084   0.813   3.251   0.104
 1444SOL    HW2 5085   0.903   3.321  -0.014
 1445SOL     OW 5086   0.661   3.652   0.953
 1445SOL    HW1 5087   0.615   3.740   0.940
 1445SOL    HW2 5088   0.760   3.664   0.946
 1446SOL     OW 5089   0.859   2.818   0.861
 1446SOL    HW1 5090   0.913   2.749   0.909
 1446SOL    HW2 5091   0.827   2.887   0.927
 1447SOL     OW 5092   1.083   2.846   0.087
 1447SOL    HW1 5093   1.060   2.899   0.005
 1447SOL    HW2 5094   1.164   2.790   0.068
 1448SOL     OW 5095   1.861   3.431   0.851
 1448SOL    HW1 5096   1.790   3.419   0.781
 1448SOL    HW2 5097   1.862   3.352   0.911
 1449SOL     OW 5098   0.221   3.176   1.844
 1449SOL    HW1 5099   0.156   3.103   1.823
 1449SOL    HW2 5100   0.225   3.190   1.942
 1450SOL     OW 5101   0.079   3.102   0.653
 1450SOL    HW1 5102   0.078   3.055   0.741
 1450SOL    HW2 5103   0.161   3.074   0.602
 1451SOL     OW 5104   0.672   3.253   1.624
 1451SOL    HW1 5105   0.594   3.203   1.662
 1451SOL    HW2 5106   0.669   3.348   1.655
 1452SOL     OW 5107   1.824   2.054   1.227
 1452SOL    HW1 5108   1.820   1.964   1.271
 1452SOL    HW2 5109   1.827   2.043   1.128
 1453SOL     OW 5110   0.428   2.286   0.520
 1453SOL    HW1 5111   0.458   2.214   0.458
 1453SOL    HW2 5112   0.389   2.246   0.603
 1454SOL     OW 5113   1.705   3.349   1.104
 1454SOL    HW1 5114   1.612   3.324   1.077
 1454SOL    HW2 5115   1.731   3.299   1.186
 1455SOL     OW 5116   0.317   2.409   1.280
 1455SOL    HW1 5117   0.355   2.350   1.352
 1455SOL    HW2 5118   0.357   2.383   1.192
 1456SOL     OW 5119   0.812   3.448   0.687
 1456SOL    HW1 5120   0.844   3.458   0.593
 1456SOL    HW2 5121   0.733   3.386   0.689
 1457SOL     OW 5122   1.424   2.076   1.112
 1457SOL    HW1 5123   1.476   2.011   1.167
 1457SOL    HW2 5124   1.375   2.139   1.173
 1458SOL     OW 5125   1.001   1.896   1.154
 1458SOL    HW1 5126   0.938   1.824   1.123
 1458SOL    HW2 5127   1.094   1.860   1.154
 1459SOL     OW 5128   0.770   3.192   0.301
 1459SOL    HW1 5129   0.724   3.105   0.318
 1459SOL    HW2 5130   0.861   3.189   0.342
 1460SOL     OW 5131   0.618   3.429   1.284
 1460SOL    HW1 5132   0.613   3.511   1.341
 1460SOL    HW2 5133   0.707   3.426   1.239
 1461SOL     OW 5134   1.352   1.914   0.168
 1461SOL    HW1 5135   1.387   1.873   0.084
 1461SOL    HW2 5136   1.262   1.876   0.188
 1462SOL     OW 5137   1.300   2.315   0.691
 1462SOL    HW1 5138   1.241   2.395   0.695
 1462SOL    HW2 5139   1.315   2.280   0.784
 1463SOL     OW 5140   1.593   2.083   0.882
 1463SOL    HW1 5141   1.509   2.082   0.936
 1463SOL    HW2 5142   1.595   2.166   0.826
 1464SOL     OW 5143   0.039   2.939   0.300
 1464SOL    HW1 5144   0.138   2.928   0.291
 1464SOL    HW2 5145  -0.001   2.853   0.332
 1465SOL     OW 5146   0.875   3.508   0.337
 1465SOL    HW1 5147   0.798   3.473   0.283
 1465SOL    HW2 5148   0.843   3.579   0.399
 1466SOL     OW 5149   0.230   2.490   1.975
 1466SOL    HW1 5150   0.137   2.488   2.012
 1466SOL    HW2 5151   0.231   2.451   1.883
 1467SOL     OW 5152   0.225   2.137   2.858
 1467SOL    HW1 5153   0.260   2.120   2.950
 1467SOL    HW2 5154   0.137   2.092   2.846
 1468SOL     OW 5155   0.019   2.230   2.509
 1468SOL    HW1 5156  -0.063   2.273   2.548
 1468SOL    HW2 5157  -0.009   2.157   2.446
 1469SOL     OW 5158   0.569   3.137   3.027
 1469SOL    HW1 5159   0.476   3.130   2.990
 1469SOL    HW2 5160   0.580   3.226   3.071
 1470SOL     OW 5161   1.555   3.373   2.565
 1470SOL    HW1 5162   1.498   3.357   2.646
 1470SOL    HW2 5163   1.496   3.383   2.485
 1471SOL     OW 5164   1.135   2.565   2.579
 1471SOL    HW1 5165   1.192   2.643   2.554
 1471SOL    HW2 5166   1.075   2.591   2.655
 1472SOL     OW 5167   1.755   2.469   2.093
 1472SOL    HW1 5168   1.743   2.456   1.994
 1472SOL    HW2 5169   1.725   2.388   2.142
 1473SOL     OW 5170   0.768   3.006   2.885
 1473SOL    HW1 5171   0.690   3.023   2.945
 1473SOL    HW2 5172   0.802   3.093   2.849
 1474SOL     OW 5173   0.850   2.660   3.685
 1474SOL    HW1 5174   0.846   2.736   3.750
 1474SOL    HW2 5175   0.872   2.696   3.594
 1475SOL     OW 5176   0.685   2.874   2.527
 1475SOL    HW1 5177   0.754   2.858   2.597
 1475SOL    HW2 5178   0.612   2.931   2.565
 1476SOL     OW 5179   0.686   3.023   3.665
 1476SOL    HW1 5180   0.746   3.102   3.679
 1476SOL    HW2 5181   0.600   3.054   3.624
 1477SOL     OW 5182   0.335   3.297   2.923
 1477SOL    HW1 5183   0.257   3.266   2.870
 1477SOL    HW2 5184   0.393   3.355   2.866
 1478SOL     OW 5185   1.460   3.367   3.201
 1478SOL    HW1 5186   1.484   3.461   3.227
 1478SOL    HW2 5187   1.444   3.313   3.283
 1479SOL     OW 5188   0.438   2.254   3.361
 1479SOL    HW1 5189   0.520   2.198   3.370
 1479SOL    HW2 5190   0.357   2.196   3.365
 1480SOL     OW 5191   1.603   2.309   2.599
 1480SOL    HW1 5192   1.529   2.355   2.549
 1480SOL    HW2 5193   1.654   2.377   2.652
 1481SOL     OW 5194   0.231   3.575   2.345
 1481SOL    HW1 5195   0.265   3.652   2.399
 1481SOL    HW2 5196   0.275   3.575   2.255
 1482SOL     OW 5197   1.127   3.203   3.552
 1482SOL    HW1 5198   1.174   3.203   3.640
 1482SOL    HW2 5199   1.079   3.116   3.541
 1483SOL     OW 5200   0.230   3.296   2.400
 1483SOL    HW1 5201   0.204   3.392   2.400
 1483SOL    HW2 5202   0.159   3.242   2.445
 1484SOL     OW 5203   0.240   2.953   2.748
 1484SOL    HW1 5204   0.254   2.869   2.800
 1484SOL    HW2 5205   0.185   3.017   2.803
 1485SOL     OW 5206   0.620   3.648   3.301
 1485SOL    HW1 5207   0.528   3.631   3.336
 1485SOL    HW2 5208   0.648   3.740   3.327
 1486SOL     OW 5209   0.606   2.826   1.985
 1486SOL    HW1 5210   0.613   2.910   1.931
 1486SOL    HW2 5211   0.652   2.839   2.073
 1487SOL     OW 5212   1.594   1.976   3.342
 1487SOL    HW1 5213   1.576   2.043   3.270
 1487SOL    HW2 5214   1.591   2.022   3.431
 1488SOL     OW 5215   0.122   2.505   2.425
 1488SOL    HW1 5216   0.077   2.417   2.442
 1488SOL    HW2 5217   0.121   2.559   2.509
 1489SOL     OW 5218   1.842   3.629   2.221
 1489SOL    HW1 5219   1.896   3.600   2.301
 1489SOL    HW2 5220   1.872   3.719   2.192
 1490SOL     OW 5221   0.027   3.458   1.979
 1490SOL    HW1 5222   0.008   3.362   2.000
 1490SOL    HW2 5223  -0.006   3.516   2.054
 1491SOL     OW 5224   1.689   2.784   2.474
 1491SOL    HW1 5225   1.784   2.755   2.482
 1491SOL    HW2 5226   1.681   2.849   2.399
 1492SOL     OW 5227   1.641   2.970   2.294
 1492SOL    HW1 5228   1.727   2.972   2.242
 1492SOL    HW2 5229   1.655   3.017   2.382
 1493SOL     OW 5230   0.113   2.599   3.459
 1493SOL    HW1 5231   0.201   2.586   3.504
 1493SOL    HW2 5232   0.100   2.696   3.437
 1494SOL     OW 5233   0.613   3.227   2.588
 1494SOL    HW1 5234   0.564   3.140   2.597
 1494SOL    HW2 5235   0.590   3.270   2.501
 1495SOL     OW 5236   1.293   3.090   3.285
 1495SOL    HW1 5237   1.330   3.017   3.227
 1495SOL    HW2 5238   1.345   3.095   3.370
 1496SOL     OW 5239   0.809   1.866   2.364
 1496SOL    HW1 5240   0.849   1.957   2.355
 1496SOL    HW2 5241   0.709   1.874   2.370
 1497SOL     OW 5242   0.197   2.838   3.126
 1497SOL    HW1 5243   0.286   2.793   3.112
 1497SOL    HW2 5244   0.124   2.773   3.107
 1498SOL     OW 5245   1.525   2.861   2.052
 1498SOL    HW1 5246   1.462   2.785   2.065
 1498SOL    HW2 5247   1.573   2.879   2.138
 1499SOL     OW 5248   1.187   3.654   3.478
 1499SOL    HW1 5249   1.211   3.714   3.402
 1499SOL    HW2 5250   1.194   3.559   3.448
 1500SOL     OW 5251   0.317   2.113   3.663
 1500SOL    HW1 5252   0.388   2.184   3.669
 1500SOL    HW2 5253   0.229   2.152   3.691
 1501SOL     OW 5254   1.466   3.279   2.815
 1501SOL    HW1 5255   1.407   3.285   2.895
 1501SOL    HW2 5256   1.451   3.191   2.769
 1502SOL     OW 5257   1.667   3.576   2.434
 1502SOL    HW1 5258   1.626   3.553   2.346
 1502SOL    HW2 5259   1.649   3.502   2.499
 1503SOL     OW 5260   0.598   2.591   2.132
 1503SOL    HW1 5261   0.622   2.660   2.064
 1503SOL    HW2 5262   0.520   2.624   2.186
 1504SOL     OW 5263   1.281   2.207   2.806
 1504SOL    HW1 5264   1.195   2.157   2.793
 1504SOL    HW2 5265   1.343   2.153   2.862
 1505SOL     OW 5266   1.576   3.524   2.169
 1505SOL    HW1 5267   1.665   3.570   2.172
 1505SOL    HW2 5268   1.555   3.500   2.074
 1506SOL     OW 5269   0.807   2.467   3.327
 1506SOL    HW1 5270   0.760   2.464   3.416
 1506SOL    HW2 5271   0.756   2.412   3.261
 1507SOL     OW 5272   1.394   2.331   3.536
 1507SOL    HW1 5273   1.374   2.374   3.624
 1507SOL    HW2 5274   1.472   2.269   3.545
 1508SOL     OW 5275   0.973   2.752   3.434
 1508SOL    HW1 5276   1.019   2.668   3.405
 1508SOL    HW2 5277   0.917   2.786   3.359
 1509SOL     OW 5278   0.991   2.272   3.104
 1509SOL    HW1 5279   0.914   2.306   3.158
 1509SOL    HW2 5280   0.957   2.221   3.025
 1510SOL     OW 5281   1.041   2.563   2.291
 1510SOL    HW1 5282   1.067   2.559   2.387
 1510SOL    HW2 5283   0.956   2.512   2.277
 1511SOL     OW 5284   0.076   2.673   2.651
 1511SOL    HW1 5285   0.175   2.661   2.660
 1511SOL    HW2 5286   0.052   2.768   2.672
 1512SOL     OW 5287   0.130   3.683   3.433
 1512SOL    HW1 5288   0.120   3.668   3.532
 1512SOL    HW2 5289   0.044   3.719   3.397
 1513SOL     OW 5290   0.865   2.210   2.057
 1513SOL    HW1 5291   0.924   2.273   2.008
 1513SOL    HW2 5292   0.884   2.116   2.028
 1514SOL     OW 5293   1.719   2.447   3.693
 1514SOL    HW1 5294   1.693   2.536   3.657
 1514SOL    HW2 5295   1.717   2.379   3.620
 1515SOL     OW 5296   1.362   3.006   2.407
 1515SOL    HW1 5297   1.445   2.977   2.359
 1515SOL    HW2 5298   1.313   3.073   2.351
 1516SOL     OW 5299   0.550   2.058   2.747
 1516SOL    HW1 5300   0.545   2.053   2.847
 1516SOL    HW2 5301   0.552   2.154   2.718
 1517SOL     OW 5302   1.008   3.318   2.339
 1517SOL    HW1 5303   0.962   3.390   2.287
 1517SOL    HW2 5304   1.004   3.338   2.437
 1518SOL     OW 5305   0.351   3.663   2.715
 1518SOL    HW1 5306   0.401   3.577   2.721
 1518SOL    HW2 5307   0.416   3.740   2.712
 1519SOL     OW 5308   1.795   2.928   2.735
 1519SOL    HW1 5309   1.733   2.913   2.659
 1519SOL    HW2 5310   1.743   2.939   2.820
 1520SOL     OW 5311   1.227   3.412   3.368
 1520SOL    HW1 5312   1.233   3.335   3.432
 1520SOL    HW2 5313   1.175   3.386   3.288
 1521SOL     OW 5314   0.321   2.805   2.104
 1521SOL    HW1 5315   0.403   2.844   2.062
 1521SOL    HW2 5316   0.294   2.723   2.055
 1522SOL     OW 5317   1.458   2.597   2.590
 1522SOL    HW1 5318   1.453   2.532   2.665
 1522SOL    HW2 5319   1.538   2.656   2.603
 1523SOL     OW 5320   0.461   3.128   3.589
 1523SOL    HW1 5321   0.411   3.129   3.503
 1523SOL    HW2 5322   0.398   3.110   3.665
 1524SOL     OW 5323   1.111   3.638   2.099
 1524SOL    HW1 5324   1.051   3.576   2.149
 1524SOL    HW2 5325   1.142   3.594   2.014
 1525SOL     OW 5326   0.202   2.147   3.360
 1525SOL    HW1 5327   0.122   2.207   3.347
 1525SOL    HW2 5328   0.192   2.098   3.446
 1526SOL     OW 5329   1.632   3.239   1.943
 1526SOL    HW1 5330   1.600   3.333   1.933
 1526SOL    HW2 5331   1.556   3.176   1.931
 1527SOL     OW 5332   0.464   3.605   2.185
 1527SOL    HW1 5333   0.497   3.644   2.271
 1527SOL    HW2 5334   0.540   3.598   2.120
 1528SOL     OW 5335   1.400   1.969   2.288
 1528SOL    HW1 5336   1.376   1.932   2.198
 1528SOL    HW2 5337   1.499   1.985   2.292
 1529SOL     OW 5338   0.249   3.647   3.103
 1529SOL    HW1 5339   0.306   3.582   3.153
 1529SOL    HW2 5340   0.233   3.614   3.010
 1530SOL     OW 5341   0.940   3.560   2.766
 1530SOL    HW1 5342   1.020   3.503   2.787
 1530SOL    HW2 5343   0.891   3.520   2.689
 1531SOL     OW 5344   0.382   2.562   2.342
 1531SOL    HW1 5345   0.427   2.472   2.339
 1531SOL    HW2 5346   0.288   2.551   2.375
 1532SOL     OW 5347   1.547   2.084   3.591
 1532SOL    HW1 5348   1.542   2.121   3.683
 1532SOL    HW2 5349   1.475   2.015   3.579
 1533SOL     OW 5350   0.614   1.984   1.979
 1533SOL    HW1 5351   0.712   1.962   1.986
 1533SOL    HW2 5352   0.583   1.967   1.886
 1534SOL     OW 5353   0.781   2.126   3.611
 1534SOL    HW1 5354   0.848   2.065   3.654
 1534SOL    HW2 5355   0.708   2.145   3.676
 1535SOL     OW 5356   0.888   3.376   3.057
 1535SOL    HW1 5357   0.865   3.351   2.963
 1535SOL    HW2 5358   0.949   3.307   3.096
 1536SOL     OW 5359   1.351   2.452   3.295
 1536SOL    HW1 5360   1.379   2.409   3.380
 1536SOL    HW2 5361   1.376   2.548   3.296
 1537SOL     OW 5362   0.803   3.264   2.786
 1537SOL    HW1 5363   0.893   3.278   2.744
 1537SOL    HW2 5364   0.732   3.266   2.715
 1538SOL     OW 5365   0.922   2.365   2.761
 1538SOL    HW1 5366   0.897   2.356   2.665
 1538SOL    HW2 5367   0.970   2.283   2.792
 1539SOL     OW 5368   0.539   1.926   2.374
 1539SOL    HW1 5369   0.458   1.927   2.432
 1539SOL    HW2 5370   0.542   2.009   2.319
 1540SOL     OW 5371   1.434   3.050   1.903
 1540SOL    HW1 5372   1.466   2.974   1.960
 1540SOL    HW2 5373   1.342   3.077   1.933
 1541SOL     OW 5374   0.297   1.897   2.033
 1541SOL    HW1 5375   0.346   1.981   2.012
 1541SOL    HW2 5376   0.359   1.832   2.078
 1542SOL     OW 5377   0.935   2.098   2.342
 1542SOL    HW1 5378   0.887   2.139   2.264
 1542SOL    HW2 5379   1.034   2.096   2.323
 1543SOL     OW 5380   1.076   2.545   3.326
 1543SOL    HW1 5381   0.996   2.484   3.329
 1543SOL    HW2 5382   1.157   2.492   3.302
 1544SOL     OW 5383   1.227   3.432   2.655
 1544SOL    HW1 5384   1.248   3.506   2.590
 1544SOL    HW2 5385   1.295   3.432   2.728
 1545SOL     OW 5386   0.459   3.014   2.603
 1545SOL    HW1 5387   0.388   2.987   2.668
 1545SOL    HW2 5388   0.433   2.986   2.510
 1546SOL     OW 5389   1.271   3.659   2.453
 1546SOL    HW1 5390   1.315   3.723   2.389
 1546SOL    HW2 5391   1.221   3.711   2.523
 1547SOL     OW 5392   1.032   2.411   1.878
 1547SOL    HW1 5393   0.991   2.493   1.839
 1547SOL    HW2 5394   1.096   2.437   1.951
 1548SOL     OW 5395   0.078   2.418   3.248
 1548SOL    HW1 5396   0.170   2.417   3.207
 1548SOL    HW2 5397   0.072   2.492   3.315
 1549SOL     OW 5398   0.561   2.084   3.009
 1549SOL    HW1 5399   0.599   2.000   3.046
 1549SOL    HW2 5400   0.473   2.103   3.053
 1550SOL     OW 5401   0.866   2.316   2.504
 1550SOL    HW1 5402   0.834   2.388   2.442
 1550SOL    HW2 5403   0.890   2.235   2.451
 1551SOL     OW 5404   1.017   1.901   2.615
 1551SOL    HW1 5405   0.945   1.906   2.546
 1551SOL    HW2 5406   0.993   1.832   2.684
 1552SOL     OW 5407   1.429   3.035   2.729
 1552SOL    HW1 5408   1.374   2.951   2.722
 1552SOL    HW2 5409   1.455   3.064   2.637
 1553SOL     OW 5410   1.466   2.452   2.854
 1553SOL    HW1 5411   1.436   2.357   2.861
 1553SOL    HW2 5412   1.539   2.468   2.920
 1554SOL     OW 5413   1.857   2.695   2.239
 1554SOL    HW1 5414   1.899   2.631   2.303
 1554SOL    HW2 5415   1.819   2.644   2.161
 1555SOL     OW 5416   0.488   3.247   2.036
 1555SOL    HW1 5417   0.401   3.232   2.083
 1555SOL    HW2 5418   0.471   3.273   1.941
 1556SOL     OW 5419   1.664   3.142   2.519
 1556SOL    HW1 5420   1.763   3.150   2.533
 1556SOL    HW2 5421   1.619   3.226   2.550
 1557SOL     OW 5422   1.390   2.437   1.940
 1557SOL    HW1 5423   1.336   2.416   2.021
 1557SOL    HW2 5424   1.481   2.396   1.949
 1558SOL     OW 5425   0.527   2.118   2.190
 1558SOL    HW1 5426   0.554   2.059   2.115
 1558SOL    HW2 5427   0.527   2.213   2.159
 1559SOL     OW 5428   1.754   3.085   3.450
 1559SOL    HW1 5429   1.845   3.046   3.437
 1559SOL    HW2 5430   1.762   3.181   3.474
 1560SOL     OW 5431   1.064   3.209   3.202
 1560SOL    HW1 5432   0.984   3.186   3.257
 1560SOL    HW2 5433   1.147   3.183   3.251
 1561SOL     OW 5434   1.592   3.491   3.487
 1561SOL    HW1 5435   1.619   3.525   3.397
 1561SOL    HW2 5436   1.671   3.453   3.533
 1562SOL     OW 5437   1.111   3.057   2.962
 1562SOL    HW1 5438   1.071   3.101   3.043
 1562SOL    HW2 5439   1.070   3.094   2.879
 1563SOL     OW 5440   1.638   2.961   2.941
 1563SOL    HW1 5441   1.643   3.042   3.000
 1563SOL    HW2 5442   1.552   2.963   2.890
 1564SOL     OW 5443   0.915   1.951   3.264
 1564SOL    HW1 5444   0.940   1.931   3.169
 1564SOL    HW2 5445   0.987   2.007   3.306
 1565SOL     OW 5446   0.980   2.978   3.581
 1565SOL    HW1 5447   0.881   2.984   3.591
 1565SOL    HW2 5448   1.003   2.898   3.525
 1566SOL     OW 5449   0.705   2.912   2.230
 1566SOL    HW1 5450   0.691   2.919   2.329
 1566SOL    HW2 5451   0.789   2.861   2.212
 1567SOL     OW 5452   0.410   2.675   3.113
 1567SOL    HW1 5453   0.496   2.687   3.163
 1567SOL    HW2 5454   0.368   2.588   3.140
 1568SOL     OW 5455   1.274   2.248   3.124
 1568SOL    HW1 5456   1.295   2.322   3.188
 1568SOL    HW2 5457   1.185   2.265   3.081
 1569SOL     OW 5458   0.064   3.426   3.193
 1569SOL    HW1 5459   0.018   3.508   3.159
 1569SOL    HW2 5460   0.162   3.445   3.202
 1570SOL     OW 5461   0.367   2.962   2.363
 1570SOL    HW1 5462   0.360   3.045   2.307
 1570SOL    HW2 5463   0.371   2.882   2.303
 1571SOL     OW 5464   0.566   2.399   2.727
 1571SOL    HW1 5465   0.578   2.465   2.653
 1571SOL    HW2 5466   0.612   2.433   2.810
 1572SOL     OW 5467   1.252   3.210   2.250
 1572SOL    HW1 5468   1.302   3.287   2.290
 1572SOL    HW2 5469   1.157   3.212   2.282
 1573SOL     OW 5470   1.272   3.307   3.004
 1573SOL    HW1 5471   1.319   3.320   3.091
 1573SOL    HW2 5472   1.206   3.233   3.013
 1574SOL     OW 5473   1.582   2.501   2.334
 1574SOL    HW1 5474   1.551   2.562   2.407
 1574SOL    HW2 5475   1.632   2.553   2.265
 1575SOL     OW 5476   0.354   3.372   3.191
 1575SOL    HW1 5477   0.333   3.328   3.104
 1575SOL    HW2 5478   0.451   3.398   3.194
 1576SOL     OW 5479   0.402   2.613   3.460
 1576SOL    HW1 5480   0.470   2.668   3.413
 1576SOL    HW2 5481   0.442   2.525   3.487
 1577SOL     OW 5482   1.587   2.641   3.532
 1577SOL    HW1 5483   1.495   2.679   3.527
 1577SOL    HW2 5484   1.647   2.688   3.467
 1578SOL     OW 5485   1.013   1.967   3.632
 1578SOL    HW1 5486   1.019   2.052   3.580
 1578SOL    HW2 5487   1.045   1.891   3.575
 1579SOL     OW 5488   0.504   1.912   3.602
 1579SOL    HW1 5489   0.462   1.855   3.532
 1579SOL    HW2 5490   0.438   1.981   3.634
 1580SOL     OW 5491   0.573   2.732   2.891
 1580SOL    HW1 5492   0.617   2.821   2.882
 1580SOL    HW2 5493   0.510   2.732   2.968
 1581SOL     OW 5494   1.360   2.724   2.907
 1581SOL    HW1 5495   1.285   2.724   2.841
 1581SOL    HW2 5496   1.397   2.632   2.916
 1582SOL     OW 5497   1.209   2.387   2.137
 1582SOL    HW1 5498   1.222   2.303   2.191
 1582SOL    HW2 5499   1.180   2.461   2.197
 1583SOL     OW 5500   0.307   2.075   3.093
 1583SOL    HW1 5501   0.284   2.112   3.183
 1583SOL    HW2 5502   0.277   1.980   3.087
 1584SOL     OW 5503   0.037   3.172   3.144
 1584SOL    HW1 5504   0.090   3.123   3.212
 1584SOL    HW2 5505   0.059   3.270   3.149
 1585SOL     OW 5506   0.732   2.496   2.926
 1585SOL    HW1 5507   0.791   2.470   2.850
 1585SOL    HW2 5508   0.704   2.592   2.915
 1586SOL     OW 5509   1.728   2.797   3.716
 1586SOL    HW1 5510   1.682   2.790   3.627
 1586SOL    HW2 5511   1.666   2.841   3.782
 1587SOL     OW 5512   0.307   1.925   2.480
 1587SOL    HW1 5513   0.296   2.019   2.513
 1587SOL    HW2 5514   0.302   1.862   2.557
 1588SOL     OW 5515   1.622   2.229   2.236
 1588SOL    HW1 5516   1.624   2.153   2.300
 1588SOL    HW2 5517   1.574   2.306   2.276
 1589SOL     OW 5518   1.023   2.628   2.828
 1589SOL    HW1 5519   1.038   2.649   2.924
 1589SOL    HW2 5520   0.993   2.533   2.819
 1590SOL     OW 5521   0.980   3.435   3.562
 1590SOL    HW1 5522   0.960   3.479   3.474
 1590SOL    HW2 5523   1.019   3.344   3.546
 1591SOL     OW 5524   1.859   3.380   3.467
 1591SOL    HW1 5525   1.873   3.407   3.372
 1591SOL    HW2 5526   1.942   3.402   3.520
 1592SOL     OW 5527   0.350   2.760   3.666
 1592SOL    HW1 5528   0.426   2.804   3.714
 1592SOL    HW2 5529   0.385   2.713   3.584
 1593SOL     OW 5530   1.540   2.136   1.987
 1593SOL    HW1 5531   1.479   2.061   2.010
 1593SOL    HW2 5532   1.562   2.188   2.070
 1594SOL     OW 5533   1.303   2.700   1.904
 1594SOL    HW1 5534   1.337   2.607   1.919
 1594SOL    HW2 5535   1.321   2.727   1.809
 1595SOL     OW 5536   1.068   3.195   2.711
 1595SOL    HW1 5537   1.075   3.111   2.656
 1595SOL    HW2 5538   1.130   3.264   2.675
 1596SOL     OW 5539   0.319   2.672   2.811
 1596SOL    HW1 5540   0.412   2.708   2.816
 1596SOL    HW2 5541   0.313   2.587   2.863
 1597SOL     OW 5542   0.339   2.371   2.868
 1597SOL    HW1 5543   0.287   2.288   2.851
 1597SOL    HW2 5544   0.416   2.376   2.804
 1598SOL     OW 5545   1.138   2.242   3.540
 1598SOL    HW1 5546   1.093   2.305   3.604
 1598SOL    HW2 5547   1.231   2.273   3.523
 1599SOL     OW 5548   1.160   2.069   3.339
 1599SOL    HW1 5549   1.160   2.133   3.416
 1599SOL    HW2 5550   1.188   2.117   3.256
 1600SOL     OW 5551   0.008   3.188   2.062
 1600SOL    HW1 5552  -0.085   3.209   2.031
 1600SOL    HW2 5553   0.018   3.089   2.075
 1601SOL     OW 5554   0.088   3.663   2.789
 1601SOL    HW1 5555   0.046   3.577   2.762
 1601SOL    HW2 5556   0.182   3.666   2.755
 1602SOL     OW 5557   0.504   3.430   2.772
 1602SOL    HW1 5558   0.570   3.504   2.781
 1602SOL    HW2 5559   0.548   3.351   2.730
 1603SOL     OW 5560   1.002   2.658   3.100
 1603SOL    HW1 5561   1.043   2.626   3.186
 1603SOL    HW2 5562   0.906   2.631   3.097
 1604SOL     OW 5563   0.040   2.406   2.976
 1604SOL    HW1 5564   0.125   2.373   2.935
 1604SOL    HW2 5565   0.053   2.421   3.074
 1605SOL     OW 5566   0.189   2.382   3.584
 1605SOL    HW1 5567   0.248   2.342   3.514
 1605SOL    HW2 5568   0.131   2.453   3.543
 1606SOL     OW 5569   1.369   2.812   3.522
 1606SOL    HW1 5570   1.408   2.901   3.542
 1606SOL    HW2 5571   1.379   2.792   3.425
 1607SOL     OW 5572   0.815   2.434   2.187
 1607SOL    HW1 5573   0.822   2.345   2.141
 1607SOL    HW2 5574   0.721   2.468   2.179
 1608SOL     OW 5575   1.657   2.466   3.068
 1608SOL    HW1 5576   1.619   2.397   3.130
 1608SOL    HW2 5577   1.739   2.430   3.024
 1609SOL     OW 5578   0.252   3.426   3.606
 1609SOL    HW1 5579   0.222   3.483   3.682
 1609SOL    HW2 5580   0.245   3.329   3.632
 1610SOL     OW 5581   0.671   2.326   3.131
 1610SOL    HW1 5582   0.637   2.237   3.101
 1610SOL    HW2 5583   0.697   2.380   3.051
 1611SOL     OW 5584   0.930   3.540   3.327
 1611SOL    HW1 5585   0.906   3.522   3.232
 1611SOL    HW2 5586   0.960   3.634   3.337
 1612SOL     OW 5587   0.473   2.362   2.053
 1612SOL    HW1 5588   0.534   2.442   2.057
 1612SOL    HW2 5589   0.378   2.393   2.060
 1613SOL     OW 5590   0.159   2.999   3.328
 1613SOL    HW1 5591   0.181   2.938   3.404
 1613SOL    HW2 5592   0.169   2.950   3.242
 1614SOL     OW 5593   1.347   2.921   3.096
 1614SOL    HW1 5594   1.371   2.858   3.022
 1614SOL    HW2 5595   1.257   2.961   3.078
 1615SOL     OW 5596   1.302   2.717   2.171
 1615SOL    HW1 5597   1.216   2.686   2.213
 1615SOL    HW2 5598   1.298   2.703   2.072
 1616SOL     OW 5599   1.759   3.609   3.016
 1616SOL    HW1 5600   1.820   3.639   2.943
 1616SOL    HW2 5601   1.721   3.520   2.994
 1617SOL     OW 5602   1.252   3.593   2.990
 1617SOL    HW1 5603   1.336   3.598   2.936
 1617SOL    HW2 5604   1.229   3.497   3.008
 1618SOL     OW 5605   0.083   3.120   2.884
 1618SOL    HW1 5606   0.078   3.119   2.984
 1618SOL    HW2 5607   0.000   3.079   2.846
 1619SOL     OW 5608   0.688   3.524   3.578
 1619SOL    HW1 5609   0.632   3.605   3.587
 1619SOL    HW2 5610   0.740   3.528   3.492
 1620SOL     OW 5611   1.726   1.997   2.385
 1620SOL    HW1 5612   1.799   1.980   2.318
 1620SOL    HW2 5613   1.695   1.910   2.423
 1621SOL     OW 5614   1.388   3.435   2.339
 1621SOL    HW1 5615   1.455   3.447   2.265
 1621SOL    HW2 5616   1.348   3.524   2.362
 1622SOL     OW 5617   0.130   3.656   3.713
 1622SOL    HW1 5618   0.089   3.582   3.766
 1622SOL    HW2 5619   0.194   3.707   3.771
 1623SOL     OW 5620   1.280   2.789   2.534
 1623SOL    HW1 5621   1.340   2.708   2.536
 1623SOL    HW2 5622   1.320   2.858   2.474
 1624SOL     OW 5623   0.830   3.135   3.284
 1624SOL    HW1 5624   0.825   3.168   3.379
 1624SOL    HW2 5625   0.744   3.154   3.238
 1625SOL     OW 5626   0.672   3.478   2.016
 1625SOL    HW1 5627   0.681   3.488   1.917
 1625SOL    HW2 5628   0.632   3.389   2.037
 1626SOL     OW 5629   1.650   3.582   3.256
 1626SOL    HW1 5630   1.703   3.592   3.172
 1626SOL    HW2 5631   1.623   3.672   3.290
 1627SOL     OW 5632   1.841   2.037   2.825
 1627SOL    HW1 5633   1.880   1.952   2.789
 1627SOL    HW2 5634   1.743   2.039   2.806
 1628SOL     OW 5635   0.263   2.188   2.582
 1628SOL    HW1 5636   0.184   2.239   2.548
 1628SOL    HW2 5637   0.254   2.173   2.680
 1629SOL     OW 5638   1.194   3.474   1.893
 1629SOL    HW1 5639   1.200   3.381   1.930
 1629SOL    HW2 5640   1.135   3.474   1.813
 1630SOL     OW 5641   0.822   2.864   3.234
 1630SOL    HW1 5642   0.862   2.863   3.142
 1630SOL    HW2 5643   0.832   2.956   3.274
 1631SOL     OW 5644   0.916   2.772   2.153
 1631SOL    HW1 5645   0.979   2.810   2.085
 1631SOL    HW2 5646   0.956   2.689   2.192
 1632SOL     OW 5647   1.504   3.469   1.906
 1632SOL    HW1 5648   1.412   3.506   1.913
 1632SOL    HW2 5649   1.542   3.489   1.816
 1633SOL     OW 5650   0.372   3.150   3.352
 1633SOL    HW1 5651   0.359   3.243   3.318
 1633SOL    HW2 5652   0.288   3.098   3.339
 1634SOL     OW 5653   1.614   3.154   3.151
 1634SOL    HW1 5654   1.674   3.157   3.231
 1634SOL    HW2 5655   1.539   3.218   3.164
 1635SOL     OW 5656   1.039   2.960   2.558
 1635SOL    HW1 5657   0.969   2.913   2.612
 1635SOL    HW2 5658   1.098   2.892   2.515
 1636SOL     OW 5659   1.014   2.098   2.833
 1636SOL    HW1 5660   1.006   2.062   2.740
 1636SOL    HW2 5661   1.012   2.022   2.898
 1637SOL     OW 5662   0.590   3.349   2.353
 1637SOL    HW1 5663   0.632   3.291   2.283
 1637SOL    HW2 5664   0.546   3.428   2.309
 1638SOL     OW 5665   1.709   2.247   3.243
 1638SOL    HW1 5666   1.782   2.316   3.247
 1638SOL    HW2 5667   1.737   2.172   3.184
 1639SOL     OW 5668   0.255   3.210   2.152
 1639SOL    HW1 5669   0.159   3.211   2.125
 1639SOL    HW2 5670   0.267   3.263   2.236
 1640SOL     OW 5671   0.105   2.875   3.588
 1640SOL    HW1 5672   0.028   2.842   3.642
 1640SOL    HW2 5673   0.190   2.845   3.630
 1641SOL     OW 5674   0.672   2.065   3.351
 1641SOL    HW1 5675   0.762   2.049   3.311
 1641SOL    HW2 5676   0.680   2.070   3.450
 1642SOL     OW 5677   0.075   2.207   1.895
 1642SOL    HW1 5678  -0.017   2.179   1.866
 1642SOL    HW2 5679   0.106   2.284   1.839
 1643SOL     OW 5680   1.440   2.718   3.260
 1643SOL    HW1 5681   1.383   2.770   3.197
 1643SOL    HW2 5682   1.536   2.730   3.236
 1644SOL     OW 5683   0.072   2.028   2.180
 1644SOL    HW1 5684   0.055   2.111   2.126
 1644SOL    HW2 5685   0.162   1.991   2.158
 1645SOL     OW 5686   1.183   3.197   1.981
 1645SOL    HW1 5687   1.084   3.186   1.983
 1645SOL    HW2 5688   1.217   3.212   2.074
 1646SOL     OW 5689   0.613   2.704   3.293
 1646SOL    HW1 5690   0.669   2.785   3.276
 1646SOL    HW2 5691   0.672   2.624   3.296
 1647SOL     OW 5692   1.493   3.629   2.821
 1647SOL    HW1 5693   1.526   3.693   2.752
 1647SOL    HW2 5694   1.559   3.623   2.896
 1648SOL     OW 5695   0.716   2.427   3.570
 1648SOL    HW1 5696   0.735   2.492   3.644
 1648SOL    HW2 5697   0.776   2.347   3.579
 1649SOL     OW 5698   1.450   3.082   3.495
 1649SOL    HW1 5699   1.441   3.072   3.594
 1649SOL    HW2 5700   1.546   3.075   3.469
 1650SOL     OW 5701   0.390   3.603   3.422
 1650SOL    HW1 5702   0.299   3.644   3.420
 1650SOL    HW2 5703   0.383   3.509   3.454
 1651SOL     OW 5704   1.674   2.745   3.116
 1651SOL    HW1 5705   1.647   2.656   3.079
 1651SOL    HW2 5706   1.675   2.813   3.043
 1652SOL     OW 5707   1.225   2.187   2.311
 1652SOL    HW1 5708   1.290   2.113   2.300
 1652SOL    HW2 5709   1.245   2.237   2.395
 1653SOL     OW 5710   0.594   2.607   2.514
 1653SOL    HW1 5711   0.644   2.692   2.495
 1653SOL    HW2 5712   0.506   2.609   2.466
 1654SOL     OW 5713   1.777   2.204   3.504
 1654SOL    HW1 5714   1.760   2.235   3.410
 1654SOL    HW2 5715   1.693   2.167   3.542
 1655SOL     OW 5716   1.730   2.796   3.379
 1655SOL    HW1 5717   1.768   2.887   3.394
 1655SOL    HW2 5718   1.722   2.779   3.280
 1656SOL     OW 5719   0.859   3.236   1.878
 1656SOL    HW1 5720   0.813   3.251   1.966
 1656SOL    HW2 5721   0.903   3.321   1.848
 1657SOL     OW 5722   0.661   3.652   2.815
 1657SOL    HW1 5723   0.615   3.740   2.802
 1657SOL    HW2 5724   0.760   3.664   2.808
 1658SOL     OW 5725   0.859   2.818   2.723
 1658SOL    HW1 5726   0.913   2.749   2.771
 1658SOL    HW2 5727   0.827   2.887   2.789
 1659SOL     OW 5728   1.083   2.846   1.949
 1659SOL    HW1 5729   1.060   2.899   1.867
 1659SOL    HW2 5730   1.164   2.790   1.930
 1660SOL     OW 5731   1.861   3.431   2.713
 1660SOL    HW1 5732   1.790   3.419   2.643
 1660SOL    HW2 5733   1.862   3.352   2.773
 1661SOL     OW 5734   0.221   3.176   3.706
 1661SOL    HW1 5735   0.156   3.103   3.685
 1661SOL    HW2 5736   0.225   3.190   3.804
 1662SOL     OW 5737   0.079   3.102   2.515
 1662SOL    HW1 5738   0.078   3.055   2.603
 1662SOL    HW2 5739   0.161   3.074   2.464
 1663SOL     OW 5740   0.672   3.253   3.486
 1663SOL    HW1 5741   0.594   3.203   3.524
 1663SOL    HW2 5742   0.669   3.348   3.517
 1664SOL     OW 5743   1.824   2.054   3.089
 1664SOL    HW1 5744   1.820   1.964   3.133
 1664SOL    HW2 5745   1.827   2.043   2.990
 1665SOL     OW 5746   0.428   2.286   2.382
 1665SOL    HW1 5747   0.458   2.214   2.320
 1665SOL    HW2 5748   0.389   2.246   2.465
 1666SOL     OW 5749   1.705   3.349   2.966
 1666SOL    HW1 5750   1.612   3.324   2.939
 1666SOL    HW2 5751   1.731   3.299   3.048
 1667SOL     OW 5752   0.317   2.409   3.142
 1667SOL    HW1 5753   0.355   2.350   3.214
 1667SOL    HW2 5754   0.357   2.383   3.054
 1668SOL     OW 5755   0.812   3.448   2.549
 1668SOL    HW1 5756   0.844   3.458   2.455
 1668SOL    HW2 5757   0.733   3.386   2.551
 1669SOL     OW 5758   1.424   2.076   2.974
 1669SOL    HW1 5759   1.476   2.011   3.029
 1669SOL    HW2 5760   1.375   2.139   3.035
 1670SOL     OW 5761   1.001   1.896   3.016
 1670SOL    HW1 5762   0.938   1.824   2.985
 1670SOL    HW2 5763   1.094   1.860   3.016
 1671SOL     OW 5764   0.770   3.192   2.163
 1671SOL    HW1 5765   0.724   3.105   2.180
 1671SOL    HW2 5766   0.861   3.189   2.204
 1672SOL     OW 5767   0.618   3.429   3.146
 1672SOL    HW1 5768   0.613   3.511   3.203
 1672SOL    HW2 5769   0.707   3.426   3.101
 1673SOL     OW 5770   1.352   1.914   2.030
 1673SOL    HW1 5771   1.387   1.873   1.946
 1673SOL    HW2 5772   1.262   1.876   2.050
 1674SOL     OW 5773   1.300   2.315   2.553
 1674SOL    HW1 5774   1.241   2.395   2.557
 1674SOL    HW2 5775   1.315   2.280   2.646
 1675SOL     OW 5776   1.593   2.083   2.744
 1675SOL    HW1 5777   1.509   2.082   2.798
 1675SOL    HW2 5778   1.595   2.166   2.688
 1676SOL     OW 5779   0.039   2.939   2.162
 1676SOL    HW1 5780   0.138   2.928   2.153
 1676SOL    HW2 5781  -0.001   2.853   2.194
 1677SOL     OW 5782   0.875   3.508   2.199
 1677SOL    HW1 5783   0.798   3.473   2.145
 1677SOL    HW2 5784   0.843   3.579   2.261
 1678SOL     OW 5785   0.230   2.490   3.837
 1678SOL    HW1 5786   0.137   2.488   3.874
 1678SOL    HW2 5787   0.231   2.451   3.745
 1679SOL     OW 5788   0.225   2.137   4.720
 1679SOL    HW1 5789   0.260   2.120   4.812
 1679SOL    HW2 5790   0.137   2.092   4.708
 1680SOL     OW 5791   0.019   2.230   4.371
 1680SOL    HW1 5792  -0.063   2.273   4.410
 1680SOL    HW2 5793  -0.009   2.157   4.308
 1681SOL     OW 5794   0.569   3.137   4.889
 1681SOL    HW1 5795   0.476   3.130   4.852
 1681SOL    HW2 5796   0.580   3.226   4.933
 1682SOL     OW 5797   1.555   3.373   4.427
 1682SOL    HW1 5798   1.498   3.357   4.508
 1682SOL    HW2 5799   1.496   3.383   4.347
 1683SOL     OW 5800   1.135   2.565   4.441
 1683SOL    HW1 5801   1.192   2.643   4.416
 1683SOL    HW2 5802   1.075   2.591   4.517
 1684SOL     OW 5803   1.755   2.469   3.955
 1684SOL    HW1 5804   1.743   2.456   3.856
 1684SOL    HW2 5805   1.725   2.388   4.004
 1685SOL     OW 5806   0.768   3.006   4.747
 1685SOL    HW1 5807   0.690   3.023   4.807
 1685SOL    HW2 5808   0.802   3.093   4.711
 1686SOL     OW 5809   0.850   2.660   5.547
 1686SOL    HW1 5810   0.846   2.736   5.612
 1686SOL    HW2 5811   0.872   2.696   5.456
 1687SOL     OW 5812   0.685   2.874   4.389
 1687SOL    HW1 5813   0.754   2.858   4.459
 1687SOL    HW2 5814   0.612   2.931   4.427
 1688SOL     OW 5815   0.686   3.023   5.527
 1688SOL    HW1 5816   0.746   3.102   5.541
 1688SOL    HW2 5817   0.600   3.054   5.486
 1689SOL     OW 5818   0.335   3.297   4.785
 1689SOL    HW1 5819   0.257   3.266   4.732
 1689SOL    HW2 5820   0.393   3.355   4.728
 1690SOL     OW 5821   1.460   3.367   5.063
 1690SOL    HW1 5822   1.484   3.461   5.089
 1690SOL    HW2 5823   1.444   3.313   5.145
 1691SOL     OW 5824   0.438   2.254   5.223
 1691SOL    HW1 5825   0.520   2.198   5.232
 1691SOL    HW2 5826   0.357   2.196   5.227
 1692SOL     OW 5827   1.603   2.309   4.461
 1692SOL    HW1 5828   1.529   2.355   4.411
 1692SOL    HW2 5829   1.654   2.377   4.514
 1693SOL     OW 5830   0.231   3.575   4.207
 1693SOL    HW1 5831   0.265   3.652   4.261
 1693SOL    HW2 5832   0.275   3.575   4.117
 1694SOL     OW 5833   1.127   3.203   5.414
 1694SOL    HW1 5834   1.174   3.203   5.502
 1694SOL    HW2 5835   1.079   3.116   5.403
 1695SOL     OW 5836   0.230   3.296   4.262
 1695SOL    HW1 5837   0.204   3.392   4.262
 1695SOL    HW2 5838   0.159   3.242   4.307
 1696SOL     OW 5839   0.240   2.953   4.610
 1696SOL    HW1 5840   0.254   2.869   4.662
 1696SOL    HW2 5841   0.185   3.017   4.665
 1697SOL     OW 5842   0.620   3.648   5.163
 1697SOL    HW1 5843   0.528   3.631   5.198
 1697SOL    HW2 5844   0.648   3.740   5.189
 1698SOL     OW 5845   0.606   2.826   3.847
 1698SOL    HW1 5846   0.613   2.910   3.793
 1698SOL    HW2 5847   0.652   2.839   3.935
 1699SOL     OW 5848   0.122   2.505   4.287
 1699SOL    HW1 5849   0.077   2.417   4.304
 1699SOL    HW2 5850   0.121   2.559   4.371
 1700SOL     OW 5851   1.842   3.629   4.083
 1700SOL    HW1 5852   1.896   3.600   4.163
 1700SOL    HW2 5853   1.872   3.719   4.054
 1701SOL     OW 5854   0.027   3.458   3.841
 1701SOL    HW1 5855   0.008   3.362   3.862
 1701SOL    HW2 5856  -0.006   3.516   3.916
 1702SOL     OW 5857   1.689   2.784   4.336
 1702SOL    HW1 5858   1.784   2.755   4.344
 1702SOL    HW2 5859   1.681   2.849   4.261
 1703SOL     OW 5860   1.641   2.970   4.156
 1703SOL    HW1 5861   1.727   2.972   4.104
 1703SOL    HW2 5862   1.655   3.017   4.244
 1704SOL     OW 5863   0.113   2.599   5.321
 1704SOL    HW1 5864   0.201   2.586   5.366
 1704SOL    HW2 5865   0.100   2.696   5.299
 1705SOL     OW 5866   0.613   3.227   4.450
 1705SOL    HW1 5867   0.564   3.140   4.459
 1705SOL    HW2 5868   0.590   3.270   4.363
 1706SOL     OW 5869   1.293   3.090   5.147
 1706SOL    HW1 5870   1.330   3.017   5.089
 1706SOL    HW2 5871   1.345   3.095   5.232
 1707SOL     OW 5872   0.809   1.866   4.226
 1707SOL    HW1 5873   0.849   1.957   4.217
 1707SOL    HW2 5874   0.709   1.874   4.232
 1708SOL     OW 5875   0.197   2.838   4.988
 1708SOL    HW1 5876   0.286   2.793   4.974
 1708SOL    HW2 5877   0.124   2.773   4.969
 1709SOL     OW 5878   1.525   2.861   3.914
 1709SOL    HW1 5879   1.462   2.785   3.927
 1709SOL    HW2 5880   1.573   2.879   4.000
 1710SOL     OW 5881   1.187   3.654   5.340
 1710SOL    HW1 5882   1.211   3.714   5.264
 1710SOL    HW2 5883   1.194   3.559   5.310
 1711SOL     OW 5884   0.317   2.113   5.525
 1711SOL    HW1 5885   0.388   2.184   5.531
 1711SOL    HW2 5886   0.229   2.152   5.553
 1712SOL     OW 5887   1.466   3.279   4.677
 1712SOL    HW1 5888   1.407   3.285   4.757
 1712SOL    HW2 5889   1.451   3.191   4.631
 1713SOL     OW 5890   1.667   3.576   4.296
 1713SOL    HW1 5891   1.626   3.553   4.208
 1713SOL    HW2 5892   1.649   3.502   4.361
 1714SOL     OW 5893   0.598   2.591   3.994
 1714SOL    HW1 5894   0.622   2.660   3.926
 1714SOL    HW2 5895   0.520   2.624   4.048
 1715SOL     OW 5896   1.281   2.207   4.668
 1715SOL    HW1 5897   1.195   2.157   4.655
 1715SOL    HW2 5898   1.343   2.153   4.724
 1716SOL     OW 5899   1.576   3.524   4.031
 1716SOL    HW1 5900   1.665   3.570   4.034
 1716SOL    HW2 5901   1.555   3.500   3.936
 1717SOL     OW 5902   0.807   2.467   5.189
 1717SOL    HW1 5903   0.760   2.464   5.278
 1717SOL    HW2 5904   0.756   2.412   5.123
 1718SOL     OW 5905   1.394   2.331   5.398
 1718SOL    HW1 5906   1.374   2.374   5.486
 1718SOL    HW2 5907   1.472   2.269   5.407
 1719SOL     OW 5908   0.973   2.752   5.296
 1719SOL    HW1 5909   1.019   2.668   5.267
 1719SOL    HW2 5910   0.917   2.786   5.221
 1720SOL     OW 5911   0.991   2.272   4.966
 1720SOL    HW1 5912   0.914   2.306   5.020
 1720SOL    HW2 5913   0.957   2.221   4.887
 1721SOL     OW 5914   1.041   2.563   4.153
 1721SOL    HW1 5915   1.067   2.559   4.249
 1721SOL    HW2 5916   0.956   2.512   4.139
 1722SOL     OW 5917   0.076   2.673   4.513
 1722SOL    HW1 5918   0.175   2.661   4.522
 1722SOL    HW2 5919   0.052   2.768   4.534
 1723SOL     OW 5920   0.130   3.683   5.295
 1723SOL    HW1 5921   0.120   3.668   5.394
 1723SOL    HW2 5922   0.044   3.719   5.259
 1724SOL     OW 5923   0.865   2.210   3.919
 1724SOL    HW1 5924   0.924   2.273   3.870
 1724SOL    HW2 5925   0.884   2.116   3.890
 1725SOL     OW 5926   1.719   2.447   5.555
 1725SOL    HW1 5927   1.693   2.536   5.519
 1725SOL    HW2 5928   1.717   2.379   5.482
 1726SOL     OW 5929   1.362   3.006   4.269
 1726SOL    HW1 5930   1.445   2.977   4.221
 1726SOL    HW2 5931   1.313   3.073   4.213
 1727SOL     OW 5932   0.550   2.058   4.609
 1727SOL    HW1 5933   0.545   2.053   4.709
 1727SOL    HW2 5934   0.552   2.154   4.580
 1728SOL     OW 5935   1.008   3.318   4.201
 1728SOL    HW1 5936   0.962   3.390   4.149
 1728SOL    HW2 5937   1.004   3.338   4.299
 1729SOL     OW 5938   0.351   3.663   4.577
 1729SOL    HW1 5939   0.401   3.577   4.583
 1729SOL    HW2 5940   0.416   3.740   4.574
 1730SOL     OW 5941   1.795   2.928   4.597
 1730SOL    HW1 5942   1.733   2.913   4.521
 1730SOL    HW2 5943   1.743   2.939   4.682
 1731SOL     OW 5944   1.227   3.412   5.230
 1731SOL    HW1 5945   1.233   3.335   5.294
 1731SOL    HW2 5946   1.175   3.386   5.150
 1732SOL     OW 5947   0.321   2.805   3.966
 1732SOL    HW1 5948   0.403   2.844   3.924
 1732SOL    HW2 5949   0.294   2.723   3.917
 1733SOL     OW 5950   1.458   2.597   4.452
 1733SOL    HW1 5951   1.453   2.532   4.527
 1733SOL    HW2 5952   1.538   2.656   4.465
 1734SOL     OW 5953   0.461   3.128   5.451
 1734SOL    HW1 5954   0.411   3.129   5.365
 1734SOL    HW2 5955   0.398   3.110   5.527
 1735SOL     OW 5956   1.111   3.638   3.961
 1735SOL    HW1 5957   1.051   3.576   4.011
 1735SOL    HW2 5958   1.142   3.594   3.876
 1736SOL     OW 5959   0.202   2.147   5.222
 1736SOL    HW1 5960   0.122   2.207   5.209
 1736SOL    HW2 5961   0.192   2.098   5.308
 1737SOL     OW 5962   1.632   3.239   3.805
 1737SOL    HW1 5963   1.600   3.333   3.795
 1737SOL    HW2 5964   1.556   3.176   3.793
 1738SOL     OW 5965   0.464   3.605   4.047
 1738SOL    HW1 5966   0.497   3.644   4.133
 1738SOL    HW2 5967   0.540   3.598   3.982
 1739SOL     OW 5968   1.400   1.969   4.150
 1739SOL    HW1 5969   1.376   1.932   4.060
 1739SOL    HW2 5970   1.499   1.985   4.154
 1740SOL     OW 5971   0.249   3.647   4.965
 1740SOL    HW1 5972   0.306   3.582   5.015
 1740SOL    HW2 5973   0.233   3.614   4.872
 1741SOL     OW 5974   0.940   3.560   4.628
 1741SOL    HW1 5975   1.020   3.503   4.649
 1741SOL    HW2 5976   0.891   3.520   4.551
 1742SOL     OW 5977   0.382   2.562   4.204
 1742SOL    HW1 5978   0.427   2.472   4.201
 1742SOL    HW2 5979   0.288   2.551   4.237
 1743SOL     OW 5980   0.614   1.984   3.841
 1743SOL    HW1 5981   0.712   1.962   3.848
 1743SOL    HW2 5982   0.583   1.967   3.748
 1744SOL     OW 5983   0.781   2.126   5.473
 1744SOL    HW1 5984   0.848   2.065   5.516
 1744SOL    HW2 5985   0.708   2.145   5.538
 1745SOL     OW 5986   0.888   3.376   4.919
 1745SOL    HW1 5987   0.865   3.351   4.825
 1745SOL    HW2 5988   0.949   3.307   4.958
 1746SOL     OW 5989   1.351   2.452   5.157
 1746SOL    HW1 5990   1.379   2.409   5.242
 1746SOL    HW2 5991   1.376   2.548   5.158
 1747SOL     OW 5992   0.803   3.264   4.648
 1747SOL    HW1 5993   0.893   3.278   4.606
 1747SOL    HW2 5994   0.732   3.266   4.577
 1748SOL     OW 5995   0.922   2.365   4.623
 1748SOL    HW1 5996   0.897   2.356   4.527
 1748SOL    HW2 5997   0.970   2.283   4.654
 1749SOL     OW 5998   0.539   1.926   4.236
 1749SOL    HW1 5999   0.458   1.927   4.294
 1749SOL    HW2 6000   0.542   2.009   4.181
 1750SOL     OW 6001   1.434   3.050   3.765
 1750SOL    HW1 6002   1.466   2.974   3.822
 1750SOL    HW2 6003   1.342   3.077   3.795
 1751SOL     OW 6004   0.297   1.897   3.895
 1751SOL    HW1 6005   0.346   1.981   3.874
 1751SOL    HW2 6006   0.359   1.832   3.940
 1752SOL     OW 6007   0.935   2.098   4.204
 1752SOL    HW1 6008   0.887   2.139   4.126
 1752SOL    HW2 6009   1.034   2.096   4.185
 1753SOL     OW 6010   1.076   2.545   5.188
 1753SOL    HW1 6011   0.996   2.484   5.191
 1753SOL    HW2 6012   1.157   2.492   5.164
 1754SOL     OW 6013   1.227   3.432   4.517
 1754SOL    HW1 6014   1.248   3.506   4.452
 1754SOL    HW2 6015   1.295   3.432   4.590
 1755SOL     OW 6016   0.459   3.014   4.465
 1755SOL    HW1 6017   0.388   2.987   4.530
 1755SOL    HW2 6018   0.433   2.986   4.372
 1756SOL     OW 6019   1.271   3.659   4.315
 1756SOL    HW1 6020   1.315   3.723   4.251
 1756SOL    HW2 6021   1.221   3.711   4.385
 1757SOL     OW 6022   1.032   2.411   3.740
 1757SOL    HW1 6023   0.991   2.493   3.701
 1757SOL    HW2 6024   1.096   2.437   3.813
 1758SOL     OW 6025   0.078   2.418   5.110
 1758SOL    HW1 6026   0.170   2.417   5.069
 1758SOL    HW2 6027   0.072   2.492   5.177
 1759SOL     OW 6028   0.561   2.084   4.871
 1759SOL    HW1 6029   0.599   2.000   4.908
 1759SOL    HW2 6030   0.473   2.103   4.915
 1760SOL     OW 6031   0.866   2.316   4.366
 1760SOL    HW1 6032   0.834   2.388   4.304
 1760SOL    HW2 6033   0.890   2.235   4.313
 1761SOL     OW 6034   1.017   1.901   4.477
 1761SOL    HW1 6035   0.945   1.906   4.408
 1761SOL    HW2 6036   0.993   1.832   4.546
 1762SOL     OW 6037   1.429   3.035   4.591
 1762SOL    HW1 6038   1.374   2.951   4.584
 1762SOL    HW2 6039   1.455   3.064   4.499
 1763SOL     OW 6040   1.857   2.695   4.101
 1763SOL    HW1 6041   1.899   2.631   4.165
 1763SOL    HW2 6042   1.819   2.644   4.023
 1764SOL     OW 6043   0.488   3.247   3.898
 1764SOL    HW1 6044   0.401   3.232   3.945
 1764SOL    HW2 6045   0.471   3.273   3.803
 1765SOL     OW 6046   1.664   3.142   4.381
 1765SOL    HW1 6047   1.763   3.150   4.395
 1765SOL    HW2 6048   1.619   3.226   4.412
 1766SOL     OW 6049   1.390   2.437   3.802
 1766SOL    HW1 6050   1.336   2.416   3.883
 1766SOL    HW2 6051   1.481   2.396   3.811
 1767SOL     OW 6052   0.527   2.118   4.052
 1767SOL    HW1 6053   0.554   2.059   3.977
 1767SOL    HW2 6054   0.527   2.213   4.021
 1768SOL     OW 6055   1.754   3.085   5.312
 1768SOL    HW1 6056   1.845   3.046   5.299
 1768SOL    HW2 6057   1.762   3.181   5.336
 1769SOL     OW 6058   1.064   3.209   5.064
 1769SOL    HW1 6059   0.984   3.186   5.119
 1769SOL    HW2 6060   1.147   3.183   5.113
 1770SOL     OW 6061   1.592   3.491   5.349
 1770SOL    HW1 6062   1.619   3.525   5.259
 1770SOL    HW2 6063   1.671   3.453   5.395
 1771SOL     OW 6064   1.111   3.057   4.824
 1771SOL    HW1 6065   1.071   3.101   4.905
 1771SOL    HW2 6066   1.070   3.094   4.741
 1772SOL     OW 6067   1.638   2.961   4.803
 1772SOL    HW1 6068   1.643   3.042   4.862
 1772SOL    HW2 6069   1.552   2.963   4.752
 1773SOL     OW 6070   0.915   1.951   5.126
 1773SOL    HW1 6071   0.940   1.931   5.031
 1773SOL    HW2 6072   0.987   2.007   5.168
 1774SOL     OW 6073   0.980   2.978   5.443
 1774SOL    HW1 6074   0.881   2.984   5.453
 1774SOL    HW2 6075   1.003   2.898   5.387
 1775SOL     OW 6076   0.705   2.912   4.092
 1775SOL    HW1 6077   0.691   2.919   4.191
 1775SOL    HW2 6078   0.789   2.861   4.074
 1776SOL     OW 6079   0.410   2.675   4.975
 1776SOL    HW1 6080   0.496   2.687   5.025
 1776SOL    HW2 6081   0.368   2.588   5.002
 1777SOL     OW 6082   1.274   2.248   4.986
 1777SOL    HW1 6083   1.295   2.322   5.050
 1777SOL    HW2 6084   1.185   2.265   4.943
 1778SOL     OW 6085   0.064   3.426   5.055
 1778SOL    HW1 6086   0.018   3.508   5.021
 1778SOL    HW2 6087   0.162   3.445   5.064
 1779SOL     OW 6088   0.367   2.962   4.225
 1779SOL    HW1 6089   0.360   3.045   4.169
 1779SOL    HW2 6090   0.371   2.882   4.165
 1780SOL     OW 6091   0.566   2.399   4.589
 1780SOL    HW1 6092   0.578   2.465   4.515
 1780SOL    HW2 6093   0.612   2.433   4.672
 1781SOL     OW 6094   1.252   3.210   4.112
 1781SOL    HW1 6095   1.302   3.287   4.152
 1781SOL    HW2 6096   1.157   3.212   4.144
 1782SOL     OW 6097   1.272   3.307   4.866
 1782SOL    HW1 6098   1.319   3.320   4.953
 1782SOL    HW2 6099   1.206   3.233   4.875
 1783SOL     OW 6100   1.582   2.501   4.196
 1783SOL    HW1 6101   1.551   2.562   4.269
 1783SOL    HW2 6102   1.632   2.553   4.127
 1784SOL     OW 6103   0.354   3.372   5.053
 1784SOL    HW1 6104   0.333   3.328   4.966
 1784SOL    HW2 6105   0.451   3.398   5.056
 1785SOL     OW 6106   0.402   2.613   5.322
 1785SOL    HW1 6107   0.470   2.668   5.275
 1785SOL    HW2 6108   0.442   2.525   5.349
 1786SOL     OW 6109   1.013   1.967   5.494
 1786SOL    HW1 6110   1.019   2.052   5.442
 1786SOL    HW2 6111   1.045   1.891   5.437
 1787SOL     OW 6112   0.504   1.912   5.464
 1787SOL    HW1 6113   0.462   1.855   5.394
 1787SOL    HW2 6114   0.438   1.981   5.496
 1788SOL     OW 6115   0.573   2.732   4.753
 1788SOL    HW1 6116   0.617   2.821   4.744
 1788SOL    HW2 6117   0.510   2.732   4.830
 1789SOL     OW 6118   1.360   2.724   4.769
 1789SOL    HW1 6119   1.285   2.724   4.703
 1789SOL    HW2 6120   1.397   2.632   4.778
 1790SOL     OW 6121   1.209   2.387   3.999
 1790SOL    HW1 6122   1.222   2.303   4.053
 1790SOL    HW2 6123   1.180   2.461   4.059
 1791SOL     OW 6124   0.307   2.075   4.955
 1791SOL    HW1 6125   0.284   2.112   5.045
 1791SOL    HW2 6126   0.277   1.980   4.949
 1792SOL     OW 6127   0.037   3.172   5.006
 1792SOL    HW1 6128   0.090   3.123   5.074
 1792SOL    HW2 6129   0.059   3.270   5.011
 1793SOL     OW 6130   0.732   2.496   4.788
 1793SOL    HW1 6131   0.791   2.470   4.712
 1793SOL    HW2 6132   0.704   2.592   4.777
 1794SOL     OW 6133   1.728   2.797   5.578
 1794SOL    HW1 6134   1.682   2.790   5.489
 1794SOL    HW2 6135   1.666   2.841   5.644
 1795SOL     OW 6136   0.307   1.925   4.342
 1795SOL    HW1 6137   0.296   2.019   4.375
 1795SOL    HW2 6138   0.302   1.862   4.419
 1796SOL     OW 6139   1.622   2.229   4.098
 1796SOL    HW1 6140   1.624   2.153   4.162
 1796SOL    HW2 6141   1.574   2.306   4.138
 1797SOL     OW 6142   1.023   2.628   4.690
 1797SOL    HW1 6143   1.038   2.649   4.786
 1797SOL    HW2 6144   0.993   2.533   4.681
 1798SOL     OW 6145   0.980   3.435   5.424
 1798SOL    HW1 6146   0.960   3.479   5.336
 1798SOL    HW2 6147   1.019   3.344   5.408
 1799SOL     OW 6148   1.859   3.380   5.329
 1799SOL    HW1 6149   1.873   3.407   5.234
 1799SOL    HW2 6150   1.942   3.402   5.382
 1800SOL     OW 6151   0.350   2.760   5.528
 1800SOL    HW1 6152   0.426   2.804   5.576
 1800SOL    HW2 6153   0.385   2.713   5.446
 1801SOL     OW 6154   1.540   2.136   3.849
 1801SOL    HW1 6155   1.479   2.061   3.872
 1801SOL    HW2 6156   1.562   2.188   3.932
 1802SOL     OW 6157   1.303   2.700   3.766
 1802SOL    HW1 6158   1.337   2.607   3.781
 1802SOL    HW2 6159   1.321   2.727   3.671
 1803SOL     OW 6160   1.068   3.195   4.573
 1803SOL    HW1 6161   1.075   3.111   4.518
 1803SOL    HW2 6162   1.130   3.264   4.537
 1804SOL     OW 6163   0.319   2.672   4.673
 1804SOL    HW1 6164   0.412   2.708   4.678
 1804SOL    HW2 6165   0.313   2.587   4.725
 1805SOL     OW 6166   0.339   2.371   4.730
 1805SOL    HW1 6167   0.287   2.288   4.713
 1805SOL    HW2 6168   0.416   2.376   4.666
 1806SOL     OW 6169   1.138   2.242   5.402
 1806SOL    HW1 6170   1.093   2.305   5.466
 1806SOL    HW2 6171   1.231   2.273   5.385
 1807SOL     OW 6172   1.160   2.069   5.201
 1807SOL    HW1 6173   1.160   2.133   5.278
 1807SOL    HW2 6174   1.188   2.117   5.118
 1808SOL     OW 6175   0.008   3.188   3.924
 1808SOL    HW1 6176  -0.085   3.209   3.893
 1808SOL    HW2 6177   0.018   3.089   3.937
 1809SOL     OW 6178   0.088   3.663   4.651
 1809SOL    HW1 6179   0.046   3.577   4.624
 1809SOL    HW2 6180   0.182   3.666   4.617
 1810SOL     OW 6181   0.504   3.430   4.634
 1810SOL    HW1 6182   0.570   3.504   4.643
 1810SOL    HW2 6183   0.548   3.351   4.592
 1811SOL     OW 6184   1.002   2.658   4.962
 1811SOL    HW1 6185   1.043   2.626   5.048
 1811SOL    HW2 6186   0.906   2.631   4.959
 1812SOL     OW 6187   0.040   2.406   4.838
 1812SOL    HW1 6188   0.125   2.373   4.797
 1812SOL    HW2 6189   0.053   2.421   4.936
 1813SOL     OW 6190   0.189   2.382   5.446
 1813SOL    HW1 6191   0.248   2.342   5.376
 1813SOL    HW2 6192   0.131   2.453   5.405
 1814SOL     OW 6193   1.369   2.812   5.384
 1814SOL    HW1 6194   1.408   2.901   5.404
 1814SOL    HW2 6195   1.379   2.792   5.287
 1815SOL     OW 6196   0.815   2.434   4.049
 1815SOL    HW1 6197   0.822   2.345   4.003
 1815SOL    HW2 6198   0.721   2.468   4.041
 1816SOL     OW 6199   0.252   3.426   5.468
 1816SOL    HW1 6200   0.222   3.483   5.544
 1816SOL    HW2 6201   0.245   3.329   5.494
 1817SOL     OW 6202   0.671   2.326   4.993
 1817SOL    HW1 6203   0.637   2.237   4.963
 1817SOL    HW2 6204   0.697   2.380   4.913
 1818SOL     OW 6205   0.930   3.540   5.189
 1818SOL    HW1 6206   0.906   3.522   5.094
 1818SOL    HW2 6207   0.960   3.634   5.199
 1819SOL     OW 6208   0.473   2.362   3.915
 1819SOL    HW1 6209   0.534   2.442   3.919
 1819SOL    HW2 6210   0.378   2.393   3.922
 1820SOL     OW 6211   0.159   2.999   5.190
 1820SOL    HW1 6212   0.181   2.938   5.266
 1820SOL    HW2 6213   0.169   2.950   5.104
 1821SOL     OW 6214   1.347   2.921   4.958
 1821SOL    HW1 6215   1.371   2.858   4.884
 1821SOL    HW2 6216   1.257   2.961   4.940
 1822SOL     OW 6217   1.302   2.717   4.033
 1822SOL    HW1 6218   1.216   2.686   4.075
 1822SOL    HW2 6219   1.298   2.703   3.934
 1823SOL     OW 6220   1.759   3.609   4.878
 1823SOL    HW1 6221   1.820   3.639   4.805
 1823SOL    HW2 6222   1.721   3.520   4.856
 1824SOL     OW 6223   1.252   3.593   4.852
 1824SOL    HW1 6224   1.336   3.598   4.798
 1824SOL    HW2 6225   1.229   3.497   4.870
 1825SOL     OW 6226   0.083   3.120   4.746
 1825SOL    HW1 6227   0.078   3.119   4.846
 1825SOL    HW2 6228   0.000   3.079   4.708
 1826SOL     OW 6229   0.688   3.524   5.440
 1826SOL    HW1 6230   0.632   3.605   5.449
 1826SOL    HW2 6231   0.740   3.528   5.354
 1827SOL     OW 6232   1.726   1.997   4.247
 1827SOL    HW1 6233   1.799   1.980   4.180
 1827SOL    HW2 6234   1.695   1.910   4.285
 1828SOL     OW 6235   1.388   3.435   4.201
 1828SOL    HW1 6236   1.455   3.447   4.127
 1828SOL    HW2 6237   1.348   3.524   4.224
 1829SOL     OW 6238   0.130   3.656   5.575
 1829SOL    HW1 6239   0.089   3.582   5.628
 1829SOL    HW2 6240   0.194   3.707   5.633
 1830SOL     OW 6241   1.280   2.789   4.396
 1830SOL    HW1 6242   1.340   2.708   4.398
 1830SOL    HW2 6243   1.320   2.858   4.336
 1831SOL     OW 6244   0.830   3.135   5.146
 1831SOL    HW1 6245   0.825   3.168   5.241
 1831SOL    HW2 6246   0.744   3.154   5.100
 1832SOL     OW 6247   0.672   3.478   3.878
 1832SOL    HW1 6248   0.681   3.488   3.779
 1832SOL    HW2 6249   0.632   3.389   3.899
 1833SOL     OW 6250   1.650   3.582   5.118
 1833SOL    HW1 6251   1.703   3.592   5.034
 1833SOL    HW2 6252   1.623   3.672   5.152
 1834SOL     OW 6253   1.841   2.037   4.687
 1834SOL    HW1 6254   1.880   1.952   4.651
 1834SOL    HW2 6255   1.743   2.039   4.668
 1835SOL     OW 6256   0.263   2.188   4.444
 1835SOL    HW1 6257   0.184   2.239   4.410
 1835SOL    HW2 6258   0.254   2.173   4.542
 1836SOL     OW 6259   1.194   3.474   3.755
 1836SOL    HW1 6260   1.200   3.381   3.792
 1836SOL    HW2 6261   1.135   3.474   3.675
 1837SOL     OW 6262   0.822   2.864   5.096
 1837SOL    HW1 6263   0.862   2.863   5.004
 1837SOL    HW2 6264   0.832   2.956   5.136
 1838SOL     OW 6265   0.916   2.772   4.015
 1838SOL    HW1 6266   0.979   2.810   3.947
 1838SOL    HW2 6267   0.956   2.689   4.054
 1839SOL     OW 6268   1.504   3.469   3.768
 1839SOL    HW1 6269   1.412   3.506   3.775
 1839SOL    HW2 6270   1.542   3.489   3.678
 1840SOL     OW 6271   0.372   3.150   5.214
 1840SOL    HW1 6272   0.359   3.243   5.180
 1840SOL    HW2 6273   0.288   3.098   5.201
 1841SOL     OW 6274   1.614   3.154   5.013
 1841SOL    HW1 6275   1.674   3.157   5.093
 1841SOL    HW2 6276   1.539   3.218   5.026
 1842SOL     OW 6277   1.039   2.960   4.420
 1842SOL    HW1 6278   0.969   2.913   4.474
 1842SOL    HW2 6279   1.098   2.892   4.377
 1843SOL     OW 6280   1.014   2.098   4.695
 1843SOL    HW1 6281   1.006   2.062   4.602
 1843SOL    HW2 6282   1.012   2.022   4.760
 1844SOL     OW 6283   0.590   3.349   4.215
 1844SOL    HW1 6284   0.632   3.291   4.145
 1844SOL    HW2 6285   0.546   3.428   4.171
 1845SOL     OW 6286   0.255   3.210   4.014
 1845SOL    HW1 6287   0.159   3.211   3.987
 1845SOL    HW2 6288   0.267   3.263   4.098
 1846SOL     OW 6289   0.105   2.875   5.450
 1846SOL    HW1 6290   0.028   2.842   5.504
 1846SOL    HW2 6291   0.190   2.845   5.492
 1847SOL     OW 6292   0.672   2.065   5.213
 1847SOL    HW1 6293   0.762   2.049   5.173
 1847SOL    HW2 6294   0.680   2.070   5.312
 1848SOL     OW 6295   0.075   2.207   3.757
 1848SOL    HW1 6296  -0.017   2.179   3.728
 1848SOL    HW2 6297   0.106   2.284   3.701
 1849SOL     OW 6298   1.440   2.718   5.122
 1849SOL    HW1 6299   1.383   2.770   5.059
 1849SOL    HW2 6300   1.536   2.730   5.098
 1850SOL     OW 6301   0.072   2.028   4.042
 1850SOL    HW1 6302   0.055   2.111   3.988
 1850SOL    HW2 6303   0.162   1.991   4.020
 1851SOL     OW 6304   1.183   3.197   3.843
 1851SOL    HW1 6305   1.084   3.186   3.845
 1851SOL    HW2 6306   1.217   3.212   3.936
 1852SOL     OW 6307   0.613   2.704   5.155
 1852SOL    HW1 6308   0.669   2.785   5.138
 1852SOL    HW2 6309   0.672   2.624   5.158
 1853SOL     OW 6310   1.493   3.629   4.683
 1853SOL    HW1 6311   1.526   3.693   4.614
 1853SOL    HW2 6312   1.559   3.623   4.758
 1854SOL     OW 6313   0.716   2.427   5.432
 1854SOL    HW1 6314   0.735   2.492   5.506
 1854SOL    HW2 6315   0.776   2.347   5.441
 1855SOL     OW 6316   1.450   3.082   5.357
 1855SOL    HW1 6317   1.441   3.072   5.456
 1855SOL    HW2 6318   1.546   3.075   5.331
 1856SOL     OW 6319   0.390   3.603   5.284
 1856SOL    HW1 6320   0.299   3.644   5.282
 1856SOL    HW2 6321   0.383   3.509   5.316
 1857SOL     OW 6322   1.225   2.187   4.173
 1857SOL    HW1 6323   1.290   2.113   4.162
 1857SOL    HW2 6324   1.245   2.237   4.257
 1858SOL     OW 6325   0.594   2.607   4.376
 1858SOL    HW1 6326   0.644   2.692   4.357
 1858SOL    HW2 6327   0.506   2.609   4.328
 1859SOL     OW 6328   0.859   3.236   3.740
 1859SOL    HW1 6329   0.813   3.251   3.828
 1859SOL    HW2 6330   0.903   3.321   3.710
 1860SOL     OW 6331   0.661   3.652   4.677
 1860SOL    HW1 6332   0.615   3.740   4.664
 1860SOL    HW2 6333   0.760   3.664   4.670
 1861SOL     OW 6334   0.859   2.818   4.585
 1861SOL    HW1 6335   0.913   2.749   4.633
 1861SOL    HW2 6336   0.827   2.887   4.651
 1862SOL     OW 6337   1.083   2.846   3.811
 1862SOL    HW1 6338   1.060   2.899   3.729
 1862SOL    HW2 6339   1.164   2.790   3.792
 1863SOL     OW 6340   1.861   3.431   4.575
 1863SOL    HW1 6341   1.790   3.419   4.505
 1863SOL    HW2 6342   1.862   3.352   4.635
 1864SOL     OW 6343   0.221   3.176   5.568
 1864SOL    HW1 6344   0.156   3.103   5.547
 1864SOL    HW2 6345   0.225   3.190   5.666
 1865SOL     OW 6346   0.079   3.102   4.377
 1865SOL    HW1 6347   0.078   3.055   4.465
 1865SOL    HW2 6348   0.161   3.074   4.326
 1866SOL     OW 6349   0.672   3.253   5.348
 1866SOL    HW1 6350   0.594   3.203   5.386
 1866SOL    HW2 6351   0.669   3.348   5.379
 1867SOL     OW 6352   0.428   2.286   4.244
 1867SOL    HW1 6353   0.458   2.214   4.182
 1867SOL    HW2 6354   0.389   2.246   4.327
 1868SOL     OW 6355   1.705   3.349   4.828
 1868SOL    HW1 6356   1.612   3.324   4.801
 1868SOL    HW2 6357   1.731   3.299   4.910
 1869SOL     OW 6358   0.317   2.409   5.004
 1869SOL    HW1 6359   0.355   2.350   5.076
 1869SOL    HW2 6360   0.357   2.383   4.916
 1870SOL     OW 6361   0.812   3.448   4.411
 1870SOL    HW1 6362   0.844   3.458   4.317
 1870SOL    HW2 6363   0.733   3.386   4.413
 1871SOL     OW 6364   1.001   1.896   4.878
 1871SOL    HW1 6365   0.938   1.824   4.847
 1871SOL    HW2 6366   1.094   1.860   4.878
 1872SOL     OW 6367   0.770   3.192   4.025
 1872SOL    HW1 6368   0.724   3.105   4.042
 1872SOL    HW2 6369   0.861   3.189   4.066
 1873SOL     OW 6370   0.618   3.429   5.008
 1873SOL    HW1 6371   0.613   3.511   5.065
 1873SOL    HW2 6372   0.707   3.426   4.963
 1874SOL     OW 6373   1.352   1.914   3.892
 1874SOL    HW1 6374   1.387   1.873   3.808
 1874SOL    HW2 6375   1.262   1.876   3.912
 1875SOL     OW 6376   1.300   2.315   4.415
 1875SOL    HW1 6377   1.241   2.395   4.419
 1875SOL    HW2 6378   1.315   2.280   4.508
 1876SOL     OW 6379   0.039   2.939   4.024
 1876SOL    HW1 6380   0.138   2.928   4.015
 1876SOL    HW2 6381  -0.001   2.853   4.056
 1877SOL     OW 6382   0.875   3.508   4.061
 1877SOL    HW1 6383   0.798   3.473   4.007
 1877SOL    HW2 6384   0.843   3.579   4.123
 1878SOL     OW 6385   0.230   2.490   5.699
 1878SOL    HW1 6386   0.137   2.488   5.736
 1878SOL    HW2 6387   0.231   2.451   5.607
 1879SOL     OW 6388   0.225   2.137   6.582
 1879SOL    HW1 6389   0.260   2.120   6.674
 1879SOL    HW2 6390   0.137   2.092   6.570
 1880SOL     OW 6391   0.019   2.230   6.233
 1880SOL    HW1 6392  -0.063   2.273   6.272
 1880SOL    HW2 6393  -0.009   2.157   6.170
 1881SOL     OW 6394   0.569   3.137   6.751
 1881SOL    HW1 6395   0.476   3.130   6.714
 1881SOL    HW2 6396   0.580   3.226   6.795
 1882SOL     OW 6397   1.555   3.373   6.289
 1882SOL    HW1 6398   1.498   3.357   6.370
 1882SOL    HW2 6399   1.496   3.383   6.209
 1883SOL     OW 6400   1.135   2.565   6.303
 1883SOL    HW1 6401   1.192   2.643   6.278
 1883SOL    HW2 6402   1.075   2.591   6.379
 1884SOL     OW 6403   1.755   2.469   5.817
 1884SOL    HW1 6404   1.743   2.456   5.718
 1884SOL    HW2 6405   1.725   2.388   5.866
 1885SOL     OW 6406   0.768   3.006   6.609
 1885SOL    HW1 6407   0.690   3.023   6.669
 1885SOL    HW2 6408   0.802   3.093   6.573
 1886SOL     OW 6409   0.850   2.660   7.409
 1886SOL    HW1 6410   0.846   2.736   7.474
 1886SOL    HW2 6411   0.872   2.696   7.318
 1887SOL     OW 6412   0.685   2.874   6.251
 1887SOL    HW1 6413   0.754   2.858   6.321
 1887SOL    HW2 6414   0.612   2.931   6.289
 1888SOL     OW 6415   0.686   3.023   7.389
 1888SOL    HW1 6416   0.746   3.102   7.403
 1888SOL    HW2 6417   0.600   3.054   7.348
 1889SOL     OW 6418   0.335   3.297   6.647
 1889SOL    HW1 6419   0.257   3.266   6.594
 1889SOL    HW2 6420   0.393   3.355   6.590
 1890SOL     OW 6421   1.460   3.367   6.925
 1890SOL    HW1 6422   1.484   3.461   6.951
 1890SOL    HW2 6423   1.444   3.313   7.007
 1891SOL     OW 6424   0.438   2.254   7.085
 1891SOL    HW1 6425   0.520   2.198   7.094
 1891SOL    HW2 6426   0.357   2.196   7.089
 1892SOL     OW 6427   0.231   3.575   6.069
 1892SOL    HW1 6428   0.265   3.652   6.123
 1892SOL    HW2 6429   0.275   3.575   5.979
 1893SOL     OW 6430   1.127   3.203   7.276
 1893SOL    HW1 6431   1.174   3.203   7.364
 1893SOL    HW2 6432   1.079   3.116   7.265
 1894SOL     OW 6433   0.230   3.296   6.124
 1894SOL    HW1 6434   0.204   3.392   6.124
 1894SOL    HW2 6435   0.159   3.242   6.169
 1895SOL     OW 6436   0.240   2.953   6.472
 1895SOL    HW1 6437   0.254   2.869   6.524
 1895SOL    HW2 6438   0.185   3.017   6.527
 1896SOL     OW 6439   0.620   3.648   7.025
 1896SOL    HW1 6440   0.528   3.631   7.060
 1896SOL    HW2 6441   0.648   3.740   7.051
 1897SOL     OW 6442   0.606   2.826   5.709
 1897SOL    HW1 6443   0.613   2.910   5.655
 1897SOL    HW2 6444   0.652   2.839   5.797
 1898SOL     OW 6445   1.594   1.976   7.066
 1898SOL    HW1 6446   1.576   2.043   6.994
 1898SOL    HW2 6447   1.591   2.022   7.155
 1899SOL     OW 6448   0.122   2.505   6.149
 1899SOL    HW1 6449   0.077   2.417   6.166
 1899SOL    HW2 6450   0.121   2.559   6.233
 1900SOL     OW 6451   1.842   3.629   5.945
 1900SOL    HW1 6452   1.896   3.600   6.025
 1900SOL    HW2 6453   1.872   3.719   5.916
 1901SOL     OW 6454   0.027   3.458   5.703
 1901SOL    HW1 6455   0.008   3.362   5.724
 1901SOL    HW2 6456  -0.006   3.516   5.778
 1902SOL     OW 6457   1.641   2.970   6.018
 1902SOL    HW1 6458   1.727   2.972   5.966
 1902SOL    HW2 6459   1.655   3.017   6.106
 1903SOL     OW 6460   0.113   2.599   7.183
 1903SOL    HW1 6461   0.201   2.586   7.228
 1903SOL    HW2 6462   0.100   2.696   7.161
 1904SOL     OW 6463   0.613   3.227   6.312
 1904SOL    HW1 6464   0.564   3.140   6.321
 1904SOL    HW2 6465   0.590   3.270   6.225
 1905SOL     OW 6466   1.293   3.090   7.009
 1905SOL    HW1 6467   1.330   3.017   6.951
 1905SOL    HW2 6468   1.345   3.095   7.094
 1906SOL     OW 6469   0.809   1.866   6.088
 1906SOL    HW1 6470   0.849   1.957   6.079
 1906SOL    HW2 6471   0.709   1.874   6.094
 1907SOL     OW 6472   0.197   2.838   6.850
 1907SOL    HW1 6473   0.286   2.793   6.836
 1907SOL    HW2 6474   0.124   2.773   6.831
 1908SOL     OW 6475   1.525   2.861   5.776
 1908SOL    HW1 6476   1.462   2.785   5.789
 1908SOL    HW2 6477   1.573   2.879   5.862
 1909SOL     OW 6478   1.187   3.654   7.202
 1909SOL    HW1 6479   1.211   3.714   7.126
 1909SOL    HW2 6480   1.194   3.559   7.172
 1910SOL     OW 6481   0.317   2.113   7.387
 1910SOL    HW1 6482   0.388   2.184   7.393
 1910SOL    HW2 6483   0.229   2.152   7.415
 1911SOL     OW 6484   1.466   3.279   6.539
 1911SOL    HW1 6485   1.407   3.285   6.619
 1911SOL    HW2 6486   1.451   3.191   6.493
 1912SOL     OW 6487   1.667   3.576   6.158
 1912SOL    HW1 6488   1.626   3.553   6.070
 1912SOL    HW2 6489   1.649   3.502   6.223
 1913SOL     OW 6490   0.598   2.591   5.856
 1913SOL    HW1 6491   0.622   2.660   5.788
 1913SOL    HW2 6492   0.520   2.624   5.910
 1914SOL     OW 6493   1.281   2.207   6.530
 1914SOL    HW1 6494   1.195   2.157   6.517
 1914SOL    HW2 6495   1.343   2.153   6.586
 1915SOL     OW 6496   1.576   3.524   5.893
 1915SOL    HW1 6497   1.665   3.570   5.896
 1915SOL    HW2 6498   1.555   3.500   5.798
 1916SOL     OW 6499   0.807   2.467   7.051
 1916SOL    HW1 6500   0.760   2.464   7.140
 1916SOL    HW2 6501   0.756   2.412   6.985
 1917SOL     OW 6502   1.394   2.331   7.260
 1917SOL    HW1 6503   1.374   2.374   7.348
 1917SOL    HW2 6504   1.472   2.269   7.269
 1918SOL     OW 6505   0.973   2.752   7.158
 1918SOL    HW1 6506   1.019   2.668   7.129
 1918SOL    HW2 6507   0.917   2.786   7.083
 1919SOL     OW 6508   0.991   2.272   6.828
 1919SOL    HW1 6509   0.914   2.306   6.882
 1919SOL    HW2 6510   0.957   2.221   6.749
 1920SOL     OW 6511   1.041   2.563   6.015
 1920SOL    HW1 6512   1.067   2.559   6.111
 1920SOL    HW2 6513   0.956   2.512   6.001
 1921SOL     OW 6514   0.076   2.673   6.375
 1921SOL    HW1 6515   0.175   2.661   6.384
 1921SOL    HW2 6516   0.052   2.768   6.396
 1922SOL     OW 6517   0.130   3.683   7.157
 1922SOL    HW1 6518   0.120   3.668   7.256
 1922SOL    HW2 6519   0.044   3.719   7.121
 1923SOL     OW 6520   0.865   2.210   5.781
 1923SOL    HW1 6521   0.924   2.273   5.732
 1923SOL    HW2 6522   0.884   2.116   5.752
 1924SOL     OW 6523   1.719   2.447   7.417
 1924SOL    HW1 6524   1.693   2.536   7.381
 1924SOL    HW2 6525   1.717   2.379   7.344
 1925SOL     OW 6526   1.362   3.006   6.131
 1925SOL    HW1 6527   1.445   2.977   6.083
 1925SOL    HW2 6528   1.313   3.073   6.075
 1926SOL     OW 6529   0.550   2.058   6.471
 1926SOL    HW1 6530   0.545   2.053   6.571
 1926SOL    HW2 6531   0.552   2.154   6.442
 1927SOL     OW 6532   1.008   3.318   6.063
 1927SOL    HW1 6533   0.962   3.390   6.011
 1927SOL    HW2 6534   1.004   3.338   6.161
 1928SOL     OW 6535   0.351   3.663   6.439
 1928SOL    HW1 6536   0.401   3.577   6.445
 1928SOL    HW2 6537   0.416   3.740   6.436
 1929SOL     OW 6538   1.795   2.928   6.459
 1929SOL    HW1 6539   1.733   2.913   6.383
 1929SOL    HW2 6540   1.743   2.939   6.544
 1930SOL     OW 6541   1.227   3.412   7.092
 1930SOL    HW1 6542   1.233   3.335   7.156
 1930SOL    HW2 6543   1.175   3.386   7.012
 1931SOL     OW 6544   0.321   2.805   5.828
 1931SOL    HW1 6545   0.403   2.844   5.786
 1931SOL    HW2 6546   0.294   2.723   5.779
 1932SOL     OW 6547   1.458   2.597   6.314
 1932SOL    HW1 6548   1.453   2.532   6.389
 1932SOL    HW2 6549   1.538   2.656   6.327
 1933SOL     OW 6550   0.461   3.128   7.313
 1933SOL    HW1 6551   0.411   3.129   7.227
 1933SOL    HW2 6552   0.398   3.110   7.389
 1934SOL     OW 6553   1.111   3.638   5.823
 1934SOL    HW1 6554   1.051   3.576   5.873
 1934SOL    HW2 6555   1.142   3.594   5.738
 1935SOL     OW 6556   0.202   2.147   7.084
 1935SOL    HW1 6557   0.122   2.207   7.071
 1935SOL    HW2 6558   0.192   2.098   7.170
 1936SOL     OW 6559   1.632   3.239   5.667
 1936SOL    HW1 6560   1.600   3.333   5.657
 1936SOL    HW2 6561   1.556   3.176   5.655
 1937SOL     OW 6562   0.464   3.605   5.909
 1937SOL    HW1 6563   0.497   3.644   5.995
 1937SOL    HW2 6564   0.540   3.598   5.844
 1938SOL     OW 6565   0.249   3.647   6.827
 1938SOL    HW1 6566   0.306   3.582   6.877
 1938SOL    HW2 6567   0.233   3.614   6.734
 1939SOL     OW 6568   0.940   3.560   6.490
 1939SOL    HW1 6569   1.020   3.503   6.511
 1939SOL    HW2 6570   0.891   3.520   6.413
 1940SOL     OW 6571   0.382   2.562   6.066
 1940SOL    HW1 6572   0.427   2.472   6.063
 1940SOL    HW2 6573   0.288   2.551   6.099
 1941SOL     OW 6574   1.547   2.084   7.315
 1941SOL    HW1 6575   1.542   2.121   7.407
 1941SOL    HW2 6576   1.475   2.015   7.303
 1942SOL     OW 6577   0.614   1.984   5.703
 1942SOL    HW1 6578   0.712   1.962   5.710
 1942SOL    HW2 6579   0.583   1.967   5.610
 1943SOL     OW 6580   0.781   2.126   7.335
 1943SOL    HW1 6581   0.848   2.065   7.378
 1943SOL    HW2 6582   0.708   2.145   7.400
 1944SOL     OW 6583   0.888   3.376   6.781
 1944SOL    HW1 6584   0.865   3.351   6.687
 1944SOL    HW2 6585   0.949   3.307   6.820
 1945SOL     OW 6586   1.351   2.452   7.019
 1945SOL    HW1 6587   1.379   2.409   7.104
 1945SOL    HW2 6588   1.376   2.548   7.020
 1946SOL     OW 6589   0.803   3.264   6.510
 1946SOL    HW1 6590   0.893   3.278   6.468
 1946SOL    HW2 6591   0.732   3.266   6.439
 1947SOL     OW 6592   0.922   2.365   6.485
 1947SOL    HW1 6593   0.897   2.356   6.389
 1947SOL    HW2 6594   0.970   2.283   6.516
 1948SOL     OW 6595   0.539   1.926   6.098
 1948SOL    HW1 6596   0.458   1.927   6.156
 1948SOL    HW2 6597   0.542   2.009   6.043
 1949SOL     OW 6598   1.434   3.050   5.627
 1949SOL    HW1 6599   1.466   2.974   5.684
 1949SOL    HW2 6600   1.342   3.077   5.657
 1950SOL     OW 6601   0.297   1.897   5.757
 1950SOL    HW1 6602   0.346   1.981   5.736
 1950SOL    HW2 6603   0.359   1.832   5.802
 1951SOL     OW 6604   0.935   2.098   6.066
 1951SOL    HW1 6605   0.887   2.139   5.988
 1951SOL    HW2 6606   1.034   2.096   6.047
 1952SOL     OW 6607   1.076   2.545   7.050
 1952SOL    HW1 6608   0.996   2.484   7.053
 1952SOL    HW2 6609   1.157   2.492   7.026
 1953SOL     OW 6610   1.227   3.432   6.379
 1953SOL    HW1 6611   1.248   3.506   6.314
 1953SOL    HW2 6612   1.295   3.432   6.452
 1954SOL     OW 6613   0.459   3.014   6.327
 1954SOL    HW1 6614   0.388   2.987   6.392
 1954SOL    HW2 6615   0.433   2.986   6.234
 1955SOL     OW 6616   1.271   3.659   6.177
 1955SOL    HW1 6617   1.315   3.723   6.113
 1955SOL    HW2 6618   1.221   3.711   6.247
 1956SOL     OW 6619   1.032   2.411   5.602
 1956SOL    HW1 6620   0.991   2.493   5.563
 1956SOL    HW2 6621   1.096   2.437   5.675
 1957SOL     OW 6622   0.078   2.418   6.972
 1957SOL    HW1 6623   0.170   2.417   6.931
 1957SOL    HW2 6624   0.072   2.492   7.039
 1958SOL     OW 6625   0.561   2.084   6.733
 1958SOL    HW1 6626   0.599   2.000   6.770
 1958SOL    HW2 6627   0.473   2.103   6.777
 1959SOL     OW 6628   0.866   2.316   6.228
 1959SOL    HW1 6629   0.834   2.388   6.166
 1959SOL    HW2 6630   0.890   2.235   6.175
 1960SOL     OW 6631   1.017   1.901   6.339
 1960SOL    HW1 6632   0.945   1.906   6.270
 1960SOL    HW2 6633   0.993   1.832   6.408
 1961SOL     OW 6634   1.429   3.035   6.453
 1961SOL    HW1 6635   1.374   2.951   6.446
 1961SOL    HW2 6636   1.455   3.064   6.361
 1962SOL     OW 6637   1.466   2.452   6.578
 1962SOL    HW1 6638   1.436   2.357   6.585
 1962SOL    HW2 6639   1.539   2.468   6.644
 1963SOL     OW 6640   0.488   3.247   5.760
 1963SOL    HW1 6641   0.401   3.232   5.807
 1963SOL    HW2 6642   0.471   3.273   5.665
 1964SOL     OW 6643   1.664   3.142   6.243
 1964SOL    HW1 6644   1.763   3.150   6.257
 1964SOL    HW2 6645   1.619   3.226   6.274
 1965SOL     OW 6646   1.390   2.437   5.664
 1965SOL    HW1 6647   1.336   2.416   5.745
 1965SOL    HW2 6648   1.481   2.396   5.673
 1966SOL     OW 6649   0.527   2.118   5.914
 1966SOL    HW1 6650   0.554   2.059   5.839
 1966SOL    HW2 6651   0.527   2.213   5.883
 1967SOL     OW 6652   1.754   3.085   7.174
 1967SOL    HW1 6653   1.845   3.046   7.161
 1967SOL    HW2 6654   1.762   3.181   7.198
 1968SOL     OW 6655   1.064   3.209   6.926
 1968SOL    HW1 6656   0.984   3.186   6.981
 1968SOL    HW2 6657   1.147   3.183   6.975
 1969SOL     OW 6658   1.592   3.491   7.211
 1969SOL    HW1 6659   1.619   3.525   7.121
 1969SOL    HW2 6660   1.671   3.453   7.257
 1970SOL     OW 6661   1.111   3.057   6.686
 1970SOL    HW1 6662   1.071   3.101   6.767
 1970SOL    HW2 6663   1.070   3.094   6.603
 1971SOL     OW 6664   1.638   2.961   6.665
 1971SOL    HW1 6665   1.643   3.042   6.724
 1971SOL    HW2 6666   1.552   2.963   6.614
 1972SOL     OW 6667   0.915   1.951   6.988
 1972SOL    HW1 6668   0.940   1.931   6.893
 1972SOL    HW2 6669   0.987   2.007   7.030
 1973SOL     OW 6670   0.980   2.978   7.305
 1973SOL    HW1 6671   0.881   2.984   7.315
 1973SOL    HW2 6672   1.003   2.898   7.249
 1974SOL     OW 6673   0.705   2.912   5.954
 1974SOL    HW1 6674   0.691   2.919   6.053
 1974SOL    HW2 6675   0.789   2.861   5.936
 1975SOL     OW 6676   0.410   2.675   6.837
 1975SOL    HW1 6677   0.496   2.687   6.887
 1975SOL    HW2 6678   0.368   2.588   6.864
 1976SOL     OW 6679   1.274   2.248   6.848
 1976SOL    HW1 6680   1.295   2.322   6.912
 1976SOL    HW2 6681   1.185   2.265   6.805
 1977SOL     OW 6682   0.064   3.426   6.917
 1977SOL    HW1 6683   0.018   3.508   6.883
 1977SOL    HW2 6684   0.162   3.445   6.926
 1978SOL     OW 6685   0.367   2.962   6.087
 1978SOL    HW1 6686   0.360   3.045   6.031
 1978SOL    HW2 6687   0.371   2.882   6.027
 1979SOL     OW 6688   0.566   2.399   6.451
 1979SOL    HW1 6689   0.578   2.465   6.377
 1979SOL    HW2 6690   0.612   2.433   6.534
 1980SOL     OW 6691   1.252   3.210   5.974
 1980SOL    HW1 6692   1.302   3.287   6.014
 1980SOL    HW2 6693   1.157   3.212   6.006
 1981SOL     OW 6694   1.272   3.307   6.728
 1981SOL    HW1 6695   1.319   3.320   6.815
 1981SOL    HW2 6696   1.206   3.233   6.737
 1982SOL     OW 6697   0.354   3.372   6.915
 1982SOL    HW1 6698   0.333   3.328   6.828
 1982SOL    HW2 6699   0.451   3.398   6.918
 1983SOL     OW 6700   0.402   2.613   7.184
 1983SOL    HW1 6701   0.470   2.668   7.137
 1983SOL    HW2 6702   0.442   2.525   7.211
 1984SOL     OW 6703   1.587   2.641   7.256
 1984SOL    HW1 6704   1.495   2.679   7.251
 1984SOL    HW2 6705   1.647   2.688   7.191
 1985SOL     OW 6706   1.013   1.967   7.356
 1985SOL    HW1 6707   1.019   2.052   7.304
 1985SOL    HW2 6708   1.045   1.891   7.299
 1986SOL     OW 6709   0.504   1.912   7.326
 1986SOL    HW1 6710   0.462   1.855   7.256
 1986SOL    HW2 6711   0.438   1.981   7.358
 1987SOL     OW 6712   0.573   2.732   6.615
 1987SOL    HW1 6713   0.617   2.821   6.606
 1987SOL    HW2 6714   0.510   2.732   6.692
 1988SOL     OW 6715   1.360   2.724   6.631
 1988SOL    HW1 6716   1.285   2.724   6.565
 1988SOL    HW2 6717   1.397   2.632   6.640
 1989SOL     OW 6718   1.209   2.387   5.861
 1989SOL    HW1 6719   1.222   2.303   5.915
 1989SOL    HW2 6720   1.180   2.461   5.921
 1990SOL     OW 6721   0.307   2.075   6.817
 1990SOL    HW1 6722   0.284   2.112   6.907
 1990SOL    HW2 6723   0.277   1.980   6.811
 1991SOL     OW 6724   0.037   3.172   6.868
 1991SOL    HW1 6725   0.090   3.123   6.936
 1991SOL    HW2 6726   0.059   3.270   6.873
 1992SOL     OW 6727   0.732   2.496   6.650
 1992SOL    HW1 6728   0.791   2.470   6.574
 1992SOL    HW2 6729   0.704   2.592   6.639
 1993SOL     OW 6730   1.728   2.797   7.440
 1993SOL    HW1 6731   1.682   2.790   7.351
 1993SOL    HW2 6732   1.666   2.841   7.506
 1994SOL     OW 6733   0.307   1.925   6.204
 1994SOL    HW1 6734   0.296   2.019   6.237
 1994SOL    HW2 6735   0.302   1.862   6.281
 1995SOL     OW 6736   1.023   2.628   6.552
 1995SOL    HW1 6737   1.038   2.649   6.648
 1995SOL    HW2 6738   0.993   2.533   6.543
 1996SOL     OW 6739   0.980   3.435   7.286
 1996SOL    HW1 6740   0.960   3.479   7.198
 1996SOL    HW2 6741   1.019   3.344   7.270
 1997SOL     OW 6742   1.859   3.380   7.191
 1997SOL    HW1 6743   1.873   3.407   7.096
 1997SOL    HW2 6744   1.942   3.402   7.244
 1998SOL     OW 6745   0.350   2.760   7.390
 1998SOL    HW1 6746   0.426   2.804   7.438
 1998SOL    HW2 6747   0.385   2.713   7.308
 1999SOL     OW 6748   1.303   2.700   5.628
 1999SOL    HW1 6749   1.337   2.607   5.643
 1999SOL    HW2 6750   1.321   2.727   5.533
 2000SOL     OW 6751   1.068   3.195   6.435
 2000SOL    HW1 6752   1.075   3.111   6.380
 2000SOL    HW2 6753   1.130   3.264   6.399
 2001SOL     OW 6754   0.319   2.672   6.535
 2001SOL    HW1 6755   0.412   2.708   6.540
 2001SOL    HW2 6756   0.313   2.587   6.587
 2002SOL     OW 6757   0.339   2.371   6.592
 2002SOL    HW1 6758   0.287   2.288   6.575
 2002SOL    HW2 6759   0.416   2.376   6.528
 2003SOL     OW 6760   1.138   2.242   7.264
 2003SOL    HW1 6761   1.093   2.305   7.328
 2003SOL    HW2 6762   1.231   2.273   7.247
 2004SOL     OW 6763   1.160   2.069   7.063
 2004SOL    HW1 6764   1.160   2.133   7.140
 2004SOL    HW2 6765   1.188   2.117   6.980
 2005SOL     OW 6766   0.008   3.188   5.786
 2005SOL    HW1 6767  -0.085   3.209   5.755
 2005SOL    HW2 6768   0.018   3.089   5.799
 2006SOL     OW 6769   0.088   3.663   6.513
 2006SOL    HW1 6770   0.046   3.577   6.486
 2006SOL    HW2 6771   0.182   3.666   6.479
 2007SOL     OW 6772   0.504   3.430   6.496
 2007SOL    HW1 6773   0.570   3.504   6.505
 2007SOL    HW2 6774   0.548   3.351   6.454
 2008SOL     OW 6775   1.002   2.658   6.824
 2008SOL    HW1 6776   1.043   2.626   6.910
 2008SOL    HW2 6777   0.906   2.631   6.821
 2009SOL     OW 6778   0.040   2.406   6.700
 2009SOL    HW1 6779   0.125   2.373   6.659
 2009SOL    HW2 6780   0.053   2.421   6.798
 2010SOL     OW 6781   0.189   2.382   7.308
 2010SOL    HW1 6782   0.248   2.342   7.238
 2010SOL    HW2 6783   0.131   2.453   7.267
 2011SOL     OW 6784   1.369   2.812   7.246
 2011SOL    HW1 6785   1.408   2.901   7.266
 2011SOL    HW2 6786   1.379   2.792   7.149
 2012SOL     OW 6787   0.815   2.434   5.911
 2012SOL    HW1 6788   0.822   2.345   5.865
 2012SOL    HW2 6789   0.721   2.468   5.903
 2013SOL     OW 6790   1.657   2.466   6.792
 2013SOL    HW1 6791   1.619   2.397   6.854
 2013SOL    HW2 6792   1.739   2.430   6.748
 2014SOL     OW 6793   0.252   3.426   7.330
 2014SOL    HW1 6794   0.222   3.483   7.406
 2014SOL    HW2 6795   0.245   3.329   7.356
 2015SOL     OW 6796   0.671   2.326   6.855
 2015SOL    HW1 6797   0.637   2.237   6.825
 2015SOL    HW2 6798   0.697   2.380   6.775
 2016SOL     OW 6799   0.930   3.540   7.051
 2016SOL    HW1 6800   0.906   3.522   6.956
 2016SOL    HW2 6801   0.960   3.634   7.061
 2017SOL     OW 6802   0.473   2.362   5.777
 2017SOL    HW1 6803   0.534   2.442   5.781
 2017SOL    HW2 6804   0.378   2.393   5.784
 2018SOL     OW 6805   0.159   2.999   7.052
 2018SOL    HW1 6806   0.181   2.938   7.128
 2018SOL    HW2 6807   0.169   2.950   6.966
 2019SOL     OW 6808   1.347   2.921   6.820
 2019SOL    HW1 6809   1.371   2.858   6.746
 2019SOL    HW2 6810   1.257   2.961   6.802
 2020SOL     OW 6811   1.302   2.717   5.895
 2020SOL    HW1 6812   1.216   2.686   5.937
 2020SOL    HW2 6813   1.298   2.703   5.796
 2021SOL     OW 6814   1.759   3.609   6.740
 2021SOL    HW1 6815   1.820   3.639   6.667
 2021SOL    HW2 6816   1.721   3.520   6.718
 2022SOL     OW 6817   1.252   3.593   6.714
 2022SOL    HW1 6818   1.336   3.598   6.660
 2022SOL    HW2 6819   1.229   3.497   6.732
 2023SOL     OW 6820   0.083   3.120   6.608
 2023SOL    HW1 6821   0.078   3.119   6.708
 2023SOL    HW2 6822   0.000   3.079   6.570
 2024SOL     OW 6823   0.688   3.524   7.302
 2024SOL    HW1 6824   0.632   3.605   7.311
 2024SOL    HW2 6825   0.740   3.528   7.216
 2025SOL     OW 6826   1.388   3.435   6.063
 2025SOL    HW1 6827   1.455   3.447   5.989
 2025SOL    HW2 6828   1.348   3.524   6.086
 2026SOL     OW 6829   0.130   3.656   7.437
 2026SOL    HW1 6830   0.089   3.582   7.490
 2026SOL    HW2 6831   0.194   3.707   7.495
 2027SOL     OW 6832   1.280   2.789   6.258
 2027SOL    HW1 6833   1.340   2.708   6.260
 2027SOL    HW2 6834   1.320   2.858   6.198
 2028SOL     OW 6835   0.830   3.135   7.008
 2028SOL    HW1 6836   0.825   3.168   7.103
 2028SOL    HW2 6837   0.744   3.154   6.962
 2029SOL     OW 6838   0.672   3.478   5.740
 2029SOL    HW1 6839   0.681   3.488   5.641
 2029SOL    HW2 6840   0.632   3.389   5.761
 2030SOL     OW 6841   1.650   3.582   6.980
 2030SOL    HW1 6842   1.703   3.592   6.896
 2030SOL    HW2 6843   1.623   3.672   7.014
 2031SOL     OW 6844   0.263   2.188   6.306
 2031SOL    HW1 6845   0.184   2.239   6.272
 2031SOL    HW2 6846   0.254   2.173   6.404
 2032SOL     OW 6847   1.194   3.474   5.617
 2032SOL    HW1 6848   1.200   3.381   5.654
 2032SOL    HW2 6849   1.135   3.474   5.537
 2033SOL     OW 6850   0.822   2.864   6.958
 2033SOL    HW1 6851   0.862   2.863   6.866
 2033SOL    HW2 6852   0.832   2.956   6.998
 2034SOL     OW 6853   0.916   2.772   5.877
 2034SOL    HW1 6854   0.979   2.810   5.809
 2034SOL    HW2 6855   0.956   2.689   5.916
 2035SOL     OW 6856   1.504   3.469   5.630
 2035SOL    HW1 6857   1.412   3.506   5.637
 2035SOL    HW2 6858   1.542   3.489   5.540
 2036SOL     OW 6859   0.372   3.150   7.076
 2036SOL    HW1 6860   0.359   3.243   7.042
 2036SOL    HW2 6861   0.288   3.098   7.063
 2037SOL     OW 6862   1.614   3.154   6.875
 2037SOL    HW1 6863   1.674   3.157   6.955
 2037SOL    HW2 6864   1.539   3.218   6.888
 2038SOL     OW 6865   1.039   2.960   6.282
 2038SOL    HW1 6866   0.969   2.913   6.336
 2038SOL    HW2 6867   1.098   2.892   6.239
 2039SOL     OW 6868   1.014   2.098   6.557
 2039SOL    HW1 6869   1.006   2.062   6.464
 2039SOL    HW2 6870   1.012   2.022   6.622
 2040SOL     OW 6871   0.590   3.349   6.077
 2040SOL    HW1 6872   0.632   3.291   6.007
 2040SOL    HW2 6873   0.546   3.428   6.033
 2041SOL     OW 6874   1.709   2.247   6.967
 2041SOL    HW1 6875   1.782   2.316   6.971
 2041SOL    HW2 6876   1.737   2.172   6.908
 2042SOL     OW 6877   0.255   3.210   5.876
 2042SOL    HW1 6878   0.159   3.211   5.849
 2042SOL    HW2 6879   0.267   3.263   5.960
 2043SOL     OW 6880   0.105   2.875   7.312
 2043SOL    HW1 6881   0.028   2.842   7.366
 2043SOL    HW2 6882   0.190   2.845   7.354
 2044SOL     OW 6883   0.672   2.065   7.075
 2044SOL    HW1 6884   0.762   2.049   7.035
 2044SOL    HW2 6885   0.680   2.070   7.174
 2045SOL     OW 6886   0.075   2.207   5.619
 2045SOL    HW1 6887  -0.017   2.179   5.590
 2045SOL    HW2 6888   0.106   2.284   5.563
 2046SOL     OW 6889   1.440   2.718   6.984
 2046SOL    HW1 6890   1.383   2.770   6.921
 2046SOL    HW2 6891   1.536   2.730   6.960
 2047SOL     OW 6892   0.072   2.028   5.904
 2047SOL    HW1 6893   0.055   2.111   5.850
 2047SOL    HW2 6894   0.162   1.991   5.882
 2048SOL     OW 6895   1.183   3.197   5.705
 2048SOL    HW1 6896   1.084   3.186   5.707
 2048SOL    HW2 6897   1.217   3.212   5.798
 2049SOL     OW 6898   0.613   2.704   7.017
 2049SOL    HW1 6899   0.669   2.785   7.000
 2049SOL    HW2 6900   0.672   2.624   7.020
 2050SOL     OW 6901   1.493   3.629   6.545
 2050SOL    HW1 6902   1.526   3.693   6.476
 2050SOL    HW2 6903   1.559   3.623   6.620
 2051SOL     OW 6904   0.716   2.427   7.294
 2051SOL    HW1 6905   0.735   2.492   7.368
 2051SOL    HW2 6906   0.776   2.347   7.303
 2052SOL     OW 6907   1.450   3.082   7.219
 2052SOL    HW1 6908   1.441   3.072   7.318
 2052SOL    HW2 6909   1.546   3.075   7.193
 2053SOL     OW 6910   0.390   3.603   7.146
 2053SOL    HW1 6911   0.299   3.644   7.144
 2053SOL    HW2 6912   0.383   3.509   7.178
 2054SOL     OW 6913   1.674   2.745   6.840
 2054SOL    HW1 6914   1.647   2.656   6.803
 2054SOL    HW2 6915   1.675   2.813   6.767
 2055SOL     OW 6916   1.225   2.187   6.035
 2055SOL    HW1 6917   1.290   2.113   6.024
 2055SOL    HW2 6918   1.245   2.237   6.119
 2056SOL     OW 6919   0.594   2.607   6.238
 2056SOL    HW1 6920   0.644   2.692   6.219
 2056SOL    HW2 6921   0.506   2.609   6.190
 2057SOL     OW 6922   1.777   2.204   7.228
 2057SOL    HW1 6923   1.760   2.235   7.134
 2057SOL    HW2 6924   1.693   2.167   7.266
 2058SOL     OW 6925   1.730   2.796   7.103
 2058SOL    HW1 6926   1.768   2.887   7.118
 2058SOL    HW2 6927   1.722   2.779   7.004
 2059SOL     OW 6928   0.859   3.236   5.602
 2059SOL    HW1 6929   0.813   3.251   5.690
 2059SOL    HW2 6930   0.903   3.321   5.572
 2060SOL     OW 6931   0.661   3.652   6.539
 2060SOL    HW1 6932   0.615   3.740   6.526
 2060SOL    HW2 6933   0.760   3.664   6.532
 2061SOL     OW 6934   0.859   2.818   6.447
 2061SOL    HW1 6935   0.913   2.749   6.495
 2061SOL    HW2 6936   0.827   2.887   6.513
 2062SOL     OW 6937   1.083   2.846   5.673
 2062SOL    HW1 6938   1.060   2.899   5.591
 2062SOL    HW2 6939   1.164   2.790   5.654
 2063SOL     OW 6940   1.861   3.431   6.437
 2063SOL    HW1 6941   1.790   3.419   6.367
 2063SOL    HW2 6942   1.862   3.352   6.497
 2064SOL     OW 6943   0.221   3.176   7.430
 2064SOL    HW1 6944   0.156   3.103   7.409
 2064SOL    HW2 6945   0.225   3.190   7.528
 2065SOL     OW 6946   0.079   3.102   6.239
 2065SOL    HW1 6947   0.078   3.055   6.327
 2065SOL    HW2 6948   0.161   3.074   6.188
 2066SOL     OW 6949   0.672   3.253   7.210
 2066SOL    HW1 6950   0.594   3.203   7.248
 2066SOL    HW2 6951   0.669   3.348   7.241
 2067SOL     OW 6952   1.824   2.054   6.813
 2067SOL    HW1 6953   1.820   1.964   6.857
 2067SOL    HW2 6954   1.827   2.043   6.714
 2068SOL     OW 6955   0.428   2.286   6.106
 2068SOL    HW1 6956   0.458   2.214   6.044
 2068SOL    HW2 6957   0.389   2.246   6.189
 2069SOL     OW 6958   1.705   3.349   6.690
 2069SOL    HW1 6959   1.612   3.324   6.663
 2069SOL    HW2 6960   1.731   3.299   6.772
 2070SOL     OW 6961   0.317   2.409   6.866
 2070SOL    HW1 6962   0.355   2.350   6.938
 2070SOL    HW2 6963   0.357   2.383   6.778
 2071SOL     OW 6964   0.812   3.448   6.273
 2071SOL    HW1 6965   0.844   3.458   6.179
 2071SOL    HW2 6966   0.733   3.386   6.275
 2072SOL     OW 6967   1.424   2.076   6.698
 2072SOL    HW1 6968   1.476   2.011   6.753
 2072SOL    HW2 6969   1.375   2.139   6.759
 2073SOL     OW 6970   1.001   1.896   6.740
 2073SOL    HW1 6971   0.938   1.824   6.709
 2073SOL    HW2 6972   1.094   1.860   6.740
 2074SOL     OW 6973   0.770   3.192   5.887
 2074SOL    HW1 6974   0.724   3.105   5.904
 2074SOL    HW2 6975   0.861   3.189   5.928
 2075SOL     OW 6976   0.618   3.429   6.870
 2075SOL    HW1 6977   0.613   3.511   6.927
 2075SOL    HW2 6978   0.707   3.426   6.825
 2076SOL     OW 6979   1.352   1.914   5.754
 2076SOL    HW1 6980   1.387   1.873   5.670
 2076SOL    HW2 6981   1.262   1.876   5.774
 2077SOL     OW 6982   1.300   2.315   6.277
 2077SOL    HW1 6983   1.241   2.395   6.281
 2077SOL    HW2 6984   1.315   2.280   6.370
 2078SOL     OW 6985   0.039   2.939   5.886
 2078SOL    HW1 6986   0.138   2.928   5.877
 2078SOL    HW2 6987  -0.001   2.853   5.918
 2079SOL     OW 6988   0.875   3.508   5.923
 2079SOL    HW1 6989   0.798   3.473   5.869
 2079SOL    HW2 6990   0.843   3.579   5.985
 2080SOL     OW 6991   0.230   2.490   7.561
 2080SOL    HW1 6992   0.137   2.488   7.598
 2080SOL    HW2 6993   0.231   2.451   7.469
 2081SOL     OW 6994   0.225   2.137   8.444
 2081SOL    HW1 6995   0.260   2.120   8.536
 2081SOL    HW2 6996   0.137   2.092   8.432
 2082SOL     OW 6997   0.019   2.230   8.095
 2082SOL    HW1 6998  -0.063   2.273   8.134
 2082SOL    HW2 6999  -0.009   2.157   8.032
 2083SOL     OW 7000   0.569   3.137   8.613
 2083SOL    HW1 7001   0.476   3.130   8.576
 2083SOL    HW2 7002   0.580   3.226   8.657
 2084SOL     OW 7003   1.555   3.373   8.151
 2084SOL    HW1 7004   1.498   3.357   8.232
 2084SOL    HW2 7005   1.496   3.383   8.071
 2085SOL     OW 7006   1.135   2.565   8.165
 2085SOL    HW1 7007   1.192   2.643   8.140
 2085SOL    HW2 7008   1.075   2.591   8.241
 2086SOL     OW 7009   1.755   2.469   7.679
 2086SOL    HW1 7010   1.743   2.456   7.580
 2086SOL    HW2 7011   1.725   2.388   7.728
 2087SOL     OW 7012   0.768   3.006   8.471
 2087SOL    HW1 7013   0.690   3.023   8.531
 2087SOL    HW2 7014   0.802   3.093   8.435
 2088SOL     OW 7015   0.850   2.660   9.271
 2088SOL    HW1 7016   0.846   2.736   9.336
 2088SOL    HW2 7017   0.872   2.696   9.180
 2089SOL     OW 7018   0.685   2.874   8.113
 2089SOL    HW1 7019   0.754   2.858   8.183
 2089SOL    HW2 7020   0.612   2.931   8.151
 2090SOL     OW 7021   0.686   3.023   9.251
 2090SOL    HW1 7022   0.746   3.102   9.265
 2090SOL    HW2 7023   0.600   3.054   9.210
 2091SOL     OW 7024   0.335   3.297   8.509
 2091SOL    HW1 7025   0.257   3.266   8.456
 2091SOL    HW2 7026   0.393   3.355   8.452
 2092SOL     OW 7027   1.460   3.367   8.787
 2092SOL    HW1 7028   1.484   3.461   8.813
 2092SOL    HW2 7029   1.444   3.313   8.869
 2093SOL     OW 7030   0.438   2.254   8.947
 2093SOL    HW1 7031   0.520   2.198   8.956
 2093SOL    HW2 7032   0.357   2.196   8.951
 2094SOL     OW 7033   1.603   2.309   8.185
 2094SOL    HW1 7034   1.529   2.355   8.135
 2094SOL    HW2 7035   1.654   2.377   8.238
 2095SOL     OW 7036   0.231   3.575   7.931
 2095SOL    HW1 7037   0.265   3.652   7.985
 2095SOL    HW2 7038   0.275   3.575   7.841
 2096SOL     OW 7039   1.127   3.203   9.138
 2096SOL    HW1 7040   1.174   3.203   9.226
 2096SOL    HW2 7041   1.079   3.116   9.127
 2097SOL     OW 7042   0.230   3.296   7.986
 2097SOL    HW1 7043   0.204   3.392   7.986
 2097SOL    HW2 7044   0.159   3.242   8.031
 2098SOL     OW 7045   0.240   2.953   8.334
 2098SOL    HW1 7046   0.254   2.869   8.386
 2098SOL    HW2 7047   0.185   3.017   8.389
 2099SOL     OW 7048   0.620   3.648   8.887
 2099SOL    HW1 7049   0.528   3.631   8.922
 2099SOL    HW2 7050   0.648   3.740   8.913
 2100SOL     OW 7051   0.606   2.826   7.571
 2100SOL    HW1 7052   0.613   2.910   7.517
 2100SOL    HW2 7053   0.652   2.839   7.659
 2101SOL     OW 7054   1.594   1.976   8.928
 2101SOL    HW1 7055   1.576   2.043   8.856
 2101SOL    HW2 7056   1.591   2.022   9.017
 2102SOL     OW 7057   0.122   2.505   8.011
 2102SOL    HW1 7058   0.077   2.417   8.028
 2102SOL    HW2 7059   0.121   2.559   8.095
 2103SOL     OW 7060   1.842   3.629   7.807
 2103SOL    HW1 7061   1.896   3.600   7.887
 2103SOL    HW2 7062   1.872   3.719   7.778
 2104SOL     OW 7063   0.027   3.458   7.565
 2104SOL    HW1 7064   0.008   3.362   7.586
 2104SOL    HW2 7065  -0.006   3.516   7.640
 2105SOL     OW 7066   1.689   2.784   8.060
 2105SOL    HW1 7067   1.784   2.755   8.068
 2105SOL    HW2 7068   1.681   2.849   7.985
 2106SOL     OW 7069   1.641   2.970   7.880
 2106SOL    HW1 7070   1.727   2.972   7.828
 2106SOL    HW2 7071   1.655   3.017   7.968
 2107SOL     OW 7072   0.113   2.599   9.045
 2107SOL    HW1 7073   0.201   2.586   9.090
 2107SOL    HW2 7074   0.100   2.696   9.023
 2108SOL     OW 7075   0.613   3.227   8.174
 2108SOL    HW1 7076   0.564   3.140   8.183
 2108SOL    HW2 7077   0.590   3.270   8.087
 2109SOL     OW 7078   1.293   3.090   8.871
 2109SOL    HW1 7079   1.330   3.017   8.813
 2109SOL    HW2 7080   1.345   3.095   8.956
 2110SOL     OW 7081   0.809   1.866   7.950
 2110SOL    HW1 7082   0.849   1.957   7.941
 2110SOL    HW2 7083   0.709   1.874   7.956
 2111SOL     OW 7084   0.197   2.838   8.712
 2111SOL    HW1 7085   0.286   2.793   8.698
 2111SOL    HW2 7086   0.124   2.773   8.693
 2112SOL     OW 7087   1.525   2.861   7.638
 2112SOL    HW1 7088   1.462   2.785   7.651
 2112SOL    HW2 7089   1.573   2.879   7.724
 2113SOL     OW 7090   1.187   3.654   9.064
 2113SOL    HW1 7091   1.211   3.714   8.988
 2113SOL    HW2 7092   1.194   3.559   9.034
 2114SOL     OW 7093   0.317   2.113   9.249
 2114SOL    HW1 7094   0.388   2.184   9.255
 2114SOL    HW2 7095   0.229   2.152   9.277
 2115SOL     OW 7096   1.466   3.279   8.401
 2115SOL    HW1 7097   1.407   3.285   8.481
 2115SOL    HW2 7098   1.451   3.191   8.355
 2116SOL     OW 7099   1.667   3.576   8.020
 2116SOL    HW1 7100   1.626   3.553   7.932
 2116SOL    HW2 7101   1.649   3.502   8.085
 2117SOL     OW 7102   0.598   2.591   7.718
 2117SOL    HW1 7103   0.622   2.660   7.650
 2117SOL    HW2 7104   0.520   2.624   7.772
 2118SOL     OW 7105   1.281   2.207   8.392
 2118SOL    HW1 7106   1.195   2.157   8.379
 2118SOL    HW2 7107   1.343   2.153   8.448
 2119SOL     OW 7108   1.576   3.524   7.755
 2119SOL    HW1 7109   1.665   3.570   7.758
 2119SOL    HW2 7110   1.555   3.500   7.660
 2120SOL     OW 7111   0.807   2.467   8.913
 2120SOL    HW1 7112   0.760   2.464   9.002
 2120SOL    HW2 7113   0.756   2.412   8.847
 2121SOL     OW 7114   1.394   2.331   9.122
 2121SOL    HW1 7115   1.374   2.374   9.210
 2121SOL    HW2 7116   1.472   2.269   9.131
 2122SOL     OW 7117   0.973   2.752   9.020
 2122SOL    HW1 7118   1.019   2.668   8.991
 2122SOL    HW2 7119   0.917   2.786   8.945
 2123SOL     OW 7120   0.991   2.272   8.690
 2123SOL    HW1 7121   0.914   2.306   8.744
 2123SOL    HW2 7122   0.957   2.221   8.611
 2124SOL     OW 7123   1.041   2.563   7.877
 2124SOL    HW1 7124   1.067   2.559   7.973
 2124SOL    HW2 7125   0.956   2.512   7.863
 2125SOL     OW 7126   0.076   2.673   8.237
 2125SOL    HW1 7127   0.175   2.661   8.246
 2125SOL    HW2 7128   0.052   2.768   8.258
 2126SOL     OW 7129   0.130   3.683   9.019
 2126SOL    HW1 7130   0.120   3.668   9.118
 2126SOL    HW2 7131   0.044   3.719   8.983
 2127SOL     OW 7132   0.865   2.210   7.643
 2127SOL    HW1 7133   0.924   2.273   7.594
 2127SOL    HW2 7134   0.884   2.116   7.614
 2128SOL     OW 7135   1.719   2.447   9.279
 2128SOL    HW1 7136   1.693   2.536   9.243
 2128SOL    HW2 7137   1.717   2.379   9.206
 2129SOL     OW 7138   1.362   3.006   7.993
 2129SOL    HW1 7139   1.445   2.977   7.945
 2129SOL    HW2 7140   1.313   3.073   7.937
 2130SOL     OW 7141   0.550   2.058   8.333
 2130SOL    HW1 7142   0.545   2.053   8.433
 2130SOL    HW2 7143   0.552   2.154   8.304
 2131SOL     OW 7144   1.008   3.318   7.925
 2131SOL    HW1 7145   0.962   3.390   7.873
 2131SOL    HW2 7146   1.004   3.338   8.023
 2132SOL     OW 7147   0.351   3.663   8.301
 2132SOL    HW1 7148   0.401   3.577   8.307
 2132SOL    HW2 7149   0.416   3.740   8.298
 2133SOL     OW 7150   1.795   2.928   8.321
 2133SOL    HW1 7151   1.733   2.913   8.245
 2133SOL    HW2 7152   1.743   2.939   8.406
 2134SOL     OW 7153   1.227   3.412   8.954
 2134SOL    HW1 7154   1.233   3.335   9.018
 2134SOL    HW2 7155   1.175   3.386   8.874
 2135SOL     OW 7156   0.321   2.805   7.690
 2135SOL    HW1 7157   0.403   2.844   7.648
 2135SOL    HW2 7158   0.294   2.723   7.641
 2136SOL     OW 7159   1.458   2.597   8.176
 2136SOL    HW1 7160   1.453   2.532   8.251
 2136SOL    HW2 7161   1.538   2.656   8.189
 2137SOL     OW 7162   0.461   3.128   9.175
 2137SOL    HW1 7163   0.411   3.129   9.089
 2137SOL    HW2 7164   0.398   3.110   9.251
 2138SOL     OW 7165   1.111   3.638   7.685
 2138SOL    HW1 7166   1.051   3.576   7.735
 2138SOL    HW2 7167   1.142   3.594   7.600
 2139SOL     OW 7168   0.202   2.147   8.946
 2139SOL    HW1 7169   0.122   2.207   8.933
 2139SOL    HW2 7170   0.192   2.098   9.032
 2140SOL     OW 7171   1.632   3.239   7.529
 2140SOL    HW1 7172   1.600   3.333   7.519
 2140SOL    HW2 7173   1.556   3.176   7.517
 2141SOL     OW 7174   0.464   3.605   7.771
 2141SOL    HW1 7175   0.497   3.644   7.857
 2141SOL    HW2 7176   0.540   3.598   7.706
 2142SOL     OW 7177   1.400   1.969   7.874
 2142SOL    HW1 7178   1.376   1.932   7.784
 2142SOL    HW2 7179   1.499   1.985   7.878
 2143SOL     OW 7180   0.249   3.647   8.689
 2143SOL    HW1 7181   0.306   3.582   8.739
 2143SOL    HW2 7182   0.233   3.614   8.596
 2144SOL     OW 7183   0.940   3.560   8.352
 2144SOL    HW1 7184   1.020   3.503   8.373
 2144SOL    HW2 7185   0.891   3.520   8.275
 2145SOL     OW 7186   0.382   2.562   7.928
 2145SOL    HW1 7187   0.427   2.472   7.925
 2145SOL    HW2 7188   0.288   2.551   7.961
 2146SOL     OW 7189   1.547   2.084   9.177
 2146SOL    HW1 7190   1.542   2.121   9.269
 2146SOL    HW2 7191   1.475   2.015   9.165
 2147SOL     OW 7192   0.614   1.984   7.565
 2147SOL    HW1 7193   0.712   1.962   7.572
 2147SOL    HW2 7194   0.583   1.967   7.472
 2148SOL     OW 7195   0.781   2.126   9.197
 2148SOL    HW1 7196   0.848   2.065   9.240
 2148SOL    HW2 7197   0.708   2.145   9.262
 2149SOL     OW 7198   0.888   3.376   8.643
 2149SOL    HW1 7199   0.865   3.351   8.549
 2149SOL    HW2 7200   0.949   3.307   8.682
 2150SOL     OW 7201   1.351   2.452   8.881
 2150SOL    HW1 7202   1.379   2.409   8.966
 2150SOL    HW2 7203   1.376   2.548   8.882
 2151SOL     OW 7204   0.803   3.264   8.372
 2151SOL    HW1 7205   0.893   3.278   8.330
 2151SOL    HW2 7206   0.732   3.266   8.301
 2152SOL     OW 7207   0.922   2.365   8.347
 2152SOL    HW1 7208   0.897   2.356   8.251
 2152SOL    HW2 7209   0.970   2.283   8.378
 2153SOL     OW 7210   0.539   1.926   7.960
 2153SOL    HW1 7211   0.458   1.927   8.018
 2153SOL    HW2 7212   0.542   2.009   7.905
 2154SOL     OW 7213   1.434   3.050   7.489
 2154SOL    HW1 7214   1.466   2.974   7.546
 2154SOL    HW2 7215   1.342   3.077   7.519
 2155SOL     OW 7216   0.297   1.897   7.619
 2155SOL    HW1 7217   0.346   1.981   7.598
 2155SOL    HW2 7218   0.359   1.832   7.664
 2156SOL     OW 7219   0.935   2.098   7.928
 2156SOL    HW1 7220   0.887   2.139   7.850
 2156SOL    HW2 7221   1.034   2.096   7.909
 2157SOL     OW 7222   1.076   2.545   8.912
 2157SOL    HW1 7223   0.996   2.484   8.915
 2157SOL    HW2 7224   1.157   2.492   8.888
 2158SOL     OW 7225   1.227   3.432   8.241
 2158SOL    HW1 7226   1.248   3.506   8.176
 2158SOL    HW2 7227   1.295   3.432   8.314
 2159SOL     OW 7228   0.459   3.014   8.189
 2159SOL    HW1 7229   0.388   2.987   8.254
 2159SOL    HW2 7230   0.433   2.986   8.096
 2160SOL     OW 7231   1.271   3.659   8.039
 2160SOL    HW1 7232   1.315   3.723   7.975
 2160SOL    HW2 7233   1.221   3.711   8.109
 2161SOL     OW 7234   1.032   2.411   7.464
 2161SOL    HW1 7235   0.991   2.493   7.425
 2161SOL    HW2 7236   1.096   2.437   7.537
 2162SOL     OW 7237   0.078   2.418   8.834
 2162SOL    HW1 7238   0.170   2.417   8.793
 2162SOL    HW2 7239   0.072   2.492   8.901
 2163SOL     OW 7240   0.561   2.084   8.595
 2163SOL    HW1 7241   0.599   2.000   8.632
 2163SOL    HW2 7242   0.473   2.103   8.639
 2164SOL     OW 7243   0.866   2.316   8.090
 2164SOL    HW1 7244   0.834   2.388   8.028
 2164SOL    HW2 7245   0.890   2.235   8.037
 2165SOL     OW 7246   1.017   1.901   8.201
 2165SOL    HW1 7247   0.945   1.906   8.132
 2165SOL    HW2 7248   0.993   1.832   8.270
 2166SOL     OW 7249   1.429   3.035   8.315
 2166SOL    HW1 7250   1.374   2.951   8.308
 2166SOL    HW2 7251   1.455   3.064   8.223
 2167SOL     OW 7252   1.466   2.452   8.440
 2167SOL    HW1 7253   1.436   2.357   8.447
 2167SOL    HW2 7254   1.539   2.468   8.506
 2168SOL     OW 7255   1.857   2.695   7.825
 2168SOL    HW1 7256   1.899   2.631   7.889
 2168SOL    HW2 7257   1.819   2.644   7.747
 2169SOL     OW 7258   0.488   3.247   7.622
 2169SOL    HW1 7259   0.401   3.232   7.669
 2169SOL    HW2 7260   0.471   3.273   7.527
 2170SOL     OW 7261   1.664   3.142   8.105
 2170SOL    HW1 7262   1.763   3.150   8.119
 2170SOL    HW2 7263   1.619   3.226   8.136
 2171SOL     OW 7264   1.390   2.437   7.526
 2171SOL    HW1 7265   1.336   2.416   7.607
 2171SOL    HW2 7266   1.481   2.396   7.535
 2172SOL     OW 7267   0.527   2.118   7.776
 2172SOL    HW1 7268   0.554   2.059   7.701
 2172SOL    HW2 7269   0.527   2.213   7.745
 2173SOL     OW 7270   1.754   3.085   9.036
 2173SOL    HW1 7271   1.845   3.046   9.023
 2173SOL    HW2 7272   1.762   3.181   9.060
 2174SOL     OW 7273   1.064   3.209   8.788
 2174SOL    HW1 7274   0.984   3.186   8.843
 2174SOL    HW2 7275   1.147   3.183   8.837
 2175SOL     OW 7276   1.592   3.491   9.073
 2175SOL    HW1 7277   1.619   3.525   8.983
 2175SOL    HW2 7278   1.671   3.453   9.119
 2176SOL     OW 7279   1.111   3.057   8.548
 2176SOL    HW1 7280   1.071   3.101   8.629
 2176SOL    HW2 7281   1.070   3.094   8.465
 2177SOL     OW 7282   1.638   2.961   8.527
 2177SOL    HW1 7283   1.643   3.042   8.586
 2177SOL    HW2 7284   1.552   2.963   8.476
 2178SOL     OW 7285   0.915   1.951   8.850
 2178SOL    HW1 7286   0.940   1.931   8.755
 2178SOL    HW2 7287   0.987   2.007   8.892
 2179SOL     OW 7288   0.980   2.978   9.167
 2179SOL    HW1 7289   0.881   2.984   9.177
 2179SOL    HW2 7290   1.003   2.898   9.111
 2180SOL     OW 7291   0.705   2.912   7.816
 2180SOL    HW1 7292   0.691   2.919   7.915
 2180SOL    HW2 7293   0.789   2.861   7.798
 2181SOL     OW 7294   0.410   2.675   8.699
 2181SOL    HW1 7295   0.496   2.687   8.749
 2181SOL    HW2 7296   0.368   2.588   8.726
 2182SOL     OW 7297   1.274   2.248   8.710
 2182SOL    HW1 7298   1.295   2.322   8.774
 2182SOL    HW2 7299   1.185   2.265   8.667
 2183SOL     OW 7300   0.064   3.426   8.779
 2183SOL    HW1 7301   0.018   3.508   8.745
 2183SOL    HW2 7302   0.162   3.445   8.788
 2184SOL     OW 7303   0.367   2.962   7.949
 2184SOL    HW1 7304   0.360   3.045   7.893
 2184SOL    HW2 7305   0.371   2.882   7.889
 2185SOL     OW 7306   0.566   2.399   8.313
 2185SOL    HW1 7307   0.578   2.465   8.239
 2185SOL    HW2 7308   0.612   2.433   8.396
 2186SOL     OW 7309   1.252   3.210   7.836
 2186SOL    HW1 7310   1.302   3.287   7.876
 2186SOL    HW2 7311   1.157   3.212   7.868
 2187SOL     OW 7312   1.272   3.307   8.590
 2187SOL    HW1 7313   1.319   3.320   8.677
 2187SOL    HW2 7314   1.206   3.233   8.599
 2188SOL     OW 7315   1.582   2.501   7.920
 2188SOL    HW1 7316   1.551   2.562   7.993
 2188SOL    HW2 7317   1.632   2.553   7.851
 2189SOL     OW 7318   0.354   3.372   8.777
 2189SOL    HW1 7319   0.333   3.328   8.690
 2189SOL    HW2 7320   0.451   3.398   8.780
 2190SOL     OW 7321   0.402   2.613   9.046
 2190SOL    HW1 7322   0.470   2.668   8.999
 2190SOL    HW2 7323   0.442   2.525   9.073
 2191SOL     OW 7324   1.587   2.641   9.118
 2191SOL    HW1 7325   1.495   2.679   9.113
 2191SOL    HW2 7326   1.647   2.688   9.053
 2192SOL     OW 7327   1.013   1.967   9.218
 2192SOL    HW1 7328   1.019   2.052   9.166
 2192SOL    HW2 7329   1.045   1.891   9.161
 2193SOL     OW 7330   0.504   1.912   9.188
 2193SOL    HW1 7331   0.462   1.855   9.118
 2193SOL    HW2 7332   0.438   1.981   9.220
 2194SOL     OW 7333   0.573   2.732   8.477
 2194SOL    HW1 7334   0.617   2.821   8.468
 2194SOL    HW2 7335   0.510   2.732   8.554
 2195SOL     OW 7336   1.360   2.724   8.493
 2195SOL    HW1 7337   1.285   2.724   8.427
 2195SOL    HW2 7338   1.397   2.632   8.502
 2196SOL     OW 7339   1.209   2.387   7.723
 2196SOL    HW1 7340   1.222   2.303   7.777
 2196SOL    HW2 7341   1.180   2.461   7.783
 2197SOL     OW 7342   0.307   2.075   8.679
 2197SOL    HW1 7343   0.284   2.112   8.769
 2197SOL    HW2 7344   0.277   1.980   8.673
 2198SOL     OW 7345   0.037   3.172   8.730
 2198SOL    HW1 7346   0.090   3.123   8.798
 2198SOL    HW2 7347   0.059   3.270   8.735
 2199SOL     OW 7348   0.732   2.496   8.512
 2199SOL    HW1 7349   0.791   2.470   8.436
 2199SOL    HW2 7350   0.704   2.592   8.501
 2200SOL     OW 7351   1.728   2.797   9.302
 2200SOL    HW1 7352   1.682   2.790   9.213
 2200SOL    HW2 7353   1.666   2.841   9.368
 2201SOL     OW 7354   0.307   1.925   8.066
 2201SOL    HW1 7355   0.296   2.019   8.099
 2201SOL    HW2 7356   0.302   1.862   8.143
 2202SOL     OW 7357   1.622   2.229   7.822
 2202SOL    HW1 7358   1.624   2.153   7.886
 2202SOL    HW2 7359   1.574   2.306   7.862
 2203SOL     OW 7360   1.023   2.628   8.414
 2203SOL    HW1 7361   1.038   2.649   8.510
 2203SOL    HW2 7362   0.993   2.533   8.405
 2204SOL     OW 7363   0.980   3.435   9.148
 2204SOL    HW1 7364   0.960   3.479   9.060
 2204SOL    HW2 7365   1.019   3.344   9.132
 2205SOL     OW 7366   1.859   3.380   9.053
 2205SOL    HW1 7367   1.873   3.407   8.958
 2205SOL    HW2 7368   1.942   3.402   9.106
 2206SOL     OW 7369   0.350   2.760   9.252
 2206SOL    HW1 7370   0.426   2.804   9.300
 2206SOL    HW2 7371   0.385   2.713   9.170
 2207SOL     OW 7372   1.540   2.136   7.573
 2207SOL    HW1 7373   1.479   2.061   7.596
 2207SOL    HW2 7374   1.562   2.188   7.656
 2208SOL     OW 7375   1.303   2.700   7.490
 2208SOL    HW1 7376   1.337   2.607   7.505
 2208SOL    HW2 7377   1.321   2.727   7.395
 2209SOL     OW 7378   1.068   3.195   8.297
 2209SOL    HW1 7379   1.075   3.111   8.242
 2209SOL    HW2 7380   1.130   3.264   8.261
 2210SOL     OW 7381   0.319   2.672   8.397
 2210SOL    HW1 7382   0.412   2.708   8.402
 2210SOL    HW2 7383   0.313   2.587   8.449
 2211SOL     OW 7384   0.339   2.371   8.454
 2211SOL    HW1 7385   0.287   2.288   8.437
 2211SOL    HW2 7386   0.416   2.376   8.390
 2212SOL     OW 7387   1.138   2.242   9.126
 2212SOL    HW1 7388   1.093   2.305   9.190
 2212SOL    HW2 7389   1.231   2.273   9.109
 2213SOL     OW 7390   1.160   2.069   8.925
 2213SOL    HW1 7391   1.160   2.133   9.002
 2213SOL    HW2 7392   1.188   2.117   8.842
 2214SOL     OW 7393   0.008   3.188   7.648
 2214SOL    HW1 7394  -0.085   3.209   7.617
 2214SOL    HW2 7395   0.018   3.089   7.661
 2215SOL     OW 7396   0.088   3.663   8.375
 2215SOL    HW1 7397   0.046   3.577   8.348
 2215SOL    HW2 7398   0.182   3.666   8.341
 2216SOL     OW 7399   0.504   3.430   8.358
 2216SOL    HW1 7400   0.570   3.504   8.367
 2216SOL    HW2 7401   0.548   3.351   8.316
 2217SOL     OW 7402   1.002   2.658   8.686
 2217SOL    HW1 7403   1.043   2.626   8.772
 2217SOL    HW2 7404   0.906   2.631   8.683
 2218SOL     OW 7405   0.040   2.406   8.562
 2218SOL    HW1 7406   0.125   2.373   8.521
 2218SOL    HW2 7407   0.053   2.421   8.660
 2219SOL     OW 7408   0.189   2.382   9.170
 2219SOL    HW1 7409   0.248   2.342   9.100
 2219SOL    HW2 7410   0.131   2.453   9.129
 2220SOL     OW 7411   1.369   2.812   9.108
 2220SOL    HW1 7412   1.408   2.901   9.128
 2220SOL    HW2 7413   1.379   2.792   9.011
 2221SOL     OW 7414   0.815   2.434   7.773
 2221SOL    HW1 7415   0.822   2.345   7.727
 2221SOL    HW2 7416   0.721   2.468   7.765
 2222SOL     OW 7417   1.657   2.466   8.654
 2222SOL    HW1 7418   1.619   2.397   8.716
 2222SOL    HW2 7419   1.739   2.430   8.610
 2223SOL     OW 7420   0.252   3.426   9.192
 2223SOL    HW1 7421   0.222   3.483   9.268
 2223SOL    HW2 7422   0.245   3.329   9.218
 2224SOL     OW 7423   0.671   2.326   8.717
 2224SOL    HW1 7424   0.637   2.237   8.687
 2224SOL    HW2 7425   0.697   2.380   8.637
 2225SOL     OW 7426   0.930   3.540   8.913
 2225SOL    HW1 7427   0.906   3.522   8.818
 2225SOL    HW2 7428   0.960   3.634   8.923
 2226SOL     OW 7429   0.473   2.362   7.639
 2226SOL    HW1 7430   0.534   2.442   7.643
 2226SOL    HW2 7431   0.378   2.393   7.646
 2227SOL     OW 7432   0.159   2.999   8.914
 2227SOL    HW1 7433   0.181   2.938   8.990
 2227SOL    HW2 7434   0.169   2.950   8.828
 2228SOL     OW 7435   1.347   2.921   8.682
 2228SOL    HW1 7436   1.371   2.858   8.608
 2228SOL    HW2 7437   1.257   2.961   8.664
 2229SOL     OW 7438   1.302   2.717   7.757
 2229SOL    HW1 7439   1.216   2.686   7.799
 2229SOL    HW2 7440   1.298   2.703   7.658
 2230SOL     OW 7441   1.759   3.609   8.602
 2230SOL    HW1 7442   1.820   3.639   8.529
 2230SOL    HW2 7443   1.721   3.520   8.580
 2231SOL     OW 7444   1.252   3.593   8.576
 2231SOL    HW1 7445   1.336   3.598   8.522
 2231SOL    HW2 7446   1.229   3.497   8.594
 2232SOL     OW 7447   0.083   3.120   8.470
 2232SOL    HW1 7448   0.078   3.119   8.570
 2232SOL    HW2 7449   0.000   3.079   8.432
 2233SOL     OW 7450   0.688   3.524   9.164
 2233SOL    HW1 7451   0.632   3.605   9.173
 2233SOL    HW2 7452   0.740   3.528   9.078
 2234SOL     OW 7453   1.726   1.997   7.971
 2234SOL    HW1 7454   1.799   1.980   7.904
 2234SOL    HW2 7455   1.695   1.910   8.009
 2235SOL     OW 7456   1.388   3.435   7.925
 2235SOL    HW1 7457   1.455   3.447   7.851
 2235SOL    HW2 7458   1.348   3.524   7.948
 2236SOL     OW 7459   0.130   3.656   9.299
 2236SOL    HW1 7460   0.089   3.582   9.352
 2236SOL    HW2 7461   0.194   3.707   9.357
 2237SOL     OW 7462   1.280   2.789   8.120
 2237SOL    HW1 7463   1.340   2.708   8.122
 2237SOL    HW2 7464   1.320   2.858   8.060
 2238SOL     OW 7465   0.830   3.135   8.870
 2238SOL    HW1 7466   0.825   3.168   8.965
 2238SOL    HW2 7467   0.744   3.154   8.824
 2239SOL     OW 7468   0.672   3.478   7.602
 2239SOL    HW1 7469   0.681   3.488   7.503
 2239SOL    HW2 7470   0.632   3.389   7.623
 2240SOL     OW 7471   1.650   3.582   8.842
 2240SOL    HW1 7472   1.703   3.592   8.758
 2240SOL    HW2 7473   1.623   3.672   8.876
 2241SOL     OW 7474   1.841   2.037   8.411
 2241SOL    HW1 7475   1.880   1.952   8.375
 2241SOL    HW2 7476   1.743   2.039   8.392
 2242SOL     OW 7477   0.263   2.188   8.168
 2242SOL    HW1 7478   0.184   2.239   8.134
 2242SOL    HW2 7479   0.254   2.173   8.266
 2243SOL     OW 7480   1.194   3.474   7.479
 2243SOL    HW1 7481   1.200   3.381   7.516
 2243SOL    HW2 7482   1.135   3.474   7.399
 2244SOL     OW 7483   0.822   2.864   8.820
 2244SOL    HW1 7484   0.862   2.863   8.728
 2244SOL    HW2 7485   0.832   2.956   8.860
 2245SOL     OW 7486   0.916   2.772   7.739
 2245SOL    HW1 7487   0.979   2.810   7.671
 2245SOL    HW2 7488   0.956   2.689   7.778
 2246SOL     OW 7489   1.504   3.469   7.492
 2246SOL    HW1 7490   1.412   3.506   7.499
 2246SOL    HW2 7491   1.542   3.489   7.402
 2247SOL     OW 7492   0.372   3.150   8.938
 2247SOL    HW1 7493   0.359   3.243   8.904
 2247SOL    HW2 7494   0.288   3.098   8.925
 2248SOL     OW 7495   1.614   3.154   8.737
 2248SOL    HW1 7496   1.674   3.157   8.817
 2248SOL    HW2 7497   1.539   3.218   8.750
 2249SOL     OW 7498   1.039   2.960   8.144
 2249SOL    HW1 7499   0.969   2.913   8.198
 2249SOL    HW2 7500   1.098   2.892   8.101
 2250SOL     OW 7501   1.014   2.098   8.419
 2250SOL    HW1 7502   1.006   2.062   8.326
 2250SOL    HW2 7503   1.012   2.022   8.484
 2251SOL     OW 7504   0.590   3.349   7.939
 2251SOL    HW1 7505   0.632   3.291   7.869
 2251SOL    HW2 7506   0.546   3.428   7.895
 2252SOL     OW 7507   1.709   2.247   8.829
 2252SOL    HW1 7508   1.782   2.316   8.833
 2252SOL    HW2 7509   1.737   2.172   8.770
 2253SOL     OW 7510   0.255   3.210   7.738
 2253SOL    HW1 7511   0.159   3.211   7.711
 2253SOL    HW2 7512   0.267   3.263   7.822
 2254SOL     OW 7513   0.105   2.875   9.174
 2254SOL    HW1 7514   0.028   2.842   9.228
 2254SOL    HW2 7515   0.190   2.845   9.216
 2255SOL     OW 7516   0.672   2.065   8.937
 2255SOL    HW1 7517   0.762   2.049   8.897
 2255SOL    HW2 7518   0.680   2.070   9.036
 2256SOL     OW 7519   0.075   2.207   7.481
 2256SOL    HW1 7520  -0.017   2.179   7.452
 2256SOL    HW2 7521   0.106   2.284   7.425
 2257SOL     OW 7522   1.440   2.718   8.846
 2257SOL    HW1 7523   1.383   2.770   8.783
 2257SOL    HW2 7524   1.536   2.730   8.822
 2258SOL     OW 7525   0.072   2.028   7.766
 2258SOL    HW1 7526   0.055   2.111   7.712
 2258SOL    HW2 7527   0.162   1.991   7.744
 2259SOL     OW 7528   1.183   3.197   7.567
 2259SOL    HW1 7529   1.084   3.186   7.569
 2259SOL    HW2 7530   1.217   3.212   7.660
 2260SOL     OW 7531   0.613   2.704   8.879
 2260SOL    HW1 7532   0.669   2.785   8.862
 2260SOL    HW2 7533   0.672   2.624   8.882
 2261SOL     OW 7534   1.493   3.629   8.407
 2261SOL    HW1 7535   1.526   3.693   8.338
 2261SOL    HW2 7536   1.559   3.623   8.482
 2262SOL     OW 7537   0.716   2.427   9.156
 2262SOL    HW1 7538   0.735   2.492   9.230
 2262SOL    HW2 7539   0.776   2.347   9.165
 2263SOL     OW 7540   1.450   3.082   9.081
 2263SOL    HW1 7541   1.441   3.072   9.180
 2263SOL    HW2 7542   1.546   3.075   9.055
 2264SOL     OW 7543   0.390   3.603   9.008
 2264SOL    HW1 7544   0.299   3.644   9.006
 2264SOL    HW2 7545   0.383   3.509   9.040
 2265SOL     OW 7546   1.674   2.745   8.702
 2265SOL    HW1 7547   1.647   2.656   8.665
 2265SOL    HW2 7548   1.675   2.813   8.629
 2266SOL     OW 7549   1.225   2.187   7.897
 2266SOL    HW1 7550   1.290   2.113   7.886
 2266SOL    HW2 7551   1.245   2.237   7.981
 2267SOL     OW 7552   0.594   2.607   8.100
 2267SOL    HW1 7553   0.644   2.692   8.081
 2267SOL    HW2 7554   0.506   2.609   8.052
 2268SOL     OW 7555   1.777   2.204   9.090
 2268SOL    HW1 7556   1.760   2.235   8.996
 2268SOL    HW2 7557   1.693   2.167   9.128
 2269SOL     OW 7558   1.730   2.796   8.965
 2269SOL    HW1 7559   1.768   2.887   8.980
 2269SOL    HW2 7560   1.722   2.779   8.866
 2270SOL     OW 7561   0.859   3.236   7.464
 2270SOL    HW1 7562   0.813   3.251   7.552
 2270SOL    HW2 7563   0.903   3.321   7.434
 2271SOL     OW 7564   0.661   3.652   8.401
 2271SOL    HW1 7565   0.615   3.740   8.388
 2271SOL    HW2 7566   0.760   3.664   8.394
 2272SOL     OW 7567   0.859   2.818   8.309
 2272SOL    HW1 7568   0.913   2.749   8.357
 2272SOL    HW2 7569   0.827   2.887   8.375
 2273SOL     OW 7570   1.083   2.846   7.535
 2273SOL    HW1 7571   1.060   2.899   7.453
 2273SOL    HW2 7572   1.164   2.790   7.516
 2274SOL     OW 7573   1.861   3.431   8.299
 2274SOL    HW1 7574   1.790   3.419   8.229
 2274SOL    HW2 7575   1.862   3.352   8.359
 2275SOL     OW 7576   0.221   3.176   9.292
 2275SOL    HW1 7577   0.156   3.103   9.271
 2275SOL    HW2 7578   0.225   3.190   9.390
 2276SOL     OW 7579   0.079   3.102   8.101
 2276SOL    HW1 7580   0.078   3.055   8.189
 2276SOL    HW2 7581   0.161   3.074   8.050
 2277SOL     OW 7582   0.672   3.253   9.072
 2277SOL    HW1 7583   0.594   3.203   9.110
 2277SOL    HW2 7584   0.669   3.348   9.103
 2278SOL     OW 7585   1.824   2.054   8.675
 2278SOL    HW1 7586   1.820   1.964   8.719
 2278SOL    HW2 7587   1.827   2.043   8.576
 2279SOL     OW 7588   0.428   2.286   7.968
 2279SOL    HW1 7589   0.458   2.214   7.906
 2279SOL    HW2 7590   0.389   2.246   8.051
 2280SOL     OW 7591   1.705   3.349   8.552
 2280SOL    HW1 7592   1.612   3.324   8.525
 2280SOL    HW2 7593   1.731   3.299   8.634
 2281SOL     OW 7594   0.317   2.409   8.728
 2281SOL    HW1 7595   0.355   2.350   8.800
 2281SOL    HW2 7596   0.357   2.383   8.640
 2282SOL     OW 7597   0.812   3.448   8.135
 2282SOL    HW1 7598   0.844   3.458   8.041
 2282SOL    HW2 7599   0.733   3.386   8.137
 2283SOL     OW 7600   1.424   2.076   8.560
 2283SOL    HW1 7601   1.476   2.011   8.615
 2283SOL    HW2 7602   1.375   2.139   8.621
 2284SOL     OW 7603   1.001   1.896   8.602
 2284SOL    HW1 7604   0.938   1.824   8.571
 2284SOL    HW2 7605   1.094   1.860   8.602
 2285SOL     OW 7606   0.770   3.192   7.749
 2285SOL    HW1 7607   0.724   3.105   7.766
 2285SOL    HW2 7608   0.861   3.189   7.790
 2286SOL     OW 7609   0.618   3.429   8.732
 2286SOL    HW1 7610   0.613   3.511   8.789
 2286SOL    HW2 7611   0.707   3.426   8.687
 2287SOL     OW 7612   1.352   1.914   7.616
 2287SOL    HW1 7613   1.387   1.873   7.532
 2287SOL    HW2 7614   1.262   1.876   7.636
 2288SOL     OW 7615   1.300   2.315   8.139
 2288SOL    HW1 7616   1.241   2.395   8.143
 2288SOL    HW2 7617   1.315   2.280   8.232
 2289SOL     OW 7618   1.593   2.083   8.330
 2289SOL    HW1 7619   1.509   2.082   8.384
 2289SOL    HW2 7620   1.595   2.166   8.274
 2290SOL     OW 7621   0.039   2.939   7.748
 2290SOL    HW1 7622   0.138   2.928   7.739
 2290SOL    HW2 7623  -0.001   2.853   7.780
 2291SOL     OW 7624   0.875   3.508   7.785
 2291SOL    HW1 7625   0.798   3.473   7.731
 2291SOL    HW2 7626   0.843   3.579   7.847
 2292SOL     OW 7627   0.230   2.490   9.423
 2292SOL    HW1 7628   0.137   2.488   9.460
 2292SOL    HW2 7629   0.231   2.451   9.331
 2293SOL     OW 7630   0.225   2.137  10.306
 2293SOL    HW1 7631   0.260   2.120  10.398
 2293SOL    HW2 7632   0.137   2.092  10.294
 2294SOL     OW 7633   0.019   2.230   9.957
 2294SOL    HW1 7634  -0.063   2.273   9.996
 2294SOL    HW2 7635  -0.009   2.157   9.894
 2295SOL     OW 7636   0.569   3.137  10.475
 2295SOL    HW1 7637   0.476   3.130  10.438
 2295SOL    HW2 7638   0.580   3.226  10.519
 2296SOL     OW 7639   1.555   3.373  10.013
 2296SOL    HW1 7640   1.498   3.357  10.094
 2296SOL    HW2 7641   1.496   3.383   9.933
 2297SOL     OW 7642   1.135   2.565  10.027
 2297SOL    HW1 7643   1.192   2.643  10.002
 2297SOL    HW2 7644   1.075   2.591  10.103
 2298SOL     OW 7645   1.755   2.469   9.541
 2298SOL    HW1 7646   1.743   2.456   9.442
 2298SOL    HW2 7647   1.725   2.388   9.590
 2299SOL     OW 7648   0.768   3.006  10.333
 2299SOL    HW1 7649   0.690   3.023  10.393
 2299SOL    HW2 7650   0.802   3.093  10.297
 2300SOL     OW 7651   0.850   2.660  11.133
 2300SOL    HW1 7652   0.846   2.736  11.198
 2300SOL    HW2 7653   0.872   2.696  11.042
 2301SOL     OW 7654   0.685   2.874   9.975
 2301SOL    HW1 7655   0.754   2.858  10.045
 2301SOL    HW2 7656   0.612   2.931  10.013
 2302SOL     OW 7657   0.335   3.297  10.371
 2302SOL    HW1 7658   0.257   3.266  10.318
 2302SOL    HW2 7659   0.393   3.355  10.314
 2303SOL     OW 7660   1.460   3.367  10.649
 2303SOL    HW1 7661   1.484   3.461  10.675
 2303SOL    HW2 7662   1.444   3.313  10.731
 2304SOL     OW 7663   0.438   2.254  10.809
 2304SOL    HW1 7664   0.520   2.198  10.818
 2304SOL    HW2 7665   0.357   2.196  10.813
 2305SOL     OW 7666   1.603   2.309  10.047
 2305SOL    HW1 7667   1.529   2.355   9.997
 2305SOL    HW2 7668   1.654   2.377  10.100
 2306SOL     OW 7669   0.231   3.575   9.793
 2306SOL    HW1 7670   0.265   3.652   9.847
 2306SOL    HW2 7671   0.275   3.575   9.703
 2307SOL     OW 7672   0.230   3.296   9.848
 2307SOL    HW1 7673   0.204   3.392   9.848
 2307SOL    HW2 7674   0.159   3.242   9.893
 2308SOL     OW 7675   0.240   2.953  10.196
 2308SOL    HW1 7676   0.254   2.869  10.248
 2308SOL    HW2 7677   0.185   3.017  10.251
 2309SOL     OW 7678   0.620   3.648  10.749
 2309SOL    HW1 7679   0.528   3.631  10.784
 2309SOL    HW2 7680   0.648   3.740  10.775
 2310SOL     OW 7681   0.606   2.826   9.433
 2310SOL    HW1 7682   0.613   2.910   9.379
 2310SOL    HW2 7683   0.652   2.839   9.521
 2311SOL     OW 7684   1.594   1.976  10.790
 2311SOL    HW1 7685   1.576   2.043  10.718
 2311SOL    HW2 7686   1.591   2.022  10.879
 2312SOL     OW 7687   0.122   2.505   9.873
 2312SOL    HW1 7688   0.077   2.417   9.890
 2312SOL    HW2 7689   0.121   2.559   9.957
 2313SOL     OW 7690   1.842   3.629   9.669
 2313SOL    HW1 7691   1.896   3.600   9.749
 2313SOL    HW2 7692   1.872   3.719   9.640
 2314SOL     OW 7693   0.027   3.458   9.427
 2314SOL    HW1 7694   0.008   3.362   9.448
 2314SOL    HW2 7695  -0.006   3.516   9.502
 2315SOL     OW 7696   1.689   2.784   9.922
 2315SOL    HW1 7697   1.784   2.755   9.930
 2315SOL    HW2 7698   1.681   2.849   9.847
 2316SOL     OW 7699   1.641   2.970   9.742
 2316SOL    HW1 7700   1.727   2.972   9.690
 2316SOL    HW2 7701   1.655   3.017   9.830
 2317SOL     OW 7702   0.113   2.599  10.907
 2317SOL    HW1 7703   0.201   2.586  10.952
 2317SOL    HW2 7704   0.100   2.696  10.885
 2318SOL     OW 7705   0.613   3.227  10.036
 2318SOL    HW1 7706   0.564   3.140  10.045
 2318SOL    HW2 7707   0.590   3.270   9.949
 2319SOL     OW 7708   1.293   3.090  10.733
 2319SOL    HW1 7709   1.330   3.017  10.675
 2319SOL    HW2 7710   1.345   3.095  10.818
 2320SOL     OW 7711   0.809   1.866   9.812
 2320SOL    HW1 7712   0.849   1.957   9.803
 2320SOL    HW2 7713   0.709   1.874   9.818
 2321SOL     OW 7714   0.197   2.838  10.574
 2321SOL    HW1 7715   0.286   2.793  10.560
 2321SOL    HW2 7716   0.124   2.773  10.555
 2322SOL     OW 7717   1.525   2.861   9.500
 2322SOL    HW1 7718   1.462   2.785   9.513
 2322SOL    HW2 7719   1.573   2.879   9.586
 2323SOL     OW 7720   1.187   3.654  10.926
 2323SOL    HW1 7721   1.211   3.714  10.850
 2323SOL    HW2 7722   1.194   3.559  10.896
 2324SOL     OW 7723   0.317   2.113  11.111
 2324SOL    HW1 7724   0.388   2.184  11.117
 2324SOL    HW2 7725   0.229   2.152  11.139
 2325SOL     OW 7726   1.466   3.279  10.263
 2325SOL    HW1 7727   1.407   3.285  10.343
 2325SOL    HW2 7728   1.451   3.191  10.217
 2326SOL     OW 7729   1.667   3.576   9.882
 2326SOL    HW1 7730   1.626   3.553   9.794
 2326SOL    HW2 7731   1.649   3.502   9.947
 2327SOL     OW 7732   0.598   2.591   9.580
 2327SOL    HW1 7733   0.622   2.660   9.512
 2327SOL    HW2 7734   0.520   2.624   9.634
 2328SOL     OW 7735   1.281   2.207  10.254
 2328SOL    HW1 7736   1.195   2.157  10.241
 2328SOL    HW2 7737   1.343   2.153  10.310
 2329SOL     OW 7738   1.576   3.524   9.617
 2329SOL    HW1 7739   1.665   3.570   9.620
 2329SOL    HW2 7740   1.555   3.500   9.522
 2330SOL     OW 7741   0.807   2.467  10.775
 2330SOL    HW1 7742   0.760   2.464  10.864
 2330SOL    HW2 7743   0.756   2.412  10.709
 2331SOL     OW 7744   0.973   2.752  10.882
 2331SOL    HW1 7745   1.019   2.668  10.853
 2331SOL    HW2 7746   0.917   2.786  10.807
 2332SOL     OW 7747   0.991   2.272  10.552
 2332SOL    HW1 7748   0.914   2.306  10.606
 2332SOL    HW2 7749   0.957   2.221  10.473
 2333SOL     OW 7750   1.041   2.563   9.739
 2333SOL    HW1 7751   1.067   2.559   9.835
 2333SOL    HW2 7752   0.956   2.512   9.725
 2334SOL     OW 7753   0.076   2.673  10.099
 2334SOL    HW1 7754   0.175   2.661  10.108
 2334SOL    HW2 7755   0.052   2.768  10.120
 2335SOL     OW 7756   0.130   3.683  10.881
 2335SOL    HW1 7757   0.120   3.668  10.980
 2335SOL    HW2 7758   0.044   3.719  10.845
 2336SOL     OW 7759   0.865   2.210   9.505
 2336SOL    HW1 7760   0.924   2.273   9.456
 2336SOL    HW2 7761   0.884   2.116   9.476
 2337SOL     OW 7762   1.362   3.006   9.855
 2337SOL    HW1 7763   1.445   2.977   9.807
 2337SOL    HW2 7764   1.313   3.073   9.799
 2338SOL     OW 7765   0.550   2.058  10.195
 2338SOL    HW1 7766   0.545   2.053  10.295
 2338SOL    HW2 7767   0.552   2.154  10.166
 2339SOL     OW 7768   1.008   3.318   9.787
 2339SOL    HW1 7769   0.962   3.390   9.735
 2339SOL    HW2 7770   1.004   3.338   9.885
 2340SOL     OW 7771   0.351   3.663  10.163
 2340SOL    HW1 7772   0.401   3.577  10.169
 2340SOL    HW2 7773   0.416   3.740  10.160
 2341SOL     OW 7774   1.795   2.928  10.183
 2341SOL    HW1 7775   1.733   2.913  10.107
 2341SOL    HW2 7776   1.743   2.939  10.268
 2342SOL     OW 7777   1.227   3.412  10.816
 2342SOL    HW1 7778   1.233   3.335  10.880
 2342SOL    HW2 7779   1.175   3.386  10.736
 2343SOL     OW 7780   0.321   2.805   9.552
 2343SOL    HW1 7781   0.403   2.844   9.510
 2343SOL    HW2 7782   0.294   2.723   9.503
 2344SOL     OW 7783   1.458   2.597  10.038
 2344SOL    HW1 7784   1.453   2.532  10.113
 2344SOL    HW2 7785   1.538   2.656  10.051
 2345SOL     OW 7786   0.461   3.128  11.037
 2345SOL    HW1 7787   0.411   3.129  10.951
 2345SOL    HW2 7788   0.398   3.110  11.113
 2346SOL     OW 7789   1.111   3.638   9.547
 2346SOL    HW1 7790   1.051   3.576   9.597
 2346SOL    HW2 7791   1.142   3.594   9.462
 2347SOL     OW 7792   0.202   2.147  10.808
 2347SOL    HW1 7793   0.122   2.207  10.795
 2347SOL    HW2 7794   0.192   2.098  10.894
 2348SOL     OW 7795   1.632   3.239   9.391
 2348SOL    HW1 7796   1.600   3.333   9.381
 2348SOL    HW2 7797   1.556   3.176   9.379
 2349SOL     OW 7798   0.464   3.605   9.633
 2349SOL    HW1 7799   0.497   3.644   9.719
 2349SOL    HW2 7800   0.540   3.598   9.568
 2350SOL     OW 7801   1.400   1.969   9.736
 2350SOL    HW1 7802   1.376   1.932   9.646
 2350SOL    HW2 7803   1.499   1.985   9.740
 2351SOL     OW 7804   0.249   3.647  10.551
 2351SOL    HW1 7805   0.306   3.582  10.601
 2351SOL    HW2 7806   0.233   3.614  10.458
 2352SOL     OW 7807   0.940   3.560  10.214
 2352SOL    HW1 7808   1.020   3.503  10.235
 2352SOL    HW2 7809   0.891   3.520  10.137
 2353SOL     OW 7810   0.382   2.562   9.790
 2353SOL    HW1 7811   0.427   2.472   9.787
 2353SOL    HW2 7812   0.288   2.551   9.823
 2354SOL     OW 7813   0.614   1.984   9.427
 2354SOL    HW1 7814   0.712   1.962   9.434
 2354SOL    HW2 7815   0.583   1.967   9.334
 2355SOL     OW 7816   0.781   2.126  11.059
 2355SOL    HW1 7817   0.848   2.065  11.102
 2355SOL    HW2 7818   0.708   2.145  11.124
 2356SOL     OW 7819   0.888   3.376  10.505
 2356SOL    HW1 7820   0.865   3.351  10.411
 2356SOL    HW2 7821   0.949   3.307  10.544
 2357SOL     OW 7822   1.351   2.452  10.743
 2357SOL    HW1 7823   1.379   2.409  10.828
 2357SOL    HW2 7824   1.376   2.548  10.744
 2358SOL     OW 7825   0.803   3.264  10.234
 2358SOL    HW1 7826   0.893   3.278  10.192
 2358SOL    HW2 7827   0.732   3.266  10.163
 2359SOL     OW 7828   0.922   2.365  10.209
 2359SOL    HW1 7829   0.897   2.356  10.113
 2359SOL    HW2 7830   0.970   2.283  10.240
 2360SOL     OW 7831   0.539   1.926   9.822
 2360SOL    HW1 7832   0.458   1.927   9.880
 2360SOL    HW2 7833   0.542   2.009   9.767
 2361SOL     OW 7834   1.434   3.050   9.351
 2361SOL    HW1 7835   1.466   2.974   9.408
 2361SOL    HW2 7836   1.342   3.077   9.381
 2362SOL     OW 7837   0.297   1.897   9.481
 2362SOL    HW1 7838   0.346   1.981   9.460
 2362SOL    HW2 7839   0.359   1.832   9.526
 2363SOL     OW 7840   0.935   2.098   9.790
 2363SOL    HW1 7841   0.887   2.139   9.712
 2363SOL    HW2 7842   1.034   2.096   9.771
 2364SOL     OW 7843   1.076   2.545  10.774
 2364SOL    HW1 7844   0.996   2.484  10.777
 2364SOL    HW2 7845   1.157   2.492  10.750
 2365SOL     OW 7846   1.227   3.432  10.103
 2365SOL    HW1 7847   1.248   3.506  10.038
 2365SOL    HW2 7848   1.295   3.432  10.176
 2366SOL     OW 7849   0.459   3.014  10.051
 2366SOL    HW1 7850   0.388   2.987  10.116
 2366SOL    HW2 7851   0.433   2.986   9.958
 2367SOL     OW 7852   1.271   3.659   9.901
 2367SOL    HW1 7853   1.315   3.723   9.837
 2367SOL    HW2 7854   1.221   3.711   9.971
 2368SOL     OW 7855   1.032   2.411   9.326
 2368SOL    HW1 7856   0.991   2.493   9.287
 2368SOL    HW2 7857   1.096   2.437   9.399
 2369SOL     OW 7858   0.078   2.418  10.696
 2369SOL    HW1 7859   0.170   2.417  10.655
 2369SOL    HW2 7860   0.072   2.492  10.763
 2370SOL     OW 7861   0.561   2.084  10.457
 2370SOL    HW1 7862   0.599   2.000  10.494
 2370SOL    HW2 7863   0.473   2.103  10.501
 2371SOL     OW 7864   0.866   2.316   9.952
 2371SOL    HW1 7865   0.834   2.388   9.890
 2371SOL    HW2 7866   0.890   2.235   9.899
 2372SOL     OW 7867   1.017   1.901  10.063
 2372SOL    HW1 7868   0.945   1.906   9.994
 2372SOL    HW2 7869   0.993   1.832  10.132
 2373SOL     OW 7870   1.429   3.035  10.177
 2373SOL    HW1 7871   1.374   2.951  10.170
 2373SOL    HW2 7872   1.455   3.064  10.085
 2374SOL     OW 7873   1.466   2.452  10.302
 2374SOL    HW1 7874   1.436   2.357  10.309
 2374SOL    HW2 7875   1.539   2.468  10.368
 2375SOL     OW 7876   1.857   2.695   9.687
 2375SOL    HW1 7877   1.899   2.631   9.751
 2375SOL    HW2 7878   1.819   2.644   9.609
 2376SOL     OW 7879   0.488   3.247   9.484
 2376SOL    HW1 7880   0.401   3.232   9.531
 2376SOL    HW2 7881   0.471   3.273   9.389
 2377SOL     OW 7882   1.664   3.142   9.967
 2377SOL    HW1 7883   1.763   3.150   9.981
 2377SOL    HW2 7884   1.619   3.226   9.998
 2378SOL     OW 7885   1.390   2.437   9.388
 2378SOL    HW1 7886   1.336   2.416   9.469
 2378SOL    HW2 7887   1.481   2.396   9.397
 2379SOL     OW 7888   0.527   2.118   9.638
 2379SOL    HW1 7889   0.554   2.059   9.563
 2379SOL    HW2 7890   0.527   2.213   9.607
 2380SOL     OW 7891   1.754   3.085  10.898
 2380SOL    HW1 7892   1.845   3.046  10.885
 2380SOL    HW2 7893   1.762   3.181  10.922
 2381SOL     OW 7894   1.064   3.209  10.650
 2381SOL    HW1 7895   0.984   3.186  10.705
 2381SOL    HW2 7896   1.147   3.183  10.699
 2382SOL     OW 7897   1.111   3.057  10.410
 2382SOL    HW1 7898   1.071   3.101  10.491
 2382SOL    HW2 7899   1.070   3.094  10.327
 2383SOL     OW 7900   1.638   2.961  10.389
 2383SOL    HW1 7901   1.643   3.042  10.448
 2383SOL    HW2 7902   1.552   2.963  10.338
 2384SOL     OW 7903   0.915   1.951  10.712
 2384SOL    HW1 7904   0.940   1.931  10.617
 2384SOL    HW2 7905   0.987   2.007  10.754
 2385SOL     OW 7906   0.705   2.912   9.678
 2385SOL    HW1 7907   0.691   2.919   9.777
 2385SOL    HW2 7908   0.789   2.861   9.660
 2386SOL     OW 7909   0.410   2.675  10.561
 2386SOL    HW1 7910   0.496   2.687  10.611
 2386SOL    HW2 7911   0.368   2.588  10.588
 2387SOL     OW 7912   1.274   2.248  10.572
 2387SOL    HW1 7913   1.295   2.322  10.636
 2387SOL    HW2 7914   1.185   2.265  10.529
 2388SOL     OW 7915   0.064   3.426  10.641
 2388SOL    HW1 7916   0.018   3.508  10.607
 2388SOL    HW2 7917   0.162   3.445  10.650
 2389SOL     OW 7918   0.367   2.962   9.811
 2389SOL    HW1 7919   0.360   3.045   9.755
 2389SOL    HW2 7920   0.371   2.882   9.751
 2390SOL     OW 7921   0.566   2.399  10.175
 2390SOL    HW1 7922   0.578   2.465  10.101
 2390SOL    HW2 7923   0.612   2.433  10.258
 2391SOL     OW 7924   1.252   3.210   9.698
 2391SOL    HW1 7925   1.302   3.287   9.738
 2391SOL    HW2 7926   1.157   3.212   9.730
 2392SOL     OW 7927   1.272   3.307  10.452
 2392SOL    HW1 7928   1.319   3.320  10.539
 2392SOL    HW2 7929   1.206   3.233  10.461
 2393SOL     OW 7930   1.582   2.501   9.782
 2393SOL    HW1 7931   1.551   2.562   9.855
 2393SOL    HW2 7932   1.632   2.553   9.713
 2394SOL     OW 7933   0.354   3.372  10.639
 2394SOL    HW1 7934   0.333   3.328  10.552
 2394SOL    HW2 7935   0.451   3.398  10.642
 2395SOL     OW 7936   0.402   2.613  10.908
 2395SOL    HW1 7937   0.470   2.668  10.861
 2395SOL    HW2 7938   0.442   2.525  10.935
 2396SOL     OW 7939   1.587   2.641  10.980
 2396SOL    HW1 7940   1.495   2.679  10.975
 2396SOL    HW2 7941   1.647   2.688  10.915
 2397SOL     OW 7942   0.573   2.732  10.339
 2397SOL    HW1 7943   0.617   2.821  10.330
 2397SOL    HW2 7944   0.510   2.732  10.416
 2398SOL     OW 7945   1.360   2.724  10.355
 2398SOL    HW1 7946   1.285   2.724  10.289
 2398SOL    HW2 7947   1.397   2.632  10.364
 2399SOL     OW 7948   1.209   2.387   9.585
 2399SOL    HW1 7949   1.222   2.303   9.639
 2399SOL    HW2 7950   1.180   2.461   9.645
 2400SOL     OW 7951   0.307   2.075  10.541
 2400SOL    HW1 7952   0.284   2.112  10.631
 2400SOL    HW2 7953   0.277   1.980  10.535
 2401SOL     OW 7954   0.037   3.172  10.592
 2401SOL    HW1 7955   0.090   3.123  10.660
 2401SOL    HW2 7956   0.059   3.270  10.597
 2402SOL     OW 7957   0.732   2.496  10.374
 2402SOL    HW1 7958   0.791   2.470  10.298
 2402SOL    HW2 7959   0.704   2.592  10.363
 2403SOL     OW 7960   0.307   1.925   9.928
 2403SOL    HW1 7961   0.296   2.019   9.961
 2403SOL    HW2 7962   0.302   1.862  10.005
 2404SOL     OW 7963   1.622   2.229   9.684
 2404SOL    HW1 7964   1.624   2.153   9.748
 2404SOL    HW2 7965   1.574   2.306   9.724
 2405SOL     OW 7966   1.023   2.628  10.276
 2405SOL    HW1 7967   1.038   2.649  10.372
 2405SOL    HW2 7968   0.993   2.533  10.267
 2406SOL     OW 7969   0.980   3.435  11.010
 2406SOL    HW1 7970   0.960   3.479  10.922
 2406SOL    HW2 7971   1.019   3.344  10.994
 2407SOL     OW 7972   1.859   3.380  10.915
 2407SOL    HW1 7973   1.873   3.407  10.820
 2407SOL    HW2 7974   1.942   3.402  10.968
 2408SOL     OW 7975   0.350   2.760  11.114
 2408SOL    HW1 7976   0.426   2.804  11.162
 2408SOL    HW2 7977   0.385   2.713  11.032
 2409SOL     OW 7978   1.540   2.136   9.435
 2409SOL    HW1 7979   1.479   2.061   9.458
 2409SOL    HW2 7980   1.562   2.188   9.518
 2410SOL     OW 7981   1.303   2.700   9.352
 2410SOL    HW1 7982   1.337   2.607   9.367
 2410SOL    HW2 7983   1.321   2.727   9.257
 2411SOL     OW 7984   1.068   3.195  10.159
 2411SOL    HW1 7985   1.075   3.111  10.104
 2411SOL    HW2 7986   1.130   3.264  10.123
 2412SOL     OW 7987   0.319   2.672  10.259
 2412SOL    HW1 7988   0.412   2.708  10.264
 2412SOL    HW2 7989   0.313   2.587  10.311
 2413SOL     OW 7990   0.339   2.371  10.316
 2413SOL    HW1 7991   0.287   2.288  10.299
 2413SOL    HW2 7992   0.416   2.376  10.252
 2414SOL     OW 7993   1.160   2.069  10.787
 2414SOL    HW1 7994   1.160   2.133  10.864
 2414SOL    HW2 7995   1.188   2.117  10.704
 2415SOL     OW 7996   0.008   3.188   9.510
 2415SOL    HW1 7997  -0.085   3.209   9.479
 2415SOL    HW2 7998   0.018   3.089   9.523
 2416SOL     OW 7999   0.088   3.663  10.237
 2416SOL    HW1 8000   0.046   3.577  10.210
 2416SOL    HW2 8001   0.182   3.666  10.203
 2417SOL     OW 8002   0.504   3.430  10.220
 2417SOL    HW1 8003   0.570   3.504  10.229
 2417SOL    HW2 8004   0.548   3.351  10.178
 2418SOL     OW 8005   1.002   2.658  10.548
 2418SOL    HW1 8006   1.043   2.626  10.634
 2418SOL    HW2 8007   0.906   2.631  10.545
 2419SOL     OW 8008   0.040   2.406  10.424
 2419SOL    HW1 8009   0.125   2.373  10.383
 2419SOL    HW2 8010   0.053   2.421  10.522
 2420SOL     OW 8011   0.815   2.434   9.635
 2420SOL    HW1 8012   0.822   2.345   9.589
 2420SOL    HW2 8013   0.721   2.468   9.627
 2421SOL     OW 8014   1.657   2.466  10.516
 2421SOL    HW1 8015   1.619   2.397  10.578
 2421SOL    HW2 8016   1.739   2.430  10.472
 2422SOL     OW 8017   0.252   3.426  11.054
 2422SOL    HW1 8018   0.222   3.483  11.130
 2422SOL    HW2 8019   0.245   3.329  11.080
 2423SOL     OW 8020   0.671   2.326  10.579
 2423SOL    HW1 8021   0.637   2.237  10.549
 2423SOL    HW2 8022   0.697   2.380  10.499
 2424SOL     OW 8023   0.930   3.540  10.775
 2424SOL    HW1 8024   0.906   3.522  10.680
 2424SOL    HW2 8025   0.960   3.634  10.785
 2425SOL     OW 8026   0.473   2.362   9.501
 2425SOL    HW1 8027   0.534   2.442   9.505
 2425SOL    HW2 8028   0.378   2.393   9.508
 2426SOL     OW 8029   0.159   2.999  10.776
 2426SOL    HW1 8030   0.181   2.938  10.852
 2426SOL    HW2 8031   0.169   2.950  10.690
 2427SOL     OW 8032   1.347   2.921  10.544
 2427SOL    HW1 8033   1.371   2.858  10.470
 2427SOL    HW2 8034   1.257   2.961  10.526
 2428SOL     OW 8035   1.302   2.717   9.619
 2428SOL    HW1 8036   1.216   2.686   9.661
 2428SOL    HW2 8037   1.298   2.703   9.520
 2429SOL     OW 8038   1.759   3.609  10.464
 2429SOL    HW1 8039   1.820   3.639  10.391
 2429SOL    HW2 8040   1.721   3.520  10.442
 2430SOL     OW 8041   1.252   3.593  10.438
 2430SOL    HW1 8042   1.336   3.598  10.384
 2430SOL    HW2 8043   1.229   3.497  10.456
 2431SOL     OW 8044   0.083   3.120  10.332
 2431SOL    HW1 8045   0.078   3.119  10.432
 2431SOL    HW2 8046   0.000   3.079  10.294
 2432SOL     OW 8047   1.726   1.997   9.833
 2432SOL    HW1 8048   1.799   1.980   9.766
 2432SOL    HW2 8049   1.695   1.910   9.871
 2433SOL     OW 8050   1.388   3.435   9.787
 2433SOL    HW1 8051   1.455   3.447   9.713
 2433SOL    HW2 8052   1.348   3.524   9.810
 2434SOL     OW 8053   1.280   2.789   9.982
 2434SOL    HW1 8054   1.340   2.708   9.984
 2434SOL    HW2 8055   1.320   2.858   9.922
 2435SOL     OW 8056   0.830   3.135  10.732
 2435SOL    HW1 8057   0.825   3.168  10.827
 2435SOL    HW2 8058   0.744   3.154  10.686
 2436SOL     OW 8059   0.672   3.478   9.464
 2436SOL    HW1 8060   0.681   3.488   9.365
 2436SOL    HW2 8061   0.632   3.389   9.485
 2437SOL     OW 8062   1.650   3.582  10.704
 2437SOL    HW1 8063   1.703   3.592  10.620
 2437SOL    HW2 8064   1.623   3.672  10.738
 2438SOL     OW 8065   1.841   2.037  10.273
 2438SOL    HW1 8066   1.880   1.952  10.237
 2438SOL    HW2 8067   1.743   2.039  10.254
 2439SOL     OW 8068   0.263   2.188  10.030
 2439SOL    HW1 8069   0.184   2.239   9.996
 2439SOL    HW2 8070   0.254   2.173  10.128
 2440SOL     OW 8071   1.194   3.474   9.341
 2440SOL    HW1 8072   1.200   3.381   9.378
 2440SOL    HW2 8073   1.135   3.474   9.261
 2441SOL     OW 8074   0.822   2.864  10.682
 2441SOL    HW1 8075   0.862   2.863  10.590
 2441SOL    HW2 8076   0.832   2.956  10.722
 2442SOL     OW 8077   0.916   2.772   9.601
 2442SOL    HW1 8078   0.979   2.810   9.533
 2442SOL    HW2 8079   0.956   2.689   9.640
 2443SOL     OW 8080   1.504   3.469   9.354
 2443SOL    HW1 8081   1.412   3.506   9.361
 2443SOL    HW2 8082   1.542   3.489   9.264
 2444SOL     OW 8083   0.372   3.150  10.800
 2444SOL    HW1 8084   0.359   3.243  10.766
 2444SOL    HW2 8085   0.288   3.098  10.787
 2445SOL     OW 8086   1.614   3.154  10.599
 2445SOL    HW1 8087   1.674   3.157  10.679
 2445SOL    HW2 8088   1.539   3.218  10.612
 2446SOL     OW 8089   1.039   2.960  10.006
 2446SOL    HW1 8090   0.969   2.913  10.060
 2446SOL    HW2 8091   1.098   2.892   9.963
 2447SOL     OW 8092   1.014   2.098  10.281
 2447SOL    HW1 8093   1.006   2.062  10.188
 2447SOL    HW2 8094   1.012   2.022  10.346
 2448SOL     OW 8095   0.590   3.349   9.801
 2448SOL    HW1 8096   0.632   3.291   9.731
 2448SOL    HW2 8097   0.546   3.428   9.757
 2449SOL     OW 8098   1.709   2.247  10.691
 2449SOL    HW1 8099   1.782   2.316  10.695
 2449SOL    HW2 8100   1.737   2.172  10.632
 2450SOL     OW 8101   0.255   3.210   9.600
 2450SOL    HW1 8102   0.159   3.211   9.573
 2450SOL    HW2 8103   0.267   3.263   9.684
 2451SOL     OW 8104   0.105   2.875  11.036
 2451SOL    HW1 8105   0.028   2.842  11.090
 2451SOL    HW2 8106   0.190   2.845  11.078
 2452SOL     OW 8107   0.672   2.065  10.799
 2452SOL    HW1 8108   0.762   2.049  10.759
 2452SOL    HW2 8109   0.680   2.070  10.898
 2453SOL     OW 8110   0.075   2.207   9.343
 2453SOL    HW1 8111  -0.017   2.179   9.314
 2453SOL    HW2 8112   0.106   2.284   9.287
 2454SOL     OW 8113   1.440   2.718  10.708
 2454SOL    HW1 8114   1.383   2.770  10.645
 2454SOL    HW2 8115   1.536   2.730  10.684
 2455SOL     OW 8116   0.072   2.028   9.628
 2455SOL    HW1 8117   0.055   2.111   9.574
 2455SOL    HW2 8118   0.162   1.991   9.606
 2456SOL     OW 8119   1.183   3.197   9.429
 2456SOL    HW1 8120   1.084   3.186   9.431
 2456SOL    HW2 8121   1.217   3.212   9.522
 2457SOL     OW 8122   0.613   2.704  10.741
 2457SOL    HW1 8123   0.669   2.785  10.724
 2457SOL    HW2 8124   0.672   2.624  10.744
 2458SOL     OW 8125   1.493   3.629  10.269
 2458SOL    HW1 8126   1.526   3.693  10.200
 2458SOL    HW2 8127   1.559   3.623  10.344
 2459SOL     OW 8128   0.716   2.427  11.018
 2459SOL    HW1 8129   0.735   2.492  11.092
 2459SOL    HW2 8130   0.776   2.347  11.027
 2460SOL     OW 8131   0.390   3.603  10.870
 2460SOL    HW1 8132   0.299   3.644  10.868
 2460SOL    HW2 8133   0.383   3.509  10.902
 2461SOL     OW 8134   1.674   2.745  10.564
 2461SOL    HW1 8135   1.647   2.656  10.527
 2461SOL    HW2 8136   1.675   2.813  10.491
 2462SOL     OW 8137   1.225   2.187   9.759
 2462SOL    HW1 8138   1.290   2.113   9.748
 2462SOL    HW2 8139   1.245   2.237   9.843
 2463SOL     OW 8140   0.594   2.607   9.962
 2463SOL    HW1 8141   0.644   2.692   9.943
 2463SOL    HW2 8142   0.506   2.609   9.914
 2464SOL     OW 8143   1.777   2.204  10.952
 2464SOL    HW1 8144   1.760   2.235  10.858
 2464SOL    HW2 8145   1.693   2.167  10.990
 2465SOL     OW 8146   1.730   2.796  10.827
 2465SOL    HW1 8147   1.768   2.887  10.842
 2465SOL    HW2 8148   1.722   2.779  10.728
 2466SOL     OW 8149   0.859   3.236   9.326
 2466SOL    HW1 8150   0.813   3.251   9.414
 2466SOL    HW2 8151   0.903   3.321   9.296
 2467SOL     OW 8152   0.661   3.652  10.263
 2467SOL    HW1 8153   0.615   3.740  10.250
 2467SOL    HW2 8154   0.760   3.664  10.256
 2468SOL     OW 8155   0.859   2.818  10.171
 2468SOL    HW1 8156   0.913   2.749  10.219
 2468SOL    HW2 8157   0.827   2.887  10.237
 2469SOL     OW 8158   1.083   2.846   9.397
 2469SOL    HW1 8159   1.060   2.899   9.315
 2469SOL    HW2 8160   1.164   2.790   9.378
 2470SOL     OW 8161   1.861   3.431  10.161
 2470SOL    HW1 8162   1.790   3.419  10.091
 2470SOL    HW2 8163   1.862   3.352  10.221
 2471SOL     OW 8164   0.079   3.102   9.963
 2471SOL    HW1 8165   0.078   3.055  10.051
 2471SOL    HW2 8166   0.161   3.074   9.912
 2472SOL     OW 8167   0.672   3.253  10.934
 2472SOL    HW1 8168   0.594   3.203  10.972
 2472SOL    HW2 8169   0.669   3.348  10.965
 2473SOL     OW 8170   1.824   2.054  10.537
 2473SOL    HW1 8171   1.820   1.964  10.581
 2473SOL    HW2 8172   1.827   2.043  10.438
 2474SOL     OW 8173   0.428   2.286   9.830
 2474SOL    HW1 8174   0.458   2.214   9.768
 2474SOL    HW2 8175   0.389   2.246   9.913
 2475SOL     OW 8176   1.705   3.349  10.414
 2475SOL    HW1 8177   1.612   3.324  10.387
 2475SOL    HW2 8178   1.731   3.299  10.496
 2476SOL     OW 8179   0.317   2.409  10.590
 2476SOL    HW1 8180   0.355   2.350  10.662
 2476SOL    HW2 8181   0.357   2.383  10.502
 2477SOL     OW 8182   0.812   3.448   9.997
 2477SOL    HW1 8183   0.844   3.458   9.903
 2477SOL    HW2 8184   0.733   3.386   9.999
 2478SOL     OW 8185   1.424   2.076  10.422
 2478SOL    HW1 8186   1.476   2.011  10.477
 2478SOL    HW2 8187   1.375   2.139  10.483
 2479SOL     OW 8188   1.001   1.896  10.464
 2479SOL    HW1 8189   0.938   1.824  10.433
 2479SOL    HW2 8190   1.094   1.860  10.464
 2480SOL     OW 8191   0.770   3.192   9.611
 2480SOL    HW1 8192   0.724   3.105   9.628
 2480SOL    HW2 8193   0.861   3.189   9.652
 2481SOL     OW 8194   0.618   3.429  10.594
 2481SOL    HW1 8195   0.613   3.511  10.651
 2481SOL    HW2 8196   0.707   3.426  10.549
 2482SOL     OW 8197   1.352   1.914   9.478
 2482SOL    HW1 8198   1.387   1.873   9.394
 2482SOL    HW2 8199   1.262   1.876   9.498
 2483SOL     OW 8200   1.300   2.315  10.001
 2483SOL    HW1 8201   1.241   2.395  10.005
 2483SOL    HW2 8202   1.315   2.280  10.094
 2484SOL     OW 8203   1.593   2.083  10.192
 2484SOL    HW1 8204   1.509   2.082  10.246
 2484SOL    HW2 8205   1.595   2.166  10.136
 2485SOL     OW 8206   0.039   2.939   9.610
 2485SOL    HW1 8207   0.138   2.928   9.601
 2485SOL    HW2 8208  -0.001   2.853   9.642
 2486SOL     OW 8209   0.875   3.508   9.647
 2486SOL    HW1 8210   0.798   3.473   9.593
 2486SOL    HW2 8211   0.843   3.579   9.709
 2487SOL     OW 8212   0.230   4.352   0.113
 2487SOL    HW1 8213   0.137   4.350   0.150
 2487SOL    HW2 8214   0.231   4.313   0.021
 2488SOL     OW 8215   0.225   3.999   0.996
 2488SOL    HW1 8216   0.260   3.982   1.088
 2488SOL    HW2 8217   0.137   3.954   0.984
 2489SOL     OW 8218   0.019   4.092   0.647
 2489SOL    HW1 8219  -0.063   4.135   0.686
 2489SOL    HW2 8220  -0.009   4.019   0.584
 2490SOL     OW 8221   1.755   4.331   0.231
 2490SOL    HW1 8222   1.743   4.318   0.132
 2490SOL    HW2 8223   1.725   4.250   0.280
 2491SOL     OW 8224   0.685   4.736   0.665
 2491SOL    HW1 8225   0.754   4.720   0.735
 2491SOL    HW2 8226   0.612   4.793   0.703
 2492SOL     OW 8227   0.438   4.116   1.499
 2492SOL    HW1 8228   0.520   4.060   1.508
 2492SOL    HW2 8229   0.357   4.058   1.503
 2493SOL     OW 8230   1.603   4.171   0.737
 2493SOL    HW1 8231   1.529   4.217   0.687
 2493SOL    HW2 8232   1.654   4.239   0.790
 2494SOL     OW 8233   1.594   3.838   1.480
 2494SOL    HW1 8234   1.576   3.905   1.408
 2494SOL    HW2 8235   1.591   3.884   1.569
 2495SOL     OW 8236   0.122   4.367   0.563
 2495SOL    HW1 8237   0.077   4.279   0.580
 2495SOL    HW2 8238   0.121   4.421   0.647
 2496SOL     OW 8239   0.113   4.461   1.597
 2496SOL    HW1 8240   0.201   4.448   1.642
 2496SOL    HW2 8241   0.100   4.558   1.575
 2497SOL     OW 8242   0.809   3.728   0.502
 2497SOL    HW1 8243   0.849   3.819   0.493
 2497SOL    HW2 8244   0.709   3.736   0.508
 2498SOL     OW 8245   0.317   3.975   1.801
 2498SOL    HW1 8246   0.388   4.046   1.807
 2498SOL    HW2 8247   0.229   4.014   1.829
 2499SOL     OW 8248   1.281   4.069   0.944
 2499SOL    HW1 8249   1.195   4.019   0.931
 2499SOL    HW2 8250   1.343   4.015   1.000
 2500SOL     OW 8251   0.807   4.329   1.465
 2500SOL    HW1 8252   0.760   4.326   1.554
 2500SOL    HW2 8253   0.756   4.274   1.399
 2501SOL     OW 8254   1.394   4.193   1.674
 2501SOL    HW1 8255   1.374   4.236   1.762
 2501SOL    HW2 8256   1.472   4.131   1.683
 2502SOL     OW 8257   0.991   4.134   1.242
 2502SOL    HW1 8258   0.914   4.168   1.296
 2502SOL    HW2 8259   0.957   4.083   1.163
 2503SOL     OW 8260   1.041   4.425   0.429
 2503SOL    HW1 8261   1.067   4.421   0.525
 2503SOL    HW2 8262   0.956   4.374   0.415
 2504SOL     OW 8263   0.076   4.535   0.789
 2504SOL    HW1 8264   0.175   4.523   0.798
 2504SOL    HW2 8265   0.052   4.630   0.810
 2505SOL     OW 8266   0.865   4.072   0.195
 2505SOL    HW1 8267   0.924   4.135   0.146
 2505SOL    HW2 8268   0.884   3.978   0.166
 2506SOL     OW 8269   1.719   4.309   1.831
 2506SOL    HW1 8270   1.693   4.398   1.795
 2506SOL    HW2 8271   1.717   4.241   1.758
 2507SOL     OW 8272   0.550   3.920   0.885
 2507SOL    HW1 8273   0.545   3.915   0.985
 2507SOL    HW2 8274   0.552   4.016   0.856
 2508SOL     OW 8275   1.458   4.459   0.728
 2508SOL    HW1 8276   1.453   4.394   0.803
 2508SOL    HW2 8277   1.538   4.518   0.741
 2509SOL     OW 8278   0.202   4.009   1.498
 2509SOL    HW1 8279   0.122   4.069   1.485
 2509SOL    HW2 8280   0.192   3.960   1.584
 2510SOL     OW 8281   1.400   3.831   0.426
 2510SOL    HW1 8282   1.376   3.794   0.336
 2510SOL    HW2 8283   1.499   3.847   0.430
 2511SOL     OW 8284   0.382   4.424   0.480
 2511SOL    HW1 8285   0.427   4.334   0.477
 2511SOL    HW2 8286   0.288   4.413   0.513
 2512SOL     OW 8287   1.547   3.946   1.729
 2512SOL    HW1 8288   1.542   3.983   1.821
 2512SOL    HW2 8289   1.475   3.877   1.717
 2513SOL     OW 8290   0.614   3.846   0.117
 2513SOL    HW1 8291   0.712   3.824   0.124
 2513SOL    HW2 8292   0.583   3.829   0.024
 2514SOL     OW 8293   0.781   3.988   1.749
 2514SOL    HW1 8294   0.848   3.927   1.792
 2514SOL    HW2 8295   0.708   4.007   1.814
 2515SOL     OW 8296   1.351   4.314   1.433
 2515SOL    HW1 8297   1.379   4.271   1.518
 2515SOL    HW2 8298   1.376   4.410   1.434
 2516SOL     OW 8299   0.922   4.227   0.899
 2516SOL    HW1 8300   0.897   4.218   0.803
 2516SOL    HW2 8301   0.970   4.145   0.930
 2517SOL     OW 8302   0.539   3.788   0.512
 2517SOL    HW1 8303   0.458   3.789   0.570
 2517SOL    HW2 8304   0.542   3.871   0.457
 2518SOL     OW 8305   0.297   3.759   0.171
 2518SOL    HW1 8306   0.346   3.843   0.150
 2518SOL    HW2 8307   0.359   3.694   0.216
 2519SOL     OW 8308   0.935   3.960   0.480
 2519SOL    HW1 8309   0.887   4.001   0.402
 2519SOL    HW2 8310   1.034   3.958   0.461
 2520SOL     OW 8311   1.076   4.407   1.464
 2520SOL    HW1 8312   0.996   4.346   1.467
 2520SOL    HW2 8313   1.157   4.354   1.440
 2521SOL     OW 8314   1.032   4.273   0.016
 2521SOL    HW1 8315   0.991   4.355  -0.023
 2521SOL    HW2 8316   1.096   4.299   0.089
 2522SOL     OW 8317   0.078   4.280   1.386
 2522SOL    HW1 8318   0.170   4.279   1.345
 2522SOL    HW2 8319   0.072   4.354   1.453
 2523SOL     OW 8320   0.561   3.946   1.147
 2523SOL    HW1 8321   0.599   3.862   1.184
 2523SOL    HW2 8322   0.473   3.965   1.191
 2524SOL     OW 8323   0.866   4.178   0.642
 2524SOL    HW1 8324   0.834   4.250   0.580
 2524SOL    HW2 8325   0.890   4.097   0.589
 2525SOL     OW 8326   1.017   3.763   0.753
 2525SOL    HW1 8327   0.945   3.768   0.684
 2525SOL    HW2 8328   0.993   3.694   0.822
 2526SOL     OW 8329   1.466   4.314   0.992
 2526SOL    HW1 8330   1.436   4.219   0.999
 2526SOL    HW2 8331   1.539   4.330   1.058
 2527SOL     OW 8332   1.390   4.299   0.078
 2527SOL    HW1 8333   1.336   4.278   0.159
 2527SOL    HW2 8334   1.481   4.258   0.087
 2528SOL     OW 8335   0.527   3.980   0.328
 2528SOL    HW1 8336   0.554   3.921   0.253
 2528SOL    HW2 8337   0.527   4.075   0.297
 2529SOL     OW 8338   0.915   3.813   1.402
 2529SOL    HW1 8339   0.940   3.793   1.307
 2529SOL    HW2 8340   0.987   3.869   1.444
 2530SOL     OW 8341   0.410   4.537   1.251
 2530SOL    HW1 8342   0.496   4.549   1.301
 2530SOL    HW2 8343   0.368   4.450   1.278
 2531SOL     OW 8344   1.274   4.110   1.262
 2531SOL    HW1 8345   1.295   4.184   1.326
 2531SOL    HW2 8346   1.185   4.127   1.219
 2532SOL     OW 8347   0.566   4.261   0.865
 2532SOL    HW1 8348   0.578   4.327   0.791
 2532SOL    HW2 8349   0.612   4.295   0.948
 2533SOL     OW 8350   1.582   4.363   0.472
 2533SOL    HW1 8351   1.551   4.424   0.545
 2533SOL    HW2 8352   1.632   4.415   0.403
 2534SOL     OW 8353   1.013   3.829   1.770
 2534SOL    HW1 8354   1.019   3.914   1.718
 2534SOL    HW2 8355   1.045   3.753   1.713
 2535SOL     OW 8356   0.504   3.774   1.740
 2535SOL    HW1 8357   0.462   3.717   1.670
 2535SOL    HW2 8358   0.438   3.843   1.772
 2536SOL     OW 8359   1.209   4.249   0.275
 2536SOL    HW1 8360   1.222   4.165   0.329
 2536SOL    HW2 8361   1.180   4.323   0.335
 2537SOL     OW 8362   0.307   3.937   1.231
 2537SOL    HW1 8363   0.284   3.974   1.321
 2537SOL    HW2 8364   0.277   3.842   1.225
 2538SOL     OW 8365   0.732   4.358   1.064
 2538SOL    HW1 8366   0.791   4.332   0.988
 2538SOL    HW2 8367   0.704   4.454   1.053
 2539SOL     OW 8368   1.728   4.659   1.854
 2539SOL    HW1 8369   1.682   4.652   1.765
 2539SOL    HW2 8370   1.666   4.703   1.920
 2540SOL     OW 8371   0.307   3.787   0.618
 2540SOL    HW1 8372   0.296   3.881   0.651
 2540SOL    HW2 8373   0.302   3.724   0.695
 2541SOL     OW 8374   1.622   4.091   0.374
 2541SOL    HW1 8375   1.624   4.015   0.438
 2541SOL    HW2 8376   1.574   4.168   0.414
 2542SOL     OW 8377   1.540   3.998   0.125
 2542SOL    HW1 8378   1.479   3.923   0.148
 2542SOL    HW2 8379   1.562   4.050   0.208
 2543SOL     OW 8380   0.319   4.534   0.949
 2543SOL    HW1 8381   0.412   4.570   0.954
 2543SOL    HW2 8382   0.313   4.449   1.001
 2544SOL     OW 8383   0.339   4.233   1.006
 2544SOL    HW1 8384   0.287   4.150   0.989
 2544SOL    HW2 8385   0.416   4.238   0.942
 2545SOL     OW 8386   1.138   4.104   1.678
 2545SOL    HW1 8387   1.093   4.167   1.742
 2545SOL    HW2 8388   1.231   4.135   1.661
 2546SOL     OW 8389   1.160   3.931   1.477
 2546SOL    HW1 8390   1.160   3.995   1.554
 2546SOL    HW2 8391   1.188   3.979   1.394
 2547SOL     OW 8392   0.040   4.268   1.114
 2547SOL    HW1 8393   0.125   4.235   1.073
 2547SOL    HW2 8394   0.053   4.283   1.212
 2548SOL     OW 8395   0.189   4.244   1.722
 2548SOL    HW1 8396   0.248   4.204   1.652
 2548SOL    HW2 8397   0.131   4.315   1.681
 2549SOL     OW 8398   0.815   4.296   0.325
 2549SOL    HW1 8399   0.822   4.207   0.279
 2549SOL    HW2 8400   0.721   4.330   0.317
 2550SOL     OW 8401   1.657   4.328   1.206
 2550SOL    HW1 8402   1.619   4.259   1.268
 2550SOL    HW2 8403   1.739   4.292   1.162
 2551SOL     OW 8404   0.671   4.188   1.269
 2551SOL    HW1 8405   0.637   4.099   1.239
 2551SOL    HW2 8406   0.697   4.242   1.189
 2552SOL     OW 8407   0.473   4.224   0.191
 2552SOL    HW1 8408   0.534   4.304   0.195
 2552SOL    HW2 8409   0.378   4.255   0.198
 2553SOL     OW 8410   0.903   3.810   0.133
 2553SOL    HW1 8411   0.954   3.811   0.047
 2553SOL    HW2 8412   0.959   3.768   0.204
 2554SOL     OW 8413   1.726   3.859   0.523
 2554SOL    HW1 8414   1.799   3.842   0.456
 2554SOL    HW2 8415   1.695   3.772   0.561
 2555SOL     OW 8416   1.280   4.651   0.672
 2555SOL    HW1 8417   1.340   4.570   0.674
 2555SOL    HW2 8418   1.320   4.720   0.612
 2556SOL     OW 8419   1.841   3.899   0.963
 2556SOL    HW1 8420   1.880   3.814   0.927
 2556SOL    HW2 8421   1.743   3.901   0.944
 2557SOL     OW 8422   0.263   4.050   0.720
 2557SOL    HW1 8423   0.184   4.101   0.686
 2557SOL    HW2 8424   0.254   4.035   0.818
 2558SOL     OW 8425   1.039   4.822   0.696
 2558SOL    HW1 8426   0.969   4.775   0.750
 2558SOL    HW2 8427   1.098   4.754   0.653
 2559SOL     OW 8428   1.014   3.960   0.971
 2559SOL    HW1 8429   1.006   3.924   0.878
 2559SOL    HW2 8430   1.012   3.884   1.036
 2560SOL     OW 8431   1.709   4.109   1.381
 2560SOL    HW1 8432   1.782   4.178   1.385
 2560SOL    HW2 8433   1.737   4.034   1.322
 2561SOL     OW 8434   0.672   3.927   1.489
 2561SOL    HW1 8435   0.762   3.911   1.449
 2561SOL    HW2 8436   0.680   3.932   1.588
 2562SOL     OW 8437   0.075   4.069   0.033
 2562SOL    HW1 8438  -0.017   4.041   0.004
 2562SOL    HW2 8439   0.106   4.146  -0.023
 2563SOL     OW 8440   0.072   3.890   0.318
 2563SOL    HW1 8441   0.055   3.973   0.264
 2563SOL    HW2 8442   0.162   3.853   0.296
 2564SOL     OW 8443   0.716   4.289   1.708
 2564SOL    HW1 8444   0.735   4.354   1.782
 2564SOL    HW2 8445   0.776   4.209   1.717
 2565SOL     OW 8446   1.225   4.049   0.449
 2565SOL    HW1 8447   1.290   3.975   0.438
 2565SOL    HW2 8448   1.245   4.099   0.533
 2566SOL     OW 8449   1.777   4.066   1.642
 2566SOL    HW1 8450   1.760   4.097   1.548
 2566SOL    HW2 8451   1.693   4.029   1.680
 2567SOL     OW 8452   1.083   4.708   0.087
 2567SOL    HW1 8453   1.060   4.761   0.005
 2567SOL    HW2 8454   1.164   4.652   0.068
 2568SOL     OW 8455   1.824   3.916   1.227
 2568SOL    HW1 8456   1.820   3.826   1.271
 2568SOL    HW2 8457   1.827   3.905   1.128
 2569SOL     OW 8458   0.428   4.148   0.520
 2569SOL    HW1 8459   0.458   4.076   0.458
 2569SOL    HW2 8460   0.389   4.108   0.603
 2570SOL     OW 8461   0.317   4.271   1.280
 2570SOL    HW1 8462   0.355   4.212   1.352
 2570SOL    HW2 8463   0.357   4.245   1.192
 2571SOL     OW 8464   1.424   3.938   1.112
 2571SOL    HW1 8465   1.476   3.873   1.167
 2571SOL    HW2 8466   1.375   4.001   1.173
 2572SOL     OW 8467   1.001   3.758   1.154
 2572SOL    HW1 8468   0.938   3.686   1.123
 2572SOL    HW2 8469   1.094   3.722   1.154
 2573SOL     OW 8470   1.352   3.776   0.168
 2573SOL    HW1 8471   1.387   3.735   0.084
 2573SOL    HW2 8472   1.262   3.738   0.188
 2574SOL     OW 8473   1.300   4.177   0.691
 2574SOL    HW1 8474   1.241   4.257   0.695
 2574SOL    HW2 8475   1.315   4.142   0.784
 2575SOL     OW 8476   1.593   3.945   0.882
 2575SOL    HW1 8477   1.509   3.944   0.936
 2575SOL    HW2 8478   1.595   4.028   0.826
 2576SOL     OW 8479   0.230   4.352   1.975
 2576SOL    HW1 8480   0.137   4.350   2.012
 2576SOL    HW2 8481   0.231   4.313   1.883
 2577SOL     OW 8482   0.225   3.999   2.858
 2577SOL    HW1 8483   0.260   3.982   2.950
 2577SOL    HW2 8484   0.137   3.954   2.846
 2578SOL     OW 8485   0.019   4.092   2.509
 2578SOL    HW1 8486  -0.063   4.135   2.548
 2578SOL    HW2 8487  -0.009   4.019   2.446
 2579SOL     OW 8488   1.755   4.331   2.093
 2579SOL    HW1 8489   1.743   4.318   1.994
 2579SOL    HW2 8490   1.725   4.250   2.142
 2580SOL     OW 8491   0.685   4.736   2.527
 2580SOL    HW1 8492   0.754   4.720   2.597
 2580SOL    HW2 8493   0.612   4.793   2.565
 2581SOL     OW 8494   0.438   4.116   3.361
 2581SOL    HW1 8495   0.520   4.060   3.370
 2581SOL    HW2 8496   0.357   4.058   3.365
 2582SOL     OW 8497   1.603   4.171   2.599
 2582SOL    HW1 8498   1.529   4.217   2.549
 2582SOL    HW2 8499   1.654   4.239   2.652
 2583SOL     OW 8500   1.594   3.838   3.342
 2583SOL    HW1 8501   1.576   3.905   3.270
 2583SOL    HW2 8502   1.591   3.884   3.431
 2584SOL     OW 8503   0.122   4.367   2.425
 2584SOL    HW1 8504   0.077   4.279   2.442
 2584SOL    HW2 8505   0.121   4.421   2.509
 2585SOL     OW 8506   0.113   4.461   3.459
 2585SOL    HW1 8507   0.201   4.448   3.504
 2585SOL    HW2 8508   0.100   4.558   3.437
 2586SOL     OW 8509   0.809   3.728   2.364
 2586SOL    HW1 8510   0.849   3.819   2.355
 2586SOL    HW2 8511   0.709   3.736   2.370
 2587SOL     OW 8512   0.317   3.975   3.663
 2587SOL    HW1 8513   0.388   4.046   3.669
 2587SOL    HW2 8514   0.229   4.014   3.691
 2588SOL     OW 8515   1.281   4.069   2.806
 2588SOL    HW1 8516   1.195   4.019   2.793
 2588SOL    HW2 8517   1.343   4.015   2.862
 2589SOL     OW 8518   0.807   4.329   3.327
 2589SOL    HW1 8519   0.760   4.326   3.416
 2589SOL    HW2 8520   0.756   4.274   3.261
 2590SOL     OW 8521   1.394   4.193   3.536
 2590SOL    HW1 8522   1.374   4.236   3.624
 2590SOL    HW2 8523   1.472   4.131   3.545
 2591SOL     OW 8524   0.991   4.134   3.104
 2591SOL    HW1 8525   0.914   4.168   3.158
 2591SOL    HW2 8526   0.957   4.083   3.025
 2592SOL     OW 8527   1.041   4.425   2.291
 2592SOL    HW1 8528   1.067   4.421   2.387
 2592SOL    HW2 8529   0.956   4.374   2.277
 2593SOL     OW 8530   0.076   4.535   2.651
 2593SOL    HW1 8531   0.175   4.523   2.660
 2593SOL    HW2 8532   0.052   4.630   2.672
 2594SOL     OW 8533   0.865   4.072   2.057
 2594SOL    HW1 8534   0.924   4.135   2.008
 2594SOL    HW2 8535   0.884   3.978   2.028
 2595SOL     OW 8536   1.719   4.309   3.693
 2595SOL    HW1 8537   1.693   4.398   3.657
 2595SOL    HW2 8538   1.717   4.241   3.620
 2596SOL     OW 8539   0.550   3.920   2.747
 2596SOL    HW1 8540   0.545   3.915   2.847
 2596SOL    HW2 8541   0.552   4.016   2.718
 2597SOL     OW 8542   1.458   4.459   2.590
 2597SOL    HW1 8543   1.453   4.394   2.665
 2597SOL    HW2 8544   1.538   4.518   2.603
 2598SOL     OW 8545   0.202   4.009   3.360
 2598SOL    HW1 8546   0.122   4.069   3.347
 2598SOL    HW2 8547   0.192   3.960   3.446
 2599SOL     OW 8548   1.400   3.831   2.288
 2599SOL    HW1 8549   1.376   3.794   2.198
 2599SOL    HW2 8550   1.499   3.847   2.292
 2600SOL     OW 8551   0.382   4.424   2.342
 2600SOL    HW1 8552   0.427   4.334   2.339
 2600SOL    HW2 8553   0.288   4.413   2.375
 2601SOL     OW 8554   1.547   3.946   3.591
 2601SOL    HW1 8555   1.542   3.983   3.683
 2601SOL    HW2 8556   1.475   3.877   3.579
 2602SOL     OW 8557   0.614   3.846   1.979
 2602SOL    HW1 8558   0.712   3.824   1.986
 2602SOL    HW2 8559   0.583   3.829   1.886
 2603SOL     OW 8560   0.781   3.988   3.611
 2603SOL    HW1 8561   0.848   3.927   3.654
 2603SOL    HW2 8562   0.708   4.007   3.676
 2604SOL     OW 8563   1.351   4.314   3.295
 2604SOL    HW1 8564   1.379   4.271   3.380
 2604SOL    HW2 8565   1.376   4.410   3.296
 2605SOL     OW 8566   0.922   4.227   2.761
 2605SOL    HW1 8567   0.897   4.218   2.665
 2605SOL    HW2 8568   0.970   4.145   2.792
 2606SOL     OW 8569   0.539   3.788   2.374
 2606SOL    HW1 8570   0.458   3.789   2.432
 2606SOL    HW2 8571   0.542   3.871   2.319
 2607SOL     OW 8572   0.297   3.759   2.033
 2607SOL    HW1 8573   0.346   3.843   2.012
 2607SOL    HW2 8574   0.359   3.694   2.078
 2608SOL     OW 8575   0.935   3.960   2.342
 2608SOL    HW1 8576   0.887   4.001   2.264
 2608SOL    HW2 8577   1.034   3.958   2.323
 2609SOL     OW 8578   1.076   4.407   3.326
 2609SOL    HW1 8579   0.996   4.346   3.329
 2609SOL    HW2 8580   1.157   4.354   3.302
 2610SOL     OW 8581   1.032   4.273   1.878
 2610SOL    HW1 8582   0.991   4.355   1.839
 2610SOL    HW2 8583   1.096   4.299   1.951
 2611SOL     OW 8584   0.078   4.280   3.248
 2611SOL    HW1 8585   0.170   4.279   3.207
 2611SOL    HW2 8586   0.072   4.354   3.315
 2612SOL     OW 8587   0.561   3.946   3.009
 2612SOL    HW1 8588   0.599   3.862   3.046
 2612SOL    HW2 8589   0.473   3.965   3.053
 2613SOL     OW 8590   0.866   4.178   2.504
 2613SOL    HW1 8591   0.834   4.250   2.442
 2613SOL    HW2 8592   0.890   4.097   2.451
 2614SOL     OW 8593   1.017   3.763   2.615
 2614SOL    HW1 8594   0.945   3.768   2.546
 2614SOL    HW2 8595   0.993   3.694   2.684
 2615SOL     OW 8596   1.466   4.314   2.854
 2615SOL    HW1 8597   1.436   4.219   2.861
 2615SOL    HW2 8598   1.539   4.330   2.920
 2616SOL     OW 8599   1.390   4.299   1.940
 2616SOL    HW1 8600   1.336   4.278   2.021
 2616SOL    HW2 8601   1.481   4.258   1.949
 2617SOL     OW 8602   0.527   3.980   2.190
 2617SOL    HW1 8603   0.554   3.921   2.115
 2617SOL    HW2 8604   0.527   4.075   2.159
 2618SOL     OW 8605   0.915   3.813   3.264
 2618SOL    HW1 8606   0.940   3.793   3.169
 2618SOL    HW2 8607   0.987   3.869   3.306
 2619SOL     OW 8608   0.410   4.537   3.113
 2619SOL    HW1 8609   0.496   4.549   3.163
 2619SOL    HW2 8610   0.368   4.450   3.140
 2620SOL     OW 8611   1.274   4.110   3.124
 2620SOL    HW1 8612   1.295   4.184   3.188
 2620SOL    HW2 8613   1.185   4.127   3.081
 2621SOL     OW 8614   0.566   4.261   2.727
 2621SOL    HW1 8615   0.578   4.327   2.653
 2621SOL    HW2 8616   0.612   4.295   2.810
 2622SOL     OW 8617   1.582   4.363   2.334
 2622SOL    HW1 8618   1.551   4.424   2.407
 2622SOL    HW2 8619   1.632   4.415   2.265
 2623SOL     OW 8620   1.013   3.829   3.632
 2623SOL    HW1 8621   1.019   3.914   3.580
 2623SOL    HW2 8622   1.045   3.753   3.575
 2624SOL     OW 8623   0.504   3.774   3.602
 2624SOL    HW1 8624   0.462   3.717   3.532
 2624SOL    HW2 8625   0.438   3.843   3.634
 2625SOL     OW 8626   1.209   4.249   2.137
 2625SOL    HW1 8627   1.222   4.165   2.191
 2625SOL    HW2 8628   1.180   4.323   2.197
 2626SOL     OW 8629   0.307   3.937   3.093
 2626SOL    HW1 8630   0.284   3.974   3.183
 2626SOL    HW2 8631   0.277   3.842   3.087
 2627SOL     OW 8632   0.732   4.358   2.926
 2627SOL    HW1 8633   0.791   4.332   2.850
 2627SOL    HW2 8634   0.704   4.454   2.915
 2628SOL     OW 8635   1.728   4.659   3.716
 2628SOL    HW1 8636   1.682   4.652   3.627
 2628SOL    HW2 8637   1.666   4.703   3.782
 2629SOL     OW 8638   0.307   3.787   2.480
 2629SOL    HW1 8639   0.296   3.881   2.513
 2629SOL    HW2 8640   0.302   3.724   2.557
 2630SOL     OW 8641   1.622   4.091   2.236
 2630SOL    HW1 8642   1.624   4.015   2.300
 2630SOL    HW2 8643   1.574   4.168   2.276
 2631SOL     OW 8644   1.540   3.998   1.987
 2631SOL    HW1 8645   1.479   3.923   2.010
 2631SOL    HW2 8646   1.562   4.050   2.070
 2632SOL     OW 8647   0.319   4.534   2.811
 2632SOL    HW1 8648   0.412   4.570   2.816
 2632SOL    HW2 8649   0.313   4.449   2.863
 2633SOL     OW 8650   0.339   4.233   2.868
 2633SOL    HW1 8651   0.287   4.150   2.851
 2633SOL    HW2 8652   0.416   4.238   2.804
 2634SOL     OW 8653   1.138   4.104   3.540
 2634SOL    HW1 8654   1.093   4.167   3.604
 2634SOL    HW2 8655   1.231   4.135   3.523
 2635SOL     OW 8656   1.160   3.931   3.339
 2635SOL    HW1 8657   1.160   3.995   3.416
 2635SOL    HW2 8658   1.188   3.979   3.256
 2636SOL     OW 8659   0.040   4.268   2.976
 2636SOL    HW1 8660   0.125   4.235   2.935
 2636SOL    HW2 8661   0.053   4.283   3.074
 2637SOL     OW 8662   0.189   4.244   3.584
 2637SOL    HW1 8663   0.248   4.204   3.514
 2637SOL    HW2 8664   0.131   4.315   3.543
 2638SOL     OW 8665   0.815   4.296   2.187
 2638SOL    HW1 8666   0.822   4.207   2.141
 2638SOL    HW2 8667   0.721   4.330   2.179
 2639SOL     OW 8668   1.657   4.328   3.068
 2639SOL    HW1 8669   1.619   4.259   3.130
 2639SOL    HW2 8670   1.739   4.292   3.024
 2640SOL     OW 8671   0.671   4.188   3.131
 2640SOL    HW1 8672   0.637   4.099   3.101
 2640SOL    HW2 8673   0.697   4.242   3.051
 2641SOL     OW 8674   0.473   4.224   2.053
 2641SOL    HW1 8675   0.534   4.304   2.057
 2641SOL    HW2 8676   0.378   4.255   2.060
 2642SOL     OW 8677   1.726   3.859   2.385
 2642SOL    HW1 8678   1.799   3.842   2.318
 2642SOL    HW2 8679   1.695   3.772   2.423
 2643SOL     OW 8680   1.280   4.651   2.534
 2643SOL    HW1 8681   1.340   4.570   2.536
 2643SOL    HW2 8682   1.320   4.720   2.474
 2644SOL     OW 8683   1.841   3.899   2.825
 2644SOL    HW1 8684   1.880   3.814   2.789
 2644SOL    HW2 8685   1.743   3.901   2.806
 2645SOL     OW 8686   0.263   4.050   2.582
 2645SOL    HW1 8687   0.184   4.101   2.548
 2645SOL    HW2 8688   0.254   4.035   2.680
 2646SOL     OW 8689   0.916   4.634   2.153
 2646SOL    HW1 8690   0.979   4.672   2.085
 2646SOL    HW2 8691   0.956   4.551   2.192
 2647SOL     OW 8692   1.039   4.822   2.558
 2647SOL    HW1 8693   0.969   4.775   2.612
 2647SOL    HW2 8694   1.098   4.754   2.515
 2648SOL     OW 8695   1.014   3.960   2.833
 2648SOL    HW1 8696   1.006   3.924   2.740
 2648SOL    HW2 8697   1.012   3.884   2.898
 2649SOL     OW 8698   1.709   4.109   3.243
 2649SOL    HW1 8699   1.782   4.178   3.247
 2649SOL    HW2 8700   1.737   4.034   3.184
 2650SOL     OW 8701   0.672   3.927   3.351
 2650SOL    HW1 8702   0.762   3.911   3.311
 2650SOL    HW2 8703   0.680   3.932   3.450
 2651SOL     OW 8704   0.075   4.069   1.895
 2651SOL    HW1 8705  -0.017   4.041   1.866
 2651SOL    HW2 8706   0.106   4.146   1.839
 2652SOL     OW 8707   0.072   3.890   2.180
 2652SOL    HW1 8708   0.055   3.973   2.126
 2652SOL    HW2 8709   0.162   3.853   2.158
 2653SOL     OW 8710   0.716   4.289   3.570
 2653SOL    HW1 8711   0.735   4.354   3.644
 2653SOL    HW2 8712   0.776   4.209   3.579
 2654SOL     OW 8713   1.225   4.049   2.311
 2654SOL    HW1 8714   1.290   3.975   2.300
 2654SOL    HW2 8715   1.245   4.099   2.395
 2655SOL     OW 8716   1.777   4.066   3.504
 2655SOL    HW1 8717   1.760   4.097   3.410
 2655SOL    HW2 8718   1.693   4.029   3.542
 2656SOL     OW 8719   1.083   4.708   1.949
 2656SOL    HW1 8720   1.060   4.761   1.867
 2656SOL    HW2 8721   1.164   4.652   1.930
 2657SOL     OW 8722   1.824   3.916   3.089
 2657SOL    HW1 8723   1.820   3.826   3.133
 2657SOL    HW2 8724   1.827   3.905   2.990
 2658SOL     OW 8725   0.428   4.148   2.382
 2658SOL    HW1 8726   0.458   4.076   2.320
 2658SOL    HW2 8727   0.389   4.108   2.465
 2659SOL     OW 8728   0.317   4.271   3.142
 2659SOL    HW1 8729   0.355   4.212   3.214
 2659SOL    HW2 8730   0.357   4.245   3.054
 2660SOL     OW 8731   1.424   3.938   2.974
 2660SOL    HW1 8732   1.476   3.873   3.029
 2660SOL    HW2 8733   1.375   4.001   3.035
 2661SOL     OW 8734   1.001   3.758   3.016
 2661SOL    HW1 8735   0.938   3.686   2.985
 2661SOL    HW2 8736   1.094   3.722   3.016
 2662SOL     OW 8737   1.352   3.776   2.030
 2662SOL    HW1 8738   1.387   3.735   1.946
 2662SOL    HW2 8739   1.262   3.738   2.050
 2663SOL     OW 8740   1.300   4.177   2.553
 2663SOL    HW1 8741   1.241   4.257   2.557
 2663SOL    HW2 8742   1.315   4.142   2.646
 2664SOL     OW 8743   1.593   3.945   2.744
 2664SOL    HW1 8744   1.509   3.944   2.798
 2664SOL    HW2 8745   1.595   4.028   2.688
 2665SOL     OW 8746   0.230   4.352   3.837
 2665SOL    HW1 8747   0.137   4.350   3.874
 2665SOL    HW2 8748   0.231   4.313   3.745
 2666SOL     OW 8749   0.225   3.999   4.720
 2666SOL    HW1 8750   0.260   3.982   4.812
 2666SOL    HW2 8751   0.137   3.954   4.708
 2667SOL     OW 8752   0.019   4.092   4.371
 2667SOL    HW1 8753  -0.063   4.135   4.410
 2667SOL    HW2 8754  -0.009   4.019   4.308
 2668SOL     OW 8755   1.755   4.331   3.955
 2668SOL    HW1 8756   1.743   4.318   3.856
 2668SOL    HW2 8757   1.725   4.250   4.004
 2669SOL     OW 8758   0.685   4.736   4.389
 2669SOL    HW1 8759   0.754   4.720   4.459
 2669SOL    HW2 8760   0.612   4.793   4.427
 2670SOL     OW 8761   0.438   4.116   5.223
 2670SOL    HW1 8762   0.520   4.060   5.232
 2670SOL    HW2 8763   0.357   4.058   5.227
 2671SOL     OW 8764   1.603   4.171   4.461
 2671SOL    HW1 8765   1.529   4.217   4.411
 2671SOL    HW2 8766   1.654   4.239   4.514
 2672SOL     OW 8767   1.594   3.838   5.204
 2672SOL    HW1 8768   1.576   3.905   5.132
 2672SOL    HW2 8769   1.591   3.884   5.293
 2673SOL     OW 8770   0.122   4.367   4.287
 2673SOL    HW1 8771   0.077   4.279   4.304
 2673SOL    HW2 8772   0.121   4.421   4.371
 2674SOL     OW 8773   0.113   4.461   5.321
 2674SOL    HW1 8774   0.201   4.448   5.366
 2674SOL    HW2 8775   0.100   4.558   5.299
 2675SOL     OW 8776   0.809   3.728   4.226
 2675SOL    HW1 8777   0.849   3.819   4.217
 2675SOL    HW2 8778   0.709   3.736   4.232
 2676SOL     OW 8779   0.317   3.975   5.525
 2676SOL    HW1 8780   0.388   4.046   5.531
 2676SOL    HW2 8781   0.229   4.014   5.553
 2677SOL     OW 8782   1.281   4.069   4.668
 2677SOL    HW1 8783   1.195   4.019   4.655
 2677SOL    HW2 8784   1.343   4.015   4.724
 2678SOL     OW 8785   0.807   4.329   5.189
 2678SOL    HW1 8786   0.760   4.326   5.278
 2678SOL    HW2 8787   0.756   4.274   5.123
 2679SOL     OW 8788   1.394   4.193   5.398
 2679SOL    HW1 8789   1.374   4.236   5.486
 2679SOL    HW2 8790   1.472   4.131   5.407
 2680SOL     OW 8791   0.991   4.134   4.966
 2680SOL    HW1 8792   0.914   4.168   5.020
 2680SOL    HW2 8793   0.957   4.083   4.887
 2681SOL     OW 8794   1.041   4.425   4.153
 2681SOL    HW1 8795   1.067   4.421   4.249
 2681SOL    HW2 8796   0.956   4.374   4.139
 2682SOL     OW 8797   0.076   4.535   4.513
 2682SOL    HW1 8798   0.175   4.523   4.522
 2682SOL    HW2 8799   0.052   4.630   4.534
 2683SOL     OW 8800   0.865   4.072   3.919
 2683SOL    HW1 8801   0.924   4.135   3.870
 2683SOL    HW2 8802   0.884   3.978   3.890
 2684SOL     OW 8803   1.719   4.309   5.555
 2684SOL    HW1 8804   1.693   4.398   5.519
 2684SOL    HW2 8805   1.717   4.241   5.482
 2685SOL     OW 8806   0.550   3.920   4.609
 2685SOL    HW1 8807   0.545   3.915   4.709
 2685SOL    HW2 8808   0.552   4.016   4.580
 2686SOL     OW 8809   1.458   4.459   4.452
 2686SOL    HW1 8810   1.453   4.394   4.527
 2686SOL    HW2 8811   1.538   4.518   4.465
 2687SOL     OW 8812   0.202   4.009   5.222
 2687SOL    HW1 8813   0.122   4.069   5.209
 2687SOL    HW2 8814   0.192   3.960   5.308
 2688SOL     OW 8815   1.400   3.831   4.150
 2688SOL    HW1 8816   1.376   3.794   4.060
 2688SOL    HW2 8817   1.499   3.847   4.154
 2689SOL     OW 8818   0.382   4.424   4.204
 2689SOL    HW1 8819   0.427   4.334   4.201
 2689SOL    HW2 8820   0.288   4.413   4.237
 2690SOL     OW 8821   1.547   3.946   5.453
 2690SOL    HW1 8822   1.542   3.983   5.545
 2690SOL    HW2 8823   1.475   3.877   5.441
 2691SOL     OW 8824   0.614   3.846   3.841
 2691SOL    HW1 8825   0.712   3.824   3.848
 2691SOL    HW2 8826   0.583   3.829   3.748
 2692SOL     OW 8827   0.781   3.988   5.473
 2692SOL    HW1 8828   0.848   3.927   5.516
 2692SOL    HW2 8829   0.708   4.007   5.538
 2693SOL     OW 8830   1.351   4.314   5.157
 2693SOL    HW1 8831   1.379   4.271   5.242
 2693SOL    HW2 8832   1.376   4.410   5.158
 2694SOL     OW 8833   0.922   4.227   4.623
 2694SOL    HW1 8834   0.897   4.218   4.527
 2694SOL    HW2 8835   0.970   4.145   4.654
 2695SOL     OW 8836   0.539   3.788   4.236
 2695SOL    HW1 8837   0.458   3.789   4.294
 2695SOL    HW2 8838   0.542   3.871   4.181
 2696SOL     OW 8839   0.297   3.759   3.895
 2696SOL    HW1 8840   0.346   3.843   3.874
 2696SOL    HW2 8841   0.359   3.694   3.940
 2697SOL     OW 8842   0.935   3.960   4.204
 2697SOL    HW1 8843   0.887   4.001   4.126
 2697SOL    HW2 8844   1.034   3.958   4.185
 2698SOL     OW 8845   1.076   4.407   5.188
 2698SOL    HW1 8846   0.996   4.346   5.191
 2698SOL    HW2 8847   1.157   4.354   5.164
 2699SOL     OW 8848   1.032   4.273   3.740
 2699SOL    HW1 8849   0.991   4.355   3.701
 2699SOL    HW2 8850   1.096   4.299   3.813
 2700SOL     OW 8851   0.078   4.280   5.110
 2700SOL    HW1 8852   0.170   4.279   5.069
 2700SOL    HW2 8853   0.072   4.354   5.177
 2701SOL     OW 8854   0.561   3.946   4.871
 2701SOL    HW1 8855   0.599   3.862   4.908
 2701SOL    HW2 8856   0.473   3.965   4.915
 2702SOL     OW 8857   0.866   4.178   4.366
 2702SOL    HW1 8858   0.834   4.250   4.304
 2702SOL    HW2 8859   0.890   4.097   4.313
 2703SOL     OW 8860   1.017   3.763   4.477
 2703SOL    HW1 8861   0.945   3.768   4.408
 2703SOL    HW2 8862   0.993   3.694   4.546
 2704SOL     OW 8863   1.466   4.314   4.716
 2704SOL    HW1 8864   1.436   4.219   4.723
 2704SOL    HW2 8865   1.539   4.330   4.782
 2705SOL     OW 8866   1.390   4.299   3.802
 2705SOL    HW1 8867   1.336   4.278   3.883
 2705SOL    HW2 8868   1.481   4.258   3.811
 2706SOL     OW 8869   0.527   3.980   4.052
 2706SOL    HW1 8870   0.554   3.921   3.977
 2706SOL    HW2 8871   0.527   4.075   4.021
 2707SOL     OW 8872   0.915   3.813   5.126
 2707SOL    HW1 8873   0.940   3.793   5.031
 2707SOL    HW2 8874   0.987   3.869   5.168
 2708SOL     OW 8875   0.410   4.537   4.975
 2708SOL    HW1 8876   0.496   4.549   5.025
 2708SOL    HW2 8877   0.368   4.450   5.002
 2709SOL     OW 8878   1.274   4.110   4.986
 2709SOL    HW1 8879   1.295   4.184   5.050
 2709SOL    HW2 8880   1.185   4.127   4.943
 2710SOL     OW 8881   0.566   4.261   4.589
 2710SOL    HW1 8882   0.578   4.327   4.515
 2710SOL    HW2 8883   0.612   4.295   4.672
 2711SOL     OW 8884   1.582   4.363   4.196
 2711SOL    HW1 8885   1.551   4.424   4.269
 2711SOL    HW2 8886   1.632   4.415   4.127
 2712SOL     OW 8887   1.013   3.829   5.494
 2712SOL    HW1 8888   1.019   3.914   5.442
 2712SOL    HW2 8889   1.045   3.753   5.437
 2713SOL     OW 8890   0.504   3.774   5.464
 2713SOL    HW1 8891   0.462   3.717   5.394
 2713SOL    HW2 8892   0.438   3.843   5.496
 2714SOL     OW 8893   1.209   4.249   3.999
 2714SOL    HW1 8894   1.222   4.165   4.053
 2714SOL    HW2 8895   1.180   4.323   4.059
 2715SOL     OW 8896   0.307   3.937   4.955
 2715SOL    HW1 8897   0.284   3.974   5.045
 2715SOL    HW2 8898   0.277   3.842   4.949
 2716SOL     OW 8899   0.732   4.358   4.788
 2716SOL    HW1 8900   0.791   4.332   4.712
 2716SOL    HW2 8901   0.704   4.454   4.777
 2717SOL     OW 8902   1.728   4.659   5.578
 2717SOL    HW1 8903   1.682   4.652   5.489
 2717SOL    HW2 8904   1.666   4.703   5.644
 2718SOL     OW 8905   0.307   3.787   4.342
 2718SOL    HW1 8906   0.296   3.881   4.375
 2718SOL    HW2 8907   0.302   3.724   4.419
 2719SOL     OW 8908   1.622   4.091   4.098
 2719SOL    HW1 8909   1.624   4.015   4.162
 2719SOL    HW2 8910   1.574   4.168   4.138
 2720SOL     OW 8911   1.540   3.998   3.849
 2720SOL    HW1 8912   1.479   3.923   3.872
 2720SOL    HW2 8913   1.562   4.050   3.932
 2721SOL     OW 8914   0.319   4.534   4.673
 2721SOL    HW1 8915   0.412   4.570   4.678
 2721SOL    HW2 8916   0.313   4.449   4.725
 2722SOL     OW 8917   0.339   4.233   4.730
 2722SOL    HW1 8918   0.287   4.150   4.713
 2722SOL    HW2 8919   0.416   4.238   4.666
 2723SOL     OW 8920   1.138   4.104   5.402
 2723SOL    HW1 8921   1.093   4.167   5.466
 2723SOL    HW2 8922   1.231   4.135   5.385
 2724SOL     OW 8923   1.160   3.931   5.201
 2724SOL    HW1 8924   1.160   3.995   5.278
 2724SOL    HW2 8925   1.188   3.979   5.118
 2725SOL     OW 8926   0.040   4.268   4.838
 2725SOL    HW1 8927   0.125   4.235   4.797
 2725SOL    HW2 8928   0.053   4.283   4.936
 2726SOL     OW 8929   0.189   4.244   5.446
 2726SOL    HW1 8930   0.248   4.204   5.376
 2726SOL    HW2 8931   0.131   4.315   5.405
 2727SOL     OW 8932   0.815   4.296   4.049
 2727SOL    HW1 8933   0.822   4.207   4.003
 2727SOL    HW2 8934   0.721   4.330   4.041
 2728SOL     OW 8935   1.657   4.328   4.930
 2728SOL    HW1 8936   1.619   4.259   4.992
 2728SOL    HW2 8937   1.739   4.292   4.886
 2729SOL     OW 8938   0.671   4.188   4.993
 2729SOL    HW1 8939   0.637   4.099   4.963
 2729SOL    HW2 8940   0.697   4.242   4.913
 2730SOL     OW 8941   0.473   4.224   3.915
 2730SOL    HW1 8942   0.534   4.304   3.919
 2730SOL    HW2 8943   0.378   4.255   3.922
 2731SOL     OW 8944   1.726   3.859   4.247
 2731SOL    HW1 8945   1.799   3.842   4.180
 2731SOL    HW2 8946   1.695   3.772   4.285
 2732SOL     OW 8947   1.280   4.651   4.396
 2732SOL    HW1 8948   1.340   4.570   4.398
 2732SOL    HW2 8949   1.320   4.720   4.336
 2733SOL     OW 8950   1.841   3.899   4.687
 2733SOL    HW1 8951   1.880   3.814   4.651
 2733SOL    HW2 8952   1.743   3.901   4.668
 2734SOL     OW 8953   0.263   4.050   4.444
 2734SOL    HW1 8954   0.184   4.101   4.410
 2734SOL    HW2 8955   0.254   4.035   4.542
 2735SOL     OW 8956   0.916   4.634   4.015
 2735SOL    HW1 8957   0.979   4.672   3.947
 2735SOL    HW2 8958   0.956   4.551   4.054
 2736SOL     OW 8959   1.039   4.822   4.420
 2736SOL    HW1 8960   0.969   4.775   4.474
 2736SOL    HW2 8961   1.098   4.754   4.377
 2737SOL     OW 8962   1.014   3.960   4.695
 2737SOL    HW1 8963   1.006   3.924   4.602
 2737SOL    HW2 8964   1.012   3.884   4.760
 2738SOL     OW 8965   1.709   4.109   5.105
 2738SOL    HW1 8966   1.782   4.178   5.109
 2738SOL    HW2 8967   1.737   4.034   5.046
 2739SOL     OW 8968   0.672   3.927   5.213
 2739SOL    HW1 8969   0.762   3.911   5.173
 2739SOL    HW2 8970   0.680   3.932   5.312
 2740SOL     OW 8971   0.075   4.069   3.757
 2740SOL    HW1 8972  -0.017   4.041   3.728
 2740SOL    HW2 8973   0.106   4.146   3.701
 2741SOL     OW 8974   0.072   3.890   4.042
 2741SOL    HW1 8975   0.055   3.973   3.988
 2741SOL    HW2 8976   0.162   3.853   4.020
 2742SOL     OW 8977   0.716   4.289   5.432
 2742SOL    HW1 8978   0.735   4.354   5.506
 2742SOL    HW2 8979   0.776   4.209   5.441
 2743SOL     OW 8980   1.225   4.049   4.173
 2743SOL    HW1 8981   1.290   3.975   4.162
 2743SOL    HW2 8982   1.245   4.099   4.257
 2744SOL     OW 8983   1.777   4.066   5.366
 2744SOL    HW1 8984   1.760   4.097   5.272
 2744SOL    HW2 8985   1.693   4.029   5.404
 2745SOL     OW 8986   1.083   4.708   3.811
 2745SOL    HW1 8987   1.060   4.761   3.729
 2745SOL    HW2 8988   1.164   4.652   3.792
 2746SOL     OW 8989   1.824   3.916   4.951
 2746SOL    HW1 8990   1.820   3.826   4.995
 2746SOL    HW2 8991   1.827   3.905   4.852
 2747SOL     OW 8992   0.428   4.148   4.244
 2747SOL    HW1 8993   0.458   4.076   4.182
 2747SOL    HW2 8994   0.389   4.108   4.327
 2748SOL     OW 8995   0.317   4.271   5.004
 2748SOL    HW1 8996   0.355   4.212   5.076
 2748SOL    HW2 8997   0.357   4.245   4.916
 2749SOL     OW 8998   1.424   3.938   4.836
 2749SOL    HW1 8999   1.476   3.873   4.891
 2749SOL    HW2 9000   1.375   4.001   4.897
 2750SOL     OW 9001   1.001   3.758   4.878
 2750SOL    HW1 9002   0.938   3.686   4.847
 2750SOL    HW2 9003   1.094   3.722   4.878
 2751SOL     OW 9004   1.352   3.776   3.892
 2751SOL    HW1 9005   1.387   3.735   3.808
 2751SOL    HW2 9006   1.262   3.738   3.912
 2752SOL     OW 9007   1.300   4.177   4.415
 2752SOL    HW1 9008   1.241   4.257   4.419
 2752SOL    HW2 9009   1.315   4.142   4.508
 2753SOL     OW 9010   1.593   3.945   4.606
 2753SOL    HW1 9011   1.509   3.944   4.660
 2753SOL    HW2 9012   1.595   4.028   4.550
 2754SOL     OW 9013   0.230   4.352   5.699
 2754SOL    HW1 9014   0.137   4.350   5.736
 2754SOL    HW2 9015   0.231   4.313   5.607
 2755SOL     OW 9016   0.225   3.999   6.582
 2755SOL    HW1 9017   0.260   3.982   6.674
 2755SOL    HW2 9018   0.137   3.954   6.570
 2756SOL     OW 9019   0.019   4.092   6.233
 2756SOL    HW1 9020  -0.063   4.135   6.272
 2756SOL    HW2 9021  -0.009   4.019   6.170
 2757SOL     OW 9022   1.755   4.331   5.817
 2757SOL    HW1 9023   1.743   4.318   5.718
 2757SOL    HW2 9024   1.725   4.250   5.866
 2758SOL     OW 9025   0.685   4.736   6.251
 2758SOL    HW1 9026   0.754   4.720   6.321
 2758SOL    HW2 9027   0.612   4.793   6.289
 2759SOL     OW 9028   0.438   4.116   7.085
 2759SOL    HW1 9029   0.520   4.060   7.094
 2759SOL    HW2 9030   0.357   4.058   7.089
 2760SOL     OW 9031   1.603   4.171   6.323
 2760SOL    HW1 9032   1.529   4.217   6.273
 2760SOL    HW2 9033   1.654   4.239   6.376
 2761SOL     OW 9034   1.594   3.838   7.066
 2761SOL    HW1 9035   1.576   3.905   6.994
 2761SOL    HW2 9036   1.591   3.884   7.155
 2762SOL     OW 9037   0.122   4.367   6.149
 2762SOL    HW1 9038   0.077   4.279   6.166
 2762SOL    HW2 9039   0.121   4.421   6.233
 2763SOL     OW 9040   0.113   4.461   7.183
 2763SOL    HW1 9041   0.201   4.448   7.228
 2763SOL    HW2 9042   0.100   4.558   7.161
 2764SOL     OW 9043   0.809   3.728   6.088
 2764SOL    HW1 9044   0.849   3.819   6.079
 2764SOL    HW2 9045   0.709   3.736   6.094
 2765SOL     OW 9046   0.317   3.975   7.387
 2765SOL    HW1 9047   0.388   4.046   7.393
 2765SOL    HW2 9048   0.229   4.014   7.415
 2766SOL     OW 9049   1.281   4.069   6.530
 2766SOL    HW1 9050   1.195   4.019   6.517
 2766SOL    HW2 9051   1.343   4.015   6.586
 2767SOL     OW 9052   0.807   4.329   7.051
 2767SOL    HW1 9053   0.760   4.326   7.140
 2767SOL    HW2 9054   0.756   4.274   6.985
 2768SOL     OW 9055   1.394   4.193   7.260
 2768SOL    HW1 9056   1.374   4.236   7.348
 2768SOL    HW2 9057   1.472   4.131   7.269
 2769SOL     OW 9058   0.991   4.134   6.828
 2769SOL    HW1 9059   0.914   4.168   6.882
 2769SOL    HW2 9060   0.957   4.083   6.749
 2770SOL     OW 9061   1.041   4.425   6.015
 2770SOL    HW1 9062   1.067   4.421   6.111
 2770SOL    HW2 9063   0.956   4.374   6.001
 2771SOL     OW 9064   0.076   4.535   6.375
 2771SOL    HW1 9065   0.175   4.523   6.384
 2771SOL    HW2 9066   0.052   4.630   6.396
 2772SOL     OW 9067   0.865   4.072   5.781
 2772SOL    HW1 9068   0.924   4.135   5.732
 2772SOL    HW2 9069   0.884   3.978   5.752
 2773SOL     OW 9070   1.719   4.309   7.417
 2773SOL    HW1 9071   1.693   4.398   7.381
 2773SOL    HW2 9072   1.717   4.241   7.344
 2774SOL     OW 9073   0.550   3.920   6.471
 2774SOL    HW1 9074   0.545   3.915   6.571
 2774SOL    HW2 9075   0.552   4.016   6.442
 2775SOL     OW 9076   1.458   4.459   6.314
 2775SOL    HW1 9077   1.453   4.394   6.389
 2775SOL    HW2 9078   1.538   4.518   6.327
 2776SOL     OW 9079   0.202   4.009   7.084
 2776SOL    HW1 9080   0.122   4.069   7.071
 2776SOL    HW2 9081   0.192   3.960   7.170
 2777SOL     OW 9082   1.400   3.831   6.012
 2777SOL    HW1 9083   1.376   3.794   5.922
 2777SOL    HW2 9084   1.499   3.847   6.016
 2778SOL     OW 9085   0.382   4.424   6.066
 2778SOL    HW1 9086   0.427   4.334   6.063
 2778SOL    HW2 9087   0.288   4.413   6.099
 2779SOL     OW 9088   1.547   3.946   7.315
 2779SOL    HW1 9089   1.542   3.983   7.407
 2779SOL    HW2 9090   1.475   3.877   7.303
 2780SOL     OW 9091   0.614   3.846   5.703
 2780SOL    HW1 9092   0.712   3.824   5.710
 2780SOL    HW2 9093   0.583   3.829   5.610
 2781SOL     OW 9094   0.781   3.988   7.335
 2781SOL    HW1 9095   0.848   3.927   7.378
 2781SOL    HW2 9096   0.708   4.007   7.400
 2782SOL     OW 9097   1.351   4.314   7.019
 2782SOL    HW1 9098   1.379   4.271   7.104
 2782SOL    HW2 9099   1.376   4.410   7.020
 2783SOL     OW 9100   0.922   4.227   6.485
 2783SOL    HW1 9101   0.897   4.218   6.389
 2783SOL    HW2 9102   0.970   4.145   6.516
 2784SOL     OW 9103   0.539   3.788   6.098
 2784SOL    HW1 9104   0.458   3.789   6.156
 2784SOL    HW2 9105   0.542   3.871   6.043
 2785SOL     OW 9106   0.297   3.759   5.757
 2785SOL    HW1 9107   0.346   3.843   5.736
 2785SOL    HW2 9108   0.359   3.694   5.802
 2786SOL     OW 9109   0.935   3.960   6.066
 2786SOL    HW1 9110   0.887   4.001   5.988
 2786SOL    HW2 9111   1.034   3.958   6.047
 2787SOL     OW 9112   1.076   4.407   7.050
 2787SOL    HW1 9113   0.996   4.346   7.053
 2787SOL    HW2 9114   1.157   4.354   7.026
 2788SOL     OW 9115   1.032   4.273   5.602
 2788SOL    HW1 9116   0.991   4.355   5.563
 2788SOL    HW2 9117   1.096   4.299   5.675
 2789SOL     OW 9118   0.078   4.280   6.972
 2789SOL    HW1 9119   0.170   4.279   6.931
 2789SOL    HW2 9120   0.072   4.354   7.039
 2790SOL     OW 9121   0.561   3.946   6.733
 2790SOL    HW1 9122   0.599   3.862   6.770
 2790SOL    HW2 9123   0.473   3.965   6.777
 2791SOL     OW 9124   0.866   4.178   6.228
 2791SOL    HW1 9125   0.834   4.250   6.166
 2791SOL    HW2 9126   0.890   4.097   6.175
 2792SOL     OW 9127   1.017   3.763   6.339
 2792SOL    HW1 9128   0.945   3.768   6.270
 2792SOL    HW2 9129   0.993   3.694   6.408
 2793SOL     OW 9130   1.466   4.314   6.578
 2793SOL    HW1 9131   1.436   4.219   6.585
 2793SOL    HW2 9132   1.539   4.330   6.644
 2794SOL     OW 9133   1.390   4.299   5.664
 2794SOL    HW1 9134   1.336   4.278   5.745
 2794SOL    HW2 9135   1.481   4.258   5.673
 2795SOL     OW 9136   0.527   3.980   5.914
 2795SOL    HW1 9137   0.554   3.921   5.839
 2795SOL    HW2 9138   0.527   4.075   5.883
 2796SOL     OW 9139   0.915   3.813   6.988
 2796SOL    HW1 9140   0.940   3.793   6.893
 2796SOL    HW2 9141   0.987   3.869   7.030
 2797SOL     OW 9142   0.410   4.537   6.837
 2797SOL    HW1 9143   0.496   4.549   6.887
 2797SOL    HW2 9144   0.368   4.450   6.864
 2798SOL     OW 9145   1.274   4.110   6.848
 2798SOL    HW1 9146   1.295   4.184   6.912
 2798SOL    HW2 9147   1.185   4.127   6.805
 2799SOL     OW 9148   0.566   4.261   6.451
 2799SOL    HW1 9149   0.578   4.327   6.377
 2799SOL    HW2 9150   0.612   4.295   6.534
 2800SOL     OW 9151   1.582   4.363   6.058
 2800SOL    HW1 9152   1.551   4.424   6.131
 2800SOL    HW2 9153   1.632   4.415   5.989
 2801SOL     OW 9154   1.013   3.829   7.356
 2801SOL    HW1 9155   1.019   3.914   7.304
 2801SOL    HW2 9156   1.045   3.753   7.299
 2802SOL     OW 9157   0.504   3.774   7.326
 2802SOL    HW1 9158   0.462   3.717   7.256
 2802SOL    HW2 9159   0.438   3.843   7.358
 2803SOL     OW 9160   1.209   4.249   5.861
 2803SOL    HW1 9161   1.222   4.165   5.915
 2803SOL    HW2 9162   1.180   4.323   5.921
 2804SOL     OW 9163   0.307   3.937   6.817
 2804SOL    HW1 9164   0.284   3.974   6.907
 2804SOL    HW2 9165   0.277   3.842   6.811
 2805SOL     OW 9166   0.732   4.358   6.650
 2805SOL    HW1 9167   0.791   4.332   6.574
 2805SOL    HW2 9168   0.704   4.454   6.639
 2806SOL     OW 9169   1.728   4.659   7.440
 2806SOL    HW1 9170   1.682   4.652   7.351
 2806SOL    HW2 9171   1.666   4.703   7.506
 2807SOL     OW 9172   0.307   3.787   6.204
 2807SOL    HW1 9173   0.296   3.881   6.237
 2807SOL    HW2 9174   0.302   3.724   6.281
 2808SOL     OW 9175   1.622   4.091   5.960
 2808SOL    HW1 9176   1.624   4.015   6.024
 2808SOL    HW2 9177   1.574   4.168   6.000
 2809SOL     OW 9178   1.540   3.998   5.711
 2809SOL    HW1 9179   1.479   3.923   5.734
 2809SOL    HW2 9180   1.562   4.050   5.794
 2810SOL     OW 9181   0.319   4.534   6.535
 2810SOL    HW1 9182   0.412   4.570   6.540
 2810SOL    HW2 9183   0.313   4.449   6.587
 2811SOL     OW 9184   0.339   4.233   6.592
 2811SOL    HW1 9185   0.287   4.150   6.575
 2811SOL    HW2 9186   0.416   4.238   6.528
 2812SOL     OW 9187   1.138   4.104   7.264
 2812SOL    HW1 9188   1.093   4.167   7.328
 2812SOL    HW2 9189   1.231   4.135   7.247
 2813SOL     OW 9190   1.160   3.931   7.063
 2813SOL    HW1 9191   1.160   3.995   7.140
 2813SOL    HW2 9192   1.188   3.979   6.980
 2814SOL     OW 9193   0.040   4.268   6.700
 2814SOL    HW1 9194   0.125   4.235   6.659
 2814SOL    HW2 9195   0.053   4.283   6.798
 2815SOL     OW 9196   0.189   4.244   7.308
 2815SOL    HW1 9197   0.248   4.204   7.238
 2815SOL    HW2 9198   0.131   4.315   7.267
 2816SOL     OW 9199   0.815   4.296   5.911
 2816SOL    HW1 9200   0.822   4.207   5.865
 2816SOL    HW2 9201   0.721   4.330   5.903
 2817SOL     OW 9202   1.657   4.328   6.792
 2817SOL    HW1 9203   1.619   4.259   6.854
 2817SOL    HW2 9204   1.739   4.292   6.748
 2818SOL     OW 9205   0.671   4.188   6.855
 2818SOL    HW1 9206   0.637   4.099   6.825
 2818SOL    HW2 9207   0.697   4.242   6.775
 2819SOL     OW 9208   0.473   4.224   5.777
 2819SOL    HW1 9209   0.534   4.304   5.781
 2819SOL    HW2 9210   0.378   4.255   5.784
 2820SOL     OW 9211   1.726   3.859   6.109
 2820SOL    HW1 9212   1.799   3.842   6.042
 2820SOL    HW2 9213   1.695   3.772   6.147
 2821SOL     OW 9214   1.280   4.651   6.258
 2821SOL    HW1 9215   1.340   4.570   6.260
 2821SOL    HW2 9216   1.320   4.720   6.198
 2822SOL     OW 9217   1.841   3.899   6.549
 2822SOL    HW1 9218   1.880   3.814   6.513
 2822SOL    HW2 9219   1.743   3.901   6.530
 2823SOL     OW 9220   0.263   4.050   6.306
 2823SOL    HW1 9221   0.184   4.101   6.272
 2823SOL    HW2 9222   0.254   4.035   6.404
 2824SOL     OW 9223   0.916   4.634   5.877
 2824SOL    HW1 9224   0.979   4.672   5.809
 2824SOL    HW2 9225   0.956   4.551   5.916
 2825SOL     OW 9226   1.039   4.822   6.282
 2825SOL    HW1 9227   0.969   4.775   6.336
 2825SOL    HW2 9228   1.098   4.754   6.239
 2826SOL     OW 9229   1.014   3.960   6.557
 2826SOL    HW1 9230   1.006   3.924   6.464
 2826SOL    HW2 9231   1.012   3.884   6.622
 2827SOL     OW 9232   1.709   4.109   6.967
 2827SOL    HW1 9233   1.782   4.178   6.971
 2827SOL    HW2 9234   1.737   4.034   6.908
 2828SOL     OW 9235   0.672   3.927   7.075
 2828SOL    HW1 9236   0.762   3.911   7.035
 2828SOL    HW2 9237   0.680   3.932   7.174
 2829SOL     OW 9238   0.075   4.069   5.619
 2829SOL    HW1 9239  -0.017   4.041   5.590
 2829SOL    HW2 9240   0.106   4.146   5.563
 2830SOL     OW 9241   0.072   3.890   5.904
 2830SOL    HW1 9242   0.055   3.973   5.850
 2830SOL    HW2 9243   0.162   3.853   5.882
 2831SOL     OW 9244   0.716   4.289   7.294
 2831SOL    HW1 9245   0.735   4.354   7.368
 2831SOL    HW2 9246   0.776   4.209   7.303
 2832SOL     OW 9247   1.225   4.049   6.035
 2832SOL    HW1 9248   1.290   3.975   6.024
 2832SOL    HW2 9249   1.245   4.099   6.119
 2833SOL     OW 9250   1.777   4.066   7.228
 2833SOL    HW1 9251   1.760   4.097   7.134
 2833SOL    HW2 9252   1.693   4.029   7.266
 2834SOL     OW 9253   1.083   4.708   5.673
 2834SOL    HW1 9254   1.060   4.761   5.591
 2834SOL    HW2 9255   1.164   4.652   5.654
 2835SOL     OW 9256   1.824   3.916   6.813
 2835SOL    HW1 9257   1.820   3.826   6.857
 2835SOL    HW2 9258   1.827   3.905   6.714
 2836SOL     OW 9259   0.428   4.148   6.106
 2836SOL    HW1 9260   0.458   4.076   6.044
 2836SOL    HW2 9261   0.389   4.108   6.189
 2837SOL     OW 9262   0.317   4.271   6.866
 2837SOL    HW1 9263   0.355   4.212   6.938
 2837SOL    HW2 9264   0.357   4.245   6.778
 2838SOL     OW 9265   1.424   3.938   6.698
 2838SOL    HW1 9266   1.476   3.873   6.753
 2838SOL    HW2 9267   1.375   4.001   6.759
 2839SOL     OW 9268   1.001   3.758   6.740
 2839SOL    HW1 9269   0.938   3.686   6.709
 2839SOL    HW2 9270   1.094   3.722   6.740
 2840SOL     OW 9271   1.352   3.776   5.754
 2840SOL    HW1 9272   1.387   3.735   5.670
 2840SOL    HW2 9273   1.262   3.738   5.774
 2841SOL     OW 9274   1.300   4.177   6.277
 2841SOL    HW1 9275   1.241   4.257   6.281
 2841SOL    HW2 9276   1.315   4.142   6.370
 2842SOL     OW 9277   1.593   3.945   6.468
 2842SOL    HW1 9278   1.509   3.944   6.522
 2842SOL    HW2 9279   1.595   4.028   6.412
 2843SOL     OW 9280   0.230   4.352   7.561
 2843SOL    HW1 9281   0.137   4.350   7.598
 2843SOL    HW2 9282   0.231   4.313   7.469
 2844SOL     OW 9283   0.225   3.999   8.444
 2844SOL    HW1 9284   0.260   3.982   8.536
 2844SOL    HW2 9285   0.137   3.954   8.432
 2845SOL     OW 9286   0.019   4.092   8.095
 2845SOL    HW1 9287  -0.063   4.135   8.134
 2845SOL    HW2 9288  -0.009   4.019   8.032
 2846SOL     OW 9289   1.755   4.331   7.679
 2846SOL    HW1 9290   1.743   4.318   7.580
 2846SOL    HW2 9291   1.725   4.250   7.728
 2847SOL     OW 9292   0.685   4.736   8.113
 2847SOL    HW1 9293   0.754   4.720   8.183
 2847SOL    HW2 9294   0.612   4.793   8.151
 2848SOL     OW 9295   0.438   4.116   8.947
 2848SOL    HW1 9296   0.520   4.060   8.956
 2848SOL    HW2 9297   0.357   4.058   8.951
 2849SOL     OW 9298   1.603   4.171   8.185
 2849SOL    HW1 9299   1.529   4.217   8.135
 2849SOL    HW2 9300   1.654   4.239   8.238
 2850SOL     OW 9301   1.594   3.838   8.928
 2850SOL    HW1 9302   1.576   3.905   8.856
 2850SOL    HW2 9303   1.591   3.884   9.017
 2851SOL     OW 9304   0.122   4.367   8.011
 2851SOL    HW1 9305   0.077   4.279   8.028
 2851SOL    HW2 9306   0.121   4.421   8.095
 2852SOL     OW 9307   0.113   4.461   9.045
 2852SOL    HW1 9308   0.201   4.448   9.090
 2852SOL    HW2 9309   0.100   4.558   9.023
 2853SOL     OW 9310   0.809   3.728   7.950
 2853SOL    HW1 9311   0.849   3.819   7.941
 2853SOL    HW2 9312   0.709   3.736   7.956
 2854SOL     OW 9313   0.317   3.975   9.249
 2854SOL    HW1 9314   0.388   4.046   9.255
 2854SOL    HW2 9315   0.229   4.014   9.277
 2855SOL     OW 9316   1.281   4.069   8.392
 2855SOL    HW1 9317   1.195   4.019   8.379
 2855SOL    HW2 9318   1.343   4.015   8.448
 2856SOL     OW 9319   0.807   4.329   8.913
 2856SOL    HW1 9320   0.760   4.326   9.002
 2856SOL    HW2 9321   0.756   4.274   8.847
 2857SOL     OW 9322   1.394   4.193   9.122
 2857SOL    HW1 9323   1.374   4.236   9.210
 2857SOL    HW2 9324   1.472   4.131   9.131
 2858SOL     OW 9325   0.991   4.134   8.690
 2858SOL    HW1 9326   0.914   4.168   8.744
 2858SOL    HW2 9327   0.957   4.083   8.611
 2859SOL     OW 9328   1.041   4.425   7.877
 2859SOL    HW1 9329   1.067   4.421   7.973
 2859SOL    HW2 9330   0.956   4.374   7.863
 2860SOL     OW 9331   0.076   4.535   8.237
 2860SOL    HW1 9332   0.175   4.523   8.246
 2860SOL    HW2 9333   0.052   4.630   8.258
 2861SOL     OW 9334   0.865   4.072   7.643
 2861SOL    HW1 9335   0.924   4.135   7.594
 2861SOL    HW2 9336   0.884   3.978   7.614
 2862SOL     OW 9337   1.719   4.309   9.279
 2862SOL    HW1 9338   1.693   4.398   9.243
 2862SOL    HW2 9339   1.717   4.241   9.206
 2863SOL     OW 9340   0.550   3.920   8.333
 2863SOL    HW1 9341   0.545   3.915   8.433
 2863SOL    HW2 9342   0.552   4.016   8.304
 2864SOL     OW 9343   1.458   4.459   8.176
 2864SOL    HW1 9344   1.453   4.394   8.251
 2864SOL    HW2 9345   1.538   4.518   8.189
 2865SOL     OW 9346   0.202   4.009   8.946
 2865SOL    HW1 9347   0.122   4.069   8.933
 2865SOL    HW2 9348   0.192   3.960   9.032
 2866SOL     OW 9349   1.400   3.831   7.874
 2866SOL    HW1 9350   1.376   3.794   7.784
 2866SOL    HW2 9351   1.499   3.847   7.878
 2867SOL     OW 9352   0.382   4.424   7.928
 2867SOL    HW1 9353   0.427   4.334   7.925
 2867SOL    HW2 9354   0.288   4.413   7.961
 2868SOL     OW 9355   1.547   3.946   9.177
 2868SOL    HW1 9356   1.542   3.983   9.269
 2868SOL    HW2 9357   1.475   3.877   9.165
 2869SOL     OW 9358   0.614   3.846   7.565
 2869SOL    HW1 9359   0.712   3.824   7.572
 2869SOL    HW2 9360   0.583   3.829   7.472
 2870SOL     OW 9361   0.781   3.988   9.197
 2870SOL    HW1 9362   0.848   3.927   9.240
 2870SOL    HW2 9363   0.708   4.007   9.262
 2871SOL     OW 9364   1.351   4.314   8.881
 2871SOL    HW1 9365   1.379   4.271   8.966
 2871SOL    HW2 9366   1.376   4.410   8.882
 2872SOL     OW 9367   0.922   4.227   8.347
 2872SOL    HW1 9368   0.897   4.218   8.251
 2872SOL    HW2 9369   0.970   4.145   8.378
 2873SOL     OW 9370   0.539   3.788   7.960
 2873SOL    HW1 9371   0.458   3.789   8.018
 2873SOL    HW2 9372   0.542   3.871   7.905
 2874SOL     OW 9373   0.297   3.759   7.619
 2874SOL    HW1 9374   0.346   3.843   7.598
 2874SOL    HW2 9375   0.359   3.694   7.664
 2875SOL     OW 9376   0.935   3.960   7.928
 2875SOL    HW1 9377   0.887   4.001   7.850
 2875SOL    HW2 9378   1.034   3.958   7.909
 2876SOL     OW 9379   1.076   4.407   8.912
 2876SOL    HW1 9380   0.996   4.346   8.915
 2876SOL    HW2 9381   1.157   4.354   8.888
 2877SOL     OW 9382   1.032   4.273   7.464
 2877SOL    HW1 9383   0.991   4.355   7.425
 2877SOL    HW2 9384   1.096   4.299   7.537
 2878SOL     OW 9385   0.078   4.280   8.834
 2878SOL    HW1 9386   0.170   4.279   8.793
 2878SOL    HW2 9387   0.072   4.354   8.901
 2879SOL     OW 9388   0.561   3.946   8.595
 2879SOL    HW1 9389   0.599   3.862   8.632
 2879SOL    HW2 9390   0.473   3.965   8.639
 2880SOL     OW 9391   0.866   4.178   8.090
 2880SOL    HW1 9392   0.834   4.250   8.028
 2880SOL    HW2 9393   0.890   4.097   8.037
 2881SOL     OW 9394   1.017   3.763   8.201
 2881SOL    HW1 9395   0.945   3.768   8.132
 2881SOL    HW2 9396   0.993   3.694   8.270
 2882SOL     OW 9397   1.466   4.314   8.440
 2882SOL    HW1 9398   1.436   4.219   8.447
 2882SOL    HW2 9399   1.539   4.330   8.506
 2883SOL     OW 9400   1.390   4.299   7.526
 2883SOL    HW1 9401   1.336   4.278   7.607
 2883SOL    HW2 9402   1.481   4.258   7.535
 2884SOL     OW 9403   0.527   3.980   7.776
 2884SOL    HW1 9404   0.554   3.921   7.701
 2884SOL    HW2 9405   0.527   4.075   7.745
 2885SOL     OW 9406   0.915   3.813   8.850
 2885SOL    HW1 9407   0.940   3.793   8.755
 2885SOL    HW2 9408   0.987   3.869   8.892
 2886SOL     OW 9409   0.410   4.537   8.699
 2886SOL    HW1 9410   0.496   4.549   8.749
 2886SOL    HW2 9411   0.368   4.450   8.726
 2887SOL     OW 9412   1.274   4.110   8.710
 2887SOL    HW1 9413   1.295   4.184   8.774
 2887SOL    HW2 9414   1.185   4.127   8.667
 2888SOL     OW 9415   0.566   4.261   8.313
 2888SOL    HW1 9416   0.578   4.327   8.239
 2888SOL    HW2 9417   0.612   4.295   8.396
 2889SOL     OW 9418   1.582   4.363   7.920
 2889SOL    HW1 9419   1.551   4.424   7.993
 2889SOL    HW2 9420   1.632   4.415   7.851
 2890SOL     OW 9421   1.013   3.829   9.218
 2890SOL    HW1 9422   1.019   3.914   9.166
 2890SOL    HW2 9423   1.045   3.753   9.161
 2891SOL     OW 9424   0.504   3.774   9.188
 2891SOL    HW1 9425   0.462   3.717   9.118
 2891SOL    HW2 9426   0.438   3.843   9.220
 2892SOL     OW 9427   1.209   4.249   7.723
 2892SOL    HW1 9428   1.222   4.165   7.777
 2892SOL    HW2 9429   1.180   4.323   7.783
 2893SOL     OW 9430   0.307   3.937   8.679
 2893SOL    HW1 9431   0.284   3.974   8.769
 2893SOL    HW2 9432   0.277   3.842   8.673
 2894SOL     OW 9433   0.732   4.358   8.512
 2894SOL    HW1 9434   0.791   4.332   8.436
 2894SOL    HW2 9435   0.704   4.454   8.501
 2895SOL     OW 9436   1.728   4.659   9.302
 2895SOL    HW1 9437   1.682   4.652   9.213
 2895SOL    HW2 9438   1.666   4.703   9.368
 2896SOL     OW 9439   0.307   3.787   8.066
 2896SOL    HW1 9440   0.296   3.881   8.099
 2896SOL    HW2 9441   0.302   3.724   8.143
 2897SOL     OW 9442   1.622   4.091   7.822
 2897SOL    HW1 9443   1.624   4.015   7.886
 2897SOL    HW2 9444   1.574   4.168   7.862
 2898SOL     OW 9445   1.540   3.998   7.573
 2898SOL    HW1 9446   1.479   3.923   7.596
 2898SOL    HW2 9447   1.562   4.050   7.656
 2899SOL     OW 9448   0.319   4.534   8.397
 2899SOL    HW1 9449   0.412   4.570   8.402
 2899SOL    HW2 9450   0.313   4.449   8.449
 2900SOL     OW 9451   0.339   4.233   8.454
 2900SOL    HW1 9452   0.287   4.150   8.437
 2900SOL    HW2 9453   0.416   4.238   8.390
 2901SOL     OW 9454   1.138   4.104   9.126
 2901SOL    HW1 9455   1.093   4.167   9.190
 2901SOL    HW2 9456   1.231   4.135   9.109
 2902SOL     OW 9457   1.160   3.931   8.925
 2902SOL    HW1 9458   1.160   3.995   9.002
 2902SOL    HW2 9459   1.188   3.979   8.842
 2903SOL     OW 9460   0.040   4.268   8.562
 2903SOL    HW1 9461   0.125   4.235   8.521
 2903SOL    HW2 9462   0.053   4.283   8.660
 2904SOL     OW 9463   0.189   4.244   9.170
 2904SOL    HW1 9464   0.248   4.204   9.100
 2904SOL    HW2 9465   0.131   4.315   9.129
 2905SOL     OW 9466   0.815   4.296   7.773
 2905SOL    HW1 9467   0.822   4.207   7.727
 2905SOL    HW2 9468   0.721   4.330   7.765
 2906SOL     OW 9469   1.657   4.328   8.654
 2906SOL    HW1 9470   1.619   4.259   8.716
 2906SOL    HW2 9471   1.739   4.292   8.610
 2907SOL     OW 9472   0.671   4.188   8.717
 2907SOL    HW1 9473   0.637   4.099   8.687
 2907SOL    HW2 9474   0.697   4.242   8.637
 2908SOL     OW 9475   0.473   4.224   7.639
 2908SOL    HW1 9476   0.534   4.304   7.643
 2908SOL    HW2 9477   0.378   4.255   7.646
 2909SOL     OW 9478   1.726   3.859   7.971
 2909SOL    HW1 9479   1.799   3.842   7.904
 2909SOL    HW2 9480   1.695   3.772   8.009
 2910SOL     OW 9481   1.280   4.651   8.120
 2910SOL    HW1 9482   1.340   4.570   8.122
 2910SOL    HW2 9483   1.320   4.720   8.060
 2911SOL     OW 9484   1.841   3.899   8.411
 2911SOL    HW1 9485   1.880   3.814   8.375
 2911SOL    HW2 9486   1.743   3.901   8.392
 2912SOL     OW 9487   0.263   4.050   8.168
 2912SOL    HW1 9488   0.184   4.101   8.134
 2912SOL    HW2 9489   0.254   4.035   8.266
 2913SOL     OW 9490   0.916   4.634   7.739
 2913SOL    HW1 9491   0.979   4.672   7.671
 2913SOL    HW2 9492   0.956   4.551   7.778
 2914SOL     OW 9493   1.039   4.822   8.144
 2914SOL    HW1 9494   0.969   4.775   8.198
 2914SOL    HW2 9495   1.098   4.754   8.101
 2915SOL     OW 9496   1.014   3.960   8.419
 2915SOL    HW1 9497   1.006   3.924   8.326
 2915SOL    HW2 9498   1.012   3.884   8.484
 2916SOL     OW 9499   1.709   4.109   8.829
 2916SOL    HW1 9500   1.782   4.178   8.833
 2916SOL    HW2 9501   1.737   4.034   8.770
 2917SOL     OW 9502   0.672   3.927   8.937
 2917SOL    HW1 9503   0.762   3.911   8.897
 2917SOL    HW2 9504   0.680   3.932   9.036
 2918SOL     OW 9505   0.075   4.069   7.481
 2918SOL    HW1 9506  -0.017   4.041   7.452
 2918SOL    HW2 9507   0.106   4.146   7.425
 2919SOL     OW 9508   0.072   3.890   7.766
 2919SOL    HW1 9509   0.055   3.973   7.712
 2919SOL    HW2 9510   0.162   3.853   7.744
 2920SOL     OW 9511   0.716   4.289   9.156
 2920SOL    HW1 9512   0.735   4.354   9.230
 2920SOL    HW2 9513   0.776   4.209   9.165
 2921SOL     OW 9514   1.225   4.049   7.897
 2921SOL    HW1 9515   1.290   3.975   7.886
 2921SOL    HW2 9516   1.245   4.099   7.981
 2922SOL     OW 9517   1.777   4.066   9.090
 2922SOL    HW1 9518   1.760   4.097   8.996
 2922SOL    HW2 9519   1.693   4.029   9.128
 2923SOL     OW 9520   1.083   4.708   7.535
 2923SOL    HW1 9521   1.060   4.761   7.453
 2923SOL    HW2 9522   1.164   4.652   7.516
 2924SOL     OW 9523   1.824   3.916   8.675
 2924SOL    HW1 9524   1.820   3.826   8.719
 2924SOL    HW2 9525   1.827   3.905   8.576
 2925SOL     OW 9526   0.428   4.148   7.968
 2925SOL    HW1 9527   0.458   4.076   7.906
 2925SOL    HW2 9528   0.389   4.108   8.051
 2926SOL     OW 9529   0.317   4.271   8.728
 2926SOL    HW1 9530   0.355   4.212   8.800
 2926SOL    HW2 9531   0.357   4.245   8.640
 2927SOL     OW 9532   1.424   3.938   8.560
 2927SOL    HW1 9533   1.476   3.873   8.615
 2927SOL    HW2 9534   1.375   4.001   8.621
 2928SOL     OW 9535   1.001   3.758   8.602
 2928SOL    HW1 9536   0.938   3.686   8.571
 2928SOL    HW2 9537   1.094   3.722   8.602
 2929SOL     OW 9538   1.352   3.776   7.616
 2929SOL    HW1 9539   1.387   3.735   7.532
 2929SOL    HW2 9540   1.262   3.738   7.636
 2930SOL     OW 9541   1.300   4.177   8.139
 2930SOL    HW1 9542   1.241   4.257   8.143
 2930SOL    HW2 9543   1.315   4.142   8.232
 2931SOL     OW 9544   1.593   3.945   8.330
 2931SOL    HW1 9545   1.509   3.944   8.384
 2931SOL    HW2 9546   1.595   4.028   8.274
 2932SOL     OW 9547   0.230   4.352   9.423
 2932SOL    HW1 9548   0.137   4.350   9.460
 2932SOL    HW2 9549   0.231   4.313   9.331
 2933SOL     OW 9550   0.225   3.999  10.306
 2933SOL    HW1 9551   0.260   3.982  10.398
 2933SOL    HW2 9552   0.137   3.954  10.294
 2934SOL     OW 9553   0.019   4.092   9.957
 2934SOL    HW1 9554  -0.063   4.135   9.996
 2934SOL    HW2 9555  -0.009   4.019   9.894
 2935SOL     OW 9556   1.755   4.331   9.541
 2935SOL    HW1 9557   1.743   4.318   9.442
 2935SOL    HW2 9558   1.725   4.250   9.590
 2936SOL     OW 9559   0.685   4.736   9.975
 2936SOL    HW1 9560   0.754   4.720  10.045
 2936SOL    HW2 9561   0.612   4.793  10.013
 2937SOL     OW 9562   0.438   4.116  10.809
 2937SOL    HW1 9563   0.520   4.060  10.818
 2937SOL    HW2 9564   0.357   4.058  10.813
 2938SOL     OW 9565   1.603   4.171  10.047
 2938SOL    HW1 9566   1.529   4.217   9.997
 2938SOL    HW2 9567   1.654   4.239  10.100
 2939SOL     OW 9568   1.594   3.838  10.790
 2939SOL    HW1 9569   1.576   3.905  10.718
 2939SOL    HW2 9570   1.591   3.884  10.879
 2940SOL     OW 9571   0.122   4.367   9.873
 2940SOL    HW1 9572   0.077   4.279   9.890
 2940SOL    HW2 9573   0.121   4.421   9.957
 2941SOL     OW 9574   0.113   4.461  10.907
 2941SOL    HW1 9575   0.201   4.448  10.952
 2941SOL    HW2 9576   0.100   4.558  10.885
 2942SOL     OW 9577   0.809   3.728   9.812
 2942SOL    HW1 9578   0.849   3.819   9.803
 2942SOL    HW2 9579   0.709   3.736   9.818
 2943SOL     OW 9580   0.317   3.975  11.111
 2943SOL    HW1 9581   0.388   4.046  11.117
 2943SOL    HW2 9582   0.229   4.014  11.139
 2944SOL     OW 9583   1.281   4.069  10.254
 2944SOL    HW1 9584   1.195   4.019  10.241
 2944SOL    HW2 9585   1.343   4.015  10.310
 2945SOL     OW 9586   0.807   4.329  10.775
 2945SOL    HW1 9587   0.760   4.326  10.864
 2945SOL    HW2 9588   0.756   4.274  10.709
 2946SOL     OW 9589   0.991   4.134  10.552
 2946SOL    HW1 9590   0.914   4.168  10.606
 2946SOL    HW2 9591   0.957   4.083  10.473
 2947SOL     OW 9592   1.041   4.425   9.739
 2947SOL    HW1 9593   1.067   4.421   9.835
 2947SOL    HW2 9594   0.956   4.374   9.725
 2948SOL     OW 9595   0.076   4.535  10.099
 2948SOL    HW1 9596   0.175   4.523  10.108
 2948SOL    HW2 9597   0.052   4.630  10.120
 2949SOL     OW 9598   0.865   4.072   9.505
 2949SOL    HW1 9599   0.924   4.135   9.456
 2949SOL    HW2 9600   0.884   3.978   9.476
 2950SOL     OW 9601   0.550   3.920  10.195
 2950SOL    HW1 9602   0.545   3.915  10.295
 2950SOL    HW2 9603   0.552   4.016  10.166
 2951SOL     OW 9604   1.458   4.459  10.038
 2951SOL    HW1 9605   1.453   4.394  10.113
 2951SOL    HW2 9606   1.538   4.518  10.051
 2952SOL     OW 9607   0.202   4.009  10.808
 2952SOL    HW1 9608   0.122   4.069  10.795
 2952SOL    HW2 9609   0.192   3.960  10.894
 2953SOL     OW 9610   1.400   3.831   9.736
 2953SOL    HW1 9611   1.376   3.794   9.646
 2953SOL    HW2 9612   1.499   3.847   9.740
 2954SOL     OW 9613   0.382   4.424   9.790
 2954SOL    HW1 9614   0.427   4.334   9.787
 2954SOL    HW2 9615   0.288   4.413   9.823
 2955SOL     OW 9616   0.614   3.846   9.427
 2955SOL    HW1 9617   0.712   3.824   9.434
 2955SOL    HW2 9618   0.583   3.829   9.334
 2956SOL     OW 9619   0.781   3.988  11.059
 2956SOL    HW1 9620   0.848   3.927  11.102
 2956SOL    HW2 9621   0.708   4.007  11.124
 2957SOL     OW 9622   1.351   4.314  10.743
 2957SOL    HW1 9623   1.379   4.271  10.828
 2957SOL    HW2 9624   1.376   4.410  10.744
 2958SOL     OW 9625   0.922   4.227  10.209
 2958SOL    HW1 9626   0.897   4.218  10.113
 2958SOL    HW2 9627   0.970   4.145  10.240
 2959SOL     OW 9628   0.539   3.788   9.822
 2959SOL    HW1 9629   0.458   3.789   9.880
 2959SOL    HW2 9630   0.542   3.871   9.767
 2960SOL     OW 9631   0.297   3.759   9.481
 2960SOL    HW1 9632   0.346   3.843   9.460
 2960SOL    HW2 9633   0.359   3.694   9.526
 2961SOL     OW 9634   0.935   3.960   9.790
 2961SOL    HW1 9635   0.887   4.001   9.712
 2961SOL    HW2 9636   1.034   3.958   9.771
 2962SOL     OW 9637   1.076   4.407  10.774
 2962SOL    HW1 9638   0.996   4.346  10.777
 2962SOL    HW2 9639   1.157   4.354  10.750
 2963SOL     OW 9640   1.032   4.273   9.326
 2963SOL    HW1 9641   0.991   4.355   9.287
 2963SOL    HW2 9642   1.096   4.299   9.399
 2964SOL     OW 9643   0.078   4.280  10.696
 2964SOL    HW1 9644   0.170   4.279  10.655
 2964SOL    HW2 9645   0.072   4.354  10.763
 2965SOL     OW 9646   0.561   3.946  10.457
 2965SOL    HW1 9647   0.599   3.862  10.494
 2965SOL    HW2 9648   0.473   3.965  10.501
 2966SOL     OW 9649   0.866   4.178   9.952
 2966SOL    HW1 9650   0.834   4.250   9.890
 2966SOL    HW2 9651   0.890   4.097   9.899
 2967SOL     OW 9652   1.017   3.763  10.063
 2967SOL    HW1 9653   0.945   3.768   9.994
 2967SOL    HW2 9654   0.993   3.694  10.132
 2968SOL     OW 9655   1.466   4.314  10.302
 2968SOL    HW1 9656   1.436   4.219  10.309
 2968SOL    HW2 9657   1.539   4.330  10.368
 2969SOL     OW 9658   1.390   4.299   9.388
 2969SOL    HW1 9659   1.336   4.278   9.469
 2969SOL    HW2 9660   1.481   4.258   9.397
 2970SOL     OW 9661   0.527   3.980   9.638
 2970SOL    HW1 9662   0.554   3.921   9.563
 2970SOL    HW2 9663   0.527   4.075   9.607
 2971SOL     OW 9664   0.915   3.813  10.712
 2971SOL    HW1 9665   0.940   3.793  10.617
 2971SOL    HW2 9666   0.987   3.869  10.754
 2972SOL     OW 9667   0.410   4.537  10.561
 2972SOL    HW1 9668   0.496   4.549  10.611
 2972SOL    HW2 9669   0.368   4.450  10.588
 2973SOL     OW 9670   1.274   4.110  10.572
 2973SOL    HW1 9671   1.295   4.184  10.636
 2973SOL    HW2 9672   1.185   4.127  10.529
 2974SOL     OW 9673   0.566   4.261  10.175
 2974SOL    HW1 9674   0.578   4.327  10.101
 2974SOL    HW2 9675   0.612   4.295  10.258
 2975SOL     OW 9676   1.582   4.363   9.782
 2975SOL    HW1 9677   1.551   4.424   9.855
 2975SOL    HW2 9678   1.632   4.415   9.713
 2976SOL     OW 9679   0.402   4.475  10.908
 2976SOL    HW1 9680   0.470   4.530  10.861
 2976SOL    HW2 9681   0.442   4.387  10.935
 2977SOL     OW 9682   1.209   4.249   9.585
 2977SOL    HW1 9683   1.222   4.165   9.639
 2977SOL    HW2 9684   1.180   4.323   9.645
 2978SOL     OW 9685   0.307   3.937  10.541
 2978SOL    HW1 9686   0.284   3.974  10.631
 2978SOL    HW2 9687   0.277   3.842  10.535
 2979SOL     OW 9688   0.732   4.358  10.374
 2979SOL    HW1 9689   0.791   4.332  10.298
 2979SOL    HW2 9690   0.704   4.454  10.363
 2980SOL     OW 9691   0.307   3.787   9.928
 2980SOL    HW1 9692   0.296   3.881   9.961
 2980SOL    HW2 9693   0.302   3.724  10.005
 2981SOL     OW 9694   1.622   4.091   9.684
 2981SOL    HW1 9695   1.624   4.015   9.748
 2981SOL    HW2 9696   1.574   4.168   9.724
 2982SOL     OW 9697   1.540   3.998   9.435
 2982SOL    HW1 9698   1.479   3.923   9.458
 2982SOL    HW2 9699   1.562   4.050   9.518
 2983SOL     OW 9700   0.319   4.534  10.259
 2983SOL    HW1 9701   0.412   4.570  10.264
 2983SOL    HW2 9702   0.313   4.449  10.311
 2984SOL     OW 9703   0.339   4.233  10.316
 2984SOL    HW1 9704   0.287   4.150  10.299
 2984SOL    HW2 9705   0.416   4.238  10.252
 2985SOL     OW 9706   1.160   3.931  10.787
 2985SOL    HW1 9707   1.160   3.995  10.864
 2985SOL    HW2 9708   1.188   3.979  10.704
 2986SOL     OW 9709   0.040   4.268  10.424
 2986SOL    HW1 9710   0.125   4.235  10.383
 2986SOL    HW2 9711   0.053   4.283  10.522
 2987SOL     OW 9712   1.369   4.674  10.970
 2987SOL    HW1 9713   1.408   4.763  10.990
 2987SOL    HW2 9714   1.379   4.654  10.873
 2988SOL     OW 9715   0.815   4.296   9.635
 2988SOL    HW1 9716   0.822   4.207   9.589
 2988SOL    HW2 9717   0.721   4.330   9.627
 2989SOL     OW 9718   1.657   4.328  10.516
 2989SOL    HW1 9719   1.619   4.259  10.578
 2989SOL    HW2 9720   1.739   4.292  10.472
 2990SOL     OW 9721   0.671   4.188  10.579
 2990SOL    HW1 9722   0.637   4.099  10.549
 2990SOL    HW2 9723   0.697   4.242  10.499
 2991SOL     OW 9724   0.473   4.224   9.501
 2991SOL    HW1 9725   0.534   4.304   9.505
 2991SOL    HW2 9726   0.378   4.255   9.508
 2992SOL     OW 9727   1.726   3.859   9.833
 2992SOL    HW1 9728   1.799   3.842   9.766
 2992SOL    HW2 9729   1.695   3.772   9.871
 2993SOL     OW 9730   1.280   4.651   9.982
 2993SOL    HW1 9731   1.340   4.570   9.984
 2993SOL    HW2 9732   1.320   4.720   9.922
 2994SOL     OW 9733   1.841   3.899  10.273
 2994SOL    HW1 9734   1.880   3.814  10.237
 2994SOL    HW2 9735   1.743   3.901  10.254
 2995SOL     OW 9736   0.263   4.050  10.030
 2995SOL    HW1 9737   0.184   4.101   9.996
 2995SOL    HW2 9738   0.254   4.035  10.128
 2996SOL     OW 9739   0.916   4.634   9.601
 2996SOL    HW1 9740   0.979   4.672   9.533
 2996SOL    HW2 9741   0.956   4.551   9.640
 2997SOL     OW 9742   1.039   4.822  10.006
 2997SOL    HW1 9743   0.969   4.775  10.060
 2997SOL    HW2 9744   1.098   4.754   9.963
 2998SOL     OW 9745   1.014   3.960  10.281
 2998SOL    HW1 9746   1.006   3.924  10.188
 2998SOL    HW2 9747   1.012   3.884  10.346
 2999SOL     OW 9748   1.709   4.109  10.691
 2999SOL    HW1 9749   1.782   4.178  10.695
 2999SOL    HW2 9750   1.737   4.034  10.632
 3000SOL     OW 9751   0.672   3.927  10.799
 3000SOL    HW1 9752   0.762   3.911  10.759
 3000SOL    HW2 9753   0.680   3.932  10.898
 3001SOL     OW 9754   0.075   4.069   9.343
 3001SOL    HW1 9755  -0.017   4.041   9.314
 3001SOL    HW2 9756   0.106   4.146   9.287
 3002SOL     OW 9757   0.072   3.890   9.628
 3002SOL    HW1 9758   0.055   3.973   9.574
 3002SOL    HW2 9759   0.162   3.853   9.606
 3003SOL     OW 9760   0.716   4.289  11.018
 3003SOL    HW1 9761   0.735   4.354  11.092
 3003SOL    HW2 9762   0.776   4.209  11.027
 3004SOL     OW 9763   1.225   4.049   9.759
 3004SOL    HW1 9764   1.290   3.975   9.748
 3004SOL    HW2 9765   1.245   4.099   9.843
 3005SOL     OW 9766   1.777   4.066  10.952
 3005SOL    HW1 9767   1.760   4.097  10.858
 3005SOL    HW2 9768   1.693   4.029  10.990
 3006SOL     OW 9769   1.083   4.708   9.397
 3006SOL    HW1 9770   1.060   4.761   9.315
 3006SOL    HW2 9771   1.164   4.652   9.378
 3007SOL     OW 9772   1.824   3.916  10.537
 3007SOL    HW1 9773   1.820   3.826  10.581
 3007SOL    HW2 9774   1.827   3.905  10.438
 3008SOL     OW 9775   0.428   4.148   9.830
 3008SOL    HW1 9776   0.458   4.076   9.768
 3008SOL    HW2 9777   0.389   4.108   9.913
 3009SOL     OW 9778   0.317   4.271  10.590
 3009SOL    HW1 9779   0.355   4.212  10.662
 3009SOL    HW2 9780   0.357   4.245  10.502
 3010SOL     OW 9781   1.424   3.938  10.422
 3010SOL    HW1 9782   1.476   3.873  10.477
 3010SOL    HW2 9783   1.375   4.001  10.483
 3011SOL     OW 9784   1.001   3.758  10.464
 3011SOL    HW1 9785   0.938   3.686  10.433
 3011SOL    HW2 9786   1.094   3.722  10.464
 3012SOL     OW 9787   1.352   3.776   9.478
 3012SOL    HW1 9788   1.387   3.735   9.394
 3012SOL    HW2 9789   1.262   3.738   9.498
 3013SOL     OW 9790   1.300   4.177  10.001
 3013SOL    HW1 9791   1.241   4.257  10.005
 3013SOL    HW2 9792   1.315   4.142  10.094
 3014SOL     OW 9793   1.593   3.945  10.192
 3014SOL    HW1 9794   1.509   3.944  10.246
 3014SOL    HW2 9795   1.595   4.028  10.136
 3015SOL     OW 9796   2.092   0.628   0.113
 3015SOL    HW1 9797   1.999   0.626   0.150
 3015SOL    HW2 9798   2.093   0.589   0.021
 3016SOL     OW 9799   2.087   0.275   0.996
 3016SOL    HW1 9800   2.122   0.258   1.088
 3016SOL    HW2 9801   1.999   0.230   0.984
 3017SOL     OW 9802   1.881   0.368   0.647
 3017SOL    HW1 9803   1.799   0.411   0.686
 3017SOL    HW2 9804   1.853   0.295   0.584
 3018SOL     OW 9805   2.431   1.275   1.165
 3018SOL    HW1 9806   2.338   1.268   1.128
 3018SOL    HW2 9807   2.442   1.364   1.209
 3019SOL     OW 9808   3.417   1.511   0.703
 3019SOL    HW1 9809   3.360   1.495   0.784
 3019SOL    HW2 9810   3.358   1.521   0.623
 3020SOL     OW 9811   2.997   0.703   0.717
 3020SOL    HW1 9812   3.054   0.781   0.692
 3020SOL    HW2 9813   2.937   0.729   0.793
 3021SOL     OW 9814   3.617   0.607   0.231
 3021SOL    HW1 9815   3.605   0.594   0.132
 3021SOL    HW2 9816   3.587   0.526   0.280
 3022SOL     OW 9817   2.630   1.144   1.023
 3022SOL    HW1 9818   2.552   1.161   1.083
 3022SOL    HW2 9819   2.664   1.231   0.987
 3023SOL     OW 9820   2.712   0.798   1.823
 3023SOL    HW1 9821   2.708   0.874   1.888
 3023SOL    HW2 9822   2.734   0.834   1.732
 3024SOL     OW 9823   2.547   1.012   0.665
 3024SOL    HW1 9824   2.616   0.996   0.735
 3024SOL    HW2 9825   2.474   1.069   0.703
 3025SOL     OW 9826   2.548   1.161   1.803
 3025SOL    HW1 9827   2.608   1.240   1.817
 3025SOL    HW2 9828   2.462   1.192   1.762
 3026SOL     OW 9829   2.197   1.435   1.061
 3026SOL    HW1 9830   2.119   1.404   1.008
 3026SOL    HW2 9831   2.255   1.493   1.004
 3027SOL     OW 9832   3.322   1.505   1.339
 3027SOL    HW1 9833   3.346   1.599   1.365
 3027SOL    HW2 9834   3.306   1.451   1.421
 3028SOL     OW 9835   2.300   0.392   1.499
 3028SOL    HW1 9836   2.382   0.336   1.508
 3028SOL    HW2 9837   2.219   0.334   1.503
 3029SOL     OW 9838   3.465   0.447   0.737
 3029SOL    HW1 9839   3.391   0.493   0.687
 3029SOL    HW2 9840   3.516   0.515   0.790
 3030SOL     OW 9841   2.093   1.713   0.483
 3030SOL    HW1 9842   2.127   1.790   0.537
 3030SOL    HW2 9843   2.137   1.713   0.393
 3031SOL     OW 9844   2.989   1.341   1.690
 3031SOL    HW1 9845   3.036   1.341   1.778
 3031SOL    HW2 9846   2.941   1.254   1.679
 3032SOL     OW 9847   2.092   1.434   0.538
 3032SOL    HW1 9848   2.066   1.530   0.538
 3032SOL    HW2 9849   2.021   1.380   0.583
 3033SOL     OW 9850   2.102   1.091   0.886
 3033SOL    HW1 9851   2.116   1.007   0.938
 3033SOL    HW2 9852   2.047   1.155   0.941
 3034SOL     OW 9853   2.482   1.786   1.439
 3034SOL    HW1 9854   2.390   1.769   1.474
 3034SOL    HW2 9855   2.510   1.878   1.465
 3035SOL     OW 9856   2.468   0.964   0.123
 3035SOL    HW1 9857   2.475   1.048   0.069
 3035SOL    HW2 9858   2.514   0.977   0.211
 3036SOL     OW 9859   3.456   0.114   1.480
 3036SOL    HW1 9860   3.438   0.181   1.408
 3036SOL    HW2 9861   3.453   0.160   1.569
 3037SOL     OW 9862   1.984   0.643   0.563
 3037SOL    HW1 9863   1.939   0.555   0.580
 3037SOL    HW2 9864   1.983   0.697   0.647
 3038SOL     OW 9865   3.704   1.767   0.359
 3038SOL    HW1 9866   3.758   1.738   0.439
 3038SOL    HW2 9867   3.734   1.857   0.330
 3039SOL     OW 9868   1.889   1.596   0.117
 3039SOL    HW1 9869   1.870   1.500   0.138
 3039SOL    HW2 9870   1.856   1.654   0.192
 3040SOL     OW 9871   3.551   0.922   0.612
 3040SOL    HW1 9872   3.646   0.893   0.620
 3040SOL    HW2 9873   3.543   0.987   0.537
 3041SOL     OW 9874   3.503   1.108   0.432
 3041SOL    HW1 9875   3.589   1.110   0.380
 3041SOL    HW2 9876   3.517   1.155   0.520
 3042SOL     OW 9877   1.975   0.737   1.597
 3042SOL    HW1 9878   2.063   0.724   1.642
 3042SOL    HW2 9879   1.962   0.834   1.575
 3043SOL     OW 9880   2.475   1.365   0.726
 3043SOL    HW1 9881   2.426   1.278   0.735
 3043SOL    HW2 9882   2.452   1.408   0.639
 3044SOL     OW 9883   3.155   1.228   1.423
 3044SOL    HW1 9884   3.192   1.155   1.365
 3044SOL    HW2 9885   3.207   1.233   1.508
 3045SOL     OW 9886   2.671   0.004   0.502
 3045SOL    HW1 9887   2.711   0.095   0.493
 3045SOL    HW2 9888   2.571   0.012   0.508
 3046SOL     OW 9889   2.059   0.976   1.264
 3046SOL    HW1 9890   2.148   0.931   1.250
 3046SOL    HW2 9891   1.986   0.911   1.245
 3047SOL     OW 9892   3.387   0.999   0.190
 3047SOL    HW1 9893   3.324   0.923   0.203
 3047SOL    HW2 9894   3.435   1.017   0.276
 3048SOL     OW 9895   3.049   1.792   1.616
 3048SOL    HW1 9896   3.073   1.852   1.540
 3048SOL    HW2 9897   3.056   1.697   1.586
 3049SOL     OW 9898   2.179   0.251   1.801
 3049SOL    HW1 9899   2.250   0.322   1.807
 3049SOL    HW2 9900   2.091   0.290   1.829
 3050SOL     OW 9901   3.328   1.417   0.953
 3050SOL    HW1 9902   3.269   1.423   1.033
 3050SOL    HW2 9903   3.313   1.329   0.907
 3051SOL     OW 9904   3.529   1.714   0.572
 3051SOL    HW1 9905   3.488   1.691   0.484
 3051SOL    HW2 9906   3.511   1.640   0.637
 3052SOL     OW 9907   2.460   0.729   0.270
 3052SOL    HW1 9908   2.484   0.798   0.202
 3052SOL    HW2 9909   2.382   0.762   0.324
 3053SOL     OW 9910   3.143   0.345   0.944
 3053SOL    HW1 9911   3.057   0.295   0.931
 3053SOL    HW2 9912   3.205   0.291   1.000
 3054SOL     OW 9913   3.438   1.662   0.307
 3054SOL    HW1 9914   3.527   1.708   0.310
 3054SOL    HW2 9915   3.417   1.638   0.212
 3055SOL     OW 9916   2.669   0.605   1.465
 3055SOL    HW1 9917   2.622   0.602   1.554
 3055SOL    HW2 9918   2.618   0.550   1.399
 3056SOL     OW 9919   3.256   0.469   1.674
 3056SOL    HW1 9920   3.236   0.512   1.762
 3056SOL    HW2 9921   3.334   0.407   1.683
 3057SOL     OW 9922   2.835   0.890   1.572
 3057SOL    HW1 9923   2.881   0.806   1.543
 3057SOL    HW2 9924   2.779   0.924   1.497
 3058SOL     OW 9925   2.853   0.410   1.242
 3058SOL    HW1 9926   2.776   0.444   1.296
 3058SOL    HW2 9927   2.819   0.359   1.163
 3059SOL     OW 9928   2.903   0.701   0.429
 3059SOL    HW1 9929   2.929   0.697   0.525
 3059SOL    HW2 9930   2.818   0.650   0.415
 3060SOL     OW 9931   1.938   0.811   0.789
 3060SOL    HW1 9932   2.037   0.799   0.798
 3060SOL    HW2 9933   1.914   0.906   0.810
 3061SOL     OW 9934   1.992   1.821   1.571
 3061SOL    HW1 9935   1.982   1.806   1.670
 3061SOL    HW2 9936   1.906   1.857   1.535
 3062SOL     OW 9937   2.727   0.348   0.195
 3062SOL    HW1 9938   2.786   0.411   0.146
 3062SOL    HW2 9939   2.746   0.254   0.166
 3063SOL     OW 9940   3.581   0.585   1.831
 3063SOL    HW1 9941   3.555   0.674   1.795
 3063SOL    HW2 9942   3.579   0.517   1.758
 3064SOL     OW 9943   3.224   1.144   0.545
 3064SOL    HW1 9944   3.307   1.115   0.497
 3064SOL    HW2 9945   3.175   1.211   0.489
 3065SOL     OW 9946   2.412   0.196   0.885
 3065SOL    HW1 9947   2.407   0.191   0.985
 3065SOL    HW2 9948   2.414   0.292   0.856
 3066SOL     OW 9949   2.870   1.456   0.477
 3066SOL    HW1 9950   2.824   1.528   0.425
 3066SOL    HW2 9951   2.866   1.476   0.575
 3067SOL     OW 9952   2.213   1.801   0.853
 3067SOL    HW1 9953   2.263   1.715   0.859
 3067SOL    HW2 9954   2.278   1.878   0.850
 3068SOL     OW 9955   3.657   1.066   0.873
 3068SOL    HW1 9956   3.595   1.051   0.797
 3068SOL    HW2 9957   3.605   1.077   0.958
 3069SOL     OW 9958   3.089   1.550   1.506
 3069SOL    HW1 9959   3.095   1.473   1.570
 3069SOL    HW2 9960   3.037   1.524   1.426
 3070SOL     OW 9961   2.183   0.943   0.242
 3070SOL    HW1 9962   2.265   0.982   0.200
 3070SOL    HW2 9963   2.156   0.861   0.193
 3071SOL     OW 9964   3.320   0.735   0.728
 3071SOL    HW1 9965   3.315   0.670   0.803
 3071SOL    HW2 9966   3.400   0.794   0.741
 3072SOL     OW 9967   2.323   1.266   1.727
 3072SOL    HW1 9968   2.273   1.267   1.641
 3072SOL    HW2 9969   2.260   1.248   1.803
 3073SOL     OW 9970   2.973   1.776   0.237
 3073SOL    HW1 9971   2.913   1.714   0.287
 3073SOL    HW2 9972   3.004   1.732   0.152
 3074SOL     OW 9973   2.064   0.285   1.498
 3074SOL    HW1 9974   1.984   0.345   1.485
 3074SOL    HW2 9975   2.054   0.236   1.584
 3075SOL     OW 9976   3.494   1.377   0.081
 3075SOL    HW1 9977   3.462   1.471   0.071
 3075SOL    HW2 9978   3.418   1.314   0.069
 3076SOL     OW 9979   2.326   1.743   0.323
 3076SOL    HW1 9980   2.359   1.782   0.409
 3076SOL    HW2 9981   2.402   1.736   0.258
 3077SOL     OW 9982   3.262   0.107   0.426
 3077SOL    HW1 9983   3.238   0.070   0.336
 3077SOL    HW2 9984   3.361   0.123   0.430
 3078SOL     OW 9985   2.111   1.785   1.241
 3078SOL    HW1 9986   2.168   1.720   1.291
 3078SOL    HW2 9987   2.095   1.752   1.148
 3079SOL     OW 9988   2.802   1.698   0.904
 3079SOL    HW1 9989   2.882   1.641   0.925
 3079SOL    HW2 9990   2.753   1.658   0.827
 3080SOL     OW 9991   2.244   0.700   0.480
 3080SOL    HW1 9992   2.289   0.610   0.477
 3080SOL    HW2 9993   2.150   0.689   0.513
 3081SOL     OW 9994   3.409   0.222   1.729
 3081SOL    HW1 9995   3.404   0.259   1.821
 3081SOL    HW2 9996   3.337   0.153   1.717
 3082SOL     OW 9997   2.476   0.122   0.117
 3082SOL    HW1 9998   2.574   0.100   0.124
 3082SOL    HW2 9999   2.445   0.105   0.024
 3083SOL     OW10000   2.643   0.264   1.749
 3083SOL    HW110001   2.710   0.203   1.792
 3083SOL    HW210002   2.570   0.283   1.814
 3084SOL     OW10003   2.750   1.514   1.195
 3084SOL    HW110004   2.727   1.489   1.101
 3084SOL    HW210005   2.811   1.445   1.234
 3085SOL     OW10006   3.213   0.590   1.433
 3085SOL    HW110007   3.241   0.547   1.518
 3085SOL    HW210008   3.238   0.686   1.434
 3086SOL     OW10009   2.665   1.402   0.924
 3086SOL    HW110010   2.755   1.416   0.882
 3086SOL    HW210011   2.594   1.404   0.853
 3087SOL     OW10012   2.784   0.503   0.899
 3087SOL    HW110013   2.759   0.494   0.803
 3087SOL    HW210014   2.832   0.421   0.930
 3088SOL     OW10015   2.401   0.064   0.512
 3088SOL    HW110016   2.320   0.065   0.570
 3088SOL    HW210017   2.404   0.147   0.457
 3089SOL     OW10018   3.296   1.188   0.041
 3089SOL    HW110019   3.328   1.112   0.098
 3089SOL    HW210020   3.204   1.215   0.071
 3090SOL     OW10021   2.159   0.035   0.171
 3090SOL    HW110022   2.208   0.119   0.150
 3090SOL    HW210023   2.221  -0.030   0.216
 3091SOL     OW10024   2.797   0.236   0.480
 3091SOL    HW110025   2.749   0.277   0.402
 3091SOL    HW210026   2.896   0.234   0.461
 3092SOL     OW10027   2.938   0.683   1.464
 3092SOL    HW110028   2.858   0.622   1.467
 3092SOL    HW210029   3.019   0.630   1.440
 3093SOL     OW10030   3.089   1.570   0.793
 3093SOL    HW110031   3.110   1.644   0.728
 3093SOL    HW210032   3.157   1.570   0.866
 3094SOL     OW10033   2.321   1.152   0.741
 3094SOL    HW110034   2.250   1.125   0.806
 3094SOL    HW210035   2.295   1.124   0.648
 3095SOL     OW10036   3.133   1.797   0.591
 3095SOL    HW110037   3.177   1.861   0.527
 3095SOL    HW210038   3.083   1.849   0.661
 3096SOL     OW10039   2.894   0.549   0.016
 3096SOL    HW110040   2.853   0.631  -0.023
 3096SOL    HW210041   2.958   0.575   0.089
 3097SOL     OW10042   1.940   0.556   1.386
 3097SOL    HW110043   2.032   0.555   1.345
 3097SOL    HW210044   1.934   0.630   1.453
 3098SOL     OW10045   2.423   0.222   1.147
 3098SOL    HW110046   2.461   0.138   1.184
 3098SOL    HW210047   2.335   0.241   1.191
 3099SOL     OW10048   2.728   0.454   0.642
 3099SOL    HW110049   2.696   0.526   0.580
 3099SOL    HW210050   2.752   0.373   0.589
 3100SOL     OW10051   2.879   0.039   0.753
 3100SOL    HW110052   2.807   0.044   0.684
 3100SOL    HW210053   2.855  -0.030   0.822
 3101SOL     OW10054   3.291   1.173   0.867
 3101SOL    HW110055   3.236   1.089   0.860
 3101SOL    HW210056   3.317   1.202   0.775
 3102SOL     OW10057   3.328   0.590   0.992
 3102SOL    HW110058   3.298   0.495   0.999
 3102SOL    HW210059   3.401   0.606   1.058
 3103SOL     OW10060   3.719   0.833   0.377
 3103SOL    HW110061   3.761   0.769   0.441
 3103SOL    HW210062   3.681   0.782   0.299
 3104SOL     OW10063   2.350   1.385   0.174
 3104SOL    HW110064   2.263   1.370   0.221
 3104SOL    HW210065   2.333   1.411   0.079
 3105SOL     OW10066   3.526   1.280   0.657
 3105SOL    HW110067   3.625   1.288   0.671
 3105SOL    HW210068   3.481   1.364   0.688
 3106SOL     OW10069   3.252   0.575   0.078
 3106SOL    HW110070   3.198   0.554   0.159
 3106SOL    HW210071   3.343   0.534   0.087
 3107SOL     OW10072   2.389   0.256   0.328
 3107SOL    HW110073   2.416   0.197   0.253
 3107SOL    HW210074   2.389   0.351   0.297
 3108SOL     OW10075   3.616   1.223   1.588
 3108SOL    HW110076   3.707   1.184   1.575
 3108SOL    HW210077   3.624   1.319   1.612
 3109SOL     OW10078   2.926   1.347   1.340
 3109SOL    HW110079   2.846   1.324   1.395
 3109SOL    HW210080   3.009   1.321   1.389
 3110SOL     OW10081   3.454   1.629   1.625
 3110SOL    HW110082   3.481   1.663   1.535
 3110SOL    HW210083   3.533   1.591   1.671
 3111SOL     OW10084   2.973   1.195   1.100
 3111SOL    HW110085   2.933   1.239   1.181
 3111SOL    HW210086   2.932   1.232   1.017
 3112SOL     OW10087   3.500   1.099   1.079
 3112SOL    HW110088   3.505   1.180   1.138
 3112SOL    HW210089   3.414   1.101   1.028
 3113SOL     OW10090   2.777   0.089   1.402
 3113SOL    HW110091   2.802   0.069   1.307
 3113SOL    HW210092   2.849   0.145   1.444
 3114SOL     OW10093   2.842   1.116   1.719
 3114SOL    HW110094   2.743   1.122   1.729
 3114SOL    HW210095   2.865   1.036   1.663
 3115SOL     OW10096   2.567   1.050   0.368
 3115SOL    HW110097   2.553   1.057   0.467
 3115SOL    HW210098   2.651   0.999   0.350
 3116SOL     OW10099   2.272   0.813   1.251
 3116SOL    HW110100   2.358   0.825   1.301
 3116SOL    HW210101   2.230   0.726   1.278
 3117SOL     OW10102   3.136   0.386   1.262
 3117SOL    HW110103   3.157   0.460   1.326
 3117SOL    HW210104   3.047   0.403   1.219
 3118SOL     OW10105   1.926   1.564   1.331
 3118SOL    HW110106   1.880   1.646   1.297
 3118SOL    HW210107   2.024   1.583   1.340
 3119SOL     OW10108   2.229   1.100   0.501
 3119SOL    HW110109   2.222   1.183   0.445
 3119SOL    HW210110   2.233   1.020   0.441
 3120SOL     OW10111   2.428   0.537   0.865
 3120SOL    HW110112   2.440   0.603   0.791
 3120SOL    HW210113   2.474   0.571   0.948
 3121SOL     OW10114   3.114   1.348   0.388
 3121SOL    HW110115   3.164   1.425   0.428
 3121SOL    HW210116   3.019   1.350   0.420
 3122SOL     OW10117   3.134   1.445   1.142
 3122SOL    HW110118   3.181   1.458   1.229
 3122SOL    HW210119   3.068   1.371   1.151
 3123SOL     OW10120   3.444   0.639   0.472
 3123SOL    HW110121   3.413   0.700   0.545
 3123SOL    HW210122   3.494   0.691   0.403
 3124SOL     OW10123   2.216   1.510   1.329
 3124SOL    HW110124   2.195   1.466   1.242
 3124SOL    HW210125   2.313   1.536   1.332
 3125SOL     OW10126   2.264   0.751   1.598
 3125SOL    HW110127   2.332   0.806   1.551
 3125SOL    HW210128   2.304   0.663   1.625
 3126SOL     OW10129   3.449   0.779   1.670
 3126SOL    HW110130   3.357   0.817   1.665
 3126SOL    HW210131   3.509   0.826   1.605
 3127SOL     OW10132   2.875   0.105   1.770
 3127SOL    HW110133   2.881   0.190   1.718
 3127SOL    HW210134   2.907   0.029   1.713
 3128SOL     OW10135   2.366   0.050   1.740
 3128SOL    HW110136   2.324  -0.007   1.670
 3128SOL    HW210137   2.300   0.119   1.772
 3129SOL     OW10138   2.435   0.870   1.029
 3129SOL    HW110139   2.479   0.959   1.020
 3129SOL    HW210140   2.372   0.870   1.106
 3130SOL     OW10141   3.222   0.862   1.045
 3130SOL    HW110142   3.147   0.862   0.979
 3130SOL    HW210143   3.259   0.770   1.054
 3131SOL     OW10144   3.071   0.525   0.275
 3131SOL    HW110145   3.084   0.441   0.329
 3131SOL    HW210146   3.042   0.599   0.335
 3132SOL     OW10147   2.169   0.213   1.231
 3132SOL    HW110148   2.146   0.250   1.321
 3132SOL    HW210149   2.139   0.118   1.225
 3133SOL     OW10150   1.899   1.310   1.282
 3133SOL    HW110151   1.952   1.261   1.350
 3133SOL    HW210152   1.921   1.408   1.287
 3134SOL     OW10153   2.594   0.634   1.064
 3134SOL    HW110154   2.653   0.608   0.988
 3134SOL    HW210155   2.566   0.730   1.053
 3135SOL     OW10156   3.590   0.935   1.854
 3135SOL    HW110157   3.544   0.928   1.765
 3135SOL    HW210158   3.528   0.979   1.920
 3136SOL     OW10159   2.169   0.063   0.618
 3136SOL    HW110160   2.158   0.157   0.651
 3136SOL    HW210161   2.164   0.000   0.695
 3137SOL     OW10162   3.484   0.367   0.374
 3137SOL    HW110163   3.486   0.291   0.438
 3137SOL    HW210164   3.436   0.444   0.414
 3138SOL     OW10165   2.885   0.766   0.966
 3138SOL    HW110166   2.900   0.787   1.062
 3138SOL    HW210167   2.855   0.671   0.957
 3139SOL     OW10168   2.842   1.573   1.700
 3139SOL    HW110169   2.822   1.617   1.612
 3139SOL    HW210170   2.881   1.482   1.684
 3140SOL     OW10171   3.721   1.518   1.605
 3140SOL    HW110172   3.735   1.545   1.510
 3140SOL    HW210173   3.804   1.540   1.658
 3141SOL     OW10174   2.212   0.898   1.804
 3141SOL    HW110175   2.288   0.942   1.852
 3141SOL    HW210176   2.247   0.851   1.722
 3142SOL     OW10177   3.402   0.274   0.125
 3142SOL    HW110178   3.341   0.199   0.148
 3142SOL    HW210179   3.424   0.326   0.208
 3143SOL     OW10180   3.165   0.838   0.042
 3143SOL    HW110181   3.199   0.745   0.057
 3143SOL    HW210182   3.183   0.865  -0.053
 3144SOL     OW10183   2.930   1.333   0.849
 3144SOL    HW110184   2.937   1.249   0.794
 3144SOL    HW210185   2.992   1.402   0.813
 3145SOL     OW10186   2.181   0.810   0.949
 3145SOL    HW110187   2.274   0.846   0.954
 3145SOL    HW210188   2.175   0.725   1.001
 3146SOL     OW10189   2.201   0.509   1.006
 3146SOL    HW110190   2.149   0.426   0.989
 3146SOL    HW210191   2.278   0.514   0.942
 3147SOL     OW10192   3.000   0.380   1.678
 3147SOL    HW110193   2.955   0.443   1.742
 3147SOL    HW210194   3.093   0.411   1.661
 3148SOL     OW10195   3.022   0.207   1.477
 3148SOL    HW110196   3.022   0.271   1.554
 3148SOL    HW210197   3.050   0.255   1.394
 3149SOL     OW10198   1.870   1.326   0.200
 3149SOL    HW110199   1.777   1.347   0.169
 3149SOL    HW210200   1.880   1.227   0.213
 3150SOL     OW10201   1.950   1.801   0.927
 3150SOL    HW110202   1.908   1.715   0.900
 3150SOL    HW210203   2.044   1.804   0.893
 3151SOL     OW10204   2.366   1.568   0.910
 3151SOL    HW110205   2.432   1.642   0.919
 3151SOL    HW210206   2.410   1.489   0.868
 3152SOL     OW10207   2.864   0.796   1.238
 3152SOL    HW110208   2.905   0.764   1.324
 3152SOL    HW210209   2.768   0.769   1.235
 3153SOL     OW10210   1.902   0.544   1.114
 3153SOL    HW110211   1.987   0.511   1.073
 3153SOL    HW210212   1.915   0.559   1.212
 3154SOL     OW10213   2.051   0.520   1.722
 3154SOL    HW110214   2.110   0.480   1.652
 3154SOL    HW210215   1.993   0.591   1.681
 3155SOL     OW10216   3.231   0.950   1.660
 3155SOL    HW110217   3.270   1.039   1.680
 3155SOL    HW210218   3.241   0.930   1.563
 3156SOL     OW10219   2.677   0.572   0.325
 3156SOL    HW110220   2.684   0.483   0.279
 3156SOL    HW210221   2.583   0.606   0.317
 3157SOL     OW10222   3.519   0.604   1.206
 3157SOL    HW110223   3.481   0.535   1.268
 3157SOL    HW210224   3.601   0.568   1.162
 3158SOL     OW10225   2.114   1.564   1.744
 3158SOL    HW110226   2.084   1.621   1.820
 3158SOL    HW210227   2.107   1.467   1.770
 3159SOL     OW10228   2.533   0.464   1.269
 3159SOL    HW110229   2.499   0.375   1.239
 3159SOL    HW210230   2.559   0.518   1.189
 3160SOL     OW10231   2.792   1.678   1.465
 3160SOL    HW110232   2.768   1.660   1.370
 3160SOL    HW210233   2.822   1.772   1.475
 3161SOL     OW10234   2.335   0.500   0.191
 3161SOL    HW110235   2.396   0.580   0.195
 3161SOL    HW210236   2.240   0.531   0.198
 3162SOL     OW10237   2.021   1.137   1.466
 3162SOL    HW110238   2.043   1.076   1.542
 3162SOL    HW210239   2.031   1.088   1.380
 3163SOL     OW10240   3.209   1.059   1.234
 3163SOL    HW110241   3.233   0.996   1.160
 3163SOL    HW210242   3.119   1.099   1.216
 3164SOL     OW10243   3.164   0.855   0.309
 3164SOL    HW110244   3.078   0.824   0.351
 3164SOL    HW210245   3.160   0.841   0.210
 3165SOL     OW10246   3.621   1.747   1.154
 3165SOL    HW110247   3.682   1.777   1.081
 3165SOL    HW210248   3.583   1.658   1.132
 3166SOL     OW10249   3.114   1.731   1.128
 3166SOL    HW110250   3.198   1.736   1.074
 3166SOL    HW210251   3.091   1.635   1.146
 3167SOL     OW10252   1.945   1.258   1.022
 3167SOL    HW110253   1.940   1.257   1.122
 3167SOL    HW210254   1.862   1.217   0.984
 3168SOL     OW10255   2.550   1.662   1.716
 3168SOL    HW110256   2.494   1.743   1.725
 3168SOL    HW210257   2.602   1.666   1.630
 3169SOL     OW10258   2.765   0.086   0.133
 3169SOL    HW110259   2.816   0.087   0.047
 3169SOL    HW210260   2.821   0.044   0.204
 3170SOL     OW10261   3.588   0.135   0.523
 3170SOL    HW110262   3.661   0.118   0.456
 3170SOL    HW210263   3.557   0.048   0.561
 3171SOL     OW10264   3.250   1.573   0.477
 3171SOL    HW110265   3.317   1.585   0.403
 3171SOL    HW210266   3.210   1.662   0.500
 3172SOL     OW10267   1.992   1.794   1.851
 3172SOL    HW110268   1.951   1.720   1.904
 3172SOL    HW210269   2.056   1.845   1.909
 3173SOL     OW10270   3.142   0.927   0.672
 3173SOL    HW110271   3.202   0.846   0.674
 3173SOL    HW210272   3.182   0.996   0.612
 3174SOL     OW10273   2.692   1.273   1.422
 3174SOL    HW110274   2.687   1.306   1.517
 3174SOL    HW210275   2.606   1.292   1.376
 3175SOL     OW10276   2.534   1.616   0.154
 3175SOL    HW110277   2.543   1.626   0.055
 3175SOL    HW210278   2.494   1.527   0.175
 3176SOL     OW10279   3.512   1.720   1.394
 3176SOL    HW110280   3.565   1.730   1.310
 3176SOL    HW210281   3.485   1.810   1.428
 3177SOL     OW10282   3.703   0.175   0.963
 3177SOL    HW110283   3.742   0.090   0.927
 3177SOL    HW210284   3.605   0.177   0.944
 3178SOL     OW10285   2.125   0.326   0.720
 3178SOL    HW110286   2.046   0.377   0.686
 3178SOL    HW210287   2.116   0.311   0.818
 3179SOL     OW10288   3.056   1.612   0.031
 3179SOL    HW110289   3.062   1.519   0.068
 3179SOL    HW210290   2.997   1.612  -0.049
 3180SOL     OW10291   2.684   1.002   1.372
 3180SOL    HW110292   2.724   1.001   1.280
 3180SOL    HW210293   2.694   1.094   1.412
 3181SOL     OW10294   2.778   0.910   0.291
 3181SOL    HW110295   2.841   0.948   0.223
 3181SOL    HW210296   2.818   0.827   0.330
 3182SOL     OW10297   3.366   1.607   0.044
 3182SOL    HW110298   3.274   1.644   0.051
 3182SOL    HW210299   3.404   1.627  -0.046
 3183SOL     OW10300   2.234   1.288   1.490
 3183SOL    HW110301   2.221   1.381   1.456
 3183SOL    HW210302   2.150   1.236   1.477
 3184SOL     OW10303   3.476   1.292   1.289
 3184SOL    HW110304   3.536   1.295   1.369
 3184SOL    HW210305   3.401   1.356   1.302
 3185SOL     OW10306   2.901   1.098   0.696
 3185SOL    HW110307   2.831   1.051   0.750
 3185SOL    HW210308   2.960   1.030   0.653
 3186SOL     OW10309   2.876   0.236   0.971
 3186SOL    HW110310   2.868   0.200   0.878
 3186SOL    HW210311   2.874   0.160   1.036
 3187SOL     OW10312   2.452   1.487   0.491
 3187SOL    HW110313   2.494   1.429   0.421
 3187SOL    HW210314   2.408   1.566   0.447
 3188SOL     OW10315   3.571   0.385   1.381
 3188SOL    HW110316   3.644   0.454   1.385
 3188SOL    HW210317   3.599   0.310   1.322
 3189SOL     OW10318   2.117   1.348   0.290
 3189SOL    HW110319   2.021   1.349   0.263
 3189SOL    HW210320   2.129   1.401   0.374
 3190SOL     OW10321   1.967   1.013   1.726
 3190SOL    HW110322   1.890   0.980   1.780
 3190SOL    HW210323   2.052   0.983   1.768
 3191SOL     OW10324   2.534   0.203   1.489
 3191SOL    HW110325   2.624   0.187   1.449
 3191SOL    HW210326   2.542   0.208   1.588
 3192SOL     OW10327   1.937   0.345   0.033
 3192SOL    HW110328   1.845   0.317   0.004
 3192SOL    HW210329   1.968   0.422  -0.023
 3193SOL     OW10330   3.302   0.856   1.398
 3193SOL    HW110331   3.245   0.908   1.335
 3193SOL    HW210332   3.398   0.868   1.374
 3194SOL     OW10333   1.934   0.166   0.318
 3194SOL    HW110334   1.917   0.249   0.264
 3194SOL    HW210335   2.024   0.129   0.296
 3195SOL     OW10336   3.045   1.335   0.119
 3195SOL    HW110337   2.946   1.324   0.121
 3195SOL    HW210338   3.079   1.350   0.212
 3196SOL     OW10339   2.475   0.842   1.431
 3196SOL    HW110340   2.531   0.923   1.414
 3196SOL    HW210341   2.534   0.762   1.434
 3197SOL     OW10342   3.355   1.767   0.959
 3197SOL    HW110343   3.388   1.831   0.890
 3197SOL    HW210344   3.421   1.761   1.034
 3198SOL     OW10345   2.578   0.565   1.708
 3198SOL    HW110346   2.597   0.630   1.782
 3198SOL    HW210347   2.638   0.485   1.717
 3199SOL     OW10348   3.312   1.220   1.633
 3199SOL    HW110349   3.303   1.210   1.732
 3199SOL    HW210350   3.408   1.213   1.607
 3200SOL     OW10351   2.252   1.741   1.560
 3200SOL    HW110352   2.161   1.782   1.558
 3200SOL    HW210353   2.245   1.647   1.592
 3201SOL     OW10354   3.536   0.883   1.254
 3201SOL    HW110355   3.509   0.794   1.217
 3201SOL    HW210356   3.537   0.951   1.181
 3202SOL     OW10357   3.087   0.325   0.449
 3202SOL    HW110358   3.152   0.251   0.438
 3202SOL    HW210359   3.107   0.375   0.533
 3203SOL     OW10360   2.456   0.745   0.652
 3203SOL    HW110361   2.506   0.830   0.633
 3203SOL    HW210362   2.368   0.747   0.604
 3204SOL     OW10363   3.639   0.342   1.642
 3204SOL    HW110364   3.622   0.373   1.548
 3204SOL    HW210365   3.555   0.305   1.680
 3205SOL     OW10366   3.592   0.934   1.517
 3205SOL    HW110367   3.630   1.025   1.532
 3205SOL    HW210368   3.584   0.917   1.418
 3206SOL     OW10369   2.721   1.374   0.016
 3206SOL    HW110370   2.675   1.389   0.104
 3206SOL    HW210371   2.765   1.459  -0.014
 3207SOL     OW10372   2.523   1.790   0.953
 3207SOL    HW110373   2.477   1.878   0.940
 3207SOL    HW210374   2.622   1.802   0.946
 3208SOL     OW10375   2.721   0.956   0.861
 3208SOL    HW110376   2.775   0.887   0.909
 3208SOL    HW210377   2.689   1.025   0.927
 3209SOL     OW10378   2.945   0.984   0.087
 3209SOL    HW110379   2.922   1.037   0.005
 3209SOL    HW210380   3.026   0.928   0.068
 3210SOL     OW10381   3.723   1.569   0.851
 3210SOL    HW110382   3.652   1.557   0.781
 3210SOL    HW210383   3.724   1.490   0.911
 3211SOL     OW10384   2.083   1.314   1.844
 3211SOL    HW110385   2.018   1.241   1.823
 3211SOL    HW210386   2.087   1.328   1.942
 3212SOL     OW10387   1.941   1.240   0.653
 3212SOL    HW110388   1.940   1.193   0.741
 3212SOL    HW210389   2.023   1.212   0.602
 3213SOL     OW10390   2.534   1.391   1.624
 3213SOL    HW110391   2.456   1.341   1.662
 3213SOL    HW210392   2.531   1.486   1.655
 3214SOL     OW10393   3.686   0.192   1.227
 3214SOL    HW110394   3.682   0.102   1.271
 3214SOL    HW210395   3.689   0.181   1.128
 3215SOL     OW10396   2.290   0.424   0.520
 3215SOL    HW110397   2.320   0.352   0.458
 3215SOL    HW210398   2.251   0.384   0.603
 3216SOL     OW10399   3.567   1.487   1.104
 3216SOL    HW110400   3.474   1.462   1.077
 3216SOL    HW210401   3.593   1.437   1.186
 3217SOL     OW10402   2.179   0.547   1.280
 3217SOL    HW110403   2.217   0.488   1.352
 3217SOL    HW210404   2.219   0.521   1.192
 3218SOL     OW10405   2.674   1.586   0.687
 3218SOL    HW110406   2.706   1.596   0.593
 3218SOL    HW210407   2.595   1.524   0.689
 3219SOL     OW10408   3.286   0.214   1.112
 3219SOL    HW110409   3.338   0.149   1.167
 3219SOL    HW210410   3.237   0.277   1.173
 3220SOL     OW10411   2.863   0.034   1.154
 3220SOL    HW110412   2.800  -0.038   1.123
 3220SOL    HW210413   2.956  -0.002   1.154
 3221SOL     OW10414   2.632   1.330   0.301
 3221SOL    HW110415   2.586   1.243   0.318
 3221SOL    HW210416   2.723   1.327   0.342
 3222SOL     OW10417   2.480   1.567   1.284
 3222SOL    HW110418   2.475   1.649   1.341
 3222SOL    HW210419   2.569   1.564   1.239
 3223SOL     OW10420   3.214   0.052   0.168
 3223SOL    HW110421   3.249   0.011   0.084
 3223SOL    HW210422   3.124   0.014   0.188
 3224SOL     OW10423   3.162   0.453   0.691
 3224SOL    HW110424   3.103   0.533   0.695
 3224SOL    HW210425   3.177   0.418   0.784
 3225SOL     OW10426   3.455   0.221   0.882
 3225SOL    HW110427   3.371   0.220   0.936
 3225SOL    HW210428   3.457   0.304   0.826
 3226SOL     OW10429   1.901   1.077   0.300
 3226SOL    HW110430   2.000   1.066   0.291
 3226SOL    HW210431   1.861   0.991   0.332
 3227SOL     OW10432   2.737   1.646   0.337
 3227SOL    HW110433   2.660   1.611   0.283
 3227SOL    HW210434   2.705   1.717   0.399
 3228SOL     OW10435   2.092   0.628   1.975
 3228SOL    HW110436   1.999   0.626   2.012
 3228SOL    HW210437   2.093   0.589   1.883
 3229SOL     OW10438   2.087   0.275   2.858
 3229SOL    HW110439   2.122   0.258   2.950
 3229SOL    HW210440   1.999   0.230   2.846
 3230SOL     OW10441   1.881   0.368   2.509
 3230SOL    HW110442   1.799   0.411   2.548
 3230SOL    HW210443   1.853   0.295   2.446
 3231SOL     OW10444   2.431   1.275   3.027
 3231SOL    HW110445   2.338   1.268   2.990
 3231SOL    HW210446   2.442   1.364   3.071
 3232SOL     OW10447   3.417   1.511   2.565
 3232SOL    HW110448   3.360   1.495   2.646
 3232SOL    HW210449   3.358   1.521   2.485
 3233SOL     OW10450   2.997   0.703   2.579
 3233SOL    HW110451   3.054   0.781   2.554
 3233SOL    HW210452   2.937   0.729   2.655
 3234SOL     OW10453   3.617   0.607   2.093
 3234SOL    HW110454   3.605   0.594   1.994
 3234SOL    HW210455   3.587   0.526   2.142
 3235SOL     OW10456   2.630   1.144   2.885
 3235SOL    HW110457   2.552   1.161   2.945
 3235SOL    HW210458   2.664   1.231   2.849
 3236SOL     OW10459   2.712   0.798   3.685
 3236SOL    HW110460   2.708   0.874   3.750
 3236SOL    HW210461   2.734   0.834   3.594
 3237SOL     OW10462   2.547   1.012   2.527
 3237SOL    HW110463   2.616   0.996   2.597
 3237SOL    HW210464   2.474   1.069   2.565
 3238SOL     OW10465   2.548   1.161   3.665
 3238SOL    HW110466   2.608   1.240   3.679
 3238SOL    HW210467   2.462   1.192   3.624
 3239SOL     OW10468   2.197   1.435   2.923
 3239SOL    HW110469   2.119   1.404   2.870
 3239SOL    HW210470   2.255   1.493   2.866
 3240SOL     OW10471   3.322   1.505   3.201
 3240SOL    HW110472   3.346   1.599   3.227
 3240SOL    HW210473   3.306   1.451   3.283
 3241SOL     OW10474   2.300   0.392   3.361
 3241SOL    HW110475   2.382   0.336   3.370
 3241SOL    HW210476   2.219   0.334   3.365
 3242SOL     OW10477   3.465   0.447   2.599
 3242SOL    HW110478   3.391   0.493   2.549
 3242SOL    HW210479   3.516   0.515   2.652
 3243SOL     OW10480   2.093   1.713   2.345
 3243SOL    HW110481   2.127   1.790   2.399
 3243SOL    HW210482   2.137   1.713   2.255
 3244SOL     OW10483   2.989   1.341   3.552
 3244SOL    HW110484   3.036   1.341   3.640
 3244SOL    HW210485   2.941   1.254   3.541
 3245SOL     OW10486   2.092   1.434   2.400
 3245SOL    HW110487   2.066   1.530   2.400
 3245SOL    HW210488   2.021   1.380   2.445
 3246SOL     OW10489   2.102   1.091   2.748
 3246SOL    HW110490   2.116   1.007   2.800
 3246SOL    HW210491   2.047   1.155   2.803
 3247SOL     OW10492   2.482   1.786   3.301
 3247SOL    HW110493   2.390   1.769   3.336
 3247SOL    HW210494   2.510   1.878   3.327
 3248SOL     OW10495   2.468   0.964   1.985
 3248SOL    HW110496   2.475   1.048   1.931
 3248SOL    HW210497   2.514   0.977   2.073
 3249SOL     OW10498   3.456   0.114   3.342
 3249SOL    HW110499   3.438   0.181   3.270
 3249SOL    HW210500   3.453   0.160   3.431
 3250SOL     OW10501   1.984   0.643   2.425
 3250SOL    HW110502   1.939   0.555   2.442
 3250SOL    HW210503   1.983   0.697   2.509
 3251SOL     OW10504   3.704   1.767   2.221
 3251SOL    HW110505   3.758   1.738   2.301
 3251SOL    HW210506   3.734   1.857   2.192
 3252SOL     OW10507   1.889   1.596   1.979
 3252SOL    HW110508   1.870   1.500   2.000
 3252SOL    HW210509   1.856   1.654   2.054
 3253SOL     OW10510   3.551   0.922   2.474
 3253SOL    HW110511   3.646   0.893   2.482
 3253SOL    HW210512   3.543   0.987   2.399
 3254SOL     OW10513   3.503   1.108   2.294
 3254SOL    HW110514   3.589   1.110   2.242
 3254SOL    HW210515   3.517   1.155   2.382
 3255SOL     OW10516   1.975   0.737   3.459
 3255SOL    HW110517   2.063   0.724   3.504
 3255SOL    HW210518   1.962   0.834   3.437
 3256SOL     OW10519   2.475   1.365   2.588
 3256SOL    HW110520   2.426   1.278   2.597
 3256SOL    HW210521   2.452   1.408   2.501
 3257SOL     OW10522   3.155   1.228   3.285
 3257SOL    HW110523   3.192   1.155   3.227
 3257SOL    HW210524   3.207   1.233   3.370
 3258SOL     OW10525   2.671   0.004   2.364
 3258SOL    HW110526   2.711   0.095   2.355
 3258SOL    HW210527   2.571   0.012   2.370
 3259SOL     OW10528   2.059   0.976   3.126
 3259SOL    HW110529   2.148   0.931   3.112
 3259SOL    HW210530   1.986   0.911   3.107
 3260SOL     OW10531   3.387   0.999   2.052
 3260SOL    HW110532   3.324   0.923   2.065
 3260SOL    HW210533   3.435   1.017   2.138
 3261SOL     OW10534   3.049   1.792   3.478
 3261SOL    HW110535   3.073   1.852   3.402
 3261SOL    HW210536   3.056   1.697   3.448
 3262SOL     OW10537   2.179   0.251   3.663
 3262SOL    HW110538   2.250   0.322   3.669
 3262SOL    HW210539   2.091   0.290   3.691
 3263SOL     OW10540   3.328   1.417   2.815
 3263SOL    HW110541   3.269   1.423   2.895
 3263SOL    HW210542   3.313   1.329   2.769
 3264SOL     OW10543   3.529   1.714   2.434
 3264SOL    HW110544   3.488   1.691   2.346
 3264SOL    HW210545   3.511   1.640   2.499
 3265SOL     OW10546   2.460   0.729   2.132
 3265SOL    HW110547   2.484   0.798   2.064
 3265SOL    HW210548   2.382   0.762   2.186
 3266SOL     OW10549   3.143   0.345   2.806
 3266SOL    HW110550   3.057   0.295   2.793
 3266SOL    HW210551   3.205   0.291   2.862
 3267SOL     OW10552   3.438   1.662   2.169
 3267SOL    HW110553   3.527   1.708   2.172
 3267SOL    HW210554   3.417   1.638   2.074
 3268SOL     OW10555   2.669   0.605   3.327
 3268SOL    HW110556   2.622   0.602   3.416
 3268SOL    HW210557   2.618   0.550   3.261
 3269SOL     OW10558   3.256   0.469   3.536
 3269SOL    HW110559   3.236   0.512   3.624
 3269SOL    HW210560   3.334   0.407   3.545
 3270SOL     OW10561   2.835   0.890   3.434
 3270SOL    HW110562   2.881   0.806   3.405
 3270SOL    HW210563   2.779   0.924   3.359
 3271SOL     OW10564   2.853   0.410   3.104
 3271SOL    HW110565   2.776   0.444   3.158
 3271SOL    HW210566   2.819   0.359   3.025
 3272SOL     OW10567   2.903   0.701   2.291
 3272SOL    HW110568   2.929   0.697   2.387
 3272SOL    HW210569   2.818   0.650   2.277
 3273SOL     OW10570   1.938   0.811   2.651
 3273SOL    HW110571   2.037   0.799   2.660
 3273SOL    HW210572   1.914   0.906   2.672
 3274SOL     OW10573   1.992   1.821   3.433
 3274SOL    HW110574   1.982   1.806   3.532
 3274SOL    HW210575   1.906   1.857   3.397
 3275SOL     OW10576   2.727   0.348   2.057
 3275SOL    HW110577   2.786   0.411   2.008
 3275SOL    HW210578   2.746   0.254   2.028
 3276SOL     OW10579   3.581   0.585   3.693
 3276SOL    HW110580   3.555   0.674   3.657
 3276SOL    HW210581   3.579   0.517   3.620
 3277SOL     OW10582   3.224   1.144   2.407
 3277SOL    HW110583   3.307   1.115   2.359
 3277SOL    HW210584   3.175   1.211   2.351
 3278SOL     OW10585   2.412   0.196   2.747
 3278SOL    HW110586   2.407   0.191   2.847
 3278SOL    HW210587   2.414   0.292   2.718
 3279SOL     OW10588   2.870   1.456   2.339
 3279SOL    HW110589   2.824   1.528   2.287
 3279SOL    HW210590   2.866   1.476   2.437
 3280SOL     OW10591   2.213   1.801   2.715
 3280SOL    HW110592   2.263   1.715   2.721
 3280SOL    HW210593   2.278   1.878   2.712
 3281SOL     OW10594   3.657   1.066   2.735
 3281SOL    HW110595   3.595   1.051   2.659
 3281SOL    HW210596   3.605   1.077   2.820
 3282SOL     OW10597   3.089   1.550   3.368
 3282SOL    HW110598   3.095   1.473   3.432
 3282SOL    HW210599   3.037   1.524   3.288
 3283SOL     OW10600   2.183   0.943   2.104
 3283SOL    HW110601   2.265   0.982   2.062
 3283SOL    HW210602   2.156   0.861   2.055
 3284SOL     OW10603   3.320   0.735   2.590
 3284SOL    HW110604   3.315   0.670   2.665
 3284SOL    HW210605   3.400   0.794   2.603
 3285SOL     OW10606   2.323   1.266   3.589
 3285SOL    HW110607   2.273   1.267   3.503
 3285SOL    HW210608   2.260   1.248   3.665
 3286SOL     OW10609   2.973   1.776   2.099
 3286SOL    HW110610   2.913   1.714   2.149
 3286SOL    HW210611   3.004   1.732   2.014
 3287SOL     OW10612   2.064   0.285   3.360
 3287SOL    HW110613   1.984   0.345   3.347
 3287SOL    HW210614   2.054   0.236   3.446
 3288SOL     OW10615   3.494   1.377   1.943
 3288SOL    HW110616   3.462   1.471   1.933
 3288SOL    HW210617   3.418   1.314   1.931
 3289SOL     OW10618   2.326   1.743   2.185
 3289SOL    HW110619   2.359   1.782   2.271
 3289SOL    HW210620   2.402   1.736   2.120
 3290SOL     OW10621   3.262   0.107   2.288
 3290SOL    HW110622   3.238   0.070   2.198
 3290SOL    HW210623   3.361   0.123   2.292
 3291SOL     OW10624   2.111   1.785   3.103
 3291SOL    HW110625   2.168   1.720   3.153
 3291SOL    HW210626   2.095   1.752   3.010
 3292SOL     OW10627   2.802   1.698   2.766
 3292SOL    HW110628   2.882   1.641   2.787
 3292SOL    HW210629   2.753   1.658   2.689
 3293SOL     OW10630   2.244   0.700   2.342
 3293SOL    HW110631   2.289   0.610   2.339
 3293SOL    HW210632   2.150   0.689   2.375
 3294SOL     OW10633   3.409   0.222   3.591
 3294SOL    HW110634   3.404   0.259   3.683
 3294SOL    HW210635   3.337   0.153   3.579
 3295SOL     OW10636   2.476   0.122   1.979
 3295SOL    HW110637   2.574   0.100   1.986
 3295SOL    HW210638   2.445   0.105   1.886
 3296SOL     OW10639   2.643   0.264   3.611
 3296SOL    HW110640   2.710   0.203   3.654
 3296SOL    HW210641   2.570   0.283   3.676
 3297SOL     OW10642   2.750   1.514   3.057
 3297SOL    HW110643   2.727   1.489   2.963
 3297SOL    HW210644   2.811   1.445   3.096
 3298SOL     OW10645   3.213   0.590   3.295
 3298SOL    HW110646   3.241   0.547   3.380
 3298SOL    HW210647   3.238   0.686   3.296
 3299SOL     OW10648   2.665   1.402   2.786
 3299SOL    HW110649   2.755   1.416   2.744
 3299SOL    HW210650   2.594   1.404   2.715
 3300SOL     OW10651   2.784   0.503   2.761
 3300SOL    HW110652   2.759   0.494   2.665
 3300SOL    HW210653   2.832   0.421   2.792
 3301SOL     OW10654   2.401   0.064   2.374
 3301SOL    HW110655   2.320   0.065   2.432
 3301SOL    HW210656   2.404   0.147   2.319
 3302SOL     OW10657   3.296   1.188   1.903
 3302SOL    HW110658   3.328   1.112   1.960
 3302SOL    HW210659   3.204   1.215   1.933
 3303SOL     OW10660   2.159   0.035   2.033
 3303SOL    HW110661   2.208   0.119   2.012
 3303SOL    HW210662   2.221  -0.030   2.078
 3304SOL     OW10663   2.797   0.236   2.342
 3304SOL    HW110664   2.749   0.277   2.264
 3304SOL    HW210665   2.896   0.234   2.323
 3305SOL     OW10666   2.938   0.683   3.326
 3305SOL    HW110667   2.858   0.622   3.329
 3305SOL    HW210668   3.019   0.630   3.302
 3306SOL     OW10669   3.089   1.570   2.655
 3306SOL    HW110670   3.110   1.644   2.590
 3306SOL    HW210671   3.157   1.570   2.728
 3307SOL     OW10672   2.321   1.152   2.603
 3307SOL    HW110673   2.250   1.125   2.668
 3307SOL    HW210674   2.295   1.124   2.510
 3308SOL     OW10675   3.133   1.797   2.453
 3308SOL    HW110676   3.177   1.861   2.389
 3308SOL    HW210677   3.083   1.849   2.523
 3309SOL     OW10678   2.894   0.549   1.878
 3309SOL    HW110679   2.853   0.631   1.839
 3309SOL    HW210680   2.958   0.575   1.951
 3310SOL     OW10681   1.940   0.556   3.248
 3310SOL    HW110682   2.032   0.555   3.207
 3310SOL    HW210683   1.934   0.630   3.315
 3311SOL     OW10684   2.423   0.222   3.009
 3311SOL    HW110685   2.461   0.138   3.046
 3311SOL    HW210686   2.335   0.241   3.053
 3312SOL     OW10687   2.728   0.454   2.504
 3312SOL    HW110688   2.696   0.526   2.442
 3312SOL    HW210689   2.752   0.373   2.451
 3313SOL     OW10690   2.879   0.039   2.615
 3313SOL    HW110691   2.807   0.044   2.546
 3313SOL    HW210692   2.855  -0.030   2.684
 3314SOL     OW10693   3.291   1.173   2.729
 3314SOL    HW110694   3.236   1.089   2.722
 3314SOL    HW210695   3.317   1.202   2.637
 3315SOL     OW10696   3.328   0.590   2.854
 3315SOL    HW110697   3.298   0.495   2.861
 3315SOL    HW210698   3.401   0.606   2.920
 3316SOL     OW10699   3.719   0.833   2.239
 3316SOL    HW110700   3.761   0.769   2.303
 3316SOL    HW210701   3.681   0.782   2.161
 3317SOL     OW10702   2.350   1.385   2.036
 3317SOL    HW110703   2.263   1.370   2.083
 3317SOL    HW210704   2.333   1.411   1.941
 3318SOL     OW10705   3.526   1.280   2.519
 3318SOL    HW110706   3.625   1.288   2.533
 3318SOL    HW210707   3.481   1.364   2.550
 3319SOL     OW10708   3.252   0.575   1.940
 3319SOL    HW110709   3.198   0.554   2.021
 3319SOL    HW210710   3.343   0.534   1.949
 3320SOL     OW10711   2.389   0.256   2.190
 3320SOL    HW110712   2.416   0.197   2.115
 3320SOL    HW210713   2.389   0.351   2.159
 3321SOL     OW10714   3.616   1.223   3.450
 3321SOL    HW110715   3.707   1.184   3.437
 3321SOL    HW210716   3.624   1.319   3.474
 3322SOL     OW10717   2.926   1.347   3.202
 3322SOL    HW110718   2.846   1.324   3.257
 3322SOL    HW210719   3.009   1.321   3.251
 3323SOL     OW10720   3.454   1.629   3.487
 3323SOL    HW110721   3.481   1.663   3.397
 3323SOL    HW210722   3.533   1.591   3.533
 3324SOL     OW10723   2.973   1.195   2.962
 3324SOL    HW110724   2.933   1.239   3.043
 3324SOL    HW210725   2.932   1.232   2.879
 3325SOL     OW10726   3.500   1.099   2.941
 3325SOL    HW110727   3.505   1.180   3.000
 3325SOL    HW210728   3.414   1.101   2.890
 3326SOL     OW10729   2.777   0.089   3.264
 3326SOL    HW110730   2.802   0.069   3.169
 3326SOL    HW210731   2.849   0.145   3.306
 3327SOL     OW10732   2.842   1.116   3.581
 3327SOL    HW110733   2.743   1.122   3.591
 3327SOL    HW210734   2.865   1.036   3.525
 3328SOL     OW10735   2.567   1.050   2.230
 3328SOL    HW110736   2.553   1.057   2.329
 3328SOL    HW210737   2.651   0.999   2.212
 3329SOL     OW10738   2.272   0.813   3.113
 3329SOL    HW110739   2.358   0.825   3.163
 3329SOL    HW210740   2.230   0.726   3.140
 3330SOL     OW10741   3.136   0.386   3.124
 3330SOL    HW110742   3.157   0.460   3.188
 3330SOL    HW210743   3.047   0.403   3.081
 3331SOL     OW10744   1.926   1.564   3.193
 3331SOL    HW110745   1.880   1.646   3.159
 3331SOL    HW210746   2.024   1.583   3.202
 3332SOL     OW10747   2.229   1.100   2.363
 3332SOL    HW110748   2.222   1.183   2.307
 3332SOL    HW210749   2.233   1.020   2.303
 3333SOL     OW10750   2.428   0.537   2.727
 3333SOL    HW110751   2.440   0.603   2.653
 3333SOL    HW210752   2.474   0.571   2.810
 3334SOL     OW10753   3.114   1.348   2.250
 3334SOL    HW110754   3.164   1.425   2.290
 3334SOL    HW210755   3.019   1.350   2.282
 3335SOL     OW10756   3.134   1.445   3.004
 3335SOL    HW110757   3.181   1.458   3.091
 3335SOL    HW210758   3.068   1.371   3.013
 3336SOL     OW10759   3.444   0.639   2.334
 3336SOL    HW110760   3.413   0.700   2.407
 3336SOL    HW210761   3.494   0.691   2.265
 3337SOL     OW10762   2.216   1.510   3.191
 3337SOL    HW110763   2.195   1.466   3.104
 3337SOL    HW210764   2.313   1.536   3.194
 3338SOL     OW10765   2.264   0.751   3.460
 3338SOL    HW110766   2.332   0.806   3.413
 3338SOL    HW210767   2.304   0.663   3.487
 3339SOL     OW10768   3.449   0.779   3.532
 3339SOL    HW110769   3.357   0.817   3.527
 3339SOL    HW210770   3.509   0.826   3.467
 3340SOL     OW10771   2.875   0.105   3.632
 3340SOL    HW110772   2.881   0.190   3.580
 3340SOL    HW210773   2.907   0.029   3.575
 3341SOL     OW10774   2.366   0.050   3.602
 3341SOL    HW110775   2.324  -0.007   3.532
 3341SOL    HW210776   2.300   0.119   3.634
 3342SOL     OW10777   2.435   0.870   2.891
 3342SOL    HW110778   2.479   0.959   2.882
 3342SOL    HW210779   2.372   0.870   2.968
 3343SOL     OW10780   3.222   0.862   2.907
 3343SOL    HW110781   3.147   0.862   2.841
 3343SOL    HW210782   3.259   0.770   2.916
 3344SOL     OW10783   3.071   0.525   2.137
 3344SOL    HW110784   3.084   0.441   2.191
 3344SOL    HW210785   3.042   0.599   2.197
 3345SOL     OW10786   2.169   0.213   3.093
 3345SOL    HW110787   2.146   0.250   3.183
 3345SOL    HW210788   2.139   0.118   3.087
 3346SOL     OW10789   1.899   1.310   3.144
 3346SOL    HW110790   1.952   1.261   3.212
 3346SOL    HW210791   1.921   1.408   3.149
 3347SOL     OW10792   2.594   0.634   2.926
 3347SOL    HW110793   2.653   0.608   2.850
 3347SOL    HW210794   2.566   0.730   2.915
 3348SOL     OW10795   3.590   0.935   3.716
 3348SOL    HW110796   3.544   0.928   3.627
 3348SOL    HW210797   3.528   0.979   3.782
 3349SOL     OW10798   2.169   0.063   2.480
 3349SOL    HW110799   2.158   0.157   2.513
 3349SOL    HW210800   2.164   0.000   2.557
 3350SOL     OW10801   3.484   0.367   2.236
 3350SOL    HW110802   3.486   0.291   2.300
 3350SOL    HW210803   3.436   0.444   2.276
 3351SOL     OW10804   2.885   0.766   2.828
 3351SOL    HW110805   2.900   0.787   2.924
 3351SOL    HW210806   2.855   0.671   2.819
 3352SOL     OW10807   2.842   1.573   3.562
 3352SOL    HW110808   2.822   1.617   3.474
 3352SOL    HW210809   2.881   1.482   3.546
 3353SOL     OW10810   3.721   1.518   3.467
 3353SOL    HW110811   3.735   1.545   3.372
 3353SOL    HW210812   3.804   1.540   3.520
 3354SOL     OW10813   2.212   0.898   3.666
 3354SOL    HW110814   2.288   0.942   3.714
 3354SOL    HW210815   2.247   0.851   3.584
 3355SOL     OW10816   3.402   0.274   1.987
 3355SOL    HW110817   3.341   0.199   2.010
 3355SOL    HW210818   3.424   0.326   2.070
 3356SOL     OW10819   3.165   0.838   1.904
 3356SOL    HW110820   3.199   0.745   1.919
 3356SOL    HW210821   3.183   0.865   1.809
 3357SOL     OW10822   2.930   1.333   2.711
 3357SOL    HW110823   2.937   1.249   2.656
 3357SOL    HW210824   2.992   1.402   2.675
 3358SOL     OW10825   2.181   0.810   2.811
 3358SOL    HW110826   2.274   0.846   2.816
 3358SOL    HW210827   2.175   0.725   2.863
 3359SOL     OW10828   2.201   0.509   2.868
 3359SOL    HW110829   2.149   0.426   2.851
 3359SOL    HW210830   2.278   0.514   2.804
 3360SOL     OW10831   3.000   0.380   3.540
 3360SOL    HW110832   2.955   0.443   3.604
 3360SOL    HW210833   3.093   0.411   3.523
 3361SOL     OW10834   3.022   0.207   3.339
 3361SOL    HW110835   3.022   0.271   3.416
 3361SOL    HW210836   3.050   0.255   3.256
 3362SOL     OW10837   1.870   1.326   2.062
 3362SOL    HW110838   1.777   1.347   2.031
 3362SOL    HW210839   1.880   1.227   2.075
 3363SOL     OW10840   1.950   1.801   2.789
 3363SOL    HW110841   1.908   1.715   2.762
 3363SOL    HW210842   2.044   1.804   2.755
 3364SOL     OW10843   2.366   1.568   2.772
 3364SOL    HW110844   2.432   1.642   2.781
 3364SOL    HW210845   2.410   1.489   2.730
 3365SOL     OW10846   2.864   0.796   3.100
 3365SOL    HW110847   2.905   0.764   3.186
 3365SOL    HW210848   2.768   0.769   3.097
 3366SOL     OW10849   1.902   0.544   2.976
 3366SOL    HW110850   1.987   0.511   2.935
 3366SOL    HW210851   1.915   0.559   3.074
 3367SOL     OW10852   2.051   0.520   3.584
 3367SOL    HW110853   2.110   0.480   3.514
 3367SOL    HW210854   1.993   0.591   3.543
 3368SOL     OW10855   3.231   0.950   3.522
 3368SOL    HW110856   3.270   1.039   3.542
 3368SOL    HW210857   3.241   0.930   3.425
 3369SOL     OW10858   2.677   0.572   2.187
 3369SOL    HW110859   2.684   0.483   2.141
 3369SOL    HW210860   2.583   0.606   2.179
 3370SOL     OW10861   3.519   0.604   3.068
 3370SOL    HW110862   3.481   0.535   3.130
 3370SOL    HW210863   3.601   0.568   3.024
 3371SOL     OW10864   2.114   1.564   3.606
 3371SOL    HW110865   2.084   1.621   3.682
 3371SOL    HW210866   2.107   1.467   3.632
 3372SOL     OW10867   2.533   0.464   3.131
 3372SOL    HW110868   2.499   0.375   3.101
 3372SOL    HW210869   2.559   0.518   3.051
 3373SOL     OW10870   2.792   1.678   3.327
 3373SOL    HW110871   2.768   1.660   3.232
 3373SOL    HW210872   2.822   1.772   3.337
 3374SOL     OW10873   2.335   0.500   2.053
 3374SOL    HW110874   2.396   0.580   2.057
 3374SOL    HW210875   2.240   0.531   2.060
 3375SOL     OW10876   2.021   1.137   3.328
 3375SOL    HW110877   2.043   1.076   3.404
 3375SOL    HW210878   2.031   1.088   3.242
 3376SOL     OW10879   3.209   1.059   3.096
 3376SOL    HW110880   3.233   0.996   3.022
 3376SOL    HW210881   3.119   1.099   3.078
 3377SOL     OW10882   3.164   0.855   2.171
 3377SOL    HW110883   3.078   0.824   2.213
 3377SOL    HW210884   3.160   0.841   2.072
 3378SOL     OW10885   3.621   1.747   3.016
 3378SOL    HW110886   3.682   1.777   2.943
 3378SOL    HW210887   3.583   1.658   2.994
 3379SOL     OW10888   3.114   1.731   2.990
 3379SOL    HW110889   3.198   1.736   2.936
 3379SOL    HW210890   3.091   1.635   3.008
 3380SOL     OW10891   1.945   1.258   2.884
 3380SOL    HW110892   1.940   1.257   2.984
 3380SOL    HW210893   1.862   1.217   2.846
 3381SOL     OW10894   2.550   1.662   3.578
 3381SOL    HW110895   2.494   1.743   3.587
 3381SOL    HW210896   2.602   1.666   3.492
 3382SOL     OW10897   3.588   0.135   2.385
 3382SOL    HW110898   3.661   0.118   2.318
 3382SOL    HW210899   3.557   0.048   2.423
 3383SOL     OW10900   3.250   1.573   2.339
 3383SOL    HW110901   3.317   1.585   2.265
 3383SOL    HW210902   3.210   1.662   2.362
 3384SOL     OW10903   1.992   1.794   3.713
 3384SOL    HW110904   1.951   1.720   3.766
 3384SOL    HW210905   2.056   1.845   3.771
 3385SOL     OW10906   3.142   0.927   2.534
 3385SOL    HW110907   3.202   0.846   2.536
 3385SOL    HW210908   3.182   0.996   2.474
 3386SOL     OW10909   2.692   1.273   3.284
 3386SOL    HW110910   2.687   1.306   3.379
 3386SOL    HW210911   2.606   1.292   3.238
 3387SOL     OW10912   2.534   1.616   2.016
 3387SOL    HW110913   2.543   1.626   1.917
 3387SOL    HW210914   2.494   1.527   2.037
 3388SOL     OW10915   3.512   1.720   3.256
 3388SOL    HW110916   3.565   1.730   3.172
 3388SOL    HW210917   3.485   1.810   3.290
 3389SOL     OW10918   3.703   0.175   2.825
 3389SOL    HW110919   3.742   0.090   2.789
 3389SOL    HW210920   3.605   0.177   2.806
 3390SOL     OW10921   2.125   0.326   2.582
 3390SOL    HW110922   2.046   0.377   2.548
 3390SOL    HW210923   2.116   0.311   2.680
 3391SOL     OW10924   3.056   1.612   1.893
 3391SOL    HW110925   3.062   1.519   1.930
 3391SOL    HW210926   2.997   1.612   1.813
 3392SOL     OW10927   2.684   1.002   3.234
 3392SOL    HW110928   2.724   1.001   3.142
 3392SOL    HW210929   2.694   1.094   3.274
 3393SOL     OW10930   2.778   0.910   2.153
 3393SOL    HW110931   2.841   0.948   2.085
 3393SOL    HW210932   2.818   0.827   2.192
 3394SOL     OW10933   3.366   1.607   1.906
 3394SOL    HW110934   3.274   1.644   1.913
 3394SOL    HW210935   3.404   1.627   1.816
 3395SOL     OW10936   2.234   1.288   3.352
 3395SOL    HW110937   2.221   1.381   3.318
 3395SOL    HW210938   2.150   1.236   3.339
 3396SOL     OW10939   3.476   1.292   3.151
 3396SOL    HW110940   3.536   1.295   3.231
 3396SOL    HW210941   3.401   1.356   3.164
 3397SOL     OW10942   2.901   1.098   2.558
 3397SOL    HW110943   2.831   1.051   2.612
 3397SOL    HW210944   2.960   1.030   2.515
 3398SOL     OW10945   2.876   0.236   2.833
 3398SOL    HW110946   2.868   0.200   2.740
 3398SOL    HW210947   2.874   0.160   2.898
 3399SOL     OW10948   2.452   1.487   2.353
 3399SOL    HW110949   2.494   1.429   2.283
 3399SOL    HW210950   2.408   1.566   2.309
 3400SOL     OW10951   3.571   0.385   3.243
 3400SOL    HW110952   3.644   0.454   3.247
 3400SOL    HW210953   3.599   0.310   3.184
 3401SOL     OW10954   2.117   1.348   2.152
 3401SOL    HW110955   2.021   1.349   2.125
 3401SOL    HW210956   2.129   1.401   2.236
 3402SOL     OW10957   1.967   1.013   3.588
 3402SOL    HW110958   1.890   0.980   3.642
 3402SOL    HW210959   2.052   0.983   3.630
 3403SOL     OW10960   2.534   0.203   3.351
 3403SOL    HW110961   2.624   0.187   3.311
 3403SOL    HW210962   2.542   0.208   3.450
 3404SOL     OW10963   1.937   0.345   1.895
 3404SOL    HW110964   1.845   0.317   1.866
 3404SOL    HW210965   1.968   0.422   1.839
 3405SOL     OW10966   3.302   0.856   3.260
 3405SOL    HW110967   3.245   0.908   3.197
 3405SOL    HW210968   3.398   0.868   3.236
 3406SOL     OW10969   1.934   0.166   2.180
 3406SOL    HW110970   1.917   0.249   2.126
 3406SOL    HW210971   2.024   0.129   2.158
 3407SOL     OW10972   3.045   1.335   1.981
 3407SOL    HW110973   2.946   1.324   1.983
 3407SOL    HW210974   3.079   1.350   2.074
 3408SOL     OW10975   2.475   0.842   3.293
 3408SOL    HW110976   2.531   0.923   3.276
 3408SOL    HW210977   2.534   0.762   3.296
 3409SOL     OW10978   3.355   1.767   2.821
 3409SOL    HW110979   3.388   1.831   2.752
 3409SOL    HW210980   3.421   1.761   2.896
 3410SOL     OW10981   2.578   0.565   3.570
 3410SOL    HW110982   2.597   0.630   3.644
 3410SOL    HW210983   2.638   0.485   3.579
 3411SOL     OW10984   3.312   1.220   3.495
 3411SOL    HW110985   3.303   1.210   3.594
 3411SOL    HW210986   3.408   1.213   3.469
 3412SOL     OW10987   2.252   1.741   3.422
 3412SOL    HW110988   2.161   1.782   3.420
 3412SOL    HW210989   2.245   1.647   3.454
 3413SOL     OW10990   3.536   0.883   3.116
 3413SOL    HW110991   3.509   0.794   3.079
 3413SOL    HW210992   3.537   0.951   3.043
 3414SOL     OW10993   3.087   0.325   2.311
 3414SOL    HW110994   3.152   0.251   2.300
 3414SOL    HW210995   3.107   0.375   2.395
 3415SOL     OW10996   2.456   0.745   2.514
 3415SOL    HW110997   2.506   0.830   2.495
 3415SOL    HW210998   2.368   0.747   2.466
 3416SOL     OW10999   3.639   0.342   3.504
 3416SOL    HW111000   3.622   0.373   3.410
 3416SOL    HW211001   3.555   0.305   3.542
 3417SOL     OW11002   3.592   0.934   3.379
 3417SOL    HW111003   3.630   1.025   3.394
 3417SOL    HW211004   3.584   0.917   3.280
 3418SOL     OW11005   2.721   1.374   1.878
 3418SOL    HW111006   2.675   1.389   1.966
 3418SOL    HW211007   2.765   1.459   1.848
 3419SOL     OW11008   2.523   1.790   2.815
 3419SOL    HW111009   2.477   1.878   2.802
 3419SOL    HW211010   2.622   1.802   2.808
 3420SOL     OW11011   2.721   0.956   2.723
 3420SOL    HW111012   2.775   0.887   2.771
 3420SOL    HW211013   2.689   1.025   2.789
 3421SOL     OW11014   2.945   0.984   1.949
 3421SOL    HW111015   2.922   1.037   1.867
 3421SOL    HW211016   3.026   0.928   1.930
 3422SOL     OW11017   3.723   1.569   2.713
 3422SOL    HW111018   3.652   1.557   2.643
 3422SOL    HW211019   3.724   1.490   2.773
 3423SOL     OW11020   2.083   1.314   3.706
 3423SOL    HW111021   2.018   1.241   3.685
 3423SOL    HW211022   2.087   1.328   3.804
 3424SOL     OW11023   1.941   1.240   2.515
 3424SOL    HW111024   1.940   1.193   2.603
 3424SOL    HW211025   2.023   1.212   2.464
 3425SOL     OW11026   2.534   1.391   3.486
 3425SOL    HW111027   2.456   1.341   3.524
 3425SOL    HW211028   2.531   1.486   3.517
 3426SOL     OW11029   3.686   0.192   3.089
 3426SOL    HW111030   3.682   0.102   3.133
 3426SOL    HW211031   3.689   0.181   2.990
 3427SOL     OW11032   2.290   0.424   2.382
 3427SOL    HW111033   2.320   0.352   2.320
 3427SOL    HW211034   2.251   0.384   2.465
 3428SOL     OW11035   3.567   1.487   2.966
 3428SOL    HW111036   3.474   1.462   2.939
 3428SOL    HW211037   3.593   1.437   3.048
 3429SOL     OW11038   2.179   0.547   3.142
 3429SOL    HW111039   2.217   0.488   3.214
 3429SOL    HW211040   2.219   0.521   3.054
 3430SOL     OW11041   2.674   1.586   2.549
 3430SOL    HW111042   2.706   1.596   2.455
 3430SOL    HW211043   2.595   1.524   2.551
 3431SOL     OW11044   3.286   0.214   2.974
 3431SOL    HW111045   3.338   0.149   3.029
 3431SOL    HW211046   3.237   0.277   3.035
 3432SOL     OW11047   2.863   0.034   3.016
 3432SOL    HW111048   2.800  -0.038   2.985
 3432SOL    HW211049   2.956  -0.002   3.016
 3433SOL     OW11050   2.632   1.330   2.163
 3433SOL    HW111051   2.586   1.243   2.180
 3433SOL    HW211052   2.723   1.327   2.204
 3434SOL     OW11053   2.480   1.567   3.146
 3434SOL    HW111054   2.475   1.649   3.203
 3434SOL    HW211055   2.569   1.564   3.101
 3435SOL     OW11056   3.214   0.052   2.030
 3435SOL    HW111057   3.249   0.011   1.946
 3435SOL    HW211058   3.124   0.014   2.050
 3436SOL     OW11059   3.162   0.453   2.553
 3436SOL    HW111060   3.103   0.533   2.557
 3436SOL    HW211061   3.177   0.418   2.646
 3437SOL     OW11062   3.455   0.221   2.744
 3437SOL    HW111063   3.371   0.220   2.798
 3437SOL    HW211064   3.457   0.304   2.688
 3438SOL     OW11065   1.901   1.077   2.162
 3438SOL    HW111066   2.000   1.066   2.153
 3438SOL    HW211067   1.861   0.991   2.194
 3439SOL     OW11068   2.737   1.646   2.199
 3439SOL    HW111069   2.660   1.611   2.145
 3439SOL    HW211070   2.705   1.717   2.261
 3440SOL     OW11071   2.092   0.628   3.837
 3440SOL    HW111072   1.999   0.626   3.874
 3440SOL    HW211073   2.093   0.589   3.745
 3441SOL     OW11074   2.087   0.275   4.720
 3441SOL    HW111075   2.122   0.258   4.812
 3441SOL    HW211076   1.999   0.230   4.708
 3442SOL     OW11077   1.881   0.368   4.371
 3442SOL    HW111078   1.799   0.411   4.410
 3442SOL    HW211079   1.853   0.295   4.308
 3443SOL     OW11080   2.431   1.275   4.889
 3443SOL    HW111081   2.338   1.268   4.852
 3443SOL    HW211082   2.442   1.364   4.933
 3444SOL     OW11083   3.417   1.511   4.427
 3444SOL    HW111084   3.360   1.495   4.508
 3444SOL    HW211085   3.358   1.521   4.347
 3445SOL     OW11086   2.997   0.703   4.441
 3445SOL    HW111087   3.054   0.781   4.416
 3445SOL    HW211088   2.937   0.729   4.517
 3446SOL     OW11089   3.617   0.607   3.955
 3446SOL    HW111090   3.605   0.594   3.856
 3446SOL    HW211091   3.587   0.526   4.004
 3447SOL     OW11092   2.630   1.144   4.747
 3447SOL    HW111093   2.552   1.161   4.807
 3447SOL    HW211094   2.664   1.231   4.711
 3448SOL     OW11095   2.712   0.798   5.547
 3448SOL    HW111096   2.708   0.874   5.612
 3448SOL    HW211097   2.734   0.834   5.456
 3449SOL     OW11098   2.547   1.012   4.389
 3449SOL    HW111099   2.616   0.996   4.459
 3449SOL    HW211100   2.474   1.069   4.427
 3450SOL     OW11101   2.548   1.161   5.527
 3450SOL    HW111102   2.608   1.240   5.541
 3450SOL    HW211103   2.462   1.192   5.486
 3451SOL     OW11104   3.322   1.505   5.063
 3451SOL    HW111105   3.346   1.599   5.089
 3451SOL    HW211106   3.306   1.451   5.145
 3452SOL     OW11107   2.300   0.392   5.223
 3452SOL    HW111108   2.382   0.336   5.232
 3452SOL    HW211109   2.219   0.334   5.227
 3453SOL     OW11110   3.465   0.447   4.461
 3453SOL    HW111111   3.391   0.493   4.411
 3453SOL    HW211112   3.516   0.515   4.514
 3454SOL     OW11113   2.093   1.713   4.207
 3454SOL    HW111114   2.127   1.790   4.261
 3454SOL    HW211115   2.137   1.713   4.117
 3455SOL     OW11116   2.989   1.341   5.414
 3455SOL    HW111117   3.036   1.341   5.502
 3455SOL    HW211118   2.941   1.254   5.403
 3456SOL     OW11119   2.092   1.434   4.262
 3456SOL    HW111120   2.066   1.530   4.262
 3456SOL    HW211121   2.021   1.380   4.307
 3457SOL     OW11122   2.102   1.091   4.610
 3457SOL    HW111123   2.116   1.007   4.662
 3457SOL    HW211124   2.047   1.155   4.665
 3458SOL     OW11125   2.468   0.964   3.847
 3458SOL    HW111126   2.475   1.048   3.793
 3458SOL    HW211127   2.514   0.977   3.935
 3459SOL     OW11128   3.456   0.114   5.204
 3459SOL    HW111129   3.438   0.181   5.132
 3459SOL    HW211130   3.453   0.160   5.293
 3460SOL     OW11131   1.984   0.643   4.287
 3460SOL    HW111132   1.939   0.555   4.304
 3460SOL    HW211133   1.983   0.697   4.371
 3461SOL     OW11134   3.704   1.767   4.083
 3461SOL    HW111135   3.758   1.738   4.163
 3461SOL    HW211136   3.734   1.857   4.054
 3462SOL     OW11137   1.889   1.596   3.841
 3462SOL    HW111138   1.870   1.500   3.862
 3462SOL    HW211139   1.856   1.654   3.916
 3463SOL     OW11140   3.551   0.922   4.336
 3463SOL    HW111141   3.646   0.893   4.344
 3463SOL    HW211142   3.543   0.987   4.261
 3464SOL     OW11143   3.503   1.108   4.156
 3464SOL    HW111144   3.589   1.110   4.104
 3464SOL    HW211145   3.517   1.155   4.244
 3465SOL     OW11146   1.975   0.737   5.321
 3465SOL    HW111147   2.063   0.724   5.366
 3465SOL    HW211148   1.962   0.834   5.299
 3466SOL     OW11149   2.475   1.365   4.450
 3466SOL    HW111150   2.426   1.278   4.459
 3466SOL    HW211151   2.452   1.408   4.363
 3467SOL     OW11152   3.155   1.228   5.147
 3467SOL    HW111153   3.192   1.155   5.089
 3467SOL    HW211154   3.207   1.233   5.232
 3468SOL     OW11155   2.671   0.004   4.226
 3468SOL    HW111156   2.711   0.095   4.217
 3468SOL    HW211157   2.571   0.012   4.232
 3469SOL     OW11158   2.059   0.976   4.988
 3469SOL    HW111159   2.148   0.931   4.974
 3469SOL    HW211160   1.986   0.911   4.969
 3470SOL     OW11161   3.387   0.999   3.914
 3470SOL    HW111162   3.324   0.923   3.927
 3470SOL    HW211163   3.435   1.017   4.000
 3471SOL     OW11164   3.049   1.792   5.340
 3471SOL    HW111165   3.073   1.852   5.264
 3471SOL    HW211166   3.056   1.697   5.310
 3472SOL     OW11167   2.179   0.251   5.525
 3472SOL    HW111168   2.250   0.322   5.531
 3472SOL    HW211169   2.091   0.290   5.553
 3473SOL     OW11170   3.328   1.417   4.677
 3473SOL    HW111171   3.269   1.423   4.757
 3473SOL    HW211172   3.313   1.329   4.631
 3474SOL     OW11173   3.529   1.714   4.296
 3474SOL    HW111174   3.488   1.691   4.208
 3474SOL    HW211175   3.511   1.640   4.361
 3475SOL     OW11176   2.460   0.729   3.994
 3475SOL    HW111177   2.484   0.798   3.926
 3475SOL    HW211178   2.382   0.762   4.048
 3476SOL     OW11179   3.143   0.345   4.668
 3476SOL    HW111180   3.057   0.295   4.655
 3476SOL    HW211181   3.205   0.291   4.724
 3477SOL     OW11182   3.438   1.662   4.031
 3477SOL    HW111183   3.527   1.708   4.034
 3477SOL    HW211184   3.417   1.638   3.936
 3478SOL     OW11185   2.669   0.605   5.189
 3478SOL    HW111186   2.622   0.602   5.278
 3478SOL    HW211187   2.618   0.550   5.123
 3479SOL     OW11188   3.256   0.469   5.398
 3479SOL    HW111189   3.236   0.512   5.486
 3479SOL    HW211190   3.334   0.407   5.407
 3480SOL     OW11191   2.835   0.890   5.296
 3480SOL    HW111192   2.881   0.806   5.267
 3480SOL    HW211193   2.779   0.924   5.221
 3481SOL     OW11194   2.853   0.410   4.966
 3481SOL    HW111195   2.776   0.444   5.020
 3481SOL    HW211196   2.819   0.359   4.887
 3482SOL     OW11197   2.903   0.701   4.153
 3482SOL    HW111198   2.929   0.697   4.249
 3482SOL    HW211199   2.818   0.650   4.139
 3483SOL     OW11200   1.938   0.811   4.513
 3483SOL    HW111201   2.037   0.799   4.522
 3483SOL    HW211202   1.914   0.906   4.534
 3484SOL     OW11203   2.727   0.348   3.919
 3484SOL    HW111204   2.786   0.411   3.870
 3484SOL    HW211205   2.746   0.254   3.890
 3485SOL     OW11206   3.581   0.585   5.555
 3485SOL    HW111207   3.555   0.674   5.519
 3485SOL    HW211208   3.579   0.517   5.482
 3486SOL     OW11209   3.224   1.144   4.269
 3486SOL    HW111210   3.307   1.115   4.221
 3486SOL    HW211211   3.175   1.211   4.213
 3487SOL     OW11212   2.412   0.196   4.609
 3487SOL    HW111213   2.407   0.191   4.709
 3487SOL    HW211214   2.414   0.292   4.580
 3488SOL     OW11215   2.870   1.456   4.201
 3488SOL    HW111216   2.824   1.528   4.149
 3488SOL    HW211217   2.866   1.476   4.299
 3489SOL     OW11218   2.213   1.801   4.577
 3489SOL    HW111219   2.263   1.715   4.583
 3489SOL    HW211220   2.278   1.878   4.574
 3490SOL     OW11221   3.657   1.066   4.597
 3490SOL    HW111222   3.595   1.051   4.521
 3490SOL    HW211223   3.605   1.077   4.682
 3491SOL     OW11224   3.089   1.550   5.230
 3491SOL    HW111225   3.095   1.473   5.294
 3491SOL    HW211226   3.037   1.524   5.150
 3492SOL     OW11227   2.183   0.943   3.966
 3492SOL    HW111228   2.265   0.982   3.924
 3492SOL    HW211229   2.156   0.861   3.917
 3493SOL     OW11230   3.320   0.735   4.452
 3493SOL    HW111231   3.315   0.670   4.527
 3493SOL    HW211232   3.400   0.794   4.465
 3494SOL     OW11233   2.323   1.266   5.451
 3494SOL    HW111234   2.273   1.267   5.365
 3494SOL    HW211235   2.260   1.248   5.527
 3495SOL     OW11236   2.973   1.776   3.961
 3495SOL    HW111237   2.913   1.714   4.011
 3495SOL    HW211238   3.004   1.732   3.876
 3496SOL     OW11239   2.064   0.285   5.222
 3496SOL    HW111240   1.984   0.345   5.209
 3496SOL    HW211241   2.054   0.236   5.308
 3497SOL     OW11242   3.494   1.377   3.805
 3497SOL    HW111243   3.462   1.471   3.795
 3497SOL    HW211244   3.418   1.314   3.793
 3498SOL     OW11245   2.326   1.743   4.047
 3498SOL    HW111246   2.359   1.782   4.133
 3498SOL    HW211247   2.402   1.736   3.982
 3499SOL     OW11248   3.262   0.107   4.150
 3499SOL    HW111249   3.238   0.070   4.060
 3499SOL    HW211250   3.361   0.123   4.154
 3500SOL     OW11251   2.244   0.700   4.204
 3500SOL    HW111252   2.289   0.610   4.201
 3500SOL    HW211253   2.150   0.689   4.237
 3501SOL     OW11254   3.409   0.222   5.453
 3501SOL    HW111255   3.404   0.259   5.545
 3501SOL    HW211256   3.337   0.153   5.441
 3502SOL     OW11257   2.476   0.122   3.841
 3502SOL    HW111258   2.574   0.100   3.848
 3502SOL    HW211259   2.445   0.105   3.748
 3503SOL     OW11260   2.643   0.264   5.473
 3503SOL    HW111261   2.710   0.203   5.516
 3503SOL    HW211262   2.570   0.283   5.538
 3504SOL     OW11263   3.213   0.590   5.157
 3504SOL    HW111264   3.241   0.547   5.242
 3504SOL    HW211265   3.238   0.686   5.158
 3505SOL     OW11266   2.665   1.402   4.648
 3505SOL    HW111267   2.755   1.416   4.606
 3505SOL    HW211268   2.594   1.404   4.577
 3506SOL     OW11269   2.784   0.503   4.623
 3506SOL    HW111270   2.759   0.494   4.527
 3506SOL    HW211271   2.832   0.421   4.654
 3507SOL     OW11272   2.401   0.064   4.236
 3507SOL    HW111273   2.320   0.065   4.294
 3507SOL    HW211274   2.404   0.147   4.181
 3508SOL     OW11275   3.296   1.188   3.765
 3508SOL    HW111276   3.328   1.112   3.822
 3508SOL    HW211277   3.204   1.215   3.795
 3509SOL     OW11278   2.159   0.035   3.895
 3509SOL    HW111279   2.208   0.119   3.874
 3509SOL    HW211280   2.221  -0.030   3.940
 3510SOL     OW11281   2.797   0.236   4.204
 3510SOL    HW111282   2.749   0.277   4.126
 3510SOL    HW211283   2.896   0.234   4.185
 3511SOL     OW11284   2.938   0.683   5.188
 3511SOL    HW111285   2.858   0.622   5.191
 3511SOL    HW211286   3.019   0.630   5.164
 3512SOL     OW11287   3.089   1.570   4.517
 3512SOL    HW111288   3.110   1.644   4.452
 3512SOL    HW211289   3.157   1.570   4.590
 3513SOL     OW11290   2.321   1.152   4.465
 3513SOL    HW111291   2.250   1.125   4.530
 3513SOL    HW211292   2.295   1.124   4.372
 3514SOL     OW11293   3.133   1.797   4.315
 3514SOL    HW111294   3.177   1.861   4.251
 3514SOL    HW211295   3.083   1.849   4.385
 3515SOL     OW11296   2.894   0.549   3.740
 3515SOL    HW111297   2.853   0.631   3.701
 3515SOL    HW211298   2.958   0.575   3.813
 3516SOL     OW11299   1.940   0.556   5.110
 3516SOL    HW111300   2.032   0.555   5.069
 3516SOL    HW211301   1.934   0.630   5.177
 3517SOL     OW11302   2.423   0.222   4.871
 3517SOL    HW111303   2.461   0.138   4.908
 3517SOL    HW211304   2.335   0.241   4.915
 3518SOL     OW11305   2.728   0.454   4.366
 3518SOL    HW111306   2.696   0.526   4.304
 3518SOL    HW211307   2.752   0.373   4.313
 3519SOL     OW11308   2.879   0.039   4.477
 3519SOL    HW111309   2.807   0.044   4.408
 3519SOL    HW211310   2.855  -0.030   4.546
 3520SOL     OW11311   3.291   1.173   4.591
 3520SOL    HW111312   3.236   1.089   4.584
 3520SOL    HW211313   3.317   1.202   4.499
 3521SOL     OW11314   3.328   0.590   4.716
 3521SOL    HW111315   3.298   0.495   4.723
 3521SOL    HW211316   3.401   0.606   4.782
 3522SOL     OW11317   3.719   0.833   4.101
 3522SOL    HW111318   3.761   0.769   4.165
 3522SOL    HW211319   3.681   0.782   4.023
 3523SOL     OW11320   2.350   1.385   3.898
 3523SOL    HW111321   2.263   1.370   3.945
 3523SOL    HW211322   2.333   1.411   3.803
 3524SOL     OW11323   3.526   1.280   4.381
 3524SOL    HW111324   3.625   1.288   4.395
 3524SOL    HW211325   3.481   1.364   4.412
 3525SOL     OW11326   3.252   0.575   3.802
 3525SOL    HW111327   3.198   0.554   3.883
 3525SOL    HW211328   3.343   0.534   3.811
 3526SOL     OW11329   2.389   0.256   4.052
 3526SOL    HW111330   2.416   0.197   3.977
 3526SOL    HW211331   2.389   0.351   4.021
 3527SOL     OW11332   3.616   1.223   5.312
 3527SOL    HW111333   3.707   1.184   5.299
 3527SOL    HW211334   3.624   1.319   5.336
 3528SOL     OW11335   2.926   1.347   5.064
 3528SOL    HW111336   2.846   1.324   5.119
 3528SOL    HW211337   3.009   1.321   5.113
 3529SOL     OW11338   3.454   1.629   5.349
 3529SOL    HW111339   3.481   1.663   5.259
 3529SOL    HW211340   3.533   1.591   5.395
 3530SOL     OW11341   2.973   1.195   4.824
 3530SOL    HW111342   2.933   1.239   4.905
 3530SOL    HW211343   2.932   1.232   4.741
 3531SOL     OW11344   3.500   1.099   4.803
 3531SOL    HW111345   3.505   1.180   4.862
 3531SOL    HW211346   3.414   1.101   4.752
 3532SOL     OW11347   2.777   0.089   5.126
 3532SOL    HW111348   2.802   0.069   5.031
 3532SOL    HW211349   2.849   0.145   5.168
 3533SOL     OW11350   2.842   1.116   5.443
 3533SOL    HW111351   2.743   1.122   5.453
 3533SOL    HW211352   2.865   1.036   5.387
 3534SOL     OW11353   2.567   1.050   4.092
 3534SOL    HW111354   2.553   1.057   4.191
 3534SOL    HW211355   2.651   0.999   4.074
 3535SOL     OW11356   2.272   0.813   4.975
 3535SOL    HW111357   2.358   0.825   5.025
 3535SOL    HW211358   2.230   0.726   5.002
 3536SOL     OW11359   3.136   0.386   4.986
 3536SOL    HW111360   3.157   0.460   5.050
 3536SOL    HW211361   3.047   0.403   4.943
 3537SOL     OW11362   2.229   1.100   4.225
 3537SOL    HW111363   2.222   1.183   4.169
 3537SOL    HW211364   2.233   1.020   4.165
 3538SOL     OW11365   2.428   0.537   4.589
 3538SOL    HW111366   2.440   0.603   4.515
 3538SOL    HW211367   2.474   0.571   4.672
 3539SOL     OW11368   3.114   1.348   4.112
 3539SOL    HW111369   3.164   1.425   4.152
 3539SOL    HW211370   3.019   1.350   4.144
 3540SOL     OW11371   3.134   1.445   4.866
 3540SOL    HW111372   3.181   1.458   4.953
 3540SOL    HW211373   3.068   1.371   4.875
 3541SOL     OW11374   3.444   0.639   4.196
 3541SOL    HW111375   3.413   0.700   4.269
 3541SOL    HW211376   3.494   0.691   4.127
 3542SOL     OW11377   2.264   0.751   5.322
 3542SOL    HW111378   2.332   0.806   5.275
 3542SOL    HW211379   2.304   0.663   5.349
 3543SOL     OW11380   3.449   0.779   5.394
 3543SOL    HW111381   3.357   0.817   5.389
 3543SOL    HW211382   3.509   0.826   5.329
 3544SOL     OW11383   2.875   0.105   5.494
 3544SOL    HW111384   2.881   0.190   5.442
 3544SOL    HW211385   2.907   0.029   5.437
 3545SOL     OW11386   2.366   0.050   5.464
 3545SOL    HW111387   2.324  -0.007   5.394
 3545SOL    HW211388   2.300   0.119   5.496
 3546SOL     OW11389   2.435   0.870   4.753
 3546SOL    HW111390   2.479   0.959   4.744
 3546SOL    HW211391   2.372   0.870   4.830
 3547SOL     OW11392   3.222   0.862   4.769
 3547SOL    HW111393   3.147   0.862   4.703
 3547SOL    HW211394   3.259   0.770   4.778
 3548SOL     OW11395   3.071   0.525   3.999
 3548SOL    HW111396   3.084   0.441   4.053
 3548SOL    HW211397   3.042   0.599   4.059
 3549SOL     OW11398   2.169   0.213   4.955
 3549SOL    HW111399   2.146   0.250   5.045
 3549SOL    HW211400   2.139   0.118   4.949
 3550SOL     OW11401   1.899   1.310   5.006
 3550SOL    HW111402   1.952   1.261   5.074
 3550SOL    HW211403   1.921   1.408   5.011
 3551SOL     OW11404   2.594   0.634   4.788
 3551SOL    HW111405   2.653   0.608   4.712
 3551SOL    HW211406   2.566   0.730   4.777
 3552SOL     OW11407   3.590   0.935   5.578
 3552SOL    HW111408   3.544   0.928   5.489
 3552SOL    HW211409   3.528   0.979   5.644
 3553SOL     OW11410   2.169   0.063   4.342
 3553SOL    HW111411   2.158   0.157   4.375
 3553SOL    HW211412   2.164   0.000   4.419
 3554SOL     OW11413   3.484   0.367   4.098
 3554SOL    HW111414   3.486   0.291   4.162
 3554SOL    HW211415   3.436   0.444   4.138
 3555SOL     OW11416   2.885   0.766   4.690
 3555SOL    HW111417   2.900   0.787   4.786
 3555SOL    HW211418   2.855   0.671   4.681
 3556SOL     OW11419   3.721   1.518   5.329
 3556SOL    HW111420   3.735   1.545   5.234
 3556SOL    HW211421   3.804   1.540   5.382
 3557SOL     OW11422   2.212   0.898   5.528
 3557SOL    HW111423   2.288   0.942   5.576
 3557SOL    HW211424   2.247   0.851   5.446
 3558SOL     OW11425   3.402   0.274   3.849
 3558SOL    HW111426   3.341   0.199   3.872
 3558SOL    HW211427   3.424   0.326   3.932
 3559SOL     OW11428   3.165   0.838   3.766
 3559SOL    HW111429   3.199   0.745   3.781
 3559SOL    HW211430   3.183   0.865   3.671
 3560SOL     OW11431   2.930   1.333   4.573
 3560SOL    HW111432   2.937   1.249   4.518
 3560SOL    HW211433   2.992   1.402   4.537
 3561SOL     OW11434   2.181   0.810   4.673
 3561SOL    HW111435   2.274   0.846   4.678
 3561SOL    HW211436   2.175   0.725   4.725
 3562SOL     OW11437   2.201   0.509   4.730
 3562SOL    HW111438   2.149   0.426   4.713
 3562SOL    HW211439   2.278   0.514   4.666
 3563SOL     OW11440   3.000   0.380   5.402
 3563SOL    HW111441   2.955   0.443   5.466
 3563SOL    HW211442   3.093   0.411   5.385
 3564SOL     OW11443   3.022   0.207   5.201
 3564SOL    HW111444   3.022   0.271   5.278
 3564SOL    HW211445   3.050   0.255   5.118
 3565SOL     OW11446   1.870   1.326   3.924
 3565SOL    HW111447   1.777   1.347   3.893
 3565SOL    HW211448   1.880   1.227   3.937
 3566SOL     OW11449   2.864   0.796   4.962
 3566SOL    HW111450   2.905   0.764   5.048
 3566SOL    HW211451   2.768   0.769   4.959
 3567SOL     OW11452   1.902   0.544   4.838
 3567SOL    HW111453   1.987   0.511   4.797
 3567SOL    HW211454   1.915   0.559   4.936
 3568SOL     OW11455   2.051   0.520   5.446
 3568SOL    HW111456   2.110   0.480   5.376
 3568SOL    HW211457   1.993   0.591   5.405
 3569SOL     OW11458   3.231   0.950   5.384
 3569SOL    HW111459   3.270   1.039   5.404
 3569SOL    HW211460   3.241   0.930   5.287
 3570SOL     OW11461   2.677   0.572   4.049
 3570SOL    HW111462   2.684   0.483   4.003
 3570SOL    HW211463   2.583   0.606   4.041
 3571SOL     OW11464   3.519   0.604   4.930
 3571SOL    HW111465   3.481   0.535   4.992
 3571SOL    HW211466   3.601   0.568   4.886
 3572SOL     OW11467   2.114   1.564   5.468
 3572SOL    HW111468   2.084   1.621   5.544
 3572SOL    HW211469   2.107   1.467   5.494
 3573SOL     OW11470   2.533   0.464   4.993
 3573SOL    HW111471   2.499   0.375   4.963
 3573SOL    HW211472   2.559   0.518   4.913
 3574SOL     OW11473   2.335   0.500   3.915
 3574SOL    HW111474   2.396   0.580   3.919
 3574SOL    HW211475   2.240   0.531   3.922
 3575SOL     OW11476   2.021   1.137   5.190
 3575SOL    HW111477   2.043   1.076   5.266
 3575SOL    HW211478   2.031   1.088   5.104
 3576SOL     OW11479   3.209   1.059   4.958
 3576SOL    HW111480   3.233   0.996   4.884
 3576SOL    HW211481   3.119   1.099   4.940
 3577SOL     OW11482   3.164   0.855   4.033
 3577SOL    HW111483   3.078   0.824   4.075
 3577SOL    HW211484   3.160   0.841   3.934
 3578SOL     OW11485   3.621   1.747   4.878
 3578SOL    HW111486   3.682   1.777   4.805
 3578SOL    HW211487   3.583   1.658   4.856
 3579SOL     OW11488   3.114   1.731   4.852
 3579SOL    HW111489   3.198   1.736   4.798
 3579SOL    HW211490   3.091   1.635   4.870
 3580SOL     OW11491   1.945   1.258   4.746
 3580SOL    HW111492   1.940   1.257   4.846
 3580SOL    HW211493   1.862   1.217   4.708
 3581SOL     OW11494   2.550   1.662   5.440
 3581SOL    HW111495   2.494   1.743   5.449
 3581SOL    HW211496   2.602   1.666   5.354
 3582SOL     OW11497   3.588   0.135   4.247
 3582SOL    HW111498   3.661   0.118   4.180
 3582SOL    HW211499   3.557   0.048   4.285
 3583SOL     OW11500   3.250   1.573   4.201
 3583SOL    HW111501   3.317   1.585   4.127
 3583SOL    HW211502   3.210   1.662   4.224
 3584SOL     OW11503   1.992   1.794   5.575
 3584SOL    HW111504   1.951   1.720   5.628
 3584SOL    HW211505   2.056   1.845   5.633
 3585SOL     OW11506   3.142   0.927   4.396
 3585SOL    HW111507   3.202   0.846   4.398
 3585SOL    HW211508   3.182   0.996   4.336
 3586SOL     OW11509   2.692   1.273   5.146
 3586SOL    HW111510   2.687   1.306   5.241
 3586SOL    HW211511   2.606   1.292   5.100
 3587SOL     OW11512   2.534   1.616   3.878
 3587SOL    HW111513   2.543   1.626   3.779
 3587SOL    HW211514   2.494   1.527   3.899
 3588SOL     OW11515   3.512   1.720   5.118
 3588SOL    HW111516   3.565   1.730   5.034
 3588SOL    HW211517   3.485   1.810   5.152
 3589SOL     OW11518   3.703   0.175   4.687
 3589SOL    HW111519   3.742   0.090   4.651
 3589SOL    HW211520   3.605   0.177   4.668
 3590SOL     OW11521   2.125   0.326   4.444
 3590SOL    HW111522   2.046   0.377   4.410
 3590SOL    HW211523   2.116   0.311   4.542
 3591SOL     OW11524   3.056   1.612   3.755
 3591SOL    HW111525   3.062   1.519   3.792
 3591SOL    HW211526   2.997   1.612   3.675
 3592SOL     OW11527   2.684   1.002   5.096
 3592SOL    HW111528   2.724   1.001   5.004
 3592SOL    HW211529   2.694   1.094   5.136
 3593SOL     OW11530   2.778   0.910   4.015
 3593SOL    HW111531   2.841   0.948   3.947
 3593SOL    HW211532   2.818   0.827   4.054
 3594SOL     OW11533   3.366   1.607   3.768
 3594SOL    HW111534   3.274   1.644   3.775
 3594SOL    HW211535   3.404   1.627   3.678
 3595SOL     OW11536   2.234   1.288   5.214
 3595SOL    HW111537   2.221   1.381   5.180
 3595SOL    HW211538   2.150   1.236   5.201
 3596SOL     OW11539   3.476   1.292   5.013
 3596SOL    HW111540   3.536   1.295   5.093
 3596SOL    HW211541   3.401   1.356   5.026
 3597SOL     OW11542   2.901   1.098   4.420
 3597SOL    HW111543   2.831   1.051   4.474
 3597SOL    HW211544   2.960   1.030   4.377
 3598SOL     OW11545   2.876   0.236   4.695
 3598SOL    HW111546   2.868   0.200   4.602
 3598SOL    HW211547   2.874   0.160   4.760
 3599SOL     OW11548   2.452   1.487   4.215
 3599SOL    HW111549   2.494   1.429   4.145
 3599SOL    HW211550   2.408   1.566   4.171
 3600SOL     OW11551   3.571   0.385   5.105
 3600SOL    HW111552   3.644   0.454   5.109
 3600SOL    HW211553   3.599   0.310   5.046
 3601SOL     OW11554   2.117   1.348   4.014
 3601SOL    HW111555   2.021   1.349   3.987
 3601SOL    HW211556   2.129   1.401   4.098
 3602SOL     OW11557   1.967   1.013   5.450
 3602SOL    HW111558   1.890   0.980   5.504
 3602SOL    HW211559   2.052   0.983   5.492
 3603SOL     OW11560   2.534   0.203   5.213
 3603SOL    HW111561   2.624   0.187   5.173
 3603SOL    HW211562   2.542   0.208   5.312
 3604SOL     OW11563   1.937   0.345   3.757
 3604SOL    HW111564   1.845   0.317   3.728
 3604SOL    HW211565   1.968   0.422   3.701
 3605SOL     OW11566   3.302   0.856   5.122
 3605SOL    HW111567   3.245   0.908   5.059
 3605SOL    HW211568   3.398   0.868   5.098
 3606SOL     OW11569   1.934   0.166   4.042
 3606SOL    HW111570   1.917   0.249   3.988
 3606SOL    HW211571   2.024   0.129   4.020
 3607SOL     OW11572   3.045   1.335   3.843
 3607SOL    HW111573   2.946   1.324   3.845
 3607SOL    HW211574   3.079   1.350   3.936
 3608SOL     OW11575   2.475   0.842   5.155
 3608SOL    HW111576   2.531   0.923   5.138
 3608SOL    HW211577   2.534   0.762   5.158
 3609SOL     OW11578   3.355   1.767   4.683
 3609SOL    HW111579   3.388   1.831   4.614
 3609SOL    HW211580   3.421   1.761   4.758
 3610SOL     OW11581   2.578   0.565   5.432
 3610SOL    HW111582   2.597   0.630   5.506
 3610SOL    HW211583   2.638   0.485   5.441
 3611SOL     OW11584   3.312   1.220   5.357
 3611SOL    HW111585   3.303   1.210   5.456
 3611SOL    HW211586   3.408   1.213   5.331
 3612SOL     OW11587   3.536   0.883   4.978
 3612SOL    HW111588   3.509   0.794   4.941
 3612SOL    HW211589   3.537   0.951   4.905
 3613SOL     OW11590   3.087   0.325   4.173
 3613SOL    HW111591   3.152   0.251   4.162
 3613SOL    HW211592   3.107   0.375   4.257
 3614SOL     OW11593   2.456   0.745   4.376
 3614SOL    HW111594   2.506   0.830   4.357
 3614SOL    HW211595   2.368   0.747   4.328
 3615SOL     OW11596   3.639   0.342   5.366
 3615SOL    HW111597   3.622   0.373   5.272
 3615SOL    HW211598   3.555   0.305   5.404
 3616SOL     OW11599   3.592   0.934   5.241
 3616SOL    HW111600   3.630   1.025   5.256
 3616SOL    HW211601   3.584   0.917   5.142
 3617SOL     OW11602   2.721   1.374   3.740
 3617SOL    HW111603   2.675   1.389   3.828
 3617SOL    HW211604   2.765   1.459   3.710
 3618SOL     OW11605   2.721   0.956   4.585
 3618SOL    HW111606   2.775   0.887   4.633
 3618SOL    HW211607   2.689   1.025   4.651
 3619SOL     OW11608   2.945   0.984   3.811
 3619SOL    HW111609   2.922   1.037   3.729
 3619SOL    HW211610   3.026   0.928   3.792
 3620SOL     OW11611   3.723   1.569   4.575
 3620SOL    HW111612   3.652   1.557   4.505
 3620SOL    HW211613   3.724   1.490   4.635
 3621SOL     OW11614   2.083   1.314   5.568
 3621SOL    HW111615   2.018   1.241   5.547
 3621SOL    HW211616   2.087   1.328   5.666
 3622SOL     OW11617   1.941   1.240   4.377
 3622SOL    HW111618   1.940   1.193   4.465
 3622SOL    HW211619   2.023   1.212   4.326
 3623SOL     OW11620   2.534   1.391   5.348
 3623SOL    HW111621   2.456   1.341   5.386
 3623SOL    HW211622   2.531   1.486   5.379
 3624SOL     OW11623   3.686   0.192   4.951
 3624SOL    HW111624   3.682   0.102   4.995
 3624SOL    HW211625   3.689   0.181   4.852
 3625SOL     OW11626   2.290   0.424   4.244
 3625SOL    HW111627   2.320   0.352   4.182
 3625SOL    HW211628   2.251   0.384   4.327
 3626SOL     OW11629   3.567   1.487   4.828
 3626SOL    HW111630   3.474   1.462   4.801
 3626SOL    HW211631   3.593   1.437   4.910
 3627SOL     OW11632   2.179   0.547   5.004
 3627SOL    HW111633   2.217   0.488   5.076
 3627SOL    HW211634   2.219   0.521   4.916
 3628SOL     OW11635   2.674   1.586   4.411
 3628SOL    HW111636   2.706   1.596   4.317
 3628SOL    HW211637   2.595   1.524   4.413
 3629SOL     OW11638   3.286   0.214   4.836
 3629SOL    HW111639   3.338   0.149   4.891
 3629SOL    HW211640   3.237   0.277   4.897
 3630SOL     OW11641   2.863   0.034   4.878
 3630SOL    HW111642   2.800  -0.038   4.847
 3630SOL    HW211643   2.956  -0.002   4.878
 3631SOL     OW11644   2.632   1.330   4.025
 3631SOL    HW111645   2.586   1.243   4.042
 3631SOL    HW211646   2.723   1.327   4.066
 3632SOL     OW11647   3.214   0.052   3.892
 3632SOL    HW111648   3.249   0.011   3.808
 3632SOL    HW211649   3.124   0.014   3.912
 3633SOL     OW11650   3.162   0.453   4.415
 3633SOL    HW111651   3.103   0.533   4.419
 3633SOL    HW211652   3.177   0.418   4.508
 3634SOL     OW11653   3.455   0.221   4.606
 3634SOL    HW111654   3.371   0.220   4.660
 3634SOL    HW211655   3.457   0.304   4.550
 3635SOL     OW11656   1.901   1.077   4.024
 3635SOL    HW111657   2.000   1.066   4.015
 3635SOL    HW211658   1.861   0.991   4.056
 3636SOL     OW11659   2.737   1.646   4.061
 3636SOL    HW111660   2.660   1.611   4.007
 3636SOL    HW211661   2.705   1.717   4.123
 3637SOL     OW11662   2.092   0.628   5.699
 3637SOL    HW111663   1.999   0.626   5.736
 3637SOL    HW211664   2.093   0.589   5.607
 3638SOL     OW11665   2.087   0.275   6.582
 3638SOL    HW111666   2.122   0.258   6.674
 3638SOL    HW211667   1.999   0.230   6.570
 3639SOL     OW11668   1.881   0.368   6.233
 3639SOL    HW111669   1.799   0.411   6.272
 3639SOL    HW211670   1.853   0.295   6.170
 3640SOL     OW11671   2.431   1.275   6.751
 3640SOL    HW111672   2.338   1.268   6.714
 3640SOL    HW211673   2.442   1.364   6.795
 3641SOL     OW11674   3.417   1.511   6.289
 3641SOL    HW111675   3.360   1.495   6.370
 3641SOL    HW211676   3.358   1.521   6.209
 3642SOL     OW11677   2.997   0.703   6.303
 3642SOL    HW111678   3.054   0.781   6.278
 3642SOL    HW211679   2.937   0.729   6.379
 3643SOL     OW11680   3.617   0.607   5.817
 3643SOL    HW111681   3.605   0.594   5.718
 3643SOL    HW211682   3.587   0.526   5.866
 3644SOL     OW11683   2.630   1.144   6.609
 3644SOL    HW111684   2.552   1.161   6.669
 3644SOL    HW211685   2.664   1.231   6.573
 3645SOL     OW11686   2.712   0.798   7.409
 3645SOL    HW111687   2.708   0.874   7.474
 3645SOL    HW211688   2.734   0.834   7.318
 3646SOL     OW11689   2.547   1.012   6.251
 3646SOL    HW111690   2.616   0.996   6.321
 3646SOL    HW211691   2.474   1.069   6.289
 3647SOL     OW11692   2.548   1.161   7.389
 3647SOL    HW111693   2.608   1.240   7.403
 3647SOL    HW211694   2.462   1.192   7.348
 3648SOL     OW11695   2.197   1.435   6.647
 3648SOL    HW111696   2.119   1.404   6.594
 3648SOL    HW211697   2.255   1.493   6.590
 3649SOL     OW11698   3.322   1.505   6.925
 3649SOL    HW111699   3.346   1.599   6.951
 3649SOL    HW211700   3.306   1.451   7.007
 3650SOL     OW11701   2.300   0.392   7.085
 3650SOL    HW111702   2.382   0.336   7.094
 3650SOL    HW211703   2.219   0.334   7.089
 3651SOL     OW11704   3.465   0.447   6.323
 3651SOL    HW111705   3.391   0.493   6.273
 3651SOL    HW211706   3.516   0.515   6.376
 3652SOL     OW11707   2.989   1.341   7.276
 3652SOL    HW111708   3.036   1.341   7.364
 3652SOL    HW211709   2.941   1.254   7.265
 3653SOL     OW11710   2.102   1.091   6.472
 3653SOL    HW111711   2.116   1.007   6.524
 3653SOL    HW211712   2.047   1.155   6.527
 3654SOL     OW11713   2.482   1.786   7.025
 3654SOL    HW111714   2.390   1.769   7.060
 3654SOL    HW211715   2.510   1.878   7.051
 3655SOL     OW11716   2.468   0.964   5.709
 3655SOL    HW111717   2.475   1.048   5.655
 3655SOL    HW211718   2.514   0.977   5.797
 3656SOL     OW11719   3.456   0.114   7.066
 3656SOL    HW111720   3.438   0.181   6.994
 3656SOL    HW211721   3.453   0.160   7.155
 3657SOL     OW11722   1.984   0.643   6.149
 3657SOL    HW111723   1.939   0.555   6.166
 3657SOL    HW211724   1.983   0.697   6.233
 3658SOL     OW11725   3.704   1.767   5.945
 3658SOL    HW111726   3.758   1.738   6.025
 3658SOL    HW211727   3.734   1.857   5.916
 3659SOL     OW11728   3.551   0.922   6.198
 3659SOL    HW111729   3.646   0.893   6.206
 3659SOL    HW211730   3.543   0.987   6.123
 3660SOL     OW11731   3.503   1.108   6.018
 3660SOL    HW111732   3.589   1.110   5.966
 3660SOL    HW211733   3.517   1.155   6.106
 3661SOL     OW11734   1.975   0.737   7.183
 3661SOL    HW111735   2.063   0.724   7.228
 3661SOL    HW211736   1.962   0.834   7.161
 3662SOL     OW11737   3.155   1.228   7.009
 3662SOL    HW111738   3.192   1.155   6.951
 3662SOL    HW211739   3.207   1.233   7.094
 3663SOL     OW11740   2.671   0.004   6.088
 3663SOL    HW111741   2.711   0.095   6.079
 3663SOL    HW211742   2.571   0.012   6.094
 3664SOL     OW11743   2.059   0.976   6.850
 3664SOL    HW111744   2.148   0.931   6.836
 3664SOL    HW211745   1.986   0.911   6.831
 3665SOL     OW11746   3.387   0.999   5.776
 3665SOL    HW111747   3.324   0.923   5.789
 3665SOL    HW211748   3.435   1.017   5.862
 3666SOL     OW11749   3.049   1.792   7.202
 3666SOL    HW111750   3.073   1.852   7.126
 3666SOL    HW211751   3.056   1.697   7.172
 3667SOL     OW11752   2.179   0.251   7.387
 3667SOL    HW111753   2.250   0.322   7.393
 3667SOL    HW211754   2.091   0.290   7.415
 3668SOL     OW11755   3.328   1.417   6.539
 3668SOL    HW111756   3.269   1.423   6.619
 3668SOL    HW211757   3.313   1.329   6.493
 3669SOL     OW11758   3.529   1.714   6.158
 3669SOL    HW111759   3.488   1.691   6.070
 3669SOL    HW211760   3.511   1.640   6.223
 3670SOL     OW11761   2.460   0.729   5.856
 3670SOL    HW111762   2.484   0.798   5.788
 3670SOL    HW211763   2.382   0.762   5.910
 3671SOL     OW11764   3.143   0.345   6.530
 3671SOL    HW111765   3.057   0.295   6.517
 3671SOL    HW211766   3.205   0.291   6.586
 3672SOL     OW11767   3.438   1.662   5.893
 3672SOL    HW111768   3.527   1.708   5.896
 3672SOL    HW211769   3.417   1.638   5.798
 3673SOL     OW11770   2.669   0.605   7.051
 3673SOL    HW111771   2.622   0.602   7.140
 3673SOL    HW211772   2.618   0.550   6.985
 3674SOL     OW11773   3.256   0.469   7.260
 3674SOL    HW111774   3.236   0.512   7.348
 3674SOL    HW211775   3.334   0.407   7.269
 3675SOL     OW11776   2.835   0.890   7.158
 3675SOL    HW111777   2.881   0.806   7.129
 3675SOL    HW211778   2.779   0.924   7.083
 3676SOL     OW11779   2.853   0.410   6.828
 3676SOL    HW111780   2.776   0.444   6.882
 3676SOL    HW211781   2.819   0.359   6.749
 3677SOL     OW11782   2.903   0.701   6.015
 3677SOL    HW111783   2.929   0.697   6.111
 3677SOL    HW211784   2.818   0.650   6.001
 3678SOL     OW11785   1.938   0.811   6.375
 3678SOL    HW111786   2.037   0.799   6.384
 3678SOL    HW211787   1.914   0.906   6.396
 3679SOL     OW11788   1.992   1.821   7.157
 3679SOL    HW111789   1.982   1.806   7.256
 3679SOL    HW211790   1.906   1.857   7.121
 3680SOL     OW11791   2.727   0.348   5.781
 3680SOL    HW111792   2.786   0.411   5.732
 3680SOL    HW211793   2.746   0.254   5.752
 3681SOL     OW11794   3.581   0.585   7.417
 3681SOL    HW111795   3.555   0.674   7.381
 3681SOL    HW211796   3.579   0.517   7.344
 3682SOL     OW11797   3.224   1.144   6.131
 3682SOL    HW111798   3.307   1.115   6.083
 3682SOL    HW211799   3.175   1.211   6.075
 3683SOL     OW11800   2.412   0.196   6.471
 3683SOL    HW111801   2.407   0.191   6.571
 3683SOL    HW211802   2.414   0.292   6.442
 3684SOL     OW11803   2.870   1.456   6.063
 3684SOL    HW111804   2.824   1.528   6.011
 3684SOL    HW211805   2.866   1.476   6.161
 3685SOL     OW11806   3.657   1.066   6.459
 3685SOL    HW111807   3.595   1.051   6.383
 3685SOL    HW211808   3.605   1.077   6.544
 3686SOL     OW11809   3.089   1.550   7.092
 3686SOL    HW111810   3.095   1.473   7.156
 3686SOL    HW211811   3.037   1.524   7.012
 3687SOL     OW11812   2.183   0.943   5.828
 3687SOL    HW111813   2.265   0.982   5.786
 3687SOL    HW211814   2.156   0.861   5.779
 3688SOL     OW11815   3.320   0.735   6.314
 3688SOL    HW111816   3.315   0.670   6.389
 3688SOL    HW211817   3.400   0.794   6.327
 3689SOL     OW11818   2.323   1.266   7.313
 3689SOL    HW111819   2.273   1.267   7.227
 3689SOL    HW211820   2.260   1.248   7.389
 3690SOL     OW11821   2.973   1.776   5.823
 3690SOL    HW111822   2.913   1.714   5.873
 3690SOL    HW211823   3.004   1.732   5.738
 3691SOL     OW11824   2.064   0.285   7.084
 3691SOL    HW111825   1.984   0.345   7.071
 3691SOL    HW211826   2.054   0.236   7.170
 3692SOL     OW11827   3.494   1.377   5.667
 3692SOL    HW111828   3.462   1.471   5.657
 3692SOL    HW211829   3.418   1.314   5.655
 3693SOL     OW11830   3.262   0.107   6.012
 3693SOL    HW111831   3.238   0.070   5.922
 3693SOL    HW211832   3.361   0.123   6.016
 3694SOL     OW11833   2.111   1.785   6.827
 3694SOL    HW111834   2.168   1.720   6.877
 3694SOL    HW211835   2.095   1.752   6.734
 3695SOL     OW11836   2.244   0.700   6.066
 3695SOL    HW111837   2.289   0.610   6.063
 3695SOL    HW211838   2.150   0.689   6.099
 3696SOL     OW11839   3.409   0.222   7.315
 3696SOL    HW111840   3.404   0.259   7.407
 3696SOL    HW211841   3.337   0.153   7.303
 3697SOL     OW11842   2.476   0.122   5.703
 3697SOL    HW111843   2.574   0.100   5.710
 3697SOL    HW211844   2.445   0.105   5.610
 3698SOL     OW11845   2.643   0.264   7.335
 3698SOL    HW111846   2.710   0.203   7.378
 3698SOL    HW211847   2.570   0.283   7.400
 3699SOL     OW11848   2.750   1.514   6.781
 3699SOL    HW111849   2.727   1.489   6.687
 3699SOL    HW211850   2.811   1.445   6.820
 3700SOL     OW11851   3.213   0.590   7.019
 3700SOL    HW111852   3.241   0.547   7.104
 3700SOL    HW211853   3.238   0.686   7.020
 3701SOL     OW11854   2.665   1.402   6.510
 3701SOL    HW111855   2.755   1.416   6.468
 3701SOL    HW211856   2.594   1.404   6.439
 3702SOL     OW11857   2.784   0.503   6.485
 3702SOL    HW111858   2.759   0.494   6.389
 3702SOL    HW211859   2.832   0.421   6.516
 3703SOL     OW11860   2.401   0.064   6.098
 3703SOL    HW111861   2.320   0.065   6.156
 3703SOL    HW211862   2.404   0.147   6.043
 3704SOL     OW11863   3.296   1.188   5.627
 3704SOL    HW111864   3.328   1.112   5.684
 3704SOL    HW211865   3.204   1.215   5.657
 3705SOL     OW11866   2.159   0.035   5.757
 3705SOL    HW111867   2.208   0.119   5.736
 3705SOL    HW211868   2.221  -0.030   5.802
 3706SOL     OW11869   2.797   0.236   6.066
 3706SOL    HW111870   2.749   0.277   5.988
 3706SOL    HW211871   2.896   0.234   6.047
 3707SOL     OW11872   2.938   0.683   7.050
 3707SOL    HW111873   2.858   0.622   7.053
 3707SOL    HW211874   3.019   0.630   7.026
 3708SOL     OW11875   3.089   1.570   6.379
 3708SOL    HW111876   3.110   1.644   6.314
 3708SOL    HW211877   3.157   1.570   6.452
 3709SOL     OW11878   2.321   1.152   6.327
 3709SOL    HW111879   2.250   1.125   6.392
 3709SOL    HW211880   2.295   1.124   6.234
 3710SOL     OW11881   3.133   1.797   6.177
 3710SOL    HW111882   3.177   1.861   6.113
 3710SOL    HW211883   3.083   1.849   6.247
 3711SOL     OW11884   2.894   0.549   5.602
 3711SOL    HW111885   2.853   0.631   5.563
 3711SOL    HW211886   2.958   0.575   5.675
 3712SOL     OW11887   1.940   0.556   6.972
 3712SOL    HW111888   2.032   0.555   6.931
 3712SOL    HW211889   1.934   0.630   7.039
 3713SOL     OW11890   2.423   0.222   6.733
 3713SOL    HW111891   2.461   0.138   6.770
 3713SOL    HW211892   2.335   0.241   6.777
 3714SOL     OW11893   2.728   0.454   6.228
 3714SOL    HW111894   2.696   0.526   6.166
 3714SOL    HW211895   2.752   0.373   6.175
 3715SOL     OW11896   2.879   0.039   6.339
 3715SOL    HW111897   2.807   0.044   6.270
 3715SOL    HW211898   2.855  -0.030   6.408
 3716SOL     OW11899   3.291   1.173   6.453
 3716SOL    HW111900   3.236   1.089   6.446
 3716SOL    HW211901   3.317   1.202   6.361
 3717SOL     OW11902   3.328   0.590   6.578
 3717SOL    HW111903   3.298   0.495   6.585
 3717SOL    HW211904   3.401   0.606   6.644
 3718SOL     OW11905   3.719   0.833   5.963
 3718SOL    HW111906   3.761   0.769   6.027
 3718SOL    HW211907   3.681   0.782   5.885
 3719SOL     OW11908   2.350   1.385   5.760
 3719SOL    HW111909   2.263   1.370   5.807
 3719SOL    HW211910   2.333   1.411   5.665
 3720SOL     OW11911   3.526   1.280   6.243
 3720SOL    HW111912   3.625   1.288   6.257
 3720SOL    HW211913   3.481   1.364   6.274
 3721SOL     OW11914   3.252   0.575   5.664
 3721SOL    HW111915   3.198   0.554   5.745
 3721SOL    HW211916   3.343   0.534   5.673
 3722SOL     OW11917   2.389   0.256   5.914
 3722SOL    HW111918   2.416   0.197   5.839
 3722SOL    HW211919   2.389   0.351   5.883
 3723SOL     OW11920   3.616   1.223   7.174
 3723SOL    HW111921   3.707   1.184   7.161
 3723SOL    HW211922   3.624   1.319   7.198
 3724SOL     OW11923   2.926   1.347   6.926
 3724SOL    HW111924   2.846   1.324   6.981
 3724SOL    HW211925   3.009   1.321   6.975
 3725SOL     OW11926   3.454   1.629   7.211
 3725SOL    HW111927   3.481   1.663   7.121
 3725SOL    HW211928   3.533   1.591   7.257
 3726SOL     OW11929   2.973   1.195   6.686
 3726SOL    HW111930   2.933   1.239   6.767
 3726SOL    HW211931   2.932   1.232   6.603
 3727SOL     OW11932   3.500   1.099   6.665
 3727SOL    HW111933   3.505   1.180   6.724
 3727SOL    HW211934   3.414   1.101   6.614
 3728SOL     OW11935   2.777   0.089   6.988
 3728SOL    HW111936   2.802   0.069   6.893
 3728SOL    HW211937   2.849   0.145   7.030
 3729SOL     OW11938   2.842   1.116   7.305
 3729SOL    HW111939   2.743   1.122   7.315
 3729SOL    HW211940   2.865   1.036   7.249
 3730SOL     OW11941   2.567   1.050   5.954
 3730SOL    HW111942   2.553   1.057   6.053
 3730SOL    HW211943   2.651   0.999   5.936
 3731SOL     OW11944   2.272   0.813   6.837
 3731SOL    HW111945   2.358   0.825   6.887
 3731SOL    HW211946   2.230   0.726   6.864
 3732SOL     OW11947   3.136   0.386   6.848
 3732SOL    HW111948   3.157   0.460   6.912
 3732SOL    HW211949   3.047   0.403   6.805
 3733SOL     OW11950   1.926   1.564   6.917
 3733SOL    HW111951   1.880   1.646   6.883
 3733SOL    HW211952   2.024   1.583   6.926
 3734SOL     OW11953   2.229   1.100   6.087
 3734SOL    HW111954   2.222   1.183   6.031
 3734SOL    HW211955   2.233   1.020   6.027
 3735SOL     OW11956   2.428   0.537   6.451
 3735SOL    HW111957   2.440   0.603   6.377
 3735SOL    HW211958   2.474   0.571   6.534
 3736SOL     OW11959   3.114   1.348   5.974
 3736SOL    HW111960   3.164   1.425   6.014
 3736SOL    HW211961   3.019   1.350   6.006
 3737SOL     OW11962   3.134   1.445   6.728
 3737SOL    HW111963   3.181   1.458   6.815
 3737SOL    HW211964   3.068   1.371   6.737
 3738SOL     OW11965   3.444   0.639   6.058
 3738SOL    HW111966   3.413   0.700   6.131
 3738SOL    HW211967   3.494   0.691   5.989
 3739SOL     OW11968   2.216   1.510   6.915
 3739SOL    HW111969   2.195   1.466   6.828
 3739SOL    HW211970   2.313   1.536   6.918
 3740SOL     OW11971   2.264   0.751   7.184
 3740SOL    HW111972   2.332   0.806   7.137
 3740SOL    HW211973   2.304   0.663   7.211
 3741SOL     OW11974   3.449   0.779   7.256
 3741SOL    HW111975   3.357   0.817   7.251
 3741SOL    HW211976   3.509   0.826   7.191
 3742SOL     OW11977   2.875   0.105   7.356
 3742SOL    HW111978   2.881   0.190   7.304
 3742SOL    HW211979   2.907   0.029   7.299
 3743SOL     OW11980   2.366   0.050   7.326
 3743SOL    HW111981   2.324  -0.007   7.256
 3743SOL    HW211982   2.300   0.119   7.358
 3744SOL     OW11983   2.435   0.870   6.615
 3744SOL    HW111984   2.479   0.959   6.606
 3744SOL    HW211985   2.372   0.870   6.692
 3745SOL     OW11986   3.222   0.862   6.631
 3745SOL    HW111987   3.147   0.862   6.565
 3745SOL    HW211988   3.259   0.770   6.640
 3746SOL     OW11989   3.071   0.525   5.861
 3746SOL    HW111990   3.084   0.441   5.915
 3746SOL    HW211991   3.042   0.599   5.921
 3747SOL     OW11992   2.169   0.213   6.817
 3747SOL    HW111993   2.146   0.250   6.907
 3747SOL    HW211994   2.139   0.118   6.811
 3748SOL     OW11995   1.899   1.310   6.868
 3748SOL    HW111996   1.952   1.261   6.936
 3748SOL    HW211997   1.921   1.408   6.873
 3749SOL     OW11998   2.594   0.634   6.650
 3749SOL    HW111999   2.653   0.608   6.574
 3749SOL    HW212000   2.566   0.730   6.639
 3750SOL     OW12001   3.590   0.935   7.440
 3750SOL    HW112002   3.544   0.928   7.351
 3750SOL    HW212003   3.528   0.979   7.506
 3751SOL     OW12004   2.169   0.063   6.204
 3751SOL    HW112005   2.158   0.157   6.237
 3751SOL    HW212006   2.164   0.000   6.281
 3752SOL     OW12007   3.484   0.367   5.960
 3752SOL    HW112008   3.486   0.291   6.024
 3752SOL    HW212009   3.436   0.444   6.000
 3753SOL     OW12010   2.885   0.766   6.552
 3753SOL    HW112011   2.900   0.787   6.648
 3753SOL    HW212012   2.855   0.671   6.543
 3754SOL     OW12013   2.842   1.573   7.286
 3754SOL    HW112014   2.822   1.617   7.198
 3754SOL    HW212015   2.881   1.482   7.270
 3755SOL     OW12016   3.721   1.518   7.191
 3755SOL    HW112017   3.735   1.545   7.096
 3755SOL    HW212018   3.804   1.540   7.244
 3756SOL     OW12019   2.212   0.898   7.390
 3756SOL    HW112020   2.288   0.942   7.438
 3756SOL    HW212021   2.247   0.851   7.308
 3757SOL     OW12022   3.402   0.274   5.711
 3757SOL    HW112023   3.341   0.199   5.734
 3757SOL    HW212024   3.424   0.326   5.794
 3758SOL     OW12025   3.165   0.838   5.628
 3758SOL    HW112026   3.199   0.745   5.643
 3758SOL    HW212027   3.183   0.865   5.533
 3759SOL     OW12028   2.930   1.333   6.435
 3759SOL    HW112029   2.937   1.249   6.380
 3759SOL    HW212030   2.992   1.402   6.399
 3760SOL     OW12031   2.181   0.810   6.535
 3760SOL    HW112032   2.274   0.846   6.540
 3760SOL    HW212033   2.175   0.725   6.587
 3761SOL     OW12034   2.201   0.509   6.592
 3761SOL    HW112035   2.149   0.426   6.575
 3761SOL    HW212036   2.278   0.514   6.528
 3762SOL     OW12037   3.000   0.380   7.264
 3762SOL    HW112038   2.955   0.443   7.328
 3762SOL    HW212039   3.093   0.411   7.247
 3763SOL     OW12040   3.022   0.207   7.063
 3763SOL    HW112041   3.022   0.271   7.140
 3763SOL    HW212042   3.050   0.255   6.980
 3764SOL     OW12043   1.870   1.326   5.786
 3764SOL    HW112044   1.777   1.347   5.755
 3764SOL    HW212045   1.880   1.227   5.799
 3765SOL     OW12046   2.366   1.568   6.496
 3765SOL    HW112047   2.432   1.642   6.505
 3765SOL    HW212048   2.410   1.489   6.454
 3766SOL     OW12049   2.864   0.796   6.824
 3766SOL    HW112050   2.905   0.764   6.910
 3766SOL    HW212051   2.768   0.769   6.821
 3767SOL     OW12052   1.902   0.544   6.700
 3767SOL    HW112053   1.987   0.511   6.659
 3767SOL    HW212054   1.915   0.559   6.798
 3768SOL     OW12055   2.051   0.520   7.308
 3768SOL    HW112056   2.110   0.480   7.238
 3768SOL    HW212057   1.993   0.591   7.267
 3769SOL     OW12058   3.231   0.950   7.246
 3769SOL    HW112059   3.270   1.039   7.266
 3769SOL    HW212060   3.241   0.930   7.149
 3770SOL     OW12061   2.677   0.572   5.911
 3770SOL    HW112062   2.684   0.483   5.865
 3770SOL    HW212063   2.583   0.606   5.903
 3771SOL     OW12064   3.519   0.604   6.792
 3771SOL    HW112065   3.481   0.535   6.854
 3771SOL    HW212066   3.601   0.568   6.748
 3772SOL     OW12067   2.114   1.564   7.330
 3772SOL    HW112068   2.084   1.621   7.406
 3772SOL    HW212069   2.107   1.467   7.356
 3773SOL     OW12070   2.533   0.464   6.855
 3773SOL    HW112071   2.499   0.375   6.825
 3773SOL    HW212072   2.559   0.518   6.775
 3774SOL     OW12073   2.792   1.678   7.051
 3774SOL    HW112074   2.768   1.660   6.956
 3774SOL    HW212075   2.822   1.772   7.061
 3775SOL     OW12076   2.335   0.500   5.777
 3775SOL    HW112077   2.396   0.580   5.781
 3775SOL    HW212078   2.240   0.531   5.784
 3776SOL     OW12079   2.021   1.137   7.052
 3776SOL    HW112080   2.043   1.076   7.128
 3776SOL    HW212081   2.031   1.088   6.966
 3777SOL     OW12082   3.209   1.059   6.820
 3777SOL    HW112083   3.233   0.996   6.746
 3777SOL    HW212084   3.119   1.099   6.802
 3778SOL     OW12085   3.164   0.855   5.895
 3778SOL    HW112086   3.078   0.824   5.937
 3778SOL    HW212087   3.160   0.841   5.796
 3779SOL     OW12088   3.621   1.747   6.740
 3779SOL    HW112089   3.682   1.777   6.667
 3779SOL    HW212090   3.583   1.658   6.718
 3780SOL     OW12091   3.114   1.731   6.714
 3780SOL    HW112092   3.198   1.736   6.660
 3780SOL    HW212093   3.091   1.635   6.732
 3781SOL     OW12094   1.945   1.258   6.608
 3781SOL    HW112095   1.940   1.257   6.708
 3781SOL    HW212096   1.862   1.217   6.570
 3782SOL     OW12097   2.550   1.662   7.302
 3782SOL    HW112098   2.494   1.743   7.311
 3782SOL    HW212099   2.602   1.666   7.216
 3783SOL     OW12100   3.588   0.135   6.109
 3783SOL    HW112101   3.661   0.118   6.042
 3783SOL    HW212102   3.557   0.048   6.147
 3784SOL     OW12103   3.250   1.573   6.063
 3784SOL    HW112104   3.317   1.585   5.989
 3784SOL    HW212105   3.210   1.662   6.086
 3785SOL     OW12106   1.992   1.794   7.437
 3785SOL    HW112107   1.951   1.720   7.490
 3785SOL    HW212108   2.056   1.845   7.495
 3786SOL     OW12109   3.142   0.927   6.258
 3786SOL    HW112110   3.202   0.846   6.260
 3786SOL    HW212111   3.182   0.996   6.198
 3787SOL     OW12112   2.692   1.273   7.008
 3787SOL    HW112113   2.687   1.306   7.103
 3787SOL    HW212114   2.606   1.292   6.962
 3788SOL     OW12115   2.534   1.616   5.740
 3788SOL    HW112116   2.543   1.626   5.641
 3788SOL    HW212117   2.494   1.527   5.761
 3789SOL     OW12118   3.512   1.720   6.980
 3789SOL    HW112119   3.565   1.730   6.896
 3789SOL    HW212120   3.485   1.810   7.014
 3790SOL     OW12121   3.703   0.175   6.549
 3790SOL    HW112122   3.742   0.090   6.513
 3790SOL    HW212123   3.605   0.177   6.530
 3791SOL     OW12124   2.125   0.326   6.306
 3791SOL    HW112125   2.046   0.377   6.272
 3791SOL    HW212126   2.116   0.311   6.404
 3792SOL     OW12127   3.056   1.612   5.617
 3792SOL    HW112128   3.062   1.519   5.654
 3792SOL    HW212129   2.997   1.612   5.537
 3793SOL     OW12130   2.684   1.002   6.958
 3793SOL    HW112131   2.724   1.001   6.866
 3793SOL    HW212132   2.694   1.094   6.998
 3794SOL     OW12133   2.778   0.910   5.877
 3794SOL    HW112134   2.841   0.948   5.809
 3794SOL    HW212135   2.818   0.827   5.916
 3795SOL     OW12136   3.366   1.607   5.630
 3795SOL    HW112137   3.274   1.644   5.637
 3795SOL    HW212138   3.404   1.627   5.540
 3796SOL     OW12139   2.234   1.288   7.076
 3796SOL    HW112140   2.221   1.381   7.042
 3796SOL    HW212141   2.150   1.236   7.063
 3797SOL     OW12142   3.476   1.292   6.875
 3797SOL    HW112143   3.536   1.295   6.955
 3797SOL    HW212144   3.401   1.356   6.888
 3798SOL     OW12145   2.901   1.098   6.282
 3798SOL    HW112146   2.831   1.051   6.336
 3798SOL    HW212147   2.960   1.030   6.239
 3799SOL     OW12148   2.876   0.236   6.557
 3799SOL    HW112149   2.868   0.200   6.464
 3799SOL    HW212150   2.874   0.160   6.622
 3800SOL     OW12151   3.571   0.385   6.967
 3800SOL    HW112152   3.644   0.454   6.971
 3800SOL    HW212153   3.599   0.310   6.908
 3801SOL     OW12154   2.117   1.348   5.876
 3801SOL    HW112155   2.021   1.349   5.849
 3801SOL    HW212156   2.129   1.401   5.960
 3802SOL     OW12157   1.967   1.013   7.312
 3802SOL    HW112158   1.890   0.980   7.366
 3802SOL    HW212159   2.052   0.983   7.354
 3803SOL     OW12160   2.534   0.203   7.075
 3803SOL    HW112161   2.624   0.187   7.035
 3803SOL    HW212162   2.542   0.208   7.174
 3804SOL     OW12163   1.937   0.345   5.619
 3804SOL    HW112164   1.845   0.317   5.590
 3804SOL    HW212165   1.968   0.422   5.563
 3805SOL     OW12166   3.302   0.856   6.984
 3805SOL    HW112167   3.245   0.908   6.921
 3805SOL    HW212168   3.398   0.868   6.960
 3806SOL     OW12169   1.934   0.166   5.904
 3806SOL    HW112170   1.917   0.249   5.850
 3806SOL    HW212171   2.024   0.129   5.882
 3807SOL     OW12172   3.045   1.335   5.705
 3807SOL    HW112173   2.946   1.324   5.707
 3807SOL    HW212174   3.079   1.350   5.798
 3808SOL     OW12175   2.475   0.842   7.017
 3808SOL    HW112176   2.531   0.923   7.000
 3808SOL    HW212177   2.534   0.762   7.020
 3809SOL     OW12178   3.355   1.767   6.545
 3809SOL    HW112179   3.388   1.831   6.476
 3809SOL    HW212180   3.421   1.761   6.620
 3810SOL     OW12181   2.578   0.565   7.294
 3810SOL    HW112182   2.597   0.630   7.368
 3810SOL    HW212183   2.638   0.485   7.303
 3811SOL     OW12184   3.312   1.220   7.219
 3811SOL    HW112185   3.303   1.210   7.318
 3811SOL    HW212186   3.408   1.213   7.193
 3812SOL     OW12187   2.252   1.741   7.146
 3812SOL    HW112188   2.161   1.782   7.144
 3812SOL    HW212189   2.245   1.647   7.178
 3813SOL     OW12190   3.536   0.883   6.840
 3813SOL    HW112191   3.509   0.794   6.803
 3813SOL    HW212192   3.537   0.951   6.767
 3814SOL     OW12193   3.087   0.325   6.035
 3814SOL    HW112194   3.152   0.251   6.024
 3814SOL    HW212195   3.107   0.375   6.119
 3815SOL     OW12196   2.456   0.745   6.238
 3815SOL    HW112197   2.506   0.830   6.219
 3815SOL    HW212198   2.368   0.747   6.190
 3816SOL     OW12199   3.639   0.342   7.228
 3816SOL    HW112200   3.622   0.373   7.134
 3816SOL    HW212201   3.555   0.305   7.266
 3817SOL     OW12202   3.592   0.934   7.103
 3817SOL    HW112203   3.630   1.025   7.118
 3817SOL    HW212204   3.584   0.917   7.004
 3818SOL     OW12205   2.721   1.374   5.602
 3818SOL    HW112206   2.675   1.389   5.690
 3818SOL    HW212207   2.765   1.459   5.572
 3819SOL     OW12208   2.523   1.790   6.539
 3819SOL    HW112209   2.477   1.878   6.526
 3819SOL    HW212210   2.622   1.802   6.532
 3820SOL     OW12211   2.721   0.956   6.447
 3820SOL    HW112212   2.775   0.887   6.495
 3820SOL    HW212213   2.689   1.025   6.513
 3821SOL     OW12214   2.945   0.984   5.673
 3821SOL    HW112215   2.922   1.037   5.591
 3821SOL    HW212216   3.026   0.928   5.654
 3822SOL     OW12217   3.723   1.569   6.437
 3822SOL    HW112218   3.652   1.557   6.367
 3822SOL    HW212219   3.724   1.490   6.497
 3823SOL     OW12220   2.083   1.314   7.430
 3823SOL    HW112221   2.018   1.241   7.409
 3823SOL    HW212222   2.087   1.328   7.528
 3824SOL     OW12223   1.941   1.240   6.239
 3824SOL    HW112224   1.940   1.193   6.327
 3824SOL    HW212225   2.023   1.212   6.188
 3825SOL     OW12226   2.534   1.391   7.210
 3825SOL    HW112227   2.456   1.341   7.248
 3825SOL    HW212228   2.531   1.486   7.241
 3826SOL     OW12229   3.686   0.192   6.813
 3826SOL    HW112230   3.682   0.102   6.857
 3826SOL    HW212231   3.689   0.181   6.714
 3827SOL     OW12232   2.290   0.424   6.106
 3827SOL    HW112233   2.320   0.352   6.044
 3827SOL    HW212234   2.251   0.384   6.189
 3828SOL     OW12235   3.567   1.487   6.690
 3828SOL    HW112236   3.474   1.462   6.663
 3828SOL    HW212237   3.593   1.437   6.772
 3829SOL     OW12238   2.179   0.547   6.866
 3829SOL    HW112239   2.217   0.488   6.938
 3829SOL    HW212240   2.219   0.521   6.778
 3830SOL     OW12241   3.286   0.214   6.698
 3830SOL    HW112242   3.338   0.149   6.753
 3830SOL    HW212243   3.237   0.277   6.759
 3831SOL     OW12244   2.863   0.034   6.740
 3831SOL    HW112245   2.800  -0.038   6.709
 3831SOL    HW212246   2.956  -0.002   6.740
 3832SOL     OW12247   2.632   1.330   5.887
 3832SOL    HW112248   2.586   1.243   5.904
 3832SOL    HW212249   2.723   1.327   5.928
 3833SOL     OW12250   2.480   1.567   6.870
 3833SOL    HW112251   2.475   1.649   6.927
 3833SOL    HW212252   2.569   1.564   6.825
 3834SOL     OW12253   3.214   0.052   5.754
 3834SOL    HW112254   3.249   0.011   5.670
 3834SOL    HW212255   3.124   0.014   5.774
 3835SOL     OW12256   3.162   0.453   6.277
 3835SOL    HW112257   3.103   0.533   6.281
 3835SOL    HW212258   3.177   0.418   6.370
 3836SOL     OW12259   3.455   0.221   6.468
 3836SOL    HW112260   3.371   0.220   6.522
 3836SOL    HW212261   3.457   0.304   6.412
 3837SOL     OW12262   1.901   1.077   5.886
 3837SOL    HW112263   2.000   1.066   5.877
 3837SOL    HW212264   1.861   0.991   5.918
 3838SOL     OW12265   2.092   0.628   7.561
 3838SOL    HW112266   1.999   0.626   7.598
 3838SOL    HW212267   2.093   0.589   7.469
 3839SOL     OW12268   2.087   0.275   8.444
 3839SOL    HW112269   2.122   0.258   8.536
 3839SOL    HW212270   1.999   0.230   8.432
 3840SOL     OW12271   1.881   0.368   8.095
 3840SOL    HW112272   1.799   0.411   8.134
 3840SOL    HW212273   1.853   0.295   8.032
 3841SOL     OW12274   2.431   1.275   8.613
 3841SOL    HW112275   2.338   1.268   8.576
 3841SOL    HW212276   2.442   1.364   8.657
 3842SOL     OW12277   3.417   1.511   8.151
 3842SOL    HW112278   3.360   1.495   8.232
 3842SOL    HW212279   3.358   1.521   8.071
 3843SOL     OW12280   2.997   0.703   8.165
 3843SOL    HW112281   3.054   0.781   8.140
 3843SOL    HW212282   2.937   0.729   8.241
 3844SOL     OW12283   3.617   0.607   7.679
 3844SOL    HW112284   3.605   0.594   7.580
 3844SOL    HW212285   3.587   0.526   7.728
 3845SOL     OW12286   2.630   1.144   8.471
 3845SOL    HW112287   2.552   1.161   8.531
 3845SOL    HW212288   2.664   1.231   8.435
 3846SOL     OW12289   2.712   0.798   9.271
 3846SOL    HW112290   2.708   0.874   9.336
 3846SOL    HW212291   2.734   0.834   9.180
 3847SOL     OW12292   2.547   1.012   8.113
 3847SOL    HW112293   2.616   0.996   8.183
 3847SOL    HW212294   2.474   1.069   8.151
 3848SOL     OW12295   2.548   1.161   9.251
 3848SOL    HW112296   2.608   1.240   9.265
 3848SOL    HW212297   2.462   1.192   9.210
 3849SOL     OW12298   2.197   1.435   8.509
 3849SOL    HW112299   2.119   1.404   8.456
 3849SOL    HW212300   2.255   1.493   8.452
 3850SOL     OW12301   3.322   1.505   8.787
 3850SOL    HW112302   3.346   1.599   8.813
 3850SOL    HW212303   3.306   1.451   8.869
 3851SOL     OW12304   2.300   0.392   8.947
 3851SOL    HW112305   2.382   0.336   8.956
 3851SOL    HW212306   2.219   0.334   8.951
 3852SOL     OW12307   3.465   0.447   8.185
 3852SOL    HW112308   3.391   0.493   8.135
 3852SOL    HW212309   3.516   0.515   8.238
 3853SOL     OW12310   2.093   1.713   7.931
 3853SOL    HW112311   2.127   1.790   7.985
 3853SOL    HW212312   2.137   1.713   7.841
 3854SOL     OW12313   2.989   1.341   9.138
 3854SOL    HW112314   3.036   1.341   9.226
 3854SOL    HW212315   2.941   1.254   9.127
 3855SOL     OW12316   2.092   1.434   7.986
 3855SOL    HW112317   2.066   1.530   7.986
 3855SOL    HW212318   2.021   1.380   8.031
 3856SOL     OW12319   2.102   1.091   8.334
 3856SOL    HW112320   2.116   1.007   8.386
 3856SOL    HW212321   2.047   1.155   8.389
 3857SOL     OW12322   2.482   1.786   8.887
 3857SOL    HW112323   2.390   1.769   8.922
 3857SOL    HW212324   2.510   1.878   8.913
 3858SOL     OW12325   2.468   0.964   7.571
 3858SOL    HW112326   2.475   1.048   7.517
 3858SOL    HW212327   2.514   0.977   7.659
 3859SOL     OW12328   3.456   0.114   8.928
 3859SOL    HW112329   3.438   0.181   8.856
 3859SOL    HW212330   3.453   0.160   9.017
 3860SOL     OW12331   1.984   0.643   8.011
 3860SOL    HW112332   1.939   0.555   8.028
 3860SOL    HW212333   1.983   0.697   8.095
 3861SOL     OW12334   3.704   1.767   7.807
 3861SOL    HW112335   3.758   1.738   7.887
 3861SOL    HW212336   3.734   1.857   7.778
 3862SOL     OW12337   1.889   1.596   7.565
 3862SOL    HW112338   1.870   1.500   7.586
 3862SOL    HW212339   1.856   1.654   7.640
 3863SOL     OW12340   3.551   0.922   8.060
 3863SOL    HW112341   3.646   0.893   8.068
 3863SOL    HW212342   3.543   0.987   7.985
 3864SOL     OW12343   3.503   1.108   7.880
 3864SOL    HW112344   3.589   1.110   7.828
 3864SOL    HW212345   3.517   1.155   7.968
 3865SOL     OW12346   1.975   0.737   9.045
 3865SOL    HW112347   2.063   0.724   9.090
 3865SOL    HW212348   1.962   0.834   9.023
 3866SOL     OW12349   2.475   1.365   8.174
 3866SOL    HW112350   2.426   1.278   8.183
 3866SOL    HW212351   2.452   1.408   8.087
 3867SOL     OW12352   3.155   1.228   8.871
 3867SOL    HW112353   3.192   1.155   8.813
 3867SOL    HW212354   3.207   1.233   8.956
 3868SOL     OW12355   2.671   0.004   7.950
 3868SOL    HW112356   2.711   0.095   7.941
 3868SOL    HW212357   2.571   0.012   7.956
 3869SOL     OW12358   2.059   0.976   8.712
 3869SOL    HW112359   2.148   0.931   8.698
 3869SOL    HW212360   1.986   0.911   8.693
 3870SOL     OW12361   3.387   0.999   7.638
 3870SOL    HW112362   3.324   0.923   7.651
 3870SOL    HW212363   3.435   1.017   7.724
 3871SOL     OW12364   3.049   1.792   9.064
 3871SOL    HW112365   3.073   1.852   8.988
 3871SOL    HW212366   3.056   1.697   9.034
 3872SOL     OW12367   2.179   0.251   9.249
 3872SOL    HW112368   2.250   0.322   9.255
 3872SOL    HW212369   2.091   0.290   9.277
 3873SOL     OW12370   3.328   1.417   8.401
 3873SOL    HW112371   3.269   1.423   8.481
 3873SOL    HW212372   3.313   1.329   8.355
 3874SOL     OW12373   3.529   1.714   8.020
 3874SOL    HW112374   3.488   1.691   7.932
 3874SOL    HW212375   3.511   1.640   8.085
 3875SOL     OW12376   2.460   0.729   7.718
 3875SOL    HW112377   2.484   0.798   7.650
 3875SOL    HW212378   2.382   0.762   7.772
 3876SOL     OW12379   3.143   0.345   8.392
 3876SOL    HW112380   3.057   0.295   8.379
 3876SOL    HW212381   3.205   0.291   8.448
 3877SOL     OW12382   3.438   1.662   7.755
 3877SOL    HW112383   3.527   1.708   7.758
 3877SOL    HW212384   3.417   1.638   7.660
 3878SOL     OW12385   2.669   0.605   8.913
 3878SOL    HW112386   2.622   0.602   9.002
 3878SOL    HW212387   2.618   0.550   8.847
 3879SOL     OW12388   3.256   0.469   9.122
 3879SOL    HW112389   3.236   0.512   9.210
 3879SOL    HW212390   3.334   0.407   9.131
 3880SOL     OW12391   2.835   0.890   9.020
 3880SOL    HW112392   2.881   0.806   8.991
 3880SOL    HW212393   2.779   0.924   8.945
 3881SOL     OW12394   2.853   0.410   8.690
 3881SOL    HW112395   2.776   0.444   8.744
 3881SOL    HW212396   2.819   0.359   8.611
 3882SOL     OW12397   2.903   0.701   7.877
 3882SOL    HW112398   2.929   0.697   7.973
 3882SOL    HW212399   2.818   0.650   7.863
 3883SOL     OW12400   1.938   0.811   8.237
 3883SOL    HW112401   2.037   0.799   8.246
 3883SOL    HW212402   1.914   0.906   8.258
 3884SOL     OW12403   1.992   1.821   9.019
 3884SOL    HW112404   1.982   1.806   9.118
 3884SOL    HW212405   1.906   1.857   8.983
 3885SOL     OW12406   2.727   0.348   7.643
 3885SOL    HW112407   2.786   0.411   7.594
 3885SOL    HW212408   2.746   0.254   7.614
 3886SOL     OW12409   3.581   0.585   9.279
 3886SOL    HW112410   3.555   0.674   9.243
 3886SOL    HW212411   3.579   0.517   9.206
 3887SOL     OW12412   3.224   1.144   7.993
 3887SOL    HW112413   3.307   1.115   7.945
 3887SOL    HW212414   3.175   1.211   7.937
 3888SOL     OW12415   2.412   0.196   8.333
 3888SOL    HW112416   2.407   0.191   8.433
 3888SOL    HW212417   2.414   0.292   8.304
 3889SOL     OW12418   2.870   1.456   7.925
 3889SOL    HW112419   2.824   1.528   7.873
 3889SOL    HW212420   2.866   1.476   8.023
 3890SOL     OW12421   2.213   1.801   8.301
 3890SOL    HW112422   2.263   1.715   8.307
 3890SOL    HW212423   2.278   1.878   8.298
 3891SOL     OW12424   3.657   1.066   8.321
 3891SOL    HW112425   3.595   1.051   8.245
 3891SOL    HW212426   3.605   1.077   8.406
 3892SOL     OW12427   3.089   1.550   8.954
 3892SOL    HW112428   3.095   1.473   9.018
 3892SOL    HW212429   3.037   1.524   8.874
 3893SOL     OW12430   2.183   0.943   7.690
 3893SOL    HW112431   2.265   0.982   7.648
 3893SOL    HW212432   2.156   0.861   7.641
 3894SOL     OW12433   3.320   0.735   8.176
 3894SOL    HW112434   3.315   0.670   8.251
 3894SOL    HW212435   3.400   0.794   8.189
 3895SOL     OW12436   2.323   1.266   9.175
 3895SOL    HW112437   2.273   1.267   9.089
 3895SOL    HW212438   2.260   1.248   9.251
 3896SOL     OW12439   2.973   1.776   7.685
 3896SOL    HW112440   2.913   1.714   7.735
 3896SOL    HW212441   3.004   1.732   7.600
 3897SOL     OW12442   2.064   0.285   8.946
 3897SOL    HW112443   1.984   0.345   8.933
 3897SOL    HW212444   2.054   0.236   9.032
 3898SOL     OW12445   3.494   1.377   7.529
 3898SOL    HW112446   3.462   1.471   7.519
 3898SOL    HW212447   3.418   1.314   7.517
 3899SOL     OW12448   2.326   1.743   7.771
 3899SOL    HW112449   2.359   1.782   7.857
 3899SOL    HW212450   2.402   1.736   7.706
 3900SOL     OW12451   3.262   0.107   7.874
 3900SOL    HW112452   3.238   0.070   7.784
 3900SOL    HW212453   3.361   0.123   7.878
 3901SOL     OW12454   2.111   1.785   8.689
 3901SOL    HW112455   2.168   1.720   8.739
 3901SOL    HW212456   2.095   1.752   8.596
 3902SOL     OW12457   2.802   1.698   8.352
 3902SOL    HW112458   2.882   1.641   8.373
 3902SOL    HW212459   2.753   1.658   8.275
 3903SOL     OW12460   2.244   0.700   7.928
 3903SOL    HW112461   2.289   0.610   7.925
 3903SOL    HW212462   2.150   0.689   7.961
 3904SOL     OW12463   3.409   0.222   9.177
 3904SOL    HW112464   3.404   0.259   9.269
 3904SOL    HW212465   3.337   0.153   9.165
 3905SOL     OW12466   2.476   0.122   7.565
 3905SOL    HW112467   2.574   0.100   7.572
 3905SOL    HW212468   2.445   0.105   7.472
 3906SOL     OW12469   2.643   0.264   9.197
 3906SOL    HW112470   2.710   0.203   9.240
 3906SOL    HW212471   2.570   0.283   9.262
 3907SOL     OW12472   2.750   1.514   8.643
 3907SOL    HW112473   2.727   1.489   8.549
 3907SOL    HW212474   2.811   1.445   8.682
 3908SOL     OW12475   3.213   0.590   8.881
 3908SOL    HW112476   3.241   0.547   8.966
 3908SOL    HW212477   3.238   0.686   8.882
 3909SOL     OW12478   2.665   1.402   8.372
 3909SOL    HW112479   2.755   1.416   8.330
 3909SOL    HW212480   2.594   1.404   8.301
 3910SOL     OW12481   2.784   0.503   8.347
 3910SOL    HW112482   2.759   0.494   8.251
 3910SOL    HW212483   2.832   0.421   8.378
 3911SOL     OW12484   2.401   0.064   7.960
 3911SOL    HW112485   2.320   0.065   8.018
 3911SOL    HW212486   2.404   0.147   7.905
 3912SOL     OW12487   3.296   1.188   7.489
 3912SOL    HW112488   3.328   1.112   7.546
 3912SOL    HW212489   3.204   1.215   7.519
 3913SOL     OW12490   2.159   0.035   7.619
 3913SOL    HW112491   2.208   0.119   7.598
 3913SOL    HW212492   2.221  -0.030   7.664
 3914SOL     OW12493   2.797   0.236   7.928
 3914SOL    HW112494   2.749   0.277   7.850
 3914SOL    HW212495   2.896   0.234   7.909
 3915SOL     OW12496   2.938   0.683   8.912
 3915SOL    HW112497   2.858   0.622   8.915
 3915SOL    HW212498   3.019   0.630   8.888
 3916SOL     OW12499   3.089   1.570   8.241
 3916SOL    HW112500   3.110   1.644   8.176
 3916SOL    HW212501   3.157   1.570   8.314
 3917SOL     OW12502   2.321   1.152   8.189
 3917SOL    HW112503   2.250   1.125   8.254
 3917SOL    HW212504   2.295   1.124   8.096
 3918SOL     OW12505   3.133   1.797   8.039
 3918SOL    HW112506   3.177   1.861   7.975
 3918SOL    HW212507   3.083   1.849   8.109
 3919SOL     OW12508   2.894   0.549   7.464
 3919SOL    HW112509   2.853   0.631   7.425
 3919SOL    HW212510   2.958   0.575   7.537
 3920SOL     OW12511   1.940   0.556   8.834
 3920SOL    HW112512   2.032   0.555   8.793
 3920SOL    HW212513   1.934   0.630   8.901
 3921SOL     OW12514   2.423   0.222   8.595
 3921SOL    HW112515   2.461   0.138   8.632
 3921SOL    HW212516   2.335   0.241   8.639
 3922SOL     OW12517   2.728   0.454   8.090
 3922SOL    HW112518   2.696   0.526   8.028
 3922SOL    HW212519   2.752   0.373   8.037
 3923SOL     OW12520   2.879   0.039   8.201
 3923SOL    HW112521   2.807   0.044   8.132
 3923SOL    HW212522   2.855  -0.030   8.270
 3924SOL     OW12523   3.291   1.173   8.315
 3924SOL    HW112524   3.236   1.089   8.308
 3924SOL    HW212525   3.317   1.202   8.223
 3925SOL     OW12526   3.328   0.590   8.440
 3925SOL    HW112527   3.298   0.495   8.447
 3925SOL    HW212528   3.401   0.606   8.506
 3926SOL     OW12529   3.719   0.833   7.825
 3926SOL    HW112530   3.761   0.769   7.889
 3926SOL    HW212531   3.681   0.782   7.747
 3927SOL     OW12532   2.350   1.385   7.622
 3927SOL    HW112533   2.263   1.370   7.669
 3927SOL    HW212534   2.333   1.411   7.527
 3928SOL     OW12535   3.526   1.280   8.105
 3928SOL    HW112536   3.625   1.288   8.119
 3928SOL    HW212537   3.481   1.364   8.136
 3929SOL     OW12538   3.252   0.575   7.526
 3929SOL    HW112539   3.198   0.554   7.607
 3929SOL    HW212540   3.343   0.534   7.535
 3930SOL     OW12541   2.389   0.256   7.776
 3930SOL    HW112542   2.416   0.197   7.701
 3930SOL    HW212543   2.389   0.351   7.745
 3931SOL     OW12544   3.616   1.223   9.036
 3931SOL    HW112545   3.707   1.184   9.023
 3931SOL    HW212546   3.624   1.319   9.060
 3932SOL     OW12547   2.926   1.347   8.788
 3932SOL    HW112548   2.846   1.324   8.843
 3932SOL    HW212549   3.009   1.321   8.837
 3933SOL     OW12550   3.454   1.629   9.073
 3933SOL    HW112551   3.481   1.663   8.983
 3933SOL    HW212552   3.533   1.591   9.119
 3934SOL     OW12553   2.973   1.195   8.548
 3934SOL    HW112554   2.933   1.239   8.629
 3934SOL    HW212555   2.932   1.232   8.465
 3935SOL     OW12556   3.500   1.099   8.527
 3935SOL    HW112557   3.505   1.180   8.586
 3935SOL    HW212558   3.414   1.101   8.476
 3936SOL     OW12559   2.777   0.089   8.850
 3936SOL    HW112560   2.802   0.069   8.755
 3936SOL    HW212561   2.849   0.145   8.892
 3937SOL     OW12562   2.842   1.116   9.167
 3937SOL    HW112563   2.743   1.122   9.177
 3937SOL    HW212564   2.865   1.036   9.111
 3938SOL     OW12565   2.567   1.050   7.816
 3938SOL    HW112566   2.553   1.057   7.915
 3938SOL    HW212567   2.651   0.999   7.798
 3939SOL     OW12568   2.272   0.813   8.699
 3939SOL    HW112569   2.358   0.825   8.749
 3939SOL    HW212570   2.230   0.726   8.726
 3940SOL     OW12571   3.136   0.386   8.710
 3940SOL    HW112572   3.157   0.460   8.774
 3940SOL    HW212573   3.047   0.403   8.667
 3941SOL     OW12574   1.926   1.564   8.779
 3941SOL    HW112575   1.880   1.646   8.745
 3941SOL    HW212576   2.024   1.583   8.788
 3942SOL     OW12577   2.229   1.100   7.949
 3942SOL    HW112578   2.222   1.183   7.893
 3942SOL    HW212579   2.233   1.020   7.889
 3943SOL     OW12580   2.428   0.537   8.313
 3943SOL    HW112581   2.440   0.603   8.239
 3943SOL    HW212582   2.474   0.571   8.396
 3944SOL     OW12583   3.114   1.348   7.836
 3944SOL    HW112584   3.164   1.425   7.876
 3944SOL    HW212585   3.019   1.350   7.868
 3945SOL     OW12586   3.134   1.445   8.590
 3945SOL    HW112587   3.181   1.458   8.677
 3945SOL    HW212588   3.068   1.371   8.599
 3946SOL     OW12589   3.444   0.639   7.920
 3946SOL    HW112590   3.413   0.700   7.993
 3946SOL    HW212591   3.494   0.691   7.851
 3947SOL     OW12592   2.216   1.510   8.777
 3947SOL    HW112593   2.195   1.466   8.690
 3947SOL    HW212594   2.313   1.536   8.780
 3948SOL     OW12595   2.264   0.751   9.046
 3948SOL    HW112596   2.332   0.806   8.999
 3948SOL    HW212597   2.304   0.663   9.073
 3949SOL     OW12598   3.449   0.779   9.118
 3949SOL    HW112599   3.357   0.817   9.113
 3949SOL    HW212600   3.509   0.826   9.053
 3950SOL     OW12601   2.875   0.105   9.218
 3950SOL    HW112602   2.881   0.190   9.166
 3950SOL    HW212603   2.907   0.029   9.161
 3951SOL     OW12604   2.366   0.050   9.188
 3951SOL    HW112605   2.324  -0.007   9.118
 3951SOL    HW212606   2.300   0.119   9.220
 3952SOL     OW12607   2.435   0.870   8.477
 3952SOL    HW112608   2.479   0.959   8.468
 3952SOL    HW212609   2.372   0.870   8.554
 3953SOL     OW12610   3.222   0.862   8.493
 3953SOL    HW112611   3.147   0.862   8.427
 3953SOL    HW212612   3.259   0.770   8.502
 3954SOL     OW12613   3.071   0.525   7.723
 3954SOL    HW112614   3.084   0.441   7.777
 3954SOL    HW212615   3.042   0.599   7.783
 3955SOL     OW12616   2.169   0.213   8.679
 3955SOL    HW112617   2.146   0.250   8.769
 3955SOL    HW212618   2.139   0.118   8.673
 3956SOL     OW12619   1.899   1.310   8.730
 3956SOL    HW112620   1.952   1.261   8.798
 3956SOL    HW212621   1.921   1.408   8.735
 3957SOL     OW12622   2.594   0.634   8.512
 3957SOL    HW112623   2.653   0.608   8.436
 3957SOL    HW212624   2.566   0.730   8.501
 3958SOL     OW12625   3.590   0.935   9.302
 3958SOL    HW112626   3.544   0.928   9.213
 3958SOL    HW212627   3.528   0.979   9.368
 3959SOL     OW12628   2.169   0.063   8.066
 3959SOL    HW112629   2.158   0.157   8.099
 3959SOL    HW212630   2.164   0.000   8.143
 3960SOL     OW12631   3.484   0.367   7.822
 3960SOL    HW112632   3.486   0.291   7.886
 3960SOL    HW212633   3.436   0.444   7.862
 3961SOL     OW12634   2.885   0.766   8.414
 3961SOL    HW112635   2.900   0.787   8.510
 3961SOL    HW212636   2.855   0.671   8.405
 3962SOL     OW12637   2.842   1.573   9.148
 3962SOL    HW112638   2.822   1.617   9.060
 3962SOL    HW212639   2.881   1.482   9.132
 3963SOL     OW12640   3.721   1.518   9.053
 3963SOL    HW112641   3.735   1.545   8.958
 3963SOL    HW212642   3.804   1.540   9.106
 3964SOL     OW12643   2.212   0.898   9.252
 3964SOL    HW112644   2.288   0.942   9.300
 3964SOL    HW212645   2.247   0.851   9.170
 3965SOL     OW12646   3.402   0.274   7.573
 3965SOL    HW112647   3.341   0.199   7.596
 3965SOL    HW212648   3.424   0.326   7.656
 3966SOL     OW12649   3.165   0.838   7.490
 3966SOL    HW112650   3.199   0.745   7.505
 3966SOL    HW212651   3.183   0.865   7.395
 3967SOL     OW12652   2.930   1.333   8.297
 3967SOL    HW112653   2.937   1.249   8.242
 3967SOL    HW212654   2.992   1.402   8.261
 3968SOL     OW12655   2.181   0.810   8.397
 3968SOL    HW112656   2.274   0.846   8.402
 3968SOL    HW212657   2.175   0.725   8.449
 3969SOL     OW12658   2.201   0.509   8.454
 3969SOL    HW112659   2.149   0.426   8.437
 3969SOL    HW212660   2.278   0.514   8.390
 3970SOL     OW12661   3.000   0.380   9.126
 3970SOL    HW112662   2.955   0.443   9.190
 3970SOL    HW212663   3.093   0.411   9.109
 3971SOL     OW12664   3.022   0.207   8.925
 3971SOL    HW112665   3.022   0.271   9.002
 3971SOL    HW212666   3.050   0.255   8.842
 3972SOL     OW12667   1.870   1.326   7.648
 3972SOL    HW112668   1.777   1.347   7.617
 3972SOL    HW212669   1.880   1.227   7.661
 3973SOL     OW12670   1.950   1.801   8.375
 3973SOL    HW112671   1.908   1.715   8.348
 3973SOL    HW212672   2.044   1.804   8.341
 3974SOL     OW12673   2.366   1.568   8.358
 3974SOL    HW112674   2.432   1.642   8.367
 3974SOL    HW212675   2.410   1.489   8.316
 3975SOL     OW12676   2.864   0.796   8.686
 3975SOL    HW112677   2.905   0.764   8.772
 3975SOL    HW212678   2.768   0.769   8.683
 3976SOL     OW12679   1.902   0.544   8.562
 3976SOL    HW112680   1.987   0.511   8.521
 3976SOL    HW212681   1.915   0.559   8.660
 3977SOL     OW12682   2.051   0.520   9.170
 3977SOL    HW112683   2.110   0.480   9.100
 3977SOL    HW212684   1.993   0.591   9.129
 3978SOL     OW12685   3.231   0.950   9.108
 3978SOL    HW112686   3.270   1.039   9.128
 3978SOL    HW212687   3.241   0.930   9.011
 3979SOL     OW12688   2.677   0.572   7.773
 3979SOL    HW112689   2.684   0.483   7.727
 3979SOL    HW212690   2.583   0.606   7.765
 3980SOL     OW12691   3.519   0.604   8.654
 3980SOL    HW112692   3.481   0.535   8.716
 3980SOL    HW212693   3.601   0.568   8.610
 3981SOL     OW12694   2.114   1.564   9.192
 3981SOL    HW112695   2.084   1.621   9.268
 3981SOL    HW212696   2.107   1.467   9.218
 3982SOL     OW12697   2.533   0.464   8.717
 3982SOL    HW112698   2.499   0.375   8.687
 3982SOL    HW212699   2.559   0.518   8.637
 3983SOL     OW12700   2.792   1.678   8.913
 3983SOL    HW112701   2.768   1.660   8.818
 3983SOL    HW212702   2.822   1.772   8.923
 3984SOL     OW12703   2.335   0.500   7.639
 3984SOL    HW112704   2.396   0.580   7.643
 3984SOL    HW212705   2.240   0.531   7.646
 3985SOL     OW12706   2.021   1.137   8.914
 3985SOL    HW112707   2.043   1.076   8.990
 3985SOL    HW212708   2.031   1.088   8.828
 3986SOL     OW12709   3.209   1.059   8.682
 3986SOL    HW112710   3.233   0.996   8.608
 3986SOL    HW212711   3.119   1.099   8.664
 3987SOL     OW12712   3.164   0.855   7.757
 3987SOL    HW112713   3.078   0.824   7.799
 3987SOL    HW212714   3.160   0.841   7.658
 3988SOL     OW12715   3.621   1.747   8.602
 3988SOL    HW112716   3.682   1.777   8.529
 3988SOL    HW212717   3.583   1.658   8.580
 3989SOL     OW12718   3.114   1.731   8.576
 3989SOL    HW112719   3.198   1.736   8.522
 3989SOL    HW212720   3.091   1.635   8.594
 3990SOL     OW12721   1.945   1.258   8.470
 3990SOL    HW112722   1.940   1.257   8.570
 3990SOL    HW212723   1.862   1.217   8.432
 3991SOL     OW12724   2.550   1.662   9.164
 3991SOL    HW112725   2.494   1.743   9.173
 3991SOL    HW212726   2.602   1.666   9.078
 3992SOL     OW12727   3.588   0.135   7.971
 3992SOL    HW112728   3.661   0.118   7.904
 3992SOL    HW212729   3.557   0.048   8.009
 3993SOL     OW12730   3.250   1.573   7.925
 3993SOL    HW112731   3.317   1.585   7.851
 3993SOL    HW212732   3.210   1.662   7.948
 3994SOL     OW12733   1.992   1.794   9.299
 3994SOL    HW112734   1.951   1.720   9.352
 3994SOL    HW212735   2.056   1.845   9.357
 3995SOL     OW12736   3.142   0.927   8.120
 3995SOL    HW112737   3.202   0.846   8.122
 3995SOL    HW212738   3.182   0.996   8.060
 3996SOL     OW12739   2.692   1.273   8.870
 3996SOL    HW112740   2.687   1.306   8.965
 3996SOL    HW212741   2.606   1.292   8.824
 3997SOL     OW12742   2.534   1.616   7.602
 3997SOL    HW112743   2.543   1.626   7.503
 3997SOL    HW212744   2.494   1.527   7.623
 3998SOL     OW12745   3.512   1.720   8.842
 3998SOL    HW112746   3.565   1.730   8.758
 3998SOL    HW212747   3.485   1.810   8.876
 3999SOL     OW12748   3.703   0.175   8.411
 3999SOL    HW112749   3.742   0.090   8.375
 3999SOL    HW212750   3.605   0.177   8.392
 4000SOL     OW12751   2.125   0.326   8.168
 4000SOL    HW112752   2.046   0.377   8.134
 4000SOL    HW212753   2.116   0.311   8.266
 4001SOL     OW12754   3.056   1.612   7.479
 4001SOL    HW112755   3.062   1.519   7.516
 4001SOL    HW212756   2.997   1.612   7.399
 4002SOL     OW12757   2.684   1.002   8.820
 4002SOL    HW112758   2.724   1.001   8.728
 4002SOL    HW212759   2.694   1.094   8.860
 4003SOL     OW12760   2.778   0.910   7.739
 4003SOL    HW112761   2.841   0.948   7.671
 4003SOL    HW212762   2.818   0.827   7.778
 4004SOL     OW12763   3.366   1.607   7.492
 4004SOL    HW112764   3.274   1.644   7.499
 4004SOL    HW212765   3.404   1.627   7.402
 4005SOL     OW12766   2.234   1.288   8.938
 4005SOL    HW112767   2.221   1.381   8.904
 4005SOL    HW212768   2.150   1.236   8.925
 4006SOL     OW12769   3.476   1.292   8.737
 4006SOL    HW112770   3.536   1.295   8.817
 4006SOL    HW212771   3.401   1.356   8.750
 4007SOL     OW12772   2.901   1.098   8.144
 4007SOL    HW112773   2.831   1.051   8.198
 4007SOL    HW212774   2.960   1.030   8.101
 4008SOL     OW12775   2.876   0.236   8.419
 4008SOL    HW112776   2.868   0.200   8.326
 4008SOL    HW212777   2.874   0.160   8.484
 4009SOL     OW12778   2.452   1.487   7.939
 4009SOL    HW112779   2.494   1.429   7.869
 4009SOL    HW212780   2.408   1.566   7.895
 4010SOL     OW12781   3.571   0.385   8.829
 4010SOL    HW112782   3.644   0.454   8.833
 4010SOL    HW212783   3.599   0.310   8.770
 4011SOL     OW12784   2.117   1.348   7.738
 4011SOL    HW112785   2.021   1.349   7.711
 4011SOL    HW212786   2.129   1.401   7.822
 4012SOL     OW12787   1.967   1.013   9.174
 4012SOL    HW112788   1.890   0.980   9.228
 4012SOL    HW212789   2.052   0.983   9.216
 4013SOL     OW12790   2.534   0.203   8.937
 4013SOL    HW112791   2.624   0.187   8.897
 4013SOL    HW212792   2.542   0.208   9.036
 4014SOL     OW12793   1.937   0.345   7.481
 4014SOL    HW112794   1.845   0.317   7.452
 4014SOL    HW212795   1.968   0.422   7.425
 4015SOL     OW12796   3.302   0.856   8.846
 4015SOL    HW112797   3.245   0.908   8.783
 4015SOL    HW212798   3.398   0.868   8.822
 4016SOL     OW12799   1.934   0.166   7.766
 4016SOL    HW112800   1.917   0.249   7.712
 4016SOL    HW212801   2.024   0.129   7.744
 4017SOL     OW12802   3.045   1.335   7.567
 4017SOL    HW112803   2.946   1.324   7.569
 4017SOL    HW212804   3.079   1.350   7.660
 4018SOL     OW12805   2.475   0.842   8.879
 4018SOL    HW112806   2.531   0.923   8.862
 4018SOL    HW212807   2.534   0.762   8.882
 4019SOL     OW12808   3.355   1.767   8.407
 4019SOL    HW112809   3.388   1.831   8.338
 4019SOL    HW212810   3.421   1.761   8.482
 4020SOL     OW12811   2.578   0.565   9.156
 4020SOL    HW112812   2.597   0.630   9.230
 4020SOL    HW212813   2.638   0.485   9.165
 4021SOL     OW12814   3.312   1.220   9.081
 4021SOL    HW112815   3.303   1.210   9.180
 4021SOL    HW212816   3.408   1.213   9.055
 4022SOL     OW12817   2.252   1.741   9.008
 4022SOL    HW112818   2.161   1.782   9.006
 4022SOL    HW212819   2.245   1.647   9.040
 4023SOL     OW12820   3.536   0.883   8.702
 4023SOL    HW112821   3.509   0.794   8.665
 4023SOL    HW212822   3.537   0.951   8.629
 4024SOL     OW12823   3.087   0.325   7.897
 4024SOL    HW112824   3.152   0.251   7.886
 4024SOL    HW212825   3.107   0.375   7.981
 4025SOL     OW12826   2.456   0.745   8.100
 4025SOL    HW112827   2.506   0.830   8.081
 4025SOL    HW212828   2.368   0.747   8.052
 4026SOL     OW12829   3.639   0.342   9.090
 4026SOL    HW112830   3.622   0.373   8.996
 4026SOL    HW212831   3.555   0.305   9.128
 4027SOL     OW12832   3.592   0.934   8.965
 4027SOL    HW112833   3.630   1.025   8.980
 4027SOL    HW212834   3.584   0.917   8.866
 4028SOL     OW12835   2.721   1.374   7.464
 4028SOL    HW112836   2.675   1.389   7.552
 4028SOL    HW212837   2.765   1.459   7.434
 4029SOL     OW12838   2.523   1.790   8.401
 4029SOL    HW112839   2.477   1.878   8.388
 4029SOL    HW212840   2.622   1.802   8.394
 4030SOL     OW12841   2.721   0.956   8.309
 4030SOL    HW112842   2.775   0.887   8.357
 4030SOL    HW212843   2.689   1.025   8.375
 4031SOL     OW12844   2.945   0.984   7.535
 4031SOL    HW112845   2.922   1.037   7.453
 4031SOL    HW212846   3.026   0.928   7.516
 4032SOL     OW12847   3.723   1.569   8.299
 4032SOL    HW112848   3.652   1.557   8.229
 4032SOL    HW212849   3.724   1.490   8.359
 4033SOL     OW12850   2.083   1.314   9.292
 4033SOL    HW112851   2.018   1.241   9.271
 4033SOL    HW212852   2.087   1.328   9.390
 4034SOL     OW12853   1.941   1.240   8.101
 4034SOL    HW112854   1.940   1.193   8.189
 4034SOL    HW212855   2.023   1.212   8.050
 4035SOL     OW12856   2.534   1.391   9.072
 4035SOL    HW112857   2.456   1.341   9.110
 4035SOL    HW212858   2.531   1.486   9.103
 4036SOL     OW12859   3.686   0.192   8.675
 4036SOL    HW112860   3.682   0.102   8.719
 4036SOL    HW212861   3.689   0.181   8.576
 4037SOL     OW12862   2.290   0.424   7.968
 4037SOL    HW112863   2.320   0.352   7.906
 4037SOL    HW212864   2.251   0.384   8.051
 4038SOL     OW12865   3.567   1.487   8.552
 4038SOL    HW112866   3.474   1.462   8.525
 4038SOL    HW212867   3.593   1.437   8.634
 4039SOL     OW12868   2.179   0.547   8.728
 4039SOL    HW112869   2.217   0.488   8.800
 4039SOL    HW212870   2.219   0.521   8.640
 4040SOL     OW12871   2.674   1.586   8.135
 4040SOL    HW112872   2.706   1.596   8.041
 4040SOL    HW212873   2.595   1.524   8.137
 4041SOL     OW12874   3.286   0.214   8.560
 4041SOL    HW112875   3.338   0.149   8.615
 4041SOL    HW212876   3.237   0.277   8.621
 4042SOL     OW12877   2.863   0.034   8.602
 4042SOL    HW112878   2.800  -0.038   8.571
 4042SOL    HW212879   2.956  -0.002   8.602
 4043SOL     OW12880   2.632   1.330   7.749
 4043SOL    HW112881   2.586   1.243   7.766
 4043SOL    HW212882   2.723   1.327   7.790
 4044SOL     OW12883   2.480   1.567   8.732
 4044SOL    HW112884   2.475   1.649   8.789
 4044SOL    HW212885   2.569   1.564   8.687
 4045SOL     OW12886   3.214   0.052   7.616
 4045SOL    HW112887   3.249   0.011   7.532
 4045SOL    HW212888   3.124   0.014   7.636
 4046SOL     OW12889   3.162   0.453   8.139
 4046SOL    HW112890   3.103   0.533   8.143
 4046SOL    HW212891   3.177   0.418   8.232
 4047SOL     OW12892   3.455   0.221   8.330
 4047SOL    HW112893   3.371   0.220   8.384
 4047SOL    HW212894   3.457   0.304   8.274
 4048SOL     OW12895   1.901   1.077   7.748
 4048SOL    HW112896   2.000   1.066   7.739
 4048SOL    HW212897   1.861   0.991   7.780
 4049SOL     OW12898   2.737   1.646   7.785
 4049SOL    HW112899   2.660   1.611   7.731
 4049SOL    HW212900   2.705   1.717   7.847
 4050SOL     OW12901   2.092   0.628   9.423
 4050SOL    HW112902   1.999   0.626   9.460
 4050SOL    HW212903   2.093   0.589   9.331
 4051SOL     OW12904   2.087   0.275  10.306
 4051SOL    HW112905   2.122   0.258  10.398
 4051SOL    HW212906   1.999   0.230  10.294
 4052SOL     OW12907   1.881   0.368   9.957
 4052SOL    HW112908   1.799   0.411   9.996
 4052SOL    HW212909   1.853   0.295   9.894
 4053SOL     OW12910   2.431   1.275  10.475
 4053SOL    HW112911   2.338   1.268  10.438
 4053SOL    HW212912   2.442   1.364  10.519
 4054SOL     OW12913   3.417   1.511  10.013
 4054SOL    HW112914   3.360   1.495  10.094
 4054SOL    HW212915   3.358   1.521   9.933
 4055SOL     OW12916   2.997   0.703  10.027
 4055SOL    HW112917   3.054   0.781  10.002
 4055SOL    HW212918   2.937   0.729  10.103
 4056SOL     OW12919   3.617   0.607   9.541
 4056SOL    HW112920   3.605   0.594   9.442
 4056SOL    HW212921   3.587   0.526   9.590
 4057SOL     OW12922   2.630   1.144  10.333
 4057SOL    HW112923   2.552   1.161  10.393
 4057SOL    HW212924   2.664   1.231  10.297
 4058SOL     OW12925   2.712   0.798  11.133
 4058SOL    HW112926   2.708   0.874  11.198
 4058SOL    HW212927   2.734   0.834  11.042
 4059SOL     OW12928   2.547   1.012   9.975
 4059SOL    HW112929   2.616   0.996  10.045
 4059SOL    HW212930   2.474   1.069  10.013
 4060SOL     OW12931   2.197   1.435  10.371
 4060SOL    HW112932   2.119   1.404  10.318
 4060SOL    HW212933   2.255   1.493  10.314
 4061SOL     OW12934   3.322   1.505  10.649
 4061SOL    HW112935   3.346   1.599  10.675
 4061SOL    HW212936   3.306   1.451  10.731
 4062SOL     OW12937   2.300   0.392  10.809
 4062SOL    HW112938   2.382   0.336  10.818
 4062SOL    HW212939   2.219   0.334  10.813
 4063SOL     OW12940   3.465   0.447  10.047
 4063SOL    HW112941   3.391   0.493   9.997
 4063SOL    HW212942   3.516   0.515  10.100
 4064SOL     OW12943   2.093   1.713   9.793
 4064SOL    HW112944   2.127   1.790   9.847
 4064SOL    HW212945   2.137   1.713   9.703
 4065SOL     OW12946   2.092   1.434   9.848
 4065SOL    HW112947   2.066   1.530   9.848
 4065SOL    HW212948   2.021   1.380   9.893
 4066SOL     OW12949   2.102   1.091  10.196
 4066SOL    HW112950   2.116   1.007  10.248
 4066SOL    HW212951   2.047   1.155  10.251
 4067SOL     OW12952   2.482   1.786  10.749
 4067SOL    HW112953   2.390   1.769  10.784
 4067SOL    HW212954   2.510   1.878  10.775
 4068SOL     OW12955   2.468   0.964   9.433
 4068SOL    HW112956   2.475   1.048   9.379
 4068SOL    HW212957   2.514   0.977   9.521
 4069SOL     OW12958   3.456   0.114  10.790
 4069SOL    HW112959   3.438   0.181  10.718
 4069SOL    HW212960   3.453   0.160  10.879
 4070SOL     OW12961   1.984   0.643   9.873
 4070SOL    HW112962   1.939   0.555   9.890
 4070SOL    HW212963   1.983   0.697   9.957
 4071SOL     OW12964   3.704   1.767   9.669
 4071SOL    HW112965   3.758   1.738   9.749
 4071SOL    HW212966   3.734   1.857   9.640
 4072SOL     OW12967   1.889   1.596   9.427
 4072SOL    HW112968   1.870   1.500   9.448
 4072SOL    HW212969   1.856   1.654   9.502
 4073SOL     OW12970   3.551   0.922   9.922
 4073SOL    HW112971   3.646   0.893   9.930
 4073SOL    HW212972   3.543   0.987   9.847
 4074SOL     OW12973   3.503   1.108   9.742
 4074SOL    HW112974   3.589   1.110   9.690
 4074SOL    HW212975   3.517   1.155   9.830
 4075SOL     OW12976   1.975   0.737  10.907
 4075SOL    HW112977   2.063   0.724  10.952
 4075SOL    HW212978   1.962   0.834  10.885
 4076SOL     OW12979   2.475   1.365  10.036
 4076SOL    HW112980   2.426   1.278  10.045
 4076SOL    HW212981   2.452   1.408   9.949
 4077SOL     OW12982   3.155   1.228  10.733
 4077SOL    HW112983   3.192   1.155  10.675
 4077SOL    HW212984   3.207   1.233  10.818
 4078SOL     OW12985   2.671   0.004   9.812
 4078SOL    HW112986   2.711   0.095   9.803
 4078SOL    HW212987   2.571   0.012   9.818
 4079SOL     OW12988   2.059   0.976  10.574
 4079SOL    HW112989   2.148   0.931  10.560
 4079SOL    HW212990   1.986   0.911  10.555
 4080SOL     OW12991   3.387   0.999   9.500
 4080SOL    HW112992   3.324   0.923   9.513
 4080SOL    HW212993   3.435   1.017   9.586
 4081SOL     OW12994   3.049   1.792  10.926
 4081SOL    HW112995   3.073   1.852  10.850
 4081SOL    HW212996   3.056   1.697  10.896
 4082SOL     OW12997   2.179   0.251  11.111
 4082SOL    HW112998   2.250   0.322  11.117
 4082SOL    HW212999   2.091   0.290  11.139
 4083SOL     OW13000   3.328   1.417  10.263
 4083SOL    HW113001   3.269   1.423  10.343
 4083SOL    HW213002   3.313   1.329  10.217
 4084SOL     OW13003   3.529   1.714   9.882
 4084SOL    HW113004   3.488   1.691   9.794
 4084SOL    HW213005   3.511   1.640   9.947
 4085SOL     OW13006   2.460   0.729   9.580
 4085SOL    HW113007   2.484   0.798   9.512
 4085SOL    HW213008   2.382   0.762   9.634
 4086SOL     OW13009   3.143   0.345  10.254
 4086SOL    HW113010   3.057   0.295  10.241
 4086SOL    HW213011   3.205   0.291  10.310
 4087SOL     OW13012   3.438   1.662   9.617
 4087SOL    HW113013   3.527   1.708   9.620
 4087SOL    HW213014   3.417   1.638   9.522
 4088SOL     OW13015   2.669   0.605  10.775
 4088SOL    HW113016   2.622   0.602  10.864
 4088SOL    HW213017   2.618   0.550  10.709
 4089SOL     OW13018   2.835   0.890  10.882
 4089SOL    HW113019   2.881   0.806  10.853
 4089SOL    HW213020   2.779   0.924  10.807
 4090SOL     OW13021   2.853   0.410  10.552
 4090SOL    HW113022   2.776   0.444  10.606
 4090SOL    HW213023   2.819   0.359  10.473
 4091SOL     OW13024   2.903   0.701   9.739
 4091SOL    HW113025   2.929   0.697   9.835
 4091SOL    HW213026   2.818   0.650   9.725
 4092SOL     OW13027   1.938   0.811  10.099
 4092SOL    HW113028   2.037   0.799  10.108
 4092SOL    HW213029   1.914   0.906  10.120
 4093SOL     OW13030   1.992   1.821  10.881
 4093SOL    HW113031   1.982   1.806  10.980
 4093SOL    HW213032   1.906   1.857  10.845
 4094SOL     OW13033   2.727   0.348   9.505
 4094SOL    HW113034   2.786   0.411   9.456
 4094SOL    HW213035   2.746   0.254   9.476
 4095SOL     OW13036   3.224   1.144   9.855
 4095SOL    HW113037   3.307   1.115   9.807
 4095SOL    HW213038   3.175   1.211   9.799
 4096SOL     OW13039   2.412   0.196  10.195
 4096SOL    HW113040   2.407   0.191  10.295
 4096SOL    HW213041   2.414   0.292  10.166
 4097SOL     OW13042   2.870   1.456   9.787
 4097SOL    HW113043   2.824   1.528   9.735
 4097SOL    HW213044   2.866   1.476   9.885
 4098SOL     OW13045   2.213   1.801  10.163
 4098SOL    HW113046   2.263   1.715  10.169
 4098SOL    HW213047   2.278   1.878  10.160
 4099SOL     OW13048   3.657   1.066  10.183
 4099SOL    HW113049   3.595   1.051  10.107
 4099SOL    HW213050   3.605   1.077  10.268
 4100SOL     OW13051   3.089   1.550  10.816
 4100SOL    HW113052   3.095   1.473  10.880
 4100SOL    HW213053   3.037   1.524  10.736
 4101SOL     OW13054   2.183   0.943   9.552
 4101SOL    HW113055   2.265   0.982   9.510
 4101SOL    HW213056   2.156   0.861   9.503
 4102SOL     OW13057   3.320   0.735  10.038
 4102SOL    HW113058   3.315   0.670  10.113
 4102SOL    HW213059   3.400   0.794  10.051
 4103SOL     OW13060   2.323   1.266  11.037
 4103SOL    HW113061   2.273   1.267  10.951
 4103SOL    HW213062   2.260   1.248  11.113
 4104SOL     OW13063   2.973   1.776   9.547
 4104SOL    HW113064   2.913   1.714   9.597
 4104SOL    HW213065   3.004   1.732   9.462
 4105SOL     OW13066   2.064   0.285  10.808
 4105SOL    HW113067   1.984   0.345  10.795
 4105SOL    HW213068   2.054   0.236  10.894
 4106SOL     OW13069   3.494   1.377   9.391
 4106SOL    HW113070   3.462   1.471   9.381
 4106SOL    HW213071   3.418   1.314   9.379
 4107SOL     OW13072   2.326   1.743   9.633
 4107SOL    HW113073   2.359   1.782   9.719
 4107SOL    HW213074   2.402   1.736   9.568
 4108SOL     OW13075   3.262   0.107   9.736
 4108SOL    HW113076   3.238   0.070   9.646
 4108SOL    HW213077   3.361   0.123   9.740
 4109SOL     OW13078   2.111   1.785  10.551
 4109SOL    HW113079   2.168   1.720  10.601
 4109SOL    HW213080   2.095   1.752  10.458
 4110SOL     OW13081   2.802   1.698  10.214
 4110SOL    HW113082   2.882   1.641  10.235
 4110SOL    HW213083   2.753   1.658  10.137
 4111SOL     OW13084   2.244   0.700   9.790
 4111SOL    HW113085   2.289   0.610   9.787
 4111SOL    HW213086   2.150   0.689   9.823
 4112SOL     OW13087   2.476   0.122   9.427
 4112SOL    HW113088   2.574   0.100   9.434
 4112SOL    HW213089   2.445   0.105   9.334
 4113SOL     OW13090   2.643   0.264  11.059
 4113SOL    HW113091   2.710   0.203  11.102
 4113SOL    HW213092   2.570   0.283  11.124
 4114SOL     OW13093   2.750   1.514  10.505
 4114SOL    HW113094   2.727   1.489  10.411
 4114SOL    HW213095   2.811   1.445  10.544
 4115SOL     OW13096   3.213   0.590  10.743
 4115SOL    HW113097   3.241   0.547  10.828
 4115SOL    HW213098   3.238   0.686  10.744
 4116SOL     OW13099   2.665   1.402  10.234
 4116SOL    HW113100   2.755   1.416  10.192
 4116SOL    HW213101   2.594   1.404  10.163
 4117SOL     OW13102   2.784   0.503  10.209
 4117SOL    HW113103   2.759   0.494  10.113
 4117SOL    HW213104   2.832   0.421  10.240
 4118SOL     OW13105   2.401   0.064   9.822
 4118SOL    HW113106   2.320   0.065   9.880
 4118SOL    HW213107   2.404   0.147   9.767
 4119SOL     OW13108   3.296   1.188   9.351
 4119SOL    HW113109   3.328   1.112   9.408
 4119SOL    HW213110   3.204   1.215   9.381
 4120SOL     OW13111   2.159   0.035   9.481
 4120SOL    HW113112   2.208   0.119   9.460
 4120SOL    HW213113   2.221  -0.030   9.526
 4121SOL     OW13114   2.797   0.236   9.790
 4121SOL    HW113115   2.749   0.277   9.712
 4121SOL    HW213116   2.896   0.234   9.771
 4122SOL     OW13117   2.938   0.683  10.774
 4122SOL    HW113118   2.858   0.622  10.777
 4122SOL    HW213119   3.019   0.630  10.750
 4123SOL     OW13120   3.089   1.570  10.103
 4123SOL    HW113121   3.110   1.644  10.038
 4123SOL    HW213122   3.157   1.570  10.176
 4124SOL     OW13123   2.321   1.152  10.051
 4124SOL    HW113124   2.250   1.125  10.116
 4124SOL    HW213125   2.295   1.124   9.958
 4125SOL     OW13126   3.133   1.797   9.901
 4125SOL    HW113127   3.177   1.861   9.837
 4125SOL    HW213128   3.083   1.849   9.971
 4126SOL     OW13129   2.894   0.549   9.326
 4126SOL    HW113130   2.853   0.631   9.287
 4126SOL    HW213131   2.958   0.575   9.399
 4127SOL     OW13132   1.940   0.556  10.696
 4127SOL    HW113133   2.032   0.555  10.655
 4127SOL    HW213134   1.934   0.630  10.763
 4128SOL     OW13135   2.423   0.222  10.457
 4128SOL    HW113136   2.461   0.138  10.494
 4128SOL    HW213137   2.335   0.241  10.501
 4129SOL     OW13138   2.728   0.454   9.952
 4129SOL    HW113139   2.696   0.526   9.890
 4129SOL    HW213140   2.752   0.373   9.899
 4130SOL     OW13141   2.879   0.039  10.063
 4130SOL    HW113142   2.807   0.044   9.994
 4130SOL    HW213143   2.855  -0.030  10.132
 4131SOL     OW13144   3.291   1.173  10.177
 4131SOL    HW113145   3.236   1.089  10.170
 4131SOL    HW213146   3.317   1.202  10.085
 4132SOL     OW13147   3.328   0.590  10.302
 4132SOL    HW113148   3.298   0.495  10.309
 4132SOL    HW213149   3.401   0.606  10.368
 4133SOL     OW13150   3.719   0.833   9.687
 4133SOL    HW113151   3.761   0.769   9.751
 4133SOL    HW213152   3.681   0.782   9.609
 4134SOL     OW13153   2.350   1.385   9.484
 4134SOL    HW113154   2.263   1.370   9.531
 4134SOL    HW213155   2.333   1.411   9.389
 4135SOL     OW13156   3.526   1.280   9.967
 4135SOL    HW113157   3.625   1.288   9.981
 4135SOL    HW213158   3.481   1.364   9.998
 4136SOL     OW13159   3.252   0.575   9.388
 4136SOL    HW113160   3.198   0.554   9.469
 4136SOL    HW213161   3.343   0.534   9.397
 4137SOL     OW13162   2.389   0.256   9.638
 4137SOL    HW113163   2.416   0.197   9.563
 4137SOL    HW213164   2.389   0.351   9.607
 4138SOL     OW13165   3.616   1.223  10.898
 4138SOL    HW113166   3.707   1.184  10.885
 4138SOL    HW213167   3.624   1.319  10.922
 4139SOL     OW13168   2.926   1.347  10.650
 4139SOL    HW113169   2.846   1.324  10.705
 4139SOL    HW213170   3.009   1.321  10.699
 4140SOL     OW13171   2.973   1.195  10.410
 4140SOL    HW113172   2.933   1.239  10.491
 4140SOL    HW213173   2.932   1.232  10.327
 4141SOL     OW13174   3.500   1.099  10.389
 4141SOL    HW113175   3.505   1.180  10.448
 4141SOL    HW213176   3.414   1.101  10.338
 4142SOL     OW13177   2.777   0.089  10.712
 4142SOL    HW113178   2.802   0.069  10.617
 4142SOL    HW213179   2.849   0.145  10.754
 4143SOL     OW13180   2.567   1.050   9.678
 4143SOL    HW113181   2.553   1.057   9.777
 4143SOL    HW213182   2.651   0.999   9.660
 4144SOL     OW13183   2.272   0.813  10.561
 4144SOL    HW113184   2.358   0.825  10.611
 4144SOL    HW213185   2.230   0.726  10.588
 4145SOL     OW13186   3.136   0.386  10.572
 4145SOL    HW113187   3.157   0.460  10.636
 4145SOL    HW213188   3.047   0.403  10.529
 4146SOL     OW13189   1.926   1.564  10.641
 4146SOL    HW113190   1.880   1.646  10.607
 4146SOL    HW213191   2.024   1.583  10.650
 4147SOL     OW13192   2.229   1.100   9.811
 4147SOL    HW113193   2.222   1.183   9.755
 4147SOL    HW213194   2.233   1.020   9.751
 4148SOL     OW13195   2.428   0.537  10.175
 4148SOL    HW113196   2.440   0.603  10.101
 4148SOL    HW213197   2.474   0.571  10.258
 4149SOL     OW13198   3.114   1.348   9.698
 4149SOL    HW113199   3.164   1.425   9.738
 4149SOL    HW213200   3.019   1.350   9.730
 4150SOL     OW13201   3.134   1.445  10.452
 4150SOL    HW113202   3.181   1.458  10.539
 4150SOL    HW213203   3.068   1.371  10.461
 4151SOL     OW13204   3.444   0.639   9.782
 4151SOL    HW113205   3.413   0.700   9.855
 4151SOL    HW213206   3.494   0.691   9.713
 4152SOL     OW13207   2.216   1.510  10.639
 4152SOL    HW113208   2.195   1.466  10.552
 4152SOL    HW213209   2.313   1.536  10.642
 4153SOL     OW13210   2.264   0.751  10.908
 4153SOL    HW113211   2.332   0.806  10.861
 4153SOL    HW213212   2.304   0.663  10.935
 4154SOL     OW13213   3.449   0.779  10.980
 4154SOL    HW113214   3.357   0.817  10.975
 4154SOL    HW213215   3.509   0.826  10.915
 4155SOL     OW13216   2.435   0.870  10.339
 4155SOL    HW113217   2.479   0.959  10.330
 4155SOL    HW213218   2.372   0.870  10.416
 4156SOL     OW13219   3.222   0.862  10.355
 4156SOL    HW113220   3.147   0.862  10.289
 4156SOL    HW213221   3.259   0.770  10.364
 4157SOL     OW13222   3.071   0.525   9.585
 4157SOL    HW113223   3.084   0.441   9.639
 4157SOL    HW213224   3.042   0.599   9.645
 4158SOL     OW13225   2.169   0.213  10.541
 4158SOL    HW113226   2.146   0.250  10.631
 4158SOL    HW213227   2.139   0.118  10.535
 4159SOL     OW13228   1.899   1.310  10.592
 4159SOL    HW113229   1.952   1.261  10.660
 4159SOL    HW213230   1.921   1.408  10.597
 4160SOL     OW13231   2.594   0.634  10.374
 4160SOL    HW113232   2.653   0.608  10.298
 4160SOL    HW213233   2.566   0.730  10.363
 4161SOL     OW13234   2.169   0.063   9.928
 4161SOL    HW113235   2.158   0.157   9.961
 4161SOL    HW213236   2.164   0.000  10.005
 4162SOL     OW13237   3.484   0.367   9.684
 4162SOL    HW113238   3.486   0.291   9.748
 4162SOL    HW213239   3.436   0.444   9.724
 4163SOL     OW13240   2.885   0.766  10.276
 4163SOL    HW113241   2.900   0.787  10.372
 4163SOL    HW213242   2.855   0.671  10.267
 4164SOL     OW13243   2.842   1.573  11.010
 4164SOL    HW113244   2.822   1.617  10.922
 4164SOL    HW213245   2.881   1.482  10.994
 4165SOL     OW13246   3.721   1.518  10.915
 4165SOL    HW113247   3.735   1.545  10.820
 4165SOL    HW213248   3.804   1.540  10.968
 4166SOL     OW13249   2.212   0.898  11.114
 4166SOL    HW113250   2.288   0.942  11.162
 4166SOL    HW213251   2.247   0.851  11.032
 4167SOL     OW13252   3.402   0.274   9.435
 4167SOL    HW113253   3.341   0.199   9.458
 4167SOL    HW213254   3.424   0.326   9.518
 4168SOL     OW13255   3.165   0.838   9.352
 4168SOL    HW113256   3.199   0.745   9.367
 4168SOL    HW213257   3.183   0.865   9.257
 4169SOL     OW13258   2.930   1.333  10.159
 4169SOL    HW113259   2.937   1.249  10.104
 4169SOL    HW213260   2.992   1.402  10.123
 4170SOL     OW13261   2.181   0.810  10.259
 4170SOL    HW113262   2.274   0.846  10.264
 4170SOL    HW213263   2.175   0.725  10.311
 4171SOL     OW13264   2.201   0.509  10.316
 4171SOL    HW113265   2.149   0.426  10.299
 4171SOL    HW213266   2.278   0.514  10.252
 4172SOL     OW13267   3.022   0.207  10.787
 4172SOL    HW113268   3.022   0.271  10.864
 4172SOL    HW213269   3.050   0.255  10.704
 4173SOL     OW13270   1.870   1.326   9.510
 4173SOL    HW113271   1.777   1.347   9.479
 4173SOL    HW213272   1.880   1.227   9.523
 4174SOL     OW13273   1.950   1.801  10.237
 4174SOL    HW113274   1.908   1.715  10.210
 4174SOL    HW213275   2.044   1.804  10.203
 4175SOL     OW13276   2.366   1.568  10.220
 4175SOL    HW113277   2.432   1.642  10.229
 4175SOL    HW213278   2.410   1.489  10.178
 4176SOL     OW13279   2.864   0.796  10.548
 4176SOL    HW113280   2.905   0.764  10.634
 4176SOL    HW213281   2.768   0.769  10.545
 4177SOL     OW13282   1.902   0.544  10.424
 4177SOL    HW113283   1.987   0.511  10.383
 4177SOL    HW213284   1.915   0.559  10.522
 4178SOL     OW13285   2.677   0.572   9.635
 4178SOL    HW113286   2.684   0.483   9.589
 4178SOL    HW213287   2.583   0.606   9.627
 4179SOL     OW13288   3.519   0.604  10.516
 4179SOL    HW113289   3.481   0.535  10.578
 4179SOL    HW213290   3.601   0.568  10.472
 4180SOL     OW13291   2.114   1.564  11.054
 4180SOL    HW113292   2.084   1.621  11.130
 4180SOL    HW213293   2.107   1.467  11.080
 4181SOL     OW13294   2.533   0.464  10.579
 4181SOL    HW113295   2.499   0.375  10.549
 4181SOL    HW213296   2.559   0.518  10.499
 4182SOL     OW13297   2.792   1.678  10.775
 4182SOL    HW113298   2.768   1.660  10.680
 4182SOL    HW213299   2.822   1.772  10.785
 4183SOL     OW13300   2.335   0.500   9.501
 4183SOL    HW113301   2.396   0.580   9.505
 4183SOL    HW213302   2.240   0.531   9.508
 4184SOL     OW13303   2.021   1.137  10.776
 4184SOL    HW113304   2.043   1.076  10.852
 4184SOL    HW213305   2.031   1.088  10.690
 4185SOL     OW13306   3.209   1.059  10.544
 4185SOL    HW113307   3.233   0.996  10.470
 4185SOL    HW213308   3.119   1.099  10.526
 4186SOL     OW13309   3.164   0.855   9.619
 4186SOL    HW113310   3.078   0.824   9.661
 4186SOL    HW213311   3.160   0.841   9.520
 4187SOL     OW13312   3.621   1.747  10.464
 4187SOL    HW113313   3.682   1.777  10.391
 4187SOL    HW213314   3.583   1.658  10.442
 4188SOL     OW13315   3.114   1.731  10.438
 4188SOL    HW113316   3.198   1.736  10.384
 4188SOL    HW213317   3.091   1.635  10.456
 4189SOL     OW13318   1.945   1.258  10.332
 4189SOL    HW113319   1.940   1.257  10.432
 4189SOL    HW213320   1.862   1.217  10.294
 4190SOL     OW13321   3.588   0.135   9.833
 4190SOL    HW113322   3.661   0.118   9.766
 4190SOL    HW213323   3.557   0.048   9.871
 4191SOL     OW13324   3.250   1.573   9.787
 4191SOL    HW113325   3.317   1.585   9.713
 4191SOL    HW213326   3.210   1.662   9.810
 4192SOL     OW13327   3.142   0.927   9.982
 4192SOL    HW113328   3.202   0.846   9.984
 4192SOL    HW213329   3.182   0.996   9.922
 4193SOL     OW13330   2.692   1.273  10.732
 4193SOL    HW113331   2.687   1.306  10.827
 4193SOL    HW213332   2.606   1.292  10.686
 4194SOL     OW13333   2.534   1.616   9.464
 4194SOL    HW113334   2.543   1.626   9.365
 4194SOL    HW213335   2.494   1.527   9.485
 4195SOL     OW13336   3.512   1.720  10.704
 4195SOL    HW113337   3.565   1.730  10.620
 4195SOL    HW213338   3.485   1.810  10.738
 4196SOL     OW13339   3.703   0.175  10.273
 4196SOL    HW113340   3.742   0.090  10.237
 4196SOL    HW213341   3.605   0.177  10.254
 4197SOL     OW13342   2.125   0.326  10.030
 4197SOL    HW113343   2.046   0.377   9.996
 4197SOL    HW213344   2.116   0.311  10.128
 4198SOL     OW13345   3.056   1.612   9.341
 4198SOL    HW113346   3.062   1.519   9.378
 4198SOL    HW213347   2.997   1.612   9.261
 4199SOL     OW13348   2.684   1.002  10.682
 4199SOL    HW113349   2.724   1.001  10.590
 4199SOL    HW213350   2.694   1.094  10.722
 4200SOL     OW13351   2.778   0.910   9.601
 4200SOL    HW113352   2.841   0.948   9.533
 4200SOL    HW213353   2.818   0.827   9.640
 4201SOL     OW13354   3.366   1.607   9.354
 4201SOL    HW113355   3.274   1.644   9.361
 4201SOL    HW213356   3.404   1.627   9.264
 4202SOL     OW13357   2.234   1.288  10.800
 4202SOL    HW113358   2.221   1.381  10.766
 4202SOL    HW213359   2.150   1.236  10.787
 4203SOL     OW13360   3.476   1.292  10.599
 4203SOL    HW113361   3.536   1.295  10.679
 4203SOL    HW213362   3.401   1.356  10.612
 4204SOL     OW13363   2.901   1.098  10.006
 4204SOL    HW113364   2.831   1.051  10.060
 4204SOL    HW213365   2.960   1.030   9.963
 4205SOL     OW13366   2.876   0.236  10.281
 4205SOL    HW113367   2.868   0.200  10.188
 4205SOL    HW213368   2.874   0.160  10.346
 4206SOL     OW13369   2.452   1.487   9.801
 4206SOL    HW113370   2.494   1.429   9.731
 4206SOL    HW213371   2.408   1.566   9.757
 4207SOL     OW13372   3.571   0.385  10.691
 4207SOL    HW113373   3.644   0.454  10.695
 4207SOL    HW213374   3.599   0.310  10.632
 4208SOL     OW13375   2.117   1.348   9.600
 4208SOL    HW113376   2.021   1.349   9.573
 4208SOL    HW213377   2.129   1.401   9.684
 4209SOL     OW13378   1.967   1.013  11.036
 4209SOL    HW113379   1.890   0.980  11.090
 4209SOL    HW213380   2.052   0.983  11.078
 4210SOL     OW13381   2.534   0.203  10.799
 4210SOL    HW113382   2.624   0.187  10.759
 4210SOL    HW213383   2.542   0.208  10.898
 4211SOL     OW13384   1.937   0.345   9.343
 4211SOL    HW113385   1.845   0.317   9.314
 4211SOL    HW213386   1.968   0.422   9.287
 4212SOL     OW13387   3.302   0.856  10.708
 4212SOL    HW113388   3.245   0.908  10.645
 4212SOL    HW213389   3.398   0.868  10.684
 4213SOL     OW13390   1.934   0.166   9.628
 4213SOL    HW113391   1.917   0.249   9.574
 4213SOL    HW213392   2.024   0.129   9.606
 4214SOL     OW13393   3.045   1.335   9.429
 4214SOL    HW113394   2.946   1.324   9.431
 4214SOL    HW213395   3.079   1.350   9.522
 4215SOL     OW13396   2.475   0.842  10.741
 4215SOL    HW113397   2.531   0.923  10.724
 4215SOL    HW213398   2.534   0.762  10.744
 4216SOL     OW13399   3.355   1.767  10.269
 4216SOL    HW113400   3.388   1.831  10.200
 4216SOL    HW213401   3.421   1.761  10.344
 4217SOL     OW13402   2.578   0.565  11.018
 4217SOL    HW113403   2.597   0.630  11.092
 4217SOL    HW213404   2.638   0.485  11.027
 4218SOL     OW13405   2.252   1.741  10.870
 4218SOL    HW113406   2.161   1.782  10.868
 4218SOL    HW213407   2.245   1.647  10.902
 4219SOL     OW13408   3.536   0.883  10.564
 4219SOL    HW113409   3.509   0.794  10.527
 4219SOL    HW213410   3.537   0.951  10.491
 4220SOL     OW13411   3.087   0.325   9.759
 4220SOL    HW113412   3.152   0.251   9.748
 4220SOL    HW213413   3.107   0.375   9.843
 4221SOL     OW13414   2.456   0.745   9.962
 4221SOL    HW113415   2.506   0.830   9.943
 4221SOL    HW213416   2.368   0.747   9.914
 4222SOL     OW13417   3.639   0.342  10.952
 4222SOL    HW113418   3.622   0.373  10.858
 4222SOL    HW213419   3.555   0.305  10.990
 4223SOL     OW13420   3.592   0.934  10.827
 4223SOL    HW113421   3.630   1.025  10.842
 4223SOL    HW213422   3.584   0.917  10.728
 4224SOL     OW13423   2.721   1.374   9.326
 4224SOL    HW113424   2.675   1.389   9.414
 4224SOL    HW213425   2.765   1.459   9.296
 4225SOL     OW13426   2.523   1.790  10.263
 4225SOL    HW113427   2.477   1.878  10.250
 4225SOL    HW213428   2.622   1.802  10.256
 4226SOL     OW13429   2.721   0.956  10.171
 4226SOL    HW113430   2.775   0.887  10.219
 4226SOL    HW213431   2.689   1.025  10.237
 4227SOL     OW13432   2.945   0.984   9.397
 4227SOL    HW113433   2.922   1.037   9.315
 4227SOL    HW213434   3.026   0.928   9.378
 4228SOL     OW13435   3.723   1.569  10.161
 4228SOL    HW113436   3.652   1.557  10.091
 4228SOL    HW213437   3.724   1.490  10.221
 4229SOL     OW13438   1.941   1.240   9.963
 4229SOL    HW113439   1.940   1.193  10.051
 4229SOL    HW213440   2.023   1.212   9.912
 4230SOL     OW13441   2.534   1.391  10.934
 4230SOL    HW113442   2.456   1.341  10.972
 4230SOL    HW213443   2.531   1.486  10.965
 4231SOL     OW13444   3.686   0.192  10.537
 4231SOL    HW113445   3.682   0.102  10.581
 4231SOL    HW213446   3.689   0.181  10.438
 4232SOL     OW13447   2.290   0.424   9.830
 4232SOL    HW113448   2.320   0.352   9.768
 4232SOL    HW213449   2.251   0.384   9.913
 4233SOL     OW13450   3.567   1.487  10.414
 4233SOL    HW113451   3.474   1.462  10.387
 4233SOL    HW213452   3.593   1.437  10.496
 4234SOL     OW13453   2.179   0.547  10.590
 4234SOL    HW113454   2.217   0.488  10.662
 4234SOL    HW213455   2.219   0.521  10.502
 4235SOL     OW13456   2.674   1.586   9.997
 4235SOL    HW113457   2.706   1.596   9.903
 4235SOL    HW213458   2.595   1.524   9.999
 4236SOL     OW13459   3.286   0.214  10.422
 4236SOL    HW113460   3.338   0.149  10.477
 4236SOL    HW213461   3.237   0.277  10.483
 4237SOL     OW13462   2.863   0.034  10.464
 4237SOL    HW113463   2.800  -0.038  10.433
 4237SOL    HW213464   2.956  -0.002  10.464
 4238SOL     OW13465   2.632   1.330   9.611
 4238SOL    HW113466   2.586   1.243   9.628
 4238SOL    HW213467   2.723   1.327   9.652
 4239SOL     OW13468   2.480   1.567  10.594
 4239SOL    HW113469   2.475   1.649  10.651
 4239SOL    HW213470   2.569   1.564  10.549
 4240SOL     OW13471   3.214   0.052   9.478
 4240SOL    HW113472   3.249   0.011   9.394
 4240SOL    HW213473   3.124   0.014   9.498
 4241SOL     OW13474   3.162   0.453  10.001
 4241SOL    HW113475   3.103   0.533  10.005
 4241SOL    HW213476   3.177   0.418  10.094
 4242SOL     OW13477   3.455   0.221  10.192
 4242SOL    HW113478   3.371   0.220  10.246
 4242SOL    HW213479   3.457   0.304  10.136
 4243SOL     OW13480   1.901   1.077   9.610
 4243SOL    HW113481   2.000   1.066   9.601
 4243SOL    HW213482   1.861   0.991   9.642
 4244SOL     OW13483   2.737   1.646   9.647
 4244SOL    HW113484   2.660   1.611   9.593
 4244SOL    HW213485   2.705   1.717   9.709
 4245SOL     OW13486   2.092   2.490   0.113
 4245SOL    HW113487   1.999   2.488   0.150
 4245SOL    HW213488   2.093   2.451   0.021
 4246SOL     OW13489   1.881   2.230   0.647
 4246SOL    HW113490   1.799   2.273   0.686
 4246SOL    HW213491   1.853   2.157   0.584
 4247SOL     OW13492   2.431   3.137   1.165
 4247SOL    HW113493   2.338   3.130   1.128
 4247SOL    HW213494   2.442   3.226   1.209
 4248SOL     OW13495   3.417   3.373   0.703
 4248SOL    HW113496   3.360   3.357   0.784
 4248SOL    HW213497   3.358   3.383   0.623
 4249SOL     OW13498   2.997   2.565   0.717
 4249SOL    HW113499   3.054   2.643   0.692
 4249SOL    HW213500   2.937   2.591   0.793
 4250SOL     OW13501   3.617   2.469   0.231
 4250SOL    HW113502   3.605   2.456   0.132
 4250SOL    HW213503   3.587   2.388   0.280
 4251SOL     OW13504   2.630   3.006   1.023
 4251SOL    HW113505   2.552   3.023   1.083
 4251SOL    HW213506   2.664   3.093   0.987
 4252SOL     OW13507   2.712   2.660   1.823
 4252SOL    HW113508   2.708   2.736   1.888
 4252SOL    HW213509   2.734   2.696   1.732
 4253SOL     OW13510   2.547   2.874   0.665
 4253SOL    HW113511   2.616   2.858   0.735
 4253SOL    HW213512   2.474   2.931   0.703
 4254SOL     OW13513   2.548   3.023   1.803
 4254SOL    HW113514   2.608   3.102   1.817
 4254SOL    HW213515   2.462   3.054   1.762
 4255SOL     OW13516   2.197   3.297   1.061
 4255SOL    HW113517   2.119   3.266   1.008
 4255SOL    HW213518   2.255   3.355   1.004
 4256SOL     OW13519   3.322   3.367   1.339
 4256SOL    HW113520   3.346   3.461   1.365
 4256SOL    HW213521   3.306   3.313   1.421
 4257SOL     OW13522   3.465   2.309   0.737
 4257SOL    HW113523   3.391   2.355   0.687
 4257SOL    HW213524   3.516   2.377   0.790
 4258SOL     OW13525   2.093   3.575   0.483
 4258SOL    HW113526   2.127   3.652   0.537
 4258SOL    HW213527   2.137   3.575   0.393
 4259SOL     OW13528   2.989   3.203   1.690
 4259SOL    HW113529   3.036   3.203   1.778
 4259SOL    HW213530   2.941   3.116   1.679
 4260SOL     OW13531   2.092   3.296   0.538
 4260SOL    HW113532   2.066   3.392   0.538
 4260SOL    HW213533   2.021   3.242   0.583
 4261SOL     OW13534   2.102   2.953   0.886
 4261SOL    HW113535   2.116   2.869   0.938
 4261SOL    HW213536   2.047   3.017   0.941
 4262SOL     OW13537   2.482   3.648   1.439
 4262SOL    HW113538   2.390   3.631   1.474
 4262SOL    HW213539   2.510   3.740   1.465
 4263SOL     OW13540   2.468   2.826   0.123
 4263SOL    HW113541   2.475   2.910   0.069
 4263SOL    HW213542   2.514   2.839   0.211
 4264SOL     OW13543   3.456   1.976   1.480
 4264SOL    HW113544   3.438   2.043   1.408
 4264SOL    HW213545   3.453   2.022   1.569
 4265SOL     OW13546   1.984   2.505   0.563
 4265SOL    HW113547   1.939   2.417   0.580
 4265SOL    HW213548   1.983   2.559   0.647
 4266SOL     OW13549   3.704   3.629   0.359
 4266SOL    HW113550   3.758   3.600   0.439
 4266SOL    HW213551   3.734   3.719   0.330
 4267SOL     OW13552   1.889   3.458   0.117
 4267SOL    HW113553   1.870   3.362   0.138
 4267SOL    HW213554   1.856   3.516   0.192
 4268SOL     OW13555   3.551   2.784   0.612
 4268SOL    HW113556   3.646   2.755   0.620
 4268SOL    HW213557   3.543   2.849   0.537
 4269SOL     OW13558   3.503   2.970   0.432
 4269SOL    HW113559   3.589   2.972   0.380
 4269SOL    HW213560   3.517   3.017   0.520
 4270SOL     OW13561   1.975   2.599   1.597
 4270SOL    HW113562   2.063   2.586   1.642
 4270SOL    HW213563   1.962   2.696   1.575
 4271SOL     OW13564   2.475   3.227   0.726
 4271SOL    HW113565   2.426   3.140   0.735
 4271SOL    HW213566   2.452   3.270   0.639
 4272SOL     OW13567   3.155   3.090   1.423
 4272SOL    HW113568   3.192   3.017   1.365
 4272SOL    HW213569   3.207   3.095   1.508
 4273SOL     OW13570   2.671   1.866   0.502
 4273SOL    HW113571   2.711   1.957   0.493
 4273SOL    HW213572   2.571   1.874   0.508
 4274SOL     OW13573   2.059   2.838   1.264
 4274SOL    HW113574   2.148   2.793   1.250
 4274SOL    HW213575   1.986   2.773   1.245
 4275SOL     OW13576   3.387   2.861   0.190
 4275SOL    HW113577   3.324   2.785   0.203
 4275SOL    HW213578   3.435   2.879   0.276
 4276SOL     OW13579   3.049   3.654   1.616
 4276SOL    HW113580   3.073   3.714   1.540
 4276SOL    HW213581   3.056   3.559   1.586
 4277SOL     OW13582   3.328   3.279   0.953
 4277SOL    HW113583   3.269   3.285   1.033
 4277SOL    HW213584   3.313   3.191   0.907
 4278SOL     OW13585   3.529   3.576   0.572
 4278SOL    HW113586   3.488   3.553   0.484
 4278SOL    HW213587   3.511   3.502   0.637
 4279SOL     OW13588   2.460   2.591   0.270
 4279SOL    HW113589   2.484   2.660   0.202
 4279SOL    HW213590   2.382   2.624   0.324
 4280SOL     OW13591   3.143   2.207   0.944
 4280SOL    HW113592   3.057   2.157   0.931
 4280SOL    HW213593   3.205   2.153   1.000
 4281SOL     OW13594   3.438   3.524   0.307
 4281SOL    HW113595   3.527   3.570   0.310
 4281SOL    HW213596   3.417   3.500   0.212
 4282SOL     OW13597   2.669   2.467   1.465
 4282SOL    HW113598   2.622   2.464   1.554
 4282SOL    HW213599   2.618   2.412   1.399
 4283SOL     OW13600   3.256   2.331   1.674
 4283SOL    HW113601   3.236   2.374   1.762
 4283SOL    HW213602   3.334   2.269   1.683
 4284SOL     OW13603   2.835   2.752   1.572
 4284SOL    HW113604   2.881   2.668   1.543
 4284SOL    HW213605   2.779   2.786   1.497
 4285SOL     OW13606   2.853   2.272   1.242
 4285SOL    HW113607   2.776   2.306   1.296
 4285SOL    HW213608   2.819   2.221   1.163
 4286SOL     OW13609   2.903   2.563   0.429
 4286SOL    HW113610   2.929   2.559   0.525
 4286SOL    HW213611   2.818   2.512   0.415
 4287SOL     OW13612   1.938   2.673   0.789
 4287SOL    HW113613   2.037   2.661   0.798
 4287SOL    HW213614   1.914   2.768   0.810
 4288SOL     OW13615   1.992   3.683   1.571
 4288SOL    HW113616   1.982   3.668   1.670
 4288SOL    HW213617   1.906   3.719   1.535
 4289SOL     OW13618   2.727   2.210   0.195
 4289SOL    HW113619   2.786   2.273   0.146
 4289SOL    HW213620   2.746   2.116   0.166
 4290SOL     OW13621   3.581   2.447   1.831
 4290SOL    HW113622   3.555   2.536   1.795
 4290SOL    HW213623   3.579   2.379   1.758
 4291SOL     OW13624   3.224   3.006   0.545
 4291SOL    HW113625   3.307   2.977   0.497
 4291SOL    HW213626   3.175   3.073   0.489
 4292SOL     OW13627   2.412   2.058   0.885
 4292SOL    HW113628   2.407   2.053   0.985
 4292SOL    HW213629   2.414   2.154   0.856
 4293SOL     OW13630   2.870   3.318   0.477
 4293SOL    HW113631   2.824   3.390   0.425
 4293SOL    HW213632   2.866   3.338   0.575
 4294SOL     OW13633   2.213   3.663   0.853
 4294SOL    HW113634   2.263   3.577   0.859
 4294SOL    HW213635   2.278   3.740   0.850
 4295SOL     OW13636   3.657   2.928   0.873
 4295SOL    HW113637   3.595   2.913   0.797
 4295SOL    HW213638   3.605   2.939   0.958
 4296SOL     OW13639   3.089   3.412   1.506
 4296SOL    HW113640   3.095   3.335   1.570
 4296SOL    HW213641   3.037   3.386   1.426
 4297SOL     OW13642   2.183   2.805   0.242
 4297SOL    HW113643   2.265   2.844   0.200
 4297SOL    HW213644   2.156   2.723   0.193
 4298SOL     OW13645   3.320   2.597   0.728
 4298SOL    HW113646   3.315   2.532   0.803
 4298SOL    HW213647   3.400   2.656   0.741
 4299SOL     OW13648   2.323   3.128   1.727
 4299SOL    HW113649   2.273   3.129   1.641
 4299SOL    HW213650   2.260   3.110   1.803
 4300SOL     OW13651   2.973   3.638   0.237
 4300SOL    HW113652   2.913   3.576   0.287
 4300SOL    HW213653   3.004   3.594   0.152
 4301SOL     OW13654   3.494   3.239   0.081
 4301SOL    HW113655   3.462   3.333   0.071
 4301SOL    HW213656   3.418   3.176   0.069
 4302SOL     OW13657   2.326   3.605   0.323
 4302SOL    HW113658   2.359   3.644   0.409
 4302SOL    HW213659   2.402   3.598   0.258
 4303SOL     OW13660   3.262   1.969   0.426
 4303SOL    HW113661   3.238   1.932   0.336
 4303SOL    HW213662   3.361   1.985   0.430
 4304SOL     OW13663   2.111   3.647   1.241
 4304SOL    HW113664   2.168   3.582   1.291
 4304SOL    HW213665   2.095   3.614   1.148
 4305SOL     OW13666   2.802   3.560   0.904
 4305SOL    HW113667   2.882   3.503   0.925
 4305SOL    HW213668   2.753   3.520   0.827
 4306SOL     OW13669   3.409   2.084   1.729
 4306SOL    HW113670   3.404   2.121   1.821
 4306SOL    HW213671   3.337   2.015   1.717
 4307SOL     OW13672   2.476   1.984   0.117
 4307SOL    HW113673   2.574   1.962   0.124
 4307SOL    HW213674   2.445   1.967   0.024
 4308SOL     OW13675   2.643   2.126   1.749
 4308SOL    HW113676   2.710   2.065   1.792
 4308SOL    HW213677   2.570   2.145   1.814
 4309SOL     OW13678   2.750   3.376   1.195
 4309SOL    HW113679   2.727   3.351   1.101
 4309SOL    HW213680   2.811   3.307   1.234
 4310SOL     OW13681   3.213   2.452   1.433
 4310SOL    HW113682   3.241   2.409   1.518
 4310SOL    HW213683   3.238   2.548   1.434
 4311SOL     OW13684   2.665   3.264   0.924
 4311SOL    HW113685   2.755   3.278   0.882
 4311SOL    HW213686   2.594   3.266   0.853
 4312SOL     OW13687   2.784   2.365   0.899
 4312SOL    HW113688   2.759   2.356   0.803
 4312SOL    HW213689   2.832   2.283   0.930
 4313SOL     OW13690   2.401   1.926   0.512
 4313SOL    HW113691   2.320   1.927   0.570
 4313SOL    HW213692   2.404   2.009   0.457
 4314SOL     OW13693   3.296   3.050   0.041
 4314SOL    HW113694   3.328   2.974   0.098
 4314SOL    HW213695   3.204   3.077   0.071
 4315SOL     OW13696   2.159   1.897   0.171
 4315SOL    HW113697   2.208   1.981   0.150
 4315SOL    HW213698   2.221   1.832   0.216
 4316SOL     OW13699   2.797   2.098   0.480
 4316SOL    HW113700   2.749   2.139   0.402
 4316SOL    HW213701   2.896   2.096   0.461
 4317SOL     OW13702   2.938   2.545   1.464
 4317SOL    HW113703   2.858   2.484   1.467
 4317SOL    HW213704   3.019   2.492   1.440
 4318SOL     OW13705   3.089   3.432   0.793
 4318SOL    HW113706   3.110   3.506   0.728
 4318SOL    HW213707   3.157   3.432   0.866
 4319SOL     OW13708   2.321   3.014   0.741
 4319SOL    HW113709   2.250   2.987   0.806
 4319SOL    HW213710   2.295   2.986   0.648
 4320SOL     OW13711   3.133   3.659   0.591
 4320SOL    HW113712   3.177   3.723   0.527
 4320SOL    HW213713   3.083   3.711   0.661
 4321SOL     OW13714   2.894   2.411   0.016
 4321SOL    HW113715   2.853   2.493  -0.023
 4321SOL    HW213716   2.958   2.437   0.089
 4322SOL     OW13717   1.940   2.418   1.386
 4322SOL    HW113718   2.032   2.417   1.345
 4322SOL    HW213719   1.934   2.492   1.453
 4323SOL     OW13720   2.423   2.084   1.147
 4323SOL    HW113721   2.461   2.000   1.184
 4323SOL    HW213722   2.335   2.103   1.191
 4324SOL     OW13723   2.728   2.316   0.642
 4324SOL    HW113724   2.696   2.388   0.580
 4324SOL    HW213725   2.752   2.235   0.589
 4325SOL     OW13726   2.879   1.901   0.753
 4325SOL    HW113727   2.807   1.906   0.684
 4325SOL    HW213728   2.855   1.832   0.822
 4326SOL     OW13729   3.291   3.035   0.867
 4326SOL    HW113730   3.236   2.951   0.860
 4326SOL    HW213731   3.317   3.064   0.775
 4327SOL     OW13732   3.328   2.452   0.992
 4327SOL    HW113733   3.298   2.357   0.999
 4327SOL    HW213734   3.401   2.468   1.058
 4328SOL     OW13735   3.719   2.695   0.377
 4328SOL    HW113736   3.761   2.631   0.441
 4328SOL    HW213737   3.681   2.644   0.299
 4329SOL     OW13738   2.350   3.247   0.174
 4329SOL    HW113739   2.263   3.232   0.221
 4329SOL    HW213740   2.333   3.273   0.079
 4330SOL     OW13741   3.526   3.142   0.657
 4330SOL    HW113742   3.625   3.150   0.671
 4330SOL    HW213743   3.481   3.226   0.688
 4331SOL     OW13744   3.252   2.437   0.078
 4331SOL    HW113745   3.198   2.416   0.159
 4331SOL    HW213746   3.343   2.396   0.087
 4332SOL     OW13747   3.616   3.085   1.588
 4332SOL    HW113748   3.707   3.046   1.575
 4332SOL    HW213749   3.624   3.181   1.612
 4333SOL     OW13750   2.926   3.209   1.340
 4333SOL    HW113751   2.846   3.186   1.395
 4333SOL    HW213752   3.009   3.183   1.389
 4334SOL     OW13753   3.454   3.491   1.625
 4334SOL    HW113754   3.481   3.525   1.535
 4334SOL    HW213755   3.533   3.453   1.671
 4335SOL     OW13756   2.973   3.057   1.100
 4335SOL    HW113757   2.933   3.101   1.181
 4335SOL    HW213758   2.932   3.094   1.017
 4336SOL     OW13759   3.500   2.961   1.079
 4336SOL    HW113760   3.505   3.042   1.138
 4336SOL    HW213761   3.414   2.963   1.028
 4337SOL     OW13762   2.777   1.951   1.402
 4337SOL    HW113763   2.802   1.931   1.307
 4337SOL    HW213764   2.849   2.007   1.444
 4338SOL     OW13765   2.842   2.978   1.719
 4338SOL    HW113766   2.743   2.984   1.729
 4338SOL    HW213767   2.865   2.898   1.663
 4339SOL     OW13768   2.567   2.912   0.368
 4339SOL    HW113769   2.553   2.919   0.467
 4339SOL    HW213770   2.651   2.861   0.350
 4340SOL     OW13771   2.272   2.675   1.251
 4340SOL    HW113772   2.358   2.687   1.301
 4340SOL    HW213773   2.230   2.588   1.278
 4341SOL     OW13774   3.136   2.248   1.262
 4341SOL    HW113775   3.157   2.322   1.326
 4341SOL    HW213776   3.047   2.265   1.219
 4342SOL     OW13777   1.926   3.426   1.331
 4342SOL    HW113778   1.880   3.508   1.297
 4342SOL    HW213779   2.024   3.445   1.340
 4343SOL     OW13780   2.229   2.962   0.501
 4343SOL    HW113781   2.222   3.045   0.445
 4343SOL    HW213782   2.233   2.882   0.441
 4344SOL     OW13783   3.114   3.210   0.388
 4344SOL    HW113784   3.164   3.287   0.428
 4344SOL    HW213785   3.019   3.212   0.420
 4345SOL     OW13786   3.134   3.307   1.142
 4345SOL    HW113787   3.181   3.320   1.229
 4345SOL    HW213788   3.068   3.233   1.151
 4346SOL     OW13789   3.444   2.501   0.472
 4346SOL    HW113790   3.413   2.562   0.545
 4346SOL    HW213791   3.494   2.553   0.403
 4347SOL     OW13792   2.216   3.372   1.329
 4347SOL    HW113793   2.195   3.328   1.242
 4347SOL    HW213794   2.313   3.398   1.332
 4348SOL     OW13795   3.449   2.641   1.670
 4348SOL    HW113796   3.357   2.679   1.665
 4348SOL    HW213797   3.509   2.688   1.605
 4349SOL     OW13798   2.875   1.967   1.770
 4349SOL    HW113799   2.881   2.052   1.718
 4349SOL    HW213800   2.907   1.891   1.713
 4350SOL     OW13801   2.366   1.912   1.740
 4350SOL    HW113802   2.324   1.855   1.670
 4350SOL    HW213803   2.300   1.981   1.772
 4351SOL     OW13804   2.435   2.732   1.029
 4351SOL    HW113805   2.479   2.821   1.020
 4351SOL    HW213806   2.372   2.732   1.106
 4352SOL     OW13807   3.222   2.724   1.045
 4352SOL    HW113808   3.147   2.724   0.979
 4352SOL    HW213809   3.259   2.632   1.054
 4353SOL     OW13810   3.071   2.387   0.275
 4353SOL    HW113811   3.084   2.303   0.329
 4353SOL    HW213812   3.042   2.461   0.335
 4354SOL     OW13813   1.899   3.172   1.282
 4354SOL    HW113814   1.952   3.123   1.350
 4354SOL    HW213815   1.921   3.270   1.287
 4355SOL     OW13816   3.590   2.797   1.854
 4355SOL    HW113817   3.544   2.790   1.765
 4355SOL    HW213818   3.528   2.841   1.920
 4356SOL     OW13819   3.484   2.229   0.374
 4356SOL    HW113820   3.486   2.153   0.438
 4356SOL    HW213821   3.436   2.306   0.414
 4357SOL     OW13822   2.885   2.628   0.966
 4357SOL    HW113823   2.900   2.649   1.062
 4357SOL    HW213824   2.855   2.533   0.957
 4358SOL     OW13825   2.842   3.435   1.700
 4358SOL    HW113826   2.822   3.479   1.612
 4358SOL    HW213827   2.881   3.344   1.684
 4359SOL     OW13828   3.721   3.380   1.605
 4359SOL    HW113829   3.735   3.407   1.510
 4359SOL    HW213830   3.804   3.402   1.658
 4360SOL     OW13831   2.212   2.760   1.804
 4360SOL    HW113832   2.288   2.804   1.852
 4360SOL    HW213833   2.247   2.713   1.722
 4361SOL     OW13834   3.402   2.136   0.125
 4361SOL    HW113835   3.341   2.061   0.148
 4361SOL    HW213836   3.424   2.188   0.208
 4362SOL     OW13837   3.165   2.700   0.042
 4362SOL    HW113838   3.199   2.607   0.057
 4362SOL    HW213839   3.183   2.727  -0.053
 4363SOL     OW13840   2.930   3.195   0.849
 4363SOL    HW113841   2.937   3.111   0.794
 4363SOL    HW213842   2.992   3.264   0.813
 4364SOL     OW13843   2.181   2.672   0.949
 4364SOL    HW113844   2.274   2.708   0.954
 4364SOL    HW213845   2.175   2.587   1.001
 4365SOL     OW13846   3.000   2.242   1.678
 4365SOL    HW113847   2.955   2.305   1.742
 4365SOL    HW213848   3.093   2.273   1.661
 4366SOL     OW13849   3.022   2.069   1.477
 4366SOL    HW113850   3.022   2.133   1.554
 4366SOL    HW213851   3.050   2.117   1.394
 4367SOL     OW13852   1.870   3.188   0.200
 4367SOL    HW113853   1.777   3.209   0.169
 4367SOL    HW213854   1.880   3.089   0.213
 4368SOL     OW13855   1.950   3.663   0.927
 4368SOL    HW113856   1.908   3.577   0.900
 4368SOL    HW213857   2.044   3.666   0.893
 4369SOL     OW13858   2.366   3.430   0.910
 4369SOL    HW113859   2.432   3.504   0.919
 4369SOL    HW213860   2.410   3.351   0.868
 4370SOL     OW13861   2.864   2.658   1.238
 4370SOL    HW113862   2.905   2.626   1.324
 4370SOL    HW213863   2.768   2.631   1.235
 4371SOL     OW13864   1.902   2.406   1.114
 4371SOL    HW113865   1.987   2.373   1.073
 4371SOL    HW213866   1.915   2.421   1.212
 4372SOL     OW13867   3.231   2.812   1.660
 4372SOL    HW113868   3.270   2.901   1.680
 4372SOL    HW213869   3.241   2.792   1.563
 4373SOL     OW13870   3.519   2.466   1.206
 4373SOL    HW113871   3.481   2.397   1.268
 4373SOL    HW213872   3.601   2.430   1.162
 4374SOL     OW13873   2.114   3.426   1.744
 4374SOL    HW113874   2.084   3.483   1.820
 4374SOL    HW213875   2.107   3.329   1.770
 4375SOL     OW13876   2.792   3.540   1.465
 4375SOL    HW113877   2.768   3.522   1.370
 4375SOL    HW213878   2.822   3.634   1.475
 4376SOL     OW13879   2.021   2.999   1.466
 4376SOL    HW113880   2.043   2.938   1.542
 4376SOL    HW213881   2.031   2.950   1.380
 4377SOL     OW13882   3.209   2.921   1.234
 4377SOL    HW113883   3.233   2.858   1.160
 4377SOL    HW213884   3.119   2.961   1.216
 4378SOL     OW13885   3.164   2.717   0.309
 4378SOL    HW113886   3.078   2.686   0.351
 4378SOL    HW213887   3.160   2.703   0.210
 4379SOL     OW13888   3.621   3.609   1.154
 4379SOL    HW113889   3.682   3.639   1.081
 4379SOL    HW213890   3.583   3.520   1.132
 4380SOL     OW13891   3.114   3.593   1.128
 4380SOL    HW113892   3.198   3.598   1.074
 4380SOL    HW213893   3.091   3.497   1.146
 4381SOL     OW13894   1.945   3.120   1.022
 4381SOL    HW113895   1.940   3.119   1.122
 4381SOL    HW213896   1.862   3.079   0.984
 4382SOL     OW13897   2.550   3.524   1.716
 4382SOL    HW113898   2.494   3.605   1.725
 4382SOL    HW213899   2.602   3.528   1.630
 4383SOL     OW13900   2.765   1.948   0.133
 4383SOL    HW113901   2.816   1.949   0.047
 4383SOL    HW213902   2.821   1.906   0.204
 4384SOL     OW13903   3.588   1.997   0.523
 4384SOL    HW113904   3.661   1.980   0.456
 4384SOL    HW213905   3.557   1.910   0.561
 4385SOL     OW13906   3.250   3.435   0.477
 4385SOL    HW113907   3.317   3.447   0.403
 4385SOL    HW213908   3.210   3.524   0.500
 4386SOL     OW13909   1.992   3.656   1.851
 4386SOL    HW113910   1.951   3.582   1.904
 4386SOL    HW213911   2.056   3.707   1.909
 4387SOL     OW13912   3.142   2.789   0.672
 4387SOL    HW113913   3.202   2.708   0.674
 4387SOL    HW213914   3.182   2.858   0.612
 4388SOL     OW13915   2.692   3.135   1.422
 4388SOL    HW113916   2.687   3.168   1.517
 4388SOL    HW213917   2.606   3.154   1.376
 4389SOL     OW13918   2.534   3.478   0.154
 4389SOL    HW113919   2.543   3.488   0.055
 4389SOL    HW213920   2.494   3.389   0.175
 4390SOL     OW13921   3.512   3.582   1.394
 4390SOL    HW113922   3.565   3.592   1.310
 4390SOL    HW213923   3.485   3.672   1.428
 4391SOL     OW13924   3.703   2.037   0.963
 4391SOL    HW113925   3.742   1.952   0.927
 4391SOL    HW213926   3.605   2.039   0.944
 4392SOL     OW13927   3.056   3.474   0.031
 4392SOL    HW113928   3.062   3.381   0.068
 4392SOL    HW213929   2.997   3.474  -0.049
 4393SOL     OW13930   2.684   2.864   1.372
 4393SOL    HW113931   2.724   2.863   1.280
 4393SOL    HW213932   2.694   2.956   1.412
 4394SOL     OW13933   2.778   2.772   0.291
 4394SOL    HW113934   2.841   2.810   0.223
 4394SOL    HW213935   2.818   2.689   0.330
 4395SOL     OW13936   3.366   3.469   0.044
 4395SOL    HW113937   3.274   3.506   0.051
 4395SOL    HW213938   3.404   3.489  -0.046
 4396SOL     OW13939   2.234   3.150   1.490
 4396SOL    HW113940   2.221   3.243   1.456
 4396SOL    HW213941   2.150   3.098   1.477
 4397SOL     OW13942   3.476   3.154   1.289
 4397SOL    HW113943   3.536   3.157   1.369
 4397SOL    HW213944   3.401   3.218   1.302
 4398SOL     OW13945   2.901   2.960   0.696
 4398SOL    HW113946   2.831   2.913   0.750
 4398SOL    HW213947   2.960   2.892   0.653
 4399SOL     OW13948   2.876   2.098   0.971
 4399SOL    HW113949   2.868   2.062   0.878
 4399SOL    HW213950   2.874   2.022   1.036
 4400SOL     OW13951   2.452   3.349   0.491
 4400SOL    HW113952   2.494   3.291   0.421
 4400SOL    HW213953   2.408   3.428   0.447
 4401SOL     OW13954   3.571   2.247   1.381
 4401SOL    HW113955   3.644   2.316   1.385
 4401SOL    HW213956   3.599   2.172   1.322
 4402SOL     OW13957   2.117   3.210   0.290
 4402SOL    HW113958   2.021   3.211   0.263
 4402SOL    HW213959   2.129   3.263   0.374
 4403SOL     OW13960   1.967   2.875   1.726
 4403SOL    HW113961   1.890   2.842   1.780
 4403SOL    HW213962   2.052   2.845   1.768
 4404SOL     OW13963   2.534   2.065   1.489
 4404SOL    HW113964   2.624   2.049   1.449
 4404SOL    HW213965   2.542   2.070   1.588
 4405SOL     OW13966   1.937   2.207   0.033
 4405SOL    HW113967   1.845   2.179   0.004
 4405SOL    HW213968   1.968   2.284  -0.023
 4406SOL     OW13969   3.302   2.718   1.398
 4406SOL    HW113970   3.245   2.770   1.335
 4406SOL    HW213971   3.398   2.730   1.374
 4407SOL     OW13972   3.045   3.197   0.119
 4407SOL    HW113973   2.946   3.186   0.121
 4407SOL    HW213974   3.079   3.212   0.212
 4408SOL     OW13975   2.475   2.704   1.431
 4408SOL    HW113976   2.531   2.785   1.414
 4408SOL    HW213977   2.534   2.624   1.434
 4409SOL     OW13978   3.355   3.629   0.959
 4409SOL    HW113979   3.388   3.693   0.890
 4409SOL    HW213980   3.421   3.623   1.034
 4410SOL     OW13981   3.312   3.082   1.633
 4410SOL    HW113982   3.303   3.072   1.732
 4410SOL    HW213983   3.408   3.075   1.607
 4411SOL     OW13984   2.252   3.603   1.560
 4411SOL    HW113985   2.161   3.644   1.558
 4411SOL    HW213986   2.245   3.509   1.592
 4412SOL     OW13987   3.536   2.745   1.254
 4412SOL    HW113988   3.509   2.656   1.217
 4412SOL    HW213989   3.537   2.813   1.181
 4413SOL     OW13990   3.087   2.187   0.449
 4413SOL    HW113991   3.152   2.113   0.438
 4413SOL    HW213992   3.107   2.237   0.533
 4414SOL     OW13993   2.456   2.607   0.652
 4414SOL    HW113994   2.506   2.692   0.633
 4414SOL    HW213995   2.368   2.609   0.604
 4415SOL     OW13996   3.639   2.204   1.642
 4415SOL    HW113997   3.622   2.235   1.548
 4415SOL    HW213998   3.555   2.167   1.680
 4416SOL     OW13999   3.592   2.796   1.517
 4416SOL    HW114000   3.630   2.887   1.532
 4416SOL    HW214001   3.584   2.779   1.418
 4417SOL     OW14002   2.721   3.236   0.016
 4417SOL    HW114003   2.675   3.251   0.104
 4417SOL    HW214004   2.765   3.321  -0.014
 4418SOL     OW14005   2.523   3.652   0.953
 4418SOL    HW114006   2.477   3.740   0.940
 4418SOL    HW214007   2.622   3.664   0.946
 4419SOL     OW14008   2.721   2.818   0.861
 4419SOL    HW114009   2.775   2.749   0.909
 4419SOL    HW214010   2.689   2.887   0.927
 4420SOL     OW14011   2.945   2.846   0.087
 4420SOL    HW114012   2.922   2.899   0.005
 4420SOL    HW214013   3.026   2.790   0.068
 4421SOL     OW14014   3.723   3.431   0.851
 4421SOL    HW114015   3.652   3.419   0.781
 4421SOL    HW214016   3.724   3.352   0.911
 4422SOL     OW14017   2.083   3.176   1.844
 4422SOL    HW114018   2.018   3.103   1.823
 4422SOL    HW214019   2.087   3.190   1.942
 4423SOL     OW14020   1.941   3.102   0.653
 4423SOL    HW114021   1.940   3.055   0.741
 4423SOL    HW214022   2.023   3.074   0.602
 4424SOL     OW14023   2.534   3.253   1.624
 4424SOL    HW114024   2.456   3.203   1.662
 4424SOL    HW214025   2.531   3.348   1.655
 4425SOL     OW14026   3.686   2.054   1.227
 4425SOL    HW114027   3.682   1.964   1.271
 4425SOL    HW214028   3.689   2.043   1.128
 4426SOL     OW14029   3.567   3.349   1.104
 4426SOL    HW114030   3.474   3.324   1.077
 4426SOL    HW214031   3.593   3.299   1.186
 4427SOL     OW14032   2.674   3.448   0.687
 4427SOL    HW114033   2.706   3.458   0.593
 4427SOL    HW214034   2.595   3.386   0.689
 4428SOL     OW14035   3.286   2.076   1.112
 4428SOL    HW114036   3.338   2.011   1.167
 4428SOL    HW214037   3.237   2.139   1.173
 4429SOL     OW14038   2.863   1.896   1.154
 4429SOL    HW114039   2.800   1.824   1.123
 4429SOL    HW214040   2.956   1.860   1.154
 4430SOL     OW14041   2.632   3.192   0.301
 4430SOL    HW114042   2.586   3.105   0.318
 4430SOL    HW214043   2.723   3.189   0.342
 4431SOL     OW14044   2.480   3.429   1.284
 4431SOL    HW114045   2.475   3.511   1.341
 4431SOL    HW214046   2.569   3.426   1.239
 4432SOL     OW14047   3.214   1.914   0.168
 4432SOL    HW114048   3.249   1.873   0.084
 4432SOL    HW214049   3.124   1.876   0.188
 4433SOL     OW14050   3.162   2.315   0.691
 4433SOL    HW114051   3.103   2.395   0.695
 4433SOL    HW214052   3.177   2.280   0.784
 4434SOL     OW14053   3.455   2.083   0.882
 4434SOL    HW114054   3.371   2.082   0.936
 4434SOL    HW214055   3.457   2.166   0.826
 4435SOL     OW14056   1.901   2.939   0.300
 4435SOL    HW114057   2.000   2.928   0.291
 4435SOL    HW214058   1.861   2.853   0.332
 4436SOL     OW14059   2.737   3.508   0.337
 4436SOL    HW114060   2.660   3.473   0.283
 4436SOL    HW214061   2.705   3.579   0.399
 4437SOL     OW14062   2.092   2.490   1.975
 4437SOL    HW114063   1.999   2.488   2.012
 4437SOL    HW214064   2.093   2.451   1.883
 4438SOL     OW14065   2.431   3.137   3.027
 4438SOL    HW114066   2.338   3.130   2.990
 4438SOL    HW214067   2.442   3.226   3.071
 4439SOL     OW14068   3.417   3.373   2.565
 4439SOL    HW114069   3.360   3.357   2.646
 4439SOL    HW214070   3.358   3.383   2.485
 4440SOL     OW14071   2.997   2.565   2.579
 4440SOL    HW114072   3.054   2.643   2.554
 4440SOL    HW214073   2.937   2.591   2.655
 4441SOL     OW14074   3.617   2.469   2.093
 4441SOL    HW114075   3.605   2.456   1.994
 4441SOL    HW214076   3.587   2.388   2.142
 4442SOL     OW14077   2.630   3.006   2.885
 4442SOL    HW114078   2.552   3.023   2.945
 4442SOL    HW214079   2.664   3.093   2.849
 4443SOL     OW14080   2.712   2.660   3.685
 4443SOL    HW114081   2.708   2.736   3.750
 4443SOL    HW214082   2.734   2.696   3.594
 4444SOL     OW14083   2.547   2.874   2.527
 4444SOL    HW114084   2.616   2.858   2.597
 4444SOL    HW214085   2.474   2.931   2.565
 4445SOL     OW14086   2.548   3.023   3.665
 4445SOL    HW114087   2.608   3.102   3.679
 4445SOL    HW214088   2.462   3.054   3.624
 4446SOL     OW14089   2.197   3.297   2.923
 4446SOL    HW114090   2.119   3.266   2.870
 4446SOL    HW214091   2.255   3.355   2.866
 4447SOL     OW14092   3.322   3.367   3.201
 4447SOL    HW114093   3.346   3.461   3.227
 4447SOL    HW214094   3.306   3.313   3.283
 4448SOL     OW14095   3.465   2.309   2.599
 4448SOL    HW114096   3.391   2.355   2.549
 4448SOL    HW214097   3.516   2.377   2.652
 4449SOL     OW14098   2.093   3.575   2.345
 4449SOL    HW114099   2.127   3.652   2.399
 4449SOL    HW214100   2.137   3.575   2.255
 4450SOL     OW14101   2.989   3.203   3.552
 4450SOL    HW114102   3.036   3.203   3.640
 4450SOL    HW214103   2.941   3.116   3.541
 4451SOL     OW14104   2.092   3.296   2.400
 4451SOL    HW114105   2.066   3.392   2.400
 4451SOL    HW214106   2.021   3.242   2.445
 4452SOL     OW14107   2.102   2.953   2.748
 4452SOL    HW114108   2.116   2.869   2.800
 4452SOL    HW214109   2.047   3.017   2.803
 4453SOL     OW14110   2.482   3.648   3.301
 4453SOL    HW114111   2.390   3.631   3.336
 4453SOL    HW214112   2.510   3.740   3.327
 4454SOL     OW14113   2.468   2.826   1.985
 4454SOL    HW114114   2.475   2.910   1.931
 4454SOL    HW214115   2.514   2.839   2.073
 4455SOL     OW14116   3.456   1.976   3.342
 4455SOL    HW114117   3.438   2.043   3.270
 4455SOL    HW214118   3.453   2.022   3.431
 4456SOL     OW14119   1.984   2.505   2.425
 4456SOL    HW114120   1.939   2.417   2.442
 4456SOL    HW214121   1.983   2.559   2.509
 4457SOL     OW14122   3.704   3.629   2.221
 4457SOL    HW114123   3.758   3.600   2.301
 4457SOL    HW214124   3.734   3.719   2.192
 4458SOL     OW14125   1.889   3.458   1.979
 4458SOL    HW114126   1.870   3.362   2.000
 4458SOL    HW214127   1.856   3.516   2.054
 4459SOL     OW14128   3.551   2.784   2.474
 4459SOL    HW114129   3.646   2.755   2.482
 4459SOL    HW214130   3.543   2.849   2.399
 4460SOL     OW14131   3.503   2.970   2.294
 4460SOL    HW114132   3.589   2.972   2.242
 4460SOL    HW214133   3.517   3.017   2.382
 4461SOL     OW14134   1.975   2.599   3.459
 4461SOL    HW114135   2.063   2.586   3.504
 4461SOL    HW214136   1.962   2.696   3.437
 4462SOL     OW14137   2.475   3.227   2.588
 4462SOL    HW114138   2.426   3.140   2.597
 4462SOL    HW214139   2.452   3.270   2.501
 4463SOL     OW14140   3.155   3.090   3.285
 4463SOL    HW114141   3.192   3.017   3.227
 4463SOL    HW214142   3.207   3.095   3.370
 4464SOL     OW14143   2.671   1.866   2.364
 4464SOL    HW114144   2.711   1.957   2.355
 4464SOL    HW214145   2.571   1.874   2.370
 4465SOL     OW14146   2.059   2.838   3.126
 4465SOL    HW114147   2.148   2.793   3.112
 4465SOL    HW214148   1.986   2.773   3.107
 4466SOL     OW14149   3.387   2.861   2.052
 4466SOL    HW114150   3.324   2.785   2.065
 4466SOL    HW214151   3.435   2.879   2.138
 4467SOL     OW14152   3.049   3.654   3.478
 4467SOL    HW114153   3.073   3.714   3.402
 4467SOL    HW214154   3.056   3.559   3.448
 4468SOL     OW14155   3.328   3.279   2.815
 4468SOL    HW114156   3.269   3.285   2.895
 4468SOL    HW214157   3.313   3.191   2.769
 4469SOL     OW14158   3.529   3.576   2.434
 4469SOL    HW114159   3.488   3.553   2.346
 4469SOL    HW214160   3.511   3.502   2.499
 4470SOL     OW14161   2.460   2.591   2.132
 4470SOL    HW114162   2.484   2.660   2.064
 4470SOL    HW214163   2.382   2.624   2.186
 4471SOL     OW14164   3.143   2.207   2.806
 4471SOL    HW114165   3.057   2.157   2.793
 4471SOL    HW214166   3.205   2.153   2.862
 4472SOL     OW14167   3.438   3.524   2.169
 4472SOL    HW114168   3.527   3.570   2.172
 4472SOL    HW214169   3.417   3.500   2.074
 4473SOL     OW14170   3.256   2.331   3.536
 4473SOL    HW114171   3.236   2.374   3.624
 4473SOL    HW214172   3.334   2.269   3.545
 4474SOL     OW14173   2.835   2.752   3.434
 4474SOL    HW114174   2.881   2.668   3.405
 4474SOL    HW214175   2.779   2.786   3.359
 4475SOL     OW14176   2.853   2.272   3.104
 4475SOL    HW114177   2.776   2.306   3.158
 4475SOL    HW214178   2.819   2.221   3.025
 4476SOL     OW14179   2.903   2.563   2.291
 4476SOL    HW114180   2.929   2.559   2.387
 4476SOL    HW214181   2.818   2.512   2.277
 4477SOL     OW14182   1.938   2.673   2.651
 4477SOL    HW114183   2.037   2.661   2.660
 4477SOL    HW214184   1.914   2.768   2.672
 4478SOL     OW14185   1.992   3.683   3.433
 4478SOL    HW114186   1.982   3.668   3.532
 4478SOL    HW214187   1.906   3.719   3.397
 4479SOL     OW14188   2.727   2.210   2.057
 4479SOL    HW114189   2.786   2.273   2.008
 4479SOL    HW214190   2.746   2.116   2.028
 4480SOL     OW14191   3.581   2.447   3.693
 4480SOL    HW114192   3.555   2.536   3.657
 4480SOL    HW214193   3.579   2.379   3.620
 4481SOL     OW14194   3.224   3.006   2.407
 4481SOL    HW114195   3.307   2.977   2.359
 4481SOL    HW214196   3.175   3.073   2.351
 4482SOL     OW14197   2.870   3.318   2.339
 4482SOL    HW114198   2.824   3.390   2.287
 4482SOL    HW214199   2.866   3.338   2.437
 4483SOL     OW14200   2.213   3.663   2.715
 4483SOL    HW114201   2.263   3.577   2.721
 4483SOL    HW214202   2.278   3.740   2.712
 4484SOL     OW14203   3.657   2.928   2.735
 4484SOL    HW114204   3.595   2.913   2.659
 4484SOL    HW214205   3.605   2.939   2.820
 4485SOL     OW14206   3.089   3.412   3.368
 4485SOL    HW114207   3.095   3.335   3.432
 4485SOL    HW214208   3.037   3.386   3.288
 4486SOL     OW14209   2.183   2.805   2.104
 4486SOL    HW114210   2.265   2.844   2.062
 4486SOL    HW214211   2.156   2.723   2.055
 4487SOL     OW14212   3.320   2.597   2.590
 4487SOL    HW114213   3.315   2.532   2.665
 4487SOL    HW214214   3.400   2.656   2.603
 4488SOL     OW14215   2.323   3.128   3.589
 4488SOL    HW114216   2.273   3.129   3.503
 4488SOL    HW214217   2.260   3.110   3.665
 4489SOL     OW14218   2.973   3.638   2.099
 4489SOL    HW114219   2.913   3.576   2.149
 4489SOL    HW214220   3.004   3.594   2.014
 4490SOL     OW14221   3.494   3.239   1.943
 4490SOL    HW114222   3.462   3.333   1.933
 4490SOL    HW214223   3.418   3.176   1.931
 4491SOL     OW14224   2.326   3.605   2.185
 4491SOL    HW114225   2.359   3.644   2.271
 4491SOL    HW214226   2.402   3.598   2.120
 4492SOL     OW14227   3.262   1.969   2.288
 4492SOL    HW114228   3.238   1.932   2.198
 4492SOL    HW214229   3.361   1.985   2.292
 4493SOL     OW14230   2.111   3.647   3.103
 4493SOL    HW114231   2.168   3.582   3.153
 4493SOL    HW214232   2.095   3.614   3.010
 4494SOL     OW14233   2.802   3.560   2.766
 4494SOL    HW114234   2.882   3.503   2.787
 4494SOL    HW214235   2.753   3.520   2.689
 4495SOL     OW14236   3.409   2.084   3.591
 4495SOL    HW114237   3.404   2.121   3.683
 4495SOL    HW214238   3.337   2.015   3.579
 4496SOL     OW14239   2.476   1.984   1.979
 4496SOL    HW114240   2.574   1.962   1.986
 4496SOL    HW214241   2.445   1.967   1.886
 4497SOL     OW14242   2.643   2.126   3.611
 4497SOL    HW114243   2.710   2.065   3.654
 4497SOL    HW214244   2.570   2.145   3.676
 4498SOL     OW14245   2.750   3.376   3.057
 4498SOL    HW114246   2.727   3.351   2.963
 4498SOL    HW214247   2.811   3.307   3.096
 4499SOL     OW14248   3.213   2.452   3.295
 4499SOL    HW114249   3.241   2.409   3.380
 4499SOL    HW214250   3.238   2.548   3.296
 4500SOL     OW14251   2.665   3.264   2.786
 4500SOL    HW114252   2.755   3.278   2.744
 4500SOL    HW214253   2.594   3.266   2.715
 4501SOL     OW14254   2.784   2.365   2.761
 4501SOL    HW114255   2.759   2.356   2.665
 4501SOL    HW214256   2.832   2.283   2.792
 4502SOL     OW14257   2.401   1.926   2.374
 4502SOL    HW114258   2.320   1.927   2.432
 4502SOL    HW214259   2.404   2.009   2.319
 4503SOL     OW14260   3.296   3.050   1.903
 4503SOL    HW114261   3.328   2.974   1.960
 4503SOL    HW214262   3.204   3.077   1.933
 4504SOL     OW14263   2.797   2.098   2.342
 4504SOL    HW114264   2.749   2.139   2.264
 4504SOL    HW214265   2.896   2.096   2.323
 4505SOL     OW14266   2.938   2.545   3.326
 4505SOL    HW114267   2.858   2.484   3.329
 4505SOL    HW214268   3.019   2.492   3.302
 4506SOL     OW14269   3.089   3.432   2.655
 4506SOL    HW114270   3.110   3.506   2.590
 4506SOL    HW214271   3.157   3.432   2.728
 4507SOL     OW14272   2.321   3.014   2.603
 4507SOL    HW114273   2.250   2.987   2.668
 4507SOL    HW214274   2.295   2.986   2.510
 4508SOL     OW14275   3.133   3.659   2.453
 4508SOL    HW114276   3.177   3.723   2.389
 4508SOL    HW214277   3.083   3.711   2.523
 4509SOL     OW14278   2.894   2.411   1.878
 4509SOL    HW114279   2.853   2.493   1.839
 4509SOL    HW214280   2.958   2.437   1.951
 4510SOL     OW14281   1.940   2.418   3.248
 4510SOL    HW114282   2.032   2.417   3.207
 4510SOL    HW214283   1.934   2.492   3.315
 4511SOL     OW14284   2.728   2.316   2.504
 4511SOL    HW114285   2.696   2.388   2.442
 4511SOL    HW214286   2.752   2.235   2.451
 4512SOL     OW14287   2.879   1.901   2.615
 4512SOL    HW114288   2.807   1.906   2.546
 4512SOL    HW214289   2.855   1.832   2.684
 4513SOL     OW14290   3.291   3.035   2.729
 4513SOL    HW114291   3.236   2.951   2.722
 4513SOL    HW214292   3.317   3.064   2.637
 4514SOL     OW14293   3.328   2.452   2.854
 4514SOL    HW114294   3.298   2.357   2.861
 4514SOL    HW214295   3.401   2.468   2.920
 4515SOL     OW14296   3.719   2.695   2.239
 4515SOL    HW114297   3.761   2.631   2.303
 4515SOL    HW214298   3.681   2.644   2.161
 4516SOL     OW14299   2.350   3.247   2.036
 4516SOL    HW114300   2.263   3.232   2.083
 4516SOL    HW214301   2.333   3.273   1.941
 4517SOL     OW14302   3.526   3.142   2.519
 4517SOL    HW114303   3.625   3.150   2.533
 4517SOL    HW214304   3.481   3.226   2.550
 4518SOL     OW14305   3.252   2.437   1.940
 4518SOL    HW114306   3.198   2.416   2.021
 4518SOL    HW214307   3.343   2.396   1.949
 4519SOL     OW14308   3.616   3.085   3.450
 4519SOL    HW114309   3.707   3.046   3.437
 4519SOL    HW214310   3.624   3.181   3.474
 4520SOL     OW14311   2.926   3.209   3.202
 4520SOL    HW114312   2.846   3.186   3.257
 4520SOL    HW214313   3.009   3.183   3.251
 4521SOL     OW14314   3.454   3.491   3.487
 4521SOL    HW114315   3.481   3.525   3.397
 4521SOL    HW214316   3.533   3.453   3.533
 4522SOL     OW14317   2.973   3.057   2.962
 4522SOL    HW114318   2.933   3.101   3.043
 4522SOL    HW214319   2.932   3.094   2.879
 4523SOL     OW14320   3.500   2.961   2.941
 4523SOL    HW114321   3.505   3.042   3.000
 4523SOL    HW214322   3.414   2.963   2.890
 4524SOL     OW14323   2.777   1.951   3.264
 4524SOL    HW114324   2.802   1.931   3.169
 4524SOL    HW214325   2.849   2.007   3.306
 4525SOL     OW14326   2.842   2.978   3.581
 4525SOL    HW114327   2.743   2.984   3.591
 4525SOL    HW214328   2.865   2.898   3.525
 4526SOL     OW14329   2.567   2.912   2.230
 4526SOL    HW114330   2.553   2.919   2.329
 4526SOL    HW214331   2.651   2.861   2.212
 4527SOL     OW14332   2.272   2.675   3.113
 4527SOL    HW114333   2.358   2.687   3.163
 4527SOL    HW214334   2.230   2.588   3.140
 4528SOL     OW14335   3.136   2.248   3.124
 4528SOL    HW114336   3.157   2.322   3.188
 4528SOL    HW214337   3.047   2.265   3.081
 4529SOL     OW14338   1.926   3.426   3.193
 4529SOL    HW114339   1.880   3.508   3.159
 4529SOL    HW214340   2.024   3.445   3.202
 4530SOL     OW14341   2.229   2.962   2.363
 4530SOL    HW114342   2.222   3.045   2.307
 4530SOL    HW214343   2.233   2.882   2.303
 4531SOL     OW14344   3.114   3.210   2.250
 4531SOL    HW114345   3.164   3.287   2.290
 4531SOL    HW214346   3.019   3.212   2.282
 4532SOL     OW14347   3.134   3.307   3.004
 4532SOL    HW114348   3.181   3.320   3.091
 4532SOL    HW214349   3.068   3.233   3.013
 4533SOL     OW14350   3.444   2.501   2.334
 4533SOL    HW114351   3.413   2.562   2.407
 4533SOL    HW214352   3.494   2.553   2.265
 4534SOL     OW14353   2.216   3.372   3.191
 4534SOL    HW114354   2.195   3.328   3.104
 4534SOL    HW214355   2.313   3.398   3.194
 4535SOL     OW14356   2.264   2.613   3.460
 4535SOL    HW114357   2.332   2.668   3.413
 4535SOL    HW214358   2.304   2.525   3.487
 4536SOL     OW14359   3.449   2.641   3.532
 4536SOL    HW114360   3.357   2.679   3.527
 4536SOL    HW214361   3.509   2.688   3.467
 4537SOL     OW14362   2.875   1.967   3.632
 4537SOL    HW114363   2.881   2.052   3.580
 4537SOL    HW214364   2.907   1.891   3.575
 4538SOL     OW14365   2.366   1.912   3.602
 4538SOL    HW114366   2.324   1.855   3.532
 4538SOL    HW214367   2.300   1.981   3.634
 4539SOL     OW14368   2.435   2.732   2.891
 4539SOL    HW114369   2.479   2.821   2.882
 4539SOL    HW214370   2.372   2.732   2.968
 4540SOL     OW14371   3.222   2.724   2.907
 4540SOL    HW114372   3.147   2.724   2.841
 4540SOL    HW214373   3.259   2.632   2.916
 4541SOL     OW14374   3.071   2.387   2.137
 4541SOL    HW114375   3.084   2.303   2.191
 4541SOL    HW214376   3.042   2.461   2.197
 4542SOL     OW14377   1.899   3.172   3.144
 4542SOL    HW114378   1.952   3.123   3.212
 4542SOL    HW214379   1.921   3.270   3.149
 4543SOL     OW14380   2.594   2.496   2.926
 4543SOL    HW114381   2.653   2.470   2.850
 4543SOL    HW214382   2.566   2.592   2.915
 4544SOL     OW14383   3.590   2.797   3.716
 4544SOL    HW114384   3.544   2.790   3.627
 4544SOL    HW214385   3.528   2.841   3.782
 4545SOL     OW14386   3.484   2.229   2.236
 4545SOL    HW114387   3.486   2.153   2.300
 4545SOL    HW214388   3.436   2.306   2.276
 4546SOL     OW14389   2.885   2.628   2.828
 4546SOL    HW114390   2.900   2.649   2.924
 4546SOL    HW214391   2.855   2.533   2.819
 4547SOL     OW14392   2.842   3.435   3.562
 4547SOL    HW114393   2.822   3.479   3.474
 4547SOL    HW214394   2.881   3.344   3.546
 4548SOL     OW14395   3.721   3.380   3.467
 4548SOL    HW114396   3.735   3.407   3.372
 4548SOL    HW214397   3.804   3.402   3.520
 4549SOL     OW14398   2.212   2.760   3.666
 4549SOL    HW114399   2.288   2.804   3.714
 4549SOL    HW214400   2.247   2.713   3.584
 4550SOL     OW14401   3.402   2.136   1.987
 4550SOL    HW114402   3.341   2.061   2.010
 4550SOL    HW214403   3.424   2.188   2.070
 4551SOL     OW14404   3.165   2.700   1.904
 4551SOL    HW114405   3.199   2.607   1.919
 4551SOL    HW214406   3.183   2.727   1.809
 4552SOL     OW14407   2.930   3.195   2.711
 4552SOL    HW114408   2.937   3.111   2.656
 4552SOL    HW214409   2.992   3.264   2.675
 4553SOL     OW14410   2.181   2.672   2.811
 4553SOL    HW114411   2.274   2.708   2.816
 4553SOL    HW214412   2.175   2.587   2.863
 4554SOL     OW14413   3.000   2.242   3.540
 4554SOL    HW114414   2.955   2.305   3.604
 4554SOL    HW214415   3.093   2.273   3.523
 4555SOL     OW14416   3.022   2.069   3.339
 4555SOL    HW114417   3.022   2.133   3.416
 4555SOL    HW214418   3.050   2.117   3.256
 4556SOL     OW14419   1.870   3.188   2.062
 4556SOL    HW114420   1.777   3.209   2.031
 4556SOL    HW214421   1.880   3.089   2.075
 4557SOL     OW14422   1.950   3.663   2.789
 4557SOL    HW114423   1.908   3.577   2.762
 4557SOL    HW214424   2.044   3.666   2.755
 4558SOL     OW14425   2.366   3.430   2.772
 4558SOL    HW114426   2.432   3.504   2.781
 4558SOL    HW214427   2.410   3.351   2.730
 4559SOL     OW14428   2.864   2.658   3.100
 4559SOL    HW114429   2.905   2.626   3.186
 4559SOL    HW214430   2.768   2.631   3.097
 4560SOL     OW14431   1.902   2.406   2.976
 4560SOL    HW114432   1.987   2.373   2.935
 4560SOL    HW214433   1.915   2.421   3.074
 4561SOL     OW14434   3.231   2.812   3.522
 4561SOL    HW114435   3.270   2.901   3.542
 4561SOL    HW214436   3.241   2.792   3.425
 4562SOL     OW14437   2.677   2.434   2.187
 4562SOL    HW114438   2.684   2.345   2.141
 4562SOL    HW214439   2.583   2.468   2.179
 4563SOL     OW14440   3.519   2.466   3.068
 4563SOL    HW114441   3.481   2.397   3.130
 4563SOL    HW214442   3.601   2.430   3.024
 4564SOL     OW14443   2.114   3.426   3.606
 4564SOL    HW114444   2.084   3.483   3.682
 4564SOL    HW214445   2.107   3.329   3.632
 4565SOL     OW14446   2.792   3.540   3.327
 4565SOL    HW114447   2.768   3.522   3.232
 4565SOL    HW214448   2.822   3.634   3.337
 4566SOL     OW14449   2.021   2.999   3.328
 4566SOL    HW114450   2.043   2.938   3.404
 4566SOL    HW214451   2.031   2.950   3.242
 4567SOL     OW14452   3.209   2.921   3.096
 4567SOL    HW114453   3.233   2.858   3.022
 4567SOL    HW214454   3.119   2.961   3.078
 4568SOL     OW14455   3.164   2.717   2.171
 4568SOL    HW114456   3.078   2.686   2.213
 4568SOL    HW214457   3.160   2.703   2.072
 4569SOL     OW14458   3.621   3.609   3.016
 4569SOL    HW114459   3.682   3.639   2.943
 4569SOL    HW214460   3.583   3.520   2.994
 4570SOL     OW14461   3.114   3.593   2.990
 4570SOL    HW114462   3.198   3.598   2.936
 4570SOL    HW214463   3.091   3.497   3.008
 4571SOL     OW14464   1.945   3.120   2.884
 4571SOL    HW114465   1.940   3.119   2.984
 4571SOL    HW214466   1.862   3.079   2.846
 4572SOL     OW14467   2.550   3.524   3.578
 4572SOL    HW114468   2.494   3.605   3.587
 4572SOL    HW214469   2.602   3.528   3.492
 4573SOL     OW14470   3.588   1.997   2.385
 4573SOL    HW114471   3.661   1.980   2.318
 4573SOL    HW214472   3.557   1.910   2.423
 4574SOL     OW14473   3.250   3.435   2.339
 4574SOL    HW114474   3.317   3.447   2.265
 4574SOL    HW214475   3.210   3.524   2.362
 4575SOL     OW14476   1.992   3.656   3.713
 4575SOL    HW114477   1.951   3.582   3.766
 4575SOL    HW214478   2.056   3.707   3.771
 4576SOL     OW14479   3.142   2.789   2.534
 4576SOL    HW114480   3.202   2.708   2.536
 4576SOL    HW214481   3.182   2.858   2.474
 4577SOL     OW14482   2.692   3.135   3.284
 4577SOL    HW114483   2.687   3.168   3.379
 4577SOL    HW214484   2.606   3.154   3.238
 4578SOL     OW14485   2.534   3.478   2.016
 4578SOL    HW114486   2.543   3.488   1.917
 4578SOL    HW214487   2.494   3.389   2.037
 4579SOL     OW14488   3.512   3.582   3.256
 4579SOL    HW114489   3.565   3.592   3.172
 4579SOL    HW214490   3.485   3.672   3.290
 4580SOL     OW14491   3.703   2.037   2.825
 4580SOL    HW114492   3.742   1.952   2.789
 4580SOL    HW214493   3.605   2.039   2.806
 4581SOL     OW14494   3.056   3.474   1.893
 4581SOL    HW114495   3.062   3.381   1.930
 4581SOL    HW214496   2.997   3.474   1.813
 4582SOL     OW14497   2.684   2.864   3.234
 4582SOL    HW114498   2.724   2.863   3.142
 4582SOL    HW214499   2.694   2.956   3.274
 4583SOL     OW14500   2.778   2.772   2.153
 4583SOL    HW114501   2.841   2.810   2.085
 4583SOL    HW214502   2.818   2.689   2.192
 4584SOL     OW14503   3.366   3.469   1.906
 4584SOL    HW114504   3.274   3.506   1.913
 4584SOL    HW214505   3.404   3.489   1.816
 4585SOL     OW14506   2.234   3.150   3.352
 4585SOL    HW114507   2.221   3.243   3.318
 4585SOL    HW214508   2.150   3.098   3.339
 4586SOL     OW14509   3.476   3.154   3.151
 4586SOL    HW114510   3.536   3.157   3.231
 4586SOL    HW214511   3.401   3.218   3.164
 4587SOL     OW14512   2.901   2.960   2.558
 4587SOL    HW114513   2.831   2.913   2.612
 4587SOL    HW214514   2.960   2.892   2.515
 4588SOL     OW14515   2.876   2.098   2.833
 4588SOL    HW114516   2.868   2.062   2.740
 4588SOL    HW214517   2.874   2.022   2.898
 4589SOL     OW14518   2.452   3.349   2.353
 4589SOL    HW114519   2.494   3.291   2.283
 4589SOL    HW214520   2.408   3.428   2.309
 4590SOL     OW14521   3.571   2.247   3.243
 4590SOL    HW114522   3.644   2.316   3.247
 4590SOL    HW214523   3.599   2.172   3.184
 4591SOL     OW14524   2.117   3.210   2.152
 4591SOL    HW114525   2.021   3.211   2.125
 4591SOL    HW214526   2.129   3.263   2.236
 4592SOL     OW14527   1.967   2.875   3.588
 4592SOL    HW114528   1.890   2.842   3.642
 4592SOL    HW214529   2.052   2.845   3.630
 4593SOL     OW14530   2.534   2.065   3.351
 4593SOL    HW114531   2.624   2.049   3.311
 4593SOL    HW214532   2.542   2.070   3.450
 4594SOL     OW14533   3.302   2.718   3.260
 4594SOL    HW114534   3.245   2.770   3.197
 4594SOL    HW214535   3.398   2.730   3.236
 4595SOL     OW14536   1.934   2.028   2.180
 4595SOL    HW114537   1.917   2.111   2.126
 4595SOL    HW214538   2.024   1.991   2.158
 4596SOL     OW14539   3.045   3.197   1.981
 4596SOL    HW114540   2.946   3.186   1.983
 4596SOL    HW214541   3.079   3.212   2.074
 4597SOL     OW14542   2.475   2.704   3.293
 4597SOL    HW114543   2.531   2.785   3.276
 4597SOL    HW214544   2.534   2.624   3.296
 4598SOL     OW14545   3.355   3.629   2.821
 4598SOL    HW114546   3.388   3.693   2.752
 4598SOL    HW214547   3.421   3.623   2.896
 4599SOL     OW14548   3.312   3.082   3.495
 4599SOL    HW114549   3.303   3.072   3.594
 4599SOL    HW214550   3.408   3.075   3.469
 4600SOL     OW14551   2.252   3.603   3.422
 4600SOL    HW114552   2.161   3.644   3.420
 4600SOL    HW214553   2.245   3.509   3.454
 4601SOL     OW14554   3.536   2.745   3.116
 4601SOL    HW114555   3.509   2.656   3.079
 4601SOL    HW214556   3.537   2.813   3.043
 4602SOL     OW14557   3.087   2.187   2.311
 4602SOL    HW114558   3.152   2.113   2.300
 4602SOL    HW214559   3.107   2.237   2.395
 4603SOL     OW14560   2.456   2.607   2.514
 4603SOL    HW114561   2.506   2.692   2.495
 4603SOL    HW214562   2.368   2.609   2.466
 4604SOL     OW14563   3.639   2.204   3.504
 4604SOL    HW114564   3.622   2.235   3.410
 4604SOL    HW214565   3.555   2.167   3.542
 4605SOL     OW14566   3.592   2.796   3.379
 4605SOL    HW114567   3.630   2.887   3.394
 4605SOL    HW214568   3.584   2.779   3.280
 4606SOL     OW14569   2.721   3.236   1.878
 4606SOL    HW114570   2.675   3.251   1.966
 4606SOL    HW214571   2.765   3.321   1.848
 4607SOL     OW14572   2.523   3.652   2.815
 4607SOL    HW114573   2.477   3.740   2.802
 4607SOL    HW214574   2.622   3.664   2.808
 4608SOL     OW14575   2.721   2.818   2.723
 4608SOL    HW114576   2.775   2.749   2.771
 4608SOL    HW214577   2.689   2.887   2.789
 4609SOL     OW14578   2.945   2.846   1.949
 4609SOL    HW114579   2.922   2.899   1.867
 4609SOL    HW214580   3.026   2.790   1.930
 4610SOL     OW14581   3.723   3.431   2.713
 4610SOL    HW114582   3.652   3.419   2.643
 4610SOL    HW214583   3.724   3.352   2.773
 4611SOL     OW14584   2.083   3.176   3.706
 4611SOL    HW114585   2.018   3.103   3.685
 4611SOL    HW214586   2.087   3.190   3.804
 4612SOL     OW14587   1.941   3.102   2.515
 4612SOL    HW114588   1.940   3.055   2.603
 4612SOL    HW214589   2.023   3.074   2.464
 4613SOL     OW14590   2.534   3.253   3.486
 4613SOL    HW114591   2.456   3.203   3.524
 4613SOL    HW214592   2.531   3.348   3.517
 4614SOL     OW14593   3.686   2.054   3.089
 4614SOL    HW114594   3.682   1.964   3.133
 4614SOL    HW214595   3.689   2.043   2.990
 4615SOL     OW14596   3.567   3.349   2.966
 4615SOL    HW114597   3.474   3.324   2.939
 4615SOL    HW214598   3.593   3.299   3.048
 4616SOL     OW14599   2.674   3.448   2.549
 4616SOL    HW114600   2.706   3.458   2.455
 4616SOL    HW214601   2.595   3.386   2.551
 4617SOL     OW14602   3.286   2.076   2.974
 4617SOL    HW114603   3.338   2.011   3.029
 4617SOL    HW214604   3.237   2.139   3.035
 4618SOL     OW14605   2.863   1.896   3.016
 4618SOL    HW114606   2.800   1.824   2.985
 4618SOL    HW214607   2.956   1.860   3.016
 4619SOL     OW14608   2.632   3.192   2.163
 4619SOL    HW114609   2.586   3.105   2.180
 4619SOL    HW214610   2.723   3.189   2.204
 4620SOL     OW14611   2.480   3.429   3.146
 4620SOL    HW114612   2.475   3.511   3.203
 4620SOL    HW214613   2.569   3.426   3.101
 4621SOL     OW14614   3.214   1.914   2.030
 4621SOL    HW114615   3.249   1.873   1.946
 4621SOL    HW214616   3.124   1.876   2.050
 4622SOL     OW14617   3.162   2.315   2.553
 4622SOL    HW114618   3.103   2.395   2.557
 4622SOL    HW214619   3.177   2.280   2.646
 4623SOL     OW14620   3.455   2.083   2.744
 4623SOL    HW114621   3.371   2.082   2.798
 4623SOL    HW214622   3.457   2.166   2.688
 4624SOL     OW14623   1.901   2.939   2.162
 4624SOL    HW114624   2.000   2.928   2.153
 4624SOL    HW214625   1.861   2.853   2.194
 4625SOL     OW14626   2.737   3.508   2.199
 4625SOL    HW114627   2.660   3.473   2.145
 4625SOL    HW214628   2.705   3.579   2.261
 4626SOL     OW14629   2.092   2.490   3.837
 4626SOL    HW114630   1.999   2.488   3.874
 4626SOL    HW214631   2.093   2.451   3.745
 4627SOL     OW14632   1.881   2.230   4.371
 4627SOL    HW114633   1.799   2.273   4.410
 4627SOL    HW214634   1.853   2.157   4.308
 4628SOL     OW14635   2.431   3.137   4.889
 4628SOL    HW114636   2.338   3.130   4.852
 4628SOL    HW214637   2.442   3.226   4.933
 4629SOL     OW14638   3.417   3.373   4.427
 4629SOL    HW114639   3.360   3.357   4.508
 4629SOL    HW214640   3.358   3.383   4.347
 4630SOL     OW14641   2.997   2.565   4.441
 4630SOL    HW114642   3.054   2.643   4.416
 4630SOL    HW214643   2.937   2.591   4.517
 4631SOL     OW14644   3.617   2.469   3.955
 4631SOL    HW114645   3.605   2.456   3.856
 4631SOL    HW214646   3.587   2.388   4.004
 4632SOL     OW14647   2.712   2.660   5.547
 4632SOL    HW114648   2.708   2.736   5.612
 4632SOL    HW214649   2.734   2.696   5.456
 4633SOL     OW14650   2.547   2.874   4.389
 4633SOL    HW114651   2.616   2.858   4.459
 4633SOL    HW214652   2.474   2.931   4.427
 4634SOL     OW14653   2.548   3.023   5.527
 4634SOL    HW114654   2.608   3.102   5.541
 4634SOL    HW214655   2.462   3.054   5.486
 4635SOL     OW14656   2.197   3.297   4.785
 4635SOL    HW114657   2.119   3.266   4.732
 4635SOL    HW214658   2.255   3.355   4.728
 4636SOL     OW14659   3.322   3.367   5.063
 4636SOL    HW114660   3.346   3.461   5.089
 4636SOL    HW214661   3.306   3.313   5.145
 4637SOL     OW14662   3.465   2.309   4.461
 4637SOL    HW114663   3.391   2.355   4.411
 4637SOL    HW214664   3.516   2.377   4.514
 4638SOL     OW14665   2.093   3.575   4.207
 4638SOL    HW114666   2.127   3.652   4.261
 4638SOL    HW214667   2.137   3.575   4.117
 4639SOL     OW14668   2.989   3.203   5.414
 4639SOL    HW114669   3.036   3.203   5.502
 4639SOL    HW214670   2.941   3.116   5.403
 4640SOL     OW14671   2.092   3.296   4.262
 4640SOL    HW114672   2.066   3.392   4.262
 4640SOL    HW214673   2.021   3.242   4.307
 4641SOL     OW14674   2.482   3.648   5.163
 4641SOL    HW114675   2.390   3.631   5.198
 4641SOL    HW214676   2.510   3.740   5.189
 4642SOL     OW14677   2.468   2.826   3.847
 4642SOL    HW114678   2.475   2.910   3.793
 4642SOL    HW214679   2.514   2.839   3.935
 4643SOL     OW14680   3.456   1.976   5.204
 4643SOL    HW114681   3.438   2.043   5.132
 4643SOL    HW214682   3.453   2.022   5.293
 4644SOL     OW14683   1.984   2.505   4.287
 4644SOL    HW114684   1.939   2.417   4.304
 4644SOL    HW214685   1.983   2.559   4.371
 4645SOL     OW14686   3.704   3.629   4.083
 4645SOL    HW114687   3.758   3.600   4.163
 4645SOL    HW214688   3.734   3.719   4.054
 4646SOL     OW14689   1.889   3.458   3.841
 4646SOL    HW114690   1.870   3.362   3.862
 4646SOL    HW214691   1.856   3.516   3.916
 4647SOL     OW14692   3.551   2.784   4.336
 4647SOL    HW114693   3.646   2.755   4.344
 4647SOL    HW214694   3.543   2.849   4.261
 4648SOL     OW14695   3.503   2.970   4.156
 4648SOL    HW114696   3.589   2.972   4.104
 4648SOL    HW214697   3.517   3.017   4.244
 4649SOL     OW14698   2.475   3.227   4.450
 4649SOL    HW114699   2.426   3.140   4.459
 4649SOL    HW214700   2.452   3.270   4.363
 4650SOL     OW14701   3.155   3.090   5.147
 4650SOL    HW114702   3.192   3.017   5.089
 4650SOL    HW214703   3.207   3.095   5.232
 4651SOL     OW14704   2.671   1.866   4.226
 4651SOL    HW114705   2.711   1.957   4.217
 4651SOL    HW214706   2.571   1.874   4.232
 4652SOL     OW14707   3.387   2.861   3.914
 4652SOL    HW114708   3.324   2.785   3.927
 4652SOL    HW214709   3.435   2.879   4.000
 4653SOL     OW14710   3.049   3.654   5.340
 4653SOL    HW114711   3.073   3.714   5.264
 4653SOL    HW214712   3.056   3.559   5.310
 4654SOL     OW14713   3.328   3.279   4.677
 4654SOL    HW114714   3.269   3.285   4.757
 4654SOL    HW214715   3.313   3.191   4.631
 4655SOL     OW14716   3.529   3.576   4.296
 4655SOL    HW114717   3.488   3.553   4.208
 4655SOL    HW214718   3.511   3.502   4.361
 4656SOL     OW14719   2.460   2.591   3.994
 4656SOL    HW114720   2.484   2.660   3.926
 4656SOL    HW214721   2.382   2.624   4.048
 4657SOL     OW14722   3.143   2.207   4.668
 4657SOL    HW114723   3.057   2.157   4.655
 4657SOL    HW214724   3.205   2.153   4.724
 4658SOL     OW14725   3.438   3.524   4.031
 4658SOL    HW114726   3.527   3.570   4.034
 4658SOL    HW214727   3.417   3.500   3.936
 4659SOL     OW14728   3.256   2.331   5.398
 4659SOL    HW114729   3.236   2.374   5.486
 4659SOL    HW214730   3.334   2.269   5.407
 4660SOL     OW14731   2.903   2.563   4.153
 4660SOL    HW114732   2.929   2.559   4.249
 4660SOL    HW214733   2.818   2.512   4.139
 4661SOL     OW14734   1.938   2.673   4.513
 4661SOL    HW114735   2.037   2.661   4.522
 4661SOL    HW214736   1.914   2.768   4.534
 4662SOL     OW14737   1.992   3.683   5.295
 4662SOL    HW114738   1.982   3.668   5.394
 4662SOL    HW214739   1.906   3.719   5.259
 4663SOL     OW14740   2.727   2.210   3.919
 4663SOL    HW114741   2.786   2.273   3.870
 4663SOL    HW214742   2.746   2.116   3.890
 4664SOL     OW14743   3.581   2.447   5.555
 4664SOL    HW114744   3.555   2.536   5.519
 4664SOL    HW214745   3.579   2.379   5.482
 4665SOL     OW14746   3.224   3.006   4.269
 4665SOL    HW114747   3.307   2.977   4.221
 4665SOL    HW214748   3.175   3.073   4.213
 4666SOL     OW14749   2.412   2.058   4.609
 4666SOL    HW114750   2.407   2.053   4.709
 4666SOL    HW214751   2.414   2.154   4.580
 4667SOL     OW14752   2.870   3.318   4.201
 4667SOL    HW114753   2.824   3.390   4.149
 4667SOL    HW214754   2.866   3.338   4.299
 4668SOL     OW14755   2.213   3.663   4.577
 4668SOL    HW114756   2.263   3.577   4.583
 4668SOL    HW214757   2.278   3.740   4.574
 4669SOL     OW14758   3.657   2.928   4.597
 4669SOL    HW114759   3.595   2.913   4.521
 4669SOL    HW214760   3.605   2.939   4.682
 4670SOL     OW14761   3.089   3.412   5.230
 4670SOL    HW114762   3.095   3.335   5.294
 4670SOL    HW214763   3.037   3.386   5.150
 4671SOL     OW14764   2.183   2.805   3.966
 4671SOL    HW114765   2.265   2.844   3.924
 4671SOL    HW214766   2.156   2.723   3.917
 4672SOL     OW14767   3.320   2.597   4.452
 4672SOL    HW114768   3.315   2.532   4.527
 4672SOL    HW214769   3.400   2.656   4.465
 4673SOL     OW14770   2.323   3.128   5.451
 4673SOL    HW114771   2.273   3.129   5.365
 4673SOL    HW214772   2.260   3.110   5.527
 4674SOL     OW14773   2.973   3.638   3.961
 4674SOL    HW114774   2.913   3.576   4.011
 4674SOL    HW214775   3.004   3.594   3.876
 4675SOL     OW14776   3.494   3.239   3.805
 4675SOL    HW114777   3.462   3.333   3.795
 4675SOL    HW214778   3.418   3.176   3.793
 4676SOL     OW14779   2.326   3.605   4.047
 4676SOL    HW114780   2.359   3.644   4.133
 4676SOL    HW214781   2.402   3.598   3.982
 4677SOL     OW14782   3.262   1.969   4.150
 4677SOL    HW114783   3.238   1.932   4.060
 4677SOL    HW214784   3.361   1.985   4.154
 4678SOL     OW14785   2.111   3.647   4.965
 4678SOL    HW114786   2.168   3.582   5.015
 4678SOL    HW214787   2.095   3.614   4.872
 4679SOL     OW14788   2.802   3.560   4.628
 4679SOL    HW114789   2.882   3.503   4.649
 4679SOL    HW214790   2.753   3.520   4.551
 4680SOL     OW14791   2.244   2.562   4.204
 4680SOL    HW114792   2.289   2.472   4.201
 4680SOL    HW214793   2.150   2.551   4.237
 4681SOL     OW14794   3.409   2.084   5.453
 4681SOL    HW114795   3.404   2.121   5.545
 4681SOL    HW214796   3.337   2.015   5.441
 4682SOL     OW14797   2.476   1.984   3.841
 4682SOL    HW114798   2.574   1.962   3.848
 4682SOL    HW214799   2.445   1.967   3.748
 4683SOL     OW14800   2.643   2.126   5.473
 4683SOL    HW114801   2.710   2.065   5.516
 4683SOL    HW214802   2.570   2.145   5.538
 4684SOL     OW14803   2.750   3.376   4.919
 4684SOL    HW114804   2.727   3.351   4.825
 4684SOL    HW214805   2.811   3.307   4.958
 4685SOL     OW14806   3.213   2.452   5.157
 4685SOL    HW114807   3.241   2.409   5.242
 4685SOL    HW214808   3.238   2.548   5.158
 4686SOL     OW14809   2.665   3.264   4.648
 4686SOL    HW114810   2.755   3.278   4.606
 4686SOL    HW214811   2.594   3.266   4.577
 4687SOL     OW14812   2.401   1.926   4.236
 4687SOL    HW114813   2.320   1.927   4.294
 4687SOL    HW214814   2.404   2.009   4.181
 4688SOL     OW14815   3.296   3.050   3.765
 4688SOL    HW114816   3.328   2.974   3.822
 4688SOL    HW214817   3.204   3.077   3.795
 4689SOL     OW14818   2.797   2.098   4.204
 4689SOL    HW114819   2.749   2.139   4.126
 4689SOL    HW214820   2.896   2.096   4.185
 4690SOL     OW14821   3.089   3.432   4.517
 4690SOL    HW114822   3.110   3.506   4.452
 4690SOL    HW214823   3.157   3.432   4.590
 4691SOL     OW14824   2.321   3.014   4.465
 4691SOL    HW114825   2.250   2.987   4.530
 4691SOL    HW214826   2.295   2.986   4.372
 4692SOL     OW14827   3.133   3.659   4.315
 4692SOL    HW114828   3.177   3.723   4.251
 4692SOL    HW214829   3.083   3.711   4.385
 4693SOL     OW14830   2.894   2.411   3.740
 4693SOL    HW114831   2.853   2.493   3.701
 4693SOL    HW214832   2.958   2.437   3.813
 4694SOL     OW14833   2.423   2.084   4.871
 4694SOL    HW114834   2.461   2.000   4.908
 4694SOL    HW214835   2.335   2.103   4.915
 4695SOL     OW14836   2.728   2.316   4.366
 4695SOL    HW114837   2.696   2.388   4.304
 4695SOL    HW214838   2.752   2.235   4.313
 4696SOL     OW14839   2.879   1.901   4.477
 4696SOL    HW114840   2.807   1.906   4.408
 4696SOL    HW214841   2.855   1.832   4.546
 4697SOL     OW14842   3.291   3.035   4.591
 4697SOL    HW114843   3.236   2.951   4.584
 4697SOL    HW214844   3.317   3.064   4.499
 4698SOL     OW14845   3.328   2.452   4.716
 4698SOL    HW114846   3.298   2.357   4.723
 4698SOL    HW214847   3.401   2.468   4.782
 4699SOL     OW14848   3.719   2.695   4.101
 4699SOL    HW114849   3.761   2.631   4.165
 4699SOL    HW214850   3.681   2.644   4.023
 4700SOL     OW14851   2.350   3.247   3.898
 4700SOL    HW114852   2.263   3.232   3.945
 4700SOL    HW214853   2.333   3.273   3.803
 4701SOL     OW14854   3.526   3.142   4.381
 4701SOL    HW114855   3.625   3.150   4.395
 4701SOL    HW214856   3.481   3.226   4.412
 4702SOL     OW14857   3.252   2.437   3.802
 4702SOL    HW114858   3.198   2.416   3.883
 4702SOL    HW214859   3.343   2.396   3.811
 4703SOL     OW14860   3.616   3.085   5.312
 4703SOL    HW114861   3.707   3.046   5.299
 4703SOL    HW214862   3.624   3.181   5.336
 4704SOL     OW14863   2.926   3.209   5.064
 4704SOL    HW114864   2.846   3.186   5.119
 4704SOL    HW214865   3.009   3.183   5.113
 4705SOL     OW14866   3.454   3.491   5.349
 4705SOL    HW114867   3.481   3.525   5.259
 4705SOL    HW214868   3.533   3.453   5.395
 4706SOL     OW14869   2.973   3.057   4.824
 4706SOL    HW114870   2.933   3.101   4.905
 4706SOL    HW214871   2.932   3.094   4.741
 4707SOL     OW14872   3.500   2.961   4.803
 4707SOL    HW114873   3.505   3.042   4.862
 4707SOL    HW214874   3.414   2.963   4.752
 4708SOL     OW14875   2.842   2.978   5.443
 4708SOL    HW114876   2.743   2.984   5.453
 4708SOL    HW214877   2.865   2.898   5.387
 4709SOL     OW14878   2.567   2.912   4.092
 4709SOL    HW114879   2.553   2.919   4.191
 4709SOL    HW214880   2.651   2.861   4.074
 4710SOL     OW14881   1.926   3.426   5.055
 4710SOL    HW114882   1.880   3.508   5.021
 4710SOL    HW214883   2.024   3.445   5.064
 4711SOL     OW14884   2.229   2.962   4.225
 4711SOL    HW114885   2.222   3.045   4.169
 4711SOL    HW214886   2.233   2.882   4.165
 4712SOL     OW14887   3.114   3.210   4.112
 4712SOL    HW114888   3.164   3.287   4.152
 4712SOL    HW214889   3.019   3.212   4.144
 4713SOL     OW14890   3.134   3.307   4.866
 4713SOL    HW114891   3.181   3.320   4.953
 4713SOL    HW214892   3.068   3.233   4.875
 4714SOL     OW14893   3.444   2.501   4.196
 4714SOL    HW114894   3.413   2.562   4.269
 4714SOL    HW214895   3.494   2.553   4.127
 4715SOL     OW14896   2.216   3.372   5.053
 4715SOL    HW114897   2.195   3.328   4.966
 4715SOL    HW214898   2.313   3.398   5.056
 4716SOL     OW14899   3.449   2.641   5.394
 4716SOL    HW114900   3.357   2.679   5.389
 4716SOL    HW214901   3.509   2.688   5.329
 4717SOL     OW14902   2.875   1.967   5.494
 4717SOL    HW114903   2.881   2.052   5.442
 4717SOL    HW214904   2.907   1.891   5.437
 4718SOL     OW14905   3.222   2.724   4.769
 4718SOL    HW114906   3.147   2.724   4.703
 4718SOL    HW214907   3.259   2.632   4.778
 4719SOL     OW14908   3.071   2.387   3.999
 4719SOL    HW114909   3.084   2.303   4.053
 4719SOL    HW214910   3.042   2.461   4.059
 4720SOL     OW14911   1.899   3.172   5.006
 4720SOL    HW114912   1.952   3.123   5.074
 4720SOL    HW214913   1.921   3.270   5.011
 4721SOL     OW14914   3.590   2.797   5.578
 4721SOL    HW114915   3.544   2.790   5.489
 4721SOL    HW214916   3.528   2.841   5.644
 4722SOL     OW14917   3.484   2.229   4.098
 4722SOL    HW114918   3.486   2.153   4.162
 4722SOL    HW214919   3.436   2.306   4.138
 4723SOL     OW14920   2.842   3.435   5.424
 4723SOL    HW114921   2.822   3.479   5.336
 4723SOL    HW214922   2.881   3.344   5.408
 4724SOL     OW14923   3.721   3.380   5.329
 4724SOL    HW114924   3.735   3.407   5.234
 4724SOL    HW214925   3.804   3.402   5.382
 4725SOL     OW14926   2.212   2.760   5.528
 4725SOL    HW114927   2.288   2.804   5.576
 4725SOL    HW214928   2.247   2.713   5.446
 4726SOL     OW14929   3.402   2.136   3.849
 4726SOL    HW114930   3.341   2.061   3.872
 4726SOL    HW214931   3.424   2.188   3.932
 4727SOL     OW14932   3.165   2.700   3.766
 4727SOL    HW114933   3.199   2.607   3.781
 4727SOL    HW214934   3.183   2.727   3.671
 4728SOL     OW14935   2.930   3.195   4.573
 4728SOL    HW114936   2.937   3.111   4.518
 4728SOL    HW214937   2.992   3.264   4.537
 4729SOL     OW14938   2.181   2.672   4.673
 4729SOL    HW114939   2.274   2.708   4.678
 4729SOL    HW214940   2.175   2.587   4.725
 4730SOL     OW14941   3.000   2.242   5.402
 4730SOL    HW114942   2.955   2.305   5.466
 4730SOL    HW214943   3.093   2.273   5.385
 4731SOL     OW14944   1.870   3.188   3.924
 4731SOL    HW114945   1.777   3.209   3.893
 4731SOL    HW214946   1.880   3.089   3.937
 4732SOL     OW14947   1.950   3.663   4.651
 4732SOL    HW114948   1.908   3.577   4.624
 4732SOL    HW214949   2.044   3.666   4.617
 4733SOL     OW14950   2.366   3.430   4.634
 4733SOL    HW114951   2.432   3.504   4.643
 4733SOL    HW214952   2.410   3.351   4.592
 4734SOL     OW14953   1.902   2.406   4.838
 4734SOL    HW114954   1.987   2.373   4.797
 4734SOL    HW214955   1.915   2.421   4.936
 4735SOL     OW14956   3.231   2.812   5.384
 4735SOL    HW114957   3.270   2.901   5.404
 4735SOL    HW214958   3.241   2.792   5.287
 4736SOL     OW14959   2.677   2.434   4.049
 4736SOL    HW114960   2.684   2.345   4.003
 4736SOL    HW214961   2.583   2.468   4.041
 4737SOL     OW14962   3.519   2.466   4.930
 4737SOL    HW114963   3.481   2.397   4.992
 4737SOL    HW214964   3.601   2.430   4.886
 4738SOL     OW14965   2.114   3.426   5.468
 4738SOL    HW114966   2.084   3.483   5.544
 4738SOL    HW214967   2.107   3.329   5.494
 4739SOL     OW14968   2.792   3.540   5.189
 4739SOL    HW114969   2.768   3.522   5.094
 4739SOL    HW214970   2.822   3.634   5.199
 4740SOL     OW14971   3.209   2.921   4.958
 4740SOL    HW114972   3.233   2.858   4.884
 4740SOL    HW214973   3.119   2.961   4.940
 4741SOL     OW14974   3.164   2.717   4.033
 4741SOL    HW114975   3.078   2.686   4.075
 4741SOL    HW214976   3.160   2.703   3.934
 4742SOL     OW14977   3.621   3.609   4.878
 4742SOL    HW114978   3.682   3.639   4.805
 4742SOL    HW214979   3.583   3.520   4.856
 4743SOL     OW14980   3.114   3.593   4.852
 4743SOL    HW114981   3.198   3.598   4.798
 4743SOL    HW214982   3.091   3.497   4.870
 4744SOL     OW14983   1.945   3.120   4.746
 4744SOL    HW114984   1.940   3.119   4.846
 4744SOL    HW214985   1.862   3.079   4.708
 4745SOL     OW14986   2.550   3.524   5.440
 4745SOL    HW114987   2.494   3.605   5.449
 4745SOL    HW214988   2.602   3.528   5.354
 4746SOL     OW14989   3.588   1.997   4.247
 4746SOL    HW114990   3.661   1.980   4.180
 4746SOL    HW214991   3.557   1.910   4.285
 4747SOL     OW14992   3.250   3.435   4.201
 4747SOL    HW114993   3.317   3.447   4.127
 4747SOL    HW214994   3.210   3.524   4.224
 4748SOL     OW14995   1.992   3.656   5.575
 4748SOL    HW114996   1.951   3.582   5.628
 4748SOL    HW214997   2.056   3.707   5.633
 4749SOL     OW14998   3.142   2.789   4.396
 4749SOL    HW114999   3.202   2.708   4.398
 4749SOL    HW215000   3.182   2.858   4.336
 4750SOL     OW15001   2.692   3.135   5.146
 4750SOL    HW115002   2.687   3.168   5.241
 4750SOL    HW215003   2.606   3.154   5.100
 4751SOL     OW15004   2.534   3.478   3.878
 4751SOL    HW115005   2.543   3.488   3.779
 4751SOL    HW215006   2.494   3.389   3.899
 4752SOL     OW15007   3.512   3.582   5.118
 4752SOL    HW115008   3.565   3.592   5.034
 4752SOL    HW215009   3.485   3.672   5.152
 4753SOL     OW15010   3.703   2.037   4.687
 4753SOL    HW115011   3.742   1.952   4.651
 4753SOL    HW215012   3.605   2.039   4.668
 4754SOL     OW15013   3.056   3.474   3.755
 4754SOL    HW115014   3.062   3.381   3.792
 4754SOL    HW215015   2.997   3.474   3.675
 4755SOL     OW15016   2.778   2.772   4.015
 4755SOL    HW115017   2.841   2.810   3.947
 4755SOL    HW215018   2.818   2.689   4.054
 4756SOL     OW15019   3.366   3.469   3.768
 4756SOL    HW115020   3.274   3.506   3.775
 4756SOL    HW215021   3.404   3.489   3.678
 4757SOL     OW15022   2.234   3.150   5.214
 4757SOL    HW115023   2.221   3.243   5.180
 4757SOL    HW215024   2.150   3.098   5.201
 4758SOL     OW15025   3.476   3.154   5.013
 4758SOL    HW115026   3.536   3.157   5.093
 4758SOL    HW215027   3.401   3.218   5.026
 4759SOL     OW15028   2.901   2.960   4.420
 4759SOL    HW115029   2.831   2.913   4.474
 4759SOL    HW215030   2.960   2.892   4.377
 4760SOL     OW15031   2.452   3.349   4.215
 4760SOL    HW115032   2.494   3.291   4.145
 4760SOL    HW215033   2.408   3.428   4.171
 4761SOL     OW15034   3.571   2.247   5.105
 4761SOL    HW115035   3.644   2.316   5.109
 4761SOL    HW215036   3.599   2.172   5.046
 4762SOL     OW15037   2.117   3.210   4.014
 4762SOL    HW115038   2.021   3.211   3.987
 4762SOL    HW215039   2.129   3.263   4.098
 4763SOL     OW15040   1.967   2.875   5.450
 4763SOL    HW115041   1.890   2.842   5.504
 4763SOL    HW215042   2.052   2.845   5.492
 4764SOL     OW15043   1.937   2.207   3.757
 4764SOL    HW115044   1.845   2.179   3.728
 4764SOL    HW215045   1.968   2.284   3.701
 4765SOL     OW15046   3.302   2.718   5.122
 4765SOL    HW115047   3.245   2.770   5.059
 4765SOL    HW215048   3.398   2.730   5.098
 4766SOL     OW15049   3.045   3.197   3.843
 4766SOL    HW115050   2.946   3.186   3.845
 4766SOL    HW215051   3.079   3.212   3.936
 4767SOL     OW15052   3.355   3.629   4.683
 4767SOL    HW115053   3.388   3.693   4.614
 4767SOL    HW215054   3.421   3.623   4.758
 4768SOL     OW15055   3.312   3.082   5.357
 4768SOL    HW115056   3.303   3.072   5.456
 4768SOL    HW215057   3.408   3.075   5.331
 4769SOL     OW15058   2.252   3.603   5.284
 4769SOL    HW115059   2.161   3.644   5.282
 4769SOL    HW215060   2.245   3.509   5.316
 4770SOL     OW15061   3.536   2.745   4.978
 4770SOL    HW115062   3.509   2.656   4.941
 4770SOL    HW215063   3.537   2.813   4.905
 4771SOL     OW15064   3.087   2.187   4.173
 4771SOL    HW115065   3.152   2.113   4.162
 4771SOL    HW215066   3.107   2.237   4.257
 4772SOL     OW15067   2.456   2.607   4.376
 4772SOL    HW115068   2.506   2.692   4.357
 4772SOL    HW215069   2.368   2.609   4.328
 4773SOL     OW15070   3.639   2.204   5.366
 4773SOL    HW115071   3.622   2.235   5.272
 4773SOL    HW215072   3.555   2.167   5.404
 4774SOL     OW15073   3.592   2.796   5.241
 4774SOL    HW115074   3.630   2.887   5.256
 4774SOL    HW215075   3.584   2.779   5.142
 4775SOL     OW15076   2.721   3.236   3.740
 4775SOL    HW115077   2.675   3.251   3.828
 4775SOL    HW215078   2.765   3.321   3.710
 4776SOL     OW15079   2.523   3.652   4.677
 4776SOL    HW115080   2.477   3.740   4.664
 4776SOL    HW215081   2.622   3.664   4.670
 4777SOL     OW15082   2.945   2.846   3.811
 4777SOL    HW115083   2.922   2.899   3.729
 4777SOL    HW215084   3.026   2.790   3.792
 4778SOL     OW15085   3.723   3.431   4.575
 4778SOL    HW115086   3.652   3.419   4.505
 4778SOL    HW215087   3.724   3.352   4.635
 4779SOL     OW15088   2.083   3.176   5.568
 4779SOL    HW115089   2.018   3.103   5.547
 4779SOL    HW215090   2.087   3.190   5.666
 4780SOL     OW15091   1.941   3.102   4.377
 4780SOL    HW115092   1.940   3.055   4.465
 4780SOL    HW215093   2.023   3.074   4.326
 4781SOL     OW15094   2.534   3.253   5.348
 4781SOL    HW115095   2.456   3.203   5.386
 4781SOL    HW215096   2.531   3.348   5.379
 4782SOL     OW15097   3.686   2.054   4.951
 4782SOL    HW115098   3.682   1.964   4.995
 4782SOL    HW215099   3.689   2.043   4.852
 4783SOL     OW15100   3.567   3.349   4.828
 4783SOL    HW115101   3.474   3.324   4.801
 4783SOL    HW215102   3.593   3.299   4.910
 4784SOL     OW15103   2.674   3.448   4.411
 4784SOL    HW115104   2.706   3.458   4.317
 4784SOL    HW215105   2.595   3.386   4.413
 4785SOL     OW15106   3.286   2.076   4.836
 4785SOL    HW115107   3.338   2.011   4.891
 4785SOL    HW215108   3.237   2.139   4.897
 4786SOL     OW15109   2.632   3.192   4.025
 4786SOL    HW115110   2.586   3.105   4.042
 4786SOL    HW215111   2.723   3.189   4.066
 4787SOL     OW15112   2.480   3.429   5.008
 4787SOL    HW115113   2.475   3.511   5.065
 4787SOL    HW215114   2.569   3.426   4.963
 4788SOL     OW15115   3.214   1.914   3.892
 4788SOL    HW115116   3.249   1.873   3.808
 4788SOL    HW215117   3.124   1.876   3.912
 4789SOL     OW15118   3.162   2.315   4.415
 4789SOL    HW115119   3.103   2.395   4.419
 4789SOL    HW215120   3.177   2.280   4.508
 4790SOL     OW15121   3.455   2.083   4.606
 4790SOL    HW115122   3.371   2.082   4.660
 4790SOL    HW215123   3.457   2.166   4.550
 4791SOL     OW15124   1.901   2.939   4.024
 4791SOL    HW115125   2.000   2.928   4.015
 4791SOL    HW215126   1.861   2.853   4.056
 4792SOL     OW15127   2.737   3.508   4.061
 4792SOL    HW115128   2.660   3.473   4.007
 4792SOL    HW215129   2.705   3.579   4.123
 4793SOL     OW15130   2.092   2.490   5.699
 4793SOL    HW115131   1.999   2.488   5.736
 4793SOL    HW215132   2.093   2.451   5.607
 4794SOL     OW15133   2.431   3.137   6.751
 4794SOL    HW115134   2.338   3.130   6.714
 4794SOL    HW215135   2.442   3.226   6.795
 4795SOL     OW15136   3.417   3.373   6.289
 4795SOL    HW115137   3.360   3.357   6.370
 4795SOL    HW215138   3.358   3.383   6.209
 4796SOL     OW15139   3.617   2.469   5.817
 4796SOL    HW115140   3.605   2.456   5.718
 4796SOL    HW215141   3.587   2.388   5.866
 4797SOL     OW15142   2.630   3.006   6.609
 4797SOL    HW115143   2.552   3.023   6.669
 4797SOL    HW215144   2.664   3.093   6.573
 4798SOL     OW15145   2.712   2.660   7.409
 4798SOL    HW115146   2.708   2.736   7.474
 4798SOL    HW215147   2.734   2.696   7.318
 4799SOL     OW15148   2.548   3.023   7.389
 4799SOL    HW115149   2.608   3.102   7.403
 4799SOL    HW215150   2.462   3.054   7.348
 4800SOL     OW15151   2.197   3.297   6.647
 4800SOL    HW115152   2.119   3.266   6.594
 4800SOL    HW215153   2.255   3.355   6.590
 4801SOL     OW15154   3.322   3.367   6.925
 4801SOL    HW115155   3.346   3.461   6.951
 4801SOL    HW215156   3.306   3.313   7.007
 4802SOL     OW15157   3.465   2.309   6.323
 4802SOL    HW115158   3.391   2.355   6.273
 4802SOL    HW215159   3.516   2.377   6.376
 4803SOL     OW15160   2.093   3.575   6.069
 4803SOL    HW115161   2.127   3.652   6.123
 4803SOL    HW215162   2.137   3.575   5.979
 4804SOL     OW15163   2.989   3.203   7.276
 4804SOL    HW115164   3.036   3.203   7.364
 4804SOL    HW215165   2.941   3.116   7.265
 4805SOL     OW15166   2.092   3.296   6.124
 4805SOL    HW115167   2.066   3.392   6.124
 4805SOL    HW215168   2.021   3.242   6.169
 4806SOL     OW15169   2.102   2.953   6.472
 4806SOL    HW115170   2.116   2.869   6.524
 4806SOL    HW215171   2.047   3.017   6.527
 4807SOL     OW15172   2.482   3.648   7.025
 4807SOL    HW115173   2.390   3.631   7.060
 4807SOL    HW215174   2.510   3.740   7.051
 4808SOL     OW15175   3.456   1.976   7.066
 4808SOL    HW115176   3.438   2.043   6.994
 4808SOL    HW215177   3.453   2.022   7.155
 4809SOL     OW15178   1.984   2.505   6.149
 4809SOL    HW115179   1.939   2.417   6.166
 4809SOL    HW215180   1.983   2.559   6.233
 4810SOL     OW15181   3.704   3.629   5.945
 4810SOL    HW115182   3.758   3.600   6.025
 4810SOL    HW215183   3.734   3.719   5.916
 4811SOL     OW15184   1.889   3.458   5.703
 4811SOL    HW115185   1.870   3.362   5.724
 4811SOL    HW215186   1.856   3.516   5.778
 4812SOL     OW15187   3.551   2.784   6.198
 4812SOL    HW115188   3.646   2.755   6.206
 4812SOL    HW215189   3.543   2.849   6.123
 4813SOL     OW15190   3.503   2.970   6.018
 4813SOL    HW115191   3.589   2.972   5.966
 4813SOL    HW215192   3.517   3.017   6.106
 4814SOL     OW15193   1.975   2.599   7.183
 4814SOL    HW115194   2.063   2.586   7.228
 4814SOL    HW215195   1.962   2.696   7.161
 4815SOL     OW15196   2.475   3.227   6.312
 4815SOL    HW115197   2.426   3.140   6.321
 4815SOL    HW215198   2.452   3.270   6.225
 4816SOL     OW15199   3.155   3.090   7.009
 4816SOL    HW115200   3.192   3.017   6.951
 4816SOL    HW215201   3.207   3.095   7.094
 4817SOL     OW15202   2.059   2.838   6.850
 4817SOL    HW115203   2.148   2.793   6.836
 4817SOL    HW215204   1.986   2.773   6.831
 4818SOL     OW15205   3.387   2.861   5.776
 4818SOL    HW115206   3.324   2.785   5.789
 4818SOL    HW215207   3.435   2.879   5.862
 4819SOL     OW15208   3.049   3.654   7.202
 4819SOL    HW115209   3.073   3.714   7.126
 4819SOL    HW215210   3.056   3.559   7.172
 4820SOL     OW15211   3.328   3.279   6.539
 4820SOL    HW115212   3.269   3.285   6.619
 4820SOL    HW215213   3.313   3.191   6.493
 4821SOL     OW15214   3.529   3.576   6.158
 4821SOL    HW115215   3.488   3.553   6.070
 4821SOL    HW215216   3.511   3.502   6.223
 4822SOL     OW15217   2.460   2.591   5.856
 4822SOL    HW115218   2.484   2.660   5.788
 4822SOL    HW215219   2.382   2.624   5.910
 4823SOL     OW15220   3.143   2.207   6.530
 4823SOL    HW115221   3.057   2.157   6.517
 4823SOL    HW215222   3.205   2.153   6.586
 4824SOL     OW15223   3.438   3.524   5.893
 4824SOL    HW115224   3.527   3.570   5.896
 4824SOL    HW215225   3.417   3.500   5.798
 4825SOL     OW15226   3.256   2.331   7.260
 4825SOL    HW115227   3.236   2.374   7.348
 4825SOL    HW215228   3.334   2.269   7.269
 4826SOL     OW15229   2.835   2.752   7.158
 4826SOL    HW115230   2.881   2.668   7.129
 4826SOL    HW215231   2.779   2.786   7.083
 4827SOL     OW15232   2.853   2.272   6.828
 4827SOL    HW115233   2.776   2.306   6.882
 4827SOL    HW215234   2.819   2.221   6.749
 4828SOL     OW15235   1.992   3.683   7.157
 4828SOL    HW115236   1.982   3.668   7.256
 4828SOL    HW215237   1.906   3.719   7.121
 4829SOL     OW15238   2.727   2.210   5.781
 4829SOL    HW115239   2.786   2.273   5.732
 4829SOL    HW215240   2.746   2.116   5.752
 4830SOL     OW15241   3.581   2.447   7.417
 4830SOL    HW115242   3.555   2.536   7.381
 4830SOL    HW215243   3.579   2.379   7.344
 4831SOL     OW15244   3.224   3.006   6.131
 4831SOL    HW115245   3.307   2.977   6.083
 4831SOL    HW215246   3.175   3.073   6.075
 4832SOL     OW15247   2.870   3.318   6.063
 4832SOL    HW115248   2.824   3.390   6.011
 4832SOL    HW215249   2.866   3.338   6.161
 4833SOL     OW15250   2.213   3.663   6.439
 4833SOL    HW115251   2.263   3.577   6.445
 4833SOL    HW215252   2.278   3.740   6.436
 4834SOL     OW15253   3.657   2.928   6.459
 4834SOL    HW115254   3.595   2.913   6.383
 4834SOL    HW215255   3.605   2.939   6.544
 4835SOL     OW15256   3.089   3.412   7.092
 4835SOL    HW115257   3.095   3.335   7.156
 4835SOL    HW215258   3.037   3.386   7.012
 4836SOL     OW15259   2.183   2.805   5.828
 4836SOL    HW115260   2.265   2.844   5.786
 4836SOL    HW215261   2.156   2.723   5.779
 4837SOL     OW15262   3.320   2.597   6.314
 4837SOL    HW115263   3.315   2.532   6.389
 4837SOL    HW215264   3.400   2.656   6.327
 4838SOL     OW15265   2.323   3.128   7.313
 4838SOL    HW115266   2.273   3.129   7.227
 4838SOL    HW215267   2.260   3.110   7.389
 4839SOL     OW15268   2.973   3.638   5.823
 4839SOL    HW115269   2.913   3.576   5.873
 4839SOL    HW215270   3.004   3.594   5.738
 4840SOL     OW15271   3.494   3.239   5.667
 4840SOL    HW115272   3.462   3.333   5.657
 4840SOL    HW215273   3.418   3.176   5.655
 4841SOL     OW15274   2.326   3.605   5.909
 4841SOL    HW115275   2.359   3.644   5.995
 4841SOL    HW215276   2.402   3.598   5.844
 4842SOL     OW15277   3.262   1.969   6.012
 4842SOL    HW115278   3.238   1.932   5.922
 4842SOL    HW215279   3.361   1.985   6.016
 4843SOL     OW15280   2.111   3.647   6.827
 4843SOL    HW115281   2.168   3.582   6.877
 4843SOL    HW215282   2.095   3.614   6.734
 4844SOL     OW15283   2.802   3.560   6.490
 4844SOL    HW115284   2.882   3.503   6.511
 4844SOL    HW215285   2.753   3.520   6.413
 4845SOL     OW15286   3.409   2.084   7.315
 4845SOL    HW115287   3.404   2.121   7.407
 4845SOL    HW215288   3.337   2.015   7.303
 4846SOL     OW15289   2.476   1.984   5.703
 4846SOL    HW115290   2.574   1.962   5.710
 4846SOL    HW215291   2.445   1.967   5.610
 4847SOL     OW15292   2.643   2.126   7.335
 4847SOL    HW115293   2.710   2.065   7.378
 4847SOL    HW215294   2.570   2.145   7.400
 4848SOL     OW15295   2.750   3.376   6.781
 4848SOL    HW115296   2.727   3.351   6.687
 4848SOL    HW215297   2.811   3.307   6.820
 4849SOL     OW15298   3.213   2.452   7.019
 4849SOL    HW115299   3.241   2.409   7.104
 4849SOL    HW215300   3.238   2.548   7.020
 4850SOL     OW15301   2.665   3.264   6.510
 4850SOL    HW115302   2.755   3.278   6.468
 4850SOL    HW215303   2.594   3.266   6.439
 4851SOL     OW15304   3.296   3.050   5.627
 4851SOL    HW115305   3.328   2.974   5.684
 4851SOL    HW215306   3.204   3.077   5.657
 4852SOL     OW15307   2.938   2.545   7.050
 4852SOL    HW115308   2.858   2.484   7.053
 4852SOL    HW215309   3.019   2.492   7.026
 4853SOL     OW15310   3.089   3.432   6.379
 4853SOL    HW115311   3.110   3.506   6.314
 4853SOL    HW215312   3.157   3.432   6.452
 4854SOL     OW15313   3.133   3.659   6.177
 4854SOL    HW115314   3.177   3.723   6.113
 4854SOL    HW215315   3.083   3.711   6.247
 4855SOL     OW15316   1.940   2.418   6.972
 4855SOL    HW115317   2.032   2.417   6.931
 4855SOL    HW215318   1.934   2.492   7.039
 4856SOL     OW15319   3.291   3.035   6.453
 4856SOL    HW115320   3.236   2.951   6.446
 4856SOL    HW215321   3.317   3.064   6.361
 4857SOL     OW15322   3.328   2.452   6.578
 4857SOL    HW115323   3.298   2.357   6.585
 4857SOL    HW215324   3.401   2.468   6.644
 4858SOL     OW15325   3.719   2.695   5.963
 4858SOL    HW115326   3.761   2.631   6.027
 4858SOL    HW215327   3.681   2.644   5.885
 4859SOL     OW15328   2.350   3.247   5.760
 4859SOL    HW115329   2.263   3.232   5.807
 4859SOL    HW215330   2.333   3.273   5.665
 4860SOL     OW15331   3.526   3.142   6.243
 4860SOL    HW115332   3.625   3.150   6.257
 4860SOL    HW215333   3.481   3.226   6.274
 4861SOL     OW15334   3.252   2.437   5.664
 4861SOL    HW115335   3.198   2.416   5.745
 4861SOL    HW215336   3.343   2.396   5.673
 4862SOL     OW15337   3.616   3.085   7.174
 4862SOL    HW115338   3.707   3.046   7.161
 4862SOL    HW215339   3.624   3.181   7.198
 4863SOL     OW15340   2.926   3.209   6.926
 4863SOL    HW115341   2.846   3.186   6.981
 4863SOL    HW215342   3.009   3.183   6.975
 4864SOL     OW15343   3.454   3.491   7.211
 4864SOL    HW115344   3.481   3.525   7.121
 4864SOL    HW215345   3.533   3.453   7.257
 4865SOL     OW15346   2.973   3.057   6.686
 4865SOL    HW115347   2.933   3.101   6.767
 4865SOL    HW215348   2.932   3.094   6.603
 4866SOL     OW15349   3.500   2.961   6.665
 4866SOL    HW115350   3.505   3.042   6.724
 4866SOL    HW215351   3.414   2.963   6.614
 4867SOL     OW15352   2.777   1.951   6.988
 4867SOL    HW115353   2.802   1.931   6.893
 4867SOL    HW215354   2.849   2.007   7.030
 4868SOL     OW15355   2.842   2.978   7.305
 4868SOL    HW115356   2.743   2.984   7.315
 4868SOL    HW215357   2.865   2.898   7.249
 4869SOL     OW15358   2.272   2.675   6.837
 4869SOL    HW115359   2.358   2.687   6.887
 4869SOL    HW215360   2.230   2.588   6.864
 4870SOL     OW15361   3.136   2.248   6.848
 4870SOL    HW115362   3.157   2.322   6.912
 4870SOL    HW215363   3.047   2.265   6.805
 4871SOL     OW15364   1.926   3.426   6.917
 4871SOL    HW115365   1.880   3.508   6.883
 4871SOL    HW215366   2.024   3.445   6.926
 4872SOL     OW15367   3.114   3.210   5.974
 4872SOL    HW115368   3.164   3.287   6.014
 4872SOL    HW215369   3.019   3.212   6.006
 4873SOL     OW15370   3.134   3.307   6.728
 4873SOL    HW115371   3.181   3.320   6.815
 4873SOL    HW215372   3.068   3.233   6.737
 4874SOL     OW15373   3.444   2.501   6.058
 4874SOL    HW115374   3.413   2.562   6.131
 4874SOL    HW215375   3.494   2.553   5.989
 4875SOL     OW15376   2.216   3.372   6.915
 4875SOL    HW115377   2.195   3.328   6.828
 4875SOL    HW215378   2.313   3.398   6.918
 4876SOL     OW15379   3.449   2.641   7.256
 4876SOL    HW115380   3.357   2.679   7.251
 4876SOL    HW215381   3.509   2.688   7.191
 4877SOL     OW15382   2.875   1.967   7.356
 4877SOL    HW115383   2.881   2.052   7.304
 4877SOL    HW215384   2.907   1.891   7.299
 4878SOL     OW15385   2.366   1.912   7.326
 4878SOL    HW115386   2.324   1.855   7.256
 4878SOL    HW215387   2.300   1.981   7.358
 4879SOL     OW15388   2.435   2.732   6.615
 4879SOL    HW115389   2.479   2.821   6.606
 4879SOL    HW215390   2.372   2.732   6.692
 4880SOL     OW15391   3.222   2.724   6.631
 4880SOL    HW115392   3.147   2.724   6.565
 4880SOL    HW215393   3.259   2.632   6.640
 4881SOL     OW15394   1.899   3.172   6.868
 4881SOL    HW115395   1.952   3.123   6.936
 4881SOL    HW215396   1.921   3.270   6.873
 4882SOL     OW15397   2.594   2.496   6.650
 4882SOL    HW115398   2.653   2.470   6.574
 4882SOL    HW215399   2.566   2.592   6.639
 4883SOL     OW15400   3.590   2.797   7.440
 4883SOL    HW115401   3.544   2.790   7.351
 4883SOL    HW215402   3.528   2.841   7.506
 4884SOL     OW15403   3.484   2.229   5.960
 4884SOL    HW115404   3.486   2.153   6.024
 4884SOL    HW215405   3.436   2.306   6.000
 4885SOL     OW15406   2.885   2.628   6.552
 4885SOL    HW115407   2.900   2.649   6.648
 4885SOL    HW215408   2.855   2.533   6.543
 4886SOL     OW15409   2.842   3.435   7.286
 4886SOL    HW115410   2.822   3.479   7.198
 4886SOL    HW215411   2.881   3.344   7.270
 4887SOL     OW15412   3.721   3.380   7.191
 4887SOL    HW115413   3.735   3.407   7.096
 4887SOL    HW215414   3.804   3.402   7.244
 4888SOL     OW15415   2.212   2.760   7.390
 4888SOL    HW115416   2.288   2.804   7.438
 4888SOL    HW215417   2.247   2.713   7.308
 4889SOL     OW15418   3.402   2.136   5.711
 4889SOL    HW115419   3.341   2.061   5.734
 4889SOL    HW215420   3.424   2.188   5.794
 4890SOL     OW15421   3.165   2.700   5.628
 4890SOL    HW115422   3.199   2.607   5.643
 4890SOL    HW215423   3.183   2.727   5.533
 4891SOL     OW15424   2.930   3.195   6.435
 4891SOL    HW115425   2.937   3.111   6.380
 4891SOL    HW215426   2.992   3.264   6.399
 4892SOL     OW15427   3.000   2.242   7.264
 4892SOL    HW115428   2.955   2.305   7.328
 4892SOL    HW215429   3.093   2.273   7.247
 4893SOL     OW15430   3.022   2.069   7.063
 4893SOL    HW115431   3.022   2.133   7.140
 4893SOL    HW215432   3.050   2.117   6.980
 4894SOL     OW15433   1.870   3.188   5.786
 4894SOL    HW115434   1.777   3.209   5.755
 4894SOL    HW215435   1.880   3.089   5.799
 4895SOL     OW15436   1.950   3.663   6.513
 4895SOL    HW115437   1.908   3.577   6.486
 4895SOL    HW215438   2.044   3.666   6.479
 4896SOL     OW15439   2.366   3.430   6.496
 4896SOL    HW115440   2.432   3.504   6.505
 4896SOL    HW215441   2.410   3.351   6.454
 4897SOL     OW15442   2.864   2.658   6.824
 4897SOL    HW115443   2.905   2.626   6.910
 4897SOL    HW215444   2.768   2.631   6.821
 4898SOL     OW15445   1.902   2.406   6.700
 4898SOL    HW115446   1.987   2.373   6.659
 4898SOL    HW215447   1.915   2.421   6.798
 4899SOL     OW15448   3.231   2.812   7.246
 4899SOL    HW115449   3.270   2.901   7.266
 4899SOL    HW215450   3.241   2.792   7.149
 4900SOL     OW15451   3.519   2.466   6.792
 4900SOL    HW115452   3.481   2.397   6.854
 4900SOL    HW215453   3.601   2.430   6.748
 4901SOL     OW15454   2.114   3.426   7.330
 4901SOL    HW115455   2.084   3.483   7.406
 4901SOL    HW215456   2.107   3.329   7.356
 4902SOL     OW15457   2.792   3.540   7.051
 4902SOL    HW115458   2.768   3.522   6.956
 4902SOL    HW215459   2.822   3.634   7.061
 4903SOL     OW15460   2.021   2.999   7.052
 4903SOL    HW115461   2.043   2.938   7.128
 4903SOL    HW215462   2.031   2.950   6.966
 4904SOL     OW15463   3.209   2.921   6.820
 4904SOL    HW115464   3.233   2.858   6.746
 4904SOL    HW215465   3.119   2.961   6.802
 4905SOL     OW15466   3.164   2.717   5.895
 4905SOL    HW115467   3.078   2.686   5.937
 4905SOL    HW215468   3.160   2.703   5.796
 4906SOL     OW15469   3.621   3.609   6.740
 4906SOL    HW115470   3.682   3.639   6.667
 4906SOL    HW215471   3.583   3.520   6.718
 4907SOL     OW15472   3.114   3.593   6.714
 4907SOL    HW115473   3.198   3.598   6.660
 4907SOL    HW215474   3.091   3.497   6.732
 4908SOL     OW15475   1.945   3.120   6.608
 4908SOL    HW115476   1.940   3.119   6.708
 4908SOL    HW215477   1.862   3.079   6.570
 4909SOL     OW15478   2.550   3.524   7.302
 4909SOL    HW115479   2.494   3.605   7.311
 4909SOL    HW215480   2.602   3.528   7.216
 4910SOL     OW15481   3.588   1.997   6.109
 4910SOL    HW115482   3.661   1.980   6.042
 4910SOL    HW215483   3.557   1.910   6.147
 4911SOL     OW15484   3.250   3.435   6.063
 4911SOL    HW115485   3.317   3.447   5.989
 4911SOL    HW215486   3.210   3.524   6.086
 4912SOL     OW15487   1.992   3.656   7.437
 4912SOL    HW115488   1.951   3.582   7.490
 4912SOL    HW215489   2.056   3.707   7.495
 4913SOL     OW15490   3.142   2.789   6.258
 4913SOL    HW115491   3.202   2.708   6.260
 4913SOL    HW215492   3.182   2.858   6.198
 4914SOL     OW15493   2.692   3.135   7.008
 4914SOL    HW115494   2.687   3.168   7.103
 4914SOL    HW215495   2.606   3.154   6.962
 4915SOL     OW15496   2.534   3.478   5.740
 4915SOL    HW115497   2.543   3.488   5.641
 4915SOL    HW215498   2.494   3.389   5.761
 4916SOL     OW15499   3.512   3.582   6.980
 4916SOL    HW115500   3.565   3.592   6.896
 4916SOL    HW215501   3.485   3.672   7.014
 4917SOL     OW15502   3.703   2.037   6.549
 4917SOL    HW115503   3.742   1.952   6.513
 4917SOL    HW215504   3.605   2.039   6.530
 4918SOL     OW15505   3.056   3.474   5.617
 4918SOL    HW115506   3.062   3.381   5.654
 4918SOL    HW215507   2.997   3.474   5.537
 4919SOL     OW15508   2.684   2.864   6.958
 4919SOL    HW115509   2.724   2.863   6.866
 4919SOL    HW215510   2.694   2.956   6.998
 4920SOL     OW15511   3.366   3.469   5.630
 4920SOL    HW115512   3.274   3.506   5.637
 4920SOL    HW215513   3.404   3.489   5.540
 4921SOL     OW15514   2.234   3.150   7.076
 4921SOL    HW115515   2.221   3.243   7.042
 4921SOL    HW215516   2.150   3.098   7.063
 4922SOL     OW15517   3.476   3.154   6.875
 4922SOL    HW115518   3.536   3.157   6.955
 4922SOL    HW215519   3.401   3.218   6.888
 4923SOL     OW15520   2.901   2.960   6.282
 4923SOL    HW115521   2.831   2.913   6.336
 4923SOL    HW215522   2.960   2.892   6.239
 4924SOL     OW15523   2.452   3.349   6.077
 4924SOL    HW115524   2.494   3.291   6.007
 4924SOL    HW215525   2.408   3.428   6.033
 4925SOL     OW15526   3.571   2.247   6.967
 4925SOL    HW115527   3.644   2.316   6.971
 4925SOL    HW215528   3.599   2.172   6.908
 4926SOL     OW15529   2.117   3.210   5.876
 4926SOL    HW115530   2.021   3.211   5.849
 4926SOL    HW215531   2.129   3.263   5.960
 4927SOL     OW15532   1.967   2.875   7.312
 4927SOL    HW115533   1.890   2.842   7.366
 4927SOL    HW215534   2.052   2.845   7.354
 4928SOL     OW15535   2.534   2.065   7.075
 4928SOL    HW115536   2.624   2.049   7.035
 4928SOL    HW215537   2.542   2.070   7.174
 4929SOL     OW15538   3.302   2.718   6.984
 4929SOL    HW115539   3.245   2.770   6.921
 4929SOL    HW215540   3.398   2.730   6.960
 4930SOL     OW15541   1.934   2.028   5.904
 4930SOL    HW115542   1.917   2.111   5.850
 4930SOL    HW215543   2.024   1.991   5.882
 4931SOL     OW15544   3.045   3.197   5.705
 4931SOL    HW115545   2.946   3.186   5.707
 4931SOL    HW215546   3.079   3.212   5.798
 4932SOL     OW15547   2.475   2.704   7.017
 4932SOL    HW115548   2.531   2.785   7.000
 4932SOL    HW215549   2.534   2.624   7.020
 4933SOL     OW15550   3.355   3.629   6.545
 4933SOL    HW115551   3.388   3.693   6.476
 4933SOL    HW215552   3.421   3.623   6.620
 4934SOL     OW15553   3.312   3.082   7.219
 4934SOL    HW115554   3.303   3.072   7.318
 4934SOL    HW215555   3.408   3.075   7.193
 4935SOL     OW15556   2.252   3.603   7.146
 4935SOL    HW115557   2.161   3.644   7.144
 4935SOL    HW215558   2.245   3.509   7.178
 4936SOL     OW15559   3.536   2.745   6.840
 4936SOL    HW115560   3.509   2.656   6.803
 4936SOL    HW215561   3.537   2.813   6.767
 4937SOL     OW15562   3.639   2.204   7.228
 4937SOL    HW115563   3.622   2.235   7.134
 4937SOL    HW215564   3.555   2.167   7.266
 4938SOL     OW15565   3.592   2.796   7.103
 4938SOL    HW115566   3.630   2.887   7.118
 4938SOL    HW215567   3.584   2.779   7.004
 4939SOL     OW15568   2.721   3.236   5.602
 4939SOL    HW115569   2.675   3.251   5.690
 4939SOL    HW215570   2.765   3.321   5.572
 4940SOL     OW15571   2.523   3.652   6.539
 4940SOL    HW115572   2.477   3.740   6.526
 4940SOL    HW215573   2.622   3.664   6.532
 4941SOL     OW15574   2.945   2.846   5.673
 4941SOL    HW115575   2.922   2.899   5.591
 4941SOL    HW215576   3.026   2.790   5.654
 4942SOL     OW15577   3.723   3.431   6.437
 4942SOL    HW115578   3.652   3.419   6.367
 4942SOL    HW215579   3.724   3.352   6.497
 4943SOL     OW15580   2.083   3.176   7.430
 4943SOL    HW115581   2.018   3.103   7.409
 4943SOL    HW215582   2.087   3.190   7.528
 4944SOL     OW15583   2.534   3.253   7.210
 4944SOL    HW115584   2.456   3.203   7.248
 4944SOL    HW215585   2.531   3.348   7.241
 4945SOL     OW15586   3.686   2.054   6.813
 4945SOL    HW115587   3.682   1.964   6.857
 4945SOL    HW215588   3.689   2.043   6.714
 4946SOL     OW15589   3.567   3.349   6.690
 4946SOL    HW115590   3.474   3.324   6.663
 4946SOL    HW215591   3.593   3.299   6.772
 4947SOL     OW15592   2.674   3.448   6.273
 4947SOL    HW115593   2.706   3.458   6.179
 4947SOL    HW215594   2.595   3.386   6.275
 4948SOL     OW15595   3.286   2.076   6.698
 4948SOL    HW115596   3.338   2.011   6.753
 4948SOL    HW215597   3.237   2.139   6.759
 4949SOL     OW15598   2.863   1.896   6.740
 4949SOL    HW115599   2.800   1.824   6.709
 4949SOL    HW215600   2.956   1.860   6.740
 4950SOL     OW15601   2.632   3.192   5.887
 4950SOL    HW115602   2.586   3.105   5.904
 4950SOL    HW215603   2.723   3.189   5.928
 4951SOL     OW15604   2.480   3.429   6.870
 4951SOL    HW115605   2.475   3.511   6.927
 4951SOL    HW215606   2.569   3.426   6.825
 4952SOL     OW15607   3.214   1.914   5.754
 4952SOL    HW115608   3.249   1.873   5.670
 4952SOL    HW215609   3.124   1.876   5.774
 4953SOL     OW15610   3.162   2.315   6.277
 4953SOL    HW115611   3.103   2.395   6.281
 4953SOL    HW215612   3.177   2.280   6.370
 4954SOL     OW15613   3.455   2.083   6.468
 4954SOL    HW115614   3.371   2.082   6.522
 4954SOL    HW215615   3.457   2.166   6.412
 4955SOL     OW15616   2.737   3.508   5.923
 4955SOL    HW115617   2.660   3.473   5.869
 4955SOL    HW215618   2.705   3.579   5.985
 4956SOL     OW15619   2.092   2.490   7.561
 4956SOL    HW115620   1.999   2.488   7.598
 4956SOL    HW215621   2.093   2.451   7.469
 4957SOL     OW15622   1.881   2.230   8.095
 4957SOL    HW115623   1.799   2.273   8.134
 4957SOL    HW215624   1.853   2.157   8.032
 4958SOL     OW15625   2.431   3.137   8.613
 4958SOL    HW115626   2.338   3.130   8.576
 4958SOL    HW215627   2.442   3.226   8.657
 4959SOL     OW15628   3.417   3.373   8.151
 4959SOL    HW115629   3.360   3.357   8.232
 4959SOL    HW215630   3.358   3.383   8.071
 4960SOL     OW15631   2.997   2.565   8.165
 4960SOL    HW115632   3.054   2.643   8.140
 4960SOL    HW215633   2.937   2.591   8.241
 4961SOL     OW15634   3.617   2.469   7.679
 4961SOL    HW115635   3.605   2.456   7.580
 4961SOL    HW215636   3.587   2.388   7.728
 4962SOL     OW15637   2.630   3.006   8.471
 4962SOL    HW115638   2.552   3.023   8.531
 4962SOL    HW215639   2.664   3.093   8.435
 4963SOL     OW15640   2.712   2.660   9.271
 4963SOL    HW115641   2.708   2.736   9.336
 4963SOL    HW215642   2.734   2.696   9.180
 4964SOL     OW15643   2.547   2.874   8.113
 4964SOL    HW115644   2.616   2.858   8.183
 4964SOL    HW215645   2.474   2.931   8.151
 4965SOL     OW15646   2.548   3.023   9.251
 4965SOL    HW115647   2.608   3.102   9.265
 4965SOL    HW215648   2.462   3.054   9.210
 4966SOL     OW15649   2.197   3.297   8.509
 4966SOL    HW115650   2.119   3.266   8.456
 4966SOL    HW215651   2.255   3.355   8.452
 4967SOL     OW15652   3.322   3.367   8.787
 4967SOL    HW115653   3.346   3.461   8.813
 4967SOL    HW215654   3.306   3.313   8.869
 4968SOL     OW15655   3.465   2.309   8.185
 4968SOL    HW115656   3.391   2.355   8.135
 4968SOL    HW215657   3.516   2.377   8.238
 4969SOL     OW15658   2.093   3.575   7.931
 4969SOL    HW115659   2.127   3.652   7.985
 4969SOL    HW215660   2.137   3.575   7.841
 4970SOL     OW15661   2.989   3.203   9.138
 4970SOL    HW115662   3.036   3.203   9.226
 4970SOL    HW215663   2.941   3.116   9.127
 4971SOL     OW15664   2.092   3.296   7.986
 4971SOL    HW115665   2.066   3.392   7.986
 4971SOL    HW215666   2.021   3.242   8.031
 4972SOL     OW15667   2.102   2.953   8.334
 4972SOL    HW115668   2.116   2.869   8.386
 4972SOL    HW215669   2.047   3.017   8.389
 4973SOL     OW15670   2.482   3.648   8.887
 4973SOL    HW115671   2.390   3.631   8.922
 4973SOL    HW215672   2.510   3.740   8.913
 4974SOL     OW15673   2.468   2.826   7.571
 4974SOL    HW115674   2.475   2.910   7.517
 4974SOL    HW215675   2.514   2.839   7.659
 4975SOL     OW15676   3.456   1.976   8.928
 4975SOL    HW115677   3.438   2.043   8.856
 4975SOL    HW215678   3.453   2.022   9.017
 4976SOL     OW15679   1.984   2.505   8.011
 4976SOL    HW115680   1.939   2.417   8.028
 4976SOL    HW215681   1.983   2.559   8.095
 4977SOL     OW15682   3.704   3.629   7.807
 4977SOL    HW115683   3.758   3.600   7.887
 4977SOL    HW215684   3.734   3.719   7.778
 4978SOL     OW15685   1.889   3.458   7.565
 4978SOL    HW115686   1.870   3.362   7.586
 4978SOL    HW215687   1.856   3.516   7.640
 4979SOL     OW15688   3.551   2.784   8.060
 4979SOL    HW115689   3.646   2.755   8.068
 4979SOL    HW215690   3.543   2.849   7.985
 4980SOL     OW15691   3.503   2.970   7.880
 4980SOL    HW115692   3.589   2.972   7.828
 4980SOL    HW215693   3.517   3.017   7.968
 4981SOL     OW15694   1.975   2.599   9.045
 4981SOL    HW115695   2.063   2.586   9.090
 4981SOL    HW215696   1.962   2.696   9.023
 4982SOL     OW15697   2.475   3.227   8.174
 4982SOL    HW115698   2.426   3.140   8.183
 4982SOL    HW215699   2.452   3.270   8.087
 4983SOL     OW15700   3.155   3.090   8.871
 4983SOL    HW115701   3.192   3.017   8.813
 4983SOL    HW215702   3.207   3.095   8.956
 4984SOL     OW15703   2.671   1.866   7.950
 4984SOL    HW115704   2.711   1.957   7.941
 4984SOL    HW215705   2.571   1.874   7.956
 4985SOL     OW15706   2.059   2.838   8.712
 4985SOL    HW115707   2.148   2.793   8.698
 4985SOL    HW215708   1.986   2.773   8.693
 4986SOL     OW15709   3.387   2.861   7.638
 4986SOL    HW115710   3.324   2.785   7.651
 4986SOL    HW215711   3.435   2.879   7.724
 4987SOL     OW15712   3.049   3.654   9.064
 4987SOL    HW115713   3.073   3.714   8.988
 4987SOL    HW215714   3.056   3.559   9.034
 4988SOL     OW15715   3.328   3.279   8.401
 4988SOL    HW115716   3.269   3.285   8.481
 4988SOL    HW215717   3.313   3.191   8.355
 4989SOL     OW15718   3.529   3.576   8.020
 4989SOL    HW115719   3.488   3.553   7.932
 4989SOL    HW215720   3.511   3.502   8.085
 4990SOL     OW15721   2.460   2.591   7.718
 4990SOL    HW115722   2.484   2.660   7.650
 4990SOL    HW215723   2.382   2.624   7.772
 4991SOL     OW15724   3.143   2.207   8.392
 4991SOL    HW115725   3.057   2.157   8.379
 4991SOL    HW215726   3.205   2.153   8.448
 4992SOL     OW15727   3.438   3.524   7.755
 4992SOL    HW115728   3.527   3.570   7.758
 4992SOL    HW215729   3.417   3.500   7.660
 4993SOL     OW15730   2.669   2.467   8.913
 4993SOL    HW115731   2.622   2.464   9.002
 4993SOL    HW215732   2.618   2.412   8.847
 4994SOL     OW15733   3.256   2.331   9.122
 4994SOL    HW115734   3.236   2.374   9.210
 4994SOL    HW215735   3.334   2.269   9.131
 4995SOL     OW15736   2.835   2.752   9.020
 4995SOL    HW115737   2.881   2.668   8.991
 4995SOL    HW215738   2.779   2.786   8.945
 4996SOL     OW15739   2.853   2.272   8.690
 4996SOL    HW115740   2.776   2.306   8.744
 4996SOL    HW215741   2.819   2.221   8.611
 4997SOL     OW15742   2.903   2.563   7.877
 4997SOL    HW115743   2.929   2.559   7.973
 4997SOL    HW215744   2.818   2.512   7.863
 4998SOL     OW15745   1.938   2.673   8.237
 4998SOL    HW115746   2.037   2.661   8.246
 4998SOL    HW215747   1.914   2.768   8.258
 4999SOL     OW15748   1.992   3.683   9.019
 4999SOL    HW115749   1.982   3.668   9.118
 4999SOL    HW215750   1.906   3.719   8.983
 5000SOL     OW15751   2.727   2.210   7.643
 5000SOL    HW115752   2.786   2.273   7.594
 5000SOL    HW215753   2.746   2.116   7.614
 5001SOL     OW15754   3.581   2.447   9.279
 5001SOL    HW115755   3.555   2.536   9.243
 5001SOL    HW215756   3.579   2.379   9.206
 5002SOL     OW15757   3.224   3.006   7.993
 5002SOL    HW115758   3.307   2.977   7.945
 5002SOL    HW215759   3.175   3.073   7.937
 5003SOL     OW15760   2.870   3.318   7.925
 5003SOL    HW115761   2.824   3.390   7.873
 5003SOL    HW215762   2.866   3.338   8.023
 5004SOL     OW15763   2.213   3.663   8.301
 5004SOL    HW115764   2.263   3.577   8.307
 5004SOL    HW215765   2.278   3.740   8.298
 5005SOL     OW15766   3.657   2.928   8.321
 5005SOL    HW115767   3.595   2.913   8.245
 5005SOL    HW215768   3.605   2.939   8.406
 5006SOL     OW15769   3.089   3.412   8.954
 5006SOL    HW115770   3.095   3.335   9.018
 5006SOL    HW215771   3.037   3.386   8.874
 5007SOL     OW15772   2.183   2.805   7.690
 5007SOL    HW115773   2.265   2.844   7.648
 5007SOL    HW215774   2.156   2.723   7.641
 5008SOL     OW15775   3.320   2.597   8.176
 5008SOL    HW115776   3.315   2.532   8.251
 5008SOL    HW215777   3.400   2.656   8.189
 5009SOL     OW15778   2.323   3.128   9.175
 5009SOL    HW115779   2.273   3.129   9.089
 5009SOL    HW215780   2.260   3.110   9.251
 5010SOL     OW15781   2.973   3.638   7.685
 5010SOL    HW115782   2.913   3.576   7.735
 5010SOL    HW215783   3.004   3.594   7.600
 5011SOL     OW15784   3.494   3.239   7.529
 5011SOL    HW115785   3.462   3.333   7.519
 5011SOL    HW215786   3.418   3.176   7.517
 5012SOL     OW15787   2.326   3.605   7.771
 5012SOL    HW115788   2.359   3.644   7.857
 5012SOL    HW215789   2.402   3.598   7.706
 5013SOL     OW15790   3.262   1.969   7.874
 5013SOL    HW115791   3.238   1.932   7.784
 5013SOL    HW215792   3.361   1.985   7.878
 5014SOL     OW15793   2.111   3.647   8.689
 5014SOL    HW115794   2.168   3.582   8.739
 5014SOL    HW215795   2.095   3.614   8.596
 5015SOL     OW15796   2.802   3.560   8.352
 5015SOL    HW115797   2.882   3.503   8.373
 5015SOL    HW215798   2.753   3.520   8.275
 5016SOL     OW15799   3.409   2.084   9.177
 5016SOL    HW115800   3.404   2.121   9.269
 5016SOL    HW215801   3.337   2.015   9.165
 5017SOL     OW15802   2.476   1.984   7.565
 5017SOL    HW115803   2.574   1.962   7.572
 5017SOL    HW215804   2.445   1.967   7.472
 5018SOL     OW15805   2.643   2.126   9.197
 5018SOL    HW115806   2.710   2.065   9.240
 5018SOL    HW215807   2.570   2.145   9.262
 5019SOL     OW15808   2.750   3.376   8.643
 5019SOL    HW115809   2.727   3.351   8.549
 5019SOL    HW215810   2.811   3.307   8.682
 5020SOL     OW15811   3.213   2.452   8.881
 5020SOL    HW115812   3.241   2.409   8.966
 5020SOL    HW215813   3.238   2.548   8.882
 5021SOL     OW15814   2.665   3.264   8.372
 5021SOL    HW115815   2.755   3.278   8.330
 5021SOL    HW215816   2.594   3.266   8.301
 5022SOL     OW15817   2.784   2.365   8.347
 5022SOL    HW115818   2.759   2.356   8.251
 5022SOL    HW215819   2.832   2.283   8.378
 5023SOL     OW15820   2.401   1.926   7.960
 5023SOL    HW115821   2.320   1.927   8.018
 5023SOL    HW215822   2.404   2.009   7.905
 5024SOL     OW15823   3.296   3.050   7.489
 5024SOL    HW115824   3.328   2.974   7.546
 5024SOL    HW215825   3.204   3.077   7.519
 5025SOL     OW15826   2.797   2.098   7.928
 5025SOL    HW115827   2.749   2.139   7.850
 5025SOL    HW215828   2.896   2.096   7.909
 5026SOL     OW15829   2.938   2.545   8.912
 5026SOL    HW115830   2.858   2.484   8.915
 5026SOL    HW215831   3.019   2.492   8.888
 5027SOL     OW15832   3.089   3.432   8.241
 5027SOL    HW115833   3.110   3.506   8.176
 5027SOL    HW215834   3.157   3.432   8.314
 5028SOL     OW15835   2.321   3.014   8.189
 5028SOL    HW115836   2.250   2.987   8.254
 5028SOL    HW215837   2.295   2.986   8.096
 5029SOL     OW15838   3.133   3.659   8.039
 5029SOL    HW115839   3.177   3.723   7.975
 5029SOL    HW215840   3.083   3.711   8.109
 5030SOL     OW15841   2.894   2.411   7.464
 5030SOL    HW115842   2.853   2.493   7.425
 5030SOL    HW215843   2.958   2.437   7.537
 5031SOL     OW15844   1.940   2.418   8.834
 5031SOL    HW115845   2.032   2.417   8.793
 5031SOL    HW215846   1.934   2.492   8.901
 5032SOL     OW15847   2.728   2.316   8.090
 5032SOL    HW115848   2.696   2.388   8.028
 5032SOL    HW215849   2.752   2.235   8.037
 5033SOL     OW15850   2.879   1.901   8.201
 5033SOL    HW115851   2.807   1.906   8.132
 5033SOL    HW215852   2.855   1.832   8.270
 5034SOL     OW15853   3.291   3.035   8.315
 5034SOL    HW115854   3.236   2.951   8.308
 5034SOL    HW215855   3.317   3.064   8.223
 5035SOL     OW15856   3.328   2.452   8.440
 5035SOL    HW115857   3.298   2.357   8.447
 5035SOL    HW215858   3.401   2.468   8.506
 5036SOL     OW15859   3.719   2.695   7.825
 5036SOL    HW115860   3.761   2.631   7.889
 5036SOL    HW215861   3.681   2.644   7.747
 5037SOL     OW15862   2.350   3.247   7.622
 5037SOL    HW115863   2.263   3.232   7.669
 5037SOL    HW215864   2.333   3.273   7.527
 5038SOL     OW15865   3.526   3.142   8.105
 5038SOL    HW115866   3.625   3.150   8.119
 5038SOL    HW215867   3.481   3.226   8.136
 5039SOL     OW15868   3.252   2.437   7.526
 5039SOL    HW115869   3.198   2.416   7.607
 5039SOL    HW215870   3.343   2.396   7.535
 5040SOL     OW15871   3.616   3.085   9.036
 5040SOL    HW115872   3.707   3.046   9.023
 5040SOL    HW215873   3.624   3.181   9.060
 5041SOL     OW15874   2.926   3.209   8.788
 5041SOL    HW115875   2.846   3.186   8.843
 5041SOL    HW215876   3.009   3.183   8.837
 5042SOL     OW15877   3.454   3.491   9.073
 5042SOL    HW115878   3.481   3.525   8.983
 5042SOL    HW215879   3.533   3.453   9.119
 5043SOL     OW15880   2.973   3.057   8.548
 5043SOL    HW115881   2.933   3.101   8.629
 5043SOL    HW215882   2.932   3.094   8.465
 5044SOL     OW15883   3.500   2.961   8.527
 5044SOL    HW115884   3.505   3.042   8.586
 5044SOL    HW215885   3.414   2.963   8.476
 5045SOL     OW15886   2.777   1.951   8.850
 5045SOL    HW115887   2.802   1.931   8.755
 5045SOL    HW215888   2.849   2.007   8.892
 5046SOL     OW15889   2.842   2.978   9.167
 5046SOL    HW115890   2.743   2.984   9.177
 5046SOL    HW215891   2.865   2.898   9.111
 5047SOL     OW15892   2.567   2.912   7.816
 5047SOL    HW115893   2.553   2.919   7.915
 5047SOL    HW215894   2.651   2.861   7.798
 5048SOL     OW15895   2.272   2.675   8.699
 5048SOL    HW115896   2.358   2.687   8.749
 5048SOL    HW215897   2.230   2.588   8.726
 5049SOL     OW15898   3.136   2.248   8.710
 5049SOL    HW115899   3.157   2.322   8.774
 5049SOL    HW215900   3.047   2.265   8.667
 5050SOL     OW15901   1.926   3.426   8.779
 5050SOL    HW115902   1.880   3.508   8.745
 5050SOL    HW215903   2.024   3.445   8.788
 5051SOL     OW15904   2.229   2.962   7.949
 5051SOL    HW115905   2.222   3.045   7.893
 5051SOL    HW215906   2.233   2.882   7.889
 5052SOL     OW15907   3.114   3.210   7.836
 5052SOL    HW115908   3.164   3.287   7.876
 5052SOL    HW215909   3.019   3.212   7.868
 5053SOL     OW15910   3.134   3.307   8.590
 5053SOL    HW115911   3.181   3.320   8.677
 5053SOL    HW215912   3.068   3.233   8.599
 5054SOL     OW15913   3.444   2.501   7.920
 5054SOL    HW115914   3.413   2.562   7.993
 5054SOL    HW215915   3.494   2.553   7.851
 5055SOL     OW15916   2.216   3.372   8.777
 5055SOL    HW115917   2.195   3.328   8.690
 5055SOL    HW215918   2.313   3.398   8.780
 5056SOL     OW15919   3.449   2.641   9.118
 5056SOL    HW115920   3.357   2.679   9.113
 5056SOL    HW215921   3.509   2.688   9.053
 5057SOL     OW15922   2.875   1.967   9.218
 5057SOL    HW115923   2.881   2.052   9.166
 5057SOL    HW215924   2.907   1.891   9.161
 5058SOL     OW15925   2.366   1.912   9.188
 5058SOL    HW115926   2.324   1.855   9.118
 5058SOL    HW215927   2.300   1.981   9.220
 5059SOL     OW15928   2.435   2.732   8.477
 5059SOL    HW115929   2.479   2.821   8.468
 5059SOL    HW215930   2.372   2.732   8.554
 5060SOL     OW15931   3.222   2.724   8.493
 5060SOL    HW115932   3.147   2.724   8.427
 5060SOL    HW215933   3.259   2.632   8.502
 5061SOL     OW15934   3.071   2.387   7.723
 5061SOL    HW115935   3.084   2.303   7.777
 5061SOL    HW215936   3.042   2.461   7.783
 5062SOL     OW15937   1.899   3.172   8.730
 5062SOL    HW115938   1.952   3.123   8.798
 5062SOL    HW215939   1.921   3.270   8.735
 5063SOL     OW15940   2.594   2.496   8.512
 5063SOL    HW115941   2.653   2.470   8.436
 5063SOL    HW215942   2.566   2.592   8.501
 5064SOL     OW15943   3.590   2.797   9.302
 5064SOL    HW115944   3.544   2.790   9.213
 5064SOL    HW215945   3.528   2.841   9.368
 5065SOL     OW15946   3.484   2.229   7.822
 5065SOL    HW115947   3.486   2.153   7.886
 5065SOL    HW215948   3.436   2.306   7.862
 5066SOL     OW15949   2.885   2.628   8.414
 5066SOL    HW115950   2.900   2.649   8.510
 5066SOL    HW215951   2.855   2.533   8.405
 5067SOL     OW15952   2.842   3.435   9.148
 5067SOL    HW115953   2.822   3.479   9.060
 5067SOL    HW215954   2.881   3.344   9.132
 5068SOL     OW15955   3.721   3.380   9.053
 5068SOL    HW115956   3.735   3.407   8.958
 5068SOL    HW215957   3.804   3.402   9.106
 5069SOL     OW15958   2.212   2.760   9.252
 5069SOL    HW115959   2.288   2.804   9.300
 5069SOL    HW215960   2.247   2.713   9.170
 5070SOL     OW15961   3.402   2.136   7.573
 5070SOL    HW115962   3.341   2.061   7.596
 5070SOL    HW215963   3.424   2.188   7.656
 5071SOL     OW15964   3.165   2.700   7.490
 5071SOL    HW115965   3.199   2.607   7.505
 5071SOL    HW215966   3.183   2.727   7.395
 5072SOL     OW15967   2.930   3.195   8.297
 5072SOL    HW115968   2.937   3.111   8.242
 5072SOL    HW215969   2.992   3.264   8.261
 5073SOL     OW15970   2.181   2.672   8.397
 5073SOL    HW115971   2.274   2.708   8.402
 5073SOL    HW215972   2.175   2.587   8.449
 5074SOL     OW15973   3.000   2.242   9.126
 5074SOL    HW115974   2.955   2.305   9.190
 5074SOL    HW215975   3.093   2.273   9.109
 5075SOL     OW15976   3.022   2.069   8.925
 5075SOL    HW115977   3.022   2.133   9.002
 5075SOL    HW215978   3.050   2.117   8.842
 5076SOL     OW15979   1.870   3.188   7.648
 5076SOL    HW115980   1.777   3.209   7.617
 5076SOL    HW215981   1.880   3.089   7.661
 5077SOL     OW15982   1.950   3.663   8.375
 5077SOL    HW115983   1.908   3.577   8.348
 5077SOL    HW215984   2.044   3.666   8.341
 5078SOL     OW15985   2.366   3.430   8.358
 5078SOL    HW115986   2.432   3.504   8.367
 5078SOL    HW215987   2.410   3.351   8.316
 5079SOL     OW15988   2.864   2.658   8.686
 5079SOL    HW115989   2.905   2.626   8.772
 5079SOL    HW215990   2.768   2.631   8.683
 5080SOL     OW15991   1.902   2.406   8.562
 5080SOL    HW115992   1.987   2.373   8.521
 5080SOL    HW215993   1.915   2.421   8.660
 5081SOL     OW15994   3.231   2.812   9.108
 5081SOL    HW115995   3.270   2.901   9.128
 5081SOL    HW215996   3.241   2.792   9.011
 5082SOL     OW15997   2.677   2.434   7.773
 5082SOL    HW115998   2.684   2.345   7.727
 5082SOL    HW215999   2.583   2.468   7.765
 5083SOL     OW16000   3.519   2.466   8.654
 5083SOL    HW116001   3.481   2.397   8.716
 5083SOL    HW216002   3.601   2.430   8.610
 5084SOL     OW16003   2.114   3.426   9.192
 5084SOL    HW116004   2.084   3.483   9.268
 5084SOL    HW216005   2.107   3.329   9.218
 5085SOL     OW16006   2.792   3.540   8.913
 5085SOL    HW116007   2.768   3.522   8.818
 5085SOL    HW216008   2.822   3.634   8.923
 5086SOL     OW16009   2.021   2.999   8.914
 5086SOL    HW116010   2.043   2.938   8.990
 5086SOL    HW216011   2.031   2.950   8.828
 5087SOL     OW16012   3.209   2.921   8.682
 5087SOL    HW116013   3.233   2.858   8.608
 5087SOL    HW216014   3.119   2.961   8.664
 5088SOL     OW16015   3.164   2.717   7.757
 5088SOL    HW116016   3.078   2.686   7.799
 5088SOL    HW216017   3.160   2.703   7.658
 5089SOL     OW16018   3.621   3.609   8.602
 5089SOL    HW116019   3.682   3.639   8.529
 5089SOL    HW216020   3.583   3.520   8.580
 5090SOL     OW16021   3.114   3.593   8.576
 5090SOL    HW116022   3.198   3.598   8.522
 5090SOL    HW216023   3.091   3.497   8.594
 5091SOL     OW16024   1.945   3.120   8.470
 5091SOL    HW116025   1.940   3.119   8.570
 5091SOL    HW216026   1.862   3.079   8.432
 5092SOL     OW16027   2.550   3.524   9.164
 5092SOL    HW116028   2.494   3.605   9.173
 5092SOL    HW216029   2.602   3.528   9.078
 5093SOL     OW16030   3.588   1.997   7.971
 5093SOL    HW116031   3.661   1.980   7.904
 5093SOL    HW216032   3.557   1.910   8.009
 5094SOL     OW16033   3.250   3.435   7.925
 5094SOL    HW116034   3.317   3.447   7.851
 5094SOL    HW216035   3.210   3.524   7.948
 5095SOL     OW16036   1.992   3.656   9.299
 5095SOL    HW116037   1.951   3.582   9.352
 5095SOL    HW216038   2.056   3.707   9.357
 5096SOL     OW16039   3.142   2.789   8.120
 5096SOL    HW116040   3.202   2.708   8.122
 5096SOL    HW216041   3.182   2.858   8.060
 5097SOL     OW16042   2.692   3.135   8.870
 5097SOL    HW116043   2.687   3.168   8.965
 5097SOL    HW216044   2.606   3.154   8.824
 5098SOL     OW16045   2.534   3.478   7.602
 5098SOL    HW116046   2.543   3.488   7.503
 5098SOL    HW216047   2.494   3.389   7.623
 5099SOL     OW16048   3.512   3.582   8.842
 5099SOL    HW116049   3.565   3.592   8.758
 5099SOL    HW216050   3.485   3.672   8.876
 5100SOL     OW16051   3.703   2.037   8.411
 5100SOL    HW116052   3.742   1.952   8.375
 5100SOL    HW216053   3.605   2.039   8.392
 5101SOL     OW16054   3.056   3.474   7.479
 5101SOL    HW116055   3.062   3.381   7.516
 5101SOL    HW216056   2.997   3.474   7.399
 5102SOL     OW16057   2.684   2.864   8.820
 5102SOL    HW116058   2.724   2.863   8.728
 5102SOL    HW216059   2.694   2.956   8.860
 5103SOL     OW16060   2.778   2.772   7.739
 5103SOL    HW116061   2.841   2.810   7.671
 5103SOL    HW216062   2.818   2.689   7.778
 5104SOL     OW16063   3.366   3.469   7.492
 5104SOL    HW116064   3.274   3.506   7.499
 5104SOL    HW216065   3.404   3.489   7.402
 5105SOL     OW16066   2.234   3.150   8.938
 5105SOL    HW116067   2.221   3.243   8.904
 5105SOL    HW216068   2.150   3.098   8.925
 5106SOL     OW16069   3.476   3.154   8.737
 5106SOL    HW116070   3.536   3.157   8.817
 5106SOL    HW216071   3.401   3.218   8.750
 5107SOL     OW16072   2.901   2.960   8.144
 5107SOL    HW116073   2.831   2.913   8.198
 5107SOL    HW216074   2.960   2.892   8.101
 5108SOL     OW16075   2.876   2.098   8.419
 5108SOL    HW116076   2.868   2.062   8.326
 5108SOL    HW216077   2.874   2.022   8.484
 5109SOL     OW16078   2.452   3.349   7.939
 5109SOL    HW116079   2.494   3.291   7.869
 5109SOL    HW216080   2.408   3.428   7.895
 5110SOL     OW16081   3.571   2.247   8.829
 5110SOL    HW116082   3.644   2.316   8.833
 5110SOL    HW216083   3.599   2.172   8.770
 5111SOL     OW16084   2.117   3.210   7.738
 5111SOL    HW116085   2.021   3.211   7.711
 5111SOL    HW216086   2.129   3.263   7.822
 5112SOL     OW16087   1.967   2.875   9.174
 5112SOL    HW116088   1.890   2.842   9.228
 5112SOL    HW216089   2.052   2.845   9.216
 5113SOL     OW16090   2.534   2.065   8.937
 5113SOL    HW116091   2.624   2.049   8.897
 5113SOL    HW216092   2.542   2.070   9.036
 5114SOL     OW16093   1.937   2.207   7.481
 5114SOL    HW116094   1.845   2.179   7.452
 5114SOL    HW216095   1.968   2.284   7.425
 5115SOL     OW16096   3.302   2.718   8.846
 5115SOL    HW116097   3.245   2.770   8.783
 5115SOL    HW216098   3.398   2.730   8.822
 5116SOL     OW16099   3.045   3.197   7.567
 5116SOL    HW116100   2.946   3.186   7.569
 5116SOL    HW216101   3.079   3.212   7.660
 5117SOL     OW16102   2.475   2.704   8.879
 5117SOL    HW116103   2.531   2.785   8.862
 5117SOL    HW216104   2.534   2.624   8.882
 5118SOL     OW16105   3.355   3.629   8.407
 5118SOL    HW116106   3.388   3.693   8.338
 5118SOL    HW216107   3.421   3.623   8.482
 5119SOL     OW16108   3.312   3.082   9.081
 5119SOL    HW116109   3.303   3.072   9.180
 5119SOL    HW216110   3.408   3.075   9.055
 5120SOL     OW16111   2.252   3.603   9.008
 5120SOL    HW116112   2.161   3.644   9.006
 5120SOL    HW216113   2.245   3.509   9.040
 5121SOL     OW16114   3.536   2.745   8.702
 5121SOL    HW116115   3.509   2.656   8.665
 5121SOL    HW216116   3.537   2.813   8.629
 5122SOL     OW16117   3.087   2.187   7.897
 5122SOL    HW116118   3.152   2.113   7.886
 5122SOL    HW216119   3.107   2.237   7.981
 5123SOL     OW16120   2.456   2.607   8.100
 5123SOL    HW116121   2.506   2.692   8.081
 5123SOL    HW216122   2.368   2.609   8.052
 5124SOL     OW16123   3.639   2.204   9.090
 5124SOL    HW116124   3.622   2.235   8.996
 5124SOL    HW216125   3.555   2.167   9.128
 5125SOL     OW16126   3.592   2.796   8.965
 5125SOL    HW116127   3.630   2.887   8.980
 5125SOL    HW216128   3.584   2.779   8.866
 5126SOL     OW16129   2.721   3.236   7.464
 5126SOL    HW116130   2.675   3.251   7.552
 5126SOL    HW216131   2.765   3.321   7.434
 5127SOL     OW16132   2.523   3.652   8.401
 5127SOL    HW116133   2.477   3.740   8.388
 5127SOL    HW216134   2.622   3.664   8.394
 5128SOL     OW16135   2.721   2.818   8.309
 5128SOL    HW116136   2.775   2.749   8.357
 5128SOL    HW216137   2.689   2.887   8.375
 5129SOL     OW16138   2.945   2.846   7.535
 5129SOL    HW116139   2.922   2.899   7.453
 5129SOL    HW216140   3.026   2.790   7.516
 5130SOL     OW16141   3.723   3.431   8.299
 5130SOL    HW116142   3.652   3.419   8.229
 5130SOL    HW216143   3.724   3.352   8.359
 5131SOL     OW16144   2.083   3.176   9.292
 5131SOL    HW116145   2.018   3.103   9.271
 5131SOL    HW216146   2.087   3.190   9.390
 5132SOL     OW16147   1.941   3.102   8.101
 5132SOL    HW116148   1.940   3.055   8.189
 5132SOL    HW216149   2.023   3.074   8.050
 5133SOL     OW16150   2.534   3.253   9.072
 5133SOL    HW116151   2.456   3.203   9.110
 5133SOL    HW216152   2.531   3.348   9.103
 5134SOL     OW16153   3.686   2.054   8.675
 5134SOL    HW116154   3.682   1.964   8.719
 5134SOL    HW216155   3.689   2.043   8.576
 5135SOL     OW16156   3.567   3.349   8.552
 5135SOL    HW116157   3.474   3.324   8.525
 5135SOL    HW216158   3.593   3.299   8.634
 5136SOL     OW16159   2.674   3.448   8.135
 5136SOL    HW116160   2.706   3.458   8.041
 5136SOL    HW216161   2.595   3.386   8.137
 5137SOL     OW16162   3.286   2.076   8.560
 5137SOL    HW116163   3.338   2.011   8.615
 5137SOL    HW216164   3.237   2.139   8.621
 5138SOL     OW16165   2.863   1.896   8.602
 5138SOL    HW116166   2.800   1.824   8.571
 5138SOL    HW216167   2.956   1.860   8.602
 5139SOL     OW16168   2.632   3.192   7.749
 5139SOL    HW116169   2.586   3.105   7.766
 5139SOL    HW216170   2.723   3.189   7.790
 5140SOL     OW16171   2.480   3.429   8.732
 5140SOL    HW116172   2.475   3.511   8.789
 5140SOL    HW216173   2.569   3.426   8.687
 5141SOL     OW16174   3.214   1.914   7.616
 5141SOL    HW116175   3.249   1.873   7.532
 5141SOL    HW216176   3.124   1.876   7.636
 5142SOL     OW16177   3.162   2.315   8.139
 5142SOL    HW116178   3.103   2.395   8.143
 5142SOL    HW216179   3.177   2.280   8.232
 5143SOL     OW16180   3.455   2.083   8.330
 5143SOL    HW116181   3.371   2.082   8.384
 5143SOL    HW216182   3.457   2.166   8.274
 5144SOL     OW16183   1.901   2.939   7.748
 5144SOL    HW116184   2.000   2.928   7.739
 5144SOL    HW216185   1.861   2.853   7.780
 5145SOL     OW16186   2.737   3.508   7.785
 5145SOL    HW116187   2.660   3.473   7.731
 5145SOL    HW216188   2.705   3.579   7.847
 5146SOL     OW16189   2.092   2.490   9.423
 5146SOL    HW116190   1.999   2.488   9.460
 5146SOL    HW216191   2.093   2.451   9.331
 5147SOL     OW16192   1.881   2.230   9.957
 5147SOL    HW116193   1.799   2.273   9.996
 5147SOL    HW216194   1.853   2.157   9.894
 5148SOL     OW16195   2.431   3.137  10.475
 5148SOL    HW116196   2.338   3.130  10.438
 5148SOL    HW216197   2.442   3.226  10.519
 5149SOL     OW16198   3.417   3.373  10.013
 5149SOL    HW116199   3.360   3.357  10.094
 5149SOL    HW216200   3.358   3.383   9.933
 5150SOL     OW16201   2.997   2.565  10.027
 5150SOL    HW116202   3.054   2.643  10.002
 5150SOL    HW216203   2.937   2.591  10.103
 5151SOL     OW16204   3.617   2.469   9.541
 5151SOL    HW116205   3.605   2.456   9.442
 5151SOL    HW216206   3.587   2.388   9.590
 5152SOL     OW16207   2.630   3.006  10.333
 5152SOL    HW116208   2.552   3.023  10.393
 5152SOL    HW216209   2.664   3.093  10.297
 5153SOL     OW16210   2.712   2.660  11.133
 5153SOL    HW116211   2.708   2.736  11.198
 5153SOL    HW216212   2.734   2.696  11.042
 5154SOL     OW16213   2.547   2.874   9.975
 5154SOL    HW116214   2.616   2.858  10.045
 5154SOL    HW216215   2.474   2.931  10.013
 5155SOL     OW16216   2.197   3.297  10.371
 5155SOL    HW116217   2.119   3.266  10.318
 5155SOL    HW216218   2.255   3.355  10.314
 5156SOL     OW16219   3.322   3.367  10.649
 5156SOL    HW116220   3.346   3.461  10.675
 5156SOL    HW216221   3.306   3.313  10.731
 5157SOL     OW16222   3.465   2.309  10.047
 5157SOL    HW116223   3.391   2.355   9.997
 5157SOL    HW216224   3.516   2.377  10.100
 5158SOL     OW16225   2.093   3.575   9.793
 5158SOL    HW116226   2.127   3.652   9.847
 5158SOL    HW216227   2.137   3.575   9.703
 5159SOL     OW16228   2.092   3.296   9.848
 5159SOL    HW116229   2.066   3.392   9.848
 5159SOL    HW216230   2.021   3.242   9.893
 5160SOL     OW16231   2.102   2.953  10.196
 5160SOL    HW116232   2.116   2.869  10.248
 5160SOL    HW216233   2.047   3.017  10.251
 5161SOL     OW16234   2.482   3.648  10.749
 5161SOL    HW116235   2.390   3.631  10.784
 5161SOL    HW216236   2.510   3.740  10.775
 5162SOL     OW16237   2.468   2.826   9.433
 5162SOL    HW116238   2.475   2.910   9.379
 5162SOL    HW216239   2.514   2.839   9.521
 5163SOL     OW16240   3.456   1.976  10.790
 5163SOL    HW116241   3.438   2.043  10.718
 5163SOL    HW216242   3.453   2.022  10.879
 5164SOL     OW16243   1.984   2.505   9.873
 5164SOL    HW116244   1.939   2.417   9.890
 5164SOL    HW216245   1.983   2.559   9.957
 5165SOL     OW16246   3.704   3.629   9.669
 5165SOL    HW116247   3.758   3.600   9.749
 5165SOL    HW216248   3.734   3.719   9.640
 5166SOL     OW16249   1.889   3.458   9.427
 5166SOL    HW116250   1.870   3.362   9.448
 5166SOL    HW216251   1.856   3.516   9.502
 5167SOL     OW16252   3.551   2.784   9.922
 5167SOL    HW116253   3.646   2.755   9.930
 5167SOL    HW216254   3.543   2.849   9.847
 5168SOL     OW16255   3.503   2.970   9.742
 5168SOL    HW116256   3.589   2.972   9.690
 5168SOL    HW216257   3.517   3.017   9.830
 5169SOL     OW16258   1.975   2.599  10.907
 5169SOL    HW116259   2.063   2.586  10.952
 5169SOL    HW216260   1.962   2.696  10.885
 5170SOL     OW16261   2.475   3.227  10.036
 5170SOL    HW116262   2.426   3.140  10.045
 5170SOL    HW216263   2.452   3.270   9.949
 5171SOL     OW16264   3.155   3.090  10.733
 5171SOL    HW116265   3.192   3.017  10.675
 5171SOL    HW216266   3.207   3.095  10.818
 5172SOL     OW16267   2.671   1.866   9.812
 5172SOL    HW116268   2.711   1.957   9.803
 5172SOL    HW216269   2.571   1.874   9.818
 5173SOL     OW16270   2.059   2.838  10.574
 5173SOL    HW116271   2.148   2.793  10.560
 5173SOL    HW216272   1.986   2.773  10.555
 5174SOL     OW16273   3.387   2.861   9.500
 5174SOL    HW116274   3.324   2.785   9.513
 5174SOL    HW216275   3.435   2.879   9.586
 5175SOL     OW16276   3.049   3.654  10.926
 5175SOL    HW116277   3.073   3.714  10.850
 5175SOL    HW216278   3.056   3.559  10.896
 5176SOL     OW16279   3.328   3.279  10.263
 5176SOL    HW116280   3.269   3.285  10.343
 5176SOL    HW216281   3.313   3.191  10.217
 5177SOL     OW16282   3.529   3.576   9.882
 5177SOL    HW116283   3.488   3.553   9.794
 5177SOL    HW216284   3.511   3.502   9.947
 5178SOL     OW16285   2.460   2.591   9.580
 5178SOL    HW116286   2.484   2.660   9.512
 5178SOL    HW216287   2.382   2.624   9.634
 5179SOL     OW16288   3.143   2.207  10.254
 5179SOL    HW116289   3.057   2.157  10.241
 5179SOL    HW216290   3.205   2.153  10.310
 5180SOL     OW16291   3.438   3.524   9.617
 5180SOL    HW116292   3.527   3.570   9.620
 5180SOL    HW216293   3.417   3.500   9.522
 5181SOL     OW16294   2.835   2.752  10.882
 5181SOL    HW116295   2.881   2.668  10.853
 5181SOL    HW216296   2.779   2.786  10.807
 5182SOL     OW16297   2.853   2.272  10.552
 5182SOL    HW116298   2.776   2.306  10.606
 5182SOL    HW216299   2.819   2.221  10.473
 5183SOL     OW16300   2.903   2.563   9.739
 5183SOL    HW116301   2.929   2.559   9.835
 5183SOL    HW216302   2.818   2.512   9.725
 5184SOL     OW16303   1.938   2.673  10.099
 5184SOL    HW116304   2.037   2.661  10.108
 5184SOL    HW216305   1.914   2.768  10.120
 5185SOL     OW16306   1.992   3.683  10.881
 5185SOL    HW116307   1.982   3.668  10.980
 5185SOL    HW216308   1.906   3.719  10.845
 5186SOL     OW16309   2.727   2.210   9.505
 5186SOL    HW116310   2.786   2.273   9.456
 5186SOL    HW216311   2.746   2.116   9.476
 5187SOL     OW16312   3.224   3.006   9.855
 5187SOL    HW116313   3.307   2.977   9.807
 5187SOL    HW216314   3.175   3.073   9.799
 5188SOL     OW16315   2.870   3.318   9.787
 5188SOL    HW116316   2.824   3.390   9.735
 5188SOL    HW216317   2.866   3.338   9.885
 5189SOL     OW16318   2.213   3.663  10.163
 5189SOL    HW116319   2.263   3.577  10.169
 5189SOL    HW216320   2.278   3.740  10.160
 5190SOL     OW16321   3.657   2.928  10.183
 5190SOL    HW116322   3.595   2.913  10.107
 5190SOL    HW216323   3.605   2.939  10.268
 5191SOL     OW16324   3.089   3.412  10.816
 5191SOL    HW116325   3.095   3.335  10.880
 5191SOL    HW216326   3.037   3.386  10.736
 5192SOL     OW16327   2.183   2.805   9.552
 5192SOL    HW116328   2.265   2.844   9.510
 5192SOL    HW216329   2.156   2.723   9.503
 5193SOL     OW16330   3.320   2.597  10.038
 5193SOL    HW116331   3.315   2.532  10.113
 5193SOL    HW216332   3.400   2.656  10.051
 5194SOL     OW16333   2.323   3.128  11.037
 5194SOL    HW116334   2.273   3.129  10.951
 5194SOL    HW216335   2.260   3.110  11.113
 5195SOL     OW16336   2.973   3.638   9.547
 5195SOL    HW116337   2.913   3.576   9.597
 5195SOL    HW216338   3.004   3.594   9.462
 5196SOL     OW16339   3.494   3.239   9.391
 5196SOL    HW116340   3.462   3.333   9.381
 5196SOL    HW216341   3.418   3.176   9.379
 5197SOL     OW16342   2.326   3.605   9.633
 5197SOL    HW116343   2.359   3.644   9.719
 5197SOL    HW216344   2.402   3.598   9.568
 5198SOL     OW16345   3.262   1.969   9.736
 5198SOL    HW116346   3.238   1.932   9.646
 5198SOL    HW216347   3.361   1.985   9.740
 5199SOL     OW16348   2.111   3.647  10.551
 5199SOL    HW116349   2.168   3.582  10.601
 5199SOL    HW216350   2.095   3.614  10.458
 5200SOL     OW16351   2.802   3.560  10.214
 5200SOL    HW116352   2.882   3.503  10.235
 5200SOL    HW216353   2.753   3.520  10.137
 5201SOL     OW16354   2.476   1.984   9.427
 5201SOL    HW116355   2.574   1.962   9.434
 5201SOL    HW216356   2.445   1.967   9.334
 5202SOL     OW16357   2.643   2.126  11.059
 5202SOL    HW116358   2.710   2.065  11.102
 5202SOL    HW216359   2.570   2.145  11.124
 5203SOL     OW16360   2.750   3.376  10.505
 5203SOL    HW116361   2.727   3.351  10.411
 5203SOL    HW216362   2.811   3.307  10.544
 5204SOL     OW16363   3.213   2.452  10.743
 5204SOL    HW116364   3.241   2.409  10.828
 5204SOL    HW216365   3.238   2.548  10.744
 5205SOL     OW16366   2.665   3.264  10.234
 5205SOL    HW116367   2.755   3.278  10.192
 5205SOL    HW216368   2.594   3.266  10.163
 5206SOL     OW16369   2.784   2.365  10.209
 5206SOL    HW116370   2.759   2.356  10.113
 5206SOL    HW216371   2.832   2.283  10.240
 5207SOL     OW16372   2.401   1.926   9.822
 5207SOL    HW116373   2.320   1.927   9.880
 5207SOL    HW216374   2.404   2.009   9.767
 5208SOL     OW16375   3.296   3.050   9.351
 5208SOL    HW116376   3.328   2.974   9.408
 5208SOL    HW216377   3.204   3.077   9.381
 5209SOL     OW16378   2.797   2.098   9.790
 5209SOL    HW116379   2.749   2.139   9.712
 5209SOL    HW216380   2.896   2.096   9.771
 5210SOL     OW16381   2.938   2.545  10.774
 5210SOL    HW116382   2.858   2.484  10.777
 5210SOL    HW216383   3.019   2.492  10.750
 5211SOL     OW16384   3.089   3.432  10.103
 5211SOL    HW116385   3.110   3.506  10.038
 5211SOL    HW216386   3.157   3.432  10.176
 5212SOL     OW16387   2.321   3.014  10.051
 5212SOL    HW116388   2.250   2.987  10.116
 5212SOL    HW216389   2.295   2.986   9.958
 5213SOL     OW16390   3.133   3.659   9.901
 5213SOL    HW116391   3.177   3.723   9.837
 5213SOL    HW216392   3.083   3.711   9.971
 5214SOL     OW16393   2.894   2.411   9.326
 5214SOL    HW116394   2.853   2.493   9.287
 5214SOL    HW216395   2.958   2.437   9.399
 5215SOL     OW16396   1.940   2.418  10.696
 5215SOL    HW116397   2.032   2.417  10.655
 5215SOL    HW216398   1.934   2.492  10.763
 5216SOL     OW16399   2.728   2.316   9.952
 5216SOL    HW116400   2.696   2.388   9.890
 5216SOL    HW216401   2.752   2.235   9.899
 5217SOL     OW16402   2.879   1.901  10.063
 5217SOL    HW116403   2.807   1.906   9.994
 5217SOL    HW216404   2.855   1.832  10.132
 5218SOL     OW16405   3.291   3.035  10.177
 5218SOL    HW116406   3.236   2.951  10.170
 5218SOL    HW216407   3.317   3.064  10.085
 5219SOL     OW16408   3.328   2.452  10.302
 5219SOL    HW116409   3.298   2.357  10.309
 5219SOL    HW216410   3.401   2.468  10.368
 5220SOL     OW16411   3.719   2.695   9.687
 5220SOL    HW116412   3.761   2.631   9.751
 5220SOL    HW216413   3.681   2.644   9.609
 5221SOL     OW16414   2.350   3.247   9.484
 5221SOL    HW116415   2.263   3.232   9.531
 5221SOL    HW216416   2.333   3.273   9.389
 5222SOL     OW16417   3.526   3.142   9.967
 5222SOL    HW116418   3.625   3.150   9.981
 5222SOL    HW216419   3.481   3.226   9.998
 5223SOL     OW16420   3.252   2.437   9.388
 5223SOL    HW116421   3.198   2.416   9.469
 5223SOL    HW216422   3.343   2.396   9.397
 5224SOL     OW16423   3.616   3.085  10.898
 5224SOL    HW116424   3.707   3.046  10.885
 5224SOL    HW216425   3.624   3.181  10.922
 5225SOL     OW16426   2.926   3.209  10.650
 5225SOL    HW116427   2.846   3.186  10.705
 5225SOL    HW216428   3.009   3.183  10.699
 5226SOL     OW16429   2.973   3.057  10.410
 5226SOL    HW116430   2.933   3.101  10.491
 5226SOL    HW216431   2.932   3.094  10.327
 5227SOL     OW16432   3.500   2.961  10.389
 5227SOL    HW116433   3.505   3.042  10.448
 5227SOL    HW216434   3.414   2.963  10.338
 5228SOL     OW16435   2.777   1.951  10.712
 5228SOL    HW116436   2.802   1.931  10.617
 5228SOL    HW216437   2.849   2.007  10.754
 5229SOL     OW16438   2.567   2.912   9.678
 5229SOL    HW116439   2.553   2.919   9.777
 5229SOL    HW216440   2.651   2.861   9.660
 5230SOL     OW16441   2.272   2.675  10.561
 5230SOL    HW116442   2.358   2.687  10.611
 5230SOL    HW216443   2.230   2.588  10.588
 5231SOL     OW16444   3.136   2.248  10.572
 5231SOL    HW116445   3.157   2.322  10.636
 5231SOL    HW216446   3.047   2.265  10.529
 5232SOL     OW16447   1.926   3.426  10.641
 5232SOL    HW116448   1.880   3.508  10.607
 5232SOL    HW216449   2.024   3.445  10.650
 5233SOL     OW16450   2.229   2.962   9.811
 5233SOL    HW116451   2.222   3.045   9.755
 5233SOL    HW216452   2.233   2.882   9.751
 5234SOL     OW16453   3.114   3.210   9.698
 5234SOL    HW116454   3.164   3.287   9.738
 5234SOL    HW216455   3.019   3.212   9.730
 5235SOL     OW16456   3.134   3.307  10.452
 5235SOL    HW116457   3.181   3.320  10.539
 5235SOL    HW216458   3.068   3.233  10.461
 5236SOL     OW16459   3.444   2.501   9.782
 5236SOL    HW116460   3.413   2.562   9.855
 5236SOL    HW216461   3.494   2.553   9.713
 5237SOL     OW16462   2.216   3.372  10.639
 5237SOL    HW116463   2.195   3.328  10.552
 5237SOL    HW216464   2.313   3.398  10.642
 5238SOL     OW16465   3.449   2.641  10.980
 5238SOL    HW116466   3.357   2.679  10.975
 5238SOL    HW216467   3.509   2.688  10.915
 5239SOL     OW16468   2.435   2.732  10.339
 5239SOL    HW116469   2.479   2.821  10.330
 5239SOL    HW216470   2.372   2.732  10.416
 5240SOL     OW16471   3.222   2.724  10.355
 5240SOL    HW116472   3.147   2.724  10.289
 5240SOL    HW216473   3.259   2.632  10.364
 5241SOL     OW16474   3.071   2.387   9.585
 5241SOL    HW116475   3.084   2.303   9.639
 5241SOL    HW216476   3.042   2.461   9.645
 5242SOL     OW16477   1.899   3.172  10.592
 5242SOL    HW116478   1.952   3.123  10.660
 5242SOL    HW216479   1.921   3.270  10.597
 5243SOL     OW16480   2.594   2.496  10.374
 5243SOL    HW116481   2.653   2.470  10.298
 5243SOL    HW216482   2.566   2.592  10.363
 5244SOL     OW16483   3.484   2.229   9.684
 5244SOL    HW116484   3.486   2.153   9.748
 5244SOL    HW216485   3.436   2.306   9.724
 5245SOL     OW16486   2.885   2.628  10.276
 5245SOL    HW116487   2.900   2.649  10.372
 5245SOL    HW216488   2.855   2.533  10.267
 5246SOL     OW16489   2.842   3.435  11.010
 5246SOL    HW116490   2.822   3.479  10.922
 5246SOL    HW216491   2.881   3.344  10.994
 5247SOL     OW16492   3.721   3.380  10.915
 5247SOL    HW116493   3.735   3.407  10.820
 5247SOL    HW216494   3.804   3.402  10.968
 5248SOL     OW16495   2.212   2.760  11.114
 5248SOL    HW116496   2.288   2.804  11.162
 5248SOL    HW216497   2.247   2.713  11.032
 5249SOL     OW16498   3.402   2.136   9.435
 5249SOL    HW116499   3.341   2.061   9.458
 5249SOL    HW216500   3.424   2.188   9.518
 5250SOL     OW16501   3.165   2.700   9.352
 5250SOL    HW116502   3.199   2.607   9.367
 5250SOL    HW216503   3.183   2.727   9.257
 5251SOL     OW16504   2.930   3.195  10.159
 5251SOL    HW116505   2.937   3.111  10.104
 5251SOL    HW216506   2.992   3.264  10.123
 5252SOL     OW16507   2.181   2.672  10.259
 5252SOL    HW116508   2.274   2.708  10.264
 5252SOL    HW216509   2.175   2.587  10.311
 5253SOL     OW16510   3.022   2.069  10.787
 5253SOL    HW116511   3.022   2.133  10.864
 5253SOL    HW216512   3.050   2.117  10.704
 5254SOL     OW16513   1.870   3.188   9.510
 5254SOL    HW116514   1.777   3.209   9.479
 5254SOL    HW216515   1.880   3.089   9.523
 5255SOL     OW16516   1.950   3.663  10.237
 5255SOL    HW116517   1.908   3.577  10.210
 5255SOL    HW216518   2.044   3.666  10.203
 5256SOL     OW16519   2.366   3.430  10.220
 5256SOL    HW116520   2.432   3.504  10.229
 5256SOL    HW216521   2.410   3.351  10.178
 5257SOL     OW16522   2.864   2.658  10.548
 5257SOL    HW116523   2.905   2.626  10.634
 5257SOL    HW216524   2.768   2.631  10.545
 5258SOL     OW16525   1.902   2.406  10.424
 5258SOL    HW116526   1.987   2.373  10.383
 5258SOL    HW216527   1.915   2.421  10.522
 5259SOL     OW16528   2.677   2.434   9.635
 5259SOL    HW116529   2.684   2.345   9.589
 5259SOL    HW216530   2.583   2.468   9.627
 5260SOL     OW16531   3.519   2.466  10.516
 5260SOL    HW116532   3.481   2.397  10.578
 5260SOL    HW216533   3.601   2.430  10.472
 5261SOL     OW16534   2.114   3.426  11.054
 5261SOL    HW116535   2.084   3.483  11.130
 5261SOL    HW216536   2.107   3.329  11.080
 5262SOL     OW16537   2.792   3.540  10.775
 5262SOL    HW116538   2.768   3.522  10.680
 5262SOL    HW216539   2.822   3.634  10.785
 5263SOL     OW16540   2.021   2.999  10.776
 5263SOL    HW116541   2.043   2.938  10.852
 5263SOL    HW216542   2.031   2.950  10.690
 5264SOL     OW16543   3.209   2.921  10.544
 5264SOL    HW116544   3.233   2.858  10.470
 5264SOL    HW216545   3.119   2.961  10.526
 5265SOL     OW16546   3.164   2.717   9.619
 5265SOL    HW116547   3.078   2.686   9.661
 5265SOL    HW216548   3.160   2.703   9.520
 5266SOL     OW16549   3.621   3.609  10.464
 5266SOL    HW116550   3.682   3.639  10.391
 5266SOL    HW216551   3.583   3.520  10.442
 5267SOL     OW16552   3.114   3.593  10.438
 5267SOL    HW116553   3.198   3.598  10.384
 5267SOL    HW216554   3.091   3.497  10.456
 5268SOL     OW16555   1.945   3.120  10.332
 5268SOL    HW116556   1.940   3.119  10.432
 5268SOL    HW216557   1.862   3.079  10.294
 5269SOL     OW16558   3.588   1.997   9.833
 5269SOL    HW116559   3.661   1.980   9.766
 5269SOL    HW216560   3.557   1.910   9.871
 5270SOL     OW16561   3.250   3.435   9.787
 5270SOL    HW116562   3.317   3.447   9.713
 5270SOL    HW216563   3.210   3.524   9.810
 5271SOL     OW16564   3.142   2.789   9.982
 5271SOL    HW116565   3.202   2.708   9.984
 5271SOL    HW216566   3.182   2.858   9.922
 5272SOL     OW16567   2.692   3.135  10.732
 5272SOL    HW116568   2.687   3.168  10.827
 5272SOL    HW216569   2.606   3.154  10.686
 5273SOL     OW16570   2.534   3.478   9.464
 5273SOL    HW116571   2.543   3.488   9.365
 5273SOL    HW216572   2.494   3.389   9.485
 5274SOL     OW16573   3.512   3.582  10.704
 5274SOL    HW116574   3.565   3.592  10.620
 5274SOL    HW216575   3.485   3.672  10.738
 5275SOL     OW16576   3.703   2.037  10.273
 5275SOL    HW116577   3.742   1.952  10.237
 5275SOL    HW216578   3.605   2.039  10.254
 5276SOL     OW16579   3.056   3.474   9.341
 5276SOL    HW116580   3.062   3.381   9.378
 5276SOL    HW216581   2.997   3.474   9.261
 5277SOL     OW16582   2.684   2.864  10.682
 5277SOL    HW116583   2.724   2.863  10.590
 5277SOL    HW216584   2.694   2.956  10.722
 5278SOL     OW16585   2.778   2.772   9.601
 5278SOL    HW116586   2.841   2.810   9.533
 5278SOL    HW216587   2.818   2.689   9.640
 5279SOL     OW16588   3.366   3.469   9.354
 5279SOL    HW116589   3.274   3.506   9.361
 5279SOL    HW216590   3.404   3.489   9.264
 5280SOL     OW16591   2.234   3.150  10.800
 5280SOL    HW116592   2.221   3.243  10.766
 5280SOL    HW216593   2.150   3.098  10.787
 5281SOL     OW16594   3.476   3.154  10.599
 5281SOL    HW116595   3.536   3.157  10.679
 5281SOL    HW216596   3.401   3.218  10.612
 5282SOL     OW16597   2.901   2.960  10.006
 5282SOL    HW116598   2.831   2.913  10.060
 5282SOL    HW216599   2.960   2.892   9.963
 5283SOL     OW16600   2.876   2.098  10.281
 5283SOL    HW116601   2.868   2.062  10.188
 5283SOL    HW216602   2.874   2.022  10.346
 5284SOL     OW16603   2.452   3.349   9.801
 5284SOL    HW116604   2.494   3.291   9.731
 5284SOL    HW216605   2.408   3.428   9.757
 5285SOL     OW16606   3.571   2.247  10.691
 5285SOL    HW116607   3.644   2.316  10.695
 5285SOL    HW216608   3.599   2.172  10.632
 5286SOL     OW16609   2.117   3.210   9.600
 5286SOL    HW116610   2.021   3.211   9.573
 5286SOL    HW216611   2.129   3.263   9.684
 5287SOL     OW16612   1.967   2.875  11.036
 5287SOL    HW116613   1.890   2.842  11.090
 5287SOL    HW216614   2.052   2.845  11.078
 5288SOL     OW16615   2.534   2.065  10.799
 5288SOL    HW116616   2.624   2.049  10.759
 5288SOL    HW216617   2.542   2.070  10.898
 5289SOL     OW16618   3.302   2.718  10.708
 5289SOL    HW116619   3.245   2.770  10.645
 5289SOL    HW216620   3.398   2.730  10.684
 5290SOL     OW16621   1.934   2.028   9.628
 5290SOL    HW116622   1.917   2.111   9.574
 5290SOL    HW216623   2.024   1.991   9.606
 5291SOL     OW16624   3.045   3.197   9.429
 5291SOL    HW116625   2.946   3.186   9.431
 5291SOL    HW216626   3.079   3.212   9.522
 5292SOL     OW16627   2.475   2.704  10.741
 5292SOL    HW116628   2.531   2.785  10.724
 5292SOL    HW216629   2.534   2.624  10.744
 5293SOL     OW16630   3.355   3.629  10.269
 5293SOL    HW116631   3.388   3.693  10.200
 5293SOL    HW216632   3.421   3.623  10.344
 5294SOL     OW16633   2.578   2.427  11.018
 5294SOL    HW116634   2.597   2.492  11.092
 5294SOL    HW216635   2.638   2.347  11.027
 5295SOL     OW16636   2.252   3.603  10.870
 5295SOL    HW116637   2.161   3.644  10.868
 5295SOL    HW216638   2.245   3.509  10.902
 5296SOL     OW16639   3.536   2.745  10.564
 5296SOL    HW116640   3.509   2.656  10.527
 5296SOL    HW216641   3.537   2.813  10.491
 5297SOL     OW16642   3.087   2.187   9.759
 5297SOL    HW116643   3.152   2.113   9.748
 5297SOL    HW216644   3.107   2.237   9.843
 5298SOL     OW16645   2.456   2.607   9.962
 5298SOL    HW116646   2.506   2.692   9.943
 5298SOL    HW216647   2.368   2.609   9.914
 5299SOL     OW16648   3.639   2.204  10.952
 5299SOL    HW116649   3.622   2.235  10.858
 5299SOL    HW216650   3.555   2.167  10.990
 5300SOL     OW16651   3.592   2.796  10.827
 5300SOL    HW116652   3.630   2.887  10.842
 5300SOL    HW216653   3.584   2.779  10.728
 5301SOL     OW16654   2.721   3.236   9.326
 5301SOL    HW116655   2.675   3.251   9.414
 5301SOL    HW216656   2.765   3.321   9.296
 5302SOL     OW16657   2.523   3.652  10.263
 5302SOL    HW116658   2.477   3.740  10.250
 5302SOL    HW216659   2.622   3.664  10.256
 5303SOL     OW16660   2.721   2.818  10.171
 5303SOL    HW116661   2.775   2.749  10.219
 5303SOL    HW216662   2.689   2.887  10.237
 5304SOL     OW16663   2.945   2.846   9.397
 5304SOL    HW116664   2.922   2.899   9.315
 5304SOL    HW216665   3.026   2.790   9.378
 5305SOL     OW16666   3.723   3.431  10.161
 5305SOL    HW116667   3.652   3.419  10.091
 5305SOL    HW216668   3.724   3.352  10.221
 5306SOL     OW16669   1.941   3.102   9.963
 5306SOL    HW116670   1.940   3.055  10.051
 5306SOL    HW216671   2.023   3.074   9.912
 5307SOL     OW16672   2.534   3.253  10.934
 5307SOL    HW116673   2.456   3.203  10.972
 5307SOL    HW216674   2.531   3.348  10.965
 5308SOL     OW16675   3.686   2.054  10.537
 5308SOL    HW116676   3.682   1.964  10.581
 5308SOL    HW216677   3.689   2.043  10.438
 5309SOL     OW16678   3.567   3.349  10.414
 5309SOL    HW116679   3.474   3.324  10.387
 5309SOL    HW216680   3.593   3.299  10.496
 5310SOL     OW16681   2.674   3.448   9.997
 5310SOL    HW116682   2.706   3.458   9.903
 5310SOL    HW216683   2.595   3.386   9.999
 5311SOL     OW16684   3.286   2.076  10.422
 5311SOL    HW116685   3.338   2.011  10.477
 5311SOL    HW216686   3.237   2.139  10.483
 5312SOL     OW16687   2.863   1.896  10.464
 5312SOL    HW116688   2.800   1.824  10.433
 5312SOL    HW216689   2.956   1.860  10.464
 5313SOL     OW16690   2.632   3.192   9.611
 5313SOL    HW116691   2.586   3.105   9.628
 5313SOL    HW216692   2.723   3.189   9.652
 5314SOL     OW16693   2.480   3.429  10.594
 5314SOL    HW116694   2.475   3.511  10.651
 5314SOL    HW216695   2.569   3.426  10.549
 5315SOL     OW16696   3.214   1.914   9.478
 5315SOL    HW116697   3.249   1.873   9.394
 5315SOL    HW216698   3.124   1.876   9.498
 5316SOL     OW16699   3.162   2.315  10.001
 5316SOL    HW116700   3.103   2.395  10.005
 5316SOL    HW216701   3.177   2.280  10.094
 5317SOL     OW16702   3.455   2.083  10.192
 5317SOL    HW116703   3.371   2.082  10.246
 5317SOL    HW216704   3.457   2.166  10.136
 5318SOL     OW16705   1.901   2.939   9.610
 5318SOL    HW116706   2.000   2.928   9.601
 5318SOL    HW216707   1.861   2.853   9.642
 5319SOL     OW16708   2.737   3.508   9.647
 5319SOL    HW116709   2.660   3.473   9.593
 5319SOL    HW216710   2.705   3.579   9.709
 5320SOL     OW16711   2.092   4.352   0.113
 5320SOL    HW116712   1.999   4.350   0.150
 5320SOL    HW216713   2.093   4.313   0.021
 5321SOL     OW16714   2.087   3.999   0.996
 5321SOL    HW116715   2.122   3.982   1.088
 5321SOL    HW216716   1.999   3.954   0.984
 5322SOL     OW16717   1.881   4.092   0.647
 5322SOL    HW116718   1.799   4.135   0.686
 5322SOL    HW216719   1.853   4.019   0.584
 5323SOL     OW16720   3.617   4.331   0.231
 5323SOL    HW116721   3.605   4.318   0.132
 5323SOL    HW216722   3.587   4.250   0.280
 5324SOL     OW16723   2.547   4.736   0.665
 5324SOL    HW116724   2.616   4.720   0.735
 5324SOL    HW216725   2.474   4.793   0.703
 5325SOL     OW16726   2.300   4.116   1.499
 5325SOL    HW116727   2.382   4.060   1.508
 5325SOL    HW216728   2.219   4.058   1.503
 5326SOL     OW16729   3.465   4.171   0.737
 5326SOL    HW116730   3.391   4.217   0.687
 5326SOL    HW216731   3.516   4.239   0.790
 5327SOL     OW16732   3.456   3.838   1.480
 5327SOL    HW116733   3.438   3.905   1.408
 5327SOL    HW216734   3.453   3.884   1.569
 5328SOL     OW16735   1.984   4.367   0.563
 5328SOL    HW116736   1.939   4.279   0.580
 5328SOL    HW216737   1.983   4.421   0.647
 5329SOL     OW16738   1.975   4.461   1.597
 5329SOL    HW116739   2.063   4.448   1.642
 5329SOL    HW216740   1.962   4.558   1.575
 5330SOL     OW16741   2.671   3.728   0.502
 5330SOL    HW116742   2.711   3.819   0.493
 5330SOL    HW216743   2.571   3.736   0.508
 5331SOL     OW16744   2.179   3.975   1.801
 5331SOL    HW116745   2.250   4.046   1.807
 5331SOL    HW216746   2.091   4.014   1.829
 5332SOL     OW16747   3.143   4.069   0.944
 5332SOL    HW116748   3.057   4.019   0.931
 5332SOL    HW216749   3.205   4.015   1.000
 5333SOL     OW16750   2.669   4.329   1.465
 5333SOL    HW116751   2.622   4.326   1.554
 5333SOL    HW216752   2.618   4.274   1.399
 5334SOL     OW16753   3.256   4.193   1.674
 5334SOL    HW116754   3.236   4.236   1.762
 5334SOL    HW216755   3.334   4.131   1.683
 5335SOL     OW16756   2.853   4.134   1.242
 5335SOL    HW116757   2.776   4.168   1.296
 5335SOL    HW216758   2.819   4.083   1.163
 5336SOL     OW16759   2.903   4.425   0.429
 5336SOL    HW116760   2.929   4.421   0.525
 5336SOL    HW216761   2.818   4.374   0.415
 5337SOL     OW16762   2.727   4.072   0.195
 5337SOL    HW116763   2.786   4.135   0.146
 5337SOL    HW216764   2.746   3.978   0.166
 5338SOL     OW16765   3.581   4.309   1.831
 5338SOL    HW116766   3.555   4.398   1.795
 5338SOL    HW216767   3.579   4.241   1.758
 5339SOL     OW16768   2.412   3.920   0.885
 5339SOL    HW116769   2.407   3.915   0.985
 5339SOL    HW216770   2.414   4.016   0.856
 5340SOL     OW16771   3.320   4.459   0.728
 5340SOL    HW116772   3.315   4.394   0.803
 5340SOL    HW216773   3.400   4.518   0.741
 5341SOL     OW16774   2.064   4.009   1.498
 5341SOL    HW116775   1.984   4.069   1.485
 5341SOL    HW216776   2.054   3.960   1.584
 5342SOL     OW16777   3.262   3.831   0.426
 5342SOL    HW116778   3.238   3.794   0.336
 5342SOL    HW216779   3.361   3.847   0.430
 5343SOL     OW16780   2.244   4.424   0.480
 5343SOL    HW116781   2.289   4.334   0.477
 5343SOL    HW216782   2.150   4.413   0.513
 5344SOL     OW16783   3.409   3.946   1.729
 5344SOL    HW116784   3.404   3.983   1.821
 5344SOL    HW216785   3.337   3.877   1.717
 5345SOL     OW16786   2.476   3.846   0.117
 5345SOL    HW116787   2.574   3.824   0.124
 5345SOL    HW216788   2.445   3.829   0.024
 5346SOL     OW16789   2.643   3.988   1.749
 5346SOL    HW116790   2.710   3.927   1.792
 5346SOL    HW216791   2.570   4.007   1.814
 5347SOL     OW16792   3.213   4.314   1.433
 5347SOL    HW116793   3.241   4.271   1.518
 5347SOL    HW216794   3.238   4.410   1.434
 5348SOL     OW16795   2.784   4.227   0.899
 5348SOL    HW116796   2.759   4.218   0.803
 5348SOL    HW216797   2.832   4.145   0.930
 5349SOL     OW16798   2.401   3.788   0.512
 5349SOL    HW116799   2.320   3.789   0.570
 5349SOL    HW216800   2.404   3.871   0.457
 5350SOL     OW16801   2.159   3.759   0.171
 5350SOL    HW116802   2.208   3.843   0.150
 5350SOL    HW216803   2.221   3.694   0.216
 5351SOL     OW16804   2.797   3.960   0.480
 5351SOL    HW116805   2.749   4.001   0.402
 5351SOL    HW216806   2.896   3.958   0.461
 5352SOL     OW16807   2.938   4.407   1.464
 5352SOL    HW116808   2.858   4.346   1.467
 5352SOL    HW216809   3.019   4.354   1.440
 5353SOL     OW16810   2.894   4.273   0.016
 5353SOL    HW116811   2.853   4.355  -0.023
 5353SOL    HW216812   2.958   4.299   0.089
 5354SOL     OW16813   1.940   4.280   1.386
 5354SOL    HW116814   2.032   4.279   1.345
 5354SOL    HW216815   1.934   4.354   1.453
 5355SOL     OW16816   2.423   3.946   1.147
 5355SOL    HW116817   2.461   3.862   1.184
 5355SOL    HW216818   2.335   3.965   1.191
 5356SOL     OW16819   2.728   4.178   0.642
 5356SOL    HW116820   2.696   4.250   0.580
 5356SOL    HW216821   2.752   4.097   0.589
 5357SOL     OW16822   2.879   3.763   0.753
 5357SOL    HW116823   2.807   3.768   0.684
 5357SOL    HW216824   2.855   3.694   0.822
 5358SOL     OW16825   3.328   4.314   0.992
 5358SOL    HW116826   3.298   4.219   0.999
 5358SOL    HW216827   3.401   4.330   1.058
 5359SOL     OW16828   3.252   4.299   0.078
 5359SOL    HW116829   3.198   4.278   0.159
 5359SOL    HW216830   3.343   4.258   0.087
 5360SOL     OW16831   2.389   3.980   0.328
 5360SOL    HW116832   2.416   3.921   0.253
 5360SOL    HW216833   2.389   4.075   0.297
 5361SOL     OW16834   2.777   3.813   1.402
 5361SOL    HW116835   2.802   3.793   1.307
 5361SOL    HW216836   2.849   3.869   1.444
 5362SOL     OW16837   2.272   4.537   1.251
 5362SOL    HW116838   2.358   4.549   1.301
 5362SOL    HW216839   2.230   4.450   1.278
 5363SOL     OW16840   3.136   4.110   1.262
 5363SOL    HW116841   3.157   4.184   1.326
 5363SOL    HW216842   3.047   4.127   1.219
 5364SOL     OW16843   2.428   4.261   0.865
 5364SOL    HW116844   2.440   4.327   0.791
 5364SOL    HW216845   2.474   4.295   0.948
 5365SOL     OW16846   3.444   4.363   0.472
 5365SOL    HW116847   3.413   4.424   0.545
 5365SOL    HW216848   3.494   4.415   0.403
 5366SOL     OW16849   2.875   3.829   1.770
 5366SOL    HW116850   2.881   3.914   1.718
 5366SOL    HW216851   2.907   3.753   1.713
 5367SOL     OW16852   2.366   3.774   1.740
 5367SOL    HW116853   2.324   3.717   1.670
 5367SOL    HW216854   2.300   3.843   1.772
 5368SOL     OW16855   3.071   4.249   0.275
 5368SOL    HW116856   3.084   4.165   0.329
 5368SOL    HW216857   3.042   4.323   0.335
 5369SOL     OW16858   2.169   3.937   1.231
 5369SOL    HW116859   2.146   3.974   1.321
 5369SOL    HW216860   2.139   3.842   1.225
 5370SOL     OW16861   2.594   4.358   1.064
 5370SOL    HW116862   2.653   4.332   0.988
 5370SOL    HW216863   2.566   4.454   1.053
 5371SOL     OW16864   3.590   4.659   1.854
 5371SOL    HW116865   3.544   4.652   1.765
 5371SOL    HW216866   3.528   4.703   1.920
 5372SOL     OW16867   2.169   3.787   0.618
 5372SOL    HW116868   2.158   3.881   0.651
 5372SOL    HW216869   2.164   3.724   0.695
 5373SOL     OW16870   3.484   4.091   0.374
 5373SOL    HW116871   3.486   4.015   0.438
 5373SOL    HW216872   3.436   4.168   0.414
 5374SOL     OW16873   3.402   3.998   0.125
 5374SOL    HW116874   3.341   3.923   0.148
 5374SOL    HW216875   3.424   4.050   0.208
 5375SOL     OW16876   2.181   4.534   0.949
 5375SOL    HW116877   2.274   4.570   0.954
 5375SOL    HW216878   2.175   4.449   1.001
 5376SOL     OW16879   2.201   4.233   1.006
 5376SOL    HW116880   2.149   4.150   0.989
 5376SOL    HW216881   2.278   4.238   0.942
 5377SOL     OW16882   3.000   4.104   1.678
 5377SOL    HW116883   2.955   4.167   1.742
 5377SOL    HW216884   3.093   4.135   1.661
 5378SOL     OW16885   3.022   3.931   1.477
 5378SOL    HW116886   3.022   3.995   1.554
 5378SOL    HW216887   3.050   3.979   1.394
 5379SOL     OW16888   1.902   4.268   1.114
 5379SOL    HW116889   1.987   4.235   1.073
 5379SOL    HW216890   1.915   4.283   1.212
 5380SOL     OW16891   2.051   4.244   1.722
 5380SOL    HW116892   2.110   4.204   1.652
 5380SOL    HW216893   1.993   4.315   1.681
 5381SOL     OW16894   2.677   4.296   0.325
 5381SOL    HW116895   2.684   4.207   0.279
 5381SOL    HW216896   2.583   4.330   0.317
 5382SOL     OW16897   3.519   4.328   1.206
 5382SOL    HW116898   3.481   4.259   1.268
 5382SOL    HW216899   3.601   4.292   1.162
 5383SOL     OW16900   2.533   4.188   1.269
 5383SOL    HW116901   2.499   4.099   1.239
 5383SOL    HW216902   2.559   4.242   1.189
 5384SOL     OW16903   2.335   4.224   0.191
 5384SOL    HW116904   2.396   4.304   0.195
 5384SOL    HW216905   2.240   4.255   0.198
 5385SOL     OW16906   2.765   3.810   0.133
 5385SOL    HW116907   2.816   3.811   0.047
 5385SOL    HW216908   2.821   3.768   0.204
 5386SOL     OW16909   3.588   3.859   0.523
 5386SOL    HW116910   3.661   3.842   0.456
 5386SOL    HW216911   3.557   3.772   0.561
 5387SOL     OW16912   3.142   4.651   0.672
 5387SOL    HW116913   3.202   4.570   0.674
 5387SOL    HW216914   3.182   4.720   0.612
 5388SOL     OW16915   3.703   3.899   0.963
 5388SOL    HW116916   3.742   3.814   0.927
 5388SOL    HW216917   3.605   3.901   0.944
 5389SOL     OW16918   2.125   4.050   0.720
 5389SOL    HW116919   2.046   4.101   0.686
 5389SOL    HW216920   2.116   4.035   0.818
 5390SOL     OW16921   2.901   4.822   0.696
 5390SOL    HW116922   2.831   4.775   0.750
 5390SOL    HW216923   2.960   4.754   0.653
 5391SOL     OW16924   2.876   3.960   0.971
 5391SOL    HW116925   2.868   3.924   0.878
 5391SOL    HW216926   2.874   3.884   1.036
 5392SOL     OW16927   3.571   4.109   1.381
 5392SOL    HW116928   3.644   4.178   1.385
 5392SOL    HW216929   3.599   4.034   1.322
 5393SOL     OW16930   2.534   3.927   1.489
 5393SOL    HW116931   2.624   3.911   1.449
 5393SOL    HW216932   2.542   3.932   1.588
 5394SOL     OW16933   1.937   4.069   0.033
 5394SOL    HW116934   1.845   4.041   0.004
 5394SOL    HW216935   1.968   4.146  -0.023
 5395SOL     OW16936   1.934   3.890   0.318
 5395SOL    HW116937   1.917   3.973   0.264
 5395SOL    HW216938   2.024   3.853   0.296
 5396SOL     OW16939   2.578   4.289   1.708
 5396SOL    HW116940   2.597   4.354   1.782
 5396SOL    HW216941   2.638   4.209   1.717
 5397SOL     OW16942   3.087   4.049   0.449
 5397SOL    HW116943   3.152   3.975   0.438
 5397SOL    HW216944   3.107   4.099   0.533
 5398SOL     OW16945   3.639   4.066   1.642
 5398SOL    HW116946   3.622   4.097   1.548
 5398SOL    HW216947   3.555   4.029   1.680
 5399SOL     OW16948   2.945   4.708   0.087
 5399SOL    HW116949   2.922   4.761   0.005
 5399SOL    HW216950   3.026   4.652   0.068
 5400SOL     OW16951   3.686   3.916   1.227
 5400SOL    HW116952   3.682   3.826   1.271
 5400SOL    HW216953   3.689   3.905   1.128
 5401SOL     OW16954   2.290   4.148   0.520
 5401SOL    HW116955   2.320   4.076   0.458
 5401SOL    HW216956   2.251   4.108   0.603
 5402SOL     OW16957   2.179   4.271   1.280
 5402SOL    HW116958   2.217   4.212   1.352
 5402SOL    HW216959   2.219   4.245   1.192
 5403SOL     OW16960   3.286   3.938   1.112
 5403SOL    HW116961   3.338   3.873   1.167
 5403SOL    HW216962   3.237   4.001   1.173
 5404SOL     OW16963   2.863   3.758   1.154
 5404SOL    HW116964   2.800   3.686   1.123
 5404SOL    HW216965   2.956   3.722   1.154
 5405SOL     OW16966   3.214   3.776   0.168
 5405SOL    HW116967   3.249   3.735   0.084
 5405SOL    HW216968   3.124   3.738   0.188
 5406SOL     OW16969   3.162   4.177   0.691
 5406SOL    HW116970   3.103   4.257   0.695
 5406SOL    HW216971   3.177   4.142   0.784
 5407SOL     OW16972   3.455   3.945   0.882
 5407SOL    HW116973   3.371   3.944   0.936
 5407SOL    HW216974   3.457   4.028   0.826
 5408SOL     OW16975   2.092   4.352   1.975
 5408SOL    HW116976   1.999   4.350   2.012
 5408SOL    HW216977   2.093   4.313   1.883
 5409SOL     OW16978   2.087   3.999   2.858
 5409SOL    HW116979   2.122   3.982   2.950
 5409SOL    HW216980   1.999   3.954   2.846
 5410SOL     OW16981   1.881   4.092   2.509
 5410SOL    HW116982   1.799   4.135   2.548
 5410SOL    HW216983   1.853   4.019   2.446
 5411SOL     OW16984   3.617   4.331   2.093
 5411SOL    HW116985   3.605   4.318   1.994
 5411SOL    HW216986   3.587   4.250   2.142
 5412SOL     OW16987   2.547   4.736   2.527
 5412SOL    HW116988   2.616   4.720   2.597
 5412SOL    HW216989   2.474   4.793   2.565
 5413SOL     OW16990   2.300   4.116   3.361
 5413SOL    HW116991   2.382   4.060   3.370
 5413SOL    HW216992   2.219   4.058   3.365
 5414SOL     OW16993   3.465   4.171   2.599
 5414SOL    HW116994   3.391   4.217   2.549
 5414SOL    HW216995   3.516   4.239   2.652
 5415SOL     OW16996   3.456   3.838   3.342
 5415SOL    HW116997   3.438   3.905   3.270
 5415SOL    HW216998   3.453   3.884   3.431
 5416SOL     OW16999   1.984   4.367   2.425
 5416SOL    HW117000   1.939   4.279   2.442
 5416SOL    HW217001   1.983   4.421   2.509
 5417SOL     OW17002   1.975   4.461   3.459
 5417SOL    HW117003   2.063   4.448   3.504
 5417SOL    HW217004   1.962   4.558   3.437
 5418SOL     OW17005   2.671   3.728   2.364
 5418SOL    HW117006   2.711   3.819   2.355
 5418SOL    HW217007   2.571   3.736   2.370
 5419SOL     OW17008   2.179   3.975   3.663
 5419SOL    HW117009   2.250   4.046   3.669
 5419SOL    HW217010   2.091   4.014   3.691
 5420SOL     OW17011   3.143   4.069   2.806
 5420SOL    HW117012   3.057   4.019   2.793
 5420SOL    HW217013   3.205   4.015   2.862
 5421SOL     OW17014   2.669   4.329   3.327
 5421SOL    HW117015   2.622   4.326   3.416
 5421SOL    HW217016   2.618   4.274   3.261
 5422SOL     OW17017   3.256   4.193   3.536
 5422SOL    HW117018   3.236   4.236   3.624
 5422SOL    HW217019   3.334   4.131   3.545
 5423SOL     OW17020   2.853   4.134   3.104
 5423SOL    HW117021   2.776   4.168   3.158
 5423SOL    HW217022   2.819   4.083   3.025
 5424SOL     OW17023   2.903   4.425   2.291
 5424SOL    HW117024   2.929   4.421   2.387
 5424SOL    HW217025   2.818   4.374   2.277
 5425SOL     OW17026   2.727   4.072   2.057
 5425SOL    HW117027   2.786   4.135   2.008
 5425SOL    HW217028   2.746   3.978   2.028
 5426SOL     OW17029   3.581   4.309   3.693
 5426SOL    HW117030   3.555   4.398   3.657
 5426SOL    HW217031   3.579   4.241   3.620
 5427SOL     OW17032   2.412   3.920   2.747
 5427SOL    HW117033   2.407   3.915   2.847
 5427SOL    HW217034   2.414   4.016   2.718
 5428SOL     OW17035   3.320   4.459   2.590
 5428SOL    HW117036   3.315   4.394   2.665
 5428SOL    HW217037   3.400   4.518   2.603
 5429SOL     OW17038   2.064   4.009   3.360
 5429SOL    HW117039   1.984   4.069   3.347
 5429SOL    HW217040   2.054   3.960   3.446
 5430SOL     OW17041   3.262   3.831   2.288
 5430SOL    HW117042   3.238   3.794   2.198
 5430SOL    HW217043   3.361   3.847   2.292
 5431SOL     OW17044   2.244   4.424   2.342
 5431SOL    HW117045   2.289   4.334   2.339
 5431SOL    HW217046   2.150   4.413   2.375
 5432SOL     OW17047   3.409   3.946   3.591
 5432SOL    HW117048   3.404   3.983   3.683
 5432SOL    HW217049   3.337   3.877   3.579
 5433SOL     OW17050   2.476   3.846   1.979
 5433SOL    HW117051   2.574   3.824   1.986
 5433SOL    HW217052   2.445   3.829   1.886
 5434SOL     OW17053   2.643   3.988   3.611
 5434SOL    HW117054   2.710   3.927   3.654
 5434SOL    HW217055   2.570   4.007   3.676
 5435SOL     OW17056   3.213   4.314   3.295
 5435SOL    HW117057   3.241   4.271   3.380
 5435SOL    HW217058   3.238   4.410   3.296
 5436SOL     OW17059   2.784   4.227   2.761
 5436SOL    HW117060   2.759   4.218   2.665
 5436SOL    HW217061   2.832   4.145   2.792
 5437SOL     OW17062   2.401   3.788   2.374
 5437SOL    HW117063   2.320   3.789   2.432
 5437SOL    HW217064   2.404   3.871   2.319
 5438SOL     OW17065   2.159   3.759   2.033
 5438SOL    HW117066   2.208   3.843   2.012
 5438SOL    HW217067   2.221   3.694   2.078
 5439SOL     OW17068   2.797   3.960   2.342
 5439SOL    HW117069   2.749   4.001   2.264
 5439SOL    HW217070   2.896   3.958   2.323
 5440SOL     OW17071   2.938   4.407   3.326
 5440SOL    HW117072   2.858   4.346   3.329
 5440SOL    HW217073   3.019   4.354   3.302
 5441SOL     OW17074   2.894   4.273   1.878
 5441SOL    HW117075   2.853   4.355   1.839
 5441SOL    HW217076   2.958   4.299   1.951
 5442SOL     OW17077   1.940   4.280   3.248
 5442SOL    HW117078   2.032   4.279   3.207
 5442SOL    HW217079   1.934   4.354   3.315
 5443SOL     OW17080   2.423   3.946   3.009
 5443SOL    HW117081   2.461   3.862   3.046
 5443SOL    HW217082   2.335   3.965   3.053
 5444SOL     OW17083   2.728   4.178   2.504
 5444SOL    HW117084   2.696   4.250   2.442
 5444SOL    HW217085   2.752   4.097   2.451
 5445SOL     OW17086   2.879   3.763   2.615
 5445SOL    HW117087   2.807   3.768   2.546
 5445SOL    HW217088   2.855   3.694   2.684
 5446SOL     OW17089   3.328   4.314   2.854
 5446SOL    HW117090   3.298   4.219   2.861
 5446SOL    HW217091   3.401   4.330   2.920
 5447SOL     OW17092   3.252   4.299   1.940
 5447SOL    HW117093   3.198   4.278   2.021
 5447SOL    HW217094   3.343   4.258   1.949
 5448SOL     OW17095   2.389   3.980   2.190
 5448SOL    HW117096   2.416   3.921   2.115
 5448SOL    HW217097   2.389   4.075   2.159
 5449SOL     OW17098   2.777   3.813   3.264
 5449SOL    HW117099   2.802   3.793   3.169
 5449SOL    HW217100   2.849   3.869   3.306
 5450SOL     OW17101   2.272   4.537   3.113
 5450SOL    HW117102   2.358   4.549   3.163
 5450SOL    HW217103   2.230   4.450   3.140
 5451SOL     OW17104   3.136   4.110   3.124
 5451SOL    HW117105   3.157   4.184   3.188
 5451SOL    HW217106   3.047   4.127   3.081
 5452SOL     OW17107   2.428   4.261   2.727
 5452SOL    HW117108   2.440   4.327   2.653
 5452SOL    HW217109   2.474   4.295   2.810
 5453SOL     OW17110   3.444   4.363   2.334
 5453SOL    HW117111   3.413   4.424   2.407
 5453SOL    HW217112   3.494   4.415   2.265
 5454SOL     OW17113   2.875   3.829   3.632
 5454SOL    HW117114   2.881   3.914   3.580
 5454SOL    HW217115   2.907   3.753   3.575
 5455SOL     OW17116   2.366   3.774   3.602
 5455SOL    HW117117   2.324   3.717   3.532
 5455SOL    HW217118   2.300   3.843   3.634
 5456SOL     OW17119   3.071   4.249   2.137
 5456SOL    HW117120   3.084   4.165   2.191
 5456SOL    HW217121   3.042   4.323   2.197
 5457SOL     OW17122   2.169   3.937   3.093
 5457SOL    HW117123   2.146   3.974   3.183
 5457SOL    HW217124   2.139   3.842   3.087
 5458SOL     OW17125   2.594   4.358   2.926
 5458SOL    HW117126   2.653   4.332   2.850
 5458SOL    HW217127   2.566   4.454   2.915
 5459SOL     OW17128   3.590   4.659   3.716
 5459SOL    HW117129   3.544   4.652   3.627
 5459SOL    HW217130   3.528   4.703   3.782
 5460SOL     OW17131   2.169   3.787   2.480
 5460SOL    HW117132   2.158   3.881   2.513
 5460SOL    HW217133   2.164   3.724   2.557
 5461SOL     OW17134   3.484   4.091   2.236
 5461SOL    HW117135   3.486   4.015   2.300
 5461SOL    HW217136   3.436   4.168   2.276
 5462SOL     OW17137   3.402   3.998   1.987
 5462SOL    HW117138   3.341   3.923   2.010
 5462SOL    HW217139   3.424   4.050   2.070
 5463SOL     OW17140   2.181   4.534   2.811
 5463SOL    HW117141   2.274   4.570   2.816
 5463SOL    HW217142   2.175   4.449   2.863
 5464SOL     OW17143   2.201   4.233   2.868
 5464SOL    HW117144   2.149   4.150   2.851
 5464SOL    HW217145   2.278   4.238   2.804
 5465SOL     OW17146   3.000   4.104   3.540
 5465SOL    HW117147   2.955   4.167   3.604
 5465SOL    HW217148   3.093   4.135   3.523
 5466SOL     OW17149   3.022   3.931   3.339
 5466SOL    HW117150   3.022   3.995   3.416
 5466SOL    HW217151   3.050   3.979   3.256
 5467SOL     OW17152   1.902   4.268   2.976
 5467SOL    HW117153   1.987   4.235   2.935
 5467SOL    HW217154   1.915   4.283   3.074
 5468SOL     OW17155   2.051   4.244   3.584
 5468SOL    HW117156   2.110   4.204   3.514
 5468SOL    HW217157   1.993   4.315   3.543
 5469SOL     OW17158   2.677   4.296   2.187
 5469SOL    HW117159   2.684   4.207   2.141
 5469SOL    HW217160   2.583   4.330   2.179
 5470SOL     OW17161   3.519   4.328   3.068
 5470SOL    HW117162   3.481   4.259   3.130
 5470SOL    HW217163   3.601   4.292   3.024
 5471SOL     OW17164   2.533   4.188   3.131
 5471SOL    HW117165   2.499   4.099   3.101
 5471SOL    HW217166   2.559   4.242   3.051
 5472SOL     OW17167   2.335   4.224   2.053
 5472SOL    HW117168   2.396   4.304   2.057
 5472SOL    HW217169   2.240   4.255   2.060
 5473SOL     OW17170   3.588   3.859   2.385
 5473SOL    HW117171   3.661   3.842   2.318
 5473SOL    HW217172   3.557   3.772   2.423
 5474SOL     OW17173   3.142   4.651   2.534
 5474SOL    HW117174   3.202   4.570   2.536
 5474SOL    HW217175   3.182   4.720   2.474
 5475SOL     OW17176   3.703   3.899   2.825
 5475SOL    HW117177   3.742   3.814   2.789
 5475SOL    HW217178   3.605   3.901   2.806
 5476SOL     OW17179   2.125   4.050   2.582
 5476SOL    HW117180   2.046   4.101   2.548
 5476SOL    HW217181   2.116   4.035   2.680
 5477SOL     OW17182   2.778   4.634   2.153
 5477SOL    HW117183   2.841   4.672   2.085
 5477SOL    HW217184   2.818   4.551   2.192
 5478SOL     OW17185   2.901   4.822   2.558
 5478SOL    HW117186   2.831   4.775   2.612
 5478SOL    HW217187   2.960   4.754   2.515
 5479SOL     OW17188   2.876   3.960   2.833
 5479SOL    HW117189   2.868   3.924   2.740
 5479SOL    HW217190   2.874   3.884   2.898
 5480SOL     OW17191   3.571   4.109   3.243
 5480SOL    HW117192   3.644   4.178   3.247
 5480SOL    HW217193   3.599   4.034   3.184
 5481SOL     OW17194   2.534   3.927   3.351
 5481SOL    HW117195   2.624   3.911   3.311
 5481SOL    HW217196   2.542   3.932   3.450
 5482SOL     OW17197   1.937   4.069   1.895
 5482SOL    HW117198   1.845   4.041   1.866
 5482SOL    HW217199   1.968   4.146   1.839
 5483SOL     OW17200   1.934   3.890   2.180
 5483SOL    HW117201   1.917   3.973   2.126
 5483SOL    HW217202   2.024   3.853   2.158
 5484SOL     OW17203   2.578   4.289   3.570
 5484SOL    HW117204   2.597   4.354   3.644
 5484SOL    HW217205   2.638   4.209   3.579
 5485SOL     OW17206   3.087   4.049   2.311
 5485SOL    HW117207   3.152   3.975   2.300
 5485SOL    HW217208   3.107   4.099   2.395
 5486SOL     OW17209   3.639   4.066   3.504
 5486SOL    HW117210   3.622   4.097   3.410
 5486SOL    HW217211   3.555   4.029   3.542
 5487SOL     OW17212   2.945   4.708   1.949
 5487SOL    HW117213   2.922   4.761   1.867
 5487SOL    HW217214   3.026   4.652   1.930
 5488SOL     OW17215   3.686   3.916   3.089
 5488SOL    HW117216   3.682   3.826   3.133
 5488SOL    HW217217   3.689   3.905   2.990
 5489SOL     OW17218   2.290   4.148   2.382
 5489SOL    HW117219   2.320   4.076   2.320
 5489SOL    HW217220   2.251   4.108   2.465
 5490SOL     OW17221   2.179   4.271   3.142
 5490SOL    HW117222   2.217   4.212   3.214
 5490SOL    HW217223   2.219   4.245   3.054
 5491SOL     OW17224   3.286   3.938   2.974
 5491SOL    HW117225   3.338   3.873   3.029
 5491SOL    HW217226   3.237   4.001   3.035
 5492SOL     OW17227   2.863   3.758   3.016
 5492SOL    HW117228   2.800   3.686   2.985
 5492SOL    HW217229   2.956   3.722   3.016
 5493SOL     OW17230   3.214   3.776   2.030
 5493SOL    HW117231   3.249   3.735   1.946
 5493SOL    HW217232   3.124   3.738   2.050
 5494SOL     OW17233   3.162   4.177   2.553
 5494SOL    HW117234   3.103   4.257   2.557
 5494SOL    HW217235   3.177   4.142   2.646
 5495SOL     OW17236   3.455   3.945   2.744
 5495SOL    HW117237   3.371   3.944   2.798
 5495SOL    HW217238   3.457   4.028   2.688
 5496SOL     OW17239   2.092   4.352   3.837
 5496SOL    HW117240   1.999   4.350   3.874
 5496SOL    HW217241   2.093   4.313   3.745
 5497SOL     OW17242   2.087   3.999   4.720
 5497SOL    HW117243   2.122   3.982   4.812
 5497SOL    HW217244   1.999   3.954   4.708
 5498SOL     OW17245   1.881   4.092   4.371
 5498SOL    HW117246   1.799   4.135   4.410
 5498SOL    HW217247   1.853   4.019   4.308
 5499SOL     OW17248   3.617   4.331   3.955
 5499SOL    HW117249   3.605   4.318   3.856
 5499SOL    HW217250   3.587   4.250   4.004
 5500SOL     OW17251   2.547   4.736   4.389
 5500SOL    HW117252   2.616   4.720   4.459
 5500SOL    HW217253   2.474   4.793   4.427
 5501SOL     OW17254   2.300   4.116   5.223
 5501SOL    HW117255   2.382   4.060   5.232
 5501SOL    HW217256   2.219   4.058   5.227
 5502SOL     OW17257   3.465   4.171   4.461
 5502SOL    HW117258   3.391   4.217   4.411
 5502SOL    HW217259   3.516   4.239   4.514
 5503SOL     OW17260   3.456   3.838   5.204
 5503SOL    HW117261   3.438   3.905   5.132
 5503SOL    HW217262   3.453   3.884   5.293
 5504SOL     OW17263   1.984   4.367   4.287
 5504SOL    HW117264   1.939   4.279   4.304
 5504SOL    HW217265   1.983   4.421   4.371
 5505SOL     OW17266   1.975   4.461   5.321
 5505SOL    HW117267   2.063   4.448   5.366
 5505SOL    HW217268   1.962   4.558   5.299
 5506SOL     OW17269   2.671   3.728   4.226
 5506SOL    HW117270   2.711   3.819   4.217
 5506SOL    HW217271   2.571   3.736   4.232
 5507SOL     OW17272   2.179   3.975   5.525
 5507SOL    HW117273   2.250   4.046   5.531
 5507SOL    HW217274   2.091   4.014   5.553
 5508SOL     OW17275   3.143   4.069   4.668
 5508SOL    HW117276   3.057   4.019   4.655
 5508SOL    HW217277   3.205   4.015   4.724
 5509SOL     OW17278   2.669   4.329   5.189
 5509SOL    HW117279   2.622   4.326   5.278
 5509SOL    HW217280   2.618   4.274   5.123
 5510SOL     OW17281   3.256   4.193   5.398
 5510SOL    HW117282   3.236   4.236   5.486
 5510SOL    HW217283   3.334   4.131   5.407
 5511SOL     OW17284   2.853   4.134   4.966
 5511SOL    HW117285   2.776   4.168   5.020
 5511SOL    HW217286   2.819   4.083   4.887
 5512SOL     OW17287   2.903   4.425   4.153
 5512SOL    HW117288   2.929   4.421   4.249
 5512SOL    HW217289   2.818   4.374   4.139
 5513SOL     OW17290   2.727   4.072   3.919
 5513SOL    HW117291   2.786   4.135   3.870
 5513SOL    HW217292   2.746   3.978   3.890
 5514SOL     OW17293   3.581   4.309   5.555
 5514SOL    HW117294   3.555   4.398   5.519
 5514SOL    HW217295   3.579   4.241   5.482
 5515SOL     OW17296   2.412   3.920   4.609
 5515SOL    HW117297   2.407   3.915   4.709
 5515SOL    HW217298   2.414   4.016   4.580
 5516SOL     OW17299   3.320   4.459   4.452
 5516SOL    HW117300   3.315   4.394   4.527
 5516SOL    HW217301   3.400   4.518   4.465
 5517SOL     OW17302   2.064   4.009   5.222
 5517SOL    HW117303   1.984   4.069   5.209
 5517SOL    HW217304   2.054   3.960   5.308
 5518SOL     OW17305   3.262   3.831   4.150
 5518SOL    HW117306   3.238   3.794   4.060
 5518SOL    HW217307   3.361   3.847   4.154
 5519SOL     OW17308   2.244   4.424   4.204
 5519SOL    HW117309   2.289   4.334   4.201
 5519SOL    HW217310   2.150   4.413   4.237
 5520SOL     OW17311   3.409   3.946   5.453
 5520SOL    HW117312   3.404   3.983   5.545
 5520SOL    HW217313   3.337   3.877   5.441
 5521SOL     OW17314   2.476   3.846   3.841
 5521SOL    HW117315   2.574   3.824   3.848
 5521SOL    HW217316   2.445   3.829   3.748
 5522SOL     OW17317   2.643   3.988   5.473
 5522SOL    HW117318   2.710   3.927   5.516
 5522SOL    HW217319   2.570   4.007   5.538
 5523SOL     OW17320   3.213   4.314   5.157
 5523SOL    HW117321   3.241   4.271   5.242
 5523SOL    HW217322   3.238   4.410   5.158
 5524SOL     OW17323   2.784   4.227   4.623
 5524SOL    HW117324   2.759   4.218   4.527
 5524SOL    HW217325   2.832   4.145   4.654
 5525SOL     OW17326   2.401   3.788   4.236
 5525SOL    HW117327   2.320   3.789   4.294
 5525SOL    HW217328   2.404   3.871   4.181
 5526SOL     OW17329   2.159   3.759   3.895
 5526SOL    HW117330   2.208   3.843   3.874
 5526SOL    HW217331   2.221   3.694   3.940
 5527SOL     OW17332   2.797   3.960   4.204
 5527SOL    HW117333   2.749   4.001   4.126
 5527SOL    HW217334   2.896   3.958   4.185
 5528SOL     OW17335   2.938   4.407   5.188
 5528SOL    HW117336   2.858   4.346   5.191
 5528SOL    HW217337   3.019   4.354   5.164
 5529SOL     OW17338   2.894   4.273   3.740
 5529SOL    HW117339   2.853   4.355   3.701
 5529SOL    HW217340   2.958   4.299   3.813
 5530SOL     OW17341   1.940   4.280   5.110
 5530SOL    HW117342   2.032   4.279   5.069
 5530SOL    HW217343   1.934   4.354   5.177
 5531SOL     OW17344   2.423   3.946   4.871
 5531SOL    HW117345   2.461   3.862   4.908
 5531SOL    HW217346   2.335   3.965   4.915
 5532SOL     OW17347   2.728   4.178   4.366
 5532SOL    HW117348   2.696   4.250   4.304
 5532SOL    HW217349   2.752   4.097   4.313
 5533SOL     OW17350   2.879   3.763   4.477
 5533SOL    HW117351   2.807   3.768   4.408
 5533SOL    HW217352   2.855   3.694   4.546
 5534SOL     OW17353   3.328   4.314   4.716
 5534SOL    HW117354   3.298   4.219   4.723
 5534SOL    HW217355   3.401   4.330   4.782
 5535SOL     OW17356   3.252   4.299   3.802
 5535SOL    HW117357   3.198   4.278   3.883
 5535SOL    HW217358   3.343   4.258   3.811
 5536SOL     OW17359   2.389   3.980   4.052
 5536SOL    HW117360   2.416   3.921   3.977
 5536SOL    HW217361   2.389   4.075   4.021
 5537SOL     OW17362   2.777   3.813   5.126
 5537SOL    HW117363   2.802   3.793   5.031
 5537SOL    HW217364   2.849   3.869   5.168
 5538SOL     OW17365   2.272   4.537   4.975
 5538SOL    HW117366   2.358   4.549   5.025
 5538SOL    HW217367   2.230   4.450   5.002
 5539SOL     OW17368   3.136   4.110   4.986
 5539SOL    HW117369   3.157   4.184   5.050
 5539SOL    HW217370   3.047   4.127   4.943
 5540SOL     OW17371   2.428   4.261   4.589
 5540SOL    HW117372   2.440   4.327   4.515
 5540SOL    HW217373   2.474   4.295   4.672
 5541SOL     OW17374   3.444   4.363   4.196
 5541SOL    HW117375   3.413   4.424   4.269
 5541SOL    HW217376   3.494   4.415   4.127
 5542SOL     OW17377   2.875   3.829   5.494
 5542SOL    HW117378   2.881   3.914   5.442
 5542SOL    HW217379   2.907   3.753   5.437
 5543SOL     OW17380   2.366   3.774   5.464
 5543SOL    HW117381   2.324   3.717   5.394
 5543SOL    HW217382   2.300   3.843   5.496
 5544SOL     OW17383   3.071   4.249   3.999
 5544SOL    HW117384   3.084   4.165   4.053
 5544SOL    HW217385   3.042   4.323   4.059
 5545SOL     OW17386   2.169   3.937   4.955
 5545SOL    HW117387   2.146   3.974   5.045
 5545SOL    HW217388   2.139   3.842   4.949
 5546SOL     OW17389   2.594   4.358   4.788
 5546SOL    HW117390   2.653   4.332   4.712
 5546SOL    HW217391   2.566   4.454   4.777
 5547SOL     OW17392   3.590   4.659   5.578
 5547SOL    HW117393   3.544   4.652   5.489
 5547SOL    HW217394   3.528   4.703   5.644
 5548SOL     OW17395   2.169   3.787   4.342
 5548SOL    HW117396   2.158   3.881   4.375
 5548SOL    HW217397   2.164   3.724   4.419
 5549SOL     OW17398   3.484   4.091   4.098
 5549SOL    HW117399   3.486   4.015   4.162
 5549SOL    HW217400   3.436   4.168   4.138
 5550SOL     OW17401   3.402   3.998   3.849
 5550SOL    HW117402   3.341   3.923   3.872
 5550SOL    HW217403   3.424   4.050   3.932
 5551SOL     OW17404   2.181   4.534   4.673
 5551SOL    HW117405   2.274   4.570   4.678
 5551SOL    HW217406   2.175   4.449   4.725
 5552SOL     OW17407   2.201   4.233   4.730
 5552SOL    HW117408   2.149   4.150   4.713
 5552SOL    HW217409   2.278   4.238   4.666
 5553SOL     OW17410   3.000   4.104   5.402
 5553SOL    HW117411   2.955   4.167   5.466
 5553SOL    HW217412   3.093   4.135   5.385
 5554SOL     OW17413   3.022   3.931   5.201
 5554SOL    HW117414   3.022   3.995   5.278
 5554SOL    HW217415   3.050   3.979   5.118
 5555SOL     OW17416   1.902   4.268   4.838
 5555SOL    HW117417   1.987   4.235   4.797
 5555SOL    HW217418   1.915   4.283   4.936
 5556SOL     OW17419   2.051   4.244   5.446
 5556SOL    HW117420   2.110   4.204   5.376
 5556SOL    HW217421   1.993   4.315   5.405
 5557SOL     OW17422   2.677   4.296   4.049
 5557SOL    HW117423   2.684   4.207   4.003
 5557SOL    HW217424   2.583   4.330   4.041
 5558SOL     OW17425   3.519   4.328   4.930
 5558SOL    HW117426   3.481   4.259   4.992
 5558SOL    HW217427   3.601   4.292   4.886
 5559SOL     OW17428   2.533   4.188   4.993
 5559SOL    HW117429   2.499   4.099   4.963
 5559SOL    HW217430   2.559   4.242   4.913
 5560SOL     OW17431   2.335   4.224   3.915
 5560SOL    HW117432   2.396   4.304   3.919
 5560SOL    HW217433   2.240   4.255   3.922
 5561SOL     OW17434   3.588   3.859   4.247
 5561SOL    HW117435   3.661   3.842   4.180
 5561SOL    HW217436   3.557   3.772   4.285
 5562SOL     OW17437   3.142   4.651   4.396
 5562SOL    HW117438   3.202   4.570   4.398
 5562SOL    HW217439   3.182   4.720   4.336
 5563SOL     OW17440   3.703   3.899   4.687
 5563SOL    HW117441   3.742   3.814   4.651
 5563SOL    HW217442   3.605   3.901   4.668
 5564SOL     OW17443   2.125   4.050   4.444
 5564SOL    HW117444   2.046   4.101   4.410
 5564SOL    HW217445   2.116   4.035   4.542
 5565SOL     OW17446   2.778   4.634   4.015
 5565SOL    HW117447   2.841   4.672   3.947
 5565SOL    HW217448   2.818   4.551   4.054
 5566SOL     OW17449   2.901   4.822   4.420
 5566SOL    HW117450   2.831   4.775   4.474
 5566SOL    HW217451   2.960   4.754   4.377
 5567SOL     OW17452   2.876   3.960   4.695
 5567SOL    HW117453   2.868   3.924   4.602
 5567SOL    HW217454   2.874   3.884   4.760
 5568SOL     OW17455   3.571   4.109   5.105
 5568SOL    HW117456   3.644   4.178   5.109
 5568SOL    HW217457   3.599   4.034   5.046
 5569SOL     OW17458   2.534   3.927   5.213
 5569SOL    HW117459   2.624   3.911   5.173
 5569SOL    HW217460   2.542   3.932   5.312
 5570SOL     OW17461   1.937   4.069   3.757
 5570SOL    HW117462   1.845   4.041   3.728
 5570SOL    HW217463   1.968   4.146   3.701
 5571SOL     OW17464   1.934   3.890   4.042
 5571SOL    HW117465   1.917   3.973   3.988
 5571SOL    HW217466   2.024   3.853   4.020
 5572SOL     OW17467   2.578   4.289   5.432
 5572SOL    HW117468   2.597   4.354   5.506
 5572SOL    HW217469   2.638   4.209   5.441
 5573SOL     OW17470   3.087   4.049   4.173
 5573SOL    HW117471   3.152   3.975   4.162
 5573SOL    HW217472   3.107   4.099   4.257
 5574SOL     OW17473   3.639   4.066   5.366
 5574SOL    HW117474   3.622   4.097   5.272
 5574SOL    HW217475   3.555   4.029   5.404
 5575SOL     OW17476   2.945   4.708   3.811
 5575SOL    HW117477   2.922   4.761   3.729
 5575SOL    HW217478   3.026   4.652   3.792
 5576SOL     OW17479   3.686   3.916   4.951
 5576SOL    HW117480   3.682   3.826   4.995
 5576SOL    HW217481   3.689   3.905   4.852
 5577SOL     OW17482   2.290   4.148   4.244
 5577SOL    HW117483   2.320   4.076   4.182
 5577SOL    HW217484   2.251   4.108   4.327
 5578SOL     OW17485   2.179   4.271   5.004
 5578SOL    HW117486   2.217   4.212   5.076
 5578SOL    HW217487   2.219   4.245   4.916
 5579SOL     OW17488   3.286   3.938   4.836
 5579SOL    HW117489   3.338   3.873   4.891
 5579SOL    HW217490   3.237   4.001   4.897
 5580SOL     OW17491   2.863   3.758   4.878
 5580SOL    HW117492   2.800   3.686   4.847
 5580SOL    HW217493   2.956   3.722   4.878
 5581SOL     OW17494   3.214   3.776   3.892
 5581SOL    HW117495   3.249   3.735   3.808
 5581SOL    HW217496   3.124   3.738   3.912
 5582SOL     OW17497   3.162   4.177   4.415
 5582SOL    HW117498   3.103   4.257   4.419
 5582SOL    HW217499   3.177   4.142   4.508
 5583SOL     OW17500   3.455   3.945   4.606
 5583SOL    HW117501   3.371   3.944   4.660
 5583SOL    HW217502   3.457   4.028   4.550
 5584SOL     OW17503   2.092   4.352   5.699
 5584SOL    HW117504   1.999   4.350   5.736
 5584SOL    HW217505   2.093   4.313   5.607
 5585SOL     OW17506   2.087   3.999   6.582
 5585SOL    HW117507   2.122   3.982   6.674
 5585SOL    HW217508   1.999   3.954   6.570
 5586SOL     OW17509   1.881   4.092   6.233
 5586SOL    HW117510   1.799   4.135   6.272
 5586SOL    HW217511   1.853   4.019   6.170
 5587SOL     OW17512   3.617   4.331   5.817
 5587SOL    HW117513   3.605   4.318   5.718
 5587SOL    HW217514   3.587   4.250   5.866
 5588SOL     OW17515   2.547   4.736   6.251
 5588SOL    HW117516   2.616   4.720   6.321
 5588SOL    HW217517   2.474   4.793   6.289
 5589SOL     OW17518   2.300   4.116   7.085
 5589SOL    HW117519   2.382   4.060   7.094
 5589SOL    HW217520   2.219   4.058   7.089
 5590SOL     OW17521   3.465   4.171   6.323
 5590SOL    HW117522   3.391   4.217   6.273
 5590SOL    HW217523   3.516   4.239   6.376
 5591SOL     OW17524   3.456   3.838   7.066
 5591SOL    HW117525   3.438   3.905   6.994
 5591SOL    HW217526   3.453   3.884   7.155
 5592SOL     OW17527   1.984   4.367   6.149
 5592SOL    HW117528   1.939   4.279   6.166
 5592SOL    HW217529   1.983   4.421   6.233
 5593SOL     OW17530   1.975   4.461   7.183
 5593SOL    HW117531   2.063   4.448   7.228
 5593SOL    HW217532   1.962   4.558   7.161
 5594SOL     OW17533   2.671   3.728   6.088
 5594SOL    HW117534   2.711   3.819   6.079
 5594SOL    HW217535   2.571   3.736   6.094
 5595SOL     OW17536   2.179   3.975   7.387
 5595SOL    HW117537   2.250   4.046   7.393
 5595SOL    HW217538   2.091   4.014   7.415
 5596SOL     OW17539   3.143   4.069   6.530
 5596SOL    HW117540   3.057   4.019   6.517
 5596SOL    HW217541   3.205   4.015   6.586
 5597SOL     OW17542   2.669   4.329   7.051
 5597SOL    HW117543   2.622   4.326   7.140
 5597SOL    HW217544   2.618   4.274   6.985
 5598SOL     OW17545   3.256   4.193   7.260
 5598SOL    HW117546   3.236   4.236   7.348
 5598SOL    HW217547   3.334   4.131   7.269
 5599SOL     OW17548   2.853   4.134   6.828
 5599SOL    HW117549   2.776   4.168   6.882
 5599SOL    HW217550   2.819   4.083   6.749
 5600SOL     OW17551   2.903   4.425   6.015
 5600SOL    HW117552   2.929   4.421   6.111
 5600SOL    HW217553   2.818   4.374   6.001
 5601SOL     OW17554   2.727   4.072   5.781
 5601SOL    HW117555   2.786   4.135   5.732
 5601SOL    HW217556   2.746   3.978   5.752
 5602SOL     OW17557   3.581   4.309   7.417
 5602SOL    HW117558   3.555   4.398   7.381
 5602SOL    HW217559   3.579   4.241   7.344
 5603SOL     OW17560   2.412   3.920   6.471
 5603SOL    HW117561   2.407   3.915   6.571
 5603SOL    HW217562   2.414   4.016   6.442
 5604SOL     OW17563   3.320   4.459   6.314
 5604SOL    HW117564   3.315   4.394   6.389
 5604SOL    HW217565   3.400   4.518   6.327
 5605SOL     OW17566   2.064   4.009   7.084
 5605SOL    HW117567   1.984   4.069   7.071
 5605SOL    HW217568   2.054   3.960   7.170
 5606SOL     OW17569   3.262   3.831   6.012
 5606SOL    HW117570   3.238   3.794   5.922
 5606SOL    HW217571   3.361   3.847   6.016
 5607SOL     OW17572   2.244   4.424   6.066
 5607SOL    HW117573   2.289   4.334   6.063
 5607SOL    HW217574   2.150   4.413   6.099
 5608SOL     OW17575   3.409   3.946   7.315
 5608SOL    HW117576   3.404   3.983   7.407
 5608SOL    HW217577   3.337   3.877   7.303
 5609SOL     OW17578   2.476   3.846   5.703
 5609SOL    HW117579   2.574   3.824   5.710
 5609SOL    HW217580   2.445   3.829   5.610
 5610SOL     OW17581   2.643   3.988   7.335
 5610SOL    HW117582   2.710   3.927   7.378
 5610SOL    HW217583   2.570   4.007   7.400
 5611SOL     OW17584   3.213   4.314   7.019
 5611SOL    HW117585   3.241   4.271   7.104
 5611SOL    HW217586   3.238   4.410   7.020
 5612SOL     OW17587   2.784   4.227   6.485
 5612SOL    HW117588   2.759   4.218   6.389
 5612SOL    HW217589   2.832   4.145   6.516
 5613SOL     OW17590   2.401   3.788   6.098
 5613SOL    HW117591   2.320   3.789   6.156
 5613SOL    HW217592   2.404   3.871   6.043
 5614SOL     OW17593   2.159   3.759   5.757
 5614SOL    HW117594   2.208   3.843   5.736
 5614SOL    HW217595   2.221   3.694   5.802
 5615SOL     OW17596   2.797   3.960   6.066
 5615SOL    HW117597   2.749   4.001   5.988
 5615SOL    HW217598   2.896   3.958   6.047
 5616SOL     OW17599   2.938   4.407   7.050
 5616SOL    HW117600   2.858   4.346   7.053
 5616SOL    HW217601   3.019   4.354   7.026
 5617SOL     OW17602   2.894   4.273   5.602
 5617SOL    HW117603   2.853   4.355   5.563
 5617SOL    HW217604   2.958   4.299   5.675
 5618SOL     OW17605   1.940   4.280   6.972
 5618SOL    HW117606   2.032   4.279   6.931
 5618SOL    HW217607   1.934   4.354   7.039
 5619SOL     OW17608   2.423   3.946   6.733
 5619SOL    HW117609   2.461   3.862   6.770
 5619SOL    HW217610   2.335   3.965   6.777
 5620SOL     OW17611   2.728   4.178   6.228
 5620SOL    HW117612   2.696   4.250   6.166
 5620SOL    HW217613   2.752   4.097   6.175
 5621SOL     OW17614   2.879   3.763   6.339
 5621SOL    HW117615   2.807   3.768   6.270
 5621SOL    HW217616   2.855   3.694   6.408
 5622SOL     OW17617   3.328   4.314   6.578
 5622SOL    HW117618   3.298   4.219   6.585
 5622SOL    HW217619   3.401   4.330   6.644
 5623SOL     OW17620   3.252   4.299   5.664
 5623SOL    HW117621   3.198   4.278   5.745
 5623SOL    HW217622   3.343   4.258   5.673
 5624SOL     OW17623   2.389   3.980   5.914
 5624SOL    HW117624   2.416   3.921   5.839
 5624SOL    HW217625   2.389   4.075   5.883
 5625SOL     OW17626   2.777   3.813   6.988
 5625SOL    HW117627   2.802   3.793   6.893
 5625SOL    HW217628   2.849   3.869   7.030
 5626SOL     OW17629   2.272   4.537   6.837
 5626SOL    HW117630   2.358   4.549   6.887
 5626SOL    HW217631   2.230   4.450   6.864
 5627SOL     OW17632   3.136   4.110   6.848
 5627SOL    HW117633   3.157   4.184   6.912
 5627SOL    HW217634   3.047   4.127   6.805
 5628SOL     OW17635   2.428   4.261   6.451
 5628SOL    HW117636   2.440   4.327   6.377
 5628SOL    HW217637   2.474   4.295   6.534
 5629SOL     OW17638   3.444   4.363   6.058
 5629SOL    HW117639   3.413   4.424   6.131
 5629SOL    HW217640   3.494   4.415   5.989
 5630SOL     OW17641   2.875   3.829   7.356
 5630SOL    HW117642   2.881   3.914   7.304
 5630SOL    HW217643   2.907   3.753   7.299
 5631SOL     OW17644   2.366   3.774   7.326
 5631SOL    HW117645   2.324   3.717   7.256
 5631SOL    HW217646   2.300   3.843   7.358
 5632SOL     OW17647   3.071   4.249   5.861
 5632SOL    HW117648   3.084   4.165   5.915
 5632SOL    HW217649   3.042   4.323   5.921
 5633SOL     OW17650   2.169   3.937   6.817
 5633SOL    HW117651   2.146   3.974   6.907
 5633SOL    HW217652   2.139   3.842   6.811
 5634SOL     OW17653   2.594   4.358   6.650
 5634SOL    HW117654   2.653   4.332   6.574
 5634SOL    HW217655   2.566   4.454   6.639
 5635SOL     OW17656   3.590   4.659   7.440
 5635SOL    HW117657   3.544   4.652   7.351
 5635SOL    HW217658   3.528   4.703   7.506
 5636SOL     OW17659   2.169   3.787   6.204
 5636SOL    HW117660   2.158   3.881   6.237
 5636SOL    HW217661   2.164   3.724   6.281
 5637SOL     OW17662   3.484   4.091   5.960
 5637SOL    HW117663   3.486   4.015   6.024
 5637SOL    HW217664   3.436   4.168   6.000
 5638SOL     OW17665   3.402   3.998   5.711
 5638SOL    HW117666   3.341   3.923   5.734
 5638SOL    HW217667   3.424   4.050   5.794
 5639SOL     OW17668   2.181   4.534   6.535
 5639SOL    HW117669   2.274   4.570   6.540
 5639SOL    HW217670   2.175   4.449   6.587
 5640SOL     OW17671   2.201   4.233   6.592
 5640SOL    HW117672   2.149   4.150   6.575
 5640SOL    HW217673   2.278   4.238   6.528
 5641SOL     OW17674   3.000   4.104   7.264
 5641SOL    HW117675   2.955   4.167   7.328
 5641SOL    HW217676   3.093   4.135   7.247
 5642SOL     OW17677   3.022   3.931   7.063
 5642SOL    HW117678   3.022   3.995   7.140
 5642SOL    HW217679   3.050   3.979   6.980
 5643SOL     OW17680   1.902   4.268   6.700
 5643SOL    HW117681   1.987   4.235   6.659
 5643SOL    HW217682   1.915   4.283   6.798
 5644SOL     OW17683   2.051   4.244   7.308
 5644SOL    HW117684   2.110   4.204   7.238
 5644SOL    HW217685   1.993   4.315   7.267
 5645SOL     OW17686   2.677   4.296   5.911
 5645SOL    HW117687   2.684   4.207   5.865
 5645SOL    HW217688   2.583   4.330   5.903
 5646SOL     OW17689   3.519   4.328   6.792
 5646SOL    HW117690   3.481   4.259   6.854
 5646SOL    HW217691   3.601   4.292   6.748
 5647SOL     OW17692   2.533   4.188   6.855
 5647SOL    HW117693   2.499   4.099   6.825
 5647SOL    HW217694   2.559   4.242   6.775
 5648SOL     OW17695   2.335   4.224   5.777
 5648SOL    HW117696   2.396   4.304   5.781
 5648SOL    HW217697   2.240   4.255   5.784
 5649SOL     OW17698   3.588   3.859   6.109
 5649SOL    HW117699   3.661   3.842   6.042
 5649SOL    HW217700   3.557   3.772   6.147
 5650SOL     OW17701   3.142   4.651   6.258
 5650SOL    HW117702   3.202   4.570   6.260
 5650SOL    HW217703   3.182   4.720   6.198
 5651SOL     OW17704   3.703   3.899   6.549
 5651SOL    HW117705   3.742   3.814   6.513
 5651SOL    HW217706   3.605   3.901   6.530
 5652SOL     OW17707   2.125   4.050   6.306
 5652SOL    HW117708   2.046   4.101   6.272
 5652SOL    HW217709   2.116   4.035   6.404
 5653SOL     OW17710   2.778   4.634   5.877
 5653SOL    HW117711   2.841   4.672   5.809
 5653SOL    HW217712   2.818   4.551   5.916
 5654SOL     OW17713   2.901   4.822   6.282
 5654SOL    HW117714   2.831   4.775   6.336
 5654SOL    HW217715   2.960   4.754   6.239
 5655SOL     OW17716   2.876   3.960   6.557
 5655SOL    HW117717   2.868   3.924   6.464
 5655SOL    HW217718   2.874   3.884   6.622
 5656SOL     OW17719   3.571   4.109   6.967
 5656SOL    HW117720   3.644   4.178   6.971
 5656SOL    HW217721   3.599   4.034   6.908
 5657SOL     OW17722   2.534   3.927   7.075
 5657SOL    HW117723   2.624   3.911   7.035
 5657SOL    HW217724   2.542   3.932   7.174
 5658SOL     OW17725   1.937   4.069   5.619
 5658SOL    HW117726   1.845   4.041   5.590
 5658SOL    HW217727   1.968   4.146   5.563
 5659SOL     OW17728   1.934   3.890   5.904
 5659SOL    HW117729   1.917   3.973   5.850
 5659SOL    HW217730   2.024   3.853   5.882
 5660SOL     OW17731   2.578   4.289   7.294
 5660SOL    HW117732   2.597   4.354   7.368
 5660SOL    HW217733   2.638   4.209   7.303
 5661SOL     OW17734   3.087   4.049   6.035
 5661SOL    HW117735   3.152   3.975   6.024
 5661SOL    HW217736   3.107   4.099   6.119
 5662SOL     OW17737   3.639   4.066   7.228
 5662SOL    HW117738   3.622   4.097   7.134
 5662SOL    HW217739   3.555   4.029   7.266
 5663SOL     OW17740   2.945   4.708   5.673
 5663SOL    HW117741   2.922   4.761   5.591
 5663SOL    HW217742   3.026   4.652   5.654
 5664SOL     OW17743   3.686   3.916   6.813
 5664SOL    HW117744   3.682   3.826   6.857
 5664SOL    HW217745   3.689   3.905   6.714
 5665SOL     OW17746   2.290   4.148   6.106
 5665SOL    HW117747   2.320   4.076   6.044
 5665SOL    HW217748   2.251   4.108   6.189
 5666SOL     OW17749   2.179   4.271   6.866
 5666SOL    HW117750   2.217   4.212   6.938
 5666SOL    HW217751   2.219   4.245   6.778
 5667SOL     OW17752   3.286   3.938   6.698
 5667SOL    HW117753   3.338   3.873   6.753
 5667SOL    HW217754   3.237   4.001   6.759
 5668SOL     OW17755   2.863   3.758   6.740
 5668SOL    HW117756   2.800   3.686   6.709
 5668SOL    HW217757   2.956   3.722   6.740
 5669SOL     OW17758   3.214   3.776   5.754
 5669SOL    HW117759   3.249   3.735   5.670
 5669SOL    HW217760   3.124   3.738   5.774
 5670SOL     OW17761   3.162   4.177   6.277
 5670SOL    HW117762   3.103   4.257   6.281
 5670SOL    HW217763   3.177   4.142   6.370
 5671SOL     OW17764   3.455   3.945   6.468
 5671SOL    HW117765   3.371   3.944   6.522
 5671SOL    HW217766   3.457   4.028   6.412
 5672SOL     OW17767   2.092   4.352   7.561
 5672SOL    HW117768   1.999   4.350   7.598
 5672SOL    HW217769   2.093   4.313   7.469
 5673SOL     OW17770   2.087   3.999   8.444
 5673SOL    HW117771   2.122   3.982   8.536
 5673SOL    HW217772   1.999   3.954   8.432
 5674SOL     OW17773   1.881   4.092   8.095
 5674SOL    HW117774   1.799   4.135   8.134
 5674SOL    HW217775   1.853   4.019   8.032
 5675SOL     OW17776   3.617   4.331   7.679
 5675SOL    HW117777   3.605   4.318   7.580
 5675SOL    HW217778   3.587   4.250   7.728
 5676SOL     OW17779   2.547   4.736   8.113
 5676SOL    HW117780   2.616   4.720   8.183
 5676SOL    HW217781   2.474   4.793   8.151
 5677SOL     OW17782   2.300   4.116   8.947
 5677SOL    HW117783   2.382   4.060   8.956
 5677SOL    HW217784   2.219   4.058   8.951
 5678SOL     OW17785   3.465   4.171   8.185
 5678SOL    HW117786   3.391   4.217   8.135
 5678SOL    HW217787   3.516   4.239   8.238
 5679SOL     OW17788   3.456   3.838   8.928
 5679SOL    HW117789   3.438   3.905   8.856
 5679SOL    HW217790   3.453   3.884   9.017
 5680SOL     OW17791   1.984   4.367   8.011
 5680SOL    HW117792   1.939   4.279   8.028
 5680SOL    HW217793   1.983   4.421   8.095
 5681SOL     OW17794   1.975   4.461   9.045
 5681SOL    HW117795   2.063   4.448   9.090
 5681SOL    HW217796   1.962   4.558   9.023
 5682SOL     OW17797   2.671   3.728   7.950
 5682SOL    HW117798   2.711   3.819   7.941
 5682SOL    HW217799   2.571   3.736   7.956
 5683SOL     OW17800   2.179   3.975   9.249
 5683SOL    HW117801   2.250   4.046   9.255
 5683SOL    HW217802   2.091   4.014   9.277
 5684SOL     OW17803   3.143   4.069   8.392
 5684SOL    HW117804   3.057   4.019   8.379
 5684SOL    HW217805   3.205   4.015   8.448
 5685SOL     OW17806   2.669   4.329   8.913
 5685SOL    HW117807   2.622   4.326   9.002
 5685SOL    HW217808   2.618   4.274   8.847
 5686SOL     OW17809   3.256   4.193   9.122
 5686SOL    HW117810   3.236   4.236   9.210
 5686SOL    HW217811   3.334   4.131   9.131
 5687SOL     OW17812   2.853   4.134   8.690
 5687SOL    HW117813   2.776   4.168   8.744
 5687SOL    HW217814   2.819   4.083   8.611
 5688SOL     OW17815   2.903   4.425   7.877
 5688SOL    HW117816   2.929   4.421   7.973
 5688SOL    HW217817   2.818   4.374   7.863
 5689SOL     OW17818   2.727   4.072   7.643
 5689SOL    HW117819   2.786   4.135   7.594
 5689SOL    HW217820   2.746   3.978   7.614
 5690SOL     OW17821   3.581   4.309   9.279
 5690SOL    HW117822   3.555   4.398   9.243
 5690SOL    HW217823   3.579   4.241   9.206
 5691SOL     OW17824   2.412   3.920   8.333
 5691SOL    HW117825   2.407   3.915   8.433
 5691SOL    HW217826   2.414   4.016   8.304
 5692SOL     OW17827   3.320   4.459   8.176
 5692SOL    HW117828   3.315   4.394   8.251
 5692SOL    HW217829   3.400   4.518   8.189
 5693SOL     OW17830   2.064   4.009   8.946
 5693SOL    HW117831   1.984   4.069   8.933
 5693SOL    HW217832   2.054   3.960   9.032
 5694SOL     OW17833   3.262   3.831   7.874
 5694SOL    HW117834   3.238   3.794   7.784
 5694SOL    HW217835   3.361   3.847   7.878
 5695SOL     OW17836   2.244   4.424   7.928
 5695SOL    HW117837   2.289   4.334   7.925
 5695SOL    HW217838   2.150   4.413   7.961
 5696SOL     OW17839   3.409   3.946   9.177
 5696SOL    HW117840   3.404   3.983   9.269
 5696SOL    HW217841   3.337   3.877   9.165
 5697SOL     OW17842   2.476   3.846   7.565
 5697SOL    HW117843   2.574   3.824   7.572
 5697SOL    HW217844   2.445   3.829   7.472
 5698SOL     OW17845   2.643   3.988   9.197
 5698SOL    HW117846   2.710   3.927   9.240
 5698SOL    HW217847   2.570   4.007   9.262
 5699SOL     OW17848   3.213   4.314   8.881
 5699SOL    HW117849   3.241   4.271   8.966
 5699SOL    HW217850   3.238   4.410   8.882
 5700SOL     OW17851   2.784   4.227   8.347
 5700SOL    HW117852   2.759   4.218   8.251
 5700SOL    HW217853   2.832   4.145   8.378
 5701SOL     OW17854   2.401   3.788   7.960
 5701SOL    HW117855   2.320   3.789   8.018
 5701SOL    HW217856   2.404   3.871   7.905
 5702SOL     OW17857   2.159   3.759   7.619
 5702SOL    HW117858   2.208   3.843   7.598
 5702SOL    HW217859   2.221   3.694   7.664
 5703SOL     OW17860   2.797   3.960   7.928
 5703SOL    HW117861   2.749   4.001   7.850
 5703SOL    HW217862   2.896   3.958   7.909
 5704SOL     OW17863   2.938   4.407   8.912
 5704SOL    HW117864   2.858   4.346   8.915
 5704SOL    HW217865   3.019   4.354   8.888
 5705SOL     OW17866   2.894   4.273   7.464
 5705SOL    HW117867   2.853   4.355   7.425
 5705SOL    HW217868   2.958   4.299   7.537
 5706SOL     OW17869   1.940   4.280   8.834
 5706SOL    HW117870   2.032   4.279   8.793
 5706SOL    HW217871   1.934   4.354   8.901
 5707SOL     OW17872   2.423   3.946   8.595
 5707SOL    HW117873   2.461   3.862   8.632
 5707SOL    HW217874   2.335   3.965   8.639
 5708SOL     OW17875   2.728   4.178   8.090
 5708SOL    HW117876   2.696   4.250   8.028
 5708SOL    HW217877   2.752   4.097   8.037
 5709SOL     OW17878   2.879   3.763   8.201
 5709SOL    HW117879   2.807   3.768   8.132
 5709SOL    HW217880   2.855   3.694   8.270
 5710SOL     OW17881   3.328   4.314   8.440
 5710SOL    HW117882   3.298   4.219   8.447
 5710SOL    HW217883   3.401   4.330   8.506
 5711SOL     OW17884   3.252   4.299   7.526
 5711SOL    HW117885   3.198   4.278   7.607
 5711SOL    HW217886   3.343   4.258   7.535
 5712SOL     OW17887   2.389   3.980   7.776
 5712SOL    HW117888   2.416   3.921   7.701
 5712SOL    HW217889   2.389   4.075   7.745
 5713SOL     OW17890   2.777   3.813   8.850
 5713SOL    HW117891   2.802   3.793   8.755
 5713SOL    HW217892   2.849   3.869   8.892
 5714SOL     OW17893   2.272   4.537   8.699
 5714SOL    HW117894   2.358   4.549   8.749
 5714SOL    HW217895   2.230   4.450   8.726
 5715SOL     OW17896   3.136   4.110   8.710
 5715SOL    HW117897   3.157   4.184   8.774
 5715SOL    HW217898   3.047   4.127   8.667
 5716SOL     OW17899   2.428   4.261   8.313
 5716SOL    HW117900   2.440   4.327   8.239
 5716SOL    HW217901   2.474   4.295   8.396
 5717SOL     OW17902   3.444   4.363   7.920
 5717SOL    HW117903   3.413   4.424   7.993
 5717SOL    HW217904   3.494   4.415   7.851
 5718SOL     OW17905   2.875   3.829   9.218
 5718SOL    HW117906   2.881   3.914   9.166
 5718SOL    HW217907   2.907   3.753   9.161
 5719SOL     OW17908   2.366   3.774   9.188
 5719SOL    HW117909   2.324   3.717   9.118
 5719SOL    HW217910   2.300   3.843   9.220
 5720SOL     OW17911   3.071   4.249   7.723
 5720SOL    HW117912   3.084   4.165   7.777
 5720SOL    HW217913   3.042   4.323   7.783
 5721SOL     OW17914   2.169   3.937   8.679
 5721SOL    HW117915   2.146   3.974   8.769
 5721SOL    HW217916   2.139   3.842   8.673
 5722SOL     OW17917   2.594   4.358   8.512
 5722SOL    HW117918   2.653   4.332   8.436
 5722SOL    HW217919   2.566   4.454   8.501
 5723SOL     OW17920   3.590   4.659   9.302
 5723SOL    HW117921   3.544   4.652   9.213
 5723SOL    HW217922   3.528   4.703   9.368
 5724SOL     OW17923   2.169   3.787   8.066
 5724SOL    HW117924   2.158   3.881   8.099
 5724SOL    HW217925   2.164   3.724   8.143
 5725SOL     OW17926   3.484   4.091   7.822
 5725SOL    HW117927   3.486   4.015   7.886
 5725SOL    HW217928   3.436   4.168   7.862
 5726SOL     OW17929   3.402   3.998   7.573
 5726SOL    HW117930   3.341   3.923   7.596
 5726SOL    HW217931   3.424   4.050   7.656
 5727SOL     OW17932   2.181   4.534   8.397
 5727SOL    HW117933   2.274   4.570   8.402
 5727SOL    HW217934   2.175   4.449   8.449
 5728SOL     OW17935   2.201   4.233   8.454
 5728SOL    HW117936   2.149   4.150   8.437
 5728SOL    HW217937   2.278   4.238   8.390
 5729SOL     OW17938   3.000   4.104   9.126
 5729SOL    HW117939   2.955   4.167   9.190
 5729SOL    HW217940   3.093   4.135   9.109
 5730SOL     OW17941   3.022   3.931   8.925
 5730SOL    HW117942   3.022   3.995   9.002
 5730SOL    HW217943   3.050   3.979   8.842
 5731SOL     OW17944   1.902   4.268   8.562
 5731SOL    HW117945   1.987   4.235   8.521
 5731SOL    HW217946   1.915   4.283   8.660
 5732SOL     OW17947   2.051   4.244   9.170
 5732SOL    HW117948   2.110   4.204   9.100
 5732SOL    HW217949   1.993   4.315   9.129
 5733SOL     OW17950   2.677   4.296   7.773
 5733SOL    HW117951   2.684   4.207   7.727
 5733SOL    HW217952   2.583   4.330   7.765
 5734SOL     OW17953   3.519   4.328   8.654
 5734SOL    HW117954   3.481   4.259   8.716
 5734SOL    HW217955   3.601   4.292   8.610
 5735SOL     OW17956   2.533   4.188   8.717
 5735SOL    HW117957   2.499   4.099   8.687
 5735SOL    HW217958   2.559   4.242   8.637
 5736SOL     OW17959   2.335   4.224   7.639
 5736SOL    HW117960   2.396   4.304   7.643
 5736SOL    HW217961   2.240   4.255   7.646
 5737SOL     OW17962   3.588   3.859   7.971
 5737SOL    HW117963   3.661   3.842   7.904
 5737SOL    HW217964   3.557   3.772   8.009
 5738SOL     OW17965   3.142   4.651   8.120
 5738SOL    HW117966   3.202   4.570   8.122
 5738SOL    HW217967   3.182   4.720   8.060
 5739SOL     OW17968   3.703   3.899   8.411
 5739SOL    HW117969   3.742   3.814   8.375
 5739SOL    HW217970   3.605   3.901   8.392
 5740SOL     OW17971   2.125   4.050   8.168
 5740SOL    HW117972   2.046   4.101   8.134
 5740SOL    HW217973   2.116   4.035   8.266
 5741SOL     OW17974   2.778   4.634   7.739
 5741SOL    HW117975   2.841   4.672   7.671
 5741SOL    HW217976   2.818   4.551   7.778
 5742SOL     OW17977   2.901   4.822   8.144
 5742SOL    HW117978   2.831   4.775   8.198
 5742SOL    HW217979   2.960   4.754   8.101
 5743SOL     OW17980   2.876   3.960   8.419
 5743SOL    HW117981   2.868   3.924   8.326
 5743SOL    HW217982   2.874   3.884   8.484
 5744SOL     OW17983   3.571   4.109   8.829
 5744SOL    HW117984   3.644   4.178   8.833
 5744SOL    HW217985   3.599   4.034   8.770
 5745SOL     OW17986   2.534   3.927   8.937
 5745SOL    HW117987   2.624   3.911   8.897
 5745SOL    HW217988   2.542   3.932   9.036
 5746SOL     OW17989   1.937   4.069   7.481
 5746SOL    HW117990   1.845   4.041   7.452
 5746SOL    HW217991   1.968   4.146   7.425
 5747SOL     OW17992   1.934   3.890   7.766
 5747SOL    HW117993   1.917   3.973   7.712
 5747SOL    HW217994   2.024   3.853   7.744
 5748SOL     OW17995   2.578   4.289   9.156
 5748SOL    HW117996   2.597   4.354   9.230
 5748SOL    HW217997   2.638   4.209   9.165
 5749SOL     OW17998   3.087   4.049   7.897
 5749SOL    HW117999   3.152   3.975   7.886
 5749SOL    HW218000   3.107   4.099   7.981
 5750SOL     OW18001   3.639   4.066   9.090
 5750SOL    HW118002   3.622   4.097   8.996
 5750SOL    HW218003   3.555   4.029   9.128
 5751SOL     OW18004   2.945   4.708   7.535
 5751SOL    HW118005   2.922   4.761   7.453
 5751SOL    HW218006   3.026   4.652   7.516
 5752SOL     OW18007   3.686   3.916   8.675
 5752SOL    HW118008   3.682   3.826   8.719
 5752SOL    HW218009   3.689   3.905   8.576
 5753SOL     OW18010   2.290   4.148   7.968
 5753SOL    HW118011   2.320   4.076   7.906
 5753SOL    HW218012   2.251   4.108   8.051
 5754SOL     OW18013   2.179   4.271   8.728
 5754SOL    HW118014   2.217   4.212   8.800
 5754SOL    HW218015   2.219   4.245   8.640
 5755SOL     OW18016   3.286   3.938   8.560
 5755SOL    HW118017   3.338   3.873   8.615
 5755SOL    HW218018   3.237   4.001   8.621
 5756SOL     OW18019   2.863   3.758   8.602
 5756SOL    HW118020   2.800   3.686   8.571
 5756SOL    HW218021   2.956   3.722   8.602
 5757SOL     OW18022   3.214   3.776   7.616
 5757SOL    HW118023   3.249   3.735   7.532
 5757SOL    HW218024   3.124   3.738   7.636
 5758SOL     OW18025   3.162   4.177   8.139
 5758SOL    HW118026   3.103   4.257   8.143
 5758SOL    HW218027   3.177   4.142   8.232
 5759SOL     OW18028   3.455   3.945   8.330
 5759SOL    HW118029   3.371   3.944   8.384
 5759SOL    HW218030   3.457   4.028   8.274
 5760SOL     OW18031   2.092   4.352   9.423
 5760SOL    HW118032   1.999   4.350   9.460
 5760SOL    HW218033   2.093   4.313   9.331
 5761SOL     OW18034   2.087   3.999  10.306
 5761SOL    HW118035   2.122   3.982  10.398
 5761SOL    HW218036   1.999   3.954  10.294
 5762SOL     OW18037   1.881   4.092   9.957
 5762SOL    HW118038   1.799   4.135   9.996
 5762SOL    HW218039   1.853   4.019   9.894
 5763SOL     OW18040   3.617   4.331   9.541
 5763SOL    HW118041   3.605   4.318   9.442
 5763SOL    HW218042   3.587   4.250   9.590
 5764SOL     OW18043   2.547   4.736   9.975
 5764SOL    HW118044   2.616   4.720  10.045
 5764SOL    HW218045   2.474   4.793  10.013
 5765SOL     OW18046   2.300   4.116  10.809
 5765SOL    HW118047   2.382   4.060  10.818
 5765SOL    HW218048   2.219   4.058  10.813
 5766SOL     OW18049   3.465   4.171  10.047
 5766SOL    HW118050   3.391   4.217   9.997
 5766SOL    HW218051   3.516   4.239  10.100
 5767SOL     OW18052   3.456   3.838  10.790
 5767SOL    HW118053   3.438   3.905  10.718
 5767SOL    HW218054   3.453   3.884  10.879
 5768SOL     OW18055   1.984   4.367   9.873
 5768SOL    HW118056   1.939   4.279   9.890
 5768SOL    HW218057   1.983   4.421   9.957
 5769SOL     OW18058   1.975   4.461  10.907
 5769SOL    HW118059   2.063   4.448  10.952
 5769SOL    HW218060   1.962   4.558  10.885
 5770SOL     OW18061   2.671   3.728   9.812
 5770SOL    HW118062   2.711   3.819   9.803
 5770SOL    HW218063   2.571   3.736   9.818
 5771SOL     OW18064   2.179   3.975  11.111
 5771SOL    HW118065   2.250   4.046  11.117
 5771SOL    HW218066   2.091   4.014  11.139
 5772SOL     OW18067   3.143   4.069  10.254
 5772SOL    HW118068   3.057   4.019  10.241
 5772SOL    HW218069   3.205   4.015  10.310
 5773SOL     OW18070   2.669   4.329  10.775
 5773SOL    HW118071   2.622   4.326  10.864
 5773SOL    HW218072   2.618   4.274  10.709
 5774SOL     OW18073   2.853   4.134  10.552
 5774SOL    HW118074   2.776   4.168  10.606
 5774SOL    HW218075   2.819   4.083  10.473
 5775SOL     OW18076   2.903   4.425   9.739
 5775SOL    HW118077   2.929   4.421   9.835
 5775SOL    HW218078   2.818   4.374   9.725
 5776SOL     OW18079   2.727   4.072   9.505
 5776SOL    HW118080   2.786   4.135   9.456
 5776SOL    HW218081   2.746   3.978   9.476
 5777SOL     OW18082   2.412   3.920  10.195
 5777SOL    HW118083   2.407   3.915  10.295
 5777SOL    HW218084   2.414   4.016  10.166
 5778SOL     OW18085   3.320   4.459  10.038
 5778SOL    HW118086   3.315   4.394  10.113
 5778SOL    HW218087   3.400   4.518  10.051
 5779SOL     OW18088   2.064   4.009  10.808
 5779SOL    HW118089   1.984   4.069  10.795
 5779SOL    HW218090   2.054   3.960  10.894
 5780SOL     OW18091   3.262   3.831   9.736
 5780SOL    HW118092   3.238   3.794   9.646
 5780SOL    HW218093   3.361   3.847   9.740
 5781SOL     OW18094   2.244   4.424   9.790
 5781SOL    HW118095   2.289   4.334   9.787
 5781SOL    HW218096   2.150   4.413   9.823
 5782SOL     OW18097   2.476   3.846   9.427
 5782SOL    HW118098   2.574   3.824   9.434
 5782SOL    HW218099   2.445   3.829   9.334
 5783SOL     OW18100   2.643   3.988  11.059
 5783SOL    HW118101   2.710   3.927  11.102
 5783SOL    HW218102   2.570   4.007  11.124
 5784SOL     OW18103   3.213   4.314  10.743
 5784SOL    HW118104   3.241   4.271  10.828
 5784SOL    HW218105   3.238   4.410  10.744
 5785SOL     OW18106   2.784   4.227  10.209
 5785SOL    HW118107   2.759   4.218  10.113
 5785SOL    HW218108   2.832   4.145  10.240
 5786SOL     OW18109   2.401   3.788   9.822
 5786SOL    HW118110   2.320   3.789   9.880
 5786SOL    HW218111   2.404   3.871   9.767
 5787SOL     OW18112   2.159   3.759   9.481
 5787SOL    HW118113   2.208   3.843   9.460
 5787SOL    HW218114   2.221   3.694   9.526
 5788SOL     OW18115   2.797   3.960   9.790
 5788SOL    HW118116   2.749   4.001   9.712
 5788SOL    HW218117   2.896   3.958   9.771
 5789SOL     OW18118   2.938   4.407  10.774
 5789SOL    HW118119   2.858   4.346  10.777
 5789SOL    HW218120   3.019   4.354  10.750
 5790SOL     OW18121   2.894   4.273   9.326
 5790SOL    HW118122   2.853   4.355   9.287
 5790SOL    HW218123   2.958   4.299   9.399
 5791SOL     OW18124   1.940   4.280  10.696
 5791SOL    HW118125   2.032   4.279  10.655
 5791SOL    HW218126   1.934   4.354  10.763
 5792SOL     OW18127   2.423   3.946  10.457
 5792SOL    HW118128   2.461   3.862  10.494
 5792SOL    HW218129   2.335   3.965  10.501
 5793SOL     OW18130   2.728   4.178   9.952
 5793SOL    HW118131   2.696   4.250   9.890
 5793SOL    HW218132   2.752   4.097   9.899
 5794SOL     OW18133   2.879   3.763  10.063
 5794SOL    HW118134   2.807   3.768   9.994
 5794SOL    HW218135   2.855   3.694  10.132
 5795SOL     OW18136   3.328   4.314  10.302
 5795SOL    HW118137   3.298   4.219  10.309
 5795SOL    HW218138   3.401   4.330  10.368
 5796SOL     OW18139   3.252   4.299   9.388
 5796SOL    HW118140   3.198   4.278   9.469
 5796SOL    HW218141   3.343   4.258   9.397
 5797SOL     OW18142   2.389   3.980   9.638
 5797SOL    HW118143   2.416   3.921   9.563
 5797SOL    HW218144   2.389   4.075   9.607
 5798SOL     OW18145   2.777   3.813  10.712
 5798SOL    HW118146   2.802   3.793  10.617
 5798SOL    HW218147   2.849   3.869  10.754
 5799SOL     OW18148   2.272   4.537  10.561
 5799SOL    HW118149   2.358   4.549  10.611
 5799SOL    HW218150   2.230   4.450  10.588
 5800SOL     OW18151   3.136   4.110  10.572
 5800SOL    HW118152   3.157   4.184  10.636
 5800SOL    HW218153   3.047   4.127  10.529
 5801SOL     OW18154   2.428   4.261  10.175
 5801SOL    HW118155   2.440   4.327  10.101
 5801SOL    HW218156   2.474   4.295  10.258
 5802SOL     OW18157   3.444   4.363   9.782
 5802SOL    HW118158   3.413   4.424   9.855
 5802SOL    HW218159   3.494   4.415   9.713
 5803SOL     OW18160   2.264   4.475  10.908
 5803SOL    HW118161   2.332   4.530  10.861
 5803SOL    HW218162   2.304   4.387  10.935
 5804SOL     OW18163   3.071   4.249   9.585
 5804SOL    HW118164   3.084   4.165   9.639
 5804SOL    HW218165   3.042   4.323   9.645
 5805SOL     OW18166   2.169   3.937  10.541
 5805SOL    HW118167   2.146   3.974  10.631
 5805SOL    HW218168   2.139   3.842  10.535
 5806SOL     OW18169   2.594   4.358  10.374
 5806SOL    HW118170   2.653   4.332  10.298
 5806SOL    HW218171   2.566   4.454  10.363
 5807SOL     OW18172   2.169   3.787   9.928
 5807SOL    HW118173   2.158   3.881   9.961
 5807SOL    HW218174   2.164   3.724  10.005
 5808SOL     OW18175   3.484   4.091   9.684
 5808SOL    HW118176   3.486   4.015   9.748
 5808SOL    HW218177   3.436   4.168   9.724
 5809SOL     OW18178   3.402   3.998   9.435
 5809SOL    HW118179   3.341   3.923   9.458
 5809SOL    HW218180   3.424   4.050   9.518
 5810SOL     OW18181   2.181   4.534  10.259
 5810SOL    HW118182   2.274   4.570  10.264
 5810SOL    HW218183   2.175   4.449  10.311
 5811SOL     OW18184   2.201   4.233  10.316
 5811SOL    HW118185   2.149   4.150  10.299
 5811SOL    HW218186   2.278   4.238  10.252
 5812SOL     OW18187   3.022   3.931  10.787
 5812SOL    HW118188   3.022   3.995  10.864
 5812SOL    HW218189   3.050   3.979  10.704
 5813SOL     OW18190   1.902   4.268  10.424
 5813SOL    HW118191   1.987   4.235  10.383
 5813SOL    HW218192   1.915   4.283  10.522
 5814SOL     OW18193   3.231   4.674  10.970
 5814SOL    HW118194   3.270   4.763  10.990
 5814SOL    HW218195   3.241   4.654  10.873
 5815SOL     OW18196   2.677   4.296   9.635
 5815SOL    HW118197   2.684   4.207   9.589
 5815SOL    HW218198   2.583   4.330   9.627
 5816SOL     OW18199   3.519   4.328  10.516
 5816SOL    HW118200   3.481   4.259  10.578
 5816SOL    HW218201   3.601   4.292  10.472
 5817SOL     OW18202   2.533   4.188  10.579
 5817SOL    HW118203   2.499   4.099  10.549
 5817SOL    HW218204   2.559   4.242  10.499
 5818SOL     OW18205   2.335   4.224   9.501
 5818SOL    HW118206   2.396   4.304   9.505
 5818SOL    HW218207   2.240   4.255   9.508
 5819SOL     OW18208   3.588   3.859   9.833
 5819SOL    HW118209   3.661   3.842   9.766
 5819SOL    HW218210   3.557   3.772   9.871
 5820SOL     OW18211   3.142   4.651   9.982
 5820SOL    HW118212   3.202   4.570   9.984
 5820SOL    HW218213   3.182   4.720   9.922
 5821SOL     OW18214   3.703   3.899  10.273
 5821SOL    HW118215   3.742   3.814  10.237
 5821SOL    HW218216   3.605   3.901  10.254
 5822SOL     OW18217   2.125   4.050  10.030
 5822SOL    HW118218   2.046   4.101   9.996
 5822SOL    HW218219   2.116   4.035  10.128
 5823SOL     OW18220   2.778   4.634   9.601
 5823SOL    HW118221   2.841   4.672   9.533
 5823SOL    HW218222   2.818   4.551   9.640
 5824SOL     OW18223   2.901   4.822  10.006
 5824SOL    HW118224   2.831   4.775  10.060
 5824SOL    HW218225   2.960   4.754   9.963
 5825SOL     OW18226   2.876   3.960  10.281
 5825SOL    HW118227   2.868   3.924  10.188
 5825SOL    HW218228   2.874   3.884  10.346
 5826SOL     OW18229   3.571   4.109  10.691
 5826SOL    HW118230   3.644   4.178  10.695
 5826SOL    HW218231   3.599   4.034  10.632
 5827SOL     OW18232   2.534   3.927  10.799
 5827SOL    HW118233   2.624   3.911  10.759
 5827SOL    HW218234   2.542   3.932  10.898
 5828SOL     OW18235   1.937   4.069   9.343
 5828SOL    HW118236   1.845   4.041   9.314
 5828SOL    HW218237   1.968   4.146   9.287
 5829SOL     OW18238   1.934   3.890   9.628
 5829SOL    HW118239   1.917   3.973   9.574
 5829SOL    HW218240   2.024   3.853   9.606
 5830SOL     OW18241   2.578   4.289  11.018
 5830SOL    HW118242   2.597   4.354  11.092
 5830SOL    HW218243   2.638   4.209  11.027
 5831SOL     OW18244   3.087   4.049   9.759
 5831SOL    HW118245   3.152   3.975   9.748
 5831SOL    HW218246   3.107   4.099   9.843
 5832SOL     OW18247   3.639   4.066  10.952
 5832SOL    HW118248   3.622   4.097  10.858
 5832SOL    HW218249   3.555   4.029  10.990
 5833SOL     OW18250   2.945   4.708   9.397
 5833SOL    HW118251   2.922   4.761   9.315
 5833SOL    HW218252   3.026   4.652   9.378
 5834SOL     OW18253   3.686   3.916  10.537
 5834SOL    HW118254   3.682   3.826  10.581
 5834SOL    HW218255   3.689   3.905  10.438
 5835SOL     OW18256   2.290   4.148   9.830
 5835SOL    HW118257   2.320   4.076   9.768
 5835SOL    HW218258   2.251   4.108   9.913
 5836SOL     OW18259   2.179   4.271  10.590
 5836SOL    HW118260   2.217   4.212  10.662
 5836SOL    HW218261   2.219   4.245  10.502
 5837SOL     OW18262   3.286   3.938  10.422
 5837SOL    HW118263   3.338   3.873  10.477
 5837SOL    HW218264   3.237   4.001  10.483
 5838SOL     OW18265   2.863   3.758  10.464
 5838SOL    HW118266   2.800   3.686  10.433
 5838SOL    HW218267   2.956   3.722  10.464
 5839SOL     OW18268   3.214   3.776   9.478
 5839SOL    HW118269   3.249   3.735   9.394
 5839SOL    HW218270   3.124   3.738   9.498
 5840SOL     OW18271   3.162   4.177  10.001
 5840SOL    HW118272   3.103   4.257  10.005
 5840SOL    HW218273   3.177   4.142  10.094
 5841SOL     OW18274   3.455   3.945  10.192
 5841SOL    HW118275   3.371   3.944  10.246
 5841SOL    HW218276   3.457   4.028  10.136
 5842SOL     OW18277   3.954   0.628   0.113
 5842SOL    HW118278   3.861   0.626   0.150
 5842SOL    HW218279   3.955   0.589   0.021
 5843SOL     OW18280   3.949   0.275   0.996
 5843SOL    HW118281   3.984   0.258   1.088
 5843SOL    HW218282   3.861   0.230   0.984
 5844SOL     OW18283   3.743   0.368   0.647
 5844SOL    HW118284   3.661   0.411   0.686
 5844SOL    HW218285   3.715   0.295   0.584
 5845SOL     OW18286   4.293   1.275   1.165
 5845SOL    HW118287   4.200   1.268   1.128
 5845SOL    HW218288   4.304   1.364   1.209
 5846SOL     OW18289   4.574   0.798   1.823
 5846SOL    HW118290   4.570   0.874   1.888
 5846SOL    HW218291   4.596   0.834   1.732
 5847SOL     OW18292   4.409   1.012   0.665
 5847SOL    HW118293   4.478   0.996   0.735
 5847SOL    HW218294   4.336   1.069   0.703
 5848SOL     OW18295   4.410   1.161   1.803
 5848SOL    HW118296   4.470   1.240   1.817
 5848SOL    HW218297   4.324   1.192   1.762
 5849SOL     OW18298   4.059   1.435   1.061
 5849SOL    HW118299   3.981   1.404   1.008
 5849SOL    HW218300   4.117   1.493   1.004
 5850SOL     OW18301   4.162   0.392   1.499
 5850SOL    HW118302   4.244   0.336   1.508
 5850SOL    HW218303   4.081   0.334   1.503
 5851SOL     OW18304   3.955   1.713   0.483
 5851SOL    HW118305   3.989   1.790   0.537
 5851SOL    HW218306   3.999   1.713   0.393
 5852SOL     OW18307   3.954   1.434   0.538
 5852SOL    HW118308   3.928   1.530   0.538
 5852SOL    HW218309   3.883   1.380   0.583
 5853SOL     OW18310   3.964   1.091   0.886
 5853SOL    HW118311   3.978   1.007   0.938
 5853SOL    HW218312   3.909   1.155   0.941
 5854SOL     OW18313   4.344   1.786   1.439
 5854SOL    HW118314   4.252   1.769   1.474
 5854SOL    HW218315   4.372   1.878   1.465
 5855SOL     OW18316   4.330   0.964   0.123
 5855SOL    HW118317   4.337   1.048   0.069
 5855SOL    HW218318   4.376   0.977   0.211
 5856SOL     OW18319   3.846   0.643   0.563
 5856SOL    HW118320   3.801   0.555   0.580
 5856SOL    HW218321   3.845   0.697   0.647
 5857SOL     OW18322   3.751   1.596   0.117
 5857SOL    HW118323   3.732   1.500   0.138
 5857SOL    HW218324   3.718   1.654   0.192
 5858SOL     OW18325   3.837   0.737   1.597
 5858SOL    HW118326   3.925   0.724   1.642
 5858SOL    HW218327   3.824   0.834   1.575
 5859SOL     OW18328   4.337   1.365   0.726
 5859SOL    HW118329   4.288   1.278   0.735
 5859SOL    HW218330   4.314   1.408   0.639
 5860SOL     OW18331   4.533   0.004   0.502
 5860SOL    HW118332   4.573   0.095   0.493
 5860SOL    HW218333   4.433   0.012   0.508
 5861SOL     OW18334   3.921   0.976   1.264
 5861SOL    HW118335   4.010   0.931   1.250
 5861SOL    HW218336   3.848   0.911   1.245
 5862SOL     OW18337   4.041   0.251   1.801
 5862SOL    HW118338   4.112   0.322   1.807
 5862SOL    HW218339   3.953   0.290   1.829
 5863SOL     OW18340   4.322   0.729   0.270
 5863SOL    HW118341   4.346   0.798   0.202
 5863SOL    HW218342   4.244   0.762   0.324
 5864SOL     OW18343   3.800   0.811   0.789
 5864SOL    HW118344   3.899   0.799   0.798
 5864SOL    HW218345   3.776   0.906   0.810
 5865SOL     OW18346   3.854   1.821   1.571
 5865SOL    HW118347   3.844   1.806   1.670
 5865SOL    HW218348   3.768   1.857   1.535
 5866SOL     OW18349   4.274   0.196   0.885
 5866SOL    HW118350   4.269   0.191   0.985
 5866SOL    HW218351   4.276   0.292   0.856
 5867SOL     OW18352   4.075   1.801   0.853
 5867SOL    HW118353   4.125   1.715   0.859
 5867SOL    HW218354   4.140   1.878   0.850
 5868SOL     OW18355   4.045   0.943   0.242
 5868SOL    HW118356   4.127   0.982   0.200
 5868SOL    HW218357   4.018   0.861   0.193
 5869SOL     OW18358   4.185   1.266   1.727
 5869SOL    HW118359   4.135   1.267   1.641
 5869SOL    HW218360   4.122   1.248   1.803
 5870SOL     OW18361   3.926   0.285   1.498
 5870SOL    HW118362   3.846   0.345   1.485
 5870SOL    HW218363   3.916   0.236   1.584
 5871SOL     OW18364   4.188   1.743   0.323
 5871SOL    HW118365   4.221   1.782   0.409
 5871SOL    HW218366   4.264   1.736   0.258
 5872SOL     OW18367   3.973   1.785   1.241
 5872SOL    HW118368   4.030   1.720   1.291
 5872SOL    HW218369   3.957   1.752   1.148
 5873SOL     OW18370   4.106   0.700   0.480
 5873SOL    HW118371   4.151   0.610   0.477
 5873SOL    HW218372   4.012   0.689   0.513
 5874SOL     OW18373   4.338   0.122   0.117
 5874SOL    HW118374   4.436   0.100   0.124
 5874SOL    HW218375   4.307   0.105   0.024
 5875SOL     OW18376   4.527   1.402   0.924
 5875SOL    HW118377   4.617   1.416   0.882
 5875SOL    HW218378   4.456   1.404   0.853
 5876SOL     OW18379   4.263   0.064   0.512
 5876SOL    HW118380   4.182   0.065   0.570
 5876SOL    HW218381   4.266   0.147   0.457
 5877SOL     OW18382   4.021   0.035   0.171
 5877SOL    HW118383   4.070   0.119   0.150
 5877SOL    HW218384   4.083  -0.030   0.216
 5878SOL     OW18385   4.800   0.683   1.464
 5878SOL    HW118386   4.720   0.622   1.467
 5878SOL    HW218387   4.881   0.630   1.440
 5879SOL     OW18388   4.183   1.152   0.741
 5879SOL    HW118389   4.112   1.125   0.806
 5879SOL    HW218390   4.157   1.124   0.648
 5880SOL     OW18391   3.802   0.556   1.386
 5880SOL    HW118392   3.894   0.555   1.345
 5880SOL    HW218393   3.796   0.630   1.453
 5881SOL     OW18394   4.285   0.222   1.147
 5881SOL    HW118395   4.323   0.138   1.184
 5881SOL    HW218396   4.197   0.241   1.191
 5882SOL     OW18397   4.212   1.385   0.174
 5882SOL    HW118398   4.125   1.370   0.221
 5882SOL    HW218399   4.195   1.411   0.079
 5883SOL     OW18400   4.251   0.256   0.328
 5883SOL    HW118401   4.278   0.197   0.253
 5883SOL    HW218402   4.251   0.351   0.297
 5884SOL     OW18403   4.134   0.813   1.251
 5884SOL    HW118404   4.220   0.825   1.301
 5884SOL    HW218405   4.092   0.726   1.278
 5885SOL     OW18406   3.788   1.564   1.331
 5885SOL    HW118407   3.742   1.646   1.297
 5885SOL    HW218408   3.886   1.583   1.340
 5886SOL     OW18409   4.091   1.100   0.501
 5886SOL    HW118410   4.084   1.183   0.445
 5886SOL    HW218411   4.095   1.020   0.441
 5887SOL     OW18412   4.290   0.537   0.865
 5887SOL    HW118413   4.302   0.603   0.791
 5887SOL    HW218414   4.336   0.571   0.948
 5888SOL     OW18415   4.078   1.510   1.329
 5888SOL    HW118416   4.057   1.466   1.242
 5888SOL    HW218417   4.175   1.536   1.332
 5889SOL     OW18418   4.126   0.751   1.598
 5889SOL    HW118419   4.194   0.806   1.551
 5889SOL    HW218420   4.166   0.663   1.625
 5890SOL     OW18421   4.228   0.050   1.740
 5890SOL    HW118422   4.186  -0.007   1.670
 5890SOL    HW218423   4.162   0.119   1.772
 5891SOL     OW18424   4.297   0.870   1.029
 5891SOL    HW118425   4.341   0.959   1.020
 5891SOL    HW218426   4.234   0.870   1.106
 5892SOL     OW18427   4.031   0.213   1.231
 5892SOL    HW118428   4.008   0.250   1.321
 5892SOL    HW218429   4.001   0.118   1.225
 5893SOL     OW18430   3.761   1.310   1.282
 5893SOL    HW118431   3.814   1.261   1.350
 5893SOL    HW218432   3.783   1.408   1.287
 5894SOL     OW18433   4.031   0.063   0.618
 5894SOL    HW118434   4.020   0.157   0.651
 5894SOL    HW218435   4.026   0.000   0.695
 5895SOL     OW18436   4.074   0.898   1.804
 5895SOL    HW118437   4.150   0.942   1.852
 5895SOL    HW218438   4.109   0.851   1.722
 5896SOL     OW18439   4.043   0.810   0.949
 5896SOL    HW118440   4.136   0.846   0.954
 5896SOL    HW218441   4.037   0.725   1.001
 5897SOL     OW18442   4.063   0.509   1.006
 5897SOL    HW118443   4.011   0.426   0.989
 5897SOL    HW218444   4.140   0.514   0.942
 5898SOL     OW18445   3.732   1.326   0.200
 5898SOL    HW118446   3.639   1.347   0.169
 5898SOL    HW218447   3.742   1.227   0.213
 5899SOL     OW18448   3.812   1.801   0.927
 5899SOL    HW118449   3.770   1.715   0.900
 5899SOL    HW218450   3.906   1.804   0.893
 5900SOL     OW18451   4.228   1.568   0.910
 5900SOL    HW118452   4.294   1.642   0.919
 5900SOL    HW218453   4.272   1.489   0.868
 5901SOL     OW18454   3.764   0.544   1.114
 5901SOL    HW118455   3.849   0.511   1.073
 5901SOL    HW218456   3.777   0.559   1.212
 5902SOL     OW18457   3.913   0.520   1.722
 5902SOL    HW118458   3.972   0.480   1.652
 5902SOL    HW218459   3.855   0.591   1.681
 5903SOL     OW18460   4.539   0.572   0.325
 5903SOL    HW118461   4.546   0.483   0.279
 5903SOL    HW218462   4.445   0.606   0.317
 5904SOL     OW18463   3.976   1.564   1.744
 5904SOL    HW118464   3.946   1.621   1.820
 5904SOL    HW218465   3.969   1.467   1.770
 5905SOL     OW18466   4.197   0.500   0.191
 5905SOL    HW118467   4.258   0.580   0.195
 5905SOL    HW218468   4.102   0.531   0.198
 5906SOL     OW18469   3.883   1.137   1.466
 5906SOL    HW118470   3.905   1.076   1.542
 5906SOL    HW218471   3.893   1.088   1.380
 5907SOL     OW18472   3.807   1.258   1.022
 5907SOL    HW118473   3.802   1.257   1.122
 5907SOL    HW218474   3.724   1.217   0.984
 5908SOL     OW18475   4.412   1.662   1.716
 5908SOL    HW118476   4.356   1.743   1.725
 5908SOL    HW218477   4.464   1.666   1.630
 5909SOL     OW18478   3.854   1.794   1.851
 5909SOL    HW118479   3.813   1.720   1.904
 5909SOL    HW218480   3.918   1.845   1.909
 5910SOL     OW18481   3.987   0.326   0.720
 5910SOL    HW118482   3.908   0.377   0.686
 5910SOL    HW218483   3.978   0.311   0.818
 5911SOL     OW18484   4.096   1.288   1.490
 5911SOL    HW118485   4.083   1.381   1.456
 5911SOL    HW218486   4.012   1.236   1.477
 5912SOL     OW18487   4.314   1.487   0.491
 5912SOL    HW118488   4.356   1.429   0.421
 5912SOL    HW218489   4.270   1.566   0.447
 5913SOL     OW18490   3.979   1.348   0.290
 5913SOL    HW118491   3.883   1.349   0.263
 5913SOL    HW218492   3.991   1.401   0.374
 5914SOL     OW18493   3.829   1.013   1.726
 5914SOL    HW118494   3.752   0.980   1.780
 5914SOL    HW218495   3.914   0.983   1.768
 5915SOL     OW18496   4.396   0.203   1.489
 5915SOL    HW118497   4.486   0.187   1.449
 5915SOL    HW218498   4.404   0.208   1.588
 5916SOL     OW18499   3.799   0.345   0.033
 5916SOL    HW118500   3.707   0.317   0.004
 5916SOL    HW218501   3.830   0.422  -0.023
 5917SOL     OW18502   3.796   0.166   0.318
 5917SOL    HW118503   3.779   0.249   0.264
 5917SOL    HW218504   3.886   0.129   0.296
 5918SOL     OW18505   4.337   0.842   1.431
 5918SOL    HW118506   4.393   0.923   1.414
 5918SOL    HW218507   4.396   0.762   1.434
 5919SOL     OW18508   4.440   0.565   1.708
 5919SOL    HW118509   4.459   0.630   1.782
 5919SOL    HW218510   4.500   0.485   1.717
 5920SOL     OW18511   4.114   1.741   1.560
 5920SOL    HW118512   4.023   1.782   1.558
 5920SOL    HW218513   4.107   1.647   1.592
 5921SOL     OW18514   4.318   0.745   0.652
 5921SOL    HW118515   4.368   0.830   0.633
 5921SOL    HW218516   4.230   0.747   0.604
 5922SOL     OW18517   3.945   1.314   1.844
 5922SOL    HW118518   3.880   1.241   1.823
 5922SOL    HW218519   3.949   1.328   1.942
 5923SOL     OW18520   3.803   1.240   0.653
 5923SOL    HW118521   3.802   1.193   0.741
 5923SOL    HW218522   3.885   1.212   0.602
 5924SOL     OW18523   4.396   1.391   1.624
 5924SOL    HW118524   4.318   1.341   1.662
 5924SOL    HW218525   4.393   1.486   1.655
 5925SOL     OW18526   4.152   0.424   0.520
 5925SOL    HW118527   4.182   0.352   0.458
 5925SOL    HW218528   4.113   0.384   0.603
 5926SOL     OW18529   4.041   0.547   1.280
 5926SOL    HW118530   4.079   0.488   1.352
 5926SOL    HW218531   4.081   0.521   1.192
 5927SOL     OW18532   4.536   1.586   0.687
 5927SOL    HW118533   4.568   1.596   0.593
 5927SOL    HW218534   4.457   1.524   0.689
 5928SOL     OW18535   3.763   1.077   0.300
 5928SOL    HW118536   3.862   1.066   0.291
 5928SOL    HW218537   3.723   0.991   0.332
 5929SOL     OW18538   3.954   0.628   1.975
 5929SOL    HW118539   3.861   0.626   2.012
 5929SOL    HW218540   3.955   0.589   1.883
 5930SOL     OW18541   3.949   0.275   2.858
 5930SOL    HW118542   3.984   0.258   2.950
 5930SOL    HW218543   3.861   0.230   2.846
 5931SOL     OW18544   3.743   0.368   2.509
 5931SOL    HW118545   3.661   0.411   2.548
 5931SOL    HW218546   3.715   0.295   2.446
 5932SOL     OW18547   4.293   1.275   3.027
 5932SOL    HW118548   4.200   1.268   2.990
 5932SOL    HW218549   4.304   1.364   3.071
 5933SOL     OW18550   4.574   0.798   3.685
 5933SOL    HW118551   4.570   0.874   3.750
 5933SOL    HW218552   4.596   0.834   3.594
 5934SOL     OW18553   4.409   1.012   2.527
 5934SOL    HW118554   4.478   0.996   2.597
 5934SOL    HW218555   4.336   1.069   2.565
 5935SOL     OW18556   4.410   1.161   3.665
 5935SOL    HW118557   4.470   1.240   3.679
 5935SOL    HW218558   4.324   1.192   3.624
 5936SOL     OW18559   4.059   1.435   2.923
 5936SOL    HW118560   3.981   1.404   2.870
 5936SOL    HW218561   4.117   1.493   2.866
 5937SOL     OW18562   4.162   0.392   3.361
 5937SOL    HW118563   4.244   0.336   3.370
 5937SOL    HW218564   4.081   0.334   3.365
 5938SOL     OW18565   3.955   1.713   2.345
 5938SOL    HW118566   3.989   1.790   2.399
 5938SOL    HW218567   3.999   1.713   2.255
 5939SOL     OW18568   3.954   1.434   2.400
 5939SOL    HW118569   3.928   1.530   2.400
 5939SOL    HW218570   3.883   1.380   2.445
 5940SOL     OW18571   3.964   1.091   2.748
 5940SOL    HW118572   3.978   1.007   2.800
 5940SOL    HW218573   3.909   1.155   2.803
 5941SOL     OW18574   4.344   1.786   3.301
 5941SOL    HW118575   4.252   1.769   3.336
 5941SOL    HW218576   4.372   1.878   3.327
 5942SOL     OW18577   4.330   0.964   1.985
 5942SOL    HW118578   4.337   1.048   1.931
 5942SOL    HW218579   4.376   0.977   2.073
 5943SOL     OW18580   3.846   0.643   2.425
 5943SOL    HW118581   3.801   0.555   2.442
 5943SOL    HW218582   3.845   0.697   2.509
 5944SOL     OW18583   3.751   1.596   1.979
 5944SOL    HW118584   3.732   1.500   2.000
 5944SOL    HW218585   3.718   1.654   2.054
 5945SOL     OW18586   3.837   0.737   3.459
 5945SOL    HW118587   3.925   0.724   3.504
 5945SOL    HW218588   3.824   0.834   3.437
 5946SOL     OW18589   4.337   1.365   2.588
 5946SOL    HW118590   4.288   1.278   2.597
 5946SOL    HW218591   4.314   1.408   2.501
 5947SOL     OW18592   4.533   0.004   2.364
 5947SOL    HW118593   4.573   0.095   2.355
 5947SOL    HW218594   4.433   0.012   2.370
 5948SOL     OW18595   3.921   0.976   3.126
 5948SOL    HW118596   4.010   0.931   3.112
 5948SOL    HW218597   3.848   0.911   3.107
 5949SOL     OW18598   4.041   0.251   3.663
 5949SOL    HW118599   4.112   0.322   3.669
 5949SOL    HW218600   3.953   0.290   3.691
 5950SOL     OW18601   4.322   0.729   2.132
 5950SOL    HW118602   4.346   0.798   2.064
 5950SOL    HW218603   4.244   0.762   2.186
 5951SOL     OW18604   3.800   0.811   2.651
 5951SOL    HW118605   3.899   0.799   2.660
 5951SOL    HW218606   3.776   0.906   2.672
 5952SOL     OW18607   3.854   1.821   3.433
 5952SOL    HW118608   3.844   1.806   3.532
 5952SOL    HW218609   3.768   1.857   3.397
 5953SOL     OW18610   4.274   0.196   2.747
 5953SOL    HW118611   4.269   0.191   2.847
 5953SOL    HW218612   4.276   0.292   2.718
 5954SOL     OW18613   4.075   1.801   2.715
 5954SOL    HW118614   4.125   1.715   2.721
 5954SOL    HW218615   4.140   1.878   2.712
 5955SOL     OW18616   4.045   0.943   2.104
 5955SOL    HW118617   4.127   0.982   2.062
 5955SOL    HW218618   4.018   0.861   2.055
 5956SOL     OW18619   4.185   1.266   3.589
 5956SOL    HW118620   4.135   1.267   3.503
 5956SOL    HW218621   4.122   1.248   3.665
 5957SOL     OW18622   3.926   0.285   3.360
 5957SOL    HW118623   3.846   0.345   3.347
 5957SOL    HW218624   3.916   0.236   3.446
 5958SOL     OW18625   4.188   1.743   2.185
 5958SOL    HW118626   4.221   1.782   2.271
 5958SOL    HW218627   4.264   1.736   2.120
 5959SOL     OW18628   3.973   1.785   3.103
 5959SOL    HW118629   4.030   1.720   3.153
 5959SOL    HW218630   3.957   1.752   3.010
 5960SOL     OW18631   4.106   0.700   2.342
 5960SOL    HW118632   4.151   0.610   2.339
 5960SOL    HW218633   4.012   0.689   2.375
 5961SOL     OW18634   4.338   0.122   1.979
 5961SOL    HW118635   4.436   0.100   1.986
 5961SOL    HW218636   4.307   0.105   1.886
 5962SOL     OW18637   4.527   1.402   2.786
 5962SOL    HW118638   4.617   1.416   2.744
 5962SOL    HW218639   4.456   1.404   2.715
 5963SOL     OW18640   4.263   0.064   2.374
 5963SOL    HW118641   4.182   0.065   2.432
 5963SOL    HW218642   4.266   0.147   2.319
 5964SOL     OW18643   4.021   0.035   2.033
 5964SOL    HW118644   4.070   0.119   2.012
 5964SOL    HW218645   4.083  -0.030   2.078
 5965SOL     OW18646   4.800   0.683   3.326
 5965SOL    HW118647   4.720   0.622   3.329
 5965SOL    HW218648   4.881   0.630   3.302
 5966SOL     OW18649   4.183   1.152   2.603
 5966SOL    HW118650   4.112   1.125   2.668
 5966SOL    HW218651   4.157   1.124   2.510
 5967SOL     OW18652   3.802   0.556   3.248
 5967SOL    HW118653   3.894   0.555   3.207
 5967SOL    HW218654   3.796   0.630   3.315
 5968SOL     OW18655   4.285   0.222   3.009
 5968SOL    HW118656   4.323   0.138   3.046
 5968SOL    HW218657   4.197   0.241   3.053
 5969SOL     OW18658   4.212   1.385   2.036
 5969SOL    HW118659   4.125   1.370   2.083
 5969SOL    HW218660   4.195   1.411   1.941
 5970SOL     OW18661   4.251   0.256   2.190
 5970SOL    HW118662   4.278   0.197   2.115
 5970SOL    HW218663   4.251   0.351   2.159
 5971SOL     OW18664   4.134   0.813   3.113
 5971SOL    HW118665   4.220   0.825   3.163
 5971SOL    HW218666   4.092   0.726   3.140
 5972SOL     OW18667   3.788   1.564   3.193
 5972SOL    HW118668   3.742   1.646   3.159
 5972SOL    HW218669   3.886   1.583   3.202
 5973SOL     OW18670   4.091   1.100   2.363
 5973SOL    HW118671   4.084   1.183   2.307
 5973SOL    HW218672   4.095   1.020   2.303
 5974SOL     OW18673   4.290   0.537   2.727
 5974SOL    HW118674   4.302   0.603   2.653
 5974SOL    HW218675   4.336   0.571   2.810
 5975SOL     OW18676   4.078   1.510   3.191
 5975SOL    HW118677   4.057   1.466   3.104
 5975SOL    HW218678   4.175   1.536   3.194
 5976SOL     OW18679   4.126   0.751   3.460
 5976SOL    HW118680   4.194   0.806   3.413
 5976SOL    HW218681   4.166   0.663   3.487
 5977SOL     OW18682   4.228   0.050   3.602
 5977SOL    HW118683   4.186  -0.007   3.532
 5977SOL    HW218684   4.162   0.119   3.634
 5978SOL     OW18685   4.297   0.870   2.891
 5978SOL    HW118686   4.341   0.959   2.882
 5978SOL    HW218687   4.234   0.870   2.968
 5979SOL     OW18688   4.031   0.213   3.093
 5979SOL    HW118689   4.008   0.250   3.183
 5979SOL    HW218690   4.001   0.118   3.087
 5980SOL     OW18691   3.761   1.310   3.144
 5980SOL    HW118692   3.814   1.261   3.212
 5980SOL    HW218693   3.783   1.408   3.149
 5981SOL     OW18694   4.031   0.063   2.480
 5981SOL    HW118695   4.020   0.157   2.513
 5981SOL    HW218696   4.026   0.000   2.557
 5982SOL     OW18697   4.074   0.898   3.666
 5982SOL    HW118698   4.150   0.942   3.714
 5982SOL    HW218699   4.109   0.851   3.584
 5983SOL     OW18700   4.043   0.810   2.811
 5983SOL    HW118701   4.136   0.846   2.816
 5983SOL    HW218702   4.037   0.725   2.863
 5984SOL     OW18703   4.063   0.509   2.868
 5984SOL    HW118704   4.011   0.426   2.851
 5984SOL    HW218705   4.140   0.514   2.804
 5985SOL     OW18706   3.732   1.326   2.062
 5985SOL    HW118707   3.639   1.347   2.031
 5985SOL    HW218708   3.742   1.227   2.075
 5986SOL     OW18709   3.812   1.801   2.789
 5986SOL    HW118710   3.770   1.715   2.762
 5986SOL    HW218711   3.906   1.804   2.755
 5987SOL     OW18712   4.228   1.568   2.772
 5987SOL    HW118713   4.294   1.642   2.781
 5987SOL    HW218714   4.272   1.489   2.730
 5988SOL     OW18715   3.764   0.544   2.976
 5988SOL    HW118716   3.849   0.511   2.935
 5988SOL    HW218717   3.777   0.559   3.074
 5989SOL     OW18718   3.913   0.520   3.584
 5989SOL    HW118719   3.972   0.480   3.514
 5989SOL    HW218720   3.855   0.591   3.543
 5990SOL     OW18721   4.539   0.572   2.187
 5990SOL    HW118722   4.546   0.483   2.141
 5990SOL    HW218723   4.445   0.606   2.179
 5991SOL     OW18724   3.976   1.564   3.606
 5991SOL    HW118725   3.946   1.621   3.682
 5991SOL    HW218726   3.969   1.467   3.632
 5992SOL     OW18727   4.197   0.500   2.053
 5992SOL    HW118728   4.258   0.580   2.057
 5992SOL    HW218729   4.102   0.531   2.060
 5993SOL     OW18730   3.883   1.137   3.328
 5993SOL    HW118731   3.905   1.076   3.404
 5993SOL    HW218732   3.893   1.088   3.242
 5994SOL     OW18733   3.807   1.258   2.884
 5994SOL    HW118734   3.802   1.257   2.984
 5994SOL    HW218735   3.724   1.217   2.846
 5995SOL     OW18736   4.412   1.662   3.578
 5995SOL    HW118737   4.356   1.743   3.587
 5995SOL    HW218738   4.464   1.666   3.492
 5996SOL     OW18739   3.854   1.794   3.713
 5996SOL    HW118740   3.813   1.720   3.766
 5996SOL    HW218741   3.918   1.845   3.771
 5997SOL     OW18742   3.987   0.326   2.582
 5997SOL    HW118743   3.908   0.377   2.548
 5997SOL    HW218744   3.978   0.311   2.680
 5998SOL     OW18745   4.096   1.288   3.352
 5998SOL    HW118746   4.083   1.381   3.318
 5998SOL    HW218747   4.012   1.236   3.339
 5999SOL     OW18748   4.314   1.487   2.353
 5999SOL    HW118749   4.356   1.429   2.283
 5999SOL    HW218750   4.270   1.566   2.309
 6000SOL     OW18751   3.979   1.348   2.152
 6000SOL    HW118752   3.883   1.349   2.125
 6000SOL    HW218753   3.991   1.401   2.236
 6001SOL     OW18754   3.829   1.013   3.588
 6001SOL    HW118755   3.752   0.980   3.642
 6001SOL    HW218756   3.914   0.983   3.630
 6002SOL     OW18757   4.396   0.203   3.351
 6002SOL    HW118758   4.486   0.187   3.311
 6002SOL    HW218759   4.404   0.208   3.450
 6003SOL     OW18760   3.799   0.345   1.895
 6003SOL    HW118761   3.707   0.317   1.866
 6003SOL    HW218762   3.830   0.422   1.839
 6004SOL     OW18763   3.796   0.166   2.180
 6004SOL    HW118764   3.779   0.249   2.126
 6004SOL    HW218765   3.886   0.129   2.158
 6005SOL     OW18766   4.337   0.842   3.293
 6005SOL    HW118767   4.393   0.923   3.276
 6005SOL    HW218768   4.396   0.762   3.296
 6006SOL     OW18769   4.440   0.565   3.570
 6006SOL    HW118770   4.459   0.630   3.644
 6006SOL    HW218771   4.500   0.485   3.579
 6007SOL     OW18772   4.114   1.741   3.422
 6007SOL    HW118773   4.023   1.782   3.420
 6007SOL    HW218774   4.107   1.647   3.454
 6008SOL     OW18775   4.318   0.745   2.514
 6008SOL    HW118776   4.368   0.830   2.495
 6008SOL    HW218777   4.230   0.747   2.466
 6009SOL     OW18778   3.945   1.314   3.706
 6009SOL    HW118779   3.880   1.241   3.685
 6009SOL    HW218780   3.949   1.328   3.804
 6010SOL     OW18781   3.803   1.240   2.515
 6010SOL    HW118782   3.802   1.193   2.603
 6010SOL    HW218783   3.885   1.212   2.464
 6011SOL     OW18784   4.396   1.391   3.486
 6011SOL    HW118785   4.318   1.341   3.524
 6011SOL    HW218786   4.393   1.486   3.517
 6012SOL     OW18787   4.152   0.424   2.382
 6012SOL    HW118788   4.182   0.352   2.320
 6012SOL    HW218789   4.113   0.384   2.465
 6013SOL     OW18790   4.041   0.547   3.142
 6013SOL    HW118791   4.079   0.488   3.214
 6013SOL    HW218792   4.081   0.521   3.054
 6014SOL     OW18793   4.536   1.586   2.549
 6014SOL    HW118794   4.568   1.596   2.455
 6014SOL    HW218795   4.457   1.524   2.551
 6015SOL     OW18796   3.763   1.077   2.162
 6015SOL    HW118797   3.862   1.066   2.153
 6015SOL    HW218798   3.723   0.991   2.194
 6016SOL     OW18799   3.954   0.628   3.837
 6016SOL    HW118800   3.861   0.626   3.874
 6016SOL    HW218801   3.955   0.589   3.745
 6017SOL     OW18802   3.949   0.275   4.720
 6017SOL    HW118803   3.984   0.258   4.812
 6017SOL    HW218804   3.861   0.230   4.708
 6018SOL     OW18805   3.743   0.368   4.371
 6018SOL    HW118806   3.661   0.411   4.410
 6018SOL    HW218807   3.715   0.295   4.308
 6019SOL     OW18808   4.293   1.275   4.889
 6019SOL    HW118809   4.200   1.268   4.852
 6019SOL    HW218810   4.304   1.364   4.933
 6020SOL     OW18811   4.574   0.798   5.547
 6020SOL    HW118812   4.570   0.874   5.612
 6020SOL    HW218813   4.596   0.834   5.456
 6021SOL     OW18814   4.409   1.012   4.389
 6021SOL    HW118815   4.478   0.996   4.459
 6021SOL    HW218816   4.336   1.069   4.427
 6022SOL     OW18817   4.410   1.161   5.527
 6022SOL    HW118818   4.470   1.240   5.541
 6022SOL    HW218819   4.324   1.192   5.486
 6023SOL     OW18820   4.059   1.435   4.785
 6023SOL    HW118821   3.981   1.404   4.732
 6023SOL    HW218822   4.117   1.493   4.728
 6024SOL     OW18823   4.162   0.392   5.223
 6024SOL    HW118824   4.244   0.336   5.232
 6024SOL    HW218825   4.081   0.334   5.227
 6025SOL     OW18826   3.955   1.713   4.207
 6025SOL    HW118827   3.989   1.790   4.261
 6025SOL    HW218828   3.999   1.713   4.117
 6026SOL     OW18829   3.954   1.434   4.262
 6026SOL    HW118830   3.928   1.530   4.262
 6026SOL    HW218831   3.883   1.380   4.307
 6027SOL     OW18832   3.964   1.091   4.610
 6027SOL    HW118833   3.978   1.007   4.662
 6027SOL    HW218834   3.909   1.155   4.665
 6028SOL     OW18835   4.344   1.786   5.163
 6028SOL    HW118836   4.252   1.769   5.198
 6028SOL    HW218837   4.372   1.878   5.189
 6029SOL     OW18838   4.330   0.964   3.847
 6029SOL    HW118839   4.337   1.048   3.793
 6029SOL    HW218840   4.376   0.977   3.935
 6030SOL     OW18841   3.846   0.643   4.287
 6030SOL    HW118842   3.801   0.555   4.304
 6030SOL    HW218843   3.845   0.697   4.371
 6031SOL     OW18844   3.751   1.596   3.841
 6031SOL    HW118845   3.732   1.500   3.862
 6031SOL    HW218846   3.718   1.654   3.916
 6032SOL     OW18847   3.837   0.737   5.321
 6032SOL    HW118848   3.925   0.724   5.366
 6032SOL    HW218849   3.824   0.834   5.299
 6033SOL     OW18850   4.337   1.365   4.450
 6033SOL    HW118851   4.288   1.278   4.459
 6033SOL    HW218852   4.314   1.408   4.363
 6034SOL     OW18853   4.533   0.004   4.226
 6034SOL    HW118854   4.573   0.095   4.217
 6034SOL    HW218855   4.433   0.012   4.232
 6035SOL     OW18856   3.921   0.976   4.988
 6035SOL    HW118857   4.010   0.931   4.974
 6035SOL    HW218858   3.848   0.911   4.969
 6036SOL     OW18859   4.041   0.251   5.525
 6036SOL    HW118860   4.112   0.322   5.531
 6036SOL    HW218861   3.953   0.290   5.553
 6037SOL     OW18862   4.322   0.729   3.994
 6037SOL    HW118863   4.346   0.798   3.926
 6037SOL    HW218864   4.244   0.762   4.048
 6038SOL     OW18865   3.800   0.811   4.513
 6038SOL    HW118866   3.899   0.799   4.522
 6038SOL    HW218867   3.776   0.906   4.534
 6039SOL     OW18868   3.854   1.821   5.295
 6039SOL    HW118869   3.844   1.806   5.394
 6039SOL    HW218870   3.768   1.857   5.259
 6040SOL     OW18871   4.274   0.196   4.609
 6040SOL    HW118872   4.269   0.191   4.709
 6040SOL    HW218873   4.276   0.292   4.580
 6041SOL     OW18874   4.075   1.801   4.577
 6041SOL    HW118875   4.125   1.715   4.583
 6041SOL    HW218876   4.140   1.878   4.574
 6042SOL     OW18877   4.045   0.943   3.966
 6042SOL    HW118878   4.127   0.982   3.924
 6042SOL    HW218879   4.018   0.861   3.917
 6043SOL     OW18880   4.185   1.266   5.451
 6043SOL    HW118881   4.135   1.267   5.365
 6043SOL    HW218882   4.122   1.248   5.527
 6044SOL     OW18883   3.926   0.285   5.222
 6044SOL    HW118884   3.846   0.345   5.209
 6044SOL    HW218885   3.916   0.236   5.308
 6045SOL     OW18886   4.188   1.743   4.047
 6045SOL    HW118887   4.221   1.782   4.133
 6045SOL    HW218888   4.264   1.736   3.982
 6046SOL     OW18889   3.973   1.785   4.965
 6046SOL    HW118890   4.030   1.720   5.015
 6046SOL    HW218891   3.957   1.752   4.872
 6047SOL     OW18892   4.106   0.700   4.204
 6047SOL    HW118893   4.151   0.610   4.201
 6047SOL    HW218894   4.012   0.689   4.237
 6048SOL     OW18895   4.338   0.122   3.841
 6048SOL    HW118896   4.436   0.100   3.848
 6048SOL    HW218897   4.307   0.105   3.748
 6049SOL     OW18898   4.527   1.402   4.648
 6049SOL    HW118899   4.617   1.416   4.606
 6049SOL    HW218900   4.456   1.404   4.577
 6050SOL     OW18901   4.263   0.064   4.236
 6050SOL    HW118902   4.182   0.065   4.294
 6050SOL    HW218903   4.266   0.147   4.181
 6051SOL     OW18904   4.021   0.035   3.895
 6051SOL    HW118905   4.070   0.119   3.874
 6051SOL    HW218906   4.083  -0.030   3.940
 6052SOL     OW18907   4.800   0.683   5.188
 6052SOL    HW118908   4.720   0.622   5.191
 6052SOL    HW218909   4.881   0.630   5.164
 6053SOL     OW18910   4.183   1.152   4.465
 6053SOL    HW118911   4.112   1.125   4.530
 6053SOL    HW218912   4.157   1.124   4.372
 6054SOL     OW18913   3.802   0.556   5.110
 6054SOL    HW118914   3.894   0.555   5.069
 6054SOL    HW218915   3.796   0.630   5.177
 6055SOL     OW18916   4.285   0.222   4.871
 6055SOL    HW118917   4.323   0.138   4.908
 6055SOL    HW218918   4.197   0.241   4.915
 6056SOL     OW18919   4.212   1.385   3.898
 6056SOL    HW118920   4.125   1.370   3.945
 6056SOL    HW218921   4.195   1.411   3.803
 6057SOL     OW18922   4.251   0.256   4.052
 6057SOL    HW118923   4.278   0.197   3.977
 6057SOL    HW218924   4.251   0.351   4.021
 6058SOL     OW18925   4.134   0.813   4.975
 6058SOL    HW118926   4.220   0.825   5.025
 6058SOL    HW218927   4.092   0.726   5.002
 6059SOL     OW18928   3.788   1.564   5.055
 6059SOL    HW118929   3.742   1.646   5.021
 6059SOL    HW218930   3.886   1.583   5.064
 6060SOL     OW18931   4.091   1.100   4.225
 6060SOL    HW118932   4.084   1.183   4.169
 6060SOL    HW218933   4.095   1.020   4.165
 6061SOL     OW18934   4.290   0.537   4.589
 6061SOL    HW118935   4.302   0.603   4.515
 6061SOL    HW218936   4.336   0.571   4.672
 6062SOL     OW18937   4.078   1.510   5.053
 6062SOL    HW118938   4.057   1.466   4.966
 6062SOL    HW218939   4.175   1.536   5.056
 6063SOL     OW18940   4.126   0.751   5.322
 6063SOL    HW118941   4.194   0.806   5.275
 6063SOL    HW218942   4.166   0.663   5.349
 6064SOL     OW18943   4.228   0.050   5.464
 6064SOL    HW118944   4.186  -0.007   5.394
 6064SOL    HW218945   4.162   0.119   5.496
 6065SOL     OW18946   4.297   0.870   4.753
 6065SOL    HW118947   4.341   0.959   4.744
 6065SOL    HW218948   4.234   0.870   4.830
 6066SOL     OW18949   4.031   0.213   4.955
 6066SOL    HW118950   4.008   0.250   5.045
 6066SOL    HW218951   4.001   0.118   4.949
 6067SOL     OW18952   3.761   1.310   5.006
 6067SOL    HW118953   3.814   1.261   5.074
 6067SOL    HW218954   3.783   1.408   5.011
 6068SOL     OW18955   4.031   0.063   4.342
 6068SOL    HW118956   4.020   0.157   4.375
 6068SOL    HW218957   4.026   0.000   4.419
 6069SOL     OW18958   4.074   0.898   5.528
 6069SOL    HW118959   4.150   0.942   5.576
 6069SOL    HW218960   4.109   0.851   5.446
 6070SOL     OW18961   4.043   0.810   4.673
 6070SOL    HW118962   4.136   0.846   4.678
 6070SOL    HW218963   4.037   0.725   4.725
 6071SOL     OW18964   4.063   0.509   4.730
 6071SOL    HW118965   4.011   0.426   4.713
 6071SOL    HW218966   4.140   0.514   4.666
 6072SOL     OW18967   3.732   1.326   3.924
 6072SOL    HW118968   3.639   1.347   3.893
 6072SOL    HW218969   3.742   1.227   3.937
 6073SOL     OW18970   3.812   1.801   4.651
 6073SOL    HW118971   3.770   1.715   4.624
 6073SOL    HW218972   3.906   1.804   4.617
 6074SOL     OW18973   4.228   1.568   4.634
 6074SOL    HW118974   4.294   1.642   4.643
 6074SOL    HW218975   4.272   1.489   4.592
 6075SOL     OW18976   3.764   0.544   4.838
 6075SOL    HW118977   3.849   0.511   4.797
 6075SOL    HW218978   3.777   0.559   4.936
 6076SOL     OW18979   3.913   0.520   5.446
 6076SOL    HW118980   3.972   0.480   5.376
 6076SOL    HW218981   3.855   0.591   5.405
 6077SOL     OW18982   4.539   0.572   4.049
 6077SOL    HW118983   4.546   0.483   4.003
 6077SOL    HW218984   4.445   0.606   4.041
 6078SOL     OW18985   3.976   1.564   5.468
 6078SOL    HW118986   3.946   1.621   5.544
 6078SOL    HW218987   3.969   1.467   5.494
 6079SOL     OW18988   4.197   0.500   3.915
 6079SOL    HW118989   4.258   0.580   3.919
 6079SOL    HW218990   4.102   0.531   3.922
 6080SOL     OW18991   3.883   1.137   5.190
 6080SOL    HW118992   3.905   1.076   5.266
 6080SOL    HW218993   3.893   1.088   5.104
 6081SOL     OW18994   3.807   1.258   4.746
 6081SOL    HW118995   3.802   1.257   4.846
 6081SOL    HW218996   3.724   1.217   4.708
 6082SOL     OW18997   4.412   1.662   5.440
 6082SOL    HW118998   4.356   1.743   5.449
 6082SOL    HW218999   4.464   1.666   5.354
 6083SOL     OW19000   3.854   1.794   5.575
 6083SOL    HW119001   3.813   1.720   5.628
 6083SOL    HW219002   3.918   1.845   5.633
 6084SOL     OW19003   3.987   0.326   4.444
 6084SOL    HW119004   3.908   0.377   4.410
 6084SOL    HW219005   3.978   0.311   4.542
 6085SOL     OW19006   4.096   1.288   5.214
 6085SOL    HW119007   4.083   1.381   5.180
 6085SOL    HW219008   4.012   1.236   5.201
 6086SOL     OW19009   4.314   1.487   4.215
 6086SOL    HW119010   4.356   1.429   4.145
 6086SOL    HW219011   4.270   1.566   4.171
 6087SOL     OW19012   3.979   1.348   4.014
 6087SOL    HW119013   3.883   1.349   3.987
 6087SOL    HW219014   3.991   1.401   4.098
 6088SOL     OW19015   3.829   1.013   5.450
 6088SOL    HW119016   3.752   0.980   5.504
 6088SOL    HW219017   3.914   0.983   5.492
 6089SOL     OW19018   4.396   0.203   5.213
 6089SOL    HW119019   4.486   0.187   5.173
 6089SOL    HW219020   4.404   0.208   5.312
 6090SOL     OW19021   3.799   0.345   3.757
 6090SOL    HW119022   3.707   0.317   3.728
 6090SOL    HW219023   3.830   0.422   3.701
 6091SOL     OW19024   3.796   0.166   4.042
 6091SOL    HW119025   3.779   0.249   3.988
 6091SOL    HW219026   3.886   0.129   4.020
 6092SOL     OW19027   4.337   0.842   5.155
 6092SOL    HW119028   4.393   0.923   5.138
 6092SOL    HW219029   4.396   0.762   5.158
 6093SOL     OW19030   4.440   0.565   5.432
 6093SOL    HW119031   4.459   0.630   5.506
 6093SOL    HW219032   4.500   0.485   5.441
 6094SOL     OW19033   4.114   1.741   5.284
 6094SOL    HW119034   4.023   1.782   5.282
 6094SOL    HW219035   4.107   1.647   5.316
 6095SOL     OW19036   4.318   0.745   4.376
 6095SOL    HW119037   4.368   0.830   4.357
 6095SOL    HW219038   4.230   0.747   4.328
 6096SOL     OW19039   3.945   1.314   5.568
 6096SOL    HW119040   3.880   1.241   5.547
 6096SOL    HW219041   3.949   1.328   5.666
 6097SOL     OW19042   3.803   1.240   4.377
 6097SOL    HW119043   3.802   1.193   4.465
 6097SOL    HW219044   3.885   1.212   4.326
 6098SOL     OW19045   4.396   1.391   5.348
 6098SOL    HW119046   4.318   1.341   5.386
 6098SOL    HW219047   4.393   1.486   5.379
 6099SOL     OW19048   4.152   0.424   4.244
 6099SOL    HW119049   4.182   0.352   4.182
 6099SOL    HW219050   4.113   0.384   4.327
 6100SOL     OW19051   4.041   0.547   5.004
 6100SOL    HW119052   4.079   0.488   5.076
 6100SOL    HW219053   4.081   0.521   4.916
 6101SOL     OW19054   4.536   1.586   4.411
 6101SOL    HW119055   4.568   1.596   4.317
 6101SOL    HW219056   4.457   1.524   4.413
 6102SOL     OW19057   3.763   1.077   4.024
 6102SOL    HW119058   3.862   1.066   4.015
 6102SOL    HW219059   3.723   0.991   4.056
 6103SOL     OW19060   3.954   0.628   5.699
 6103SOL    HW119061   3.861   0.626   5.736
 6103SOL    HW219062   3.955   0.589   5.607
 6104SOL     OW19063   3.949   0.275   6.582
 6104SOL    HW119064   3.984   0.258   6.674
 6104SOL    HW219065   3.861   0.230   6.570
 6105SOL     OW19066   3.743   0.368   6.233
 6105SOL    HW119067   3.661   0.411   6.272
 6105SOL    HW219068   3.715   0.295   6.170
 6106SOL     OW19069   4.293   1.275   6.751
 6106SOL    HW119070   4.200   1.268   6.714
 6106SOL    HW219071   4.304   1.364   6.795
 6107SOL     OW19072   4.574   0.798   7.409
 6107SOL    HW119073   4.570   0.874   7.474
 6107SOL    HW219074   4.596   0.834   7.318
 6108SOL     OW19075   4.409   1.012   6.251
 6108SOL    HW119076   4.478   0.996   6.321
 6108SOL    HW219077   4.336   1.069   6.289
 6109SOL     OW19078   4.410   1.161   7.389
 6109SOL    HW119079   4.470   1.240   7.403
 6109SOL    HW219080   4.324   1.192   7.348
 6110SOL     OW19081   4.059   1.435   6.647
 6110SOL    HW119082   3.981   1.404   6.594
 6110SOL    HW219083   4.117   1.493   6.590
 6111SOL     OW19084   4.162   0.392   7.085
 6111SOL    HW119085   4.244   0.336   7.094
 6111SOL    HW219086   4.081   0.334   7.089
 6112SOL     OW19087   3.955   1.713   6.069
 6112SOL    HW119088   3.989   1.790   6.123
 6112SOL    HW219089   3.999   1.713   5.979
 6113SOL     OW19090   3.954   1.434   6.124
 6113SOL    HW119091   3.928   1.530   6.124
 6113SOL    HW219092   3.883   1.380   6.169
 6114SOL     OW19093   3.964   1.091   6.472
 6114SOL    HW119094   3.978   1.007   6.524
 6114SOL    HW219095   3.909   1.155   6.527
 6115SOL     OW19096   4.344   1.786   7.025
 6115SOL    HW119097   4.252   1.769   7.060
 6115SOL    HW219098   4.372   1.878   7.051
 6116SOL     OW19099   4.330   0.964   5.709
 6116SOL    HW119100   4.337   1.048   5.655
 6116SOL    HW219101   4.376   0.977   5.797
 6117SOL     OW19102   3.846   0.643   6.149
 6117SOL    HW119103   3.801   0.555   6.166
 6117SOL    HW219104   3.845   0.697   6.233
 6118SOL     OW19105   3.751   1.596   5.703
 6118SOL    HW119106   3.732   1.500   5.724
 6118SOL    HW219107   3.718   1.654   5.778
 6119SOL     OW19108   3.837   0.737   7.183
 6119SOL    HW119109   3.925   0.724   7.228
 6119SOL    HW219110   3.824   0.834   7.161
 6120SOL     OW19111   4.337   1.365   6.312
 6120SOL    HW119112   4.288   1.278   6.321
 6120SOL    HW219113   4.314   1.408   6.225
 6121SOL     OW19114   4.533   0.004   6.088
 6121SOL    HW119115   4.573   0.095   6.079
 6121SOL    HW219116   4.433   0.012   6.094
 6122SOL     OW19117   3.921   0.976   6.850
 6122SOL    HW119118   4.010   0.931   6.836
 6122SOL    HW219119   3.848   0.911   6.831
 6123SOL     OW19120   4.041   0.251   7.387
 6123SOL    HW119121   4.112   0.322   7.393
 6123SOL    HW219122   3.953   0.290   7.415
 6124SOL     OW19123   4.322   0.729   5.856
 6124SOL    HW119124   4.346   0.798   5.788
 6124SOL    HW219125   4.244   0.762   5.910
 6125SOL     OW19126   3.800   0.811   6.375
 6125SOL    HW119127   3.899   0.799   6.384
 6125SOL    HW219128   3.776   0.906   6.396
 6126SOL     OW19129   3.854   1.821   7.157
 6126SOL    HW119130   3.844   1.806   7.256
 6126SOL    HW219131   3.768   1.857   7.121
 6127SOL     OW19132   4.274   0.196   6.471
 6127SOL    HW119133   4.269   0.191   6.571
 6127SOL    HW219134   4.276   0.292   6.442
 6128SOL     OW19135   4.075   1.801   6.439
 6128SOL    HW119136   4.125   1.715   6.445
 6128SOL    HW219137   4.140   1.878   6.436
 6129SOL     OW19138   4.045   0.943   5.828
 6129SOL    HW119139   4.127   0.982   5.786
 6129SOL    HW219140   4.018   0.861   5.779
 6130SOL     OW19141   4.185   1.266   7.313
 6130SOL    HW119142   4.135   1.267   7.227
 6130SOL    HW219143   4.122   1.248   7.389
 6131SOL     OW19144   3.926   0.285   7.084
 6131SOL    HW119145   3.846   0.345   7.071
 6131SOL    HW219146   3.916   0.236   7.170
 6132SOL     OW19147   4.188   1.743   5.909
 6132SOL    HW119148   4.221   1.782   5.995
 6132SOL    HW219149   4.264   1.736   5.844
 6133SOL     OW19150   3.973   1.785   6.827
 6133SOL    HW119151   4.030   1.720   6.877
 6133SOL    HW219152   3.957   1.752   6.734
 6134SOL     OW19153   4.106   0.700   6.066
 6134SOL    HW119154   4.151   0.610   6.063
 6134SOL    HW219155   4.012   0.689   6.099
 6135SOL     OW19156   4.338   0.122   5.703
 6135SOL    HW119157   4.436   0.100   5.710
 6135SOL    HW219158   4.307   0.105   5.610
 6136SOL     OW19159   4.527   1.402   6.510
 6136SOL    HW119160   4.617   1.416   6.468
 6136SOL    HW219161   4.456   1.404   6.439
 6137SOL     OW19162   4.263   0.064   6.098
 6137SOL    HW119163   4.182   0.065   6.156
 6137SOL    HW219164   4.266   0.147   6.043
 6138SOL     OW19165   4.021   0.035   5.757
 6138SOL    HW119166   4.070   0.119   5.736
 6138SOL    HW219167   4.083  -0.030   5.802
 6139SOL     OW19168   4.800   0.683   7.050
 6139SOL    HW119169   4.720   0.622   7.053
 6139SOL    HW219170   4.881   0.630   7.026
 6140SOL     OW19171   4.183   1.152   6.327
 6140SOL    HW119172   4.112   1.125   6.392
 6140SOL    HW219173   4.157   1.124   6.234
 6141SOL     OW19174   3.802   0.556   6.972
 6141SOL    HW119175   3.894   0.555   6.931
 6141SOL    HW219176   3.796   0.630   7.039
 6142SOL     OW19177   4.285   0.222   6.733
 6142SOL    HW119178   4.323   0.138   6.770
 6142SOL    HW219179   4.197   0.241   6.777
 6143SOL     OW19180   4.212   1.385   5.760
 6143SOL    HW119181   4.125   1.370   5.807
 6143SOL    HW219182   4.195   1.411   5.665
 6144SOL     OW19183   4.251   0.256   5.914
 6144SOL    HW119184   4.278   0.197   5.839
 6144SOL    HW219185   4.251   0.351   5.883
 6145SOL     OW19186   4.134   0.813   6.837
 6145SOL    HW119187   4.220   0.825   6.887
 6145SOL    HW219188   4.092   0.726   6.864
 6146SOL     OW19189   3.788   1.564   6.917
 6146SOL    HW119190   3.742   1.646   6.883
 6146SOL    HW219191   3.886   1.583   6.926
 6147SOL     OW19192   4.091   1.100   6.087
 6147SOL    HW119193   4.084   1.183   6.031
 6147SOL    HW219194   4.095   1.020   6.027
 6148SOL     OW19195   4.290   0.537   6.451
 6148SOL    HW119196   4.302   0.603   6.377
 6148SOL    HW219197   4.336   0.571   6.534
 6149SOL     OW19198   4.078   1.510   6.915
 6149SOL    HW119199   4.057   1.466   6.828
 6149SOL    HW219200   4.175   1.536   6.918
 6150SOL     OW19201   4.126   0.751   7.184
 6150SOL    HW119202   4.194   0.806   7.137
 6150SOL    HW219203   4.166   0.663   7.211
 6151SOL     OW19204   4.228   0.050   7.326
 6151SOL    HW119205   4.186  -0.007   7.256
 6151SOL    HW219206   4.162   0.119   7.358
 6152SOL     OW19207   4.297   0.870   6.615
 6152SOL    HW119208   4.341   0.959   6.606
 6152SOL    HW219209   4.234   0.870   6.692
 6153SOL     OW19210   4.031   0.213   6.817
 6153SOL    HW119211   4.008   0.250   6.907
 6153SOL    HW219212   4.001   0.118   6.811
 6154SOL     OW19213   3.761   1.310   6.868
 6154SOL    HW119214   3.814   1.261   6.936
 6154SOL    HW219215   3.783   1.408   6.873
 6155SOL     OW19216   4.031   0.063   6.204
 6155SOL    HW119217   4.020   0.157   6.237
 6155SOL    HW219218   4.026   0.000   6.281
 6156SOL     OW19219   4.074   0.898   7.390
 6156SOL    HW119220   4.150   0.942   7.438
 6156SOL    HW219221   4.109   0.851   7.308
 6157SOL     OW19222   4.043   0.810   6.535
 6157SOL    HW119223   4.136   0.846   6.540
 6157SOL    HW219224   4.037   0.725   6.587
 6158SOL     OW19225   4.063   0.509   6.592
 6158SOL    HW119226   4.011   0.426   6.575
 6158SOL    HW219227   4.140   0.514   6.528
 6159SOL     OW19228   3.732   1.326   5.786
 6159SOL    HW119229   3.639   1.347   5.755
 6159SOL    HW219230   3.742   1.227   5.799
 6160SOL     OW19231   3.812   1.801   6.513
 6160SOL    HW119232   3.770   1.715   6.486
 6160SOL    HW219233   3.906   1.804   6.479
 6161SOL     OW19234   4.228   1.568   6.496
 6161SOL    HW119235   4.294   1.642   6.505
 6161SOL    HW219236   4.272   1.489   6.454
 6162SOL     OW19237   3.764   0.544   6.700
 6162SOL    HW119238   3.849   0.511   6.659
 6162SOL    HW219239   3.777   0.559   6.798
 6163SOL     OW19240   3.913   0.520   7.308
 6163SOL    HW119241   3.972   0.480   7.238
 6163SOL    HW219242   3.855   0.591   7.267
 6164SOL     OW19243   4.539   0.572   5.911
 6164SOL    HW119244   4.546   0.483   5.865
 6164SOL    HW219245   4.445   0.606   5.903
 6165SOL     OW19246   3.976   1.564   7.330
 6165SOL    HW119247   3.946   1.621   7.406
 6165SOL    HW219248   3.969   1.467   7.356
 6166SOL     OW19249   4.197   0.500   5.777
 6166SOL    HW119250   4.258   0.580   5.781
 6166SOL    HW219251   4.102   0.531   5.784
 6167SOL     OW19252   3.883   1.137   7.052
 6167SOL    HW119253   3.905   1.076   7.128
 6167SOL    HW219254   3.893   1.088   6.966
 6168SOL     OW19255   3.807   1.258   6.608
 6168SOL    HW119256   3.802   1.257   6.708
 6168SOL    HW219257   3.724   1.217   6.570
 6169SOL     OW19258   4.412   1.662   7.302
 6169SOL    HW119259   4.356   1.743   7.311
 6169SOL    HW219260   4.464   1.666   7.216
 6170SOL     OW19261   3.854   1.794   7.437
 6170SOL    HW119262   3.813   1.720   7.490
 6170SOL    HW219263   3.918   1.845   7.495
 6171SOL     OW19264   3.987   0.326   6.306
 6171SOL    HW119265   3.908   0.377   6.272
 6171SOL    HW219266   3.978   0.311   6.404
 6172SOL     OW19267   4.096   1.288   7.076
 6172SOL    HW119268   4.083   1.381   7.042
 6172SOL    HW219269   4.012   1.236   7.063
 6173SOL     OW19270   4.314   1.487   6.077
 6173SOL    HW119271   4.356   1.429   6.007
 6173SOL    HW219272   4.270   1.566   6.033
 6174SOL     OW19273   3.979   1.348   5.876
 6174SOL    HW119274   3.883   1.349   5.849
 6174SOL    HW219275   3.991   1.401   5.960
 6175SOL     OW19276   3.829   1.013   7.312
 6175SOL    HW119277   3.752   0.980   7.366
 6175SOL    HW219278   3.914   0.983   7.354
 6176SOL     OW19279   4.396   0.203   7.075
 6176SOL    HW119280   4.486   0.187   7.035
 6176SOL    HW219281   4.404   0.208   7.174
 6177SOL     OW19282   3.799   0.345   5.619
 6177SOL    HW119283   3.707   0.317   5.590
 6177SOL    HW219284   3.830   0.422   5.563
 6178SOL     OW19285   3.796   0.166   5.904
 6178SOL    HW119286   3.779   0.249   5.850
 6178SOL    HW219287   3.886   0.129   5.882
 6179SOL     OW19288   4.337   0.842   7.017
 6179SOL    HW119289   4.393   0.923   7.000
 6179SOL    HW219290   4.396   0.762   7.020
 6180SOL     OW19291   4.440   0.565   7.294
 6180SOL    HW119292   4.459   0.630   7.368
 6180SOL    HW219293   4.500   0.485   7.303
 6181SOL     OW19294   4.114   1.741   7.146
 6181SOL    HW119295   4.023   1.782   7.144
 6181SOL    HW219296   4.107   1.647   7.178
 6182SOL     OW19297   4.318   0.745   6.238
 6182SOL    HW119298   4.368   0.830   6.219
 6182SOL    HW219299   4.230   0.747   6.190
 6183SOL     OW19300   3.945   1.314   7.430
 6183SOL    HW119301   3.880   1.241   7.409
 6183SOL    HW219302   3.949   1.328   7.528
 6184SOL     OW19303   3.803   1.240   6.239
 6184SOL    HW119304   3.802   1.193   6.327
 6184SOL    HW219305   3.885   1.212   6.188
 6185SOL     OW19306   4.396   1.391   7.210
 6185SOL    HW119307   4.318   1.341   7.248
 6185SOL    HW219308   4.393   1.486   7.241
 6186SOL     OW19309   4.152   0.424   6.106
 6186SOL    HW119310   4.182   0.352   6.044
 6186SOL    HW219311   4.113   0.384   6.189
 6187SOL     OW19312   4.041   0.547   6.866
 6187SOL    HW119313   4.079   0.488   6.938
 6187SOL    HW219314   4.081   0.521   6.778
 6188SOL     OW19315   4.536   1.586   6.273
 6188SOL    HW119316   4.568   1.596   6.179
 6188SOL    HW219317   4.457   1.524   6.275
 6189SOL     OW19318   3.763   1.077   5.886
 6189SOL    HW119319   3.862   1.066   5.877
 6189SOL    HW219320   3.723   0.991   5.918
 6190SOL     OW19321   3.954   0.628   7.561
 6190SOL    HW119322   3.861   0.626   7.598
 6190SOL    HW219323   3.955   0.589   7.469
 6191SOL     OW19324   3.949   0.275   8.444
 6191SOL    HW119325   3.984   0.258   8.536
 6191SOL    HW219326   3.861   0.230   8.432
 6192SOL     OW19327   3.743   0.368   8.095
 6192SOL    HW119328   3.661   0.411   8.134
 6192SOL    HW219329   3.715   0.295   8.032
 6193SOL     OW19330   4.293   1.275   8.613
 6193SOL    HW119331   4.200   1.268   8.576
 6193SOL    HW219332   4.304   1.364   8.657
 6194SOL     OW19333   4.574   0.798   9.271
 6194SOL    HW119334   4.570   0.874   9.336
 6194SOL    HW219335   4.596   0.834   9.180
 6195SOL     OW19336   4.409   1.012   8.113
 6195SOL    HW119337   4.478   0.996   8.183
 6195SOL    HW219338   4.336   1.069   8.151
 6196SOL     OW19339   4.410   1.161   9.251
 6196SOL    HW119340   4.470   1.240   9.265
 6196SOL    HW219341   4.324   1.192   9.210
 6197SOL     OW19342   4.059   1.435   8.509
 6197SOL    HW119343   3.981   1.404   8.456
 6197SOL    HW219344   4.117   1.493   8.452
 6198SOL     OW19345   4.162   0.392   8.947
 6198SOL    HW119346   4.244   0.336   8.956
 6198SOL    HW219347   4.081   0.334   8.951
 6199SOL     OW19348   3.955   1.713   7.931
 6199SOL    HW119349   3.989   1.790   7.985
 6199SOL    HW219350   3.999   1.713   7.841
 6200SOL     OW19351   3.954   1.434   7.986
 6200SOL    HW119352   3.928   1.530   7.986
 6200SOL    HW219353   3.883   1.380   8.031
 6201SOL     OW19354   3.964   1.091   8.334
 6201SOL    HW119355   3.978   1.007   8.386
 6201SOL    HW219356   3.909   1.155   8.389
 6202SOL     OW19357   4.344   1.786   8.887
 6202SOL    HW119358   4.252   1.769   8.922
 6202SOL    HW219359   4.372   1.878   8.913
 6203SOL     OW19360   4.330   0.964   7.571
 6203SOL    HW119361   4.337   1.048   7.517
 6203SOL    HW219362   4.376   0.977   7.659
 6204SOL     OW19363   3.846   0.643   8.011
 6204SOL    HW119364   3.801   0.555   8.028
 6204SOL    HW219365   3.845   0.697   8.095
 6205SOL     OW19366   3.751   1.596   7.565
 6205SOL    HW119367   3.732   1.500   7.586
 6205SOL    HW219368   3.718   1.654   7.640
 6206SOL     OW19369   3.837   0.737   9.045
 6206SOL    HW119370   3.925   0.724   9.090
 6206SOL    HW219371   3.824   0.834   9.023
 6207SOL     OW19372   4.337   1.365   8.174
 6207SOL    HW119373   4.288   1.278   8.183
 6207SOL    HW219374   4.314   1.408   8.087
 6208SOL     OW19375   4.533   0.004   7.950
 6208SOL    HW119376   4.573   0.095   7.941
 6208SOL    HW219377   4.433   0.012   7.956
 6209SOL     OW19378   3.921   0.976   8.712
 6209SOL    HW119379   4.010   0.931   8.698
 6209SOL    HW219380   3.848   0.911   8.693
 6210SOL     OW19381   4.041   0.251   9.249
 6210SOL    HW119382   4.112   0.322   9.255
 6210SOL    HW219383   3.953   0.290   9.277
 6211SOL     OW19384   4.322   0.729   7.718
 6211SOL    HW119385   4.346   0.798   7.650
 6211SOL    HW219386   4.244   0.762   7.772
 6212SOL     OW19387   3.800   0.811   8.237
 6212SOL    HW119388   3.899   0.799   8.246
 6212SOL    HW219389   3.776   0.906   8.258
 6213SOL     OW19390   3.854   1.821   9.019
 6213SOL    HW119391   3.844   1.806   9.118
 6213SOL    HW219392   3.768   1.857   8.983
 6214SOL     OW19393   4.274   0.196   8.333
 6214SOL    HW119394   4.269   0.191   8.433
 6214SOL    HW219395   4.276   0.292   8.304
 6215SOL     OW19396   4.075   1.801   8.301
 6215SOL    HW119397   4.125   1.715   8.307
 6215SOL    HW219398   4.140   1.878   8.298
 6216SOL     OW19399   4.045   0.943   7.690
 6216SOL    HW119400   4.127   0.982   7.648
 6216SOL    HW219401   4.018   0.861   7.641
 6217SOL     OW19402   4.185   1.266   9.175
 6217SOL    HW119403   4.135   1.267   9.089
 6217SOL    HW219404   4.122   1.248   9.251
 6218SOL     OW19405   3.926   0.285   8.946
 6218SOL    HW119406   3.846   0.345   8.933
 6218SOL    HW219407   3.916   0.236   9.032
 6219SOL     OW19408   4.188   1.743   7.771
 6219SOL    HW119409   4.221   1.782   7.857
 6219SOL    HW219410   4.264   1.736   7.706
 6220SOL     OW19411   3.973   1.785   8.689
 6220SOL    HW119412   4.030   1.720   8.739
 6220SOL    HW219413   3.957   1.752   8.596
 6221SOL     OW19414   4.106   0.700   7.928
 6221SOL    HW119415   4.151   0.610   7.925
 6221SOL    HW219416   4.012   0.689   7.961
 6222SOL     OW19417   4.338   0.122   7.565
 6222SOL    HW119418   4.436   0.100   7.572
 6222SOL    HW219419   4.307   0.105   7.472
 6223SOL     OW19420   4.527   1.402   8.372
 6223SOL    HW119421   4.617   1.416   8.330
 6223SOL    HW219422   4.456   1.404   8.301
 6224SOL     OW19423   4.263   0.064   7.960
 6224SOL    HW119424   4.182   0.065   8.018
 6224SOL    HW219425   4.266   0.147   7.905
 6225SOL     OW19426   4.021   0.035   7.619
 6225SOL    HW119427   4.070   0.119   7.598
 6225SOL    HW219428   4.083  -0.030   7.664
 6226SOL     OW19429   4.800   0.683   8.912
 6226SOL    HW119430   4.720   0.622   8.915
 6226SOL    HW219431   4.881   0.630   8.888
 6227SOL     OW19432   4.183   1.152   8.189
 6227SOL    HW119433   4.112   1.125   8.254
 6227SOL    HW219434   4.157   1.124   8.096
 6228SOL     OW19435   3.802   0.556   8.834
 6228SOL    HW119436   3.894   0.555   8.793
 6228SOL    HW219437   3.796   0.630   8.901
 6229SOL     OW19438   4.285   0.222   8.595
 6229SOL    HW119439   4.323   0.138   8.632
 6229SOL    HW219440   4.197   0.241   8.639
 6230SOL     OW19441   4.212   1.385   7.622
 6230SOL    HW119442   4.125   1.370   7.669
 6230SOL    HW219443   4.195   1.411   7.527
 6231SOL     OW19444   4.251   0.256   7.776
 6231SOL    HW119445   4.278   0.197   7.701
 6231SOL    HW219446   4.251   0.351   7.745
 6232SOL     OW19447   4.134   0.813   8.699
 6232SOL    HW119448   4.220   0.825   8.749
 6232SOL    HW219449   4.092   0.726   8.726
 6233SOL     OW19450   3.788   1.564   8.779
 6233SOL    HW119451   3.742   1.646   8.745
 6233SOL    HW219452   3.886   1.583   8.788
 6234SOL     OW19453   4.091   1.100   7.949
 6234SOL    HW119454   4.084   1.183   7.893
 6234SOL    HW219455   4.095   1.020   7.889
 6235SOL     OW19456   4.290   0.537   8.313
 6235SOL    HW119457   4.302   0.603   8.239
 6235SOL    HW219458   4.336   0.571   8.396
 6236SOL     OW19459   4.078   1.510   8.777
 6236SOL    HW119460   4.057   1.466   8.690
 6236SOL    HW219461   4.175   1.536   8.780
 6237SOL     OW19462   4.126   0.751   9.046
 6237SOL    HW119463   4.194   0.806   8.999
 6237SOL    HW219464   4.166   0.663   9.073
 6238SOL     OW19465   4.228   0.050   9.188
 6238SOL    HW119466   4.186  -0.007   9.118
 6238SOL    HW219467   4.162   0.119   9.220
 6239SOL     OW19468   4.297   0.870   8.477
 6239SOL    HW119469   4.341   0.959   8.468
 6239SOL    HW219470   4.234   0.870   8.554
 6240SOL     OW19471   4.031   0.213   8.679
 6240SOL    HW119472   4.008   0.250   8.769
 6240SOL    HW219473   4.001   0.118   8.673
 6241SOL     OW19474   3.761   1.310   8.730
 6241SOL    HW119475   3.814   1.261   8.798
 6241SOL    HW219476   3.783   1.408   8.735
 6242SOL     OW19477   4.031   0.063   8.066
 6242SOL    HW119478   4.020   0.157   8.099
 6242SOL    HW219479   4.026   0.000   8.143
 6243SOL     OW19480   4.074   0.898   9.252
 6243SOL    HW119481   4.150   0.942   9.300
 6243SOL    HW219482   4.109   0.851   9.170
 6244SOL     OW19483   4.043   0.810   8.397
 6244SOL    HW119484   4.136   0.846   8.402
 6244SOL    HW219485   4.037   0.725   8.449
 6245SOL     OW19486   4.063   0.509   8.454
 6245SOL    HW119487   4.011   0.426   8.437
 6245SOL    HW219488   4.140   0.514   8.390
 6246SOL     OW19489   3.732   1.326   7.648
 6246SOL    HW119490   3.639   1.347   7.617
 6246SOL    HW219491   3.742   1.227   7.661
 6247SOL     OW19492   3.812   1.801   8.375
 6247SOL    HW119493   3.770   1.715   8.348
 6247SOL    HW219494   3.906   1.804   8.341
 6248SOL     OW19495   4.228   1.568   8.358
 6248SOL    HW119496   4.294   1.642   8.367
 6248SOL    HW219497   4.272   1.489   8.316
 6249SOL     OW19498   3.764   0.544   8.562
 6249SOL    HW119499   3.849   0.511   8.521
 6249SOL    HW219500   3.777   0.559   8.660
 6250SOL     OW19501   3.913   0.520   9.170
 6250SOL    HW119502   3.972   0.480   9.100
 6250SOL    HW219503   3.855   0.591   9.129
 6251SOL     OW19504   4.539   0.572   7.773
 6251SOL    HW119505   4.546   0.483   7.727
 6251SOL    HW219506   4.445   0.606   7.765
 6252SOL     OW19507   3.976   1.564   9.192
 6252SOL    HW119508   3.946   1.621   9.268
 6252SOL    HW219509   3.969   1.467   9.218
 6253SOL     OW19510   4.197   0.500   7.639
 6253SOL    HW119511   4.258   0.580   7.643
 6253SOL    HW219512   4.102   0.531   7.646
 6254SOL     OW19513   3.883   1.137   8.914
 6254SOL    HW119514   3.905   1.076   8.990
 6254SOL    HW219515   3.893   1.088   8.828
 6255SOL     OW19516   3.807   1.258   8.470
 6255SOL    HW119517   3.802   1.257   8.570
 6255SOL    HW219518   3.724   1.217   8.432
 6256SOL     OW19519   4.412   1.662   9.164
 6256SOL    HW119520   4.356   1.743   9.173
 6256SOL    HW219521   4.464   1.666   9.078
 6257SOL     OW19522   3.854   1.794   9.299
 6257SOL    HW119523   3.813   1.720   9.352
 6257SOL    HW219524   3.918   1.845   9.357
 6258SOL     OW19525   3.987   0.326   8.168
 6258SOL    HW119526   3.908   0.377   8.134
 6258SOL    HW219527   3.978   0.311   8.266
 6259SOL     OW19528   4.096   1.288   8.938
 6259SOL    HW119529   4.083   1.381   8.904
 6259SOL    HW219530   4.012   1.236   8.925
 6260SOL     OW19531   4.314   1.487   7.939
 6260SOL    HW119532   4.356   1.429   7.869
 6260SOL    HW219533   4.270   1.566   7.895
 6261SOL     OW19534   3.979   1.348   7.738
 6261SOL    HW119535   3.883   1.349   7.711
 6261SOL    HW219536   3.991   1.401   7.822
 6262SOL     OW19537   3.829   1.013   9.174
 6262SOL    HW119538   3.752   0.980   9.228
 6262SOL    HW219539   3.914   0.983   9.216
 6263SOL     OW19540   4.396   0.203   8.937
 6263SOL    HW119541   4.486   0.187   8.897
 6263SOL    HW219542   4.404   0.208   9.036
 6264SOL     OW19543   3.799   0.345   7.481
 6264SOL    HW119544   3.707   0.317   7.452
 6264SOL    HW219545   3.830   0.422   7.425
 6265SOL     OW19546   3.796   0.166   7.766
 6265SOL    HW119547   3.779   0.249   7.712
 6265SOL    HW219548   3.886   0.129   7.744
 6266SOL     OW19549   4.337   0.842   8.879
 6266SOL    HW119550   4.393   0.923   8.862
 6266SOL    HW219551   4.396   0.762   8.882
 6267SOL     OW19552   4.440   0.565   9.156
 6267SOL    HW119553   4.459   0.630   9.230
 6267SOL    HW219554   4.500   0.485   9.165
 6268SOL     OW19555   4.114   1.741   9.008
 6268SOL    HW119556   4.023   1.782   9.006
 6268SOL    HW219557   4.107   1.647   9.040
 6269SOL     OW19558   4.318   0.745   8.100
 6269SOL    HW119559   4.368   0.830   8.081
 6269SOL    HW219560   4.230   0.747   8.052
 6270SOL     OW19561   3.945   1.314   9.292
 6270SOL    HW119562   3.880   1.241   9.271
 6270SOL    HW219563   3.949   1.328   9.390
 6271SOL     OW19564   3.803   1.240   8.101
 6271SOL    HW119565   3.802   1.193   8.189
 6271SOL    HW219566   3.885   1.212   8.050
 6272SOL     OW19567   4.396   1.391   9.072
 6272SOL    HW119568   4.318   1.341   9.110
 6272SOL    HW219569   4.393   1.486   9.103
 6273SOL     OW19570   4.152   0.424   7.968
 6273SOL    HW119571   4.182   0.352   7.906
 6273SOL    HW219572   4.113   0.384   8.051
 6274SOL     OW19573   4.041   0.547   8.728
 6274SOL    HW119574   4.079   0.488   8.800
 6274SOL    HW219575   4.081   0.521   8.640
 6275SOL     OW19576   4.536   1.586   8.135
 6275SOL    HW119577   4.568   1.596   8.041
 6275SOL    HW219578   4.457   1.524   8.137
 6276SOL     OW19579   3.763   1.077   7.748
 6276SOL    HW119580   3.862   1.066   7.739
 6276SOL    HW219581   3.723   0.991   7.780
 6277SOL     OW19582   3.954   0.628   9.423
 6277SOL    HW119583   3.861   0.626   9.460
 6277SOL    HW219584   3.955   0.589   9.331
 6278SOL     OW19585   3.949   0.275  10.306
 6278SOL    HW119586   3.984   0.258  10.398
 6278SOL    HW219587   3.861   0.230  10.294
 6279SOL     OW19588   3.743   0.368   9.957
 6279SOL    HW119589   3.661   0.411   9.996
 6279SOL    HW219590   3.715   0.295   9.894
 6280SOL     OW19591   4.293   1.275  10.475
 6280SOL    HW119592   4.200   1.268  10.438
 6280SOL    HW219593   4.304   1.364  10.519
 6281SOL     OW19594   4.574   0.798  11.133
 6281SOL    HW119595   4.570   0.874  11.198
 6281SOL    HW219596   4.596   0.834  11.042
 6282SOL     OW19597   4.409   1.012   9.975
 6282SOL    HW119598   4.478   0.996  10.045
 6282SOL    HW219599   4.336   1.069  10.013
 6283SOL     OW19600   4.059   1.435  10.371
 6283SOL    HW119601   3.981   1.404  10.318
 6283SOL    HW219602   4.117   1.493  10.314
 6284SOL     OW19603   4.162   0.392  10.809
 6284SOL    HW119604   4.244   0.336  10.818
 6284SOL    HW219605   4.081   0.334  10.813
 6285SOL     OW19606   3.955   1.713   9.793
 6285SOL    HW119607   3.989   1.790   9.847
 6285SOL    HW219608   3.999   1.713   9.703
 6286SOL     OW19609   3.954   1.434   9.848
 6286SOL    HW119610   3.928   1.530   9.848
 6286SOL    HW219611   3.883   1.380   9.893
 6287SOL     OW19612   3.964   1.091  10.196
 6287SOL    HW119613   3.978   1.007  10.248
 6287SOL    HW219614   3.909   1.155  10.251
 6288SOL     OW19615   4.344   1.786  10.749
 6288SOL    HW119616   4.252   1.769  10.784
 6288SOL    HW219617   4.372   1.878  10.775
 6289SOL     OW19618   4.330   0.964   9.433
 6289SOL    HW119619   4.337   1.048   9.379
 6289SOL    HW219620   4.376   0.977   9.521
 6290SOL     OW19621   3.846   0.643   9.873
 6290SOL    HW119622   3.801   0.555   9.890
 6290SOL    HW219623   3.845   0.697   9.957
 6291SOL     OW19624   3.751   1.596   9.427
 6291SOL    HW119625   3.732   1.500   9.448
 6291SOL    HW219626   3.718   1.654   9.502
 6292SOL     OW19627   3.837   0.737  10.907
 6292SOL    HW119628   3.925   0.724  10.952
 6292SOL    HW219629   3.824   0.834  10.885
 6293SOL     OW19630   4.337   1.365  10.036
 6293SOL    HW119631   4.288   1.278  10.045
 6293SOL    HW219632   4.314   1.408   9.949
 6294SOL     OW19633   4.533   0.004   9.812
 6294SOL    HW119634   4.573   0.095   9.803
 6294SOL    HW219635   4.433   0.012   9.818
 6295SOL     OW19636   3.921   0.976  10.574
 6295SOL    HW119637   4.010   0.931  10.560
 6295SOL    HW219638   3.848   0.911  10.555
 6296SOL     OW19639   4.041   0.251  11.111
 6296SOL    HW119640   4.112   0.322  11.117
 6296SOL    HW219641   3.953   0.290  11.139
 6297SOL     OW19642   4.322   0.729   9.580
 6297SOL    HW119643   4.346   0.798   9.512
 6297SOL    HW219644   4.244   0.762   9.634
 6298SOL     OW19645   3.800   0.811  10.099
 6298SOL    HW119646   3.899   0.799  10.108
 6298SOL    HW219647   3.776   0.906  10.120
 6299SOL     OW19648   3.854   1.821  10.881
 6299SOL    HW119649   3.844   1.806  10.980
 6299SOL    HW219650   3.768   1.857  10.845
 6300SOL     OW19651   4.274   0.196  10.195
 6300SOL    HW119652   4.269   0.191  10.295
 6300SOL    HW219653   4.276   0.292  10.166
 6301SOL     OW19654   4.075   1.801  10.163
 6301SOL    HW119655   4.125   1.715  10.169
 6301SOL    HW219656   4.140   1.878  10.160
 6302SOL     OW19657   4.045   0.943   9.552
 6302SOL    HW119658   4.127   0.982   9.510
 6302SOL    HW219659   4.018   0.861   9.503
 6303SOL     OW19660   4.185   1.266  11.037
 6303SOL    HW119661   4.135   1.267  10.951
 6303SOL    HW219662   4.122   1.248  11.113
 6304SOL     OW19663   3.926   0.285  10.808
 6304SOL    HW119664   3.846   0.345  10.795
 6304SOL    HW219665   3.916   0.236  10.894
 6305SOL     OW19666   4.188   1.743   9.633
 6305SOL    HW119667   4.221   1.782   9.719
 6305SOL    HW219668   4.264   1.736   9.568
 6306SOL     OW19669   3.973   1.785  10.551
 6306SOL    HW119670   4.030   1.720  10.601
 6306SOL    HW219671   3.957   1.752  10.458
 6307SOL     OW19672   4.106   0.700   9.790
 6307SOL    HW119673   4.151   0.610   9.787
 6307SOL    HW219674   4.012   0.689   9.823
 6308SOL     OW19675   4.338   0.122   9.427
 6308SOL    HW119676   4.436   0.100   9.434
 6308SOL    HW219677   4.307   0.105   9.334
 6309SOL     OW19678   4.527   1.402  10.234
 6309SOL    HW119679   4.617   1.416  10.192
 6309SOL    HW219680   4.456   1.404  10.163
 6310SOL     OW19681   4.263   0.064   9.822
 6310SOL    HW119682   4.182   0.065   9.880
 6310SOL    HW219683   4.266   0.147   9.767
 6311SOL     OW19684   4.021   0.035   9.481
 6311SOL    HW119685   4.070   0.119   9.460
 6311SOL    HW219686   4.083  -0.030   9.526
 6312SOL     OW19687   4.800   0.683  10.774
 6312SOL    HW119688   4.720   0.622  10.777
 6312SOL    HW219689   4.881   0.630  10.750
 6313SOL     OW19690   4.183   1.152  10.051
 6313SOL    HW119691   4.112   1.125  10.116
 6313SOL    HW219692   4.157   1.124   9.958
 6314SOL     OW19693   3.802   0.556  10.696
 6314SOL    HW119694   3.894   0.555  10.655
 6314SOL    HW219695   3.796   0.630  10.763
 6315SOL     OW19696   4.285   0.222  10.457
 6315SOL    HW119697   4.323   0.138  10.494
 6315SOL    HW219698   4.197   0.241  10.501
 6316SOL     OW19699   4.212   1.385   9.484
 6316SOL    HW119700   4.125   1.370   9.531
 6316SOL    HW219701   4.195   1.411   9.389
 6317SOL     OW19702   4.251   0.256   9.638
 6317SOL    HW119703   4.278   0.197   9.563
 6317SOL    HW219704   4.251   0.351   9.607
 6318SOL     OW19705   4.134   0.813  10.561
 6318SOL    HW119706   4.220   0.825  10.611
 6318SOL    HW219707   4.092   0.726  10.588
 6319SOL     OW19708   3.788   1.564  10.641
 6319SOL    HW119709   3.742   1.646  10.607
 6319SOL    HW219710   3.886   1.583  10.650
 6320SOL     OW19711   4.091   1.100   9.811
 6320SOL    HW119712   4.084   1.183   9.755
 6320SOL    HW219713   4.095   1.020   9.751
 6321SOL     OW19714   4.290   0.537  10.175
 6321SOL    HW119715   4.302   0.603  10.101
 6321SOL    HW219716   4.336   0.571  10.258
 6322SOL     OW19717   4.078   1.510  10.639
 6322SOL    HW119718   4.057   1.466  10.552
 6322SOL    HW219719   4.175   1.536  10.642
 6323SOL     OW19720   4.126   0.751  10.908
 6323SOL    HW119721   4.194   0.806  10.861
 6323SOL    HW219722   4.166   0.663  10.935
 6324SOL     OW19723   4.297   0.870  10.339
 6324SOL    HW119724   4.341   0.959  10.330
 6324SOL    HW219725   4.234   0.870  10.416
 6325SOL     OW19726   4.031   0.213  10.541
 6325SOL    HW119727   4.008   0.250  10.631
 6325SOL    HW219728   4.001   0.118  10.535
 6326SOL     OW19729   3.761   1.310  10.592
 6326SOL    HW119730   3.814   1.261  10.660
 6326SOL    HW219731   3.783   1.408  10.597
 6327SOL     OW19732   4.031   0.063   9.928
 6327SOL    HW119733   4.020   0.157   9.961
 6327SOL    HW219734   4.026   0.000  10.005
 6328SOL     OW19735   4.074   0.898  11.114
 6328SOL    HW119736   4.150   0.942  11.162
 6328SOL    HW219737   4.109   0.851  11.032
 6329SOL     OW19738   4.043   0.810  10.259
 6329SOL    HW119739   4.136   0.846  10.264
 6329SOL    HW219740   4.037   0.725  10.311
 6330SOL     OW19741   4.063   0.509  10.316
 6330SOL    HW119742   4.011   0.426  10.299
 6330SOL    HW219743   4.140   0.514  10.252
 6331SOL     OW19744   3.732   1.326   9.510
 6331SOL    HW119745   3.639   1.347   9.479
 6331SOL    HW219746   3.742   1.227   9.523
 6332SOL     OW19747   3.812   1.801  10.237
 6332SOL    HW119748   3.770   1.715  10.210
 6332SOL    HW219749   3.906   1.804  10.203
 6333SOL     OW19750   4.228   1.568  10.220
 6333SOL    HW119751   4.294   1.642  10.229
 6333SOL    HW219752   4.272   1.489  10.178
 6334SOL     OW19753   3.764   0.544  10.424
 6334SOL    HW119754   3.849   0.511  10.383
 6334SOL    HW219755   3.777   0.559  10.522
 6335SOL     OW19756   4.539   0.572   9.635
 6335SOL    HW119757   4.546   0.483   9.589
 6335SOL    HW219758   4.445   0.606   9.627
 6336SOL     OW19759   3.976   1.564  11.054
 6336SOL    HW119760   3.946   1.621  11.130
 6336SOL    HW219761   3.969   1.467  11.080
 6337SOL     OW19762   4.197   0.500   9.501
 6337SOL    HW119763   4.258   0.580   9.505
 6337SOL    HW219764   4.102   0.531   9.508
 6338SOL     OW19765   3.883   1.137  10.776
 6338SOL    HW119766   3.905   1.076  10.852
 6338SOL    HW219767   3.893   1.088  10.690
 6339SOL     OW19768   3.807   1.258  10.332
 6339SOL    HW119769   3.802   1.257  10.432
 6339SOL    HW219770   3.724   1.217  10.294
 6340SOL     OW19771   4.412   1.662  11.026
 6340SOL    HW119772   4.356   1.743  11.035
 6340SOL    HW219773   4.464   1.666  10.940
 6341SOL     OW19774   3.987   0.326  10.030
 6341SOL    HW119775   3.908   0.377   9.996
 6341SOL    HW219776   3.978   0.311  10.128
 6342SOL     OW19777   4.096   1.288  10.800
 6342SOL    HW119778   4.083   1.381  10.766
 6342SOL    HW219779   4.012   1.236  10.787
 6343SOL     OW19780   4.314   1.487   9.801
 6343SOL    HW119781   4.356   1.429   9.731
 6343SOL    HW219782   4.270   1.566   9.757
 6344SOL     OW19783   3.979   1.348   9.600
 6344SOL    HW119784   3.883   1.349   9.573
 6344SOL    HW219785   3.991   1.401   9.684
 6345SOL     OW19786   3.829   1.013  11.036
 6345SOL    HW119787   3.752   0.980  11.090
 6345SOL    HW219788   3.914   0.983  11.078
 6346SOL     OW19789   4.396   0.203  10.799
 6346SOL    HW119790   4.486   0.187  10.759
 6346SOL    HW219791   4.404   0.208  10.898
 6347SOL     OW19792   3.799   0.345   9.343
 6347SOL    HW119793   3.707   0.317   9.314
 6347SOL    HW219794   3.830   0.422   9.287
 6348SOL     OW19795   3.796   0.166   9.628
 6348SOL    HW119796   3.779   0.249   9.574
 6348SOL    HW219797   3.886   0.129   9.606
 6349SOL     OW19798   4.337   0.842  10.741
 6349SOL    HW119799   4.393   0.923  10.724
 6349SOL    HW219800   4.396   0.762  10.744
 6350SOL     OW19801   4.114   1.741  10.870
 6350SOL    HW119802   4.023   1.782  10.868
 6350SOL    HW219803   4.107   1.647  10.902
 6351SOL     OW19804   4.318   0.745   9.962
 6351SOL    HW119805   4.368   0.830   9.943
 6351SOL    HW219806   4.230   0.747   9.914
 6352SOL     OW19807   3.803   1.240   9.963
 6352SOL    HW119808   3.802   1.193  10.051
 6352SOL    HW219809   3.885   1.212   9.912
 6353SOL     OW19810   4.396   1.391  10.934
 6353SOL    HW119811   4.318   1.341  10.972
 6353SOL    HW219812   4.393   1.486  10.965
 6354SOL     OW19813   4.152   0.424   9.830
 6354SOL    HW119814   4.182   0.352   9.768
 6354SOL    HW219815   4.113   0.384   9.913
 6355SOL     OW19816   4.041   0.547  10.590
 6355SOL    HW119817   4.079   0.488  10.662
 6355SOL    HW219818   4.081   0.521  10.502
 6356SOL     OW19819   4.536   1.586   9.997
 6356SOL    HW119820   4.568   1.596   9.903
 6356SOL    HW219821   4.457   1.524   9.999
 6357SOL     OW19822   3.763   1.077   9.610
 6357SOL    HW119823   3.862   1.066   9.601
 6357SOL    HW219824   3.723   0.991   9.642
 6358SOL     OW19825   3.954   2.490   0.113
 6358SOL    HW119826   3.861   2.488   0.150
 6358SOL    HW219827   3.955   2.451   0.021
 6359SOL     OW19828   3.949   2.137   0.996
 6359SOL    HW119829   3.984   2.120   1.088
 6359SOL    HW219830   3.861   2.092   0.984
 6360SOL     OW19831   3.743   2.230   0.647
 6360SOL    HW119832   3.661   2.273   0.686
 6360SOL    HW219833   3.715   2.157   0.584
 6361SOL     OW19834   4.293   3.137   1.165
 6361SOL    HW119835   4.200   3.130   1.128
 6361SOL    HW219836   4.304   3.226   1.209
 6362SOL     OW19837   4.574   2.660   1.823
 6362SOL    HW119838   4.570   2.736   1.888
 6362SOL    HW219839   4.596   2.696   1.732
 6363SOL     OW19840   4.409   2.874   0.665
 6363SOL    HW119841   4.478   2.858   0.735
 6363SOL    HW219842   4.336   2.931   0.703
 6364SOL     OW19843   4.410   3.023   1.803
 6364SOL    HW119844   4.470   3.102   1.817
 6364SOL    HW219845   4.324   3.054   1.762
 6365SOL     OW19846   4.059   3.297   1.061
 6365SOL    HW119847   3.981   3.266   1.008
 6365SOL    HW219848   4.117   3.355   1.004
 6366SOL     OW19849   4.162   2.254   1.499
 6366SOL    HW119850   4.244   2.198   1.508
 6366SOL    HW219851   4.081   2.196   1.503
 6367SOL     OW19852   3.955   3.575   0.483
 6367SOL    HW119853   3.989   3.652   0.537
 6367SOL    HW219854   3.999   3.575   0.393
 6368SOL     OW19855   3.954   3.296   0.538
 6368SOL    HW119856   3.928   3.392   0.538
 6368SOL    HW219857   3.883   3.242   0.583
 6369SOL     OW19858   3.964   2.953   0.886
 6369SOL    HW119859   3.978   2.869   0.938
 6369SOL    HW219860   3.909   3.017   0.941
 6370SOL     OW19861   4.344   3.648   1.439
 6370SOL    HW119862   4.252   3.631   1.474
 6370SOL    HW219863   4.372   3.740   1.465
 6371SOL     OW19864   4.330   2.826   0.123
 6371SOL    HW119865   4.337   2.910   0.069
 6371SOL    HW219866   4.376   2.839   0.211
 6372SOL     OW19867   3.846   2.505   0.563
 6372SOL    HW119868   3.801   2.417   0.580
 6372SOL    HW219869   3.845   2.559   0.647
 6373SOL     OW19870   3.751   3.458   0.117
 6373SOL    HW119871   3.732   3.362   0.138
 6373SOL    HW219872   3.718   3.516   0.192
 6374SOL     OW19873   3.837   2.599   1.597
 6374SOL    HW119874   3.925   2.586   1.642
 6374SOL    HW219875   3.824   2.696   1.575
 6375SOL     OW19876   4.337   3.227   0.726
 6375SOL    HW119877   4.288   3.140   0.735
 6375SOL    HW219878   4.314   3.270   0.639
 6376SOL     OW19879   4.533   1.866   0.502
 6376SOL    HW119880   4.573   1.957   0.493
 6376SOL    HW219881   4.433   1.874   0.508
 6377SOL     OW19882   3.921   2.838   1.264
 6377SOL    HW119883   4.010   2.793   1.250
 6377SOL    HW219884   3.848   2.773   1.245
 6378SOL     OW19885   4.041   2.113   1.801
 6378SOL    HW119886   4.112   2.184   1.807
 6378SOL    HW219887   3.953   2.152   1.829
 6379SOL     OW19888   4.322   2.591   0.270
 6379SOL    HW119889   4.346   2.660   0.202
 6379SOL    HW219890   4.244   2.624   0.324
 6380SOL     OW19891   3.800   2.673   0.789
 6380SOL    HW119892   3.899   2.661   0.798
 6380SOL    HW219893   3.776   2.768   0.810
 6381SOL     OW19894   3.854   3.683   1.571
 6381SOL    HW119895   3.844   3.668   1.670
 6381SOL    HW219896   3.768   3.719   1.535
 6382SOL     OW19897   4.274   2.058   0.885
 6382SOL    HW119898   4.269   2.053   0.985
 6382SOL    HW219899   4.276   2.154   0.856
 6383SOL     OW19900   4.075   3.663   0.853
 6383SOL    HW119901   4.125   3.577   0.859
 6383SOL    HW219902   4.140   3.740   0.850
 6384SOL     OW19903   4.045   2.805   0.242
 6384SOL    HW119904   4.127   2.844   0.200
 6384SOL    HW219905   4.018   2.723   0.193
 6385SOL     OW19906   4.185   3.128   1.727
 6385SOL    HW119907   4.135   3.129   1.641
 6385SOL    HW219908   4.122   3.110   1.803
 6386SOL     OW19909   3.926   2.147   1.498
 6386SOL    HW119910   3.846   2.207   1.485
 6386SOL    HW219911   3.916   2.098   1.584
 6387SOL     OW19912   4.188   3.605   0.323
 6387SOL    HW119913   4.221   3.644   0.409
 6387SOL    HW219914   4.264   3.598   0.258
 6388SOL     OW19915   3.973   3.647   1.241
 6388SOL    HW119916   4.030   3.582   1.291
 6388SOL    HW219917   3.957   3.614   1.148
 6389SOL     OW19918   4.106   2.562   0.480
 6389SOL    HW119919   4.151   2.472   0.477
 6389SOL    HW219920   4.012   2.551   0.513
 6390SOL     OW19921   4.338   1.984   0.117
 6390SOL    HW119922   4.436   1.962   0.124
 6390SOL    HW219923   4.307   1.967   0.024
 6391SOL     OW19924   4.527   3.264   0.924
 6391SOL    HW119925   4.617   3.278   0.882
 6391SOL    HW219926   4.456   3.266   0.853
 6392SOL     OW19927   4.263   1.926   0.512
 6392SOL    HW119928   4.182   1.927   0.570
 6392SOL    HW219929   4.266   2.009   0.457
 6393SOL     OW19930   4.021   1.897   0.171
 6393SOL    HW119931   4.070   1.981   0.150
 6393SOL    HW219932   4.083   1.832   0.216
 6394SOL     OW19933   4.800   2.545   1.464
 6394SOL    HW119934   4.720   2.484   1.467
 6394SOL    HW219935   4.881   2.492   1.440
 6395SOL     OW19936   4.183   3.014   0.741
 6395SOL    HW119937   4.112   2.987   0.806
 6395SOL    HW219938   4.157   2.986   0.648
 6396SOL     OW19939   3.802   2.418   1.386
 6396SOL    HW119940   3.894   2.417   1.345
 6396SOL    HW219941   3.796   2.492   1.453
 6397SOL     OW19942   4.285   2.084   1.147
 6397SOL    HW119943   4.323   2.000   1.184
 6397SOL    HW219944   4.197   2.103   1.191
 6398SOL     OW19945   4.212   3.247   0.174
 6398SOL    HW119946   4.125   3.232   0.221
 6398SOL    HW219947   4.195   3.273   0.079
 6399SOL     OW19948   4.251   2.118   0.328
 6399SOL    HW119949   4.278   2.059   0.253
 6399SOL    HW219950   4.251   2.213   0.297
 6400SOL     OW19951   4.134   2.675   1.251
 6400SOL    HW119952   4.220   2.687   1.301
 6400SOL    HW219953   4.092   2.588   1.278
 6401SOL     OW19954   3.788   3.426   1.331
 6401SOL    HW119955   3.742   3.508   1.297
 6401SOL    HW219956   3.886   3.445   1.340
 6402SOL     OW19957   4.091   2.962   0.501
 6402SOL    HW119958   4.084   3.045   0.445
 6402SOL    HW219959   4.095   2.882   0.441
 6403SOL     OW19960   4.290   2.399   0.865
 6403SOL    HW119961   4.302   2.465   0.791
 6403SOL    HW219962   4.336   2.433   0.948
 6404SOL     OW19963   4.078   3.372   1.329
 6404SOL    HW119964   4.057   3.328   1.242
 6404SOL    HW219965   4.175   3.398   1.332
 6405SOL     OW19966   4.126   2.613   1.598
 6405SOL    HW119967   4.194   2.668   1.551
 6405SOL    HW219968   4.166   2.525   1.625
 6406SOL     OW19969   4.228   1.912   1.740
 6406SOL    HW119970   4.186   1.855   1.670
 6406SOL    HW219971   4.162   1.981   1.772
 6407SOL     OW19972   4.297   2.732   1.029
 6407SOL    HW119973   4.341   2.821   1.020
 6407SOL    HW219974   4.234   2.732   1.106
 6408SOL     OW19975   4.031   2.075   1.231
 6408SOL    HW119976   4.008   2.112   1.321
 6408SOL    HW219977   4.001   1.980   1.225
 6409SOL     OW19978   3.761   3.172   1.282
 6409SOL    HW119979   3.814   3.123   1.350
 6409SOL    HW219980   3.783   3.270   1.287
 6410SOL     OW19981   4.031   1.925   0.618
 6410SOL    HW119982   4.020   2.019   0.651
 6410SOL    HW219983   4.026   1.862   0.695
 6411SOL     OW19984   4.074   2.760   1.804
 6411SOL    HW119985   4.150   2.804   1.852
 6411SOL    HW219986   4.109   2.713   1.722
 6412SOL     OW19987   4.043   2.672   0.949
 6412SOL    HW119988   4.136   2.708   0.954
 6412SOL    HW219989   4.037   2.587   1.001
 6413SOL     OW19990   4.063   2.371   1.006
 6413SOL    HW119991   4.011   2.288   0.989
 6413SOL    HW219992   4.140   2.376   0.942
 6414SOL     OW19993   3.732   3.188   0.200
 6414SOL    HW119994   3.639   3.209   0.169
 6414SOL    HW219995   3.742   3.089   0.213
 6415SOL     OW19996   3.812   3.663   0.927
 6415SOL    HW119997   3.770   3.577   0.900
 6415SOL    HW219998   3.906   3.666   0.893
 6416SOL     OW19999   4.228   3.430   0.910
 6416SOL    HW120000   4.294   3.504   0.919
 6416SOL    HW220001   4.272   3.351   0.868
 6417SOL     OW20002   3.764   2.406   1.114
 6417SOL    HW120003   3.849   2.373   1.073
 6417SOL    HW220004   3.777   2.421   1.212
 6418SOL     OW20005   3.913   2.382   1.722
 6418SOL    HW120006   3.972   2.342   1.652
 6418SOL    HW220007   3.855   2.453   1.681
 6419SOL     OW20008   4.539   2.434   0.325
 6419SOL    HW120009   4.546   2.345   0.279
 6419SOL    HW220010   4.445   2.468   0.317
 6420SOL     OW20011   3.976   3.426   1.744
 6420SOL    HW120012   3.946   3.483   1.820
 6420SOL    HW220013   3.969   3.329   1.770
 6421SOL     OW20014   4.197   2.362   0.191
 6421SOL    HW120015   4.258   2.442   0.195
 6421SOL    HW220016   4.102   2.393   0.198
 6422SOL     OW20017   3.883   2.999   1.466
 6422SOL    HW120018   3.905   2.938   1.542
 6422SOL    HW220019   3.893   2.950   1.380
 6423SOL     OW20020   3.807   3.120   1.022
 6423SOL    HW120021   3.802   3.119   1.122
 6423SOL    HW220022   3.724   3.079   0.984
 6424SOL     OW20023   4.412   3.524   1.716
 6424SOL    HW120024   4.356   3.605   1.725
 6424SOL    HW220025   4.464   3.528   1.630
 6425SOL     OW20026   3.854   3.656   1.851
 6425SOL    HW120027   3.813   3.582   1.904
 6425SOL    HW220028   3.918   3.707   1.909
 6426SOL     OW20029   3.987   2.188   0.720
 6426SOL    HW120030   3.908   2.239   0.686
 6426SOL    HW220031   3.978   2.173   0.818
 6427SOL     OW20032   4.096   3.150   1.490
 6427SOL    HW120033   4.083   3.243   1.456
 6427SOL    HW220034   4.012   3.098   1.477
 6428SOL     OW20035   4.314   3.349   0.491
 6428SOL    HW120036   4.356   3.291   0.421
 6428SOL    HW220037   4.270   3.428   0.447
 6429SOL     OW20038   3.979   3.210   0.290
 6429SOL    HW120039   3.883   3.211   0.263
 6429SOL    HW220040   3.991   3.263   0.374
 6430SOL     OW20041   3.829   2.875   1.726
 6430SOL    HW120042   3.752   2.842   1.780
 6430SOL    HW220043   3.914   2.845   1.768
 6431SOL     OW20044   4.396   2.065   1.489
 6431SOL    HW120045   4.486   2.049   1.449
 6431SOL    HW220046   4.404   2.070   1.588
 6432SOL     OW20047   3.799   2.207   0.033
 6432SOL    HW120048   3.707   2.179   0.004
 6432SOL    HW220049   3.830   2.284  -0.023
 6433SOL     OW20050   3.796   2.028   0.318
 6433SOL    HW120051   3.779   2.111   0.264
 6433SOL    HW220052   3.886   1.991   0.296
 6434SOL     OW20053   4.337   2.704   1.431
 6434SOL    HW120054   4.393   2.785   1.414
 6434SOL    HW220055   4.396   2.624   1.434
 6435SOL     OW20056   4.440   2.427   1.708
 6435SOL    HW120057   4.459   2.492   1.782
 6435SOL    HW220058   4.500   2.347   1.717
 6436SOL     OW20059   4.114   3.603   1.560
 6436SOL    HW120060   4.023   3.644   1.558
 6436SOL    HW220061   4.107   3.509   1.592
 6437SOL     OW20062   4.318   2.607   0.652
 6437SOL    HW120063   4.368   2.692   0.633
 6437SOL    HW220064   4.230   2.609   0.604
 6438SOL     OW20065   3.945   3.176   1.844
 6438SOL    HW120066   3.880   3.103   1.823
 6438SOL    HW220067   3.949   3.190   1.942
 6439SOL     OW20068   3.803   3.102   0.653
 6439SOL    HW120069   3.802   3.055   0.741
 6439SOL    HW220070   3.885   3.074   0.602
 6440SOL     OW20071   4.396   3.253   1.624
 6440SOL    HW120072   4.318   3.203   1.662
 6440SOL    HW220073   4.393   3.348   1.655
 6441SOL     OW20074   4.152   2.286   0.520
 6441SOL    HW120075   4.182   2.214   0.458
 6441SOL    HW220076   4.113   2.246   0.603
 6442SOL     OW20077   4.041   2.409   1.280
 6442SOL    HW120078   4.079   2.350   1.352
 6442SOL    HW220079   4.081   2.383   1.192
 6443SOL     OW20080   4.536   3.448   0.687
 6443SOL    HW120081   4.568   3.458   0.593
 6443SOL    HW220082   4.457   3.386   0.689
 6444SOL     OW20083   3.763   2.939   0.300
 6444SOL    HW120084   3.862   2.928   0.291
 6444SOL    HW220085   3.723   2.853   0.332
 6445SOL     OW20086   3.954   2.490   1.975
 6445SOL    HW120087   3.861   2.488   2.012
 6445SOL    HW220088   3.955   2.451   1.883
 6446SOL     OW20089   3.949   2.137   2.858
 6446SOL    HW120090   3.984   2.120   2.950
 6446SOL    HW220091   3.861   2.092   2.846
 6447SOL     OW20092   3.743   2.230   2.509
 6447SOL    HW120093   3.661   2.273   2.548
 6447SOL    HW220094   3.715   2.157   2.446
 6448SOL     OW20095   4.293   3.137   3.027
 6448SOL    HW120096   4.200   3.130   2.990
 6448SOL    HW220097   4.304   3.226   3.071
 6449SOL     OW20098   4.574   2.660   3.685
 6449SOL    HW120099   4.570   2.736   3.750
 6449SOL    HW220100   4.596   2.696   3.594
 6450SOL     OW20101   4.409   2.874   2.527
 6450SOL    HW120102   4.478   2.858   2.597
 6450SOL    HW220103   4.336   2.931   2.565
 6451SOL     OW20104   4.410   3.023   3.665
 6451SOL    HW120105   4.470   3.102   3.679
 6451SOL    HW220106   4.324   3.054   3.624
 6452SOL     OW20107   4.059   3.297   2.923
 6452SOL    HW120108   3.981   3.266   2.870
 6452SOL    HW220109   4.117   3.355   2.866
 6453SOL     OW20110   4.162   2.254   3.361
 6453SOL    HW120111   4.244   2.198   3.370
 6453SOL    HW220112   4.081   2.196   3.365
 6454SOL     OW20113   3.955   3.575   2.345
 6454SOL    HW120114   3.989   3.652   2.399
 6454SOL    HW220115   3.999   3.575   2.255
 6455SOL     OW20116   3.954   3.296   2.400
 6455SOL    HW120117   3.928   3.392   2.400
 6455SOL    HW220118   3.883   3.242   2.445
 6456SOL     OW20119   3.964   2.953   2.748
 6456SOL    HW120120   3.978   2.869   2.800
 6456SOL    HW220121   3.909   3.017   2.803
 6457SOL     OW20122   4.344   3.648   3.301
 6457SOL    HW120123   4.252   3.631   3.336
 6457SOL    HW220124   4.372   3.740   3.327
 6458SOL     OW20125   4.330   2.826   1.985
 6458SOL    HW120126   4.337   2.910   1.931
 6458SOL    HW220127   4.376   2.839   2.073
 6459SOL     OW20128   3.846   2.505   2.425
 6459SOL    HW120129   3.801   2.417   2.442
 6459SOL    HW220130   3.845   2.559   2.509
 6460SOL     OW20131   3.751   3.458   1.979
 6460SOL    HW120132   3.732   3.362   2.000
 6460SOL    HW220133   3.718   3.516   2.054
 6461SOL     OW20134   3.837   2.599   3.459
 6461SOL    HW120135   3.925   2.586   3.504
 6461SOL    HW220136   3.824   2.696   3.437
 6462SOL     OW20137   4.337   3.227   2.588
 6462SOL    HW120138   4.288   3.140   2.597
 6462SOL    HW220139   4.314   3.270   2.501
 6463SOL     OW20140   4.533   1.866   2.364
 6463SOL    HW120141   4.573   1.957   2.355
 6463SOL    HW220142   4.433   1.874   2.370
 6464SOL     OW20143   3.921   2.838   3.126
 6464SOL    HW120144   4.010   2.793   3.112
 6464SOL    HW220145   3.848   2.773   3.107
 6465SOL     OW20146   4.041   2.113   3.663
 6465SOL    HW120147   4.112   2.184   3.669
 6465SOL    HW220148   3.953   2.152   3.691
 6466SOL     OW20149   4.322   2.591   2.132
 6466SOL    HW120150   4.346   2.660   2.064
 6466SOL    HW220151   4.244   2.624   2.186
 6467SOL     OW20152   3.800   2.673   2.651
 6467SOL    HW120153   3.899   2.661   2.660
 6467SOL    HW220154   3.776   2.768   2.672
 6468SOL     OW20155   3.854   3.683   3.433
 6468SOL    HW120156   3.844   3.668   3.532
 6468SOL    HW220157   3.768   3.719   3.397
 6469SOL     OW20158   4.274   2.058   2.747
 6469SOL    HW120159   4.269   2.053   2.847
 6469SOL    HW220160   4.276   2.154   2.718
 6470SOL     OW20161   4.075   3.663   2.715
 6470SOL    HW120162   4.125   3.577   2.721
 6470SOL    HW220163   4.140   3.740   2.712
 6471SOL     OW20164   4.045   2.805   2.104
 6471SOL    HW120165   4.127   2.844   2.062
 6471SOL    HW220166   4.018   2.723   2.055
 6472SOL     OW20167   4.185   3.128   3.589
 6472SOL    HW120168   4.135   3.129   3.503
 6472SOL    HW220169   4.122   3.110   3.665
 6473SOL     OW20170   3.926   2.147   3.360
 6473SOL    HW120171   3.846   2.207   3.347
 6473SOL    HW220172   3.916   2.098   3.446
 6474SOL     OW20173   4.188   3.605   2.185
 6474SOL    HW120174   4.221   3.644   2.271
 6474SOL    HW220175   4.264   3.598   2.120
 6475SOL     OW20176   3.973   3.647   3.103
 6475SOL    HW120177   4.030   3.582   3.153
 6475SOL    HW220178   3.957   3.614   3.010
 6476SOL     OW20179   4.106   2.562   2.342
 6476SOL    HW120180   4.151   2.472   2.339
 6476SOL    HW220181   4.012   2.551   2.375
 6477SOL     OW20182   4.338   1.984   1.979
 6477SOL    HW120183   4.436   1.962   1.986
 6477SOL    HW220184   4.307   1.967   1.886
 6478SOL     OW20185   4.527   3.264   2.786
 6478SOL    HW120186   4.617   3.278   2.744
 6478SOL    HW220187   4.456   3.266   2.715
 6479SOL     OW20188   4.263   1.926   2.374
 6479SOL    HW120189   4.182   1.927   2.432
 6479SOL    HW220190   4.266   2.009   2.319
 6480SOL     OW20191   4.021   1.897   2.033
 6480SOL    HW120192   4.070   1.981   2.012
 6480SOL    HW220193   4.083   1.832   2.078
 6481SOL     OW20194   4.800   2.545   3.326
 6481SOL    HW120195   4.720   2.484   3.329
 6481SOL    HW220196   4.881   2.492   3.302
 6482SOL     OW20197   4.183   3.014   2.603
 6482SOL    HW120198   4.112   2.987   2.668
 6482SOL    HW220199   4.157   2.986   2.510
 6483SOL     OW20200   3.802   2.418   3.248
 6483SOL    HW120201   3.894   2.417   3.207
 6483SOL    HW220202   3.796   2.492   3.315
 6484SOL     OW20203   4.285   2.084   3.009
 6484SOL    HW120204   4.323   2.000   3.046
 6484SOL    HW220205   4.197   2.103   3.053
 6485SOL     OW20206   4.212   3.247   2.036
 6485SOL    HW120207   4.125   3.232   2.083
 6485SOL    HW220208   4.195   3.273   1.941
 6486SOL     OW20209   4.251   2.118   2.190
 6486SOL    HW120210   4.278   2.059   2.115
 6486SOL    HW220211   4.251   2.213   2.159
 6487SOL     OW20212   4.134   2.675   3.113
 6487SOL    HW120213   4.220   2.687   3.163
 6487SOL    HW220214   4.092   2.588   3.140
 6488SOL     OW20215   3.788   3.426   3.193
 6488SOL    HW120216   3.742   3.508   3.159
 6488SOL    HW220217   3.886   3.445   3.202
 6489SOL     OW20218   4.091   2.962   2.363
 6489SOL    HW120219   4.084   3.045   2.307
 6489SOL    HW220220   4.095   2.882   2.303
 6490SOL     OW20221   4.290   2.399   2.727
 6490SOL    HW120222   4.302   2.465   2.653
 6490SOL    HW220223   4.336   2.433   2.810
 6491SOL     OW20224   4.078   3.372   3.191
 6491SOL    HW120225   4.057   3.328   3.104
 6491SOL    HW220226   4.175   3.398   3.194
 6492SOL     OW20227   4.126   2.613   3.460
 6492SOL    HW120228   4.194   2.668   3.413
 6492SOL    HW220229   4.166   2.525   3.487
 6493SOL     OW20230   4.228   1.912   3.602
 6493SOL    HW120231   4.186   1.855   3.532
 6493SOL    HW220232   4.162   1.981   3.634
 6494SOL     OW20233   4.297   2.732   2.891
 6494SOL    HW120234   4.341   2.821   2.882
 6494SOL    HW220235   4.234   2.732   2.968
 6495SOL     OW20236   4.031   2.075   3.093
 6495SOL    HW120237   4.008   2.112   3.183
 6495SOL    HW220238   4.001   1.980   3.087
 6496SOL     OW20239   3.761   3.172   3.144
 6496SOL    HW120240   3.814   3.123   3.212
 6496SOL    HW220241   3.783   3.270   3.149
 6497SOL     OW20242   4.031   1.925   2.480
 6497SOL    HW120243   4.020   2.019   2.513
 6497SOL    HW220244   4.026   1.862   2.557
 6498SOL     OW20245   4.074   2.760   3.666
 6498SOL    HW120246   4.150   2.804   3.714
 6498SOL    HW220247   4.109   2.713   3.584
 6499SOL     OW20248   4.043   2.672   2.811
 6499SOL    HW120249   4.136   2.708   2.816
 6499SOL    HW220250   4.037   2.587   2.863
 6500SOL     OW20251   4.063   2.371   2.868
 6500SOL    HW120252   4.011   2.288   2.851
 6500SOL    HW220253   4.140   2.376   2.804
 6501SOL     OW20254   3.732   3.188   2.062
 6501SOL    HW120255   3.639   3.209   2.031
 6501SOL    HW220256   3.742   3.089   2.075
 6502SOL     OW20257   3.812   3.663   2.789
 6502SOL    HW120258   3.770   3.577   2.762
 6502SOL    HW220259   3.906   3.666   2.755
 6503SOL     OW20260   4.228   3.430   2.772
 6503SOL    HW120261   4.294   3.504   2.781
 6503SOL    HW220262   4.272   3.351   2.730
 6504SOL     OW20263   3.764   2.406   2.976
 6504SOL    HW120264   3.849   2.373   2.935
 6504SOL    HW220265   3.777   2.421   3.074
 6505SOL     OW20266   3.913   2.382   3.584
 6505SOL    HW120267   3.972   2.342   3.514
 6505SOL    HW220268   3.855   2.453   3.543
 6506SOL     OW20269   4.539   2.434   2.187
 6506SOL    HW120270   4.546   2.345   2.141
 6506SOL    HW220271   4.445   2.468   2.179
 6507SOL     OW20272   3.976   3.426   3.606
 6507SOL    HW120273   3.946   3.483   3.682
 6507SOL    HW220274   3.969   3.329   3.632
 6508SOL     OW20275   4.197   2.362   2.053
 6508SOL    HW120276   4.258   2.442   2.057
 6508SOL    HW220277   4.102   2.393   2.060
 6509SOL     OW20278   3.883   2.999   3.328
 6509SOL    HW120279   3.905   2.938   3.404
 6509SOL    HW220280   3.893   2.950   3.242
 6510SOL     OW20281   3.807   3.120   2.884
 6510SOL    HW120282   3.802   3.119   2.984
 6510SOL    HW220283   3.724   3.079   2.846
 6511SOL     OW20284   4.412   3.524   3.578
 6511SOL    HW120285   4.356   3.605   3.587
 6511SOL    HW220286   4.464   3.528   3.492
 6512SOL     OW20287   3.854   3.656   3.713
 6512SOL    HW120288   3.813   3.582   3.766
 6512SOL    HW220289   3.918   3.707   3.771
 6513SOL     OW20290   3.987   2.188   2.582
 6513SOL    HW120291   3.908   2.239   2.548
 6513SOL    HW220292   3.978   2.173   2.680
 6514SOL     OW20293   4.096   3.150   3.352
 6514SOL    HW120294   4.083   3.243   3.318
 6514SOL    HW220295   4.012   3.098   3.339
 6515SOL     OW20296   4.314   3.349   2.353
 6515SOL    HW120297   4.356   3.291   2.283
 6515SOL    HW220298   4.270   3.428   2.309
 6516SOL     OW20299   3.979   3.210   2.152
 6516SOL    HW120300   3.883   3.211   2.125
 6516SOL    HW220301   3.991   3.263   2.236
 6517SOL     OW20302   3.829   2.875   3.588
 6517SOL    HW120303   3.752   2.842   3.642
 6517SOL    HW220304   3.914   2.845   3.630
 6518SOL     OW20305   4.396   2.065   3.351
 6518SOL    HW120306   4.486   2.049   3.311
 6518SOL    HW220307   4.404   2.070   3.450
 6519SOL     OW20308   3.799   2.207   1.895
 6519SOL    HW120309   3.707   2.179   1.866
 6519SOL    HW220310   3.830   2.284   1.839
 6520SOL     OW20311   3.796   2.028   2.180
 6520SOL    HW120312   3.779   2.111   2.126
 6520SOL    HW220313   3.886   1.991   2.158
 6521SOL     OW20314   4.337   2.704   3.293
 6521SOL    HW120315   4.393   2.785   3.276
 6521SOL    HW220316   4.396   2.624   3.296
 6522SOL     OW20317   4.440   2.427   3.570
 6522SOL    HW120318   4.459   2.492   3.644
 6522SOL    HW220319   4.500   2.347   3.579
 6523SOL     OW20320   4.114   3.603   3.422
 6523SOL    HW120321   4.023   3.644   3.420
 6523SOL    HW220322   4.107   3.509   3.454
 6524SOL     OW20323   4.318   2.607   2.514
 6524SOL    HW120324   4.368   2.692   2.495
 6524SOL    HW220325   4.230   2.609   2.466
 6525SOL     OW20326   3.945   3.176   3.706
 6525SOL    HW120327   3.880   3.103   3.685
 6525SOL    HW220328   3.949   3.190   3.804
 6526SOL     OW20329   3.803   3.102   2.515
 6526SOL    HW120330   3.802   3.055   2.603
 6526SOL    HW220331   3.885   3.074   2.464
 6527SOL     OW20332   4.396   3.253   3.486
 6527SOL    HW120333   4.318   3.203   3.524
 6527SOL    HW220334   4.393   3.348   3.517
 6528SOL     OW20335   4.152   2.286   2.382
 6528SOL    HW120336   4.182   2.214   2.320
 6528SOL    HW220337   4.113   2.246   2.465
 6529SOL     OW20338   4.041   2.409   3.142
 6529SOL    HW120339   4.079   2.350   3.214
 6529SOL    HW220340   4.081   2.383   3.054
 6530SOL     OW20341   4.536   3.448   2.549
 6530SOL    HW120342   4.568   3.458   2.455
 6530SOL    HW220343   4.457   3.386   2.551
 6531SOL     OW20344   3.763   2.939   2.162
 6531SOL    HW120345   3.862   2.928   2.153
 6531SOL    HW220346   3.723   2.853   2.194
 6532SOL     OW20347   3.954   2.490   3.837
 6532SOL    HW120348   3.861   2.488   3.874
 6532SOL    HW220349   3.955   2.451   3.745
 6533SOL     OW20350   3.949   2.137   4.720
 6533SOL    HW120351   3.984   2.120   4.812
 6533SOL    HW220352   3.861   2.092   4.708
 6534SOL     OW20353   3.743   2.230   4.371
 6534SOL    HW120354   3.661   2.273   4.410
 6534SOL    HW220355   3.715   2.157   4.308
 6535SOL     OW20356   4.293   3.137   4.889
 6535SOL    HW120357   4.200   3.130   4.852
 6535SOL    HW220358   4.304   3.226   4.933
 6536SOL     OW20359   4.574   2.660   5.547
 6536SOL    HW120360   4.570   2.736   5.612
 6536SOL    HW220361   4.596   2.696   5.456
 6537SOL     OW20362   4.409   2.874   4.389
 6537SOL    HW120363   4.478   2.858   4.459
 6537SOL    HW220364   4.336   2.931   4.427
 6538SOL     OW20365   4.410   3.023   5.527
 6538SOL    HW120366   4.470   3.102   5.541
 6538SOL    HW220367   4.324   3.054   5.486
 6539SOL     OW20368   4.059   3.297   4.785
 6539SOL    HW120369   3.981   3.266   4.732
 6539SOL    HW220370   4.117   3.355   4.728
 6540SOL     OW20371   4.162   2.254   5.223
 6540SOL    HW120372   4.244   2.198   5.232
 6540SOL    HW220373   4.081   2.196   5.227
 6541SOL     OW20374   3.955   3.575   4.207
 6541SOL    HW120375   3.989   3.652   4.261
 6541SOL    HW220376   3.999   3.575   4.117
 6542SOL     OW20377   3.954   3.296   4.262
 6542SOL    HW120378   3.928   3.392   4.262
 6542SOL    HW220379   3.883   3.242   4.307
 6543SOL     OW20380   3.964   2.953   4.610
 6543SOL    HW120381   3.978   2.869   4.662
 6543SOL    HW220382   3.909   3.017   4.665
 6544SOL     OW20383   4.344   3.648   5.163
 6544SOL    HW120384   4.252   3.631   5.198
 6544SOL    HW220385   4.372   3.740   5.189
 6545SOL     OW20386   4.330   2.826   3.847
 6545SOL    HW120387   4.337   2.910   3.793
 6545SOL    HW220388   4.376   2.839   3.935
 6546SOL     OW20389   3.846   2.505   4.287
 6546SOL    HW120390   3.801   2.417   4.304
 6546SOL    HW220391   3.845   2.559   4.371
 6547SOL     OW20392   3.751   3.458   3.841
 6547SOL    HW120393   3.732   3.362   3.862
 6547SOL    HW220394   3.718   3.516   3.916
 6548SOL     OW20395   3.837   2.599   5.321
 6548SOL    HW120396   3.925   2.586   5.366
 6548SOL    HW220397   3.824   2.696   5.299
 6549SOL     OW20398   4.337   3.227   4.450
 6549SOL    HW120399   4.288   3.140   4.459
 6549SOL    HW220400   4.314   3.270   4.363
 6550SOL     OW20401   4.533   1.866   4.226
 6550SOL    HW120402   4.573   1.957   4.217
 6550SOL    HW220403   4.433   1.874   4.232
 6551SOL     OW20404   3.921   2.838   4.988
 6551SOL    HW120405   4.010   2.793   4.974
 6551SOL    HW220406   3.848   2.773   4.969
 6552SOL     OW20407   4.041   2.113   5.525
 6552SOL    HW120408   4.112   2.184   5.531
 6552SOL    HW220409   3.953   2.152   5.553
 6553SOL     OW20410   4.322   2.591   3.994
 6553SOL    HW120411   4.346   2.660   3.926
 6553SOL    HW220412   4.244   2.624   4.048
 6554SOL     OW20413   3.800   2.673   4.513
 6554SOL    HW120414   3.899   2.661   4.522
 6554SOL    HW220415   3.776   2.768   4.534
 6555SOL     OW20416   3.854   3.683   5.295
 6555SOL    HW120417   3.844   3.668   5.394
 6555SOL    HW220418   3.768   3.719   5.259
 6556SOL     OW20419   4.274   2.058   4.609
 6556SOL    HW120420   4.269   2.053   4.709
 6556SOL    HW220421   4.276   2.154   4.580
 6557SOL     OW20422   4.075   3.663   4.577
 6557SOL    HW120423   4.125   3.577   4.583
 6557SOL    HW220424   4.140   3.740   4.574
 6558SOL     OW20425   4.045   2.805   3.966
 6558SOL    HW120426   4.127   2.844   3.924
 6558SOL    HW220427   4.018   2.723   3.917
 6559SOL     OW20428   4.185   3.128   5.451
 6559SOL    HW120429   4.135   3.129   5.365
 6559SOL    HW220430   4.122   3.110   5.527
 6560SOL     OW20431   3.926   2.147   5.222
 6560SOL    HW120432   3.846   2.207   5.209
 6560SOL    HW220433   3.916   2.098   5.308
 6561SOL     OW20434   4.188   3.605   4.047
 6561SOL    HW120435   4.221   3.644   4.133
 6561SOL    HW220436   4.264   3.598   3.982
 6562SOL     OW20437   3.973   3.647   4.965
 6562SOL    HW120438   4.030   3.582   5.015
 6562SOL    HW220439   3.957   3.614   4.872
 6563SOL     OW20440   4.106   2.562   4.204
 6563SOL    HW120441   4.151   2.472   4.201
 6563SOL    HW220442   4.012   2.551   4.237
 6564SOL     OW20443   4.338   1.984   3.841
 6564SOL    HW120444   4.436   1.962   3.848
 6564SOL    HW220445   4.307   1.967   3.748
 6565SOL     OW20446   4.527   3.264   4.648
 6565SOL    HW120447   4.617   3.278   4.606
 6565SOL    HW220448   4.456   3.266   4.577
 6566SOL     OW20449   4.263   1.926   4.236
 6566SOL    HW120450   4.182   1.927   4.294
 6566SOL    HW220451   4.266   2.009   4.181
 6567SOL     OW20452   4.021   1.897   3.895
 6567SOL    HW120453   4.070   1.981   3.874
 6567SOL    HW220454   4.083   1.832   3.940
 6568SOL     OW20455   4.800   2.545   5.188
 6568SOL    HW120456   4.720   2.484   5.191
 6568SOL    HW220457   4.881   2.492   5.164
 6569SOL     OW20458   4.183   3.014   4.465
 6569SOL    HW120459   4.112   2.987   4.530
 6569SOL    HW220460   4.157   2.986   4.372
 6570SOL     OW20461   3.802   2.418   5.110
 6570SOL    HW120462   3.894   2.417   5.069
 6570SOL    HW220463   3.796   2.492   5.177
 6571SOL     OW20464   4.285   2.084   4.871
 6571SOL    HW120465   4.323   2.000   4.908
 6571SOL    HW220466   4.197   2.103   4.915
 6572SOL     OW20467   4.212   3.247   3.898
 6572SOL    HW120468   4.125   3.232   3.945
 6572SOL    HW220469   4.195   3.273   3.803
 6573SOL     OW20470   4.251   2.118   4.052
 6573SOL    HW120471   4.278   2.059   3.977
 6573SOL    HW220472   4.251   2.213   4.021
 6574SOL     OW20473   4.134   2.675   4.975
 6574SOL    HW120474   4.220   2.687   5.025
 6574SOL    HW220475   4.092   2.588   5.002
 6575SOL     OW20476   3.788   3.426   5.055
 6575SOL    HW120477   3.742   3.508   5.021
 6575SOL    HW220478   3.886   3.445   5.064
 6576SOL     OW20479   4.091   2.962   4.225
 6576SOL    HW120480   4.084   3.045   4.169
 6576SOL    HW220481   4.095   2.882   4.165
 6577SOL     OW20482   4.290   2.399   4.589
 6577SOL    HW120483   4.302   2.465   4.515
 6577SOL    HW220484   4.336   2.433   4.672
 6578SOL     OW20485   4.078   3.372   5.053
 6578SOL    HW120486   4.057   3.328   4.966
 6578SOL    HW220487   4.175   3.398   5.056
 6579SOL     OW20488   4.126   2.613   5.322
 6579SOL    HW120489   4.194   2.668   5.275
 6579SOL    HW220490   4.166   2.525   5.349
 6580SOL     OW20491   4.228   1.912   5.464
 6580SOL    HW120492   4.186   1.855   5.394
 6580SOL    HW220493   4.162   1.981   5.496
 6581SOL     OW20494   4.297   2.732   4.753
 6581SOL    HW120495   4.341   2.821   4.744
 6581SOL    HW220496   4.234   2.732   4.830
 6582SOL     OW20497   4.031   2.075   4.955
 6582SOL    HW120498   4.008   2.112   5.045
 6582SOL    HW220499   4.001   1.980   4.949
 6583SOL     OW20500   3.761   3.172   5.006
 6583SOL    HW120501   3.814   3.123   5.074
 6583SOL    HW220502   3.783   3.270   5.011
 6584SOL     OW20503   4.031   1.925   4.342
 6584SOL    HW120504   4.020   2.019   4.375
 6584SOL    HW220505   4.026   1.862   4.419
 6585SOL     OW20506   4.074   2.760   5.528
 6585SOL    HW120507   4.150   2.804   5.576
 6585SOL    HW220508   4.109   2.713   5.446
 6586SOL     OW20509   4.043   2.672   4.673
 6586SOL    HW120510   4.136   2.708   4.678
 6586SOL    HW220511   4.037   2.587   4.725
 6587SOL     OW20512   4.063   2.371   4.730
 6587SOL    HW120513   4.011   2.288   4.713
 6587SOL    HW220514   4.140   2.376   4.666
 6588SOL     OW20515   3.732   3.188   3.924
 6588SOL    HW120516   3.639   3.209   3.893
 6588SOL    HW220517   3.742   3.089   3.937
 6589SOL     OW20518   3.812   3.663   4.651
 6589SOL    HW120519   3.770   3.577   4.624
 6589SOL    HW220520   3.906   3.666   4.617
 6590SOL     OW20521   4.228   3.430   4.634
 6590SOL    HW120522   4.294   3.504   4.643
 6590SOL    HW220523   4.272   3.351   4.592
 6591SOL     OW20524   3.764   2.406   4.838
 6591SOL    HW120525   3.849   2.373   4.797
 6591SOL    HW220526   3.777   2.421   4.936
 6592SOL     OW20527   3.913   2.382   5.446
 6592SOL    HW120528   3.972   2.342   5.376
 6592SOL    HW220529   3.855   2.453   5.405
 6593SOL     OW20530   4.539   2.434   4.049
 6593SOL    HW120531   4.546   2.345   4.003
 6593SOL    HW220532   4.445   2.468   4.041
 6594SOL     OW20533   3.976   3.426   5.468
 6594SOL    HW120534   3.946   3.483   5.544
 6594SOL    HW220535   3.969   3.329   5.494
 6595SOL     OW20536   4.197   2.362   3.915
 6595SOL    HW120537   4.258   2.442   3.919
 6595SOL    HW220538   4.102   2.393   3.922
 6596SOL     OW20539   3.883   2.999   5.190
 6596SOL    HW120540   3.905   2.938   5.266
 6596SOL    HW220541   3.893   2.950   5.104
 6597SOL     OW20542   3.807   3.120   4.746
 6597SOL    HW120543   3.802   3.119   4.846
 6597SOL    HW220544   3.724   3.079   4.708
 6598SOL     OW20545   4.412   3.524   5.440
 6598SOL    HW120546   4.356   3.605   5.449
 6598SOL    HW220547   4.464   3.528   5.354
 6599SOL     OW20548   3.854   3.656   5.575
 6599SOL    HW120549   3.813   3.582   5.628
 6599SOL    HW220550   3.918   3.707   5.633
 6600SOL     OW20551   3.987   2.188   4.444
 6600SOL    HW120552   3.908   2.239   4.410
 6600SOL    HW220553   3.978   2.173   4.542
 6601SOL     OW20554   4.096   3.150   5.214
 6601SOL    HW120555   4.083   3.243   5.180
 6601SOL    HW220556   4.012   3.098   5.201
 6602SOL     OW20557   4.314   3.349   4.215
 6602SOL    HW120558   4.356   3.291   4.145
 6602SOL    HW220559   4.270   3.428   4.171
 6603SOL     OW20560   3.979   3.210   4.014
 6603SOL    HW120561   3.883   3.211   3.987
 6603SOL    HW220562   3.991   3.263   4.098
 6604SOL     OW20563   3.829   2.875   5.450
 6604SOL    HW120564   3.752   2.842   5.504
 6604SOL    HW220565   3.914   2.845   5.492
 6605SOL     OW20566   4.396   2.065   5.213
 6605SOL    HW120567   4.486   2.049   5.173
 6605SOL    HW220568   4.404   2.070   5.312
 6606SOL     OW20569   3.799   2.207   3.757
 6606SOL    HW120570   3.707   2.179   3.728
 6606SOL    HW220571   3.830   2.284   3.701
 6607SOL     OW20572   3.796   2.028   4.042
 6607SOL    HW120573   3.779   2.111   3.988
 6607SOL    HW220574   3.886   1.991   4.020
 6608SOL     OW20575   4.337   2.704   5.155
 6608SOL    HW120576   4.393   2.785   5.138
 6608SOL    HW220577   4.396   2.624   5.158
 6609SOL     OW20578   4.440   2.427   5.432
 6609SOL    HW120579   4.459   2.492   5.506
 6609SOL    HW220580   4.500   2.347   5.441
 6610SOL     OW20581   4.114   3.603   5.284
 6610SOL    HW120582   4.023   3.644   5.282
 6610SOL    HW220583   4.107   3.509   5.316
 6611SOL     OW20584   4.318   2.607   4.376
 6611SOL    HW120585   4.368   2.692   4.357
 6611SOL    HW220586   4.230   2.609   4.328
 6612SOL     OW20587   3.945   3.176   5.568
 6612SOL    HW120588   3.880   3.103   5.547
 6612SOL    HW220589   3.949   3.190   5.666
 6613SOL     OW20590   3.803   3.102   4.377
 6613SOL    HW120591   3.802   3.055   4.465
 6613SOL    HW220592   3.885   3.074   4.326
 6614SOL     OW20593   4.396   3.253   5.348
 6614SOL    HW120594   4.318   3.203   5.386
 6614SOL    HW220595   4.393   3.348   5.379
 6615SOL     OW20596   4.152   2.286   4.244
 6615SOL    HW120597   4.182   2.214   4.182
 6615SOL    HW220598   4.113   2.246   4.327
 6616SOL     OW20599   4.041   2.409   5.004
 6616SOL    HW120600   4.079   2.350   5.076
 6616SOL    HW220601   4.081   2.383   4.916
 6617SOL     OW20602   4.536   3.448   4.411
 6617SOL    HW120603   4.568   3.458   4.317
 6617SOL    HW220604   4.457   3.386   4.413
 6618SOL     OW20605   3.763   2.939   4.024
 6618SOL    HW120606   3.862   2.928   4.015
 6618SOL    HW220607   3.723   2.853   4.056
 6619SOL     OW20608   3.954   2.490   5.699
 6619SOL    HW120609   3.861   2.488   5.736
 6619SOL    HW220610   3.955   2.451   5.607
 6620SOL     OW20611   3.949   2.137   6.582
 6620SOL    HW120612   3.984   2.120   6.674
 6620SOL    HW220613   3.861   2.092   6.570
 6621SOL     OW20614   3.743   2.230   6.233
 6621SOL    HW120615   3.661   2.273   6.272
 6621SOL    HW220616   3.715   2.157   6.170
 6622SOL     OW20617   4.293   3.137   6.751
 6622SOL    HW120618   4.200   3.130   6.714
 6622SOL    HW220619   4.304   3.226   6.795
 6623SOL     OW20620   4.574   2.660   7.409
 6623SOL    HW120621   4.570   2.736   7.474
 6623SOL    HW220622   4.596   2.696   7.318
 6624SOL     OW20623   4.409   2.874   6.251
 6624SOL    HW120624   4.478   2.858   6.321
 6624SOL    HW220625   4.336   2.931   6.289
 6625SOL     OW20626   4.410   3.023   7.389
 6625SOL    HW120627   4.470   3.102   7.403
 6625SOL    HW220628   4.324   3.054   7.348
 6626SOL     OW20629   4.059   3.297   6.647
 6626SOL    HW120630   3.981   3.266   6.594
 6626SOL    HW220631   4.117   3.355   6.590
 6627SOL     OW20632   4.162   2.254   7.085
 6627SOL    HW120633   4.244   2.198   7.094
 6627SOL    HW220634   4.081   2.196   7.089
 6628SOL     OW20635   3.955   3.575   6.069
 6628SOL    HW120636   3.989   3.652   6.123
 6628SOL    HW220637   3.999   3.575   5.979
 6629SOL     OW20638   3.954   3.296   6.124
 6629SOL    HW120639   3.928   3.392   6.124
 6629SOL    HW220640   3.883   3.242   6.169
 6630SOL     OW20641   3.964   2.953   6.472
 6630SOL    HW120642   3.978   2.869   6.524
 6630SOL    HW220643   3.909   3.017   6.527
 6631SOL     OW20644   4.344   3.648   7.025
 6631SOL    HW120645   4.252   3.631   7.060
 6631SOL    HW220646   4.372   3.740   7.051
 6632SOL     OW20647   4.330   2.826   5.709
 6632SOL    HW120648   4.337   2.910   5.655
 6632SOL    HW220649   4.376   2.839   5.797
 6633SOL     OW20650   3.846   2.505   6.149
 6633SOL    HW120651   3.801   2.417   6.166
 6633SOL    HW220652   3.845   2.559   6.233
 6634SOL     OW20653   3.751   3.458   5.703
 6634SOL    HW120654   3.732   3.362   5.724
 6634SOL    HW220655   3.718   3.516   5.778
 6635SOL     OW20656   3.837   2.599   7.183
 6635SOL    HW120657   3.925   2.586   7.228
 6635SOL    HW220658   3.824   2.696   7.161
 6636SOL     OW20659   4.337   3.227   6.312
 6636SOL    HW120660   4.288   3.140   6.321
 6636SOL    HW220661   4.314   3.270   6.225
 6637SOL     OW20662   4.533   1.866   6.088
 6637SOL    HW120663   4.573   1.957   6.079
 6637SOL    HW220664   4.433   1.874   6.094
 6638SOL     OW20665   3.921   2.838   6.850
 6638SOL    HW120666   4.010   2.793   6.836
 6638SOL    HW220667   3.848   2.773   6.831
 6639SOL     OW20668   4.041   2.113   7.387
 6639SOL    HW120669   4.112   2.184   7.393
 6639SOL    HW220670   3.953   2.152   7.415
 6640SOL     OW20671   4.322   2.591   5.856
 6640SOL    HW120672   4.346   2.660   5.788
 6640SOL    HW220673   4.244   2.624   5.910
 6641SOL     OW20674   3.800   2.673   6.375
 6641SOL    HW120675   3.899   2.661   6.384
 6641SOL    HW220676   3.776   2.768   6.396
 6642SOL     OW20677   3.854   3.683   7.157
 6642SOL    HW120678   3.844   3.668   7.256
 6642SOL    HW220679   3.768   3.719   7.121
 6643SOL     OW20680   4.274   2.058   6.471
 6643SOL    HW120681   4.269   2.053   6.571
 6643SOL    HW220682   4.276   2.154   6.442
 6644SOL     OW20683   4.075   3.663   6.439
 6644SOL    HW120684   4.125   3.577   6.445
 6644SOL    HW220685   4.140   3.740   6.436
 6645SOL     OW20686   4.045   2.805   5.828
 6645SOL    HW120687   4.127   2.844   5.786
 6645SOL    HW220688   4.018   2.723   5.779
 6646SOL     OW20689   4.185   3.128   7.313
 6646SOL    HW120690   4.135   3.129   7.227
 6646SOL    HW220691   4.122   3.110   7.389
 6647SOL     OW20692   3.926   2.147   7.084
 6647SOL    HW120693   3.846   2.207   7.071
 6647SOL    HW220694   3.916   2.098   7.170
 6648SOL     OW20695   4.188   3.605   5.909
 6648SOL    HW120696   4.221   3.644   5.995
 6648SOL    HW220697   4.264   3.598   5.844
 6649SOL     OW20698   3.973   3.647   6.827
 6649SOL    HW120699   4.030   3.582   6.877
 6649SOL    HW220700   3.957   3.614   6.734
 6650SOL     OW20701   4.106   2.562   6.066
 6650SOL    HW120702   4.151   2.472   6.063
 6650SOL    HW220703   4.012   2.551   6.099
 6651SOL     OW20704   4.338   1.984   5.703
 6651SOL    HW120705   4.436   1.962   5.710
 6651SOL    HW220706   4.307   1.967   5.610
 6652SOL     OW20707   4.527   3.264   6.510
 6652SOL    HW120708   4.617   3.278   6.468
 6652SOL    HW220709   4.456   3.266   6.439
 6653SOL     OW20710   4.263   1.926   6.098
 6653SOL    HW120711   4.182   1.927   6.156
 6653SOL    HW220712   4.266   2.009   6.043
 6654SOL     OW20713   4.021   1.897   5.757
 6654SOL    HW120714   4.070   1.981   5.736
 6654SOL    HW220715   4.083   1.832   5.802
 6655SOL     OW20716   4.800   2.545   7.050
 6655SOL    HW120717   4.720   2.484   7.053
 6655SOL    HW220718   4.881   2.492   7.026
 6656SOL     OW20719   4.183   3.014   6.327
 6656SOL    HW120720   4.112   2.987   6.392
 6656SOL    HW220721   4.157   2.986   6.234
 6657SOL     OW20722   3.802   2.418   6.972
 6657SOL    HW120723   3.894   2.417   6.931
 6657SOL    HW220724   3.796   2.492   7.039
 6658SOL     OW20725   4.285   2.084   6.733
 6658SOL    HW120726   4.323   2.000   6.770
 6658SOL    HW220727   4.197   2.103   6.777
 6659SOL     OW20728   4.212   3.247   5.760
 6659SOL    HW120729   4.125   3.232   5.807
 6659SOL    HW220730   4.195   3.273   5.665
 6660SOL     OW20731   4.251   2.118   5.914
 6660SOL    HW120732   4.278   2.059   5.839
 6660SOL    HW220733   4.251   2.213   5.883
 6661SOL     OW20734   4.134   2.675   6.837
 6661SOL    HW120735   4.220   2.687   6.887
 6661SOL    HW220736   4.092   2.588   6.864
 6662SOL     OW20737   3.788   3.426   6.917
 6662SOL    HW120738   3.742   3.508   6.883
 6662SOL    HW220739   3.886   3.445   6.926
 6663SOL     OW20740   4.091   2.962   6.087
 6663SOL    HW120741   4.084   3.045   6.031
 6663SOL    HW220742   4.095   2.882   6.027
 6664SOL     OW20743   4.290   2.399   6.451
 6664SOL    HW120744   4.302   2.465   6.377
 6664SOL    HW220745   4.336   2.433   6.534
 6665SOL     OW20746   4.078   3.372   6.915
 6665SOL    HW120747   4.057   3.328   6.828
 6665SOL    HW220748   4.175   3.398   6.918
 6666SOL     OW20749   4.126   2.613   7.184
 6666SOL    HW120750   4.194   2.668   7.137
 6666SOL    HW220751   4.166   2.525   7.211
 6667SOL     OW20752   4.228   1.912   7.326
 6667SOL    HW120753   4.186   1.855   7.256
 6667SOL    HW220754   4.162   1.981   7.358
 6668SOL     OW20755   4.297   2.732   6.615
 6668SOL    HW120756   4.341   2.821   6.606
 6668SOL    HW220757   4.234   2.732   6.692
 6669SOL     OW20758   4.031   2.075   6.817
 6669SOL    HW120759   4.008   2.112   6.907
 6669SOL    HW220760   4.001   1.980   6.811
 6670SOL     OW20761   3.761   3.172   6.868
 6670SOL    HW120762   3.814   3.123   6.936
 6670SOL    HW220763   3.783   3.270   6.873
 6671SOL     OW20764   4.031   1.925   6.204
 6671SOL    HW120765   4.020   2.019   6.237
 6671SOL    HW220766   4.026   1.862   6.281
 6672SOL     OW20767   4.074   2.760   7.390
 6672SOL    HW120768   4.150   2.804   7.438
 6672SOL    HW220769   4.109   2.713   7.308
 6673SOL     OW20770   4.043   2.672   6.535
 6673SOL    HW120771   4.136   2.708   6.540
 6673SOL    HW220772   4.037   2.587   6.587
 6674SOL     OW20773   4.063   2.371   6.592
 6674SOL    HW120774   4.011   2.288   6.575
 6674SOL    HW220775   4.140   2.376   6.528
 6675SOL     OW20776   3.732   3.188   5.786
 6675SOL    HW120777   3.639   3.209   5.755
 6675SOL    HW220778   3.742   3.089   5.799
 6676SOL     OW20779   3.812   3.663   6.513
 6676SOL    HW120780   3.770   3.577   6.486
 6676SOL    HW220781   3.906   3.666   6.479
 6677SOL     OW20782   4.228   3.430   6.496
 6677SOL    HW120783   4.294   3.504   6.505
 6677SOL    HW220784   4.272   3.351   6.454
 6678SOL     OW20785   3.764   2.406   6.700
 6678SOL    HW120786   3.849   2.373   6.659
 6678SOL    HW220787   3.777   2.421   6.798
 6679SOL     OW20788   3.913   2.382   7.308
 6679SOL    HW120789   3.972   2.342   7.238
 6679SOL    HW220790   3.855   2.453   7.267
 6680SOL     OW20791   4.539   2.434   5.911
 6680SOL    HW120792   4.546   2.345   5.865
 6680SOL    HW220793   4.445   2.468   5.903
 6681SOL     OW20794   3.976   3.426   7.330
 6681SOL    HW120795   3.946   3.483   7.406
 6681SOL    HW220796   3.969   3.329   7.356
 6682SOL     OW20797   4.197   2.362   5.777
 6682SOL    HW120798   4.258   2.442   5.781
 6682SOL    HW220799   4.102   2.393   5.784
 6683SOL     OW20800   3.883   2.999   7.052
 6683SOL    HW120801   3.905   2.938   7.128
 6683SOL    HW220802   3.893   2.950   6.966
 6684SOL     OW20803   3.807   3.120   6.608
 6684SOL    HW120804   3.802   3.119   6.708
 6684SOL    HW220805   3.724   3.079   6.570
 6685SOL     OW20806   4.412   3.524   7.302
 6685SOL    HW120807   4.356   3.605   7.311
 6685SOL    HW220808   4.464   3.528   7.216
 6686SOL     OW20809   3.854   3.656   7.437
 6686SOL    HW120810   3.813   3.582   7.490
 6686SOL    HW220811   3.918   3.707   7.495
 6687SOL     OW20812   3.987   2.188   6.306
 6687SOL    HW120813   3.908   2.239   6.272
 6687SOL    HW220814   3.978   2.173   6.404
 6688SOL     OW20815   4.096   3.150   7.076
 6688SOL    HW120816   4.083   3.243   7.042
 6688SOL    HW220817   4.012   3.098   7.063
 6689SOL     OW20818   4.314   3.349   6.077
 6689SOL    HW120819   4.356   3.291   6.007
 6689SOL    HW220820   4.270   3.428   6.033
 6690SOL     OW20821   3.979   3.210   5.876
 6690SOL    HW120822   3.883   3.211   5.849
 6690SOL    HW220823   3.991   3.263   5.960
 6691SOL     OW20824   3.829   2.875   7.312
 6691SOL    HW120825   3.752   2.842   7.366
 6691SOL    HW220826   3.914   2.845   7.354
 6692SOL     OW20827   4.396   2.065   7.075
 6692SOL    HW120828   4.486   2.049   7.035
 6692SOL    HW220829   4.404   2.070   7.174
 6693SOL     OW20830   3.799   2.207   5.619
 6693SOL    HW120831   3.707   2.179   5.590
 6693SOL    HW220832   3.830   2.284   5.563
 6694SOL     OW20833   3.796   2.028   5.904
 6694SOL    HW120834   3.779   2.111   5.850
 6694SOL    HW220835   3.886   1.991   5.882
 6695SOL     OW20836   4.337   2.704   7.017
 6695SOL    HW120837   4.393   2.785   7.000
 6695SOL    HW220838   4.396   2.624   7.020
 6696SOL     OW20839   4.440   2.427   7.294
 6696SOL    HW120840   4.459   2.492   7.368
 6696SOL    HW220841   4.500   2.347   7.303
 6697SOL     OW20842   4.114   3.603   7.146
 6697SOL    HW120843   4.023   3.644   7.144
 6697SOL    HW220844   4.107   3.509   7.178
 6698SOL     OW20845   4.318   2.607   6.238
 6698SOL    HW120846   4.368   2.692   6.219
 6698SOL    HW220847   4.230   2.609   6.190
 6699SOL     OW20848   3.945   3.176   7.430
 6699SOL    HW120849   3.880   3.103   7.409
 6699SOL    HW220850   3.949   3.190   7.528
 6700SOL     OW20851   3.803   3.102   6.239
 6700SOL    HW120852   3.802   3.055   6.327
 6700SOL    HW220853   3.885   3.074   6.188
 6701SOL     OW20854   4.396   3.253   7.210
 6701SOL    HW120855   4.318   3.203   7.248
 6701SOL    HW220856   4.393   3.348   7.241
 6702SOL     OW20857   4.152   2.286   6.106
 6702SOL    HW120858   4.182   2.214   6.044
 6702SOL    HW220859   4.113   2.246   6.189
 6703SOL     OW20860   4.041   2.409   6.866
 6703SOL    HW120861   4.079   2.350   6.938
 6703SOL    HW220862   4.081   2.383   6.778
 6704SOL     OW20863   4.536   3.448   6.273
 6704SOL    HW120864   4.568   3.458   6.179
 6704SOL    HW220865   4.457   3.386   6.275
 6705SOL     OW20866   3.763   2.939   5.886
 6705SOL    HW120867   3.862   2.928   5.877
 6705SOL    HW220868   3.723   2.853   5.918
 6706SOL     OW20869   3.954   2.490   7.561
 6706SOL    HW120870   3.861   2.488   7.598
 6706SOL    HW220871   3.955   2.451   7.469
 6707SOL     OW20872   3.949   2.137   8.444
 6707SOL    HW120873   3.984   2.120   8.536
 6707SOL    HW220874   3.861   2.092   8.432
 6708SOL     OW20875   3.743   2.230   8.095
 6708SOL    HW120876   3.661   2.273   8.134
 6708SOL    HW220877   3.715   2.157   8.032
 6709SOL     OW20878   4.293   3.137   8.613
 6709SOL    HW120879   4.200   3.130   8.576
 6709SOL    HW220880   4.304   3.226   8.657
 6710SOL     OW20881   4.574   2.660   9.271
 6710SOL    HW120882   4.570   2.736   9.336
 6710SOL    HW220883   4.596   2.696   9.180
 6711SOL     OW20884   4.409   2.874   8.113
 6711SOL    HW120885   4.478   2.858   8.183
 6711SOL    HW220886   4.336   2.931   8.151
 6712SOL     OW20887   4.410   3.023   9.251
 6712SOL    HW120888   4.470   3.102   9.265
 6712SOL    HW220889   4.324   3.054   9.210
 6713SOL     OW20890   4.059   3.297   8.509
 6713SOL    HW120891   3.981   3.266   8.456
 6713SOL    HW220892   4.117   3.355   8.452
 6714SOL     OW20893   4.162   2.254   8.947
 6714SOL    HW120894   4.244   2.198   8.956
 6714SOL    HW220895   4.081   2.196   8.951
 6715SOL     OW20896   3.955   3.575   7.931
 6715SOL    HW120897   3.989   3.652   7.985
 6715SOL    HW220898   3.999   3.575   7.841
 6716SOL     OW20899   3.954   3.296   7.986
 6716SOL    HW120900   3.928   3.392   7.986
 6716SOL    HW220901   3.883   3.242   8.031
 6717SOL     OW20902   3.964   2.953   8.334
 6717SOL    HW120903   3.978   2.869   8.386
 6717SOL    HW220904   3.909   3.017   8.389
 6718SOL     OW20905   4.344   3.648   8.887
 6718SOL    HW120906   4.252   3.631   8.922
 6718SOL    HW220907   4.372   3.740   8.913
 6719SOL     OW20908   4.330   2.826   7.571
 6719SOL    HW120909   4.337   2.910   7.517
 6719SOL    HW220910   4.376   2.839   7.659
 6720SOL     OW20911   3.846   2.505   8.011
 6720SOL    HW120912   3.801   2.417   8.028
 6720SOL    HW220913   3.845   2.559   8.095
 6721SOL     OW20914   3.751   3.458   7.565
 6721SOL    HW120915   3.732   3.362   7.586
 6721SOL    HW220916   3.718   3.516   7.640
 6722SOL     OW20917   3.837   2.599   9.045
 6722SOL    HW120918   3.925   2.586   9.090
 6722SOL    HW220919   3.824   2.696   9.023
 6723SOL     OW20920   4.337   3.227   8.174
 6723SOL    HW120921   4.288   3.140   8.183
 6723SOL    HW220922   4.314   3.270   8.087
 6724SOL     OW20923   4.533   1.866   7.950
 6724SOL    HW120924   4.573   1.957   7.941
 6724SOL    HW220925   4.433   1.874   7.956
 6725SOL     OW20926   3.921   2.838   8.712
 6725SOL    HW120927   4.010   2.793   8.698
 6725SOL    HW220928   3.848   2.773   8.693
 6726SOL     OW20929   4.041   2.113   9.249
 6726SOL    HW120930   4.112   2.184   9.255
 6726SOL    HW220931   3.953   2.152   9.277
 6727SOL     OW20932   4.322   2.591   7.718
 6727SOL    HW120933   4.346   2.660   7.650
 6727SOL    HW220934   4.244   2.624   7.772
 6728SOL     OW20935   3.800   2.673   8.237
 6728SOL    HW120936   3.899   2.661   8.246
 6728SOL    HW220937   3.776   2.768   8.258
 6729SOL     OW20938   3.854   3.683   9.019
 6729SOL    HW120939   3.844   3.668   9.118
 6729SOL    HW220940   3.768   3.719   8.983
 6730SOL     OW20941   4.274   2.058   8.333
 6730SOL    HW120942   4.269   2.053   8.433
 6730SOL    HW220943   4.276   2.154   8.304
 6731SOL     OW20944   4.075   3.663   8.301
 6731SOL    HW120945   4.125   3.577   8.307
 6731SOL    HW220946   4.140   3.740   8.298
 6732SOL     OW20947   4.045   2.805   7.690
 6732SOL    HW120948   4.127   2.844   7.648
 6732SOL    HW220949   4.018   2.723   7.641
 6733SOL     OW20950   4.185   3.128   9.175
 6733SOL    HW120951   4.135   3.129   9.089
 6733SOL    HW220952   4.122   3.110   9.251
 6734SOL     OW20953   3.926   2.147   8.946
 6734SOL    HW120954   3.846   2.207   8.933
 6734SOL    HW220955   3.916   2.098   9.032
 6735SOL     OW20956   4.188   3.605   7.771
 6735SOL    HW120957   4.221   3.644   7.857
 6735SOL    HW220958   4.264   3.598   7.706
 6736SOL     OW20959   3.973   3.647   8.689
 6736SOL    HW120960   4.030   3.582   8.739
 6736SOL    HW220961   3.957   3.614   8.596
 6737SOL     OW20962   4.106   2.562   7.928
 6737SOL    HW120963   4.151   2.472   7.925
 6737SOL    HW220964   4.012   2.551   7.961
 6738SOL     OW20965   4.338   1.984   7.565
 6738SOL    HW120966   4.436   1.962   7.572
 6738SOL    HW220967   4.307   1.967   7.472
 6739SOL     OW20968   4.527   3.264   8.372
 6739SOL    HW120969   4.617   3.278   8.330
 6739SOL    HW220970   4.456   3.266   8.301
 6740SOL     OW20971   4.263   1.926   7.960
 6740SOL    HW120972   4.182   1.927   8.018
 6740SOL    HW220973   4.266   2.009   7.905
 6741SOL     OW20974   4.021   1.897   7.619
 6741SOL    HW120975   4.070   1.981   7.598
 6741SOL    HW220976   4.083   1.832   7.664
 6742SOL     OW20977   4.800   2.545   8.912
 6742SOL    HW120978   4.720   2.484   8.915
 6742SOL    HW220979   4.881   2.492   8.888
 6743SOL     OW20980   4.183   3.014   8.189
 6743SOL    HW120981   4.112   2.987   8.254
 6743SOL    HW220982   4.157   2.986   8.096
 6744SOL     OW20983   3.802   2.418   8.834
 6744SOL    HW120984   3.894   2.417   8.793
 6744SOL    HW220985   3.796   2.492   8.901
 6745SOL     OW20986   4.285   2.084   8.595
 6745SOL    HW120987   4.323   2.000   8.632
 6745SOL    HW220988   4.197   2.103   8.639
 6746SOL     OW20989   4.212   3.247   7.622
 6746SOL    HW120990   4.125   3.232   7.669
 6746SOL    HW220991   4.195   3.273   7.527
 6747SOL     OW20992   4.251   2.118   7.776
 6747SOL    HW120993   4.278   2.059   7.701
 6747SOL    HW220994   4.251   2.213   7.745
 6748SOL     OW20995   4.134   2.675   8.699
 6748SOL    HW120996   4.220   2.687   8.749
 6748SOL    HW220997   4.092   2.588   8.726
 6749SOL     OW20998   3.788   3.426   8.779
 6749SOL    HW120999   3.742   3.508   8.745
 6749SOL    HW221000   3.886   3.445   8.788
 6750SOL     OW21001   4.091   2.962   7.949
 6750SOL    HW121002   4.084   3.045   7.893
 6750SOL    HW221003   4.095   2.882   7.889
 6751SOL     OW21004   4.290   2.399   8.313
 6751SOL    HW121005   4.302   2.465   8.239
 6751SOL    HW221006   4.336   2.433   8.396
 6752SOL     OW21007   4.078   3.372   8.777
 6752SOL    HW121008   4.057   3.328   8.690
 6752SOL    HW221009   4.175   3.398   8.780
 6753SOL     OW21010   4.126   2.613   9.046
 6753SOL    HW121011   4.194   2.668   8.999
 6753SOL    HW221012   4.166   2.525   9.073
 6754SOL     OW21013   4.228   1.912   9.188
 6754SOL    HW121014   4.186   1.855   9.118
 6754SOL    HW221015   4.162   1.981   9.220
 6755SOL     OW21016   4.297   2.732   8.477
 6755SOL    HW121017   4.341   2.821   8.468
 6755SOL    HW221018   4.234   2.732   8.554
 6756SOL     OW21019   4.031   2.075   8.679
 6756SOL    HW121020   4.008   2.112   8.769
 6756SOL    HW221021   4.001   1.980   8.673
 6757SOL     OW21022   3.761   3.172   8.730
 6757SOL    HW121023   3.814   3.123   8.798
 6757SOL    HW221024   3.783   3.270   8.735
 6758SOL     OW21025   4.031   1.925   8.066
 6758SOL    HW121026   4.020   2.019   8.099
 6758SOL    HW221027   4.026   1.862   8.143
 6759SOL     OW21028   4.074   2.760   9.252
 6759SOL    HW121029   4.150   2.804   9.300
 6759SOL    HW221030   4.109   2.713   9.170
 6760SOL     OW21031   4.043   2.672   8.397
 6760SOL    HW121032   4.136   2.708   8.402
 6760SOL    HW221033   4.037   2.587   8.449
 6761SOL     OW21034   4.063   2.371   8.454
 6761SOL    HW121035   4.011   2.288   8.437
 6761SOL    HW221036   4.140   2.376   8.390
 6762SOL     OW21037   3.732   3.188   7.648
 6762SOL    HW121038   3.639   3.209   7.617
 6762SOL    HW221039   3.742   3.089   7.661
 6763SOL     OW21040   3.812   3.663   8.375
 6763SOL    HW121041   3.770   3.577   8.348
 6763SOL    HW221042   3.906   3.666   8.341
 6764SOL     OW21043   4.228   3.430   8.358
 6764SOL    HW121044   4.294   3.504   8.367
 6764SOL    HW221045   4.272   3.351   8.316
 6765SOL     OW21046   3.764   2.406   8.562
 6765SOL    HW121047   3.849   2.373   8.521
 6765SOL    HW221048   3.777   2.421   8.660
 6766SOL     OW21049   3.913   2.382   9.170
 6766SOL    HW121050   3.972   2.342   9.100
 6766SOL    HW221051   3.855   2.453   9.129
 6767SOL     OW21052   4.539   2.434   7.773
 6767SOL    HW121053   4.546   2.345   7.727
 6767SOL    HW221054   4.445   2.468   7.765
 6768SOL     OW21055   3.976   3.426   9.192
 6768SOL    HW121056   3.946   3.483   9.268
 6768SOL    HW221057   3.969   3.329   9.218
 6769SOL     OW21058   4.197   2.362   7.639
 6769SOL    HW121059   4.258   2.442   7.643
 6769SOL    HW221060   4.102   2.393   7.646
 6770SOL     OW21061   3.883   2.999   8.914
 6770SOL    HW121062   3.905   2.938   8.990
 6770SOL    HW221063   3.893   2.950   8.828
 6771SOL     OW21064   3.807   3.120   8.470
 6771SOL    HW121065   3.802   3.119   8.570
 6771SOL    HW221066   3.724   3.079   8.432
 6772SOL     OW21067   4.412   3.524   9.164
 6772SOL    HW121068   4.356   3.605   9.173
 6772SOL    HW221069   4.464   3.528   9.078
 6773SOL     OW21070   3.854   3.656   9.299
 6773SOL    HW121071   3.813   3.582   9.352
 6773SOL    HW221072   3.918   3.707   9.357
 6774SOL     OW21073   3.987   2.188   8.168
 6774SOL    HW121074   3.908   2.239   8.134
 6774SOL    HW221075   3.978   2.173   8.266
 6775SOL     OW21076   4.096   3.150   8.938
 6775SOL    HW121077   4.083   3.243   8.904
 6775SOL    HW221078   4.012   3.098   8.925
 6776SOL     OW21079   4.314   3.349   7.939
 6776SOL    HW121080   4.356   3.291   7.869
 6776SOL    HW221081   4.270   3.428   7.895
 6777SOL     OW21082   3.979   3.210   7.738
 6777SOL    HW121083   3.883   3.211   7.711
 6777SOL    HW221084   3.991   3.263   7.822
 6778SOL     OW21085   3.829   2.875   9.174
 6778SOL    HW121086   3.752   2.842   9.228
 6778SOL    HW221087   3.914   2.845   9.216
 6779SOL     OW21088   4.396   2.065   8.937
 6779SOL    HW121089   4.486   2.049   8.897
 6779SOL    HW221090   4.404   2.070   9.036
 6780SOL     OW21091   3.799   2.207   7.481
 6780SOL    HW121092   3.707   2.179   7.452
 6780SOL    HW221093   3.830   2.284   7.425
 6781SOL     OW21094   3.796   2.028   7.766
 6781SOL    HW121095   3.779   2.111   7.712
 6781SOL    HW221096   3.886   1.991   7.744
 6782SOL     OW21097   4.337   2.704   8.879
 6782SOL    HW121098   4.393   2.785   8.862
 6782SOL    HW221099   4.396   2.624   8.882
 6783SOL     OW21100   4.440   2.427   9.156
 6783SOL    HW121101   4.459   2.492   9.230
 6783SOL    HW221102   4.500   2.347   9.165
 6784SOL     OW21103   4.114   3.603   9.008
 6784SOL    HW121104   4.023   3.644   9.006
 6784SOL    HW221105   4.107   3.509   9.040
 6785SOL     OW21106   4.318   2.607   8.100
 6785SOL    HW121107   4.368   2.692   8.081
 6785SOL    HW221108   4.230   2.609   8.052
 6786SOL     OW21109   3.945   3.176   9.292
 6786SOL    HW121110   3.880   3.103   9.271
 6786SOL    HW221111   3.949   3.190   9.390
 6787SOL     OW21112   3.803   3.102   8.101
 6787SOL    HW121113   3.802   3.055   8.189
 6787SOL    HW221114   3.885   3.074   8.050
 6788SOL     OW21115   4.396   3.253   9.072
 6788SOL    HW121116   4.318   3.203   9.110
 6788SOL    HW221117   4.393   3.348   9.103
 6789SOL     OW21118   4.152   2.286   7.968
 6789SOL    HW121119   4.182   2.214   7.906
 6789SOL    HW221120   4.113   2.246   8.051
 6790SOL     OW21121   4.041   2.409   8.728
 6790SOL    HW121122   4.079   2.350   8.800
 6790SOL    HW221123   4.081   2.383   8.640
 6791SOL     OW21124   4.536   3.448   8.135
 6791SOL    HW121125   4.568   3.458   8.041
 6791SOL    HW221126   4.457   3.386   8.137
 6792SOL     OW21127   3.763   2.939   7.748
 6792SOL    HW121128   3.862   2.928   7.739
 6792SOL    HW221129   3.723   2.853   7.780
 6793SOL     OW21130   3.954   2.490   9.423
 6793SOL    HW121131   3.861   2.488   9.460
 6793SOL    HW221132   3.955   2.451   9.331
 6794SOL     OW21133   3.949   2.137  10.306
 6794SOL    HW121134   3.984   2.120  10.398
 6794SOL    HW221135   3.861   2.092  10.294
 6795SOL     OW21136   3.743   2.230   9.957
 6795SOL    HW121137   3.661   2.273   9.996
 6795SOL    HW221138   3.715   2.157   9.894
 6796SOL     OW21139   4.293   3.137  10.475
 6796SOL    HW121140   4.200   3.130  10.438
 6796SOL    HW221141   4.304   3.226  10.519
 6797SOL     OW21142   4.574   2.660  11.133
 6797SOL    HW121143   4.570   2.736  11.198
 6797SOL    HW221144   4.596   2.696  11.042
 6798SOL     OW21145   4.409   2.874   9.975
 6798SOL    HW121146   4.478   2.858  10.045
 6798SOL    HW221147   4.336   2.931  10.013
 6799SOL     OW21148   4.059   3.297  10.371
 6799SOL    HW121149   3.981   3.266  10.318
 6799SOL    HW221150   4.117   3.355  10.314
 6800SOL     OW21151   4.162   2.254  10.809
 6800SOL    HW121152   4.244   2.198  10.818
 6800SOL    HW221153   4.081   2.196  10.813
 6801SOL     OW21154   3.955   3.575   9.793
 6801SOL    HW121155   3.989   3.652   9.847
 6801SOL    HW221156   3.999   3.575   9.703
 6802SOL     OW21157   3.954   3.296   9.848
 6802SOL    HW121158   3.928   3.392   9.848
 6802SOL    HW221159   3.883   3.242   9.893
 6803SOL     OW21160   3.964   2.953  10.196
 6803SOL    HW121161   3.978   2.869  10.248
 6803SOL    HW221162   3.909   3.017  10.251
 6804SOL     OW21163   4.344   3.648  10.749
 6804SOL    HW121164   4.252   3.631  10.784
 6804SOL    HW221165   4.372   3.740  10.775
 6805SOL     OW21166   4.330   2.826   9.433
 6805SOL    HW121167   4.337   2.910   9.379
 6805SOL    HW221168   4.376   2.839   9.521
 6806SOL     OW21169   3.846   2.505   9.873
 6806SOL    HW121170   3.801   2.417   9.890
 6806SOL    HW221171   3.845   2.559   9.957
 6807SOL     OW21172   3.751   3.458   9.427
 6807SOL    HW121173   3.732   3.362   9.448
 6807SOL    HW221174   3.718   3.516   9.502
 6808SOL     OW21175   3.837   2.599  10.907
 6808SOL    HW121176   3.925   2.586  10.952
 6808SOL    HW221177   3.824   2.696  10.885
 6809SOL     OW21178   4.337   3.227  10.036
 6809SOL    HW121179   4.288   3.140  10.045
 6809SOL    HW221180   4.314   3.270   9.949
 6810SOL     OW21181   4.533   1.866   9.812
 6810SOL    HW121182   4.573   1.957   9.803
 6810SOL    HW221183   4.433   1.874   9.818
 6811SOL     OW21184   3.921   2.838  10.574
 6811SOL    HW121185   4.010   2.793  10.560
 6811SOL    HW221186   3.848   2.773  10.555
 6812SOL     OW21187   4.041   2.113  11.111
 6812SOL    HW121188   4.112   2.184  11.117
 6812SOL    HW221189   3.953   2.152  11.139
 6813SOL     OW21190   4.322   2.591   9.580
 6813SOL    HW121191   4.346   2.660   9.512
 6813SOL    HW221192   4.244   2.624   9.634
 6814SOL     OW21193   3.800   2.673  10.099
 6814SOL    HW121194   3.899   2.661  10.108
 6814SOL    HW221195   3.776   2.768  10.120
 6815SOL     OW21196   3.854   3.683  10.881
 6815SOL    HW121197   3.844   3.668  10.980
 6815SOL    HW221198   3.768   3.719  10.845
 6816SOL     OW21199   4.274   2.058  10.195
 6816SOL    HW121200   4.269   2.053  10.295
 6816SOL    HW221201   4.276   2.154  10.166
 6817SOL     OW21202   4.075   3.663  10.163
 6817SOL    HW121203   4.125   3.577  10.169
 6817SOL    HW221204   4.140   3.740  10.160
 6818SOL     OW21205   4.045   2.805   9.552
 6818SOL    HW121206   4.127   2.844   9.510
 6818SOL    HW221207   4.018   2.723   9.503
 6819SOL     OW21208   4.185   3.128  11.037
 6819SOL    HW121209   4.135   3.129  10.951
 6819SOL    HW221210   4.122   3.110  11.113
 6820SOL     OW21211   3.926   2.147  10.808
 6820SOL    HW121212   3.846   2.207  10.795
 6820SOL    HW221213   3.916   2.098  10.894
 6821SOL     OW21214   4.188   3.605   9.633
 6821SOL    HW121215   4.221   3.644   9.719
 6821SOL    HW221216   4.264   3.598   9.568
 6822SOL     OW21217   3.973   3.647  10.551
 6822SOL    HW121218   4.030   3.582  10.601
 6822SOL    HW221219   3.957   3.614  10.458
 6823SOL     OW21220   4.106   2.562   9.790
 6823SOL    HW121221   4.151   2.472   9.787
 6823SOL    HW221222   4.012   2.551   9.823
 6824SOL     OW21223   4.338   1.984   9.427
 6824SOL    HW121224   4.436   1.962   9.434
 6824SOL    HW221225   4.307   1.967   9.334
 6825SOL     OW21226   4.527   3.264  10.234
 6825SOL    HW121227   4.617   3.278  10.192
 6825SOL    HW221228   4.456   3.266  10.163
 6826SOL     OW21229   4.263   1.926   9.822
 6826SOL    HW121230   4.182   1.927   9.880
 6826SOL    HW221231   4.266   2.009   9.767
 6827SOL     OW21232   4.021   1.897   9.481
 6827SOL    HW121233   4.070   1.981   9.460
 6827SOL    HW221234   4.083   1.832   9.526
 6828SOL     OW21235   4.800   2.545  10.774
 6828SOL    HW121236   4.720   2.484  10.777
 6828SOL    HW221237   4.881   2.492  10.750
 6829SOL     OW21238   4.183   3.014  10.051
 6829SOL    HW121239   4.112   2.987  10.116
 6829SOL    HW221240   4.157   2.986   9.958
 6830SOL     OW21241   3.802   2.418  10.696
 6830SOL    HW121242   3.894   2.417  10.655
 6830SOL    HW221243   3.796   2.492  10.763
 6831SOL     OW21244   4.285   2.084  10.457
 6831SOL    HW121245   4.323   2.000  10.494
 6831SOL    HW221246   4.197   2.103  10.501
 6832SOL     OW21247   4.212   3.247   9.484
 6832SOL    HW121248   4.125   3.232   9.531
 6832SOL    HW221249   4.195   3.273   9.389
 6833SOL     OW21250   4.251   2.118   9.638
 6833SOL    HW121251   4.278   2.059   9.563
 6833SOL    HW221252   4.251   2.213   9.607
 6834SOL     OW21253   4.134   2.675  10.561
 6834SOL    HW121254   4.220   2.687  10.611
 6834SOL    HW221255   4.092   2.588  10.588
 6835SOL     OW21256   3.788   3.426  10.641
 6835SOL    HW121257   3.742   3.508  10.607
 6835SOL    HW221258   3.886   3.445  10.650
 6836SOL     OW21259   4.091   2.962   9.811
 6836SOL    HW121260   4.084   3.045   9.755
 6836SOL    HW221261   4.095   2.882   9.751
 6837SOL     OW21262   4.290   2.399  10.175
 6837SOL    HW121263   4.302   2.465  10.101
 6837SOL    HW221264   4.336   2.433  10.258
 6838SOL     OW21265   4.078   3.372  10.639
 6838SOL    HW121266   4.057   3.328  10.552
 6838SOL    HW221267   4.175   3.398  10.642
 6839SOL     OW21268   4.126   2.613  10.908
 6839SOL    HW121269   4.194   2.668  10.861
 6839SOL    HW221270   4.166   2.525  10.935
 6840SOL     OW21271   4.297   2.732  10.339
 6840SOL    HW121272   4.341   2.821  10.330
 6840SOL    HW221273   4.234   2.732  10.416
 6841SOL     OW21274   4.031   2.075  10.541
 6841SOL    HW121275   4.008   2.112  10.631
 6841SOL    HW221276   4.001   1.980  10.535
 6842SOL     OW21277   3.761   3.172  10.592
 6842SOL    HW121278   3.814   3.123  10.660
 6842SOL    HW221279   3.783   3.270  10.597
 6843SOL     OW21280   4.031   1.925   9.928
 6843SOL    HW121281   4.020   2.019   9.961
 6843SOL    HW221282   4.026   1.862  10.005
 6844SOL     OW21283   4.074   2.760  11.114
 6844SOL    HW121284   4.150   2.804  11.162
 6844SOL    HW221285   4.109   2.713  11.032
 6845SOL     OW21286   4.043   2.672  10.259
 6845SOL    HW121287   4.136   2.708  10.264
 6845SOL    HW221288   4.037   2.587  10.311
 6846SOL     OW21289   4.063   2.371  10.316
 6846SOL    HW121290   4.011   2.288  10.299
 6846SOL    HW221291   4.140   2.376  10.252
 6847SOL     OW21292   3.732   3.188   9.510
 6847SOL    HW121293   3.639   3.209   9.479
 6847SOL    HW221294   3.742   3.089   9.523
 6848SOL     OW21295   3.812   3.663  10.237
 6848SOL    HW121296   3.770   3.577  10.210
 6848SOL    HW221297   3.906   3.666  10.203
 6849SOL     OW21298   4.228   3.430  10.220
 6849SOL    HW121299   4.294   3.504  10.229
 6849SOL    HW221300   4.272   3.351  10.178
 6850SOL     OW21301   3.764   2.406  10.424
 6850SOL    HW121302   3.849   2.373  10.383
 6850SOL    HW221303   3.777   2.421  10.522
 6851SOL     OW21304   4.539   2.434   9.635
 6851SOL    HW121305   4.546   2.345   9.589
 6851SOL    HW221306   4.445   2.468   9.627
 6852SOL     OW21307   3.976   3.426  11.054
 6852SOL    HW121308   3.946   3.483  11.130
 6852SOL    HW221309   3.969   3.329  11.080
 6853SOL     OW21310   4.197   2.362   9.501
 6853SOL    HW121311   4.258   2.442   9.505
 6853SOL    HW221312   4.102   2.393   9.508
 6854SOL     OW21313   3.883   2.999  10.776
 6854SOL    HW121314   3.905   2.938  10.852
 6854SOL    HW221315   3.893   2.950  10.690
 6855SOL     OW21316   3.807   3.120  10.332
 6855SOL    HW121317   3.802   3.119  10.432
 6855SOL    HW221318   3.724   3.079  10.294
 6856SOL     OW21319   4.412   3.524  11.026
 6856SOL    HW121320   4.356   3.605  11.035
 6856SOL    HW221321   4.464   3.528  10.940
 6857SOL     OW21322   3.987   2.188  10.030
 6857SOL    HW121323   3.908   2.239   9.996
 6857SOL    HW221324   3.978   2.173  10.128
 6858SOL     OW21325   4.096   3.150  10.800
 6858SOL    HW121326   4.083   3.243  10.766
 6858SOL    HW221327   4.012   3.098  10.787
 6859SOL     OW21328   4.314   3.349   9.801
 6859SOL    HW121329   4.356   3.291   9.731
 6859SOL    HW221330   4.270   3.428   9.757
 6860SOL     OW21331   3.979   3.210   9.600
 6860SOL    HW121332   3.883   3.211   9.573
 6860SOL    HW221333   3.991   3.263   9.684
 6861SOL     OW21334   3.829   2.875  11.036
 6861SOL    HW121335   3.752   2.842  11.090
 6861SOL    HW221336   3.914   2.845  11.078
 6862SOL     OW21337   4.396   2.065  10.799
 6862SOL    HW121338   4.486   2.049  10.759
 6862SOL    HW221339   4.404   2.070  10.898
 6863SOL     OW21340   3.799   2.207   9.343
 6863SOL    HW121341   3.707   2.179   9.314
 6863SOL    HW221342   3.830   2.284   9.287
 6864SOL     OW21343   3.796   2.028   9.628
 6864SOL    HW121344   3.779   2.111   9.574
 6864SOL    HW221345   3.886   1.991   9.606
 6865SOL     OW21346   4.337   2.704  10.741
 6865SOL    HW121347   4.393   2.785  10.724
 6865SOL    HW221348   4.396   2.624  10.744
 6866SOL     OW21349   4.114   3.603  10.870
 6866SOL    HW121350   4.023   3.644  10.868
 6866SOL    HW221351   4.107   3.509  10.902
 6867SOL     OW21352   4.318   2.607   9.962
 6867SOL    HW121353   4.368   2.692   9.943
 6867SOL    HW221354   4.230   2.609   9.914
 6868SOL     OW21355   3.803   3.102   9.963
 6868SOL    HW121356   3.802   3.055  10.051
 6868SOL    HW221357   3.885   3.074   9.912
 6869SOL     OW21358   4.396   3.253  10.934
 6869SOL    HW121359   4.318   3.203  10.972
 6869SOL    HW221360   4.393   3.348  10.965
 6870SOL     OW21361   4.152   2.286   9.830
 6870SOL    HW121362   4.182   2.214   9.768
 6870SOL    HW221363   4.113   2.246   9.913
 6871SOL     OW21364   4.041   2.409  10.590
 6871SOL    HW121365   4.079   2.350  10.662
 6871SOL    HW221366   4.081   2.383  10.502
 6872SOL     OW21367   4.536   3.448   9.997
 6872SOL    HW121368   4.568   3.458   9.903
 6872SOL    HW221369   4.457   3.386   9.999
 6873SOL     OW21370   3.763   2.939   9.610
 6873SOL    HW121371   3.862   2.928   9.601
 6873SOL    HW221372   3.723   2.853   9.642
 6874SOL     OW21373   3.954   4.352   0.113
 6874SOL    HW121374   3.861   4.350   0.150
 6874SOL    HW221375   3.955   4.313   0.021
 6875SOL     OW21376   3.949   3.999   0.996
 6875SOL    HW121377   3.984   3.982   1.088
 6875SOL    HW221378   3.861   3.954   0.984
 6876SOL     OW21379   3.743   4.092   0.647
 6876SOL    HW121380   3.661   4.135   0.686
 6876SOL    HW221381   3.715   4.019   0.584
 6877SOL     OW21382   4.574   4.522   1.823
 6877SOL    HW121383   4.570   4.598   1.888
 6877SOL    HW221384   4.596   4.558   1.732
 6878SOL     OW21385   4.162   4.116   1.499
 6878SOL    HW121386   4.244   4.060   1.508
 6878SOL    HW221387   4.081   4.058   1.503
 6879SOL     OW21388   3.846   4.367   0.563
 6879SOL    HW121389   3.801   4.279   0.580
 6879SOL    HW221390   3.845   4.421   0.647
 6880SOL     OW21391   3.837   4.461   1.597
 6880SOL    HW121392   3.925   4.448   1.642
 6880SOL    HW221393   3.824   4.558   1.575
 6881SOL     OW21394   4.533   3.728   0.502
 6881SOL    HW121395   4.573   3.819   0.493
 6881SOL    HW221396   4.433   3.736   0.508
 6882SOL     OW21397   4.041   3.975   1.801
 6882SOL    HW121398   4.112   4.046   1.807
 6882SOL    HW221399   3.953   4.014   1.829
 6883SOL     OW21400   4.274   3.920   0.885
 6883SOL    HW121401   4.269   3.915   0.985
 6883SOL    HW221402   4.276   4.016   0.856
 6884SOL     OW21403   3.926   4.009   1.498
 6884SOL    HW121404   3.846   4.069   1.485
 6884SOL    HW221405   3.916   3.960   1.584
 6885SOL     OW21406   4.106   4.424   0.480
 6885SOL    HW121407   4.151   4.334   0.477
 6885SOL    HW221408   4.012   4.413   0.513
 6886SOL     OW21409   4.338   3.846   0.117
 6886SOL    HW121410   4.436   3.824   0.124
 6886SOL    HW221411   4.307   3.829   0.024
 6887SOL     OW21412   4.263   3.788   0.512
 6887SOL    HW121413   4.182   3.789   0.570
 6887SOL    HW221414   4.266   3.871   0.457
 6888SOL     OW21415   4.021   3.759   0.171
 6888SOL    HW121416   4.070   3.843   0.150
 6888SOL    HW221417   4.083   3.694   0.216
 6889SOL     OW21418   4.800   4.407   1.464
 6889SOL    HW121419   4.720   4.346   1.467
 6889SOL    HW221420   4.881   4.354   1.440
 6890SOL     OW21421   3.802   4.280   1.386
 6890SOL    HW121422   3.894   4.279   1.345
 6890SOL    HW221423   3.796   4.354   1.453
 6891SOL     OW21424   4.285   3.946   1.147
 6891SOL    HW121425   4.323   3.862   1.184
 6891SOL    HW221426   4.197   3.965   1.191
 6892SOL     OW21427   4.251   3.980   0.328
 6892SOL    HW121428   4.278   3.921   0.253
 6892SOL    HW221429   4.251   4.075   0.297
 6893SOL     OW21430   4.134   4.537   1.251
 6893SOL    HW121431   4.220   4.549   1.301
 6893SOL    HW221432   4.092   4.450   1.278
 6894SOL     OW21433   4.290   4.261   0.865
 6894SOL    HW121434   4.302   4.327   0.791
 6894SOL    HW221435   4.336   4.295   0.948
 6895SOL     OW21436   4.228   3.774   1.740
 6895SOL    HW121437   4.186   3.717   1.670
 6895SOL    HW221438   4.162   3.843   1.772
 6896SOL     OW21439   4.031   3.937   1.231
 6896SOL    HW121440   4.008   3.974   1.321
 6896SOL    HW221441   4.001   3.842   1.225
 6897SOL     OW21442   4.031   3.787   0.618
 6897SOL    HW121443   4.020   3.881   0.651
 6897SOL    HW221444   4.026   3.724   0.695
 6898SOL     OW21445   4.043   4.534   0.949
 6898SOL    HW121446   4.136   4.570   0.954
 6898SOL    HW221447   4.037   4.449   1.001
 6899SOL     OW21448   4.063   4.233   1.006
 6899SOL    HW121449   4.011   4.150   0.989
 6899SOL    HW221450   4.140   4.238   0.942
 6900SOL     OW21451   3.764   4.268   1.114
 6900SOL    HW121452   3.849   4.235   1.073
 6900SOL    HW221453   3.777   4.283   1.212
 6901SOL     OW21454   3.913   4.244   1.722
 6901SOL    HW121455   3.972   4.204   1.652
 6901SOL    HW221456   3.855   4.315   1.681
 6902SOL     OW21457   4.539   4.296   0.325
 6902SOL    HW121458   4.546   4.207   0.279
 6902SOL    HW221459   4.445   4.330   0.317
 6903SOL     OW21460   4.197   4.224   0.191
 6903SOL    HW121461   4.258   4.304   0.195
 6903SOL    HW221462   4.102   4.255   0.198
 6904SOL     OW21463   3.987   4.050   0.720
 6904SOL    HW121464   3.908   4.101   0.686
 6904SOL    HW221465   3.978   4.035   0.818
 6905SOL     OW21466   4.396   3.927   1.489
 6905SOL    HW121467   4.486   3.911   1.449
 6905SOL    HW221468   4.404   3.932   1.588
 6906SOL     OW21469   3.799   4.069   0.033
 6906SOL    HW121470   3.707   4.041   0.004
 6906SOL    HW221471   3.830   4.146  -0.023
 6907SOL     OW21472   3.796   3.890   0.318
 6907SOL    HW121473   3.779   3.973   0.264
 6907SOL    HW221474   3.886   3.853   0.296
 6908SOL     OW21475   4.440   4.289   1.708
 6908SOL    HW121476   4.459   4.354   1.782
 6908SOL    HW221477   4.500   4.209   1.717
 6909SOL     OW21478   4.152   4.148   0.520
 6909SOL    HW121479   4.182   4.076   0.458
 6909SOL    HW221480   4.113   4.108   0.603
 6910SOL     OW21481   4.041   4.271   1.280
 6910SOL    HW121482   4.079   4.212   1.352
 6910SOL    HW221483   4.081   4.245   1.192
 6911SOL     OW21484   3.954   4.352   1.975
 6911SOL    HW121485   3.861   4.350   2.012
 6911SOL    HW221486   3.955   4.313   1.883
 6912SOL     OW21487   3.949   3.999   2.858
 6912SOL    HW121488   3.984   3.982   2.950
 6912SOL    HW221489   3.861   3.954   2.846
 6913SOL     OW21490   3.743   4.092   2.509
 6913SOL    HW121491   3.661   4.135   2.548
 6913SOL    HW221492   3.715   4.019   2.446
 6914SOL     OW21493   4.574   4.522   3.685
 6914SOL    HW121494   4.570   4.598   3.750
 6914SOL    HW221495   4.596   4.558   3.594
 6915SOL     OW21496   4.162   4.116   3.361
 6915SOL    HW121497   4.244   4.060   3.370
 6915SOL    HW221498   4.081   4.058   3.365
 6916SOL     OW21499   3.846   4.367   2.425
 6916SOL    HW121500   3.801   4.279   2.442
 6916SOL    HW221501   3.845   4.421   2.509
 6917SOL     OW21502   3.837   4.461   3.459
 6917SOL    HW121503   3.925   4.448   3.504
 6917SOL    HW221504   3.824   4.558   3.437
 6918SOL     OW21505   4.533   3.728   2.364
 6918SOL    HW121506   4.573   3.819   2.355
 6918SOL    HW221507   4.433   3.736   2.370
 6919SOL     OW21508   4.041   3.975   3.663
 6919SOL    HW121509   4.112   4.046   3.669
 6919SOL    HW221510   3.953   4.014   3.691
 6920SOL     OW21511   4.274   3.920   2.747
 6920SOL    HW121512   4.269   3.915   2.847
 6920SOL    HW221513   4.276   4.016   2.718
 6921SOL     OW21514   3.926   4.009   3.360
 6921SOL    HW121515   3.846   4.069   3.347
 6921SOL    HW221516   3.916   3.960   3.446
 6922SOL     OW21517   4.106   4.424   2.342
 6922SOL    HW121518   4.151   4.334   2.339
 6922SOL    HW221519   4.012   4.413   2.375
 6923SOL     OW21520   4.338   3.846   1.979
 6923SOL    HW121521   4.436   3.824   1.986
 6923SOL    HW221522   4.307   3.829   1.886
 6924SOL     OW21523   4.263   3.788   2.374
 6924SOL    HW121524   4.182   3.789   2.432
 6924SOL    HW221525   4.266   3.871   2.319
 6925SOL     OW21526   4.021   3.759   2.033
 6925SOL    HW121527   4.070   3.843   2.012
 6925SOL    HW221528   4.083   3.694   2.078
 6926SOL     OW21529   4.800   4.407   3.326
 6926SOL    HW121530   4.720   4.346   3.329
 6926SOL    HW221531   4.881   4.354   3.302
 6927SOL     OW21532   3.802   4.280   3.248
 6927SOL    HW121533   3.894   4.279   3.207
 6927SOL    HW221534   3.796   4.354   3.315
 6928SOL     OW21535   4.285   3.946   3.009
 6928SOL    HW121536   4.323   3.862   3.046
 6928SOL    HW221537   4.197   3.965   3.053
 6929SOL     OW21538   4.251   3.980   2.190
 6929SOL    HW121539   4.278   3.921   2.115
 6929SOL    HW221540   4.251   4.075   2.159
 6930SOL     OW21541   4.134   4.537   3.113
 6930SOL    HW121542   4.220   4.549   3.163
 6930SOL    HW221543   4.092   4.450   3.140
 6931SOL     OW21544   4.290   4.261   2.727
 6931SOL    HW121545   4.302   4.327   2.653
 6931SOL    HW221546   4.336   4.295   2.810
 6932SOL     OW21547   4.228   3.774   3.602
 6932SOL    HW121548   4.186   3.717   3.532
 6932SOL    HW221549   4.162   3.843   3.634
 6933SOL     OW21550   4.031   3.937   3.093
 6933SOL    HW121551   4.008   3.974   3.183
 6933SOL    HW221552   4.001   3.842   3.087
 6934SOL     OW21553   4.031   3.787   2.480
 6934SOL    HW121554   4.020   3.881   2.513
 6934SOL    HW221555   4.026   3.724   2.557
 6935SOL     OW21556   4.043   4.534   2.811
 6935SOL    HW121557   4.136   4.570   2.816
 6935SOL    HW221558   4.037   4.449   2.863
 6936SOL     OW21559   4.063   4.233   2.868
 6936SOL    HW121560   4.011   4.150   2.851
 6936SOL    HW221561   4.140   4.238   2.804
 6937SOL     OW21562   3.764   4.268   2.976
 6937SOL    HW121563   3.849   4.235   2.935
 6937SOL    HW221564   3.777   4.283   3.074
 6938SOL     OW21565   3.913   4.244   3.584
 6938SOL    HW121566   3.972   4.204   3.514
 6938SOL    HW221567   3.855   4.315   3.543
 6939SOL     OW21568   4.539   4.296   2.187
 6939SOL    HW121569   4.546   4.207   2.141
 6939SOL    HW221570   4.445   4.330   2.179
 6940SOL     OW21571   4.197   4.224   2.053
 6940SOL    HW121572   4.258   4.304   2.057
 6940SOL    HW221573   4.102   4.255   2.060
 6941SOL     OW21574   3.987   4.050   2.582
 6941SOL    HW121575   3.908   4.101   2.548
 6941SOL    HW221576   3.978   4.035   2.680
 6942SOL     OW21577   4.396   3.927   3.351
 6942SOL    HW121578   4.486   3.911   3.311
 6942SOL    HW221579   4.404   3.932   3.450
 6943SOL     OW21580   3.799   4.069   1.895
 6943SOL    HW121581   3.707   4.041   1.866
 6943SOL    HW221582   3.830   4.146   1.839
 6944SOL     OW21583   3.796   3.890   2.180
 6944SOL    HW121584   3.779   3.973   2.126
 6944SOL    HW221585   3.886   3.853   2.158
 6945SOL     OW21586   4.440   4.289   3.570
 6945SOL    HW121587   4.459   4.354   3.644
 6945SOL    HW221588   4.500   4.209   3.579
 6946SOL     OW21589   4.152   4.148   2.382
 6946SOL    HW121590   4.182   4.076   2.320
 6946SOL    HW221591   4.113   4.108   2.465
 6947SOL     OW21592   4.041   4.271   3.142
 6947SOL    HW121593   4.079   4.212   3.214
 6947SOL    HW221594   4.081   4.245   3.054
 6948SOL     OW21595   3.954   4.352   3.837
 6948SOL    HW121596   3.861   4.350   3.874
 6948SOL    HW221597   3.955   4.313   3.745
 6949SOL     OW21598   3.949   3.999   4.720
 6949SOL    HW121599   3.984   3.982   4.812
 6949SOL    HW221600   3.861   3.954   4.708
 6950SOL     OW21601   3.743   4.092   4.371
 6950SOL    HW121602   3.661   4.135   4.410
 6950SOL    HW221603   3.715   4.019   4.308
 6951SOL     OW21604   4.574   4.522   5.547
 6951SOL    HW121605   4.570   4.598   5.612
 6951SOL    HW221606   4.596   4.558   5.456
 6952SOL     OW21607   4.162   4.116   5.223
 6952SOL    HW121608   4.244   4.060   5.232
 6952SOL    HW221609   4.081   4.058   5.227
 6953SOL     OW21610   3.846   4.367   4.287
 6953SOL    HW121611   3.801   4.279   4.304
 6953SOL    HW221612   3.845   4.421   4.371
 6954SOL     OW21613   3.837   4.461   5.321
 6954SOL    HW121614   3.925   4.448   5.366
 6954SOL    HW221615   3.824   4.558   5.299
 6955SOL     OW21616   4.533   3.728   4.226
 6955SOL    HW121617   4.573   3.819   4.217
 6955SOL    HW221618   4.433   3.736   4.232
 6956SOL     OW21619   4.041   3.975   5.525
 6956SOL    HW121620   4.112   4.046   5.531
 6956SOL    HW221621   3.953   4.014   5.553
 6957SOL     OW21622   4.274   3.920   4.609
 6957SOL    HW121623   4.269   3.915   4.709
 6957SOL    HW221624   4.276   4.016   4.580
 6958SOL     OW21625   3.926   4.009   5.222
 6958SOL    HW121626   3.846   4.069   5.209
 6958SOL    HW221627   3.916   3.960   5.308
 6959SOL     OW21628   4.106   4.424   4.204
 6959SOL    HW121629   4.151   4.334   4.201
 6959SOL    HW221630   4.012   4.413   4.237
 6960SOL     OW21631   4.338   3.846   3.841
 6960SOL    HW121632   4.436   3.824   3.848
 6960SOL    HW221633   4.307   3.829   3.748
 6961SOL     OW21634   4.263   3.788   4.236
 6961SOL    HW121635   4.182   3.789   4.294
 6961SOL    HW221636   4.266   3.871   4.181
 6962SOL     OW21637   4.021   3.759   3.895
 6962SOL    HW121638   4.070   3.843   3.874
 6962SOL    HW221639   4.083   3.694   3.940
 6963SOL     OW21640   4.800   4.407   5.188
 6963SOL    HW121641   4.720   4.346   5.191
 6963SOL    HW221642   4.881   4.354   5.164
 6964SOL     OW21643   3.802   4.280   5.110
 6964SOL    HW121644   3.894   4.279   5.069
 6964SOL    HW221645   3.796   4.354   5.177
 6965SOL     OW21646   4.285   3.946   4.871
 6965SOL    HW121647   4.323   3.862   4.908
 6965SOL    HW221648   4.197   3.965   4.915
 6966SOL     OW21649   4.251   3.980   4.052
 6966SOL    HW121650   4.278   3.921   3.977
 6966SOL    HW221651   4.251   4.075   4.021
 6967SOL     OW21652   4.134   4.537   4.975
 6967SOL    HW121653   4.220   4.549   5.025
 6967SOL    HW221654   4.092   4.450   5.002
 6968SOL     OW21655   4.290   4.261   4.589
 6968SOL    HW121656   4.302   4.327   4.515
 6968SOL    HW221657   4.336   4.295   4.672
 6969SOL     OW21658   4.228   3.774   5.464
 6969SOL    HW121659   4.186   3.717   5.394
 6969SOL    HW221660   4.162   3.843   5.496
 6970SOL     OW21661   4.031   3.937   4.955
 6970SOL    HW121662   4.008   3.974   5.045
 6970SOL    HW221663   4.001   3.842   4.949
 6971SOL     OW21664   4.031   3.787   4.342
 6971SOL    HW121665   4.020   3.881   4.375
 6971SOL    HW221666   4.026   3.724   4.419
 6972SOL     OW21667   4.043   4.534   4.673
 6972SOL    HW121668   4.136   4.570   4.678
 6972SOL    HW221669   4.037   4.449   4.725
 6973SOL     OW21670   4.063   4.233   4.730
 6973SOL    HW121671   4.011   4.150   4.713
 6973SOL    HW221672   4.140   4.238   4.666
 6974SOL     OW21673   3.764   4.268   4.838
 6974SOL    HW121674   3.849   4.235   4.797
 6974SOL    HW221675   3.777   4.283   4.936
 6975SOL     OW21676   3.913   4.244   5.446
 6975SOL    HW121677   3.972   4.204   5.376
 6975SOL    HW221678   3.855   4.315   5.405
 6976SOL     OW21679   4.539   4.296   4.049
 6976SOL    HW121680   4.546   4.207   4.003
 6976SOL    HW221681   4.445   4.330   4.041
 6977SOL     OW21682   4.197   4.224   3.915
 6977SOL    HW121683   4.258   4.304   3.919
 6977SOL    HW221684   4.102   4.255   3.922
 6978SOL     OW21685   3.987   4.050   4.444
 6978SOL    HW121686   3.908   4.101   4.410
 6978SOL    HW221687   3.978   4.035   4.542
 6979SOL     OW21688   4.396   3.927   5.213
 6979SOL    HW121689   4.486   3.911   5.173
 6979SOL    HW221690   4.404   3.932   5.312
 6980SOL     OW21691   3.799   4.069   3.757
 6980SOL    HW121692   3.707   4.041   3.728
 6980SOL    HW221693   3.830   4.146   3.701
 6981SOL     OW21694   3.796   3.890   4.042
 6981SOL    HW121695   3.779   3.973   3.988
 6981SOL    HW221696   3.886   3.853   4.020
 6982SOL     OW21697   4.440   4.289   5.432
 6982SOL    HW121698   4.459   4.354   5.506
 6982SOL    HW221699   4.500   4.209   5.441
 6983SOL     OW21700   4.152   4.148   4.244
 6983SOL    HW121701   4.182   4.076   4.182
 6983SOL    HW221702   4.113   4.108   4.327
 6984SOL     OW21703   4.041   4.271   5.004
 6984SOL    HW121704   4.079   4.212   5.076
 6984SOL    HW221705   4.081   4.245   4.916
 6985SOL     OW21706   3.954   4.352   5.699
 6985SOL    HW121707   3.861   4.350   5.736
 6985SOL    HW221708   3.955   4.313   5.607
 6986SOL     OW21709   3.949   3.999   6.582
 6986SOL    HW121710   3.984   3.982   6.674
 6986SOL    HW221711   3.861   3.954   6.570
 6987SOL     OW21712   3.743   4.092   6.233
 6987SOL    HW121713   3.661   4.135   6.272
 6987SOL    HW221714   3.715   4.019   6.170
 6988SOL     OW21715   4.574   4.522   7.409
 6988SOL    HW121716   4.570   4.598   7.474
 6988SOL    HW221717   4.596   4.558   7.318
 6989SOL     OW21718   4.162   4.116   7.085
 6989SOL    HW121719   4.244   4.060   7.094
 6989SOL    HW221720   4.081   4.058   7.089
 6990SOL     OW21721   3.846   4.367   6.149
 6990SOL    HW121722   3.801   4.279   6.166
 6990SOL    HW221723   3.845   4.421   6.233
 6991SOL     OW21724   3.837   4.461   7.183
 6991SOL    HW121725   3.925   4.448   7.228
 6991SOL    HW221726   3.824   4.558   7.161
 6992SOL     OW21727   4.533   3.728   6.088
 6992SOL    HW121728   4.573   3.819   6.079
 6992SOL    HW221729   4.433   3.736   6.094
 6993SOL     OW21730   4.041   3.975   7.387
 6993SOL    HW121731   4.112   4.046   7.393
 6993SOL    HW221732   3.953   4.014   7.415
 6994SOL     OW21733   4.274   3.920   6.471
 6994SOL    HW121734   4.269   3.915   6.571
 6994SOL    HW221735   4.276   4.016   6.442
 6995SOL     OW21736   3.926   4.009   7.084
 6995SOL    HW121737   3.846   4.069   7.071
 6995SOL    HW221738   3.916   3.960   7.170
 6996SOL     OW21739   4.106   4.424   6.066
 6996SOL    HW121740   4.151   4.334   6.063
 6996SOL    HW221741   4.012   4.413   6.099
 6997SOL     OW21742   4.338   3.846   5.703
 6997SOL    HW121743   4.436   3.824   5.710
 6997SOL    HW221744   4.307   3.829   5.610
 6998SOL     OW21745   4.263   3.788   6.098
 6998SOL    HW121746   4.182   3.789   6.156
 6998SOL    HW221747   4.266   3.871   6.043
 6999SOL     OW21748   4.021   3.759   5.757
 6999SOL    HW121749   4.070   3.843   5.736
 6999SOL    HW221750   4.083   3.694   5.802
 7000SOL     OW21751   4.800   4.407   7.050
 7000SOL    HW121752   4.720   4.346   7.053
 7000SOL    HW221753   4.881   4.354   7.026
 7001SOL     OW21754   3.802   4.280   6.972
 7001SOL    HW121755   3.894   4.279   6.931
 7001SOL    HW221756   3.796   4.354   7.039
 7002SOL     OW21757   4.285   3.946   6.733
 7002SOL    HW121758   4.323   3.862   6.770
 7002SOL    HW221759   4.197   3.965   6.777
 7003SOL     OW21760   4.251   3.980   5.914
 7003SOL    HW121761   4.278   3.921   5.839
 7003SOL    HW221762   4.251   4.075   5.883
 7004SOL     OW21763   4.134   4.537   6.837
 7004SOL    HW121764   4.220   4.549   6.887
 7004SOL    HW221765   4.092   4.450   6.864
 7005SOL     OW21766   4.290   4.261   6.451
 7005SOL    HW121767   4.302   4.327   6.377
 7005SOL    HW221768   4.336   4.295   6.534
 7006SOL     OW21769   4.228   3.774   7.326
 7006SOL    HW121770   4.186   3.717   7.256
 7006SOL    HW221771   4.162   3.843   7.358
 7007SOL     OW21772   4.031   3.937   6.817
 7007SOL    HW121773   4.008   3.974   6.907
 7007SOL    HW221774   4.001   3.842   6.811
 7008SOL     OW21775   4.031   3.787   6.204
 7008SOL    HW121776   4.020   3.881   6.237
 7008SOL    HW221777   4.026   3.724   6.281
 7009SOL     OW21778   4.043   4.534   6.535
 7009SOL    HW121779   4.136   4.570   6.540
 7009SOL    HW221780   4.037   4.449   6.587
 7010SOL     OW21781   4.063   4.233   6.592
 7010SOL    HW121782   4.011   4.150   6.575
 7010SOL    HW221783   4.140   4.238   6.528
 7011SOL     OW21784   3.764   4.268   6.700
 7011SOL    HW121785   3.849   4.235   6.659
 7011SOL    HW221786   3.777   4.283   6.798
 7012SOL     OW21787   3.913   4.244   7.308
 7012SOL    HW121788   3.972   4.204   7.238
 7012SOL    HW221789   3.855   4.315   7.267
 7013SOL     OW21790   4.539   4.296   5.911
 7013SOL    HW121791   4.546   4.207   5.865
 7013SOL    HW221792   4.445   4.330   5.903
 7014SOL     OW21793   4.197   4.224   5.777
 7014SOL    HW121794   4.258   4.304   5.781
 7014SOL    HW221795   4.102   4.255   5.784
 7015SOL     OW21796   3.987   4.050   6.306
 7015SOL    HW121797   3.908   4.101   6.272
 7015SOL    HW221798   3.978   4.035   6.404
 7016SOL     OW21799   4.396   3.927   7.075
 7016SOL    HW121800   4.486   3.911   7.035
 7016SOL    HW221801   4.404   3.932   7.174
 7017SOL     OW21802   3.799   4.069   5.619
 7017SOL    HW121803   3.707   4.041   5.590
 7017SOL    HW221804   3.830   4.146   5.563
 7018SOL     OW21805   3.796   3.890   5.904
 7018SOL    HW121806   3.779   3.973   5.850
 7018SOL    HW221807   3.886   3.853   5.882
 7019SOL     OW21808   4.440   4.289   7.294
 7019SOL    HW121809   4.459   4.354   7.368
 7019SOL    HW221810   4.500   4.209   7.303
 7020SOL     OW21811   4.152   4.148   6.106
 7020SOL    HW121812   4.182   4.076   6.044
 7020SOL    HW221813   4.113   4.108   6.189
 7021SOL     OW21814   4.041   4.271   6.866
 7021SOL    HW121815   4.079   4.212   6.938
 7021SOL    HW221816   4.081   4.245   6.778
 7022SOL     OW21817   3.954   4.352   7.561
 7022SOL    HW121818   3.861   4.350   7.598
 7022SOL    HW221819   3.955   4.313   7.469
 7023SOL     OW21820   3.949   3.999   8.444
 7023SOL    HW121821   3.984   3.982   8.536
 7023SOL    HW221822   3.861   3.954   8.432
 7024SOL     OW21823   3.743   4.092   8.095
 7024SOL    HW121824   3.661   4.135   8.134
 7024SOL    HW221825   3.715   4.019   8.032
 7025SOL     OW21826   4.574   4.522   9.271
 7025SOL    HW121827   4.570   4.598   9.336
 7025SOL    HW221828   4.596   4.558   9.180
 7026SOL     OW21829   4.162   4.116   8.947
 7026SOL    HW121830   4.244   4.060   8.956
 7026SOL    HW221831   4.081   4.058   8.951
 7027SOL     OW21832   3.846   4.367   8.011
 7027SOL    HW121833   3.801   4.279   8.028
 7027SOL    HW221834   3.845   4.421   8.095
 7028SOL     OW21835   3.837   4.461   9.045
 7028SOL    HW121836   3.925   4.448   9.090
 7028SOL    HW221837   3.824   4.558   9.023
 7029SOL     OW21838   4.533   3.728   7.950
 7029SOL    HW121839   4.573   3.819   7.941
 7029SOL    HW221840   4.433   3.736   7.956
 7030SOL     OW21841   4.041   3.975   9.249
 7030SOL    HW121842   4.112   4.046   9.255
 7030SOL    HW221843   3.953   4.014   9.277
 7031SOL     OW21844   4.274   3.920   8.333
 7031SOL    HW121845   4.269   3.915   8.433
 7031SOL    HW221846   4.276   4.016   8.304
 7032SOL     OW21847   3.926   4.009   8.946
 7032SOL    HW121848   3.846   4.069   8.933
 7032SOL    HW221849   3.916   3.960   9.032
 7033SOL     OW21850   4.106   4.424   7.928
 7033SOL    HW121851   4.151   4.334   7.925
 7033SOL    HW221852   4.012   4.413   7.961
 7034SOL     OW21853   4.338   3.846   7.565
 7034SOL    HW121854   4.436   3.824   7.572
 7034SOL    HW221855   4.307   3.829   7.472
 7035SOL     OW21856   4.263   3.788   7.960
 7035SOL    HW121857   4.182   3.789   8.018
 7035SOL    HW221858   4.266   3.871   7.905
 7036SOL     OW21859   4.021   3.759   7.619
 7036SOL    HW121860   4.070   3.843   7.598
 7036SOL    HW221861   4.083   3.694   7.664
 7037SOL     OW21862   4.800   4.407   8.912
 7037SOL    HW121863   4.720   4.346   8.915
 7037SOL    HW221864   4.881   4.354   8.888
 7038SOL     OW21865   3.802   4.280   8.834
 7038SOL    HW121866   3.894   4.279   8.793
 7038SOL    HW221867   3.796   4.354   8.901
 7039SOL     OW21868   4.285   3.946   8.595
 7039SOL    HW121869   4.323   3.862   8.632
 7039SOL    HW221870   4.197   3.965   8.639
 7040SOL     OW21871   4.251   3.980   7.776
 7040SOL    HW121872   4.278   3.921   7.701
 7040SOL    HW221873   4.251   4.075   7.745
 7041SOL     OW21874   4.134   4.537   8.699
 7041SOL    HW121875   4.220   4.549   8.749
 7041SOL    HW221876   4.092   4.450   8.726
 7042SOL     OW21877   4.290   4.261   8.313
 7042SOL    HW121878   4.302   4.327   8.239
 7042SOL    HW221879   4.336   4.295   8.396
 7043SOL     OW21880   4.228   3.774   9.188
 7043SOL    HW121881   4.186   3.717   9.118
 7043SOL    HW221882   4.162   3.843   9.220
 7044SOL     OW21883   4.031   3.937   8.679
 7044SOL    HW121884   4.008   3.974   8.769
 7044SOL    HW221885   4.001   3.842   8.673
 7045SOL     OW21886   4.031   3.787   8.066
 7045SOL    HW121887   4.020   3.881   8.099
 7045SOL    HW221888   4.026   3.724   8.143
 7046SOL     OW21889   4.043   4.534   8.397
 7046SOL    HW121890   4.136   4.570   8.402
 7046SOL    HW221891   4.037   4.449   8.449
 7047SOL     OW21892   4.063   4.233   8.454
 7047SOL    HW121893   4.011   4.150   8.437
 7047SOL    HW221894   4.140   4.238   8.390
 7048SOL     OW21895   3.764   4.268   8.562
 7048SOL    HW121896   3.849   4.235   8.521
 7048SOL    HW221897   3.777   4.283   8.660
 7049SOL     OW21898   3.913   4.244   9.170
 7049SOL    HW121899   3.972   4.204   9.100
 7049SOL    HW221900   3.855   4.315   9.129
 7050SOL     OW21901   4.539   4.296   7.773
 7050SOL    HW121902   4.546   4.207   7.727
 7050SOL    HW221903   4.445   4.330   7.765
 7051SOL     OW21904   4.197   4.224   7.639
 7051SOL    HW121905   4.258   4.304   7.643
 7051SOL    HW221906   4.102   4.255   7.646
 7052SOL     OW21907   3.987   4.050   8.168
 7052SOL    HW121908   3.908   4.101   8.134
 7052SOL    HW221909   3.978   4.035   8.266
 7053SOL     OW21910   4.396   3.927   8.937
 7053SOL    HW121911   4.486   3.911   8.897
 7053SOL    HW221912   4.404   3.932   9.036
 7054SOL     OW21913   3.799   4.069   7.481
 7054SOL    HW121914   3.707   4.041   7.452
 7054SOL    HW221915   3.830   4.146   7.425
 7055SOL     OW21916   3.796   3.890   7.766
 7055SOL    HW121917   3.779   3.973   7.712
 7055SOL    HW221918   3.886   3.853   7.744
 7056SOL     OW21919   4.440   4.289   9.156
 7056SOL    HW121920   4.459   4.354   9.230
 7056SOL    HW221921   4.500   4.209   9.165
 7057SOL     OW21922   4.152   4.148   7.968
 7057SOL    HW121923   4.182   4.076   7.906
 7057SOL    HW221924   4.113   4.108   8.051
 7058SOL     OW21925   4.041   4.271   8.728
 7058SOL    HW121926   4.079   4.212   8.800
 7058SOL    HW221927   4.081   4.245   8.640
 7059SOL     OW21928   3.954   4.352   9.423
 7059SOL    HW121929   3.861   4.350   9.460
 7059SOL    HW221930   3.955   4.313   9.331
 7060SOL     OW21931   3.949   3.999  10.306
 7060SOL    HW121932   3.984   3.982  10.398
 7060SOL    HW221933   3.861   3.954  10.294
 7061SOL     OW21934   3.743   4.092   9.957
 7061SOL    HW121935   3.661   4.135   9.996
 7061SOL    HW221936   3.715   4.019   9.894
 7062SOL     OW21937   4.162   4.116  10.809
 7062SOL    HW121938   4.244   4.060  10.818
 7062SOL    HW221939   4.081   4.058  10.813
 7063SOL     OW21940   3.846   4.367   9.873
 7063SOL    HW121941   3.801   4.279   9.890
 7063SOL    HW221942   3.845   4.421   9.957
 7064SOL     OW21943   3.837   4.461  10.907
 7064SOL    HW121944   3.925   4.448  10.952
 7064SOL    HW221945   3.824   4.558  10.885
 7065SOL     OW21946   4.533   3.728   9.812
 7065SOL    HW121947   4.573   3.819   9.803
 7065SOL    HW221948   4.433   3.736   9.818
 7066SOL     OW21949   4.041   3.975  11.111
 7066SOL    HW121950   4.112   4.046  11.117
 7066SOL    HW221951   3.953   4.014  11.139
 7067SOL     OW21952   4.274   3.920  10.195
 7067SOL    HW121953   4.269   3.915  10.295
 7067SOL    HW221954   4.276   4.016  10.166
 7068SOL     OW21955   3.926   4.009  10.808
 7068SOL    HW121956   3.846   4.069  10.795
 7068SOL    HW221957   3.916   3.960  10.894
 7069SOL     OW21958   4.106   4.424   9.790
 7069SOL    HW121959   4.151   4.334   9.787
 7069SOL    HW221960   4.012   4.413   9.823
 7070SOL     OW21961   4.338   3.846   9.427
 7070SOL    HW121962   4.436   3.824   9.434
 7070SOL    HW221963   4.307   3.829   9.334
 7071SOL     OW21964   4.263   3.788   9.822
 7071SOL    HW121965   4.182   3.789   9.880
 7071SOL    HW221966   4.266   3.871   9.767
 7072SOL     OW21967   4.021   3.759   9.481
 7072SOL    HW121968   4.070   3.843   9.460
 7072SOL    HW221969   4.083   3.694   9.526
 7073SOL     OW21970   4.800   4.407  10.774
 7073SOL    HW121971   4.720   4.346  10.777
 7073SOL    HW221972   4.881   4.354  10.750
 7074SOL     OW21973   3.802   4.280  10.696
 7074SOL    HW121974   3.894   4.279  10.655
 7074SOL    HW221975   3.796   4.354  10.763
 7075SOL     OW21976   4.285   3.946  10.457
 7075SOL    HW121977   4.323   3.862  10.494
 7075SOL    HW221978   4.197   3.965  10.501
 7076SOL     OW21979   4.251   3.980   9.638
 7076SOL    HW121980   4.278   3.921   9.563
 7076SOL    HW221981   4.251   4.075   9.607
 7077SOL     OW21982   4.134   4.537  10.561
 7077SOL    HW121983   4.220   4.549  10.611
 7077SOL    HW221984   4.092   4.450  10.588
 7078SOL     OW21985   4.290   4.261  10.175
 7078SOL    HW121986   4.302   4.327  10.101
 7078SOL    HW221987   4.336   4.295  10.258
 7079SOL     OW21988   4.126   4.475  10.908
 7079SOL    HW121989   4.194   4.530  10.861
 7079SOL    HW221990   4.166   4.387  10.935
 7080SOL     OW21991   4.031   3.937  10.541
 7080SOL    HW121992   4.008   3.974  10.631
 7080SOL    HW221993   4.001   3.842  10.535
 7081SOL     OW21994   4.031   3.787   9.928
 7081SOL    HW121995   4.020   3.881   9.961
 7081SOL    HW221996   4.026   3.724  10.005
 7082SOL     OW21997   4.043   4.534  10.259
 7082SOL    HW121998   4.136   4.570  10.264
 7082SOL    HW221999   4.037   4.449  10.311
 7083SOL     OW22000   4.063   4.233  10.316
 7083SOL    HW122001   4.011   4.150  10.299
 7083SOL    HW222002   4.140   4.238  10.252
 7084SOL     OW22003   3.764   4.268  10.424
 7084SOL    HW122004   3.849   4.235  10.383
 7084SOL    HW222005   3.777   4.283  10.522
 7085SOL     OW22006   4.539   4.296   9.635
 7085SOL    HW122007   4.546   4.207   9.589
 7085SOL    HW222008   4.445   4.330   9.627
 7086SOL     OW22009   4.197   4.224   9.501
 7086SOL    HW122010   4.258   4.304   9.505
 7086SOL    HW222011   4.102   4.255   9.508
 7087SOL     OW22012   3.987   4.050  10.030
 7087SOL    HW122013   3.908   4.101   9.996
 7087SOL    HW222014   3.978   4.035  10.128
 7088SOL     OW22015   4.396   3.927  10.799
 7088SOL    HW122016   4.486   3.911  10.759
 7088SOL    HW222017   4.404   3.932  10.898
 7089SOL     OW22018   3.799   4.069   9.343
 7089SOL    HW122019   3.707   4.041   9.314
 7089SOL    HW222020   3.830   4.146   9.287
 7090SOL     OW22021   3.796   3.890   9.628
 7090SOL    HW122022   3.779   3.973   9.574
 7090SOL    HW222023   3.886   3.853   9.606
 7091SOL     OW22024   4.152   4.148   9.830
 7091SOL    HW122025   4.182   4.076   9.768
 7091SOL    HW222026   4.113   4.108   9.913
 7092SOL     OW22027   4.041   4.271  10.590
 7092SOL    HW122028   4.079   4.212  10.662
 7092SOL    HW222029   4.081   4.245  10.502
   4.50000   4.50000  11.10000
